Title t= 399.00000 step= 199500
44389
    1GLY      N    1   6.171   4.098   1.561
    1GLY    HT1    2   6.170   4.071   1.461
    1GLY    HT2    3   6.212   4.012   1.604
    1GLY    HT3    4   6.234   4.180   1.566
    1GLY     CA    5   6.033   4.147   1.605
    1GLY    HA1    6   6.000   4.202   1.518
    1GLY    HA2    7   6.045   4.200   1.698
    1GLY      C    8   5.933   4.037   1.635
    1GLY      O    9   5.953   3.921   1.599
    2PRO      N   10   5.824   4.064   1.708
    2PRO     CD   11   5.788   4.198   1.752
    2PRO    HD1   12   5.794   4.262   1.661
    2PRO    HD2   13   5.862   4.228   1.828
    2PRO     CA   14   5.751   3.953   1.782
    2PRO     HA   15   5.821   3.894   1.839
    2PRO     CB   16   5.652   4.034   1.871
    2PRO    HB1   17   5.695   4.065   1.968
    2PRO    HB2   18   5.552   3.993   1.899
    2PRO     CG   19   5.653   4.171   1.804
    2PRO    HG1   20   5.576   4.180   1.724
    2PRO    HG2   21   5.610   4.245   1.876
    2PRO      C   22   5.675   3.853   1.697
    2PRO      O   23   5.602   3.896   1.605
    3GLY      N   24   5.685   3.722   1.733
    3GLY     HN   25   5.739   3.693   1.812
    3GLY     CA   26   5.625   3.617   1.659
    3GLY    HA1   27   5.524   3.648   1.634
    3GLY    HA2   28   5.638   3.528   1.718
    3GLY      C   29   5.700   3.584   1.531
    3GLY      O   30   5.808   3.638   1.497
    4ASP      N   31   5.647   3.485   1.456
    4ASP     HN   32   5.558   3.447   1.476
    4ASP     CA   33   5.732   3.411   1.377
    4ASP     HA   34   5.834   3.423   1.411
    4ASP     CB   35   5.709   3.263   1.393
    4ASP    HB1   36   5.780   3.208   1.329
    4ASP    HB2   37   5.606   3.238   1.358
    4ASP     CG   38   5.719   3.198   1.528
    4ASP    OD1   39   5.764   3.266   1.625
    4ASP    OD2   40   5.679   3.079   1.541
    4ASP      C   41   5.740   3.442   1.224
    4ASP      O   42   5.636   3.480   1.168
    5PRO      N   43   5.848   3.433   1.152
    5PRO     CD   44   5.978   3.440   1.208
    5PRO    HD1   45   5.994   3.357   1.280
    5PRO    HD2   46   5.985   3.532   1.271
    5PRO     CA   47   5.850   3.390   1.014
    5PRO     HA   48   5.827   3.480   0.960
    5PRO     CB   49   5.995   3.346   0.992
    5PRO    HB1   50   6.028   3.366   0.888
    5PRO    HB2   51   6.005   3.237   1.014
    5PRO     CG   52   6.072   3.428   1.086
    5PRO    HG1   53   6.169   3.388   1.123
    5PRO    HG2   54   6.098   3.529   1.049
    5PRO      C   55   5.747   3.287   0.966
    5PRO      O   56   5.713   3.199   1.049
    6GLY      N   57   5.686   3.291   0.849
    6GLY     HN   58   5.701   3.373   0.794
    6GLY     CA   59   5.592   3.190   0.807
    6GLY    HA1   60   5.601   3.100   0.866
    6GLY    HA2   61   5.604   3.173   0.701
    6GLY      C   62   5.451   3.245   0.835
    6GLY      O   63   5.426   3.349   0.904
    7SER      N   64   5.350   3.173   0.779
    7SER     HN   65   5.394   3.103   0.723
    7SER     CA   66   5.202   3.198   0.779
    7SER     HA   67   5.185   3.302   0.799
    7SER     CB   68   5.129   3.183   0.643
    7SER    HB1   69   5.019   3.177   0.659
    7SER    HB2   70   5.168   3.094   0.589
    7SER     OG   71   5.144   3.298   0.562
    7SER    HG1   72   5.073   3.356   0.589
    7SER      C   73   5.126   3.112   0.881
    7SER      O   74   5.135   2.990   0.872
    8GLY      N   75   5.063   3.180   0.973
    8GLY     HN   76   5.063   3.280   0.977
    8GLY     CA   77   4.970   3.120   1.067
    8GLY    HA1   78   4.938   3.211   1.117
    8GLY    HA2   79   5.034   3.056   1.125
    8GLY      C   80   4.840   3.066   1.018
    8GLY      O   81   4.818   3.023   0.903
    9ASN      N   82   4.741   3.064   1.111
    9ASN     HN   83   4.761   3.105   1.200
    9ASN     CA   84   4.616   2.989   1.086
    9ASN     HA   85   4.613   2.968   0.980
    9ASN     CB   86   4.625   2.851   1.153
    9ASN    HB1   87   4.611   2.865   1.263
    9ASN    HB2   88   4.723   2.806   1.126
    9ASN     CG   89   4.523   2.749   1.098
    9ASN    OD1   90   4.425   2.780   1.027
    9ASN    ND2   91   4.547   2.621   1.127
    9ASN   HD21   92   4.498   2.549   1.078
    9ASN   HD22   93   4.625   2.597   1.185
    9ASN      C   94   4.512   3.079   1.148
    9ASN      O   95   4.528   3.097   1.263
   10PRO      N   96   4.414   3.130   1.092
   10PRO     CD   97   4.394   3.125   0.945
   10PRO    HD1   98   4.372   3.018   0.926
   10PRO    HD2   99   4.482   3.158   0.885
   10PRO     CA  100   4.301   3.190   1.153
   10PRO     HA  101   4.338   3.288   1.180
   10PRO     CB  102   4.190   3.186   1.049
   10PRO    HB1  103   4.119   3.270   1.062
   10PRO    HB2  104   4.140   3.087   1.054
   10PRO     CG  105   4.266   3.213   0.916
   10PRO    HG1  106   4.219   3.197   0.817
   10PRO    HG2  107   4.307   3.316   0.915
   10PRO      C  108   4.251   3.134   1.280
   10PRO      O  109   4.246   3.013   1.309
   11GLY      N  110   4.210   3.224   1.368
   11GLY     HN  111   4.216   3.322   1.354
   11GLY     CA  112   4.131   3.193   1.490
   11GLY    HA1  113   4.109   3.288   1.537
   11GLY    HA2  114   4.169   3.115   1.554
   11GLY      C  115   3.992   3.145   1.454
   11GLY      O  116   3.965   3.112   1.337
   12SER      N  117   3.894   3.150   1.551
   12SER     HN  118   3.927   3.164   1.644
   12SER     CA  119   3.752   3.131   1.530
   12SER     HA  120   3.724   3.162   1.430
   12SER     CB  121   3.702   2.989   1.561
   12SER    HB1  122   3.730   2.928   1.473
   12SER    HB2  123   3.592   2.978   1.545
   12SER     OG  124   3.744   2.931   1.683
   12SER    HG1  125   3.840   2.928   1.682
   12SER      C  126   3.673   3.218   1.621
   12SER      O  127   3.562   3.254   1.593
   13GLY      N  128   3.733   3.262   1.734
   13GLY     HN  129   3.827   3.246   1.764
   13GLY     CA  130   3.659   3.336   1.834
   13GLY    HA1  131   3.621   3.422   1.781
   13GLY    HA2  132   3.731   3.341   1.914
   13GLY      C  133   3.545   3.259   1.901
   13GLY      O  134   3.541   3.137   1.904
   14ASP      N  135   3.447   3.328   1.956
   14ASP     HN  136   3.458   3.426   1.970
   14ASP     CA  137   3.326   3.276   2.022
   14ASP     HA  138   3.367   3.244   2.116
   14ASP     CB  139   3.226   3.389   2.049
   14ASP    HB1  140   3.125   3.352   2.078
   14ASP    HB2  141   3.213   3.448   1.956
   14ASP     CG  142   3.283   3.492   2.151
   14ASP    OD1  143   3.394   3.471   2.211
   14ASP    OD2  144   3.208   3.591   2.181
   14ASP      C  145   3.251   3.164   1.957
   14ASP      O  146   3.246   3.161   1.833
   15PRO      N  147   3.187   3.075   2.024
   15PRO     CD  148   3.224   3.032   2.159
   15PRO    HD1  149   3.214   3.120   2.227
   15PRO    HD2  150   3.332   3.003   2.158
   15PRO     CA  151   3.129   2.963   1.950
   15PRO     HA  152   3.208   2.921   1.889
   15PRO     CB  153   3.091   2.857   2.064
   15PRO    HB1  154   3.131   2.761   2.025
   15PRO    HB2  155   2.981   2.844   2.072
   15PRO     CG  156   3.142   2.916   2.202
   15PRO    HG1  157   3.051   2.951   2.253
   15PRO    HG2  158   3.183   2.840   2.272
   15PRO      C  159   3.015   3.000   1.850
   15PRO    OT1  160   2.919   3.076   1.882
   15PRO    OT2  161   3.024   2.955   1.736
   16SOD    SOD  162   4.444   5.235   0.656
   17SOD    SOD  163   1.249   2.453   1.793
   18SOD    SOD  164   3.906   6.401   4.207
   19SOD    SOD  165   7.077   5.563   4.696
   20SOD    SOD  166   2.940   2.098   3.676
   21SOD    SOD  167   6.517   1.408   5.757
   22SOD    SOD  168   4.979   5.136   4.300
   23SOD    SOD  169   4.861   0.138   4.293
   24SOD    SOD  170   1.190   6.770   0.153
   25SOD    SOD  171   5.013   6.261   5.503
   26SOD    SOD  172   2.212   3.666   3.831
   27SOD    SOD  173   0.330   4.240   2.501
   28SOD    SOD  174   7.010   1.118   4.464
   29SOD    SOD  175   4.033   0.145   1.524
   30SOD    SOD  176   2.360   0.161   5.569
   31SOD    SOD  177   3.699   2.662   2.131
   32SOD    SOD  178   5.637   1.907   4.068
   33SOD    SOD  179   7.654   5.363   1.311
   34SOD    SOD  180   0.954   5.731   6.185
   35SOD    SOD  181   7.560   5.307   0.338
   36SOD    SOD  182   6.204   2.128   6.570
   37SOD    SOD  183   1.699   3.522   3.974
   38SOD    SOD  184   7.313   3.949   5.500
   39SOD    SOD  185   4.973   3.906   4.167
   40SOD    SOD  186   7.071   7.562   0.970
   41SOD    SOD  187   3.736   6.854   1.161
   42SOD    SOD  188   7.308   5.086   3.790
   43SOD    SOD  189   6.490   3.456   4.641
   44SOD    SOD  190   8.063   1.964   5.832
   45SOD    SOD  191   2.438   2.795   1.632
   46SOD    SOD  192   1.897   3.702   6.296
   47SOD    SOD  193   4.227   4.433   2.745
   48SOD    SOD  194   2.519   0.269   3.891
   49SOD    SOD  195   0.079   1.754   1.166
   50SOD    SOD  196   5.633   4.649   3.152
   51SOD    SOD  197   5.721   4.018   0.902
   52SOD    SOD  198   2.849   3.742   6.454
   53SOD    SOD  199   5.160   0.724   0.647
   54SOD    SOD  200   0.451   5.826   1.953
   55SOD    SOD  201   1.349   7.476   2.373
   56SOD    SOD  202   1.744   2.523   5.336
   57SOD    SOD  203   7.522   0.359   6.031
   58SOD    SOD  204   5.113   3.318   6.300
   59SOD    SOD  205   2.603   4.215   3.015
   60CLA    CLA  206   2.914   0.648   4.311
   61CLA    CLA  207   2.138   7.489   3.639
   62CLA    CLA  208   0.291   2.669   6.170
   63CLA    CLA  209   2.981   2.085   1.521
   64CLA    CLA  210   0.855   7.195   0.587
   65CLA    CLA  211   0.122   5.589   5.139
   66CLA    CLA  212   0.458   6.577   1.333
   67CLA    CLA  213   3.801   6.739   3.269
   68CLA    CLA  214   5.075   4.617   5.120
   69CLA    CLA  215   1.370   5.530   1.855
   70CLA    CLA  216   0.738   2.784   3.812
   71CLA    CLA  217   2.903   6.385   5.782
   72CLA    CLA  218   1.205   4.717   0.230
   73CLA    CLA  219   8.074   4.901   0.757
   74CLA    CLA  220   7.078   6.253   5.157
   75CLA    CLA  221   7.623   4.358   0.636
   76CLA    CLA  222   3.048   0.151   5.811
   77CLA    CLA  223   5.642   7.587   1.918
   78CLA    CLA  224   2.739   1.488   5.479
   79CLA    CLA  225   4.295   2.862   0.395
   80CLA    CLA  226   0.890   1.262   1.115
   81CLA    CLA  227   4.432   1.005   3.598
   82CLA    CLA  228   0.295   3.373   3.813
   83CLA    CLA  229   7.495   6.465   6.110
   84CLA    CLA  230   6.449   5.298   4.266
   85CLA    CLA  231   5.548   4.462   2.610
   86CLA    CLA  232   6.668   7.015   4.584
   87CLA    CLA  233   1.114   7.300   1.572
   88CLA    CLA  234   8.208   5.352   4.139
   89CLA    CLA  235   1.912   7.501   4.055
   90CLA    CLA  236   7.189   5.720   3.186
   91CLA    CLA  237   7.423   5.007   1.543
   92CLA    CLA  238   1.404   1.713   3.029
   93CLA    CLA  239   6.833   5.101   1.197
   94CLA    CLA  240   2.538   2.721   3.566
   95CLA    CLA  241   3.572   4.579   3.935
   96CLA    CLA  242   5.669   0.726   4.725
   97CLA    CLA  243   7.899   1.808   1.172
   98CLA    CLA  244   6.411   3.873   3.327
   99CLA    CLA  245   3.265   5.657   5.164
  100CLA    CLA  246   2.964   5.706   6.158
  101CLA    CLA  247   4.955   2.736   4.848
  102TIP3   OH2  248   1.299   3.207   4.454
  102TIP3    H1  249   1.303   3.244   4.366
  102TIP3    H2  250   1.381   3.159   4.464
  103TIP3   OH2  251   6.763   2.985   5.426
  103TIP3    H1  252   6.749   3.047   5.354
  103TIP3    H2  253   6.838   3.021   5.474
  104TIP3   OH2  254   1.048   4.894   0.015
  104TIP3    H1  255   1.129   4.917  -0.032
  104TIP3    H2  256   1.076   4.831   0.081
  105TIP3   OH2  257   2.259   3.870   5.367
  105TIP3    H1  258   2.332   3.819   5.331
  105TIP3    H2  259   2.281   3.961   5.345
  106TIP3   OH2  260   4.916   4.192   2.084
  106TIP3    H1  261   4.912   4.147   2.000
  106TIP3    H2  262   4.917   4.122   2.149
  107TIP3   OH2  263   3.515   7.481   2.721
  107TIP3    H1  264   3.485   7.399   2.682
  107TIP3    H2  265   3.575   7.454   2.791
  108TIP3   OH2  266   8.190   1.797   4.389
  108TIP3    H1  267   8.215   1.746   4.466
  108TIP3    H2  268   8.250   1.769   4.320
  109TIP3   OH2  269   2.944   3.456   0.335
  109TIP3    H1  270   3.006   3.469   0.407
  109TIP3    H2  271   2.897   3.539   0.329
  110TIP3   OH2  272   3.108   0.313   4.181
  110TIP3    H1  273   3.086   0.407   4.179
  110TIP3    H2  274   3.162   0.303   4.258
  111TIP3   OH2  275   2.664   4.055   0.730
  111TIP3    H1  276   2.713   4.075   0.810
  111TIP3    H2  277   2.610   4.132   0.715
  112TIP3   OH2  278   5.344   0.274   3.376
  112TIP3    H1  279   5.249   0.268   3.369
  112TIP3    H2  280   5.361   0.366   3.397
  113TIP3   OH2  281   5.375   7.813   5.210
  113TIP3    H1  282   5.321   7.810   5.131
  113TIP3    H2  283   5.354   7.733   5.257
  114TIP3   OH2  284   6.899   4.057   5.502
  114TIP3    H1  285   6.856   4.137   5.472
  114TIP3    H2  286   6.828   4.002   5.533
  115TIP3   OH2  287   7.714   0.955   5.927
  115TIP3    H1  288   7.634   1.001   5.953
  115TIP3    H2  289   7.692   0.914   5.843
  116TIP3   OH2  290   7.298   4.370   4.869
  116TIP3    H1  291   7.365   4.439   4.867
  116TIP3    H2  292   7.260   4.376   4.956
  117TIP3   OH2  293   3.887   1.191   2.955
  117TIP3    H1  294   3.939   1.148   2.888
  117TIP3    H2  295   3.945   1.195   3.031
  118TIP3   OH2  296   2.109   7.534   5.204
  118TIP3    H1  297   2.130   7.490   5.122
  118TIP3    H2  298   2.150   7.620   5.197
  119TIP3   OH2  299   0.713   6.706   4.097
  119TIP3    H1  300   0.647   6.646   4.063
  119TIP3    H2  301   0.775   6.717   4.025
  120TIP3   OH2  302   3.576   5.350   3.627
  120TIP3    H1  303   3.609   5.340   3.538
  120TIP3    H2  304   3.629   5.290   3.680
  121TIP3   OH2  305   1.846   6.909   1.146
  121TIP3    H1  306   1.754   6.882   1.147
  121TIP3    H2  307   1.845   6.994   1.103
  122TIP3   OH2  308   7.789   6.405   0.183
  122TIP3    H1  309   7.877   6.396   0.219
  122TIP3    H2  310   7.735   6.347   0.237
  123TIP3   OH2  311   3.954   0.793   2.086
  123TIP3    H1  312   3.913   0.861   2.032
  123TIP3    H2  313   4.047   0.799   2.065
  124TIP3   OH2  314   0.986   4.157   1.027
  124TIP3    H1  315   1.030   4.240   1.009
  124TIP3    H2  316   1.036   4.092   0.977
  125TIP3   OH2  317   2.674   4.213   3.265
  125TIP3    H1  318   2.748   4.152   3.254
  125TIP3    H2  319   2.645   4.198   3.355
  126TIP3   OH2  320   4.971   6.872   6.518
  126TIP3    H1  321   5.010   6.960   6.518
  126TIP3    H2  322   4.878   6.888   6.535
  127TIP3   OH2  323   0.701   4.953   1.016
  127TIP3    H1  324   0.624   5.002   1.045
  127TIP3    H2  325   0.667   4.881   0.964
  128TIP3   OH2  326   2.206   6.493   3.944
  128TIP3    H1  327   2.187   6.511   4.036
  128TIP3    H2  328   2.291   6.534   3.928
  129TIP3   OH2  329   0.468   6.684   6.650
  129TIP3    H1  330   0.461   6.636   6.567
  129TIP3    H2  331   0.491   6.618   6.715
  130TIP3   OH2  332   2.454   2.660   0.885
  130TIP3    H1  333   2.447   2.609   0.965
  130TIP3    H2  334   2.496   2.742   0.911
  131TIP3   OH2  335   3.821   6.318   5.500
  131TIP3    H1  336   3.758   6.339   5.431
  131TIP3    H2  337   3.804   6.382   5.569
  132TIP3   OH2  338   6.228   2.556   6.158
  132TIP3    H1  339   6.312   2.598   6.141
  132TIP3    H2  340   6.166   2.604   6.105
  133TIP3   OH2  341   1.302   5.440   0.026
  133TIP3    H1  342   1.288   5.529  -0.007
  133TIP3    H2  343   1.394   5.422   0.006
  134TIP3   OH2  344   3.186   1.955   3.165
  134TIP3    H1  345   3.279   1.936   3.178
  134TIP3    H2  346   3.150   1.874   3.129
  135TIP3   OH2  347   0.694   1.903   6.668
  135TIP3    H1  348   0.640   1.981   6.681
  135TIP3    H2  349   0.689   1.857   6.753
  136TIP3   OH2  350   0.327   6.311   1.134
  136TIP3    H1  351   0.397   6.276   1.079
  136TIP3    H2  352   0.366   6.385   1.179
  137TIP3   OH2  353   4.718   5.239   6.518
  137TIP3    H1  354   4.674   5.304   6.573
  137TIP3    H2  355   4.753   5.290   6.445
  138TIP3   OH2  356   2.679   0.753   5.165
  138TIP3    H1  357   2.741   0.803   5.218
  138TIP3    H2  358   2.629   0.701   5.229
  139TIP3   OH2  359   5.981   3.680   1.794
  139TIP3    H1  360   5.967   3.586   1.784
  139TIP3    H2  361   5.958   3.718   1.709
  140TIP3   OH2  362   7.543   4.856   1.778
  140TIP3    H1  363   7.637   4.857   1.795
  140TIP3    H2  364   7.531   4.918   1.706
  141TIP3   OH2  365   5.861   0.371   1.077
  141TIP3    H1  366   5.785   0.429   1.067
  141TIP3    H2  367   5.861   0.319   0.997
  142TIP3   OH2  368   2.733   3.429   1.565
  142TIP3    H1  369   2.753   3.516   1.599
  142TIP3    H2  370   2.749   3.370   1.638
  143TIP3   OH2  371   7.286   1.160   4.908
  143TIP3    H1  372   7.349   1.232   4.903
  143TIP3    H2  373   7.216   1.193   4.964
  144TIP3   OH2  374   7.711   7.338   4.067
  144TIP3    H1  375   7.629   7.381   4.089
  144TIP3    H2  376   7.731   7.368   3.978
  145TIP3   OH2  377   6.323   4.642   0.698
  145TIP3    H1  378   6.305   4.736   0.698
  145TIP3    H2  379   6.394   4.631   0.636
  146TIP3   OH2  380   4.714   6.051   3.355
  146TIP3    H1  381   4.696   6.139   3.322
  146TIP3    H2  382   4.629   6.009   3.358
  147TIP3   OH2  383   6.174   0.271   5.769
  147TIP3    H1  384   6.150   0.315   5.687
  147TIP3    H2  385   6.117   0.311   5.835
  148TIP3   OH2  386   0.112   1.615   3.041
  148TIP3    H1  387   0.063   1.547   2.996
  148TIP3    H2  388   0.149   1.668   2.970
  149TIP3   OH2  389   6.792   3.084   6.551
  149TIP3    H1  390   6.750   3.097   6.466
  149TIP3    H2  391   6.787   3.170   6.593
  150TIP3   OH2  392   2.240   1.181   4.215
  150TIP3    H1  393   2.261   1.261   4.166
  150TIP3    H2  394   2.237   1.112   4.148
  151TIP3   OH2  395   6.664   0.354   2.791
  151TIP3    H1  396   6.638   0.414   2.861
  151TIP3    H2  397   6.630   0.394   2.711
  152TIP3   OH2  398   6.446   1.399   5.341
  152TIP3    H1  399   6.471   1.459   5.272
  152TIP3    H2  400   6.449   1.312   5.300
  153TIP3   OH2  401   2.355   5.991   4.754
  153TIP3    H1  402   2.362   5.973   4.848
  153TIP3    H2  403   2.361   5.904   4.713
  154TIP3   OH2  404   3.129   5.005   6.210
  154TIP3    H1  405   3.043   4.976   6.178
  154TIP3    H2  406   3.191   4.946   6.167
  155TIP3   OH2  407   3.355   6.297   4.480
  155TIP3    H1  408   3.447   6.298   4.505
  155TIP3    H2  409   3.312   6.354   4.545
  156TIP3   OH2  410   6.431   2.956   0.835
  156TIP3    H1  411   6.349   2.921   0.868
  156TIP3    H2  412   6.413   2.978   0.744
  157TIP3   OH2  413   1.385   7.601   2.556
  157TIP3    H1  414   1.341   7.598   2.641
  157TIP3    H2  415   1.457   7.663   2.568
  158TIP3   OH2  416   7.295   5.747   5.889
  158TIP3    H1  417   7.222   5.700   5.930
  158TIP3    H2  418   7.299   5.831   5.936
  159TIP3   OH2  419   4.130   7.755   0.810
  159TIP3    H1  420   4.199   7.805   0.854
  159TIP3    H2  421   4.163   7.665   0.810
  160TIP3   OH2  422   2.926   6.047   0.703
  160TIP3    H1  423   2.937   6.125   0.647
  160TIP3    H2  424   2.883   5.983   0.646
  161TIP3   OH2  425   7.154   5.224   6.652
  161TIP3    H1  426   7.159   5.141   6.604
  161TIP3    H2  427   7.178   5.290   6.589
  162TIP3   OH2  428   2.415   1.253   0.355
  162TIP3    H1  429   2.460   1.173   0.383
  162TIP3    H2  430   2.418   1.250   0.260
  163TIP3   OH2  431   6.873   6.000   2.268
  163TIP3    H1  432   6.882   6.051   2.187
  163TIP3    H2  433   6.956   6.015   2.314
  164TIP3   OH2  434   0.756   5.320   5.068
  164TIP3    H1  435   0.760   5.376   5.146
  164TIP3    H2  436   0.662   5.306   5.054
  165TIP3   OH2  437   4.714   2.351   2.673
  165TIP3    H1  438   4.745   2.406   2.745
  165TIP3    H2  439   4.775   2.278   2.670
  166TIP3   OH2  440   7.865   6.501   3.737
  166TIP3    H1  441   7.846   6.471   3.648
  166TIP3    H2  442   7.809   6.447   3.793
  167TIP3   OH2  443   3.015   3.644   4.601
  167TIP3    H1  444   2.982   3.675   4.685
  167TIP3    H2  445   3.011   3.548   4.607
  168TIP3   OH2  446   1.677   1.453   2.866
  168TIP3    H1  447   1.681   1.527   2.926
  168TIP3    H2  448   1.610   1.476   2.802
  169TIP3   OH2  449   7.161   0.011   1.760
  169TIP3    H1  450   7.192   0.092   1.718
  169TIP3    H2  451   7.187  -0.059   1.700
  170TIP3   OH2  452   3.454   3.119   2.460
  170TIP3    H1  453   3.407   3.200   2.478
  170TIP3    H2  454   3.402   3.076   2.391
  171TIP3   OH2  455   0.925   5.440   0.453
  171TIP3    H1  456   0.971   5.414   0.373
  171TIP3    H2  457   0.993   5.482   0.507
  172TIP3   OH2  458   5.443   3.631   2.489
  172TIP3    H1  459   5.424   3.538   2.498
  172TIP3    H2  460   5.504   3.651   2.560
  173TIP3   OH2  461   7.908   5.043   1.481
  173TIP3    H1  462   8.000   5.028   1.502
  173TIP3    H2  463   7.873   5.087   1.559
  174TIP3   OH2  464   2.045   2.426   6.303
  174TIP3    H1  465   2.026   2.431   6.209
  174TIP3    H2  466   1.981   2.364   6.337
  175TIP3   OH2  467   1.389   0.329   4.678
  175TIP3    H1  468   1.469   0.317   4.628
  175TIP3    H2  469   1.403   0.411   4.726
  176TIP3   OH2  470   0.671   1.003   1.604
  176TIP3    H1  471   0.630   1.090   1.607
  176TIP3    H2  472   0.761   1.020   1.578
  177TIP3   OH2  473   3.356   3.314   5.650
  177TIP3    H1  474   3.323   3.262   5.723
  177TIP3    H2  475   3.382   3.397   5.689
  178TIP3   OH2  476   6.155   3.937   3.583
  178TIP3    H1  477   6.211   3.920   3.506
  178TIP3    H2  478   6.100   3.859   3.589
  179TIP3   OH2  479   3.714   6.496   0.147
  179TIP3    H1  480   3.759   6.512   0.064
  179TIP3    H2  481   3.643   6.436   0.124
  180TIP3   OH2  482   0.436   6.552   6.413
  180TIP3    H1  483   0.378   6.568   6.338
  180TIP3    H2  484   0.400   6.473   6.454
  181TIP3   OH2  485   5.679   5.313   2.647
  181TIP3    H1  486   5.634   5.267   2.718
  181TIP3    H2  487   5.669   5.254   2.572
  182TIP3   OH2  488   4.703   0.104   0.500
  182TIP3    H1  489   4.677   0.048   0.573
  182TIP3    H2  490   4.740   0.181   0.541
  183TIP3   OH2  491   2.093   0.729   0.761
  183TIP3    H1  492   2.089   0.819   0.731
  183TIP3    H2  493   2.002   0.708   0.784
  184TIP3   OH2  494   0.763   5.321   2.489
  184TIP3    H1  495   0.833   5.260   2.512
  184TIP3    H2  496   0.731   5.354   2.573
  185TIP3   OH2  497   4.618   3.588   0.287
  185TIP3    H1  498   4.644   3.648   0.217
  185TIP3    H2  499   4.562   3.523   0.244
  186TIP3   OH2  500   6.044   0.081   3.015
  186TIP3    H1  501   6.098   0.103   2.939
  186TIP3    H2  502   5.954   0.098   2.987
  187TIP3   OH2  503   3.974   0.109   2.750
  187TIP3    H1  504   4.029   0.054   2.805
  187TIP3    H2  505   3.959   0.187   2.802
  188TIP3   OH2  506   3.728   4.758   3.088
  188TIP3    H1  507   3.751   4.671   3.056
  188TIP3    H2  508   3.707   4.808   3.009
  189TIP3   OH2  509   4.149   5.108   3.827
  189TIP3    H1  510   4.074   5.099   3.886
  189TIP3    H2  511   4.224   5.121   3.884
  190TIP3   OH2  512   6.857   6.869   6.234
  190TIP3    H1  513   6.926   6.892   6.296
  190TIP3    H2  514   6.775   6.886   6.281
  191TIP3   OH2  515   2.119   6.726   0.508
  191TIP3    H1  516   2.130   6.632   0.522
  191TIP3    H2  517   2.031   6.745   0.541
  192TIP3   OH2  518   2.272   2.424   1.805
  192TIP3    H1  519   2.287   2.344   1.754
  192TIP3    H2  520   2.234   2.393   1.887
  193TIP3   OH2  521   4.607   5.956   4.801
  193TIP3    H1  522   4.617   5.989   4.890
  193TIP3    H2  523   4.665   6.011   4.748
  194TIP3   OH2  524   6.946   3.965   2.699
  194TIP3    H1  525   6.884   3.949   2.771
  194TIP3    H2  526   6.908   4.038   2.650
  195TIP3   OH2  527   2.856   3.067   0.245
  195TIP3    H1  528   2.788   3.102   0.302
  195TIP3    H2  529   2.857   2.973   0.263
  196TIP3   OH2  530   6.291   6.544   1.765
  196TIP3    H1  531   6.280   6.617   1.705
  196TIP3    H2  532   6.346   6.481   1.717
  197TIP3   OH2  533   4.939   1.484   4.365
  197TIP3    H1  534   5.027   1.455   4.341
  197TIP3    H2  535   4.895   1.498   4.281
  198TIP3   OH2  536   3.691   7.352   2.441
  198TIP3    H1  537   3.688   7.446   2.462
  198TIP3    H2  538   3.622   7.340   2.376
  199TIP3   OH2  539   5.638   6.223   0.204
  199TIP3    H1  540   5.693   6.261   0.272
  199TIP3    H2  541   5.666   6.267   0.123
  200TIP3   OH2  542   6.659   3.176   2.180
  200TIP3    H1  543   6.650   3.186   2.274
  200TIP3    H2  544   6.634   3.086   2.162
  201TIP3   OH2  545   2.691   2.505   6.713
  201TIP3    H1  546   2.771   2.452   6.710
  201TIP3    H2  547   2.624   2.445   6.745
  202TIP3   OH2  548   1.338   6.896   0.547
  202TIP3    H1  549   1.345   6.992   0.548
  202TIP3    H2  550   1.300   6.874   0.632
  203TIP3   OH2  551   6.734   6.766   3.490
  203TIP3    H1  552   6.658   6.824   3.480
  203TIP3    H2  553   6.802   6.806   3.436
  204TIP3   OH2  554   1.816   5.882   5.464
  204TIP3    H1  555   1.775   5.814   5.518
  204TIP3    H2  556   1.742   5.928   5.424
  205TIP3   OH2  557   2.832   6.090   5.796
  205TIP3    H1  558   2.849   6.183   5.811
  205TIP3    H2  559   2.782   6.062   5.872
  206TIP3   OH2  560   0.242   6.701   5.495
  206TIP3    H1  561   0.148   6.701   5.508
  206TIP3    H2  562   0.277   6.747   5.572
  207TIP3   OH2  563   5.686   2.007   5.616
  207TIP3    H1  564   5.610   2.064   5.620
  207TIP3    H2  565   5.744   2.049   5.553
  208TIP3   OH2  566   0.431   6.984   1.171
  208TIP3    H1  567   0.482   7.032   1.106
  208TIP3    H2  568   0.478   6.997   1.253
  209TIP3   OH2  569   1.755   5.795   4.992
  209TIP3    H1  570   1.672   5.750   4.975
  209TIP3    H2  571   1.814   5.762   4.925
  210TIP3   OH2  572   1.448   7.202   1.516
  210TIP3    H1  573   1.363   7.246   1.508
  210TIP3    H2  574   1.434   7.135   1.583
  211TIP3   OH2  575   2.880   5.768   2.747
  211TIP3    H1  576   2.955   5.719   2.713
  211TIP3    H2  577   2.857   5.828   2.676
  212TIP3   OH2  578   5.400   5.377   3.943
  212TIP3    H1  579   5.391   5.283   3.925
  212TIP3    H2  580   5.400   5.418   3.857
  213TIP3   OH2  581   1.595   4.553   6.352
  213TIP3    H1  582   1.623   4.634   6.396
  213TIP3    H2  583   1.554   4.584   6.271
  214TIP3   OH2  584   1.866   2.845   5.667
  214TIP3    H1  585   1.790   2.903   5.661
  214TIP3    H2  586   1.833   2.767   5.712
  215TIP3   OH2  587   0.210   1.656   1.608
  215TIP3    H1  588   0.200   1.714   1.533
  215TIP3    H2  589   0.304   1.661   1.629
  216TIP3   OH2  590   6.467   2.363   4.709
  216TIP3    H1  591   6.478   2.380   4.803
  216TIP3    H2  592   6.379   2.395   4.690
  217TIP3   OH2  593   2.092   7.562   1.962
  217TIP3    H1  594   2.124   7.558   1.872
  217TIP3    H2  595   2.009   7.515   1.960
  218TIP3   OH2  596   6.999   2.661   1.125
  218TIP3    H1  597   6.926   2.687   1.069
  218TIP3    H2  598   6.985   2.710   1.206
  219TIP3   OH2  599   6.748   6.325   2.569
  219TIP3    H1  600   6.811   6.304   2.501
  219TIP3    H2  601   6.801   6.344   2.646
  220TIP3   OH2  602   5.845   2.392   5.549
  220TIP3    H1  603   5.891   2.309   5.534
  220TIP3    H2  604   5.759   2.366   5.582
  221TIP3   OH2  605   3.027   4.036   2.447
  221TIP3    H1  606   2.938   4.063   2.422
  221TIP3    H2  607   3.081   4.114   2.430
  222TIP3   OH2  608   4.325   2.463   0.431
  222TIP3    H1  609   4.283   2.377   0.433
  222TIP3    H2  610   4.272   2.517   0.488
  223TIP3   OH2  611   4.970   4.308   1.654
  223TIP3    H1  612   5.032   4.372   1.689
  223TIP3    H2  613   5.020   4.227   1.648
  224TIP3   OH2  614   3.104   5.683   2.629
  224TIP3    H1  615   3.171   5.633   2.675
  224TIP3    H2  616   3.151   5.726   2.557
  225TIP3   OH2  617   2.715   5.729   5.335
  225TIP3    H1  618   2.807   5.755   5.343
  225TIP3    H2  619   2.714   5.666   5.263
  226TIP3   OH2  620   0.869   7.395   5.941
  226TIP3    H1  621   0.947   7.342   5.953
  226TIP3    H2  622   0.797   7.339   5.972
  227TIP3   OH2  623   0.361   0.330   2.571
  227TIP3    H1  624   0.347   0.237   2.590
  227TIP3    H2  625   0.453   0.337   2.549
  228TIP3   OH2  626   1.003   6.889   1.393
  228TIP3    H1  627   0.932   6.842   1.436
  228TIP3    H2  628   1.080   6.870   1.446
  229TIP3   OH2  629   1.742   0.249   1.640
  229TIP3    H1  630   1.688   0.250   1.561
  229TIP3    H2  631   1.683   0.220   1.710
  230TIP3   OH2  632   0.242   5.334   2.245
  230TIP3    H1  633   0.166   5.288   2.280
  230TIP3    H2  634   0.297   5.352   2.321
  231TIP3   OH2  635   2.706   4.856   3.200
  231TIP3    H1  636   2.685   4.794   3.270
  231TIP3    H2  637   2.741   4.933   3.245
  232TIP3   OH2  638   6.114   1.399   4.645
  232TIP3    H1  639   6.060   1.432   4.573
  232TIP3    H2  640   6.191   1.361   4.602
  233TIP3   OH2  641   1.492   5.962   2.244
  233TIP3    H1  642   1.535   5.881   2.272
  233TIP3    H2  643   1.406   5.934   2.214
  234TIP3   OH2  644   7.815   2.853   0.340
  234TIP3    H1  645   7.878   2.878   0.272
  234TIP3    H2  646   7.867   2.844   0.419
  235TIP3   OH2  647   1.476   4.249   4.488
  235TIP3    H1  648   1.509   4.202   4.411
  235TIP3    H2  649   1.394   4.205   4.509
  236TIP3   OH2  650   0.497   1.709   2.355
  236TIP3    H1  651   0.587   1.697   2.325
  236TIP3    H2  652   0.501   1.695   2.449
  237TIP3   OH2  653   3.444   5.337   2.718
  237TIP3    H1  654   3.511   5.281   2.681
  237TIP3    H2  655   3.492   5.410   2.758
  238TIP3   OH2  656   0.934   5.993   4.723
  238TIP3    H1  657   0.924   6.043   4.642
  238TIP3    H2  658   0.850   5.949   4.735
  239TIP3   OH2  659   1.675   4.596   1.746
  239TIP3    H1  660   1.673   4.692   1.743
  239TIP3    H2  661   1.709   4.570   1.660
  240TIP3   OH2  662   2.303   1.620  -0.038
  240TIP3    H1  663   2.233   1.556  -0.023
  240TIP3    H2  664   2.260   1.705  -0.028
  241TIP3   OH2  665   5.559   6.477   6.579
  241TIP3    H1  666   5.580   6.565   6.611
  241TIP3    H2  667   5.472   6.486   6.540
  242TIP3   OH2  668   3.515   6.141   3.747
  242TIP3    H1  669   3.452   6.121   3.677
  242TIP3    H2  670   3.581   6.072   3.740
  243TIP3   OH2  671   1.171   1.119   4.104
  243TIP3    H1  672   1.140   1.072   4.026
  243TIP3    H2  673   1.265   1.127   4.092
  244TIP3   OH2  674   8.172   1.151   5.642
  244TIP3    H1  675   8.224   1.112   5.712
  244TIP3    H2  676   8.186   1.094   5.566
  245TIP3   OH2  677   6.838   4.961   0.042
  245TIP3    H1  678   6.752   4.974   0.084
  245TIP3    H2  679   6.858   5.045   0.002
  246TIP3   OH2  680   7.236   7.612   0.344
  246TIP3    H1  681   7.285   7.551   0.401
  246TIP3    H2  682   7.241   7.572   0.257
  247TIP3   OH2  683   5.740   1.394   3.614
  247TIP3    H1  684   5.753   1.418   3.522
  247TIP3    H2  685   5.759   1.474   3.662
  248TIP3   OH2  686   2.601   2.977   6.216
  248TIP3    H1  687   2.694   2.997   6.203
  248TIP3    H2  688   2.591   2.889   6.182
  249TIP3   OH2  689   3.577   2.541   2.714
  249TIP3    H1  690   3.652   2.597   2.733
  249TIP3    H2  691   3.501   2.594   2.738
  250TIP3   OH2  692   4.917   7.379   5.803
  250TIP3    H1  693   4.905   7.413   5.714
  250TIP3    H2  694   4.984   7.435   5.841
  251TIP3   OH2  695   4.478   5.911   5.287
  251TIP3    H1  696   4.514   5.822   5.287
  251TIP3    H2  697   4.430   5.917   5.205
  252TIP3   OH2  698   1.144   1.339   1.288
  252TIP3    H1  699   1.058   1.323   1.249
  252TIP3    H2  700   1.206   1.320   1.217
  253TIP3   OH2  701   5.237   7.044   3.750
  253TIP3    H1  702   5.292   7.095   3.810
  253TIP3    H2  703   5.292   6.969   3.727
  254TIP3   OH2  704   4.180   4.887   3.656
  254TIP3    H1  705   4.223   4.915   3.575
  254TIP3    H2  706   4.191   4.961   3.716
  255TIP3   OH2  707   7.159   1.816   4.028
  255TIP3    H1  708   7.137   1.907   4.010
  255TIP3    H2  709   7.207   1.819   4.111
  256TIP3   OH2  710   1.245   0.913   0.938
  256TIP3    H1  711   1.163   0.931   0.985
  256TIP3    H2  712   1.248   0.980   0.869
  257TIP3   OH2  713   3.471   2.771   5.079
  257TIP3    H1  714   3.401   2.828   5.048
  257TIP3    H2  715   3.529   2.829   5.129
  258TIP3   OH2  716   4.093   5.846   1.800
  258TIP3    H1  717   4.153   5.918   1.778
  258TIP3    H2  718   4.092   5.791   1.722
  259TIP3   OH2  719   4.787   1.534   2.397
  259TIP3    H1  720   4.728   1.494   2.460
  259TIP3    H2  721   4.791   1.470   2.325
  260TIP3   OH2  722   3.322   2.568   3.359
  260TIP3    H1  723   3.329   2.643   3.418
  260TIP3    H2  724   3.239   2.581   3.313
  261TIP3   OH2  725   5.962   1.922   3.815
  261TIP3    H1  726   5.959   1.968   3.731
  261TIP3    H2  727   6.019   1.976   3.869
  262TIP3   OH2  728   5.195   6.581   3.938
  262TIP3    H1  729   5.121   6.533   3.976
  262TIP3    H2  730   5.273   6.538   3.973
  263TIP3   OH2  731   7.687   1.498   4.248
  263TIP3    H1  732   7.654   1.584   4.221
  263TIP3    H2  733   7.697   1.450   4.165
  264TIP3   OH2  734   6.612   1.083   1.614
  264TIP3    H1  735   6.595   1.121   1.527
  264TIP3    H2  736   6.554   1.133   1.673
  265TIP3   OH2  737   2.921   5.326   5.725
  265TIP3    H1  738   2.843   5.292   5.769
  265TIP3    H2  739   2.976   5.360   5.795
  266TIP3   OH2  740   6.760   1.928   5.693
  266TIP3    H1  741   6.774   2.023   5.696
  266TIP3    H2  742   6.759   1.907   5.600
  267TIP3   OH2  743   6.953   0.393   3.039
  267TIP3    H1  744   6.964   0.313   3.091
  267TIP3    H2  745   6.948   0.362   2.949
  268TIP3   OH2  746   7.773   2.419   3.803
  268TIP3    H1  747   7.699   2.467   3.767
  268TIP3    H2  748   7.808   2.370   3.728
  269TIP3   OH2  749   0.260   1.774   6.272
  269TIP3    H1  750   0.191   1.717   6.305
  269TIP3    H2  751   0.297   1.814   6.351
  270TIP3   OH2  752   4.415   0.235   5.129
  270TIP3    H1  753   4.458   0.320   5.122
  270TIP3    H2  754   4.339   0.242   5.071
  271TIP3   OH2  755   3.300   3.092   3.523
  271TIP3    H1  756   3.231   3.147   3.487
  271TIP3    H2  757   3.272   3.074   3.612
  272TIP3   OH2  758   6.638   0.344   6.084
  272TIP3    H1  759   6.663   0.253   6.095
  272TIP3    H2  760   6.714   0.394   6.115
  273TIP3   OH2  761   7.994   0.214   2.886
  273TIP3    H1  762   7.953   0.214   2.799
  273TIP3    H2  763   7.921   0.225   2.947
  274TIP3   OH2  764   0.867   6.682   6.138
  274TIP3    H1  765   0.826   6.659   6.221
  274TIP3    H2  766   0.957   6.705   6.161
  275TIP3   OH2  767   4.715   5.965   0.174
  275TIP3    H1  768   4.730   5.962   0.080
  275TIP3    H2  769   4.794   6.006   0.210
  276TIP3   OH2  770   2.360   5.746   3.453
  276TIP3    H1  771   2.380   5.664   3.499
  276TIP3    H2  772   2.394   5.815   3.511
  277TIP3   OH2  773   7.887   7.204   3.284
  277TIP3    H1  774   7.916   7.184   3.195
  277TIP3    H2  775   7.910   7.126   3.335
  278TIP3   OH2  776   7.414   6.618   0.375
  278TIP3    H1  777   7.441   6.609   0.284
  278TIP3    H2  778   7.365   6.701   0.378
  279TIP3   OH2  779  -0.012   1.495   0.337
  279TIP3    H1  780  -0.011   1.431   0.267
  279TIP3    H2  781   0.026   1.574   0.298
  280TIP3   OH2  782   2.266   1.836   5.505
  280TIP3    H1  783   2.279   1.863   5.596
  280TIP3    H2  784   2.347   1.790   5.481
  281TIP3   OH2  785   2.130   3.936   5.016
  281TIP3    H1  786   2.183   3.868   5.058
  281TIP3    H2  787   2.063   3.956   5.081
  282TIP3   OH2  788   5.666   6.819   6.273
  282TIP3    H1  789   5.697   6.737   6.311
  282TIP3    H2  790   5.735   6.882   6.292
  283TIP3   OH2  791   5.210   4.059   3.613
  283TIP3    H1  792   5.251   4.043   3.698
  283TIP3    H2  793   5.275   4.108   3.564
  284TIP3   OH2  794   7.512   2.531   3.736
  284TIP3    H1  795   7.474   2.563   3.655
  284TIP3    H2  796   7.437   2.511   3.792
  285TIP3   OH2  797   1.484   7.626   3.188
  285TIP3    H1  798   1.437   7.587   3.262
  285TIP3    H2  799   1.481   7.559   3.120
  286TIP3   OH2  800   2.053   4.968   3.740
  286TIP3    H1  801   2.044   4.879   3.705
  286TIP3    H2  802   1.989   4.973   3.811
  287TIP3   OH2  803   0.515   0.572   6.135
  287TIP3    H1  804   0.504   0.663   6.107
  287TIP3    H2  805   0.579   0.576   6.206
  288TIP3   OH2  806   4.692   4.367   0.523
  288TIP3    H1  807   4.607   4.329   0.545
  288TIP3    H2  808   4.735   4.381   0.607
  289TIP3   OH2  809   1.455   0.227   4.371
  289TIP3    H1  810   1.494   0.150   4.411
  289TIP3    H2  811   1.469   0.216   4.277
  290TIP3   OH2  812   1.029   3.605   3.080
  290TIP3    H1  813   0.971   3.567   3.014
  290TIP3    H2  814   1.089   3.661   3.031
  291TIP3   OH2  815   2.871   5.542   1.348
  291TIP3    H1  816   2.830   5.604   1.408
  291TIP3    H2  817   2.963   5.543   1.371
  292TIP3   OH2  818   7.993   7.154   5.214
  292TIP3    H1  819   8.070   7.108   5.182
  292TIP3    H2  820   7.958   7.098   5.283
  293TIP3   OH2  821   0.706   6.287   0.314
  293TIP3    H1  822   0.743   6.252   0.395
  293TIP3    H2  823   0.612   6.272   0.322
  294TIP3   OH2  824   7.237   6.620   3.571
  294TIP3    H1  825   7.174   6.645   3.504
  294TIP3    H2  826   7.191   6.632   3.654
  295TIP3   OH2  827   3.151   5.741   3.996
  295TIP3    H1  828   3.121   5.799   3.925
  295TIP3    H2  829   3.185   5.800   4.063
  296TIP3   OH2  830   6.603   4.856   4.362
  296TIP3    H1  831   6.533   4.793   4.377
  296TIP3    H2  832   6.659   4.815   4.296
  297TIP3   OH2  833   6.598   6.548   3.353
  297TIP3    H1  834   6.526   6.507   3.401
  297TIP3    H2  835   6.642   6.604   3.418
  298TIP3   OH2  836   3.374   3.531   3.007
  298TIP3    H1  837   3.456   3.542   2.960
  298TIP3    H2  838   3.398   3.537   3.099
  299TIP3   OH2  839   2.671   3.829   3.341
  299TIP3    H1  840   2.723   3.791   3.270
  299TIP3    H2  841   2.711   3.914   3.358
  300TIP3   OH2  842   6.196   2.125   0.724
  300TIP3    H1  843   6.169   2.205   0.770
  300TIP3    H2  844   6.124   2.108   0.663
  301TIP3   OH2  845   1.448   1.307   4.080
  301TIP3    H1  846   1.536   1.270   4.073
  301TIP3    H2  847   1.417   1.280   4.166
  302TIP3   OH2  848   8.259   5.203   1.326
  302TIP3    H1  849   8.219   5.211   1.239
  302TIP3    H2  850   8.234   5.284   1.371
  303TIP3   OH2  851   6.656   2.174   0.562
  303TIP3    H1  852   6.637   2.139   0.474
  303TIP3    H2  853   6.725   2.117   0.596
  304TIP3   OH2  854   6.049   6.686   0.279
  304TIP3    H1  855   6.020   6.624   0.345
  304TIP3    H2  856   5.989   6.672   0.205
  305TIP3   OH2  857   5.197   5.229   5.700
  305TIP3    H1  858   5.102   5.227   5.707
  305TIP3    H2  859   5.218   5.171   5.627
  306TIP3   OH2  860   3.211   1.592   0.663
  306TIP3    H1  861   3.221   1.622   0.753
  306TIP3    H2  862   3.299   1.593   0.626
  307TIP3   OH2  863   3.586   1.545   4.614
  307TIP3    H1  864   3.554   1.617   4.669
  307TIP3    H2  865   3.511   1.486   4.607
  308TIP3   OH2  866   4.169   7.609   3.808
  308TIP3    H1  867   4.194   7.678   3.870
  308TIP3    H2  868   4.140   7.537   3.864
  309TIP3   OH2  869   7.506   0.649   5.492
  309TIP3    H1  870   7.502   0.586   5.563
  309TIP3    H2  871   7.542   0.600   5.418
  310TIP3   OH2  872   6.856   6.603   5.325
  310TIP3    H1  873   6.767   6.600   5.291
  310TIP3    H2  874   6.910   6.623   5.249
  311TIP3   OH2  875   3.900   2.099   6.482
  311TIP3    H1  876   3.903   2.182   6.531
  311TIP3    H2  877   3.831   2.111   6.417
  312TIP3   OH2  878   3.479   0.698   2.737
  312TIP3    H1  879   3.514   0.785   2.716
  312TIP3    H2  880   3.398   0.692   2.687
  313TIP3   OH2  881   7.920   6.092   3.735
  313TIP3    H1  882   7.923   6.137   3.650
  313TIP3    H2  883   7.957   6.006   3.718
  314TIP3   OH2  884   2.943   6.963   3.885
  314TIP3    H1  885   2.917   7.045   3.926
  314TIP3    H2  886   2.942   6.981   3.791
  315TIP3   OH2  887   3.817   3.958   4.434
  315TIP3    H1  888   3.894   4.013   4.417
  315TIP3    H2  889   3.837   3.875   4.390
  316TIP3   OH2  890   1.906   0.137   4.439
  316TIP3    H1  891   1.878   0.064   4.495
  316TIP3    H2  892   1.971   0.184   4.492
  317TIP3   OH2  893   2.070   6.314   4.610
  317TIP3    H1  894   2.056   6.305   4.704
  317TIP3    H2  895   2.044   6.404   4.590
  318TIP3   OH2  896   0.030   5.381   6.722
  318TIP3    H1  897  -0.064   5.380   6.708
  318TIP3    H2  898   0.046   5.459   6.775
  319TIP3   OH2  899   6.322   7.692   3.178
  319TIP3    H1  900   6.399   7.658   3.222
  319TIP3    H2  901   6.249   7.670   3.236
  320TIP3   OH2  902   0.093   0.437   3.179
  320TIP3    H1  903   0.050   0.522   3.171
  320TIP3    H2  904   0.186   0.457   3.169
  321TIP3   OH2  905   6.198   4.467   0.897
  321TIP3    H1  906   6.262   4.525   0.856
  321TIP3    H2  907   6.114   4.493   0.858
  322TIP3   OH2  908   2.087   1.586   4.797
  322TIP3    H1  909   2.066   1.531   4.872
  322TIP3    H2  910   2.152   1.648   4.829
  323TIP3   OH2  911   0.779   6.514   3.408
  323TIP3    H1  912   0.717   6.537   3.340
  323TIP3    H2  913   0.739   6.547   3.489
  324TIP3   OH2  914   5.486   1.271   5.766
  324TIP3    H1  915   5.554   1.330   5.732
  324TIP3    H2  916   5.476   1.297   5.858
  325TIP3   OH2  917   5.164   6.323   2.110
  325TIP3    H1  918   5.124   6.398   2.066
  325TIP3    H2  919   5.243   6.305   2.060
  326TIP3   OH2  920   7.931   2.644   3.689
  326TIP3    H1  921   8.009   2.596   3.720
  326TIP3    H2  922   7.858   2.586   3.711
  327TIP3   OH2  923   5.645   2.844   4.567
  327TIP3    H1  924   5.724   2.803   4.533
  327TIP3    H2  925   5.617   2.904   4.498
  328TIP3   OH2  926   1.663   7.467   3.735
  328TIP3    H1  927   1.613   7.464   3.816
  328TIP3    H2  928   1.742   7.516   3.757
  329TIP3   OH2  929   1.809   4.487   1.545
  329TIP3    H1  930   1.864   4.498   1.467
  329TIP3    H2  931   1.865   4.442   1.608
  330TIP3   OH2  932   1.632   1.886   4.639
  330TIP3    H1  933   1.573   1.947   4.594
  330TIP3    H2  934   1.576   1.839   4.701
  331TIP3   OH2  935   4.528   2.249   1.312
  331TIP3    H1  936   4.565   2.315   1.371
  331TIP3    H2  937   4.473   2.195   1.369
  332TIP3   OH2  938   3.391   5.936   0.703
  332TIP3    H1  939   3.318   5.953   0.762
  332TIP3    H2  940   3.355   5.953   0.616
  333TIP3   OH2  941   5.973   6.519   0.504
  333TIP3    H1  942   6.059   6.477   0.496
  333TIP3    H2  943   5.950   6.509   0.596
  334TIP3   OH2  944   3.963   1.242   4.885
  334TIP3    H1  945   3.894   1.262   4.821
  334TIP3    H2  946   3.919   1.190   4.952
  335TIP3   OH2  947   7.408   7.544   6.328
  335TIP3    H1  948   7.405   7.637   6.305
  335TIP3    H2  949   7.327   7.528   6.376
  336TIP3   OH2  950   6.697   6.803   2.024
  336TIP3    H1  951   6.653   6.720   2.045
  336TIP3    H2  952   6.696   6.807   1.929
  337TIP3   OH2  953   1.906   4.880   3.322
  337TIP3    H1  954   1.832   4.937   3.339
  337TIP3    H2  955   1.879   4.826   3.248
  338TIP3   OH2  956   5.841   2.443   3.110
  338TIP3    H1  957   5.899   2.368   3.122
  338TIP3    H2  958   5.817   2.440   3.017
  339TIP3   OH2  959   6.316   5.904   2.609
  339TIP3    H1  960   6.344   5.995   2.604
  339TIP3    H2  961   6.226   5.904   2.575
  340TIP3   OH2  962   3.559   2.826   5.890
  340TIP3    H1  963   3.632   2.854   5.834
  340TIP3    H2  964   3.582   2.737   5.916
  341TIP3   OH2  965   0.927   3.278   2.673
  341TIP3    H1  966   0.868   3.324   2.613
  341TIP3    H2  967   0.889   3.191   2.681
  342TIP3   OH2  968   7.940   6.724   4.191
  342TIP3    H1  969   7.930   6.676   4.273
  342TIP3    H2  970   7.851   6.753   4.169
  343TIP3   OH2  971   2.862   3.821   2.085
  343TIP3    H1  972   2.779   3.812   2.130
  343TIP3    H2  973   2.929   3.806   2.152
  344TIP3   OH2  974   7.338   6.086   0.348
  344TIP3    H1  975   7.415   6.039   0.378
  344TIP3    H2  976   7.310   6.039   0.269
  345TIP3   OH2  977   5.460   3.776   4.960
  345TIP3    H1  978   5.482   3.868   4.943
  345TIP3    H2  979   5.366   3.770   4.941
  346TIP3   OH2  980   6.548   0.331   6.644
  346TIP3    H1  981   6.584   0.394   6.707
  346TIP3    H2  982   6.586   0.247   6.671
  347TIP3   OH2  983   4.637   1.409   5.754
  347TIP3    H1  984   4.574   1.353   5.800
  347TIP3    H2  985   4.600   1.420   5.667
  348TIP3   OH2  986   7.104   1.115   0.755
  348TIP3    H1  987   7.078   1.153   0.671
  348TIP3    H2  988   7.152   1.186   0.799
  349TIP3   OH2  989   8.317   5.505   2.336
  349TIP3    H1  990   8.364   5.440   2.388
  349TIP3    H2  991   8.225   5.489   2.353
  350TIP3   OH2  992   0.185   5.158   2.017
  350TIP3    H1  993   0.258   5.146   1.956
  350TIP3    H2  994   0.209   5.235   2.069
  351TIP3   OH2  995   4.629   3.495   6.373
  351TIP3    H1  996   4.613   3.559   6.303
  351TIP3    H2  997   4.614   3.410   6.332
  352TIP3   OH2  998   5.238   4.758   6.768
  352TIP3    H1  999   5.287   4.682   6.737
  352TIP3    H2 1000   5.153   4.751   6.724
  353TIP3   OH2 1001   3.675   1.420   6.766
  353TIP3    H1 1002   3.651   1.495   6.711
  353TIP3    H2 1003   3.592   1.389   6.802
  354TIP3   OH2 1004   0.445   7.532   1.431
  354TIP3    H1 1005   0.431   7.466   1.499
  354TIP3    H2 1006   0.366   7.586   1.433
  355TIP3   OH2 1007   2.583   2.228  -0.005
  355TIP3    H1 1008   2.496   2.269  -0.016
  355TIP3    H2 1009   2.603   2.241   0.088
  356TIP3   OH2 1010   6.761   4.492   3.743
  356TIP3    H1 1011   6.826   4.426   3.767
  356TIP3    H2 1012   6.788   4.570   3.792
  357TIP3   OH2 1013   4.013   3.060   5.649
  357TIP3    H1 1014   4.090   3.007   5.671
  357TIP3    H2 1015   4.004   3.122   5.721
  358TIP3   OH2 1016   7.569   2.420   5.957
  358TIP3    H1 1017   7.551   2.512   5.978
  358TIP3    H2 1018   7.485   2.386   5.926
  359TIP3   OH2 1019   5.034   1.872   6.020
  359TIP3    H1 1020   5.011   1.855   6.111
  359TIP3    H2 1021   5.016   1.790   5.975
  360TIP3   OH2 1022   4.547   6.235   4.638
  360TIP3    H1 1023   4.541   6.161   4.577
  360TIP3    H2 1024   4.467   6.285   4.623
  361TIP3   OH2 1025   3.460   7.070   2.024
  361TIP3    H1 1026   3.369   7.054   1.998
  361TIP3    H2 1027   3.511   7.052   1.944
  362TIP3   OH2 1028   0.866   0.593   1.737
  362TIP3    H1 1029   0.946   0.553   1.772
  362TIP3    H2 1030   0.895   0.676   1.699
  363TIP3   OH2 1031   7.640   3.809   3.127
  363TIP3    H1 1032   7.682   3.807   3.041
  363TIP3    H2 1033   7.713   3.812   3.189
  364TIP3   OH2 1034   7.332   5.639   2.260
  364TIP3    H1 1035   7.376   5.575   2.316
  364TIP3    H2 1036   7.379   5.721   2.275
  365TIP3   OH2 1037   3.437   1.213   5.222
  365TIP3    H1 1038   3.386   1.292   5.209
  365TIP3    H2 1039   3.505   1.238   5.285
  366TIP3   OH2 1040   2.222   4.933   2.110
  366TIP3    H1 1041   2.307   4.966   2.082
  366TIP3    H2 1042   2.160   4.964   2.043
  367TIP3   OH2 1043   2.704   0.588   2.612
  367TIP3    H1 1044   2.720   0.678   2.641
  367TIP3    H2 1045   2.630   0.596   2.551
  368TIP3   OH2 1046   4.928   1.985   2.907
  368TIP3    H1 1047   4.878   2.067   2.907
  368TIP3    H2 1048   4.935   1.961   2.999
  369TIP3   OH2 1049   7.148   3.865   3.059
  369TIP3    H1 1050   7.236   3.867   3.021
  369TIP3    H2 1051   7.123   3.957   3.065
  370TIP3   OH2 1052   7.148   7.006   3.606
  370TIP3    H1 1053   7.167   7.097   3.628
  370TIP3    H2 1054   7.169   6.999   3.513
  371TIP3   OH2 1055   3.608   4.234   0.653
  371TIP3    H1 1056   3.678   4.273   0.600
  371TIP3    H2 1057   3.564   4.308   0.693
  372TIP3   OH2 1058   2.769   1.094   4.289
  372TIP3    H1 1059   2.683   1.123   4.319
  372TIP3    H2 1060   2.751   1.043   4.210
  373TIP3   OH2 1061   4.762   1.481   0.418
  373TIP3    H1 1062   4.803   1.428   0.485
  373TIP3    H2 1063   4.671   1.490   0.446
  374TIP3   OH2 1064   4.825   4.814   5.224
  374TIP3    H1 1065   4.892   4.849   5.283
  374TIP3    H2 1066   4.868   4.740   5.181
  375TIP3   OH2 1067   6.681   5.495   5.519
  375TIP3    H1 1068   6.612   5.549   5.480
  375TIP3    H2 1069   6.688   5.419   5.461
  376TIP3   OH2 1070   6.343   4.241   1.792
  376TIP3    H1 1071   6.276   4.183   1.827
  376TIP3    H2 1072   6.325   4.325   1.835
  377TIP3   OH2 1073   7.264   0.891   3.176
  377TIP3    H1 1074   7.342   0.863   3.224
  377TIP3    H2 1075   7.210   0.937   3.241
  378TIP3   OH2 1076   1.439   2.411   6.254
  378TIP3    H1 1077   1.486   2.347   6.202
  378TIP3    H2 1078   1.347   2.402   6.227
  379TIP3   OH2 1079   0.955   0.783   0.075
  379TIP3    H1 1080   0.973   0.843   0.148
  379TIP3    H2 1081   0.957   0.839  -0.003
  380TIP3   OH2 1082   2.730   7.518   0.552
  380TIP3    H1 1083   2.795   7.506   0.483
  380TIP3    H2 1084   2.691   7.603   0.534
  381TIP3   OH2 1085   5.701   2.423   1.523
  381TIP3    H1 1086   5.795   2.413   1.509
  381TIP3    H2 1087   5.662   2.341   1.493
  382TIP3   OH2 1088   2.104   4.173   5.560
  382TIP3    H1 1089   2.068   4.165   5.472
  382TIP3    H2 1090   2.069   4.256   5.593
  383TIP3   OH2 1091   2.263   0.985   4.030
  383TIP3    H1 1092   2.304   0.908   3.989
  383TIP3    H2 1093   2.172   0.981   4.003
  384TIP3   OH2 1094   0.954   4.202   1.831
  384TIP3    H1 1095   1.002   4.176   1.753
  384TIP3    H2 1096   1.019   4.200   1.901
  385TIP3   OH2 1097   2.342   6.804   0.059
  385TIP3    H1 1098   2.433   6.817   0.032
  385TIP3    H2 1099   2.347   6.735   0.125
  386TIP3   OH2 1100   7.493   0.647   4.143
  386TIP3    H1 1101   7.573   0.641   4.195
  386TIP3    H2 1102   7.519   0.615   4.056
  387TIP3   OH2 1103   2.575   0.194   5.626
  387TIP3    H1 1104   2.609   0.162   5.710
  387TIP3    H2 1105   2.649   0.237   5.584
  388TIP3   OH2 1106   1.522   7.387   4.316
  388TIP3    H1 1107   1.566   7.471   4.307
  388TIP3    H2 1108   1.554   7.351   4.398
  389TIP3   OH2 1109   1.951   0.676   4.224
  389TIP3    H1 1110   1.967   0.691   4.317
  389TIP3    H2 1111   1.964   0.761   4.183
  390TIP3   OH2 1112   7.933   2.675   4.176
  390TIP3    H1 1113   7.846   2.641   4.154
  390TIP3    H2 1114   7.957   2.730   4.101
  391TIP3   OH2 1115   2.196   0.665   6.594
  391TIP3    H1 1116   2.179   0.594   6.657
  391TIP3    H2 1117   2.268   0.632   6.540
  392TIP3   OH2 1118   6.313   1.933   6.499
  392TIP3    H1 1119   6.301   1.841   6.477
  392TIP3    H2 1120   6.397   1.956   6.459
  393TIP3   OH2 1121   6.264   5.828   5.402
  393TIP3    H1 1122   6.344   5.821   5.455
  393TIP3    H2 1123   6.267   5.751   5.345
  394TIP3   OH2 1124   6.505   6.063   0.688
  394TIP3    H1 1125   6.452   6.142   0.679
  394TIP3    H2 1126   6.441   5.993   0.704
  395TIP3   OH2 1127   4.382   4.222   4.217
  395TIP3    H1 1128   4.376   4.213   4.312
  395TIP3    H2 1129   4.327   4.298   4.196
  396TIP3   OH2 1130   8.239   7.196   1.298
  396TIP3    H1 1131   8.178   7.152   1.356
  396TIP3    H2 1132   8.280   7.126   1.248
  397TIP3   OH2 1133   7.809   5.793   0.518
  397TIP3    H1 1134   7.894   5.752   0.532
  397TIP3    H2 1135   7.784   5.828   0.603
  398TIP3   OH2 1136   1.095   3.298   0.169
  398TIP3    H1 1137   1.148   3.354   0.225
  398TIP3    H2 1138   1.054   3.236   0.229
  399TIP3   OH2 1139   1.420   2.639   2.157
  399TIP3    H1 1140   1.368   2.561   2.175
  399TIP3    H2 1141   1.365   2.712   2.185
  400TIP3   OH2 1142   6.209   5.241   0.964
  400TIP3    H1 1143   6.293   5.276   0.936
  400TIP3    H2 1144   6.174   5.197   0.886
  401TIP3   OH2 1145   7.451   7.006   4.844
  401TIP3    H1 1146   7.414   6.918   4.849
  401TIP3    H2 1147   7.477   7.017   4.753
  402TIP3   OH2 1148   5.624   5.164   3.959
  402TIP3    H1 1149   5.595   5.169   3.868
  402TIP3    H2 1150   5.699   5.105   3.957
  403TIP3   OH2 1151   0.773   6.205   2.108
  403TIP3    H1 1152   0.825   6.126   2.124
  403TIP3    H2 1153   0.800   6.266   2.176
  404TIP3   OH2 1154   3.585   5.818   3.009
  404TIP3    H1 1155   3.603   5.761   3.084
  404TIP3    H2 1156   3.554   5.900   3.049
  405TIP3   OH2 1157   4.406   3.472   5.582
  405TIP3    H1 1158   4.387   3.378   5.573
  405TIP3    H2 1159   4.445   3.496   5.498
  406TIP3   OH2 1160   5.616   0.796   0.674
  406TIP3    H1 1161   5.711   0.799   0.684
  406TIP3    H2 1162   5.602   0.765   0.584
  407TIP3   OH2 1163   6.465   1.749   5.397
  407TIP3    H1 1164   6.385   1.735   5.346
  407TIP3    H2 1165   6.433   1.771   5.485
  408TIP3   OH2 1166   0.195   6.701   2.169
  408TIP3    H1 1167   0.169   6.612   2.142
  408TIP3    H2 1168   0.113   6.750   2.173
  409TIP3   OH2 1169   6.718   7.193   5.999
  409TIP3    H1 1170   6.684   7.117   5.953
  409TIP3    H2 1171   6.648   7.217   6.060
  410TIP3   OH2 1172   7.035   6.849   5.418
  410TIP3    H1 1173   7.078   6.766   5.397
  410TIP3    H2 1174   7.032   6.851   5.513
  411TIP3   OH2 1175   2.436   6.147   5.666
  411TIP3    H1 1176   2.507   6.098   5.707
  411TIP3    H2 1177   2.422   6.104   5.582
  412TIP3   OH2 1178   2.541   5.010   1.143
  412TIP3    H1 1179   2.553   4.974   1.230
  412TIP3    H2 1180   2.529   5.104   1.157
  413TIP3   OH2 1181   6.013   6.877   1.159
  413TIP3    H1 1182   5.955   6.889   1.235
  413TIP3    H2 1183   5.977   6.935   1.092
  414TIP3   OH2 1184   7.219   2.701   5.991
  414TIP3    H1 1185   7.227   2.660   6.077
  414TIP3    H2 1186   7.196   2.792   6.009
  415TIP3   OH2 1187   4.670   5.574   3.329
  415TIP3    H1 1188   4.763   5.595   3.336
  415TIP3    H2 1189   4.657   5.555   3.236
  416TIP3   OH2 1190   2.274   2.576   3.636
  416TIP3    H1 1191   2.319   2.535   3.710
  416TIP3    H2 1192   2.341   2.632   3.596
  417TIP3   OH2 1193   7.077   2.779   6.401
  417TIP3    H1 1194   7.116   2.694   6.382
  417TIP3    H2 1195   7.144   2.826   6.449
  418TIP3   OH2 1196   7.629   0.627   1.776
  418TIP3    H1 1197   7.598   0.661   1.692
  418TIP3    H2 1198   7.712   0.674   1.791
  419TIP3   OH2 1199   0.501   5.976   5.632
  419TIP3    H1 1200   0.587   5.938   5.648
  419TIP3    H2 1201   0.520   6.058   5.586
  420TIP3   OH2 1202   1.913   7.390   3.081
  420TIP3    H1 1203   1.903   7.424   3.169
  420TIP3    H2 1204   1.942   7.299   3.093
  421TIP3   OH2 1205   4.012   2.271   1.009
  421TIP3    H1 1206   4.080   2.321   0.965
  421TIP3    H2 1207   3.995   2.321   1.090
  422TIP3   OH2 1208   8.038   1.497   4.117
  422TIP3    H1 1209   8.057   1.528   4.029
  422TIP3    H2 1210   8.035   1.576   4.170
  423TIP3   OH2 1211   8.299   3.771   0.315
  423TIP3    H1 1212   8.204   3.783   0.317
  423TIP3    H2 1213   8.317   3.706   0.383
  424TIP3   OH2 1214   4.242   1.150   1.021
  424TIP3    H1 1215   4.311   1.086   1.003
  424TIP3    H2 1216   4.286   1.220   1.069
  425TIP3   OH2 1217   3.718   6.131   1.413
  425TIP3    H1 1218   3.711   6.221   1.442
  425TIP3    H2 1219   3.715   6.136   1.318
  426TIP3   OH2 1220   0.551   7.471   5.111
  426TIP3    H1 1221   0.607   7.499   5.039
  426TIP3    H2 1222   0.607   7.416   5.165
  427TIP3   OH2 1223   3.894   6.486   0.353
  427TIP3    H1 1224   3.831   6.500   0.282
  427TIP3    H2 1225   3.840   6.455   0.426
  428TIP3   OH2 1226   3.055   2.457   3.131
  428TIP3    H1 1227   3.051   2.368   3.168
  428TIP3    H2 1228   3.028   2.514   3.203
  429TIP3   OH2 1229   7.453   0.943   4.119
  429TIP3    H1 1230   7.365   0.962   4.086
  429TIP3    H2 1231   7.445   0.857   4.161
  430TIP3   OH2 1232   2.861   4.037   3.375
  430TIP3    H1 1233   2.892   4.123   3.406
  430TIP3    H2 1234   2.903   3.974   3.434
  431TIP3   OH2 1235   4.073   6.601   2.665
  431TIP3    H1 1236   4.020   6.537   2.619
  431TIP3    H2 1237   4.011   6.667   2.696
  432TIP3   OH2 1238   7.757   5.494   2.768
  432TIP3    H1 1239   7.663   5.479   2.756
  432TIP3    H2 1240   7.798   5.417   2.728
  433TIP3   OH2 1241   2.277   3.767   3.610
  433TIP3    H1 1242   2.231   3.850   3.597
  433TIP3    H2 1243   2.252   3.713   3.536
  434TIP3   OH2 1244   5.248   5.563   3.031
  434TIP3    H1 1245   5.203   5.646   3.048
  434TIP3    H2 1246   5.310   5.583   2.962
  435TIP3   OH2 1247   5.724   5.918   3.302
  435TIP3    H1 1248   5.665   5.950   3.371
  435TIP3    H2 1249   5.806   5.965   3.318
  436TIP3   OH2 1250   0.548   7.639   3.521
  436TIP3    H1 1251   0.469   7.680   3.555
  436TIP3    H2 1252   0.596   7.610   3.598
  437TIP3   OH2 1253   3.659   5.155   4.431
  437TIP3    H1 1254   3.718   5.087   4.400
  437TIP3    H2 1255   3.599   5.110   4.490
  438TIP3   OH2 1256   7.496   5.008   5.654
  438TIP3    H1 1257   7.532   5.009   5.565
  438TIP3    H2 1258   7.403   4.987   5.641
  439TIP3   OH2 1259   6.198   4.190   0.871
  439TIP3    H1 1260   6.231   4.272   0.907
  439TIP3    H2 1261   6.240   4.182   0.786
  440TIP3   OH2 1262   5.387   2.215   0.964
  440TIP3    H1 1263   5.398   2.214   0.868
  440TIP3    H2 1264   5.476   2.221   0.997
  441TIP3   OH2 1265   5.765   7.126   1.139
  441TIP3    H1 1266   5.844   7.157   1.184
  441TIP3    H2 1267   5.769   7.166   1.052
  442TIP3   OH2 1268   2.353   5.507   0.200
  442TIP3    H1 1269   2.336   5.418   0.171
  442TIP3    H2 1270   2.268   5.539   0.231
  443TIP3   OH2 1271   3.800   7.575   3.034
  443TIP3    H1 1272   3.763   7.598   2.949
  443TIP3    H2 1273   3.892   7.600   3.027
  444TIP3   OH2 1274   2.228   5.067   0.533
  444TIP3    H1 1275   2.285   4.992   0.516
  444TIP3    H2 1276   2.285   5.143   0.522
  445TIP3   OH2 1277   0.000   3.744   3.061
  445TIP3    H1 1278  -0.076   3.771   3.112
  445TIP3    H2 1279   0.050   3.825   3.048
  446TIP3   OH2 1280   2.719   2.655   3.871
  446TIP3    H1 1281   2.625   2.667   3.883
  446TIP3    H2 1282   2.731   2.652   3.776
  447TIP3   OH2 1283   6.733   7.263   5.276
  447TIP3    H1 1284   6.782   7.181   5.276
  447TIP3    H2 1285   6.799   7.331   5.287
  448TIP3   OH2 1286   0.215   2.315   4.229
  448TIP3    H1 1287   0.243   2.238   4.278
  448TIP3    H2 1288   0.296   2.358   4.204
  449TIP3   OH2 1289   6.734   4.218   4.399
  449TIP3    H1 1290   6.795   4.243   4.330
  449TIP3    H2 1291   6.733   4.294   4.458
  450TIP3   OH2 1292   0.367   4.720   3.680
  450TIP3    H1 1293   0.288   4.667   3.674
  450TIP3    H2 1294   0.343   4.791   3.740
  451TIP3   OH2 1295   6.801   5.693   1.045
  451TIP3    H1 1296   6.873   5.650   1.090
  451TIP3    H2 1297   6.806   5.662   0.955
  452TIP3   OH2 1298   2.164   5.881   1.181
  452TIP3    H1 1299   2.096   5.891   1.248
  452TIP3    H2 1300   2.138   5.802   1.133
  453TIP3   OH2 1301   5.521   7.666   6.455
  453TIP3    H1 1302   5.468   7.587   6.464
  453TIP3    H2 1303   5.606   7.643   6.493
  454TIP3   OH2 1304   7.736   6.806   5.656
  454TIP3    H1 1305   7.812   6.856   5.628
  454TIP3    H2 1306   7.758   6.777   5.745
  455TIP3   OH2 1307   0.271   3.105   2.109
  455TIP3    H1 1308   0.217   3.172   2.151
  455TIP3    H2 1309   0.317   3.152   2.040
  456TIP3   OH2 1310   5.611   1.680   3.175
  456TIP3    H1 1311   5.700   1.649   3.193
  456TIP3    H2 1312   5.569   1.606   3.131
  457TIP3   OH2 1313   5.066   5.775   5.784
  457TIP3    H1 1314   5.048   5.747   5.694
  457TIP3    H2 1315   5.077   5.693   5.833
  458TIP3   OH2 1316   5.362   0.673   6.469
  458TIP3    H1 1317   5.444   0.707   6.433
  458TIP3    H2 1318   5.323   0.625   6.396
  459TIP3   OH2 1319   2.340   3.254   2.803
  459TIP3    H1 1320   2.402   3.324   2.825
  459TIP3    H2 1321   2.382   3.174   2.834
  460TIP3   OH2 1322   0.520   7.069   5.239
  460TIP3    H1 1323   0.616   7.062   5.236
  460TIP3    H2 1324   0.503   7.130   5.311
  461TIP3   OH2 1325   1.999   0.062   6.600
  461TIP3    H1 1326   1.955   0.084   6.682
  461TIP3    H2 1327   2.024   0.147   6.563
  462TIP3   OH2 1328   0.543   2.750   5.377
  462TIP3    H1 1329   0.450   2.726   5.381
  462TIP3    H2 1330   0.581   2.690   5.313
  463TIP3   OH2 1331   4.680   1.924   4.761
  463TIP3    H1 1332   4.618   1.977   4.711
  463TIP3    H2 1333   4.632   1.844   4.783
  464TIP3   OH2 1334   3.883   2.041   1.141
  464TIP3    H1 1335   3.922   2.127   1.129
  464TIP3    H2 1336   3.794   2.050   1.107
  465TIP3   OH2 1337   2.181   1.841   0.834
  465TIP3    H1 1338   2.215   1.887   0.757
  465TIP3    H2 1339   2.250   1.847   0.899
  466TIP3   OH2 1340   7.249   3.877   5.725
  466TIP3    H1 1341   7.175   3.819   5.744
  466TIP3    H2 1342   7.231   3.956   5.777
  467TIP3   OH2 1343   1.917   5.961   4.744
  467TIP3    H1 1344   1.929   5.866   4.751
  467TIP3    H2 1345   1.961   5.996   4.822
  468TIP3   OH2 1346   4.759   6.436   3.090
  468TIP3    H1 1347   4.748   6.343   3.110
  468TIP3    H2 1348   4.851   6.445   3.068
  469TIP3   OH2 1349   3.696   5.751   6.198
  469TIP3    H1 1350   3.619   5.787   6.153
  469TIP3    H2 1351   3.707   5.806   6.275
  470TIP3   OH2 1352   2.941   1.697   4.798
  470TIP3    H1 1353   2.874   1.657   4.743
  470TIP3    H2 1354   2.905   1.692   4.887
  471TIP3   OH2 1355   0.149   3.227   6.592
  471TIP3    H1 1356   0.122   3.306   6.545
  471TIP3    H2 1357   0.227   3.254   6.640
  472TIP3   OH2 1358   4.044   5.301   1.730
  472TIP3    H1 1359   4.044   5.266   1.641
  472TIP3    H2 1360   3.964   5.354   1.735
  473TIP3   OH2 1361   6.847   1.466   4.477
  473TIP3    H1 1362   6.877   1.432   4.392
  473TIP3    H2 1363   6.834   1.559   4.462
  474TIP3   OH2 1364   1.502   4.757   0.070
  474TIP3    H1 1365   1.500   4.838   0.018
  474TIP3    H2 1366   1.411   4.743   0.096
  475TIP3   OH2 1367   4.579   7.095   3.238
  475TIP3    H1 1368   4.592   7.094   3.144
  475TIP3    H2 1369   4.560   7.186   3.259
  476TIP3   OH2 1370   2.973   2.199   3.238
  476TIP3    H1 1371   2.893   2.164   3.277
  476TIP3    H2 1372   3.041   2.183   3.303
  477TIP3   OH2 1373   3.780   4.886   5.882
  477TIP3    H1 1374   3.740   4.823   5.822
  477TIP3    H2 1375   3.710   4.948   5.903
  478TIP3   OH2 1376   7.082   7.580   3.264
  478TIP3    H1 1377   7.091   7.611   3.354
  478TIP3    H2 1378   7.023   7.505   3.270
  479TIP3   OH2 1379   5.732   2.869   6.064
  479TIP3    H1 1380   5.709   2.948   6.015
  479TIP3    H2 1381   5.817   2.889   6.104
  480TIP3   OH2 1382   2.410   7.556   1.922
  480TIP3    H1 1383   2.498   7.539   1.888
  480TIP3    H2 1384   2.371   7.469   1.930
  481TIP3   OH2 1385   4.196   4.499   5.044
  481TIP3    H1 1386   4.115   4.505   5.094
  481TIP3    H2 1387   4.243   4.426   5.083
  482TIP3   OH2 1388   0.154   0.454   6.365
  482TIP3    H1 1389   0.218   0.457   6.436
  482TIP3    H2 1390   0.097   0.381   6.387
  483TIP3   OH2 1391   1.450   3.624   6.662
  483TIP3    H1 1392   1.477   3.569   6.735
  483TIP3    H2 1393   1.431   3.564   6.591
  484TIP3   OH2 1394   7.608   4.342   0.222
  484TIP3    H1 1395   7.583   4.286   0.296
  484TIP3    H2 1396   7.704   4.336   0.219
  485TIP3   OH2 1397   7.187   3.690   6.221
  485TIP3    H1 1398   7.204   3.599   6.196
  485TIP3    H2 1399   7.269   3.720   6.260
  486TIP3   OH2 1400   4.832   7.732   5.783
  486TIP3    H1 1401   4.863   7.746   5.694
  486TIP3    H2 1402   4.902   7.682   5.825
  487TIP3   OH2 1403   3.400   4.083   2.630
  487TIP3    H1 1404   3.465   4.138   2.674
  487TIP3    H2 1405   3.449   4.006   2.601
  488TIP3   OH2 1406   0.749   3.310   1.684
  488TIP3    H1 1407   0.743   3.288   1.591
  488TIP3    H2 1408   0.676   3.371   1.699
  489TIP3   OH2 1409   1.068   6.672   2.812
  489TIP3    H1 1410   1.008   6.659   2.885
  489TIP3    H2 1411   1.063   6.591   2.761
  490TIP3   OH2 1412   2.755   4.990   5.103
  490TIP3    H1 1413   2.806   5.025   5.030
  490TIP3    H2 1414   2.710   5.066   5.141
  491TIP3   OH2 1415   7.900   4.435   1.449
  491TIP3    H1 1416   7.836   4.471   1.387
  491TIP3    H2 1417   7.984   4.474   1.423
  492TIP3   OH2 1418   7.734   6.228   2.668
  492TIP3    H1 1419   7.805   6.173   2.635
  492TIP3    H2 1420   7.657   6.171   2.669
  493TIP3   OH2 1421   1.836   6.577   1.067
  493TIP3    H1 1422   1.805   6.496   1.026
  493TIP3    H2 1423   1.757   6.630   1.079
  494TIP3   OH2 1424   6.816   6.378   5.796
  494TIP3    H1 1425   6.787   6.287   5.805
  494TIP3    H2 1426   6.896   6.383   5.849
  495TIP3   OH2 1427   6.566   2.046   6.482
  495TIP3    H1 1428   6.618   2.092   6.549
  495TIP3    H2 1429   6.578   2.098   6.403
  496TIP3   OH2 1430   1.465   2.969   3.130
  496TIP3    H1 1431   1.447   2.940   3.040
  496TIP3    H2 1432   1.398   3.035   3.148
  497TIP3   OH2 1433   7.317   0.852   6.017
  497TIP3    H1 1434   7.377   0.855   6.092
  497TIP3    H2 1435   7.309   0.944   5.989
  498TIP3   OH2 1436   4.725   2.620   3.274
  498TIP3    H1 1437   4.761   2.689   3.329
  498TIP3    H2 1438   4.722   2.658   3.187
  499TIP3   OH2 1439   0.514   2.254   2.294
  499TIP3    H1 1440   0.549   2.331   2.250
  499TIP3    H2 1441   0.590   2.197   2.306
  500TIP3   OH2 1442   1.518   6.200   1.243
  500TIP3    H1 1443   1.532   6.107   1.260
  500TIP3    H2 1444   1.583   6.244   1.297
  501TIP3   OH2 1445   5.091   0.024   2.590
  501TIP3    H1 1446   5.102   0.067   2.505
  501TIP3    H2 1447   5.000   0.038   2.613
  502TIP3   OH2 1448   4.340   4.642   6.582
  502TIP3    H1 1449   4.372   4.732   6.578
  502TIP3    H2 1450   4.299   4.628   6.496
  503TIP3   OH2 1451   4.091   4.778   1.027
  503TIP3    H1 1452   3.999   4.773   1.002
  503TIP3    H2 1453   4.091   4.757   1.121
  504TIP3   OH2 1454   5.113   2.885   5.117
  504TIP3    H1 1455   5.061   2.805   5.125
  504TIP3    H2 1456   5.162   2.874   5.035
  505TIP3   OH2 1457   5.095   6.077   5.364
  505TIP3    H1 1458   5.136   6.019   5.428
  505TIP3    H2 1459   5.167   6.104   5.307
  506TIP3   OH2 1460   8.107   3.400   3.682
  506TIP3    H1 1461   8.193   3.438   3.702
  506TIP3    H2 1462   8.083   3.351   3.761
  507TIP3   OH2 1463   2.177   5.897   3.702
  507TIP3    H1 1464   2.266   5.894   3.737
  507TIP3    H2 1465   2.188   5.919   3.609
  508TIP3   OH2 1466   7.180   1.652   5.955
  508TIP3    H1 1467   7.261   1.701   5.937
  508TIP3    H2 1468   7.188   1.626   6.046
  509TIP3   OH2 1469   2.288   2.542   4.206
  509TIP3    H1 1470   2.258   2.460   4.166
  509TIP3    H2 1471   2.289   2.523   4.300
  510TIP3   OH2 1472   0.140   1.370   4.881
  510TIP3    H1 1473   0.115   1.281   4.859
  510TIP3    H2 1474   0.128   1.420   4.800
  511TIP3   OH2 1475   6.245   7.144   3.151
  511TIP3    H1 1476   6.205   7.227   3.124
  511TIP3    H2 1477   6.315   7.170   3.211
  512TIP3   OH2 1478   4.958   7.428   5.534
  512TIP3    H1 1479   4.884   7.431   5.474
  512TIP3    H2 1480   5.030   7.393   5.482
  513TIP3   OH2 1481   0.200   6.272   5.528
  513TIP3    H1 1482   0.154   6.304   5.606
  513TIP3    H2 1483   0.269   6.335   5.512
  514TIP3   OH2 1484   2.592   2.046   4.637
  514TIP3    H1 1485   2.530   2.106   4.596
  514TIP3    H2 1486   2.653   2.023   4.567
  515TIP3   OH2 1487   6.746   0.900   2.060
  515TIP3    H1 1488   6.774   0.951   2.136
  515TIP3    H2 1489   6.766   0.955   1.985
  516TIP3   OH2 1490   3.782   7.526   4.735
  516TIP3    H1 1491   3.782   7.545   4.829
  516TIP3    H2 1492   3.871   7.497   4.716
  517TIP3   OH2 1493   3.913   5.094   2.395
  517TIP3    H1 1494   3.912   5.142   2.478
  517TIP3    H2 1495   4.006   5.081   2.377
  518TIP3   OH2 1496   3.948   0.405   5.000
  518TIP3    H1 1497   3.985   0.389   5.087
  518TIP3    H2 1498   3.853   0.393   5.012
  519TIP3   OH2 1499   5.873   3.182   1.920
  519TIP3    H1 1500   5.906   3.220   1.839
  519TIP3    H2 1501   5.815   3.249   1.956
  520TIP3   OH2 1502   2.084   3.377   1.163
  520TIP3    H1 1503   2.173   3.357   1.191
  520TIP3    H2 1504   2.080   3.473   1.162
  521TIP3   OH2 1505   3.022   5.209   5.978
  521TIP3    H1 1506   3.056   5.167   5.899
  521TIP3    H2 1507   3.096   5.259   6.013
  522TIP3   OH2 1508   5.529   4.050   4.906
  522TIP3    H1 1509   5.462   4.112   4.934
  522TIP3    H2 1510   5.515   4.040   4.811
  523TIP3   OH2 1511   1.817   6.520   1.566
  523TIP3    H1 1512   1.837   6.472   1.485
  523TIP3    H2 1513   1.878   6.593   1.566
  524TIP3   OH2 1514   4.175   5.744   0.247
  524TIP3    H1 1515   4.147   5.705   0.329
  524TIP3    H2 1516   4.110   5.812   0.230
  525TIP3   OH2 1517   3.261   0.456   6.213
  525TIP3    H1 1518   3.184   0.459   6.156
  525TIP3    H2 1519   3.288   0.548   6.222
  526TIP3   OH2 1520   4.441   6.996   5.538
  526TIP3    H1 1521   4.484   6.913   5.516
  526TIP3    H2 1522   4.498   7.063   5.500
  527TIP3   OH2 1523   3.543   5.097   2.616
  527TIP3    H1 1524   3.480   5.033   2.649
  527TIP3    H2 1525   3.518   5.111   2.525
  528TIP3   OH2 1526   4.711   3.140   5.459
  528TIP3    H1 1527   4.737   3.231   5.472
  528TIP3    H2 1528   4.619   3.146   5.430
  529TIP3   OH2 1529   1.944   4.103   4.542
  529TIP3    H1 1530   1.992   4.099   4.625
  529TIP3    H2 1531   1.964   4.189   4.507
  530TIP3   OH2 1532   4.144   0.377   3.922
  530TIP3    H1 1533   4.132   0.286   3.949
  530TIP3    H2 1534   4.235   0.382   3.894
  531TIP3   OH2 1535   5.460   2.664   1.392
  531TIP3    H1 1536   5.487   2.601   1.325
  531TIP3    H2 1537   5.541   2.695   1.431
  532TIP3   OH2 1538   4.778   6.371   0.263
  532TIP3    H1 1539   4.684   6.355   0.257
  532TIP3    H2 1540   4.788   6.432   0.336
  533TIP3   OH2 1541   6.867   6.052   4.803
  533TIP3    H1 1542   6.810   5.976   4.795
  533TIP3    H2 1543   6.880   6.083   4.713
  534TIP3   OH2 1544   5.770   2.642   5.660
  534TIP3    H1 1545   5.796   2.571   5.601
  534TIP3    H2 1546   5.828   2.715   5.638
  535TIP3   OH2 1547   7.537   1.216   2.106
  535TIP3    H1 1548   7.497   1.178   2.185
  535TIP3    H2 1549   7.565   1.141   2.054
  536TIP3   OH2 1550   8.265   6.117   5.957
  536TIP3    H1 1551   8.359   6.116   5.976
  536TIP3    H2 1552   8.251   6.040   5.902
  537TIP3   OH2 1553   3.512   5.480   0.666
  537TIP3    H1 1554   3.546   5.569   0.666
  537TIP3    H2 1555   3.437   5.482   0.725
  538TIP3   OH2 1556   3.420   0.153   4.797
  538TIP3    H1 1557   3.393   0.170   4.707
  538TIP3    H2 1558   3.342   0.118   4.840
  539TIP3   OH2 1559   2.847   7.658   2.102
  539TIP3    H1 1560   2.804   7.706   2.173
  539TIP3    H2 1561   2.808   7.694   2.022
  540TIP3   OH2 1562   2.458   3.248   5.207
  540TIP3    H1 1563   2.518   3.176   5.188
  540TIP3    H2 1564   2.479   3.272   5.298
  541TIP3   OH2 1565   6.572   0.177   0.339
  541TIP3    H1 1566   6.485   0.138   0.343
  541TIP3    H2 1567   6.570   0.232   0.260
  542TIP3   OH2 1568   6.157   6.297   6.055
  542TIP3    H1 1569   6.222   6.227   6.050
  542TIP3    H2 1570   6.183   6.358   5.986
  543TIP3   OH2 1571   3.996   3.409   2.596
  543TIP3    H1 1572   3.991   3.353   2.673
  543TIP3    H2 1573   3.908   3.404   2.558
  544TIP3   OH2 1574   6.104   5.437   5.551
  544TIP3    H1 1575   6.137   5.395   5.472
  544TIP3    H2 1576   6.143   5.388   5.623
  545TIP3   OH2 1577   3.365   5.020   0.161
  545TIP3    H1 1578   3.402   5.101   0.196
  545TIP3    H2 1579   3.437   4.979   0.113
  546TIP3   OH2 1580   1.214   1.735   2.168
  546TIP3    H1 1581   1.167   1.788   2.232
  546TIP3    H2 1582   1.291   1.788   2.146
  547TIP3   OH2 1583   7.828   6.903  -0.042
  547TIP3    H1 1584   7.914   6.945  -0.055
  547TIP3    H2 1585   7.816   6.905   0.053
  548TIP3   OH2 1586   0.631   1.525   1.169
  548TIP3    H1 1587   0.723   1.547   1.154
  548TIP3    H2 1588   0.605   1.478   1.090
  549TIP3   OH2 1589   1.814   4.431   3.049
  549TIP3    H1 1590   1.818   4.527   3.044
  549TIP3    H2 1591   1.898   4.401   3.014
  550TIP3   OH2 1592   2.885   3.885   0.086
  550TIP3    H1 1593   2.950   3.893   0.017
  550TIP3    H2 1594   2.802   3.905   0.043
  551TIP3   OH2 1595   0.592   3.396   1.941
  551TIP3    H1 1596   0.568   3.481   1.904
  551TIP3    H2 1597   0.624   3.418   2.029
  552TIP3   OH2 1598   2.336   7.371   6.176
  552TIP3    H1 1599   2.406   7.423   6.216
  552TIP3    H2 1600   2.260   7.430   6.175
  553TIP3   OH2 1601   4.530   5.399   2.160
  553TIP3    H1 1602   4.450   5.448   2.177
  553TIP3    H2 1603   4.591   5.465   2.124
  554TIP3   OH2 1604   0.281   0.317   5.776
  554TIP3    H1 1605   0.213   0.378   5.806
  554TIP3    H2 1606   0.351   0.374   5.744
  555TIP3   OH2 1607   7.193   1.050   4.669
  555TIP3    H1 1608   7.266   1.094   4.626
  555TIP3    H2 1609   7.203   1.072   4.762
  556TIP3   OH2 1610   3.378   1.796   0.377
  556TIP3    H1 1611   3.392   1.704   0.354
  556TIP3    H2 1612   3.404   1.844   0.298
  557TIP3   OH2 1613   5.761   4.601   6.540
  557TIP3    H1 1614   5.748   4.656   6.617
  557TIP3    H2 1615   5.818   4.531   6.570
  558TIP3   OH2 1616   5.117   2.202   2.995
  558TIP3    H1 1617   5.148   2.144   2.926
  558TIP3    H2 1618   5.177   2.277   2.991
  559TIP3   OH2 1619   2.263   7.734   3.784
  559TIP3    H1 1620   2.247   7.661   3.724
  559TIP3    H2 1621   2.266   7.811   3.727
  560TIP3   OH2 1622   3.318   7.191   3.190
  560TIP3    H1 1623   3.356   7.264   3.142
  560TIP3    H2 1624   3.297   7.227   3.276
  561TIP3   OH2 1625   0.452   0.631   2.582
  561TIP3    H1 1626   0.453   0.615   2.676
  561TIP3    H2 1627   0.534   0.592   2.550
  562TIP3   OH2 1628   1.191   0.129   1.250
  562TIP3    H1 1629   1.151   0.115   1.336
  562TIP3    H2 1630   1.126   0.097   1.188
  563TIP3   OH2 1631   5.909   0.603   5.842
  563TIP3    H1 1632   5.908   0.508   5.833
  563TIP3    H2 1633   5.982   0.632   5.788
  564TIP3   OH2 1634   8.233   5.543   5.377
  564TIP3    H1 1635   8.282   5.550   5.295
  564TIP3    H2 1636   8.142   5.552   5.352
  565TIP3   OH2 1637   7.198   3.879   2.140
  565TIP3    H1 1638   7.265   3.817   2.112
  565TIP3    H2 1639   7.171   3.848   2.226
  566TIP3   OH2 1640   3.041   1.495   6.451
  566TIP3    H1 1641   3.126   1.453   6.462
  566TIP3    H2 1642   3.013   1.469   6.363
  567TIP3   OH2 1643   7.740   1.983   6.028
  567TIP3    H1 1644   7.824   1.942   6.051
  567TIP3    H2 1645   7.748   2.072   6.062
  568TIP3   OH2 1646   4.536   6.657   1.601
  568TIP3    H1 1647   4.493   6.622   1.679
  568TIP3    H2 1648   4.626   6.623   1.606
  569TIP3   OH2 1649   1.751   7.745   2.259
  569TIP3    H1 1650   1.772   7.790   2.177
  569TIP3    H2 1651   1.769   7.810   2.327
  570TIP3   OH2 1652   4.202   5.764   5.321
  570TIP3    H1 1653   4.269   5.713   5.367
  570TIP3    H2 1654   4.229   5.855   5.333
  571TIP3   OH2 1655   1.630   4.021   1.607
  571TIP3    H1 1656   1.636   4.102   1.556
  571TIP3    H2 1657   1.720   3.991   1.615
  572TIP3   OH2 1658   6.525   2.494   3.000
  572TIP3    H1 1659   6.570   2.413   2.976
  572TIP3    H2 1660   6.586   2.563   2.975
  573TIP3   OH2 1661   6.229   4.214   1.196
  573TIP3    H1 1662   6.304   4.173   1.153
  573TIP3    H2 1663   6.259   4.303   1.216
  574TIP3   OH2 1664   0.914   4.099   4.089
  574TIP3    H1 1665   0.877   4.187   4.086
  574TIP3    H2 1666   0.962   4.091   4.006
  575TIP3   OH2 1667   5.851   1.591   5.572
  575TIP3    H1 1668   5.792   1.667   5.576
  575TIP3    H2 1669   5.938   1.628   5.586
  576TIP3   OH2 1670   4.096   7.066   0.272
  576TIP3    H1 1671   4.105   7.031   0.361
  576TIP3    H2 1672   4.158   7.013   0.220
  577TIP3   OH2 1673   7.531   7.433   1.580
  577TIP3    H1 1674   7.572   7.415   1.496
  577TIP3    H2 1675   7.446   7.471   1.558
  578TIP3   OH2 1676   6.810   4.361   4.045
  578TIP3    H1 1677   6.733   4.304   4.043
  578TIP3    H2 1678   6.842   4.362   3.955
  579TIP3   OH2 1679   2.282   1.069   1.992
  579TIP3    H1 1680   2.334   1.015   2.053
  579TIP3    H2 1681   2.325   1.154   1.994
  580TIP3   OH2 1682   4.139   5.281   1.206
  580TIP3    H1 1683   4.136   5.333   1.126
  580TIP3    H2 1684   4.092   5.201   1.185
  581TIP3   OH2 1685   2.068   1.981   5.349
  581TIP3    H1 1686   2.145   1.936   5.386
  581TIP3    H2 1687   2.070   2.068   5.389
  582TIP3   OH2 1688   2.287   2.507   4.479
  582TIP3    H1 1689   2.257   2.432   4.530
  582TIP3    H2 1690   2.371   2.532   4.518
  583TIP3   OH2 1691   7.027   2.798   2.594
  583TIP3    H1 1692   7.002   2.881   2.635
  583TIP3    H2 1693   7.115   2.780   2.628
  584TIP3   OH2 1694   0.522   3.596   4.315
  584TIP3    H1 1695   0.464   3.669   4.341
  584TIP3    H2 1696   0.608   3.621   4.350
  585TIP3   OH2 1697   0.757   4.712   3.110
  585TIP3    H1 1698   0.821   4.693   3.042
  585TIP3    H2 1699   0.809   4.731   3.188
  586TIP3   OH2 1700   8.291   1.917   0.544
  586TIP3    H1 1701   8.243   1.894   0.624
  586TIP3    H2 1702   8.367   1.966   0.575
  587TIP3   OH2 1703   1.429   2.167   4.320
  587TIP3    H1 1704   1.488   2.188   4.392
  587TIP3    H2 1705   1.444   2.236   4.256
  588TIP3   OH2 1706   0.159   4.319   5.640
  588TIP3    H1 1707   0.110   4.253   5.591
  588TIP3    H2 1708   0.208   4.268   5.705
  589TIP3   OH2 1709   7.665   7.172   3.464
  589TIP3    H1 1710   7.631   7.260   3.481
  589TIP3    H2 1711   7.753   7.186   3.430
  590TIP3   OH2 1712   5.336   3.367   6.222
  590TIP3    H1 1713   5.429   3.354   6.235
  590TIP3    H2 1714   5.328   3.458   6.193
  591TIP3   OH2 1715   2.147   5.425   4.323
  591TIP3    H1 1716   2.168   5.426   4.230
  591TIP3    H2 1717   2.187   5.504   4.358
  592TIP3   OH2 1718   7.708   2.032   2.286
  592TIP3    H1 1719   7.785   1.979   2.305
  592TIP3    H2 1720   7.712   2.047   2.191
  593TIP3   OH2 1721   4.209   6.499   3.780
  593TIP3    H1 1722   4.240   6.513   3.690
  593TIP3    H2 1723   4.256   6.563   3.832
  594TIP3   OH2 1724   2.501   1.949   5.282
  594TIP3    H1 1725   2.481   1.991   5.365
  594TIP3    H2 1726   2.516   1.857   5.305
  595TIP3   OH2 1727   4.724   7.616   0.889
  595TIP3    H1 1728   4.630   7.615   0.871
  595TIP3    H2 1729   4.758   7.537   0.846
  596TIP3   OH2 1730   4.637   1.269   6.369
  596TIP3    H1 1731   4.686   1.329   6.313
  596TIP3    H2 1732   4.703   1.226   6.423
  597TIP3   OH2 1733   1.896   3.877   6.455
  597TIP3    H1 1734   1.819   3.872   6.511
  597TIP3    H2 1735   1.909   3.971   6.441
  598TIP3   OH2 1736   6.147   7.162   5.530
  598TIP3    H1 1737   6.115   7.240   5.484
  598TIP3    H2 1738   6.068   7.124   5.570
  599TIP3   OH2 1739   3.505   5.800   5.310
  599TIP3    H1 1740   3.517   5.739   5.383
  599TIP3    H2 1741   3.423   5.773   5.270
  600TIP3   OH2 1742   5.439   4.907   1.144
  600TIP3    H1 1743   5.522   4.874   1.108
  600TIP3    H2 1744   5.412   4.976   1.083
  601TIP3   OH2 1745   3.735   2.890   2.115
  601TIP3    H1 1746   3.772   2.928   2.036
  601TIP3    H2 1747   3.661   2.948   2.137
  602TIP3   OH2 1748   5.659   1.952   6.452
  602TIP3    H1 1749   5.613   1.973   6.371
  602TIP3    H2 1750   5.747   1.926   6.424
  603TIP3   OH2 1751   1.527   6.755   4.097
  603TIP3    H1 1752   1.581   6.816   4.147
  603TIP3    H2 1753   1.546   6.774   4.005
  604TIP3   OH2 1754   7.554   5.579   2.097
  604TIP3    H1 1755   7.524   5.522   2.027
  604TIP3    H2 1756   7.474   5.610   2.140
  605TIP3   OH2 1757   1.255   7.452   3.318
  605TIP3    H1 1758   1.169   7.479   3.350
  605TIP3    H2 1759   1.302   7.422   3.396
  606TIP3   OH2 1760   1.639   3.959   3.695
  606TIP3    H1 1761   1.713   4.011   3.663
  606TIP3    H2 1762   1.605   3.917   3.616
  607TIP3   OH2 1763   2.548   0.185   4.209
  607TIP3    H1 1764   2.578   0.107   4.257
  607TIP3    H2 1765   2.605   0.255   4.240
  608TIP3   OH2 1766   1.353   1.946   4.456
  608TIP3    H1 1767   1.380   2.004   4.385
  608TIP3    H2 1768   1.335   2.004   4.530
  609TIP3   OH2 1769   5.060   3.441   6.110
  609TIP3    H1 1770   4.977   3.415   6.070
  609TIP3    H2 1771   5.040   3.524   6.154
  610TIP3   OH2 1772   6.615   1.157   4.226
  610TIP3    H1 1773   6.555   1.132   4.297
  610TIP3    H2 1774   6.607   1.253   4.221
  611TIP3   OH2 1775   0.614   2.140   4.649
  611TIP3    H1 1776   0.694   2.191   4.662
  611TIP3    H2 1777   0.543   2.205   4.657
  612TIP3   OH2 1778   3.212   6.619   3.407
  612TIP3    H1 1779   3.234   6.619   3.314
  612TIP3    H2 1780   3.280   6.673   3.448
  613TIP3   OH2 1781   0.074   3.915   4.936
  613TIP3    H1 1782   0.087   3.926   4.842
  613TIP3    H2 1783   0.048   3.824   4.946
  614TIP3   OH2 1784   4.276   0.759   1.469
  614TIP3    H1 1785   4.223   0.763   1.548
  614TIP3    H2 1786   4.298   0.667   1.459
  615TIP3   OH2 1787   2.519   0.774   5.787
  615TIP3    H1 1788   2.585   0.706   5.794
  615TIP3    H2 1789   2.514   0.813   5.874
  616TIP3   OH2 1790   5.822   1.197   5.040
  616TIP3    H1 1791   5.784   1.127   4.988
  616TIP3    H2 1792   5.878   1.245   4.979
  617TIP3   OH2 1793   7.623   7.634   3.892
  617TIP3    H1 1794   7.541   7.648   3.845
  617TIP3    H2 1795   7.677   7.583   3.831
  618TIP3   OH2 1796   5.641   5.632   5.482
  618TIP3    H1 1797   5.565   5.648   5.539
  618TIP3    H2 1798   5.684   5.717   5.475
  619TIP3   OH2 1799   3.682   4.220   6.191
  619TIP3    H1 1800   3.650   4.280   6.259
  619TIP3    H2 1801   3.604   4.176   6.159
  620TIP3   OH2 1802   5.515   6.654   2.097
  620TIP3    H1 1803   5.589   6.688   2.046
  620TIP3    H2 1804   5.542   6.666   2.188
  621TIP3   OH2 1805   3.194   3.825   1.295
  621TIP3    H1 1806   3.149   3.885   1.354
  621TIP3    H2 1807   3.195   3.741   1.342
  622TIP3   OH2 1808   0.232   5.627   5.437
  622TIP3    H1 1809   0.202   5.577   5.361
  622TIP3    H2 1810   0.272   5.706   5.400
  623TIP3   OH2 1811   0.366   5.321   3.821
  623TIP3    H1 1812   0.449   5.351   3.784
  623TIP3    H2 1813   0.375   5.336   3.915
  624TIP3   OH2 1814   8.332   7.600   1.969
  624TIP3    H1 1815   8.258   7.584   2.028
  624TIP3    H2 1816   8.400   7.637   2.025
  625TIP3   OH2 1817   0.273   5.635   1.250
  625TIP3    H1 1818   0.361   5.612   1.219
  625TIP3    H2 1819   0.214   5.587   1.192
  626TIP3   OH2 1820   4.957   2.851   2.366
  626TIP3    H1 1821   4.875   2.801   2.369
  626TIP3    H2 1822   5.026   2.784   2.361
  627TIP3   OH2 1823   1.841   2.726   5.944
  627TIP3    H1 1824   1.899   2.784   5.993
  627TIP3    H2 1825   1.899   2.660   5.906
  628TIP3   OH2 1826   3.706   7.735   0.089
  628TIP3    H1 1827   3.749   7.771   0.011
  628TIP3    H2 1828   3.636   7.798   0.108
  629TIP3   OH2 1829   2.704   4.094   5.537
  629TIP3    H1 1830   2.622   4.138   5.561
  629TIP3    H2 1831   2.759   4.163   5.502
  630TIP3   OH2 1832   7.909   6.429  -0.042
  630TIP3    H1 1833   8.000   6.419  -0.012
  630TIP3    H2 1834   7.857   6.378   0.020
  631TIP3   OH2 1835   7.020   5.702   0.767
  631TIP3    H1 1836   7.076   5.668   0.836
  631TIP3    H2 1837   6.938   5.653   0.776
  632TIP3   OH2 1838   6.947   4.950   3.286
  632TIP3    H1 1839   6.856   4.945   3.316
  632TIP3    H2 1840   6.961   4.867   3.240
  633TIP3   OH2 1841   8.073   2.092   0.693
  633TIP3    H1 1842   8.003   2.123   0.636
  633TIP3    H2 1843   8.042   2.006   0.724
  634TIP3   OH2 1844   1.635   3.326   1.980
  634TIP3    H1 1845   1.687   3.323   1.900
  634TIP3    H2 1846   1.593   3.240   1.985
  635TIP3   OH2 1847   1.886   2.457   0.793
  635TIP3    H1 1848   1.848   2.387   0.740
  635TIP3    H2 1849   1.976   2.430   0.808
  636TIP3   OH2 1850   1.167   3.909   5.773
  636TIP3    H1 1851   1.174   3.858   5.692
  636TIP3    H2 1852   1.136   3.847   5.838
  637TIP3   OH2 1853   3.393   7.699   2.388
  637TIP3    H1 1854   3.488   7.691   2.385
  637TIP3    H2 1855   3.362   7.608   2.384
  638TIP3   OH2 1856   2.833   5.174   4.350
  638TIP3    H1 1857   2.740   5.171   4.329
  638TIP3    H2 1858   2.864   5.255   4.311
  639TIP3   OH2 1859   2.446   4.108   5.305
  639TIP3    H1 1860   2.387   4.159   5.249
  639TIP3    H2 1861   2.534   4.132   5.275
  640TIP3   OH2 1862   0.489   7.468   2.778
  640TIP3    H1 1863   0.416   7.425   2.733
  640TIP3    H2 1864   0.512   7.542   2.721
  641TIP3   OH2 1865   5.122   7.673   4.260
  641TIP3    H1 1866   5.136   7.766   4.280
  641TIP3    H2 1867   5.183   7.627   4.318
  642TIP3   OH2 1868   1.968   7.804   4.157
  642TIP3    H1 1869   1.872   7.794   4.159
  642TIP3    H2 1870   1.996   7.749   4.084
  643TIP3   OH2 1871   0.909   5.520   6.122
  643TIP3    H1 1872   0.893   5.483   6.035
  643TIP3    H2 1873   0.857   5.466   6.181
  644TIP3   OH2 1874   7.876   7.806   2.821
  644TIP3    H1 1875   7.863   7.820   2.727
  644TIP3    H2 1876   7.889   7.712   2.830
  645TIP3   OH2 1877   4.565   7.554   1.802
  645TIP3    H1 1878   4.588   7.615   1.732
  645TIP3    H2 1879   4.646   7.506   1.819
  646TIP3   OH2 1880   3.964   5.269   0.063
  646TIP3    H1 1881   3.927   5.276   0.151
  646TIP3    H2 1882   3.896   5.303   0.005
  647TIP3   OH2 1883   4.354   2.212   1.083
  647TIP3    H1 1884   4.297   2.140   1.112
  647TIP3    H2 1885   4.410   2.230   1.158
  648TIP3   OH2 1886   8.183   1.124   6.436
  648TIP3    H1 1887   8.225   1.069   6.370
  648TIP3    H2 1888   8.244   1.197   6.448
  649TIP3   OH2 1889   7.671   4.832   1.110
  649TIP3    H1 1890   7.616   4.782   1.171
  649TIP3    H2 1891   7.610   4.871   1.048
  650TIP3   OH2 1892   3.726   4.888   2.347
  650TIP3    H1 1893   3.789   4.960   2.349
  650TIP3    H2 1894   3.778   4.810   2.365
  651TIP3   OH2 1895   1.128   0.560   3.611
  651TIP3    H1 1896   1.201   0.587   3.555
  651TIP3    H2 1897   1.054   0.550   3.550
  652TIP3   OH2 1898   6.195   0.513   5.373
  652TIP3    H1 1899   6.269   0.481   5.320
  652TIP3    H2 1900   6.127   0.534   5.309
  653TIP3   OH2 1901   2.366   5.328   0.744
  653TIP3    H1 1902   2.281   5.284   0.742
  653TIP3    H2 1903   2.347   5.416   0.775
  654TIP3   OH2 1904   2.931   7.496   5.966
  654TIP3    H1 1905   2.918   7.450   6.049
  654TIP3    H2 1906   2.907   7.587   5.985
  655TIP3   OH2 1907   6.275   7.445   6.585
  655TIP3    H1 1908   6.271   7.429   6.679
  655TIP3    H2 1909   6.299   7.361   6.547
  656TIP3   OH2 1910   0.274   0.673   1.661
  656TIP3    H1 1911   0.295   0.594   1.711
  656TIP3    H2 1912   0.181   0.663   1.639
  657TIP3   OH2 1913   3.519   0.032   1.422
  657TIP3    H1 1914   3.428   0.050   1.443
  657TIP3    H2 1915   3.545  -0.036   1.486
  658TIP3   OH2 1916   6.222   0.683   3.934
  658TIP3    H1 1917   6.223   0.610   3.997
  658TIP3    H2 1918   6.241   0.760   3.987
  659TIP3   OH2 1919   7.281   5.441   5.390
  659TIP3    H1 1920   7.356   5.384   5.370
  659TIP3    H2 1921   7.259   5.482   5.306
  660TIP3   OH2 1922   7.999   7.668   6.010
  660TIP3    H1 1923   8.036   7.688   6.096
  660TIP3    H2 1924   7.979   7.574   6.015
  661TIP3   OH2 1925   0.549   1.264   0.721
  661TIP3    H1 1926   0.620   1.270   0.657
  661TIP3    H2 1927   0.477   1.224   0.673
  662TIP3   OH2 1928   4.674   4.688   5.891
  662TIP3    H1 1929   4.616   4.730   5.828
  662TIP3    H2 1930   4.664   4.740   5.971
  663TIP3   OH2 1931   5.443   3.707   5.834
  663TIP3    H1 1932   5.481   3.780   5.882
  663TIP3    H2 1933   5.350   3.709   5.856
  664TIP3   OH2 1934   2.436   4.365   3.101
  664TIP3    H1 1935   2.368   4.428   3.075
  664TIP3    H2 1936   2.408   4.333   3.186
  665TIP3   OH2 1937   3.471   6.662   4.991
  665TIP3    H1 1938   3.440   6.681   4.903
  665TIP3    H2 1939   3.480   6.748   5.033
  666TIP3   OH2 1940   7.417   5.722   5.404
  666TIP3    H1 1941   7.389   5.634   5.380
  666TIP3    H2 1942   7.446   5.761   5.321
  667TIP3   OH2 1943   7.123   4.022   1.531
  667TIP3    H1 1944   7.169   4.100   1.502
  667TIP3    H2 1945   7.036   4.030   1.494
  668TIP3   OH2 1946   4.424   0.646   4.441
  668TIP3    H1 1947   4.448   0.738   4.449
  668TIP3    H2 1948   4.358   0.633   4.509
  669TIP3   OH2 1949   6.174   2.138   4.264
  669TIP3    H1 1950   6.252   2.096   4.228
  669TIP3    H2 1951   6.205   2.220   4.301
  670TIP3   OH2 1952   6.880   3.421   1.631
  670TIP3    H1 1953   6.786   3.404   1.630
  670TIP3    H2 1954   6.893   3.484   1.701
  671TIP3   OH2 1955   1.774   5.457   1.939
  671TIP3    H1 1956   1.816   5.390   1.886
  671TIP3    H2 1957   1.696   5.481   1.890
  672TIP3   OH2 1958   2.067   1.729   1.640
  672TIP3    H1 1959   2.098   1.815   1.613
  672TIP3    H2 1960   1.986   1.716   1.590
  673TIP3   OH2 1961   0.943   0.135   1.126
  673TIP3    H1 1962   0.947   0.231   1.129
  673TIP3    H2 1963   0.855   0.116   1.091
  674TIP3   OH2 1964   1.411   1.397   1.604
  674TIP3    H1 1965   1.374   1.418   1.690
  674TIP3    H2 1966   1.454   1.312   1.616
  675TIP3   OH2 1967   0.856   4.927   5.525
  675TIP3    H1 1968   0.765   4.919   5.553
  675TIP3    H2 1969   0.856   5.002   5.465
  676TIP3   OH2 1970   7.021   0.208   6.048
  676TIP3    H1 1971   6.937   0.164   6.035
  676TIP3    H2 1972   7.043   0.192   6.140
  677TIP3   OH2 1973   0.725   1.893   0.696
  677TIP3    H1 1974   0.815   1.914   0.720
  677TIP3    H2 1975   0.729   1.802   0.664
  678TIP3   OH2 1976   0.720   1.811   3.152
  678TIP3    H1 1977   0.815   1.823   3.155
  678TIP3    H2 1978   0.684   1.898   3.166
  679TIP3   OH2 1979   5.752   0.752   6.015
  679TIP3    H1 1980   5.781   0.700   5.940
  679TIP3    H2 1981   5.710   0.829   5.977
  680TIP3   OH2 1982   7.541   4.762   6.309
  680TIP3    H1 1983   7.481   4.760   6.233
  680TIP3    H2 1984   7.621   4.721   6.277
  681TIP3   OH2 1985   5.187   7.487   2.538
  681TIP3    H1 1986   5.144   7.495   2.624
  681TIP3    H2 1987   5.277   7.515   2.555
  682TIP3   OH2 1988   2.673   6.389   4.715
  682TIP3    H1 1989   2.730   6.376   4.639
  682TIP3    H2 1990   2.722   6.449   4.772
  683TIP3   OH2 1991   7.793   3.189   0.094
  683TIP3    H1 1992   7.768   3.108   0.049
  683TIP3    H2 1993   7.794   3.255   0.025
  684TIP3   OH2 1994   5.794   5.263   6.664
  684TIP3    H1 1995   5.888   5.282   6.668
  684TIP3    H2 1996   5.781   5.195   6.729
  685TIP3   OH2 1997   0.972   5.186   3.012
  685TIP3    H1 1998   0.917   5.141   2.948
  685TIP3    H2 1999   1.038   5.231   2.959
  686TIP3   OH2 2000   6.399   0.926   0.334
  686TIP3    H1 2001   6.449   0.998   0.295
  686TIP3    H2 2002   6.439   0.847   0.297
  687TIP3   OH2 2003   7.409   5.489   1.358
  687TIP3    H1 2004   7.378   5.570   1.320
  687TIP3    H2 2005   7.439   5.514   1.446
  688TIP3   OH2 2006   1.179   1.997   3.143
  688TIP3    H1 2007   1.265   1.959   3.125
  688TIP3    H2 2008   1.187   2.089   3.118
  689TIP3   OH2 2009   6.369   1.103   6.269
  689TIP3    H1 2010   6.356   1.090   6.363
  689TIP3    H2 2011   6.281   1.102   6.232
  690TIP3   OH2 2012   8.121   1.647   5.293
  690TIP3    H1 2013   8.165   1.582   5.239
  690TIP3    H2 2014   8.028   1.638   5.270
  691TIP3   OH2 2015   0.540   0.367   3.229
  691TIP3    H1 2016   0.575   0.409   3.151
  691TIP3    H2 2017   0.576   0.418   3.302
  692TIP3   OH2 2018   7.118   5.127   0.968
  692TIP3    H1 2019   7.064   5.049   0.958
  692TIP3    H2 2020   7.112   5.149   1.061
  693TIP3   OH2 2021   5.132   4.396   4.517
  693TIP3    H1 2022   5.209   4.340   4.525
  693TIP3    H2 2023   5.158   4.478   4.559
  694TIP3   OH2 2024   7.783   7.221   6.338
  694TIP3    H1 2025   7.871   7.183   6.344
  694TIP3    H2 2026   7.745   7.207   6.425
  695TIP3   OH2 2027   6.257   0.184   5.183
  695TIP3    H1 2028   6.217   0.257   5.135
  695TIP3    H2 2029   6.335   0.221   5.224
  696TIP3   OH2 2030   6.107   5.594   0.465
  696TIP3    H1 2031   6.062   5.545   0.534
  696TIP3    H2 2032   6.077   5.684   0.475
  697TIP3   OH2 2033   7.429   6.939   3.086
  697TIP3    H1 2034   7.423   7.028   3.120
  697TIP3    H2 2035   7.496   6.945   3.018
  698TIP3   OH2 2036   1.802   4.706   5.042
  698TIP3    H1 2037   1.737   4.642   5.011
  698TIP3    H2 2038   1.750   4.778   5.078
  699TIP3   OH2 2039   7.137   3.358   2.086
  699TIP3    H1 2040   7.098   3.286   2.135
  699TIP3    H2 2041   7.172   3.416   2.154
  700TIP3   OH2 2042   2.523   7.278   3.265
  700TIP3    H1 2043   2.557   7.367   3.267
  700TIP3    H2 2044   2.477   7.268   3.349
  701TIP3   OH2 2045   7.491   5.605   5.735
  701TIP3    H1 2046   7.437   5.615   5.813
  701TIP3    H2 2047   7.458   5.525   5.693
  702TIP3   OH2 2048   0.400   5.696   6.016
  702TIP3    H1 2049   0.434   5.771   5.968
  702TIP3    H2 2050   0.471   5.631   6.012
  703TIP3   OH2 2051   0.688   1.424   0.178
  703TIP3    H1 2052   0.769   1.451   0.134
  703TIP3    H2 2053   0.660   1.346   0.130
  704TIP3   OH2 2054   5.399   1.847   4.853
  704TIP3    H1 2055   5.383   1.764   4.810
  704TIP3    H2 2056   5.325   1.859   4.913
  705TIP3   OH2 2057   2.651   6.249   5.086
  705TIP3    H1 2058   2.607   6.228   5.168
  705TIP3    H2 2059   2.583   6.285   5.030
  706TIP3   OH2 2060   4.354   4.538   1.467
  706TIP3    H1 2061   4.335   4.626   1.434
  706TIP3    H2 2062   4.267   4.499   1.481
  707TIP3   OH2 2063   6.632   5.570   1.651
  707TIP3    H1 2064   6.560   5.609   1.603
  707TIP3    H2 2065   6.606   5.576   1.743
  708TIP3   OH2 2066   2.063   5.253   4.860
  708TIP3    H1 2067   2.152   5.221   4.876
  708TIP3    H2 2068   2.045   5.229   4.769
  709TIP3   OH2 2069   0.974   7.198   6.543
  709TIP3    H1 2070   0.906   7.260   6.516
  709TIP3    H2 2071   0.990   7.218   6.635
  710TIP3   OH2 2072   6.930   4.921   0.959
  710TIP3    H1 2073   6.969   4.853   1.015
  710TIP3    H2 2074   6.865   4.964   1.015
  711TIP3   OH2 2075   7.106   4.457   6.375
  711TIP3    H1 2076   7.049   4.503   6.313
  711TIP3    H2 2077   7.061   4.374   6.391
  712TIP3   OH2 2078   6.870   3.486   4.568
  712TIP3    H1 2079   6.799   3.501   4.630
  712TIP3    H2 2080   6.826   3.482   4.482
  713TIP3   OH2 2081   6.102   6.921   3.145
  713TIP3    H1 2082   6.175   6.983   3.133
  713TIP3    H2 2083   6.144   6.843   3.182
  714TIP3   OH2 2084   6.681   0.783   1.785
  714TIP3    H1 2085   6.705   0.835   1.861
  714TIP3    H2 2086   6.743   0.710   1.786
  715TIP3   OH2 2087   2.038   1.780   6.690
  715TIP3    H1 2088   2.062   1.817   6.605
  715TIP3    H2 2089   1.959   1.730   6.673
  716TIP3   OH2 2090   6.518   5.274   5.868
  716TIP3    H1 2091   6.495   5.291   5.959
  716TIP3    H2 2092   6.519   5.360   5.827
  717TIP3   OH2 2093   2.673   4.704   6.405
  717TIP3    H1 2094   2.736   4.761   6.448
  717TIP3    H2 2095   2.683   4.723   6.311
  718TIP3   OH2 2096   8.278   7.468   6.111
  718TIP3    H1 2097   8.239   7.438   6.194
  718TIP3    H2 2098   8.362   7.422   6.106
  719TIP3   OH2 2099   3.151   2.679   0.247
  719TIP3    H1 2100   3.153   2.626   0.167
  719TIP3    H2 2101   3.065   2.722   0.244
  720TIP3   OH2 2102   3.134   3.262   2.405
  720TIP3    H1 2103   3.076   3.247   2.480
  720TIP3    H2 2104   3.084   3.319   2.347
  721TIP3   OH2 2105   2.845   1.046   2.834
  721TIP3    H1 2106   2.812   1.008   2.916
  721TIP3    H2 2107   2.776   1.107   2.806
  722TIP3   OH2 2108   6.648   5.112   3.077
  722TIP3    H1 2109   6.708   5.111   3.003
  722TIP3    H2 2110   6.698   5.154   3.148
  723TIP3   OH2 2111   0.311   1.632   4.027
  723TIP3    H1 2112   0.363   1.572   4.080
  723TIP3    H2 2113   0.229   1.642   4.075
  724TIP3   OH2 2114   6.766   7.797   2.118
  724TIP3    H1 2115   6.689   7.743   2.135
  724TIP3    H2 2116   6.745   7.882   2.157
  725TIP3   OH2 2117   6.229   4.687   3.854
  725TIP3    H1 2118   6.280   4.683   3.774
  725TIP3    H2 2119   6.177   4.607   3.855
  726TIP3   OH2 2120   4.725   2.555   4.866
  726TIP3    H1 2121   4.745   2.482   4.925
  726TIP3    H2 2122   4.803   2.609   4.868
  727TIP3   OH2 2123   6.015   6.561   6.662
  727TIP3    H1 2124   5.960   6.496   6.705
  727TIP3    H2 2125   6.040   6.520   6.579
  728TIP3   OH2 2126   5.594   5.699   2.342
  728TIP3    H1 2127   5.666   5.746   2.385
  728TIP3    H2 2128   5.519   5.758   2.350
  729TIP3   OH2 2129   2.028   3.673   1.186
  729TIP3    H1 2130   1.973   3.747   1.213
  729TIP3    H2 2131   2.090   3.712   1.124
  730TIP3   OH2 2132   0.871   4.004   2.862
  730TIP3    H1 2133   0.800   4.069   2.865
  730TIP3    H2 2134   0.826   3.920   2.859
  731TIP3   OH2 2135   2.374   5.237   0.035
  731TIP3    H1 2136   2.378   5.227  -0.060
  731TIP3    H2 2137   2.465   5.225   0.065
  732TIP3   OH2 2138   6.036   7.155   4.667
  732TIP3    H1 2139   6.096   7.223   4.639
  732TIP3    H2 2140   5.963   7.161   4.605
  733TIP3   OH2 2141   4.179   1.856   4.387
  733TIP3    H1 2142   4.132   1.791   4.439
  733TIP3    H2 2143   4.114   1.889   4.325
  734TIP3   OH2 2144   2.678   6.541   6.318
  734TIP3    H1 2145   2.594   6.532   6.273
  734TIP3    H2 2146   2.655   6.563   6.408
  735TIP3   OH2 2147   4.761   1.562   4.175
  735TIP3    H1 2148   4.801   1.560   4.088
  735TIP3    H2 2149   4.673   1.599   4.160
  736TIP3   OH2 2150   1.891   5.406   4.388
  736TIP3    H1 2151   1.855   5.491   4.361
  736TIP3    H2 2152   1.981   5.406   4.355
  737TIP3   OH2 2153   0.342   0.503   1.422
  737TIP3    H1 2154   0.341   0.545   1.508
  737TIP3    H2 2155   0.392   0.422   1.435
  738TIP3   OH2 2156   1.176   0.491   4.947
  738TIP3    H1 2157   1.193   0.581   4.920
  738TIP3    H2 2158   1.246   0.470   5.009
  739TIP3   OH2 2159   8.089   4.495   0.204
  739TIP3    H1 2160   8.146   4.464   0.134
  739TIP3    H2 2161   8.024   4.550   0.160
  740TIP3   OH2 2162   0.080   6.619   0.070
  740TIP3    H1 2163   0.097   6.712   0.084
  740TIP3    H2 2164   0.162   6.575   0.092
  741TIP3   OH2 2165   6.119   3.201   1.785
  741TIP3    H1 2166   6.166   3.118   1.795
  741TIP3    H2 2167   6.134   3.247   1.868
  742TIP3   OH2 2168   2.960   4.579   4.716
  742TIP3    H1 2169   3.012   4.633   4.775
  742TIP3    H2 2170   2.875   4.623   4.713
  743TIP3   OH2 2171   1.995   6.877   5.238
  743TIP3    H1 2172   1.974   6.785   5.222
  743TIP3    H2 2173   1.910   6.917   5.256
  744TIP3   OH2 2174   7.508   4.882   2.362
  744TIP3    H1 2175   7.440   4.865   2.297
  744TIP3    H2 2176   7.540   4.970   2.342
  745TIP3   OH2 2177   0.425   0.710   6.418
  745TIP3    H1 2178   0.502   0.677   6.371
  745TIP3    H2 2179   0.434   0.675   6.507
  746TIP3   OH2 2180   5.135   3.760   4.886
  746TIP3    H1 2181   5.070   3.802   4.830
  746TIP3    H2 2182   5.099   3.673   4.904
  747TIP3   OH2 2183   1.098   0.818   1.958
  747TIP3    H1 2184   1.169   0.774   1.911
  747TIP3    H2 2185   1.025   0.757   1.953
  748TIP3   OH2 2186   5.324   1.510   5.995
  748TIP3    H1 2187   5.336   1.416   6.006
  748TIP3    H2 2188   5.234   1.519   5.963
  749TIP3   OH2 2189   1.086   1.507   6.571
  749TIP3    H1 2190   1.161   1.460   6.535
  749TIP3    H2 2191   1.020   1.504   6.501
  750TIP3   OH2 2192   3.724   5.637   3.850
  750TIP3    H1 2193   3.647   5.605   3.898
  750TIP3    H2 2194   3.798   5.615   3.907
  751TIP3   OH2 2195   3.096   2.444   0.678
  751TIP3    H1 2196   3.066   2.430   0.767
  751TIP3    H2 2197   3.167   2.508   0.686
  752TIP3   OH2 2198   6.806   1.448   5.104
  752TIP3    H1 2199   6.811   1.484   5.192
  752TIP3    H2 2200   6.754   1.512   5.055
  753TIP3   OH2 2201   7.091   5.611   1.241
  753TIP3    H1 2202   7.103   5.573   1.329
  753TIP3    H2 2203   7.078   5.535   1.184
  754TIP3   OH2 2204   0.365   5.960   0.660
  754TIP3    H1 2205   0.280   6.000   0.638
  754TIP3    H2 2206   0.373   5.971   0.755
  755TIP3   OH2 2207   2.373   6.877   0.737
  755TIP3    H1 2208   2.362   6.836   0.823
  755TIP3    H2 2209   2.314   6.953   0.739
  756TIP3   OH2 2210   1.594   2.641   4.197
  756TIP3    H1 2211   1.646   2.717   4.172
  756TIP3    H2 2212   1.512   2.678   4.230
  757TIP3   OH2 2213   6.239   2.497   3.070
  757TIP3    H1 2214   6.331   2.472   3.063
  757TIP3    H2 2215   6.201   2.472   2.985
  758TIP3   OH2 2216   5.342   5.583   4.784
  758TIP3    H1 2217   5.301   5.662   4.818
  758TIP3    H2 2218   5.275   5.542   4.729
  759TIP3   OH2 2219   2.018   2.293   0.537
  759TIP3    H1 2220   1.993   2.228   0.602
  759TIP3    H2 2221   1.964   2.273   0.460
  760TIP3   OH2 2222   7.025   4.654   3.272
  760TIP3    H1 2223   6.997   4.692   3.356
  760TIP3    H2 2224   7.087   4.586   3.297
  761TIP3   OH2 2225   5.246   3.227   3.516
  761TIP3    H1 2226   5.197   3.162   3.566
  761TIP3    H2 2227   5.262   3.185   3.431
  762TIP3   OH2 2228   3.965   2.378   6.202
  762TIP3    H1 2229   4.036   2.325   6.237
  762TIP3    H2 2230   4.006   2.432   6.134
  763TIP3   OH2 2231   5.035   6.553   1.386
  763TIP3    H1 2232   4.982   6.557   1.307
  763TIP3    H2 2233   4.971   6.557   1.458
  764TIP3   OH2 2234   7.732   7.380   3.815
  764TIP3    H1 2235   7.646   7.392   3.773
  764TIP3    H2 2236   7.794   7.386   3.742
  765TIP3   OH2 2237   5.745   0.481   2.935
  765TIP3    H1 2238   5.683   0.554   2.930
  765TIP3    H2 2239   5.701   0.415   2.987
  766TIP3   OH2 2240   3.520   4.564   6.516
  766TIP3    H1 2241   3.612   4.539   6.500
  766TIP3    H2 2242   3.506   4.544   6.609
  767TIP3   OH2 2243   0.100   7.293   1.534
  767TIP3    H1 2244   0.070   7.270   1.446
  767TIP3    H2 2245   0.191   7.263   1.537
  768TIP3   OH2 2246   4.261   0.289   0.928
  768TIP3    H1 2247   4.265   0.327   1.015
  768TIP3    H2 2248   4.267   0.365   0.869
  769TIP3   OH2 2249   4.554   6.265   3.288
  769TIP3    H1 2250   4.515   6.338   3.239
  769TIP3    H2 2251   4.489   6.245   3.355
  770TIP3   OH2 2252   4.044   1.828   2.275
  770TIP3    H1 2253   3.979   1.882   2.320
  770TIP3    H2 2254   4.125   1.879   2.280
  771TIP3   OH2 2255   1.855   6.390   3.654
  771TIP3    H1 2256   1.866   6.450   3.727
  771TIP3    H2 2257   1.867   6.303   3.691
  772TIP3   OH2 2258   4.072   1.191   1.223
  772TIP3    H1 2259   4.087   1.254   1.152
  772TIP3    H2 2260   4.078   1.105   1.181
  773TIP3   OH2 2261   0.320   5.103   6.042
  773TIP3    H1 2262   0.228   5.085   6.059
  773TIP3    H2 2263   0.320   5.162   5.967
  774TIP3   OH2 2264   4.633   1.931   0.899
  774TIP3    H1 2265   4.695   1.959   0.832
  774TIP3    H2 2266   4.654   1.839   0.914
  775TIP3   OH2 2267   1.260   0.807   4.570
  775TIP3    H1 2268   1.336   0.752   4.590
  775TIP3    H2 2269   1.297   0.890   4.540
  776TIP3   OH2 2270   4.605   7.211   5.485
  776TIP3    H1 2271   4.688   7.179   5.450
  776TIP3    H2 2272   4.629   7.254   5.567
  777TIP3   OH2 2273   2.188   6.042   5.467
  777TIP3    H1 2274   2.203   6.081   5.380
  777TIP3    H2 2275   2.163   6.117   5.522
  778TIP3   OH2 2276   2.490   2.805   0.019
  778TIP3    H1 2277   2.514   2.723   0.062
  778TIP3    H2 2278   2.544   2.807  -0.060
  779TIP3   OH2 2279   1.068   1.486   2.823
  779TIP3    H1 2280   1.014   1.410   2.801
  779TIP3    H2 2281   1.051   1.501   2.916
  780TIP3   OH2 2282   0.943   2.406   3.572
  780TIP3    H1 2283   0.960   2.342   3.641
  780TIP3    H2 2284   0.854   2.388   3.543
  781TIP3   OH2 2285   3.888   1.337   3.345
  781TIP3    H1 2286   3.916   1.422   3.309
  781TIP3    H2 2287   3.829   1.360   3.417
  782TIP3   OH2 2288   2.474   5.992   2.170
  782TIP3    H1 2289   2.395   6.046   2.169
  782TIP3    H2 2290   2.445   5.908   2.205
  783TIP3   OH2 2291   7.989   6.270   2.189
  783TIP3    H1 2292   8.071   6.258   2.142
  783TIP3    H2 2293   7.992   6.207   2.260
  784TIP3   OH2 2294   1.878   1.092   0.966
  784TIP3    H1 2295   1.789   1.056   0.959
  784TIP3    H2 2296   1.918   1.042   1.037
  785TIP3   OH2 2297   2.178   5.084   0.951
  785TIP3    H1 2298   2.171   5.032   1.030
  785TIP3    H2 2299   2.238   5.036   0.894
  786TIP3   OH2 2300   3.305   0.216   2.357
  786TIP3    H1 2301   3.250   0.290   2.333
  786TIP3    H2 2302   3.362   0.249   2.427
  787TIP3   OH2 2303   0.505   4.043   4.848
  787TIP3    H1 2304   0.510   3.967   4.906
  787TIP3    H2 2305   0.466   4.111   4.903
  788TIP3   OH2 2306   2.809   6.481   5.020
  788TIP3    H1 2307   2.829   6.403   4.968
  788TIP3    H2 2308   2.854   6.467   5.103
  789TIP3   OH2 2309   1.925   0.115   0.511
  789TIP3    H1 2310   1.977   0.053   0.460
  789TIP3    H2 2311   1.835   0.101   0.482
  790TIP3   OH2 2312   7.178   6.301   3.726
  790TIP3    H1 2313   7.104   6.361   3.719
  790TIP3    H2 2314   7.153   6.241   3.797
  791TIP3   OH2 2315   4.826   5.105   6.011
  791TIP3    H1 2316   4.821   5.041   5.939
  791TIP3    H2 2317   4.919   5.123   6.021
  792TIP3   OH2 2318   6.688   0.891   2.990
  792TIP3    H1 2319   6.678   0.837   2.911
  792TIP3    H2 2320   6.648   0.974   2.967
  793TIP3   OH2 2321   6.704   5.637   5.951
  793TIP3    H1 2322   6.780   5.580   5.952
  793TIP3    H2 2323   6.677   5.642   6.043
  794TIP3   OH2 2324   1.794   2.945   5.358
  794TIP3    H1 2325   1.742   2.870   5.331
  794TIP3    H2 2326   1.879   2.908   5.382
  795TIP3   OH2 2327   2.035   5.512   0.608
  795TIP3    H1 2328   2.075   5.438   0.654
  795TIP3    H2 2329   2.022   5.578   0.675
  796TIP3   OH2 2330   5.060   2.794   1.047
  796TIP3    H1 2331   5.086   2.862   0.985
  796TIP3    H2 2332   5.113   2.811   1.125
  797TIP3   OH2 2333   7.337   4.942   1.223
  797TIP3    H1 2334   7.332   5.038   1.214
  797TIP3    H2 2335   7.371   4.928   1.311
  798TIP3   OH2 2336   1.060   2.193   2.073
  798TIP3    H1 2337   1.009   2.270   2.048
  798TIP3    H2 2338   0.995   2.128   2.097
  799TIP3   OH2 2339   6.436   5.575   5.386
  799TIP3    H1 2340   6.407   5.490   5.418
  799TIP3    H2 2341   6.445   5.562   5.291
  800TIP3   OH2 2342   2.832   3.507   6.495
  800TIP3    H1 2343   2.738   3.506   6.510
  800TIP3    H2 2344   2.846   3.448   6.421
  801TIP3   OH2 2345   1.053   4.053   2.384
  801TIP3    H1 2346   1.113   4.126   2.399
  801TIP3    H2 2347   1.104   3.990   2.334
  802TIP3   OH2 2348   2.798   3.491   2.995
  802TIP3    H1 2349   2.768   3.574   2.958
  802TIP3    H2 2350   2.893   3.491   2.981
  803TIP3   OH2 2351   2.163   7.632   1.266
  803TIP3    H1 2352   2.240   7.575   1.265
  803TIP3    H2 2353   2.193   7.712   1.309
  804TIP3   OH2 2354   3.699   1.456   4.943
  804TIP3    H1 2355   3.774   1.402   4.916
  804TIP3    H2 2356   3.735   1.513   5.010
  805TIP3   OH2 2357   6.071   0.522   1.588
  805TIP3    H1 2358   6.061   0.600   1.533
  805TIP3    H2 2359   6.144   0.475   1.548
  806TIP3   OH2 2360   7.313   1.438   0.337
  806TIP3    H1 2361   7.392   1.492   0.333
  806TIP3    H2 2362   7.289   1.424   0.245
  807TIP3   OH2 2363   0.947   1.334   0.172
  807TIP3    H1 2364   0.884   1.264   0.154
  807TIP3    H2 2365   0.968   1.370   0.086
  808TIP3   OH2 2366   4.111   7.083   1.917
  808TIP3    H1 2367   4.040   7.087   1.852
  808TIP3    H2 2368   4.187   7.053   1.868
  809TIP3   OH2 2369   3.479   1.040   2.177
  809TIP3    H1 2370   3.536   1.081   2.242
  809TIP3    H2 2371   3.522   1.058   2.093
  810TIP3   OH2 2372   5.763   3.610   4.239
  810TIP3    H1 2373   5.691   3.658   4.279
  810TIP3    H2 2374   5.732   3.589   4.151
  811TIP3   OH2 2375   3.442   0.996   0.952
  811TIP3    H1 2376   3.428   0.983   1.046
  811TIP3    H2 2377   3.455   1.091   0.942
  812TIP3   OH2 2378   8.213   6.109   2.992
  812TIP3    H1 2379   8.201   6.203   2.979
  812TIP3    H2 2380   8.223   6.099   3.086
  813TIP3   OH2 2381   4.163   3.199   2.053
  813TIP3    H1 2382   4.253   3.213   2.080
  813TIP3    H2 2383   4.110   3.236   2.124
  814TIP3   OH2 2384   8.130   2.418   4.018
  814TIP3    H1 2385   8.159   2.505   4.046
  814TIP3    H2 2386   8.204   2.361   4.037
  815TIP3   OH2 2387   1.068   6.986   2.323
  815TIP3    H1 2388   1.002   6.973   2.391
  815TIP3    H2 2389   1.023   6.963   2.241
  816TIP3   OH2 2390   0.514   2.613   2.491
  816TIP3    H1 2391   0.559   2.651   2.416
  816TIP3    H2 2392   0.422   2.633   2.476
  817TIP3   OH2 2393   6.826   7.425   4.467
  817TIP3    H1 2394   6.794   7.344   4.427
  817TIP3    H2 2395   6.833   7.404   4.560
  818TIP3   OH2 2396   7.722   2.688   2.361
  818TIP3    H1 2397   7.812   2.669   2.386
  818TIP3    H2 2398   7.719   2.667   2.267
  819TIP3   OH2 2399   5.825   2.322   3.505
  819TIP3    H1 2400   5.780   2.338   3.588
  819TIP3    H2 2401   5.790   2.389   3.446
  820TIP3   OH2 2402   7.132   0.738   3.421
  820TIP3    H1 2403   7.105   0.704   3.507
  820TIP3    H2 2404   7.226   0.721   3.417
  821TIP3   OH2 2405   7.235   2.386   4.742
  821TIP3    H1 2406   7.209   2.478   4.734
  821TIP3    H2 2407   7.284   2.382   4.824
  822TIP3   OH2 2408   7.160   0.626   3.688
  822TIP3    H1 2409   7.110   0.648   3.766
  822TIP3    H2 2410   7.156   0.530   3.683
  823TIP3   OH2 2411   6.923   5.582   1.988
  823TIP3    H1 2412   6.918   5.505   2.045
  823TIP3    H2 2413   6.983   5.641   2.033
  824TIP3   OH2 2414   1.764   7.580   6.611
  824TIP3    H1 2415   1.839   7.551   6.662
  824TIP3    H2 2416   1.781   7.549   6.522
  825TIP3   OH2 2417   4.372   0.618   2.536
  825TIP3    H1 2418   4.393   0.675   2.610
  825TIP3    H2 2419   4.431   0.543   2.545
  826TIP3   OH2 2420   0.390   6.746   3.606
  826TIP3    H1 2421   0.318   6.774   3.663
  826TIP3    H2 2422   0.349   6.729   3.522
  827TIP3   OH2 2423   7.819   5.399   4.886
  827TIP3    H1 2424   7.829   5.430   4.796
  827TIP3    H2 2425   7.878   5.454   4.937
  828TIP3   OH2 2426   5.346   7.562   5.344
  828TIP3    H1 2427   5.415   7.506   5.380
  828TIP3    H2 2428   5.293   7.586   5.420
  829TIP3   OH2 2429   1.071   1.708   6.097
  829TIP3    H1 2430   1.118   1.652   6.159
  829TIP3    H2 2431   1.046   1.785   6.148
  830TIP3   OH2 2432   1.775   7.640   5.204
  830TIP3    H1 2433   1.682   7.618   5.206
  830TIP3    H2 2434   1.778   7.728   5.166
  831TIP3   OH2 2435   2.793   2.148   6.199
  831TIP3    H1 2436   2.725   2.215   6.185
  831TIP3    H2 2437   2.809   2.112   6.112
  832TIP3   OH2 2438   1.704   3.743   5.648
  832TIP3    H1 2439   1.740   3.667   5.602
  832TIP3    H2 2440   1.771   3.765   5.713
  833TIP3   OH2 2441   1.077   2.048   2.828
  833TIP3    H1 2442   1.129   2.098   2.891
  833TIP3    H2 2443   1.103   1.957   2.842
  834TIP3   OH2 2444   2.474   0.716   4.947
  834TIP3    H1 2445   2.400   0.699   5.004
  834TIP3    H2 2446   2.548   0.729   5.006
  835TIP3   OH2 2447   2.484   3.909   0.202
  835TIP3    H1 2448   2.510   3.889   0.112
  835TIP3    H2 2449   2.506   4.001   0.213
  836TIP3   OH2 2450   6.290   1.606   4.737
  836TIP3    H1 2451   6.260   1.632   4.824
  836TIP3    H2 2452   6.235   1.532   4.714
  837TIP3   OH2 2453   1.571   1.107   5.021
  837TIP3    H1 2454   1.499   1.056   4.983
  837TIP3    H2 2455   1.628   1.128   4.948
  838TIP3   OH2 2456   4.685   4.219   3.891
  838TIP3    H1 2457   4.610   4.244   3.837
  838TIP3    H2 2458   4.722   4.143   3.847
  839TIP3   OH2 2459   6.658   0.534   4.918
  839TIP3    H1 2460   6.642   0.628   4.917
  839TIP3    H2 2461   6.741   0.523   4.871
  840TIP3   OH2 2462   5.465   2.840   0.896
  840TIP3    H1 2463   5.465   2.901   0.970
  840TIP3    H2 2464   5.419   2.763   0.928
  841TIP3   OH2 2465   7.782   2.366   0.366
  841TIP3    H1 2466   7.709   2.415   0.404
  841TIP3    H2 2467   7.850   2.432   0.351
  842TIP3   OH2 2468   6.755   6.502   1.543
  842TIP3    H1 2469   6.787   6.518   1.454
  842TIP3    H2 2470   6.743   6.408   1.549
  843TIP3   OH2 2471   8.308   6.836   5.566
  843TIP3    H1 2472   8.261   6.860   5.486
  843TIP3    H2 2473   8.243   6.845   5.636
  844TIP3   OH2 2474   2.980   5.268   6.760
  844TIP3    H1 2475   2.912   5.304   6.816
  844TIP3    H2 2476   2.937   5.256   6.675
  845TIP3   OH2 2477   6.810   4.892   5.278
  845TIP3    H1 2478   6.781   4.981   5.300
  845TIP3    H2 2479   6.788   4.840   5.355
  846TIP3   OH2 2480   2.700   5.082   6.761
  846TIP3    H1 2481   2.693   5.178   6.759
  846TIP3    H2 2482   2.760   5.061   6.690
  847TIP3   OH2 2483   3.971   4.101   3.485
  847TIP3    H1 2484   4.047   4.046   3.471
  847TIP3    H2 2485   3.999   4.166   3.549
  848TIP3   OH2 2486   5.158   0.991   6.255
  848TIP3    H1 2487   5.127   0.986   6.346
  848TIP3    H2 2488   5.222   0.920   6.249
  849TIP3   OH2 2489   0.593   7.729   2.111
  849TIP3    H1 2490   0.596   7.655   2.171
  849TIP3    H2 2491   0.678   7.727   2.066
  850TIP3   OH2 2492   4.176   7.066   3.091
  850TIP3    H1 2493   4.230   6.992   3.060
  850TIP3    H2 2494   4.183   7.062   3.186
  851TIP3   OH2 2495   3.016   2.938   3.328
  851TIP3    H1 2496   3.046   2.869   3.387
  851TIP3    H2 2497   3.077   3.010   3.343
  852TIP3   OH2 2498   1.150   5.576   2.076
  852TIP3    H1 2499   1.208   5.576   2.000
  852TIP3    H2 2500   1.191   5.516   2.138
  853TIP3   OH2 2501   3.334   3.423   6.442
  853TIP3    H1 2502   3.318   3.329   6.436
  853TIP3    H2 2503   3.300   3.447   6.528
  854TIP3   OH2 2504   5.289   7.661   5.884
  854TIP3    H1 2505   5.384   7.668   5.873
  854TIP3    H2 2506   5.272   7.703   5.969
  855TIP3   OH2 2507   6.231   6.689   5.053
  855TIP3    H1 2508   6.202   6.598   5.046
  855TIP3    H2 2509   6.279   6.692   5.136
  856TIP3   OH2 2510   5.373   7.529   4.149
  856TIP3    H1 2511   5.457   7.488   4.170
  856TIP3    H2 2512   5.391   7.623   4.151
  857TIP3   OH2 2513   5.533   1.807   0.790
  857TIP3    H1 2514   5.471   1.851   0.734
  857TIP3    H2 2515   5.491   1.805   0.876
  858TIP3   OH2 2516   5.583   4.288   2.371
  858TIP3    H1 2517   5.573   4.336   2.453
  858TIP3    H2 2518   5.655   4.333   2.326
  859TIP3   OH2 2519   0.106   5.134   6.668
  859TIP3    H1 2520   0.026   5.088   6.643
  859TIP3    H2 2521   0.077   5.220   6.698
  860TIP3   OH2 2522   6.698   6.702   2.613
  860TIP3    H1 2523   6.742   6.618   2.621
  860TIP3    H2 2524   6.677   6.709   2.520
  861TIP3   OH2 2525   6.335   3.967   4.623
  861TIP3    H1 2526   6.397   4.006   4.562
  861TIP3    H2 2527   6.299   3.892   4.576
  862TIP3   OH2 2528   5.204   1.617   5.289
  862TIP3    H1 2529   5.237   1.703   5.313
  862TIP3    H2 2530   5.145   1.593   5.361
  863TIP3   OH2 2531   4.183   6.352   5.645
  863TIP3    H1 2532   4.115   6.372   5.709
  863TIP3    H2 2533   4.149   6.387   5.563
  864TIP3   OH2 2534   2.229   4.383   6.075
  864TIP3    H1 2535   2.310   4.336   6.096
  864TIP3    H2 2536   2.249   4.431   5.995
  865TIP3   OH2 2537   6.893   0.391   6.613
  865TIP3    H1 2538   6.834   0.390   6.537
  865TIP3    H2 2539   6.864   0.465   6.665
  866TIP3   OH2 2540   8.208   2.906   2.281
  866TIP3    H1 2541   8.161   2.851   2.343
  866TIP3    H2 2542   8.161   2.895   2.198
  867TIP3   OH2 2543   7.696   2.515   3.451
  867TIP3    H1 2544   7.602   2.499   3.446
  867TIP3    H2 2545   7.718   2.558   3.368
  868TIP3   OH2 2546   2.717   4.699   4.389
  868TIP3    H1 2547   2.694   4.611   4.418
  868TIP3    H2 2548   2.700   4.754   4.466
  869TIP3   OH2 2549   4.184   3.891   2.356
  869TIP3    H1 2550   4.256   3.927   2.409
  869TIP3    H2 2551   4.180   3.949   2.280
  870TIP3   OH2 2552   1.677   3.630   3.236
  870TIP3    H1 2553   1.699   3.538   3.220
  870TIP3    H2 2554   1.592   3.627   3.279
  871TIP3   OH2 2555   8.210   5.653   0.044
  871TIP3    H1 2556   8.216   5.730   0.100
  871TIP3    H2 2557   8.148   5.595   0.089
  872TIP3   OH2 2558   5.854   4.558   1.139
  872TIP3    H1 2559   5.835   4.532   1.229
  872TIP3    H2 2560   5.907   4.487   1.103
  873TIP3   OH2 2561   6.927   4.158   4.785
  873TIP3    H1 2562   6.970   4.201   4.711
  873TIP3    H2 2563   6.947   4.065   4.774
  874TIP3   OH2 2564   0.195   3.893   6.695
  874TIP3    H1 2565   0.189   3.988   6.694
  874TIP3    H2 2566   0.167   3.867   6.607
  875TIP3   OH2 2567   7.955   6.080   2.624
  875TIP3    H1 2568   7.962   5.985   2.630
  875TIP3    H2 2569   8.034   6.112   2.668
  876TIP3   OH2 2570   2.654   4.203   4.004
  876TIP3    H1 2571   2.652   4.169   4.094
  876TIP3    H2 2572   2.631   4.128   3.949
  877TIP3   OH2 2573   4.736   7.077   0.407
  877TIP3    H1 2574   4.804   7.144   0.399
  877TIP3    H2 2575   4.667   7.105   0.347
  878TIP3   OH2 2576   4.594   2.682   2.063
  878TIP3    H1 2577   4.607   2.598   2.018
  878TIP3    H2 2578   4.572   2.744   1.993
  879TIP3   OH2 2579   0.804   5.289   6.219
  879TIP3    H1 2580   0.854   5.218   6.259
  879TIP3    H2 2581   0.725   5.247   6.185
  880TIP3   OH2 2582   1.367   4.047   1.029
  880TIP3    H1 2583   1.322   4.056   1.113
  880TIP3    H2 2584   1.296   4.038   0.965
  881TIP3   OH2 2585   7.734   4.840   5.661
  881TIP3    H1 2586   7.747   4.934   5.671
  881TIP3    H2 2587   7.644   4.825   5.691
  882TIP3   OH2 2588   4.678   2.091   4.969
  882TIP3    H1 2589   4.706   2.022   4.909
  882TIP3    H2 2590   4.619   2.046   5.030
  883TIP3   OH2 2591   3.797   1.845   6.677
  883TIP3    H1 2592   3.756   1.856   6.763
  883TIP3    H2 2593   3.834   1.930   6.657
  884TIP3   OH2 2594   1.126   4.854   5.172
  884TIP3    H1 2595   1.171   4.904   5.104
  884TIP3    H2 2596   1.129   4.764   5.142
  885TIP3   OH2 2597   5.268   0.749   3.499
  885TIP3    H1 2598   5.274   0.794   3.583
  885TIP3    H2 2599   5.297   0.814   3.435
  886TIP3   OH2 2600   7.649   3.076   1.845
  886TIP3    H1 2601   7.597   3.036   1.914
  886TIP3    H2 2602   7.726   3.112   1.889
  887TIP3   OH2 2603   3.143   4.171   5.714
  887TIP3    H1 2604   3.103   4.257   5.711
  887TIP3    H2 2605   3.091   4.118   5.653
  888TIP3   OH2 2606   6.237   3.749   0.786
  888TIP3    H1 2607   6.296   3.705   0.846
  888TIP3    H2 2608   6.278   3.739   0.700
  889TIP3   OH2 2609   6.540   1.569   6.398
  889TIP3    H1 2610   6.610   1.582   6.334
  889TIP3    H2 2611   6.492   1.651   6.398
  890TIP3   OH2 2612   6.192   2.144   2.000
  890TIP3    H1 2613   6.114   2.118   1.951
  890TIP3    H2 2614   6.237   2.062   2.019
  891TIP3   OH2 2615   8.230   6.061   0.552
  891TIP3    H1 2616   8.297   6.018   0.500
  891TIP3    H2 2617   8.196   5.992   0.609
  892TIP3   OH2 2618   5.914   4.074   6.437
  892TIP3    H1 2619   5.900   4.044   6.526
  892TIP3    H2 2620   5.897   4.168   6.440
  893TIP3   OH2 2621   0.199   1.570   2.785
  893TIP3    H1 2622   0.124   1.513   2.802
  893TIP3    H2 2623   0.201   1.580   2.690
  894TIP3   OH2 2624   7.249   2.677   3.827
  894TIP3    H1 2625   7.263   2.703   3.918
  894TIP3    H2 2626   7.170   2.726   3.800
  895TIP3   OH2 2627   7.813   5.590   2.251
  895TIP3    H1 2628   7.817   5.629   2.338
  895TIP3    H2 2629   7.719   5.584   2.232
  896TIP3   OH2 2630   4.081   3.650   6.717
  896TIP3    H1 2631   4.048   3.738   6.733
  896TIP3    H2 2632   4.021   3.614   6.651
  897TIP3   OH2 2633   1.088   1.267   5.546
  897TIP3    H1 2634   1.034   1.327   5.496
  897TIP3    H2 2635   1.030   1.194   5.569
  898TIP3   OH2 2636   6.372   1.122   4.439
  898TIP3    H1 2637   6.365   1.196   4.499
  898TIP3    H2 2638   6.310   1.141   4.369
  899TIP3   OH2 2639   4.545   7.647   1.392
  899TIP3    H1 2640   4.464   7.617   1.432
  899TIP3    H2 2641   4.524   7.734   1.358
  900TIP3   OH2 2642   6.991   2.685   5.600
  900TIP3    H1 2643   6.980   2.749   5.670
  900TIP3    H2 2644   7.082   2.655   5.608
  901TIP3   OH2 2645   1.504   3.542   1.430
  901TIP3    H1 2646   1.597   3.521   1.434
  901TIP3    H2 2647   1.472   3.529   1.519
  902TIP3   OH2 2648   5.529   5.777   3.154
  902TIP3    H1 2649   5.602   5.830   3.186
  902TIP3    H2 2650   5.558   5.745   3.069
  903TIP3   OH2 2651   4.674   3.487   1.986
  903TIP3    H1 2652   4.613   3.511   1.916
  903TIP3    H2 2653   4.758   3.523   1.958
  904TIP3   OH2 2654   3.817   6.471   4.607
  904TIP3    H1 2655   3.832   6.519   4.689
  904TIP3    H2 2656   3.849   6.530   4.539
  905TIP3   OH2 2657   1.023   4.657   4.384
  905TIP3    H1 2658   0.930   4.671   4.403
  905TIP3    H2 2659   1.027   4.645   4.290
  906TIP3   OH2 2660   4.882   3.244   3.945
  906TIP3    H1 2661   4.918   3.299   3.876
  906TIP3    H2 2662   4.869   3.303   4.019
  907TIP3   OH2 2663   5.755   4.824   4.137
  907TIP3    H1 2664   5.823   4.890   4.125
  907TIP3    H2 2665   5.711   4.849   4.217
  908TIP3   OH2 2666   5.701   1.728   1.969
  908TIP3    H1 2667   5.761   1.712   2.042
  908TIP3    H2 2668   5.622   1.679   1.992
  909TIP3   OH2 2669   5.478   5.343   1.275
  909TIP3    H1 2670   5.395   5.321   1.318
  909TIP3    H2 2671   5.537   5.272   1.298
  910TIP3   OH2 2672   1.493   2.245   3.907
  910TIP3    H1 2673   1.408   2.206   3.887
  910TIP3    H2 2674   1.480   2.293   3.988
  911TIP3   OH2 2675   5.100   1.094   3.546
  911TIP3    H1 2676   5.014   1.137   3.545
  911TIP3    H2 2677   5.125   1.092   3.638
  912TIP3   OH2 2678   4.503   0.815   4.129
  912TIP3    H1 2679   4.476   0.723   4.124
  912TIP3    H2 2680   4.445   0.860   4.068
  913TIP3   OH2 2681   0.447   0.926   0.531
  913TIP3    H1 2682   0.406   1.003   0.491
  913TIP3    H2 2683   0.452   0.947   0.624
  914TIP3   OH2 2684   4.752   1.643   4.484
  914TIP3    H1 2685   4.779   1.582   4.415
  914TIP3    H2 2686   4.812   1.624   4.556
  915TIP3   OH2 2687   7.622   4.487   4.871
  915TIP3    H1 2688   7.666   4.521   4.949
  915TIP3    H2 2689   7.678   4.514   4.798
  916TIP3   OH2 2690   6.899   5.663   4.530
  916TIP3    H1 2691   6.831   5.609   4.489
  916TIP3    H2 2692   6.952   5.695   4.457
  917TIP3   OH2 2693   4.236   3.751   1.839
  917TIP3    H1 2694   4.308   3.798   1.880
  917TIP3    H2 2695   4.219   3.677   1.897
  918TIP3   OH2 2696   3.448   4.308   3.828
  918TIP3    H1 2697   3.512   4.367   3.867
  918TIP3    H2 2698   3.468   4.222   3.865
  919TIP3   OH2 2699   1.730   3.149   5.201
  919TIP3    H1 2700   1.744   3.068   5.250
  919TIP3    H2 2701   1.731   3.121   5.109
  920TIP3   OH2 2702   4.366   5.521   4.745
  920TIP3    H1 2703   4.336   5.568   4.667
  920TIP3    H2 2704   4.295   5.532   4.808
  921TIP3   OH2 2705   1.602   2.009   6.001
  921TIP3    H1 2706   1.518   1.963   5.994
  921TIP3    H2 2707   1.611   2.055   5.918
  922TIP3   OH2 2708   5.800   0.129   5.350
  922TIP3    H1 2709   5.725   0.111   5.406
  922TIP3    H2 2710   5.850   0.048   5.349
  923TIP3   OH2 2711   0.874   1.174   5.322
  923TIP3    H1 2712   0.944   1.109   5.320
  923TIP3    H2 2713   0.866   1.203   5.231
  924TIP3   OH2 2714   7.832   6.696   2.765
  924TIP3    H1 2715   7.857   6.612   2.727
  924TIP3    H2 2716   7.797   6.674   2.851
  925TIP3   OH2 2717   5.371   7.031   6.555
  925TIP3    H1 2718   5.429   7.040   6.630
  925TIP3    H2 2719   5.416   7.075   6.483
  926TIP3   OH2 2720   0.283   7.120   4.807
  926TIP3    H1 2721   0.221   7.189   4.835
  926TIP3    H2 2722   0.265   7.108   4.714
  927TIP3   OH2 2723   5.528   3.275   4.813
  927TIP3    H1 2724   5.576   3.193   4.813
  927TIP3    H2 2725   5.520   3.298   4.721
  928TIP3   OH2 2726   1.545   4.010   6.418
  928TIP3    H1 2727   1.503   3.981   6.337
  928TIP3    H2 2728   1.494   3.969   6.487
  929TIP3   OH2 2729   3.122   3.913   0.785
  929TIP3    H1 2730   3.114   3.864   0.867
  929TIP3    H2 2731   3.190   3.866   0.737
  930TIP3   OH2 2732   8.026   1.621   0.085
  930TIP3    H1 2733   7.987   1.668   0.012
  930TIP3    H2 2734   8.098   1.677   0.115
  931TIP3   OH2 2735   0.288   1.630   3.421
  931TIP3    H1 2736   0.383   1.629   3.411
  931TIP3    H2 2737   0.261   1.717   3.392
  932TIP3   OH2 2738   0.927   4.218   1.486
  932TIP3    H1 2739   0.944   4.141   1.541
  932TIP3    H2 2740   1.014   4.251   1.463
  933TIP3   OH2 2741   1.456   3.772   3.093
  933TIP3    H1 2742   1.368   3.781   3.058
  933TIP3    H2 2743   1.514   3.799   3.022
  934TIP3   OH2 2744   1.206   6.358   2.911
  934TIP3    H1 2745   1.176   6.275   2.946
  934TIP3    H2 2746   1.280   6.383   2.967
  935TIP3   OH2 2747   7.484   4.620   1.655
  935TIP3    H1 2748   7.524   4.699   1.692
  935TIP3    H2 2749   7.535   4.548   1.691
  936TIP3   OH2 2750   3.469   2.033   5.509
  936TIP3    H1 2751   3.546   1.978   5.524
  936TIP3    H2 2752   3.454   2.075   5.593
  937TIP3   OH2 2753   3.872   0.472   1.368
  937TIP3    H1 2754   3.851   0.542   1.306
  937TIP3    H2 2755   3.800   0.410   1.359
  938TIP3   OH2 2756   2.121   6.408   5.905
  938TIP3    H1 2757   2.050   6.395   5.968
  938TIP3    H2 2758   2.145   6.319   5.878
  939TIP3   OH2 2759   6.383   0.147   3.491
  939TIP3    H1 2760   6.444   0.163   3.563
  939TIP3    H2 2761   6.302   0.192   3.518
  940TIP3   OH2 2762   8.014   6.980   0.670
  940TIP3    H1 2763   7.969   7.034   0.735
  940TIP3    H2 2764   7.951   6.973   0.598
  941TIP3   OH2 2765   7.105   7.224   5.459
  941TIP3    H1 2766   7.079   7.201   5.370
  941TIP3    H2 2767   7.137   7.141   5.496
  942TIP3   OH2 2768   6.137   4.061   1.892
  942TIP3    H1 2769   6.099   4.114   1.962
  942TIP3    H2 2770   6.193   3.999   1.937
  943TIP3   OH2 2771   0.887   4.202   4.569
  943TIP3    H1 2772   0.824   4.158   4.627
  943TIP3    H2 2773   0.957   4.230   4.628
  944TIP3   OH2 2774   1.705   2.893   4.216
  944TIP3    H1 2775   1.777   2.861   4.269
  944TIP3    H2 2776   1.662   2.959   4.270
  945TIP3   OH2 2777   7.935   3.319   5.676
  945TIP3    H1 2778   8.011   3.361   5.714
  945TIP3    H2 2779   7.896   3.269   5.747
  946TIP3   OH2 2780   5.480   0.278   2.397
  946TIP3    H1 2781   5.491   0.275   2.492
  946TIP3    H2 2782   5.480   0.371   2.376
  947TIP3   OH2 2783   0.661   0.909   5.609
  947TIP3    H1 2784   0.634   0.990   5.653
  947TIP3    H2 2785   0.702   0.857   5.677
  948TIP3   OH2 2786   1.196   4.725   2.295
  948TIP3    H1 2787   1.178   4.819   2.302
  948TIP3    H2 2788   1.110   4.684   2.303
  949TIP3   OH2 2789   5.005   0.386   3.124
  949TIP3    H1 2790   5.030   0.312   3.068
  949TIP3    H2 2791   5.008   0.349   3.213
  950TIP3   OH2 2792   2.164   4.100   2.126
  950TIP3    H1 2793   2.166   4.122   2.033
  950TIP3    H2 2794   2.221   4.165   2.168
  951TIP3   OH2 2795   3.743   4.912   0.772
  951TIP3    H1 2796   3.648   4.917   0.767
  951TIP3    H2 2797   3.773   4.937   0.685
  952TIP3   OH2 2798   7.197   1.296   0.929
  952TIP3    H1 2799   7.199   1.246   1.011
  952TIP3    H2 2800   7.109   1.331   0.924
  953TIP3   OH2 2801   0.159   7.435   0.112
  953TIP3    H1 2802   0.067   7.412   0.128
  953TIP3    H2 2803   0.158   7.530   0.102
  954TIP3   OH2 2804   2.115   4.096   4.799
  954TIP3    H1 2805   2.116   4.049   4.883
  954TIP3    H2 2806   2.207   4.108   4.778
  955TIP3   OH2 2807   1.336   7.732   3.836
  955TIP3    H1 2808   1.275   7.665   3.807
  955TIP3    H2 2809   1.419   7.711   3.792
  956TIP3   OH2 2810   2.106   4.600   0.755
  956TIP3    H1 2811   2.025   4.605   0.807
  956TIP3    H2 2812   2.174   4.630   0.815
  957TIP3   OH2 2813   7.194   2.409   2.150
  957TIP3    H1 2814   7.258   2.340   2.163
  957TIP3    H2 2815   7.147   2.384   2.070
  958TIP3   OH2 2816   3.235   6.477   5.393
  958TIP3    H1 2817   3.279   6.404   5.435
  958TIP3    H2 2818   3.273   6.482   5.306
  959TIP3   OH2 2819   6.858   7.733   5.222
  959TIP3    H1 2820   6.901   7.647   5.224
  959TIP3    H2 2821   6.823   7.740   5.133
  960TIP3   OH2 2822   2.787   2.560   2.442
  960TIP3    H1 2823   2.766   2.524   2.356
  960TIP3    H2 2824   2.766   2.489   2.503
  961TIP3   OH2 2825   0.166   3.452   1.258
  961TIP3    H1 2826   0.170   3.508   1.335
  961TIP3    H2 2827   0.249   3.404   1.258
  962TIP3   OH2 2828   2.525   5.759   0.945
  962TIP3    H1 2829   2.487   5.845   0.966
  962TIP3    H2 2830   2.530   5.714   1.029
  963TIP3   OH2 2831   1.820   7.309   0.394
  963TIP3    H1 2832   1.806   7.319   0.299
  963TIP3    H2 2833   1.913   7.287   0.403
  964TIP3   OH2 2834   4.592   0.678   0.309
  964TIP3    H1 2835   4.622   0.728   0.234
  964TIP3    H2 2836   4.643   0.713   0.383
  965TIP3   OH2 2837   7.837   3.405   0.913
  965TIP3    H1 2838   7.775   3.335   0.934
  965TIP3    H2 2839   7.921   3.372   0.946
  966TIP3   OH2 2840   1.668   5.124   5.516
  966TIP3    H1 2841   1.591   5.171   5.485
  966TIP3    H2 2842   1.740   5.158   5.463
  967TIP3   OH2 2843   2.340   4.931   0.782
  967TIP3    H1 2844   2.329   4.987   0.705
  967TIP3    H2 2845   2.424   4.888   0.769
  968TIP3   OH2 2846   1.229   0.758   2.563
  968TIP3    H1 2847   1.241   0.726   2.473
  968TIP3    H2 2848   1.318   0.774   2.594
  969TIP3   OH2 2849   5.851   4.319   6.537
  969TIP3    H1 2850   5.914   4.353   6.600
  969TIP3    H2 2851   5.768   4.315   6.585
  970TIP3   OH2 2852   1.003   3.008   0.682
  970TIP3    H1 2853   1.044   2.941   0.737
  970TIP3    H2 2854   0.989   3.082   0.741
  971TIP3   OH2 2855   4.831   4.951   4.238
  971TIP3    H1 2856   4.880   4.869   4.230
  971TIP3    H2 2857   4.741   4.924   4.260
  972TIP3   OH2 2858   3.170   6.205   4.228
  972TIP3    H1 2859   3.200   6.206   4.137
  972TIP3    H2 2860   3.250   6.193   4.279
  973TIP3   OH2 2861   1.369   4.218   5.891
  973TIP3    H1 2862   1.398   4.131   5.918
  973TIP3    H2 2863   1.275   4.219   5.909
  974TIP3   OH2 2864   2.440   1.260   2.059
  974TIP3    H1 2865   2.520   1.234   2.107
  974TIP3    H2 2866   2.447   1.355   2.050
  975TIP3   OH2 2867   0.666   0.914   1.004
  975TIP3    H1 2868   0.644   0.905   0.912
  975TIP3    H2 2869   0.703   1.002   1.012
  976TIP3   OH2 2870   5.451   2.028   4.013
  976TIP3    H1 2871   5.411   2.085   4.079
  976TIP3    H2 2872   5.379   1.974   3.981
  977TIP3   OH2 2873   3.491   0.873   3.460
  977TIP3    H1 2874   3.405   0.835   3.446
  977TIP3    H2 2875   3.542   0.846   3.384
  978TIP3   OH2 2876   2.439   3.716   2.393
  978TIP3    H1 2877   2.409   3.635   2.433
  978TIP3    H2 2878   2.535   3.712   2.399
  979TIP3   OH2 2879   3.691   4.807   0.210
  979TIP3    H1 2880   3.687   4.851   0.125
  979TIP3    H2 2881   3.674   4.876   0.274
  980TIP3   OH2 2882   1.551   3.242   3.019
  980TIP3    H1 2883   1.512   3.219   2.935
  980TIP3    H2 2884   1.551   3.338   3.021
  981TIP3   OH2 2885   7.224   0.173   5.579
  981TIP3    H1 2886   7.248   0.256   5.622
  981TIP3    H2 2887   7.131   0.182   5.560
  982TIP3   OH2 2888   5.449   1.272   1.605
  982TIP3    H1 2889   5.539   1.290   1.578
  982TIP3    H2 2890   5.440   1.177   1.596
  983TIP3   OH2 2891   4.205   4.945   6.792
  983TIP3    H1 2892   4.115   4.911   6.794
  983TIP3    H2 2893   4.217   4.983   6.879
  984TIP3   OH2 2894   1.663   5.407   4.542
  984TIP3    H1 2895   1.677   5.339   4.608
  984TIP3    H2 2896   1.745   5.408   4.492
  985TIP3   OH2 2897   2.578   6.053   0.180
  985TIP3    H1 2898   2.614   6.130   0.135
  985TIP3    H2 2899   2.647   6.024   0.239
  986TIP3   OH2 2900   3.162   2.358   1.651
  986TIP3    H1 2901   3.113   2.281   1.620
  986TIP3    H2 2902   3.240   2.321   1.693
  987TIP3   OH2 2903   0.250   5.157   6.370
  987TIP3    H1 2904   0.165   5.174   6.328
  987TIP3    H2 2905   0.229   5.148   6.463
  988TIP3   OH2 2906   4.465   3.049   4.466
  988TIP3    H1 2907   4.532   3.009   4.410
  988TIP3    H2 2908   4.386   2.997   4.450
  989TIP3   OH2 2909   8.132   2.389   2.628
  989TIP3    H1 2910   8.209   2.446   2.635
  989TIP3    H2 2911   8.142   2.347   2.542
  990TIP3   OH2 2912   5.210   2.464   1.678
  990TIP3    H1 2913   5.183   2.491   1.591
  990TIP3    H2 2914   5.300   2.496   1.686
  991TIP3   OH2 2915   6.973   0.324   2.773
  991TIP3    H1 2916   6.891   0.287   2.740
  991TIP3    H2 2917   7.042   0.269   2.735
  992TIP3   OH2 2918   1.317   4.110   4.079
  992TIP3    H1 2919   1.403   4.130   4.113
  992TIP3    H2 2920   1.333   4.077   3.990
  993TIP3   OH2 2921   3.490   5.006   4.584
  993TIP3    H1 2922   3.396   4.997   4.602
  993TIP3    H2 2923   3.524   4.917   4.590
  994TIP3   OH2 2924   4.037   0.137   0.490
  994TIP3    H1 2925   3.976   0.155   0.562
  994TIP3    H2 2926   4.043   0.219   0.443
  995TIP3   OH2 2927   3.992   6.756   1.504
  995TIP3    H1 2928   4.013   6.664   1.486
  995TIP3    H2 2929   3.929   6.779   1.435
  996TIP3   OH2 2930   1.430   3.874   6.636
  996TIP3    H1 2931   1.425   3.778   6.636
  996TIP3    H2 2932   1.386   3.900   6.717
  997TIP3   OH2 2933   6.947   4.638   1.107
  997TIP3    H1 2934   7.011   4.639   1.179
  997TIP3    H2 2935   6.997   4.607   1.031
  998TIP3   OH2 2936   8.001   2.504   1.020
  998TIP3    H1 2937   8.084   2.549   1.003
  998TIP3    H2 2938   7.938   2.550   0.964
  999TIP3   OH2 2939   6.938   5.170   4.226
  999TIP3    H1 2940   6.927   5.213   4.142
  999TIP3    H2 2941   6.851   5.139   4.250
 1000TIP3   OH2 2942   7.936   1.273   5.897
 1000TIP3    H1 2943   7.955   1.364   5.877
 1000TIP3    H2 2944   7.940   1.228   5.813
 1001TIP3   OH2 2945   8.015   0.970   5.468
 1001TIP3    H1 2946   7.928   1.006   5.450
 1001TIP3    H2 2947   8.016   0.956   5.563
 1002TIP3   OH2 2948   7.757   5.334   0.446
 1002TIP3    H1 2949   7.827   5.399   0.450
 1002TIP3    H2 2950   7.766   5.283   0.527
 1003TIP3   OH2 2951   7.872   6.196   5.429
 1003TIP3    H1 2952   7.951   6.185   5.482
 1003TIP3    H2 2953   7.818   6.257   5.478
 1004TIP3   OH2 2954   3.162   0.637   5.783
 1004TIP3    H1 2955   3.097   0.627   5.853
 1004TIP3    H2 2956   3.243   0.603   5.820
 1005TIP3   OH2 2957   4.343   7.093   1.180
 1005TIP3    H1 2958   4.341   7.084   1.276
 1005TIP3    H2 2959   4.432   7.123   1.161
 1006TIP3   OH2 2960   6.932   7.713   1.918
 1006TIP3    H1 2961   6.865   7.731   1.984
 1006TIP3    H2 2962   6.998   7.662   1.964
 1007TIP3   OH2 2963   6.106   7.081   1.991
 1007TIP3    H1 2964   6.062   7.082   1.906
 1007TIP3    H2 2965   6.108   6.988   2.015
 1008TIP3   OH2 2966   6.199   4.860   1.791
 1008TIP3    H1 2967   6.289   4.891   1.804
 1008TIP3    H2 2968   6.178   4.884   1.701
 1009TIP3   OH2 2969   1.496   2.501   0.577
 1009TIP3    H1 2970   1.584   2.500   0.538
 1009TIP3    H2 2971   1.461   2.588   0.555
 1010TIP3   OH2 2972   6.539   5.685   4.441
 1010TIP3    H1 2973   6.576   5.739   4.371
 1010TIP3    H2 2974   6.448   5.716   4.449
 1011TIP3   OH2 2975   3.017   1.045   5.513
 1011TIP3    H1 2976   3.099   1.093   5.507
 1011TIP3    H2 2977   3.040   0.955   5.489
 1012TIP3   OH2 2978   5.943   7.004   1.393
 1012TIP3    H1 2979   5.869   7.057   1.423
 1012TIP3    H2 2980   5.974   6.960   1.473
 1013TIP3   OH2 2981   6.894   4.560   0.276
 1013TIP3    H1 2982   6.975   4.519   0.306
 1013TIP3    H2 2983   6.922   4.638   0.229
 1014TIP3   OH2 2984   4.459   7.348   3.307
 1014TIP3    H1 2985   4.527   7.383   3.365
 1014TIP3    H2 2986   4.380   7.346   3.361
 1015TIP3   OH2 2987   3.853   0.299   5.562
 1015TIP3    H1 2988   3.847   0.328   5.653
 1015TIP3    H2 2989   3.781   0.237   5.552
 1016TIP3   OH2 2990   0.831   6.953   2.511
 1016TIP3    H1 2991   0.775   6.940   2.587
 1016TIP3    H2 2992   0.771   6.971   2.438
 1017TIP3   OH2 2993   3.141   6.108   1.634
 1017TIP3    H1 2994   3.216   6.130   1.689
 1017TIP3    H2 2995   3.097   6.037   1.680
 1018TIP3   OH2 2996   0.067   4.140   5.953
 1018TIP3    H1 2997  -0.015   4.129   5.905
 1018TIP3    H2 2998   0.109   4.054   5.948
 1019TIP3   OH2 2999   6.038   6.195   6.692
 1019TIP3    H1 3000   6.034   6.101   6.706
 1019TIP3    H2 3001   6.125   6.221   6.722
 1020TIP3   OH2 3002   6.503   5.174   5.170
 1020TIP3    H1 3003   6.422   5.215   5.140
 1020TIP3    H2 3004   6.489   5.080   5.156
 1021TIP3   OH2 3005   0.899   1.820   6.385
 1021TIP3    H1 3006   0.947   1.818   6.468
 1021TIP3    H2 3007   0.916   1.907   6.349
 1022TIP3   OH2 3008   3.363   7.289   2.608
 1022TIP3    H1 3009   3.292   7.315   2.667
 1022TIP3    H2 3010   3.354   7.348   2.532
 1023TIP3   OH2 3011   0.384   7.735   6.531
 1023TIP3    H1 3012   0.463   7.719   6.479
 1023TIP3    H2 3013   0.353   7.648   6.554
 1024TIP3   OH2 3014   6.991   3.990  -0.046
 1024TIP3    H1 3015   7.064   3.928  -0.052
 1024TIP3    H2 3016   6.967   3.989   0.046
 1025TIP3   OH2 3017   1.641   2.482   3.869
 1025TIP3    H1 3018   1.562   2.513   3.824
 1025TIP3    H2 3019   1.618   2.394   3.898
 1026TIP3   OH2 3020   1.113   0.109   5.892
 1026TIP3    H1 3021   1.159   0.173   5.838
 1026TIP3    H2 3022   1.022   0.140   5.894
 1027TIP3   OH2 3023   4.185   1.135   5.347
 1027TIP3    H1 3024   4.178   1.120   5.253
 1027TIP3    H2 3025   4.095   1.143   5.377
 1028TIP3   OH2 3026   4.529   1.746   4.392
 1028TIP3    H1 3027   4.608   1.736   4.446
 1028TIP3    H2 3028   4.514   1.840   4.389
 1029TIP3   OH2 3029   6.779   0.391   4.356
 1029TIP3    H1 3030   6.723   0.388   4.278
 1029TIP3    H2 3031   6.726   0.435   4.422
 1030TIP3   OH2 3032   5.555   4.368   4.525
 1030TIP3    H1 3033   5.560   4.398   4.615
 1030TIP3    H2 3034   5.494   4.295   4.527
 1031TIP3   OH2 3035   3.589   0.132   0.503
 1031TIP3    H1 3036   3.516   0.106   0.558
 1031TIP3    H2 3037   3.667   0.116   0.557
 1032TIP3   OH2 3038   2.082   4.154   6.016
 1032TIP3    H1 3039   1.994   4.150   6.053
 1032TIP3    H2 3040   2.122   4.231   6.057
 1033TIP3   OH2 3041   4.911   1.609   3.078
 1033TIP3    H1 3042   4.819   1.582   3.066
 1033TIP3    H2 3043   4.961   1.544   3.029
 1034TIP3   OH2 3044   6.808   1.063   6.658
 1034TIP3    H1 3045   6.896   1.072   6.694
 1034TIP3    H2 3046   6.777   1.153   6.646
 1035TIP3   OH2 3047   4.362   2.493   2.330
 1035TIP3    H1 3048   4.402   2.428   2.273
 1035TIP3    H2 3049   4.413   2.490   2.411
 1036TIP3   OH2 3050   0.181   4.528   3.808
 1036TIP3    H1 3051   0.251   4.464   3.794
 1036TIP3    H2 3052   0.100   4.478   3.796
 1037TIP3   OH2 3053   5.817   2.741   2.800
 1037TIP3    H1 3054   5.782   2.797   2.870
 1037TIP3    H2 3055   5.761   2.759   2.725
 1038TIP3   OH2 3056   7.942   0.886   2.214
 1038TIP3    H1 3057   7.923   0.818   2.149
 1038TIP3    H2 3058   8.037   0.881   2.225
 1039TIP3   OH2 3059   1.523   6.246   6.228
 1039TIP3    H1 3060   1.586   6.318   6.225
 1039TIP3    H2 3061   1.539   6.196   6.149
 1040TIP3   OH2 3062   0.246   3.314   2.464
 1040TIP3    H1 3063   0.172   3.302   2.405
 1040TIP3    H2 3064   0.242   3.237   2.522
 1041TIP3   OH2 3065   1.165   2.314   0.359
 1041TIP3    H1 3066   1.105   2.273   0.421
 1041TIP3    H2 3067   1.134   2.286   0.273
 1042TIP3   OH2 3068   1.015   6.719   4.765
 1042TIP3    H1 3069   1.019   6.772   4.685
 1042TIP3    H2 3070   0.931   6.673   4.758
 1043TIP3   OH2 3071   5.339   2.075   3.454
 1043TIP3    H1 3072   5.412   2.017   3.433
 1043TIP3    H2 3073   5.370   2.162   3.429
 1044TIP3   OH2 3074   4.048   2.397   3.537
 1044TIP3    H1 3075   3.961   2.433   3.553
 1044TIP3    H2 3076   4.033   2.306   3.513
 1045TIP3   OH2 3077   3.867   4.771   5.173
 1045TIP3    H1 3078   3.808   4.696   5.168
 1045TIP3    H2 3079   3.866   4.796   5.266
 1046TIP3   OH2 3080   2.451   3.874   1.137
 1046TIP3    H1 3081   2.511   3.865   1.211
 1046TIP3    H2 3082   2.372   3.914   1.174
 1047TIP3   OH2 3083   4.436   0.347   0.550
 1047TIP3    H1 3084   4.512   0.295   0.524
 1047TIP3    H2 3085   4.374   0.282   0.585
 1048TIP3   OH2 3086   4.842   1.843   3.502
 1048TIP3    H1 3087   4.917   1.827   3.445
 1048TIP3    H2 3088   4.878   1.841   3.591
 1049TIP3   OH2 3089   7.030   6.554   1.055
 1049TIP3    H1 3090   7.106   6.591   1.010
 1049TIP3    H2 3091   7.001   6.483   0.997
 1050TIP3   OH2 3092   1.616   4.526   2.591
 1050TIP3    H1 3093   1.703   4.547   2.627
 1050TIP3    H2 3094   1.575   4.474   2.659
 1051TIP3   OH2 3095   7.415   1.913   1.003
 1051TIP3    H1 3096   7.504   1.878   1.002
 1051TIP3    H2 3097   7.427   2.007   1.008
 1052TIP3   OH2 3098   5.866   4.224   4.640
 1052TIP3    H1 3099   5.828   4.160   4.701
 1052TIP3    H2 3100   5.930   4.174   4.589
 1053TIP3   OH2 3101   7.517   1.977   4.541
 1053TIP3    H1 3102   7.491   2.065   4.516
 1053TIP3    H2 3103   7.610   1.971   4.518
 1054TIP3   OH2 3104   7.488   5.605   1.609
 1054TIP3    H1 3105   7.434   5.669   1.655
 1054TIP3    H2 3106   7.492   5.530   1.669
 1055TIP3   OH2 3107   0.138   1.961   4.026
 1055TIP3    H1 3108   0.068   1.995   4.082
 1055TIP3    H2 3109   0.210   1.942   4.086
 1056TIP3   OH2 3110   1.342   2.290   0.977
 1056TIP3    H1 3111   1.402   2.356   0.942
 1056TIP3    H2 3112   1.382   2.206   0.955
 1057TIP3   OH2 3113   7.306   5.052   0.600
 1057TIP3    H1 3114   7.312   5.010   0.685
 1057TIP3    H2 3115   7.223   5.022   0.564
 1058TIP3   OH2 3116   3.292   1.877   5.937
 1058TIP3    H1 3117   3.249   1.943   5.991
 1058TIP3    H2 3118   3.386   1.893   5.950
 1059TIP3   OH2 3119   6.552   2.052   2.790
 1059TIP3    H1 3120   6.566   1.958   2.797
 1059TIP3    H2 3121   6.463   2.060   2.755
 1060TIP3   OH2 3122   7.516   5.536   3.497
 1060TIP3    H1 3123   7.576   5.558   3.426
 1060TIP3    H2 3124   7.572   5.530   3.575
 1061TIP3   OH2 3125   7.075   5.075   1.420
 1061TIP3    H1 3126   6.990   5.082   1.376
 1061TIP3    H2 3127   7.092   4.980   1.422
 1062TIP3   OH2 3128   7.108   5.806   5.095
 1062TIP3    H1 3129   7.069   5.848   5.172
 1062TIP3    H2 3130   7.172   5.870   5.063
 1063TIP3   OH2 3131   3.286   1.123   5.516
 1063TIP3    H1 3132   3.344   1.048   5.532
 1063TIP3    H2 3133   3.301   1.181   5.590
 1064TIP3   OH2 3134   5.777   1.023   6.745
 1064TIP3    H1 3135   5.760   1.002   6.837
 1064TIP3    H2 3136   5.873   1.021   6.738
 1065TIP3   OH2 3137   3.381   4.904   5.134
 1065TIP3    H1 3138   3.308   4.908   5.196
 1065TIP3    H2 3139   3.439   4.975   5.161
 1066TIP3   OH2 3140   0.326   7.806   3.355
 1066TIP3    H1 3141   0.396   7.780   3.296
 1066TIP3    H2 3142   0.367   7.870   3.413
 1067TIP3   OH2 3143   3.124   2.121   1.927
 1067TIP3    H1 3144   3.153   2.050   1.870
 1067TIP3    H2 3145   3.190   2.125   1.996
 1068TIP3   OH2 3146   7.316   7.294   5.842
 1068TIP3    H1 3147   7.339   7.205   5.868
 1068TIP3    H2 3148   7.246   7.283   5.778
 1069TIP3   OH2 3149   1.035   5.742   4.653
 1069TIP3    H1 3150   1.012   5.828   4.690
 1069TIP3    H2 3151   1.031   5.682   4.728
 1070TIP3   OH2 3152   1.297   7.587   4.797
 1070TIP3    H1 3153   1.259   7.610   4.712
 1070TIP3    H2 3154   1.235   7.623   4.861
 1071TIP3   OH2 3155   6.495   6.901   0.569
 1071TIP3    H1 3156   6.550   6.858   0.635
 1071TIP3    H2 3157   6.417   6.845   0.562
 1072TIP3   OH2 3158   0.072   0.969   6.301
 1072TIP3    H1 3159   0.053   0.876   6.288
 1072TIP3    H2 3160   0.131   0.971   6.377
 1073TIP3   OH2 3161   7.780   7.182   0.576
 1073TIP3    H1 3162   7.786   7.119   0.504
 1073TIP3    H2 3163   7.790   7.267   0.534
 1074TIP3   OH2 3164   5.015   0.834   0.470
 1074TIP3    H1 3165   5.037   0.809   0.380
 1074TIP3    H2 3166   5.001   0.929   0.466
 1075TIP3   OH2 3167   6.509   4.597   2.722
 1075TIP3    H1 3168   6.597   4.628   2.700
 1075TIP3    H2 3169   6.469   4.578   2.637
 1076TIP3   OH2 3170   0.887   5.563   1.656
 1076TIP3    H1 3171   0.955   5.591   1.595
 1076TIP3    H2 3172   0.910   5.472   1.676
 1077TIP3   OH2 3173   6.858   1.592   5.333
 1077TIP3    H1 3174   6.843   1.660   5.398
 1077TIP3    H2 3175   6.915   1.529   5.377
 1078TIP3   OH2 3176   1.070   1.564   5.366
 1078TIP3    H1 3177   0.994   1.525   5.407
 1078TIP3    H2 3178   1.061   1.658   5.384
 1079TIP3   OH2 3179   4.050   3.904   2.629
 1079TIP3    H1 3180   4.114   3.946   2.573
 1079TIP3    H2 3181   4.091   3.901   2.715
 1080TIP3   OH2 3182   3.918   7.413   6.135
 1080TIP3    H1 3183   3.896   7.320   6.132
 1080TIP3    H2 3184   3.973   7.427   6.059
 1081TIP3   OH2 3185   1.533   3.043   6.465
 1081TIP3    H1 3186   1.621   3.015   6.492
 1081TIP3    H2 3187   1.533   3.032   6.370
 1082TIP3   OH2 3188   0.671   1.508   5.108
 1082TIP3    H1 3189   0.654   1.517   5.202
 1082TIP3    H2 3190   0.610   1.439   5.079
 1083TIP3   OH2 3191   2.258   7.641   0.929
 1083TIP3    H1 3192   2.178   7.591   0.948
 1083TIP3    H2 3193   2.326   7.575   0.922
 1084TIP3   OH2 3194   6.627   4.477   6.319
 1084TIP3    H1 3195   6.711   4.519   6.332
 1084TIP3    H2 3196   6.564   4.549   6.316
 1085TIP3   OH2 3197   2.339   3.097   6.151
 1085TIP3    H1 3198   2.284   3.041   6.207
 1085TIP3    H2 3199   2.428   3.067   6.169
 1086TIP3   OH2 3200   1.417   4.451   4.909
 1086TIP3    H1 3201   1.501   4.457   4.954
 1086TIP3    H2 3202   1.384   4.363   4.931
 1087TIP3   OH2 3203   3.939   3.835   5.743
 1087TIP3    H1 3204   3.898   3.856   5.827
 1087TIP3    H2 3205   4.032   3.852   5.757
 1088TIP3   OH2 3206   3.028   7.553   2.305
 1088TIP3    H1 3207   2.968   7.580   2.235
 1088TIP3    H2 3208   2.971   7.525   2.376
 1089TIP3   OH2 3209   2.113   0.612   1.527
 1089TIP3    H1 3210   2.202   0.583   1.546
 1089TIP3    H2 3211   2.058   0.535   1.541
 1090TIP3   OH2 3212   0.418   4.734   1.398
 1090TIP3    H1 3213   0.464   4.690   1.327
 1090TIP3    H2 3214   0.449   4.691   1.477
 1091TIP3   OH2 3215   8.019   1.217   3.318
 1091TIP3    H1 3216   7.970   1.292   3.351
 1091TIP3    H2 3217   8.098   1.255   3.279
 1092TIP3   OH2 3218   7.719   5.133   3.706
 1092TIP3    H1 3219   7.729   5.104   3.796
 1092TIP3    H2 3220   7.802   5.176   3.685
 1093TIP3   OH2 3221   5.238   1.322   1.936
 1093TIP3    H1 3222   5.225   1.367   2.020
 1093TIP3    H2 3223   5.269   1.390   1.877
 1094TIP3   OH2 3224   6.542   6.990   3.476
 1094TIP3    H1 3225   6.615   7.050   3.459
 1094TIP3    H2 3226   6.475   7.044   3.517
 1095TIP3   OH2 3227   2.894   3.643   2.633
 1095TIP3    H1 3228   2.916   3.733   2.655
 1095TIP3    H2 3229   2.927   3.592   2.707
 1096TIP3   OH2 3230   1.416   3.548   3.284
 1096TIP3    H1 3231   1.403   3.453   3.295
 1096TIP3    H2 3232   1.375   3.568   3.200
 1097TIP3   OH2 3233   5.431   6.036   4.782
 1097TIP3    H1 3234   5.421   6.020   4.876
 1097TIP3    H2 3235   5.357   5.990   4.742
 1098TIP3   OH2 3236   5.524   6.756   6.675
 1098TIP3    H1 3237   5.498   6.809   6.750
 1098TIP3    H2 3238   5.575   6.815   6.621
 1099TIP3   OH2 3239   1.832   1.394   6.229
 1099TIP3    H1 3240   1.753   1.376   6.178
 1099TIP3    H2 3241   1.882   1.455   6.175
 1100TIP3   OH2 3242   7.546   0.716   0.231
 1100TIP3    H1 3243   7.493   0.665   0.169
 1100TIP3    H2 3244   7.502   0.704   0.315
 1101TIP3   OH2 3245   2.128   4.837   6.018
 1101TIP3    H1 3246   2.205   4.881   5.981
 1101TIP3    H2 3247   2.066   4.833   5.946
 1102TIP3   OH2 3248   1.947   3.448   0.240
 1102TIP3    H1 3249   1.895   3.399   0.176
 1102TIP3    H2 3250   1.985   3.381   0.296
 1103TIP3   OH2 3251   4.106   3.064   3.082
 1103TIP3    H1 3252   4.090   2.998   3.014
 1103TIP3    H2 3253   4.196   3.092   3.067
 1104TIP3   OH2 3254   5.741   4.386   3.905
 1104TIP3    H1 3255   5.784   4.433   3.833
 1104TIP3    H2 3256   5.733   4.452   3.974
 1105TIP3   OH2 3257   5.396   0.867   4.750
 1105TIP3    H1 3258   5.368   0.840   4.837
 1105TIP3    H2 3259   5.484   0.829   4.740
 1106TIP3   OH2 3260   5.657   5.902   1.470
 1106TIP3    H1 3261   5.595   5.956   1.519
 1106TIP3    H2 3262   5.710   5.860   1.538
 1107TIP3   OH2 3263   5.749   6.731   1.936
 1107TIP3    H1 3264   5.836   6.733   1.896
 1107TIP3    H2 3265   5.741   6.817   1.978
 1108TIP3   OH2 3266   2.932   6.136   5.234
 1108TIP3    H1 3267   2.907   6.076   5.163
 1108TIP3    H2 3268   2.876   6.112   5.307
 1109TIP3   OH2 3269   1.542   6.925   2.685
 1109TIP3    H1 3270   1.618   6.887   2.729
 1109TIP3    H2 3271   1.470   6.865   2.704
 1110TIP3   OH2 3272   4.936   5.973   0.005
 1110TIP3    H1 3273   5.000   6.009   0.066
 1110TIP3    H2 3274   4.948   5.878   0.010
 1111TIP3   OH2 3275   4.153   5.856   3.101
 1111TIP3    H1 3276   4.058   5.848   3.089
 1111TIP3    H2 3277   4.162   5.914   3.177
 1112TIP3   OH2 3278   6.971   5.268   6.345
 1112TIP3    H1 3279   6.913   5.255   6.270
 1112TIP3    H2 3280   7.032   5.194   6.340
 1113TIP3   OH2 3281   6.477   5.470   1.231
 1113TIP3    H1 3282   6.514   5.388   1.199
 1113TIP3    H2 3283   6.552   5.530   1.236
 1114TIP3   OH2 3284   4.142   4.796   5.355
 1114TIP3    H1 3285   4.046   4.792   5.355
 1114TIP3    H2 3286   4.165   4.797   5.263
 1115TIP3   OH2 3287   1.821   6.409   2.158
 1115TIP3    H1 3288   1.812   6.327   2.206
 1115TIP3    H2 3289   1.735   6.450   2.164
 1116TIP3   OH2 3290   7.776   5.268   6.690
 1116TIP3    H1 3291   7.745   5.279   6.780
 1116TIP3    H2 3292   7.706   5.302   6.636
 1117TIP3   OH2 3293   3.716   0.651   5.941
 1117TIP3    H1 3294   3.693   0.574   5.992
 1117TIP3    H2 3295   3.800   0.628   5.901
 1118TIP3   OH2 3296   5.484   2.726   4.738
 1118TIP3    H1 3297   5.545   2.774   4.682
 1118TIP3    H2 3298   5.512   2.635   4.730
 1119TIP3   OH2 3299   6.327   6.182   2.787
 1119TIP3    H1 3300   6.251   6.124   2.776
 1119TIP3    H2 3301   6.385   6.159   2.715
 1120TIP3   OH2 3302   0.169   5.578   5.855
 1120TIP3    H1 3303   0.259   5.584   5.821
 1120TIP3    H2 3304   0.117   5.631   5.795
 1121TIP3   OH2 3305   4.767   6.556   0.452
 1121TIP3    H1 3306   4.756   6.562   0.546
 1121TIP3    H2 3307   4.856   6.588   0.436
 1122TIP3   OH2 3308   2.284   0.872   1.120
 1122TIP3    H1 3309   2.230   0.801   1.153
 1122TIP3    H2 3310   2.346   0.830   1.060
 1123TIP3   OH2 3311   1.659   7.037   0.696
 1123TIP3    H1 3312   1.661   6.973   0.625
 1123TIP3    H2 3313   1.611   7.111   0.660
 1124TIP3   OH2 3314   2.418   1.936   6.442
 1124TIP3    H1 3315   2.410   1.960   6.349
 1124TIP3    H2 3316   2.412   1.841   6.443
 1125TIP3   OH2 3317   5.352   7.196   4.681
 1125TIP3    H1 3318   5.367   7.226   4.592
 1125TIP3    H2 3319   5.371   7.271   4.736
 1126TIP3   OH2 3320   4.232   5.473   3.458
 1126TIP3    H1 3321   4.157   5.455   3.401
 1126TIP3    H2 3322   4.265   5.558   3.428
 1127TIP3   OH2 3323   1.329   4.782   3.287
 1127TIP3    H1 3324   1.350   4.850   3.351
 1127TIP3    H2 3325   1.236   4.795   3.268
 1128TIP3   OH2 3326   5.551   7.471   3.425
 1128TIP3    H1 3327   5.639   7.433   3.420
 1128TIP3    H2 3328   5.541   7.518   3.342
 1129TIP3   OH2 3329   5.724   5.794   3.871
 1129TIP3    H1 3330   5.697   5.704   3.854
 1129TIP3    H2 3331   5.769   5.790   3.955
 1130TIP3   OH2 3332   2.742   6.751   2.370
 1130TIP3    H1 3333   2.745   6.819   2.438
 1130TIP3    H2 3334   2.813   6.774   2.310
 1131TIP3   OH2 3335   0.438   6.578   5.840
 1131TIP3    H1 3336   0.464   6.500   5.791
 1131TIP3    H2 3337   0.514   6.598   5.895
 1132TIP3   OH2 3338   4.457   5.714   2.259
 1132TIP3    H1 3339   4.526   5.696   2.195
 1132TIP3    H2 3340   4.389   5.759   2.209
 1133TIP3   OH2 3341   6.318   3.355   2.621
 1133TIP3    H1 3342   6.254   3.284   2.622
 1133TIP3    H2 3343   6.279   3.424   2.674
 1134TIP3   OH2 3344   5.583   6.666   0.607
 1134TIP3    H1 3345   5.570   6.599   0.540
 1134TIP3    H2 3346   5.552   6.624   0.688
 1135TIP3   OH2 3347   7.330   3.492   5.504
 1135TIP3    H1 3348   7.318   3.509   5.411
 1135TIP3    H2 3349   7.243   3.467   5.536
 1136TIP3   OH2 3350   0.391   7.302   3.683
 1136TIP3    H1 3351   0.408   7.306   3.589
 1136TIP3    H2 3352   0.370   7.210   3.699
 1137TIP3   OH2 3353   7.689   7.464   3.363
 1137TIP3    H1 3354   7.727   7.400   3.304
 1137TIP3    H2 3355   7.605   7.487   3.322
 1138TIP3   OH2 3356   1.859   4.704   0.022
 1138TIP3    H1 3357   1.805   4.697   0.101
 1138TIP3    H2 3358   1.947   4.721   0.054
 1139TIP3   OH2 3359   2.478   3.807   0.575
 1139TIP3    H1 3360   2.441   3.755   0.504
 1139TIP3    H2 3361   2.500   3.742   0.642
 1140TIP3   OH2 3362   2.826   6.416   3.145
 1140TIP3    H1 3363   2.880   6.494   3.155
 1140TIP3    H2 3364   2.783   6.405   3.230
 1141TIP3   OH2 3365   5.493   2.123   3.755
 1141TIP3    H1 3366   5.488   2.108   3.849
 1141TIP3    H2 3367   5.465   2.041   3.716
 1142TIP3   OH2 3368   2.240   6.860   4.951
 1142TIP3    H1 3369   2.306   6.792   4.945
 1142TIP3    H2 3370   2.233   6.880   5.044
 1143TIP3   OH2 3371   1.948   0.491   6.687
 1143TIP3    H1 3372   2.016   0.426   6.703
 1143TIP3    H2 3373   1.875   0.465   6.743
 1144TIP3   OH2 3374   5.343   3.602   5.583
 1144TIP3    H1 3375   5.395   3.660   5.639
 1144TIP3    H2 3376   5.278   3.659   5.543
 1145TIP3   OH2 3377   4.742   6.296   3.568
 1145TIP3    H1 3378   4.688   6.299   3.489
 1145TIP3    H2 3379   4.832   6.294   3.535
 1146TIP3   OH2 3380   4.029   3.003   4.023
 1146TIP3    H1 3381   3.961   3.010   3.956
 1146TIP3    H2 3382   3.983   2.973   4.101
 1147TIP3   OH2 3383   5.490   1.362   5.379
 1147TIP3    H1 3384   5.466   1.419   5.306
 1147TIP3    H2 3385   5.410   1.313   5.398
 1148TIP3   OH2 3386   2.214   1.977   0.612
 1148TIP3    H1 3387   2.168   2.044   0.663
 1148TIP3    H2 3388   2.165   1.972   0.530
 1149TIP3   OH2 3389   1.756   4.159   6.459
 1149TIP3    H1 3390   1.760   4.225   6.390
 1149TIP3    H2 3391   1.683   4.102   6.433
 1150TIP3   OH2 3392   6.618   6.668   1.744
 1150TIP3    H1 3393   6.562   6.592   1.729
 1150TIP3    H2 3394   6.706   6.632   1.757
 1151TIP3   OH2 3395   4.194   3.586   3.611
 1151TIP3    H1 3396   4.185   3.605   3.704
 1151TIP3    H2 3397   4.242   3.503   3.608
 1152TIP3   OH2 3398   6.871   3.509   6.255
 1152TIP3    H1 3399   6.933   3.524   6.183
 1152TIP3    H2 3400   6.906   3.560   6.328
 1153TIP3   OH2 3401   6.029   4.946   4.139
 1153TIP3    H1 3402   6.078   5.026   4.156
 1153TIP3    H2 3403   6.096   4.878   4.129
 1154TIP3   OH2 3404   2.506   0.312   1.840
 1154TIP3    H1 3405   2.459   0.235   1.872
 1154TIP3    H2 3406   2.576   0.325   1.904
 1155TIP3   OH2 3407   2.300   7.310   1.448
 1155TIP3    H1 3408   2.252   7.262   1.381
 1155TIP3    H2 3409   2.253   7.392   1.459
 1156TIP3   OH2 3410   0.306   5.918   4.323
 1156TIP3    H1 3411   0.348   5.974   4.257
 1156TIP3    H2 3412   0.331   5.829   4.299
 1157TIP3   OH2 3413   0.797   2.776   4.890
 1157TIP3    H1 3414   0.778   2.692   4.847
 1157TIP3    H2 3415   0.887   2.797   4.862
 1158TIP3   OH2 3416   8.259   4.975   2.279
 1158TIP3    H1 3417   8.317   4.985   2.354
 1158TIP3    H2 3418   8.315   4.943   2.209
 1159TIP3   OH2 3419   5.517   4.926   6.332
 1159TIP3    H1 3420   5.489   4.992   6.269
 1159TIP3    H2 3421   5.591   4.966   6.378
 1160TIP3   OH2 3422   7.228   3.887   0.919
 1160TIP3    H1 3423   7.176   3.862   0.995
 1160TIP3    H2 3424   7.163   3.907   0.851
 1161TIP3   OH2 3425   7.749   0.397   6.091
 1161TIP3    H1 3426   7.783   0.337   6.158
 1161TIP3    H2 3427   7.817   0.465   6.084
 1162TIP3   OH2 3428   0.220   1.210   0.851
 1162TIP3    H1 3429   0.130   1.228   0.823
 1162TIP3    H2 3430   0.211   1.138   0.914
 1163TIP3   OH2 3431   5.537   2.040   2.548
 1163TIP3    H1 3432   5.444   2.034   2.524
 1163TIP3    H2 3433   5.574   2.101   2.483
 1164TIP3   OH2 3434   5.596   4.698   1.522
 1164TIP3    H1 3435   5.561   4.682   1.609
 1164TIP3    H2 3436   5.571   4.620   1.471
 1165TIP3   OH2 3437   1.129   7.125   4.843
 1165TIP3    H1 3438   1.083   7.118   4.759
 1165TIP3    H2 3439   1.212   7.080   4.829
 1166TIP3   OH2 3440   4.054   7.553   4.421
 1166TIP3    H1 3441   4.143   7.527   4.398
 1166TIP3    H2 3442   4.044   7.524   4.512
 1167TIP3   OH2 3443   2.685   1.727   1.261
 1167TIP3    H1 3444   2.759   1.748   1.317
 1167TIP3    H2 3445   2.651   1.645   1.296
 1168TIP3   OH2 3446   2.382   3.196   1.714
 1168TIP3    H1 3447   2.363   3.290   1.725
 1168TIP3    H2 3448   2.468   3.185   1.754
 1169TIP3   OH2 3449   5.590   4.709   4.856
 1169TIP3    H1 3450   5.609   4.757   4.936
 1169TIP3    H2 3451   5.676   4.683   4.821
 1170TIP3   OH2 3452   3.698   5.676   6.752
 1170TIP3    H1 3453   3.667   5.744   6.811
 1170TIP3    H2 3454   3.662   5.700   6.666
 1171TIP3   OH2 3455   1.649   0.910   2.329
 1171TIP3    H1 3456   1.556   0.906   2.307
 1171TIP3    H2 3457   1.686   0.829   2.293
 1172TIP3   OH2 3458   1.562   0.463   3.108
 1172TIP3    H1 3459   1.600   0.382   3.074
 1172TIP3    H2 3460   1.492   0.434   3.168
 1173TIP3   OH2 3461   5.558   3.942   3.756
 1173TIP3    H1 3462   5.478   3.966   3.801
 1173TIP3    H2 3463   5.558   3.996   3.677
 1174TIP3   OH2 3464   5.229   6.919   1.155
 1174TIP3    H1 3465   5.228   6.844   1.096
 1174TIP3    H2 3466   5.301   6.901   1.216
 1175TIP3   OH2 3467   4.641   5.972   4.327
 1175TIP3    H1 3468   4.674   5.884   4.307
 1175TIP3    H2 3469   4.572   5.957   4.392
 1176TIP3   OH2 3470   7.015   5.376   1.111
 1176TIP3    H1 3471   7.036   5.353   1.020
 1176TIP3    H2 3472   6.963   5.302   1.143
 1177TIP3   OH2 3473   3.305   0.680   1.735
 1177TIP3    H1 3474   3.346   0.749   1.787
 1177TIP3    H2 3475   3.260   0.726   1.664
 1178TIP3   OH2 3476   1.718   4.732   3.145
 1178TIP3    H1 3477   1.675   4.731   3.230
 1178TIP3    H2 3478   1.647   4.735   3.082
 1179TIP3   OH2 3479   2.800   7.395   4.298
 1179TIP3    H1 3480   2.837   7.415   4.384
 1179TIP3    H2 3481   2.814   7.474   4.246
 1180TIP3   OH2 3482   6.296   4.403   3.730
 1180TIP3    H1 3483   6.330   4.489   3.708
 1180TIP3    H2 3484   6.367   4.342   3.710
 1181TIP3   OH2 3485   2.470   4.424   5.681
 1181TIP3    H1 3486   2.433   4.339   5.657
 1181TIP3    H2 3487   2.561   4.405   5.703
 1182TIP3   OH2 3488   3.427   2.315   3.004
 1182TIP3    H1 3489   3.460   2.350   3.087
 1182TIP3    H2 3490   3.505   2.305   2.950
 1183TIP3   OH2 3491   6.323   6.071   6.050
 1183TIP3    H1 3492   6.354   6.011   5.982
 1183TIP3    H2 3493   6.261   6.020   6.101
 1184TIP3   OH2 3494   4.252   0.922   2.292
 1184TIP3    H1 3495   4.197   0.973   2.232
 1184TIP3    H2 3496   4.191   0.886   2.356
 1185TIP3   OH2 3497   1.943   7.126   3.201
 1185TIP3    H1 3498   1.976   7.173   3.277
 1185TIP3    H2 3499   1.948   7.034   3.225
 1186TIP3   OH2 3500   3.934   1.681   4.018
 1186TIP3    H1 3501   3.933   1.602   4.071
 1186TIP3    H2 3502   4.025   1.690   3.990
 1187TIP3   OH2 3503   8.223   1.440   0.028
 1187TIP3    H1 3504   8.247   1.508  -0.035
 1187TIP3    H2 3505   8.139   1.469   0.062
 1188TIP3   OH2 3506   4.160   2.692   4.382
 1188TIP3    H1 3507   4.078   2.709   4.336
 1188TIP3    H2 3508   4.227   2.733   4.328
 1189TIP3   OH2 3509   7.374   4.073   0.151
 1189TIP3    H1 3510   7.437   4.106   0.214
 1189TIP3    H2 3511   7.292   4.117   0.173
 1190TIP3   OH2 3512   4.646   5.706   3.569
 1190TIP3    H1 3513   4.638   5.689   3.475
 1190TIP3    H2 3514   4.723   5.763   3.576
 1191TIP3   OH2 3515   1.109   3.976   3.373
 1191TIP3    H1 3516   1.188   3.922   3.375
 1191TIP3    H2 3517   1.093   3.991   3.280
 1192TIP3   OH2 3518   0.407   0.018   1.618
 1192TIP3    H1 3519   0.456  -0.023   1.689
 1192TIP3    H2 3520   0.340  -0.046   1.595
 1193TIP3   OH2 3521   5.072   1.151   4.450
 1193TIP3    H1 3522   4.979   1.147   4.428
 1193TIP3    H2 3523   5.081   1.094   4.526
 1194TIP3   OH2 3524   6.239   0.096   6.753
 1194TIP3    H1 3525   6.212   0.119   6.664
 1194TIP3    H2 3526   6.159   0.098   6.805
 1195TIP3   OH2 3527   3.099   3.982   6.164
 1195TIP3    H1 3528   3.146   4.049   6.114
 1195TIP3    H2 3529   3.010   3.983   6.130
 1196TIP3   OH2 3530   7.968   6.651   4.444
 1196TIP3    H1 3531   8.061   6.661   4.423
 1196TIP3    H2 3532   7.965   6.577   4.505
 1197TIP3   OH2 3533   2.029   4.525   6.524
 1197TIP3    H1 3534   2.109   4.543   6.474
 1197TIP3    H2 3535   2.004   4.436   6.499
 1198TIP3   OH2 3536   7.369   6.584   2.198
 1198TIP3    H1 3537   7.450   6.628   2.223
 1198TIP3    H2 3538   7.320   6.576   2.280
 1199TIP3   OH2 3539   6.675   1.486   0.276
 1199TIP3    H1 3540   6.592   1.457   0.240
 1199TIP3    H2 3541   6.706   1.553   0.214
 1200TIP3   OH2 3542   6.480   6.662   4.914
 1200TIP3    H1 3543   6.526   6.746   4.918
 1200TIP3    H2 3544   6.395   6.679   4.956
 1201TIP3   OH2 3545   5.947   1.412   4.428
 1201TIP3    H1 3546   5.912   1.493   4.391
 1201TIP3    H2 3547   5.963   1.356   4.352
 1202TIP3   OH2 3548   3.999   1.208   0.564
 1202TIP3    H1 3549   4.001   1.203   0.469
 1202TIP3    H2 3550   3.914   1.249   0.584
 1203TIP3   OH2 3551   7.075   0.792   4.735
 1203TIP3    H1 3552   7.154   0.740   4.742
 1203TIP3    H2 3553   7.106   0.881   4.718
 1204TIP3   OH2 3554   0.652   7.248   4.340
 1204TIP3    H1 3555   0.599   7.326   4.323
 1204TIP3    H2 3556   0.737   7.283   4.367
 1205TIP3   OH2 3557   0.135   5.991   2.148
 1205TIP3    H1 3558   0.182   5.964   2.070
 1205TIP3    H2 3559   0.069   5.924   2.161
 1206TIP3   OH2 3560   7.662   3.935   0.523
 1206TIP3    H1 3561   7.695   3.991   0.453
 1206TIP3    H2 3562   7.567   3.944   0.518
 1207TIP3   OH2 3563   2.517   6.115   5.326
 1207TIP3    H1 3564   2.591   6.120   5.387
 1207TIP3    H2 3565   2.533   6.036   5.275
 1208TIP3   OH2 3566   4.772   7.387   6.467
 1208TIP3    H1 3567   4.833   7.354   6.533
 1208TIP3    H2 3568   4.781   7.328   6.393
 1209TIP3   OH2 3569   3.361   0.111   3.754
 1209TIP3    H1 3570   3.307   0.033   3.762
 1209TIP3    H2 3571   3.450   0.078   3.742
 1210TIP3   OH2 3572   0.824   3.759   2.205
 1210TIP3    H1 3573   0.740   3.805   2.215
 1210TIP3    H2 3574   0.843   3.724   2.292
 1211TIP3   OH2 3575   6.316   2.959   4.302
 1211TIP3    H1 3576   6.400   2.915   4.286
 1211TIP3    H2 3577   6.335   3.019   4.374
 1212TIP3   OH2 3578   7.255   0.088   3.866
 1212TIP3    H1 3579   7.304   0.149   3.921
 1212TIP3    H2 3580   7.191   0.143   3.821
 1213TIP3   OH2 3581   3.044   5.869   1.737
 1213TIP3    H1 3582   2.983   5.902   1.803
 1213TIP3    H2 3583   3.130   5.872   1.780
 1214TIP3   OH2 3584   6.475   4.025   4.126
 1214TIP3    H1 3585   6.383   4.027   4.100
 1214TIP3    H2 3586   6.516   4.092   4.072
 1215TIP3   OH2 3587   1.635   2.909   1.058
 1215TIP3    H1 3588   1.583   2.984   1.027
 1215TIP3    H2 3589   1.693   2.888   0.986
 1216TIP3   OH2 3590   2.599   2.888   0.895
 1216TIP3    H1 3591   2.622   2.824   0.962
 1216TIP3    H2 3592   2.679   2.940   0.883
 1217TIP3   OH2 3593   8.325   1.483   4.034
 1217TIP3    H1 3594   8.245   1.472   4.086
 1217TIP3    H2 3595   8.393   1.438   4.084
 1218TIP3   OH2 3596   6.997   6.925   0.292
 1218TIP3    H1 3597   6.964   6.983   0.360
 1218TIP3    H2 3598   6.919   6.880   0.258
 1219TIP3   OH2 3599   8.021   6.476   1.673
 1219TIP3    H1 3600   7.984   6.441   1.592
 1219TIP3    H2 3601   8.044   6.398   1.724
 1220TIP3   OH2 3602   2.748   7.257   1.999
 1220TIP3    H1 3603   2.664   7.232   2.037
 1220TIP3    H2 3604   2.813   7.206   2.048
 1221TIP3   OH2 3605   4.743   0.658   0.014
 1221TIP3    H1 3606   4.691   0.736   0.034
 1221TIP3    H2 3607   4.683   0.602  -0.036
 1222TIP3   OH2 3608   2.047   4.313   0.485
 1222TIP3    H1 3609   2.069   4.230   0.444
 1222TIP3    H2 3610   2.025   4.291   0.576
 1223TIP3   OH2 3611   7.469   5.992   1.156
 1223TIP3    H1 3612   7.524   6.043   1.096
 1223TIP3    H2 3613   7.396   6.050   1.176
 1224TIP3   OH2 3614   8.112   7.232   2.601
 1224TIP3    H1 3615   8.119   7.326   2.613
 1224TIP3    H2 3616   8.200   7.204   2.577
 1225TIP3   OH2 3617   0.979   6.751   4.238
 1225TIP3    H1 3618   1.022   6.829   4.201
 1225TIP3    H2 3619   0.886   6.764   4.218
 1226TIP3   OH2 3620   4.994   5.752   4.449
 1226TIP3    H1 3621   5.088   5.773   4.442
 1226TIP3    H2 3622   4.963   5.807   4.520
 1227TIP3   OH2 3623   5.431   7.484   0.289
 1227TIP3    H1 3624   5.426   7.480   0.193
 1227TIP3    H2 3625   5.505   7.428   0.312
 1228TIP3   OH2 3626   7.457   3.903   1.834
 1228TIP3    H1 3627   7.498   3.989   1.825
 1228TIP3    H2 3628   7.486   3.872   1.920
 1229TIP3   OH2 3629   1.417   3.850   4.983
 1229TIP3    H1 3630   1.335   3.806   4.961
 1229TIP3    H2 3631   1.441   3.815   5.069
 1230TIP3   OH2 3632   4.386   7.311   5.338
 1230TIP3    H1 3633   4.468   7.265   5.357
 1230TIP3    H2 3634   4.321   7.241   5.327
 1231TIP3   OH2 3635   5.501   6.678   0.041
 1231TIP3    H1 3636   5.417   6.723   0.034
 1231TIP3    H2 3637   5.486   6.593   0.000
 1232TIP3   OH2 3638   5.982   6.226   5.792
 1232TIP3    H1 3639   6.024   6.150   5.832
 1232TIP3    H2 3640   6.043   6.255   5.725
 1233TIP3   OH2 3641   5.824   3.711   5.317
 1233TIP3    H1 3642   5.829   3.622   5.353
 1233TIP3    H2 3643   5.914   3.742   5.318
 1234TIP3   OH2 3644   6.708   3.294   6.709
 1234TIP3    H1 3645   6.670   3.365   6.761
 1234TIP3    H2 3646   6.799   3.318   6.697
 1235TIP3   OH2 3647   5.360   2.134   2.802
 1235TIP3    H1 3648   5.414   2.125   2.724
 1235TIP3    H2 3649   5.330   2.225   2.800
 1236TIP3   OH2 3650   0.210   6.875   1.888
 1236TIP3    H1 3651   0.222   6.845   1.979
 1236TIP3    H2 3652   0.260   6.812   1.836
 1237TIP3   OH2 3653   5.250   2.841   4.180
 1237TIP3    H1 3654   5.226   2.915   4.124
 1237TIP3    H2 3655   5.183   2.842   4.249
 1238TIP3   OH2 3656   3.790   5.855   5.782
 1238TIP3    H1 3657   3.792   5.896   5.869
 1238TIP3    H2 3658   3.832   5.919   5.725
 1239TIP3   OH2 3659   3.656   2.155   4.300
 1239TIP3    H1 3660   3.710   2.163   4.379
 1239TIP3    H2 3661   3.609   2.073   4.313
 1240TIP3   OH2 3662   4.681   4.558   0.953
 1240TIP3    H1 3663   4.719   4.476   0.986
 1240TIP3    H2 3664   4.594   4.533   0.923
 1241TIP3   OH2 3665   6.827   7.778   6.230
 1241TIP3    H1 3666   6.859   7.855   6.277
 1241TIP3    H2 3667   6.854   7.791   6.140
 1242TIP3   OH2 3668   1.508   5.911   6.313
 1242TIP3    H1 3669   1.512   5.954   6.399
 1242TIP3    H2 3670   1.596   5.921   6.277
 1243TIP3   OH2 3671   1.905   2.664   5.436
 1243TIP3    H1 3672   1.980   2.703   5.391
 1243TIP3    H2 3673   1.886   2.723   5.509
 1244TIP3   OH2 3674   5.381   0.253   5.984
 1244TIP3    H1 3675   5.353   0.299   5.905
 1244TIP3    H2 3676   5.468   0.289   6.003
 1245TIP3   OH2 3677   4.391   5.531   1.421
 1245TIP3    H1 3678   4.352   5.616   1.442
 1245TIP3    H2 3679   4.445   5.510   1.497
 1246TIP3   OH2 3680   2.181  -0.010   5.288
 1246TIP3    H1 3681   2.135   0.033   5.361
 1246TIP3    H2 3682   2.203   0.061   5.228
 1247TIP3   OH2 3683   7.133   1.645   1.942
 1247TIP3    H1 3684   7.156   1.697   2.019
 1247TIP3    H2 3685   7.144   1.554   1.970
 1248TIP3   OH2 3686   0.118   0.412   3.521
 1248TIP3    H1 3687   0.117   0.360   3.601
 1248TIP3    H2 3688   0.060   0.365   3.461
 1249TIP3   OH2 3689   4.824   7.134   4.923
 1249TIP3    H1 3690   4.913   7.162   4.945
 1249TIP3    H2 3691   4.793   7.198   4.859
 1250TIP3   OH2 3692   2.627   5.641   4.229
 1250TIP3    H1 3693   2.592   5.558   4.261
 1250TIP3    H2 3694   2.710   5.618   4.188
 1251TIP3   OH2 3695   4.667   1.714   0.260
 1251TIP3    H1 3696   4.680   1.654   0.334
 1251TIP3    H2 3697   4.573   1.725   0.255
 1252TIP3   OH2 3698   5.590   3.494   6.389
 1252TIP3    H1 3699   5.587   3.399   6.401
 1252TIP3    H2 3700   5.665   3.522   6.442
 1253TIP3   OH2 3701   3.088   5.621   0.213
 1253TIP3    H1 3702   3.107   5.543   0.162
 1253TIP3    H2 3703   3.153   5.621   0.283
 1254TIP3   OH2 3704   6.257   5.289   5.072
 1254TIP3    H1 3705   6.270   5.270   4.979
 1254TIP3    H2 3706   6.181   5.237   5.096
 1255TIP3   OH2 3707   2.974   7.382   3.717
 1255TIP3    H1 3708   2.883   7.413   3.717
 1255TIP3    H2 3709   3.026   7.462   3.725
 1256TIP3   OH2 3710   7.322   6.912   6.745
 1256TIP3    H1 3711   7.291   6.996   6.709
 1256TIP3    H2 3712   7.252   6.850   6.725
 1257TIP3   OH2 3713   3.524   6.197   0.527
 1257TIP3    H1 3714   3.453   6.262   0.527
 1257TIP3    H2 3715   3.604   6.249   0.538
 1258TIP3   OH2 3716   7.887   0.697   5.994
 1258TIP3    H1 3717   7.970   0.718   5.952
 1258TIP3    H2 3718   7.842   0.781   6.003
 1259TIP3   OH2 3719   4.864   0.866   6.779
 1259TIP3    H1 3720   4.883   0.778   6.746
 1259TIP3    H2 3721   4.942   0.890   6.829
 1260TIP3   OH2 3722   5.844   1.431   0.565
 1260TIP3    H1 3723   5.809   1.367   0.504
 1260TIP3    H2 3724   5.779   1.502   0.566
 1261TIP3   OH2 3725   0.420   3.330   5.866
 1261TIP3    H1 3726   0.383   3.376   5.941
 1261TIP3    H2 3727   0.452   3.399   5.809
 1262TIP3   OH2 3728   3.133   2.471   0.058
 1262TIP3    H1 3729   3.040   2.459   0.043
 1262TIP3    H2 3730   3.174   2.391   0.024
 1263TIP3   OH2 3731   1.756   3.740   5.056
 1263TIP3    H1 3732   1.713   3.792   5.124
 1263TIP3    H2 3733   1.761   3.799   4.980
 1264TIP3   OH2 3734   8.181   6.740   3.633
 1264TIP3    H1 3735   8.141   6.709   3.714
 1264TIP3    H2 3736   8.109   6.742   3.570
 1265TIP3   OH2 3737   0.256   7.422   1.217
 1265TIP3    H1 3738   0.264   7.422   1.121
 1265TIP3    H2 3739   0.345   7.406   1.248
 1266TIP3   OH2 3740   6.872   3.026   4.064
 1266TIP3    H1 3741   6.829   3.111   4.054
 1266TIP3    H2 3742   6.801   2.963   4.071
 1267TIP3   OH2 3743   5.392   4.605   3.341
 1267TIP3    H1 3744   5.476   4.560   3.356
 1267TIP3    H2 3745   5.402   4.648   3.257
 1268TIP3   OH2 3746   1.018   5.269   5.879
 1268TIP3    H1 3747   0.945   5.330   5.869
 1268TIP3    H2 3748   0.989   5.190   5.832
 1269TIP3   OH2 3749   3.338   7.219   4.863
 1269TIP3    H1 3750   3.248   7.200   4.889
 1269TIP3    H2 3751   3.388   7.216   4.945
 1270TIP3   OH2 3752   2.440   7.491   3.614
 1270TIP3    H1 3753   2.347   7.475   3.631
 1270TIP3    H2 3754   2.473   7.532   3.694
 1271TIP3   OH2 3755   7.281   3.456   1.364
 1271TIP3    H1 3756   7.278   3.442   1.458
 1271TIP3    H2 3757   7.208   3.516   1.346
 1272TIP3   OH2 3758   4.428   1.202   6.196
 1272TIP3    H1 3759   4.503   1.210   6.256
 1272TIP3    H2 3760   4.446   1.122   6.146
 1273TIP3   OH2 3761   6.761   7.715   4.608
 1273TIP3    H1 3762   6.717   7.630   4.605
 1273TIP3    H2 3763   6.733   7.760   4.528
 1274TIP3   OH2 3764   3.764   0.202   5.154
 1274TIP3    H1 3765   3.722   0.166   5.075
 1274TIP3    H2 3766   3.743   0.295   5.151
 1275TIP3   OH2 3767   3.457   6.173   6.261
 1275TIP3    H1 3768   3.464   6.225   6.340
 1275TIP3    H2 3769   3.534   6.197   6.209
 1276TIP3   OH2 3770   2.915   4.741   0.445
 1276TIP3    H1 3771   2.945   4.669   0.501
 1276TIP3    H2 3772   2.977   4.812   0.463
 1277TIP3   OH2 3773   7.077   1.290   6.052
 1277TIP3    H1 3774   6.989   1.254   6.064
 1277TIP3    H2 3775   7.094   1.339   6.132
 1278TIP3   OH2 3776   5.008   3.904   1.304
 1278TIP3    H1 3777   4.991   3.840   1.235
 1278TIP3    H2 3778   4.924   3.914   1.348
 1279TIP3   OH2 3779   1.946   5.916   1.337
 1279TIP3    H1 3780   1.964   5.975   1.411
 1279TIP3    H2 3781   1.875   5.860   1.369
 1280TIP3   OH2 3782   7.155   4.855   2.475
 1280TIP3    H1 3783   7.211   4.829   2.547
 1280TIP3    H2 3784   7.094   4.782   2.464
 1281TIP3   OH2 3785   0.836   2.326   5.874
 1281TIP3    H1 3786   0.794   2.382   5.940
 1281TIP3    H2 3787   0.922   2.366   5.860
 1282TIP3   OH2 3788   5.296   5.083   1.302
 1282TIP3    H1 3789   5.338   5.102   1.386
 1282TIP3    H2 3790   5.358   5.026   1.256
 1283TIP3   OH2 3791   1.608   7.387   1.408
 1283TIP3    H1 3792   1.571   7.463   1.453
 1283TIP3    H2 3793   1.543   7.318   1.420
 1284TIP3   OH2 3794   0.432   6.203   0.304
 1284TIP3    H1 3795   0.411   6.252   0.224
 1284TIP3    H2 3796   0.404   6.113   0.285
 1285TIP3   OH2 3797   3.640   3.492   5.878
 1285TIP3    H1 3798   3.733   3.494   5.902
 1285TIP3    H2 3799   3.638   3.512   5.785
 1286TIP3   OH2 3800   3.472   0.522   1.568
 1286TIP3    H1 3801   3.434   0.463   1.502
 1286TIP3    H2 3802   3.397   0.566   1.607
 1287TIP3   OH2 3803   6.281   3.582   3.964
 1287TIP3    H1 3804   6.328   3.664   3.946
 1287TIP3    H2 3805   6.189   3.606   3.956
 1288TIP3   OH2 3806   1.759   2.619   2.948
 1288TIP3    H1 3807   1.825   2.641   2.883
 1288TIP3    H2 3808   1.722   2.536   2.917
 1289TIP3   OH2 3809   2.625   3.725   1.357
 1289TIP3    H1 3810   2.702   3.724   1.413
 1289TIP3    H2 3811   2.656   3.692   1.273
 1290TIP3   OH2 3812   6.640   0.768   2.677
 1290TIP3    H1 3813   6.729   0.733   2.670
 1290TIP3    H2 3814   6.626   0.813   2.594
 1291TIP3   OH2 3815   6.936   0.534   0.937
 1291TIP3    H1 3816   7.017   0.553   0.888
 1291TIP3    H2 3817   6.937   0.597   1.009
 1292TIP3   OH2 3818   6.175   0.708   1.407
 1292TIP3    H1 3819   6.153   0.794   1.440
 1292TIP3    H2 3820   6.095   0.677   1.364
 1293TIP3   OH2 3821   5.332   5.896   3.349
 1293TIP3    H1 3822   5.376   5.971   3.387
 1293TIP3    H2 3823   5.392   5.865   3.281
 1294TIP3   OH2 3824   5.841   0.995   1.589
 1294TIP3    H1 3825   5.829   1.020   1.497
 1294TIP3    H2 3826   5.783   0.920   1.601
 1295TIP3   OH2 3827   2.826   2.687   4.848
 1295TIP3    H1 3828   2.901   2.715   4.796
 1295TIP3    H2 3829   2.810   2.597   4.821
 1296TIP3   OH2 3830   1.905   6.254   3.098
 1296TIP3    H1 3831   1.929   6.340   3.132
 1296TIP3    H2 3832   1.939   6.193   3.163
 1297TIP3   OH2 3833   0.045   4.903   1.966
 1297TIP3    H1 3834  -0.027   4.915   1.904
 1297TIP3    H2 3835   0.079   4.991   1.980
 1298TIP3   OH2 3836   5.004   5.850   5.141
 1298TIP3    H1 3837   4.922   5.809   5.113
 1298TIP3    H2 3838   4.976   5.926   5.193
 1299TIP3   OH2 3839   3.822   1.686   5.088
 1299TIP3    H1 3840   3.762   1.731   5.027
 1299TIP3    H2 3841   3.842   1.751   5.154
 1300TIP3   OH2 3842   4.893   1.719   1.901
 1300TIP3    H1 3843   4.831   1.675   1.959
 1300TIP3    H2 3844   4.929   1.648   1.847
 1301TIP3   OH2 3845   5.731   3.531   5.521
 1301TIP3    H1 3846   5.773   3.599   5.573
 1301TIP3    H2 3847   5.677   3.482   5.583
 1302TIP3   OH2 3848   2.516   4.441   4.327
 1302TIP3    H1 3849   2.600   4.403   4.302
 1302TIP3    H2 3850   2.456   4.367   4.332
 1303TIP3   OH2 3851   8.124   4.517   4.667
 1303TIP3    H1 3852   8.196   4.578   4.680
 1303TIP3    H2 3853   8.049   4.561   4.707
 1304TIP3   OH2 3854   2.606   0.748   3.237
 1304TIP3    H1 3855   2.581   0.835   3.266
 1304TIP3    H2 3856   2.702   0.751   3.233
 1305TIP3   OH2 3857   3.166   4.423   3.463
 1305TIP3    H1 3858   3.130   4.508   3.437
 1305TIP3    H2 3859   3.254   4.422   3.427
 1306TIP3   OH2 3860   7.087   6.212   5.467
 1306TIP3    H1 3861   7.081   6.202   5.372
 1306TIP3    H2 3862   7.002   6.248   5.492
 1307TIP3   OH2 3863   0.844   3.834   4.578
 1307TIP3    H1 3864   0.814   3.921   4.604
 1307TIP3    H2 3865   0.800   3.817   4.494
 1308TIP3   OH2 3866   6.822   4.111   0.724
 1308TIP3    H1 3867   6.832   4.066   0.641
 1308TIP3    H2 3868   6.842   4.203   0.704
 1309TIP3   OH2 3869   2.839   2.429   4.004
 1309TIP3    H1 3870   2.795   2.390   4.079
 1309TIP3    H2 3871   2.783   2.502   3.978
 1310TIP3   OH2 3872   3.088   6.272   1.250
 1310TIP3    H1 3873   3.051   6.355   1.220
 1310TIP3    H2 3874   3.018   6.208   1.239
 1311TIP3   OH2 3875   6.552   3.874   1.849
 1311TIP3    H1 3876   6.586   3.822   1.776
 1311TIP3    H2 3877   6.608   3.952   1.852
 1312TIP3   OH2 3878   4.678   2.426   6.685
 1312TIP3    H1 3879   4.727   2.453   6.609
 1312TIP3    H2 3880   4.675   2.330   6.679
 1313TIP3   OH2 3881   1.526   1.251   3.638
 1313TIP3    H1 3882   1.549   1.182   3.575
 1313TIP3    H2 3883   1.587   1.322   3.619
 1314TIP3   OH2 3884   8.151   3.132   0.216
 1314TIP3    H1 3885   8.241   3.163   0.212
 1314TIP3    H2 3886   8.124   3.122   0.125
 1315TIP3   OH2 3887   3.453   7.674   0.728
 1315TIP3    H1 3888   3.376   7.700   0.677
 1315TIP3    H2 3889   3.511   7.750   0.726
 1316TIP3   OH2 3890   1.146   6.802   0.368
 1316TIP3    H1 3891   1.072   6.811   0.429
 1316TIP3    H2 3892   1.222   6.824   0.421
 1317TIP3   OH2 3893   0.586   6.660   2.578
 1317TIP3    H1 3894   0.554   6.650   2.489
 1317TIP3    H2 3895   0.520   6.617   2.632
 1318TIP3   OH2 3896   1.186   3.637   4.636
 1318TIP3    H1 3897   1.128   3.662   4.708
 1318TIP3    H2 3898   1.258   3.700   4.641
 1319TIP3   OH2 3899   4.141   6.085   5.952
 1319TIP3    H1 3900   4.208   6.151   5.934
 1319TIP3    H2 3901   4.184   6.021   6.007
 1320TIP3   OH2 3902   8.281   2.522   0.524
 1320TIP3    H1 3903   8.294   2.437   0.565
 1320TIP3    H2 3904   8.295   2.585   0.595
 1321TIP3   OH2 3905   4.703   7.466   4.122
 1321TIP3    H1 3906   4.699   7.420   4.038
 1321TIP3    H2 3907   4.687   7.558   4.100
 1322TIP3   OH2 3908   6.936   3.366   3.142
 1322TIP3    H1 3909   6.992   3.378   3.219
 1322TIP3    H2 3910   6.995   3.376   3.067
 1323TIP3   OH2 3911   4.837   0.587   2.267
 1323TIP3    H1 3912   4.907   0.538   2.225
 1323TIP3    H2 3913   4.870   0.606   2.355
 1324TIP3   OH2 3914   1.715   7.050   0.010
 1324TIP3    H1 3915   1.737   7.053   0.104
 1324TIP3    H2 3916   1.775   7.113  -0.030
 1325TIP3   OH2 3917   4.346   6.241   0.519
 1325TIP3    H1 3918   4.256   6.228   0.488
 1325TIP3    H2 3919   4.344   6.212   0.610
 1326TIP3   OH2 3920   7.471   7.110   2.174
 1326TIP3    H1 3921   7.404   7.178   2.178
 1326TIP3    H2 3922   7.465   7.065   2.258
 1327TIP3   OH2 3923   6.269   3.920   0.174
 1327TIP3    H1 3924   6.290   3.960   0.090
 1327TIP3    H2 3925   6.189   3.870   0.158
 1328TIP3   OH2 3926   1.531   7.780   6.024
 1328TIP3    H1 3927   1.519   7.863   5.977
 1328TIP3    H2 3928   1.493   7.797   6.111
 1329TIP3   OH2 3929   4.913   7.064   2.059
 1329TIP3    H1 3930   4.954   7.067   2.145
 1329TIP3    H2 3931   4.982   7.032   2.001
 1330TIP3   OH2 3932   5.885   5.768   0.203
 1330TIP3    H1 3933   5.855   5.678   0.215
 1330TIP3    H2 3934   5.808   5.822   0.223
 1331TIP3   OH2 3935   5.667   0.112   4.933
 1331TIP3    H1 3936   5.688   0.152   5.018
 1331TIP3    H2 3937   5.742   0.133   4.878
 1332TIP3   OH2 3938   3.655   0.051   4.919
 1332TIP3    H1 3939   3.565   0.075   4.896
 1332TIP3    H2 3940   3.698   0.037   4.835
 1333TIP3   OH2 3941   7.150   4.366   1.120
 1333TIP3    H1 3942   7.231   4.416   1.104
 1333TIP3    H2 3943   7.088   4.402   1.057
 1334TIP3   OH2 3944   1.150   2.890   3.505
 1334TIP3    H1 3945   1.093   2.858   3.575
 1334TIP3    H2 3946   1.238   2.885   3.542
 1335TIP3   OH2 3947   5.672   3.658   4.785
 1335TIP3    H1 3948   5.668   3.632   4.877
 1335TIP3    H2 3949   5.594   3.711   4.771
 1336TIP3   OH2 3950   5.376   1.207   4.923
 1336TIP3    H1 3951   5.318   1.275   4.887
 1336TIP3    H2 3952   5.316   1.141   4.959
 1337TIP3   OH2 3953   3.703   7.243   6.713
 1337TIP3    H1 3954   3.750   7.230   6.795
 1337TIP3    H2 3955   3.610   7.235   6.738
 1338TIP3   OH2 3956   4.258   5.227   5.660
 1338TIP3    H1 3957   4.194   5.156   5.663
 1338TIP3    H2 3958   4.213   5.302   5.700
 1339TIP3   OH2 3959   1.697   0.947   5.232
 1339TIP3    H1 3960   1.711   1.017   5.168
 1339TIP3    H2 3961   1.607   0.959   5.262
 1340TIP3   OH2 3962   0.109   6.550   2.879
 1340TIP3    H1 3963   0.137   6.459   2.873
 1340TIP3    H2 3964   0.107   6.581   2.789
 1341TIP3   OH2 3965   4.545   3.384   5.984
 1341TIP3    H1 3966   4.561   3.311   5.925
 1341TIP3    H2 3967   4.584   3.357   6.067
 1342TIP3   OH2 3968   0.301   1.126   3.023
 1342TIP3    H1 3969   0.385   1.117   2.979
 1342TIP3    H2 3970   0.321   1.118   3.116
 1343TIP3   OH2 3971   4.105   1.048   6.452
 1343TIP3    H1 3972   4.093   1.020   6.361
 1343TIP3    H2 3973   4.126   0.967   6.500
 1344TIP3   OH2 3974   7.091   3.868   5.423
 1344TIP3    H1 3975   7.031   3.928   5.467
 1344TIP3    H2 3976   7.034   3.801   5.385
 1345TIP3   OH2 3977   6.288   4.209   0.189
 1345TIP3    H1 3978   6.378   4.239   0.176
 1345TIP3    H2 3979   6.293   4.114   0.182
 1346TIP3   OH2 3980   1.544   5.048   0.902
 1346TIP3    H1 3981   1.481   5.001   0.847
 1346TIP3    H2 3982   1.600   4.979   0.939
 1347TIP3   OH2 3983   0.723   7.125   6.220
 1347TIP3    H1 3984   0.681   7.170   6.146
 1347TIP3    H2 3985   0.814   7.116   6.193
 1348TIP3   OH2 3986   4.362   3.316   2.497
 1348TIP3    H1 3987   4.274   3.320   2.533
 1348TIP3    H2 3988   4.412   3.263   2.559
 1349TIP3   OH2 3989   1.405   4.090   2.285
 1349TIP3    H1 3990   1.469   4.108   2.217
 1349TIP3    H2 3991   1.361   4.010   2.256
 1350TIP3   OH2 3992   7.746   6.230   1.121
 1350TIP3    H1 3993   7.700   6.302   1.164
 1350TIP3    H2 3994   7.762   6.262   1.032
 1351TIP3   OH2 3995   3.096   5.266   4.169
 1351TIP3    H1 3996   3.033   5.333   4.194
 1351TIP3    H2 3997   3.044   5.201   4.121
 1352TIP3   OH2 3998   6.396   0.568   1.382
 1352TIP3    H1 3999   6.313   0.616   1.383
 1352TIP3    H2 4000   6.408   0.539   1.473
 1353TIP3   OH2 4001   6.118   1.622   1.605
 1353TIP3    H1 4002   6.053   1.589   1.666
 1353TIP3    H2 4003   6.142   1.708   1.640
 1354TIP3   OH2 4004   7.314   2.590   6.542
 1354TIP3    H1 4005   7.358   2.516   6.501
 1354TIP3    H2 4006   7.380   2.660   6.542
 1355TIP3   OH2 4007   7.053   4.863   5.181
 1355TIP3    H1 4008   6.970   4.884   5.225
 1355TIP3    H2 4009   7.054   4.767   5.178
 1356TIP3   OH2 4010   6.351   6.657   0.753
 1356TIP3    H1 4011   6.364   6.565   0.775
 1356TIP3    H2 4012   6.294   6.690   0.823
 1357TIP3   OH2 4013   8.056   2.797   6.606
 1357TIP3    H1 4014   8.076   2.726   6.546
 1357TIP3    H2 4015   8.142   2.822   6.642
 1358TIP3   OH2 4016   7.985   1.006   4.482
 1358TIP3    H1 4017   7.969   1.073   4.415
 1358TIP3    H2 4018   7.933   1.036   4.558
 1359TIP3   OH2 4019   7.243   5.493   4.886
 1359TIP3    H1 4020   7.230   5.519   4.977
 1359TIP3    H2 4021   7.287   5.408   4.891
 1360TIP3   OH2 4022   6.276   3.871   1.647
 1360TIP3    H1 4023   6.235   3.789   1.621
 1360TIP3    H2 4024   6.314   3.854   1.733
 1361TIP3   OH2 4025   3.173   3.867   3.345
 1361TIP3    H1 4026   3.151   3.791   3.290
 1361TIP3    H2 4027   3.142   3.842   3.433
 1362TIP3   OH2 4028   8.053   3.091   5.562
 1362TIP3    H1 4029   8.023   3.057   5.646
 1362TIP3    H2 4030   8.006   3.174   5.551
 1363TIP3   OH2 4031   4.936   5.363   4.293
 1363TIP3    H1 4032   4.851   5.367   4.335
 1363TIP3    H2 4033   4.923   5.406   4.209
 1364TIP3   OH2 4034   3.188   7.013   3.560
 1364TIP3    H1 4035   3.106   7.020   3.511
 1364TIP3    H2 4036   3.241   7.086   3.527
 1365TIP3   OH2 4037   5.475   0.743   3.156
 1365TIP3    H1 4038   5.386   0.732   3.189
 1365TIP3    H2 4039   5.488   0.838   3.153
 1366TIP3   OH2 4040   1.655   3.081   3.286
 1366TIP3    H1 4041   1.591   3.032   3.235
 1366TIP3    H2 4042   1.732   3.087   3.230
 1367TIP3   OH2 4043   1.988   0.340   3.596
 1367TIP3    H1 4044   1.908   0.324   3.545
 1367TIP3    H2 4045   2.011   0.431   3.577
 1368TIP3   OH2 4046   2.999   2.280   5.443
 1368TIP3    H1 4047   2.935   2.317   5.382
 1368TIP3    H2 4048   3.054   2.223   5.389
 1369TIP3   OH2 4049   0.913   0.963   5.024
 1369TIP3    H1 4050   0.952   0.878   5.045
 1369TIP3    H2 4051   0.962   0.993   4.947
 1370TIP3   OH2 4052   6.742   2.059   1.123
 1370TIP3    H1 4053   6.775   2.029   1.038
 1370TIP3    H2 4054   6.819   2.065   1.178
 1371TIP3   OH2 4055   0.463   6.523   3.375
 1371TIP3    H1 4056   0.519   6.505   3.451
 1371TIP3    H2 4057   0.383   6.473   3.391
 1372TIP3   OH2 4058   8.061   4.526   0.993
 1372TIP3    H1 4059   8.128   4.528   0.924
 1372TIP3    H2 4060   8.044   4.618   1.012
 1373TIP3   OH2 4061   6.329   7.130   3.659
 1373TIP3    H1 4062   6.289   7.104   3.742
 1373TIP3    H2 4063   6.259   7.118   3.594
 1374TIP3   OH2 4064   5.268   6.768   2.108
 1374TIP3    H1 4065   5.357   6.736   2.089
 1374TIP3    H2 4066   5.275   6.808   2.194
 1375TIP3   OH2 4067   6.968   1.032   5.641
 1375TIP3    H1 4068   6.957   1.035   5.546
 1375TIP3    H2 4069   6.901   0.970   5.671
 1376TIP3   OH2 4070   4.072   4.028   4.589
 1376TIP3    H1 4071   4.044   4.010   4.678
 1376TIP3    H2 4072   4.013   4.096   4.558
 1377TIP3   OH2 4073   6.173   2.500   0.054
 1377TIP3    H1 4074   6.154   2.474  -0.036
 1377TIP3    H2 4075   6.126   2.437   0.108
 1378TIP3   OH2 4076   7.174   1.687   4.322
 1378TIP3    H1 4077   7.091   1.664   4.279
 1378TIP3    H2 4078   7.241   1.646   4.267
 1379TIP3   OH2 4079   6.666   7.517   2.587
 1379TIP3    H1 4080   6.715   7.479   2.514
 1379TIP3    H2 4081   6.730   7.572   2.633
 1380TIP3   OH2 4082   5.399   0.120   1.506
 1380TIP3    H1 4083   5.373   0.053   1.569
 1380TIP3    H2 4084   5.358   0.200   1.537
 1381TIP3   OH2 4085   5.711   1.203   1.329
 1381TIP3    H1 4086   5.800   1.231   1.353
 1381TIP3    H2 4087   5.712   1.108   1.340
 1382TIP3   OH2 4088   3.338   5.040   2.052
 1382TIP3    H1 4089   3.243   5.026   2.057
 1382TIP3    H2 4090   3.349   5.096   1.975
 1383TIP3   OH2 4091   4.274   4.310   4.461
 1383TIP3    H1 4092   4.243   4.244   4.522
 1383TIP3    H2 4093   4.311   4.379   4.517
 1384TIP3   OH2 4094   1.815   7.027   0.289
 1384TIP3    H1 4095   1.901   6.990   0.305
 1384TIP3    H2 4096   1.812   7.105   0.344
 1385TIP3   OH2 4097   5.251   1.931   3.671
 1385TIP3    H1 4098   5.276   1.989   3.599
 1385TIP3    H2 4099   5.159   1.951   3.687
 1386TIP3   OH2 4100   1.663   3.240   0.731
 1386TIP3    H1 4101   1.686   3.319   0.682
 1386TIP3    H2 4102   1.746   3.198   0.751
 1387TIP3   OH2 4103   1.690   0.275   2.957
 1387TIP3    H1 4104   1.666   0.277   2.864
 1387TIP3    H2 4105   1.784   0.257   2.957
 1388TIP3   OH2 4106   5.192   4.346   3.268
 1388TIP3    H1 4107   5.253   4.391   3.209
 1388TIP3    H2 4108   5.248   4.304   3.333
 1389TIP3   OH2 4109   8.074   2.618   5.255
 1389TIP3    H1 4110   8.082   2.532   5.214
 1389TIP3    H2 4111   8.157   2.661   5.237
 1390TIP3   OH2 4112   4.419   2.952   2.193
 1390TIP3    H1 4113   4.373   3.028   2.230
 1390TIP3    H2 4114   4.351   2.905   2.145
 1391TIP3   OH2 4115   1.375   5.661   6.647
 1391TIP3    H1 4116   1.414   5.576   6.665
 1391TIP3    H2 4117   1.381   5.671   6.552
 1392TIP3   OH2 4118   2.831   7.745   6.065
 1392TIP3    H1 4119   2.861   7.836   6.061
 1392TIP3    H2 4120   2.801   7.734   6.155
 1393TIP3   OH2 4121   0.871   3.197   6.573
 1393TIP3    H1 4122   0.884   3.261   6.642
 1393TIP3    H2 4123   0.960   3.171   6.547
 1394TIP3   OH2 4124   0.197   7.679   4.397
 1394TIP3    H1 4125   0.243   7.631   4.465
 1394TIP3    H2 4126   0.207   7.625   4.319
 1395TIP3   OH2 4127   5.285   3.572   0.900
 1395TIP3    H1 4128   5.336   3.621   0.965
 1395TIP3    H2 4129   5.332   3.489   0.890
 1396TIP3   OH2 4130   4.292   4.189   1.072
 1396TIP3    H1 4131   4.261   4.160   1.158
 1396TIP3    H2 4132   4.338   4.112   1.037
 1397TIP3   OH2 4133   3.980   5.803   3.879
 1397TIP3    H1 4134   4.034   5.805   3.800
 1397TIP3    H2 4135   3.975   5.895   3.907
 1398TIP3   OH2 4136   3.702   1.731   4.406
 1398TIP3    H1 4137   3.759   1.790   4.357
 1398TIP3    H2 4138   3.759   1.694   4.474
 1399TIP3   OH2 4139   5.813   5.925   4.377
 1399TIP3    H1 4140   5.778   5.855   4.432
 1399TIP3    H2 4141   5.750   5.996   4.387
 1400TIP3   OH2 4142   7.749   2.016   3.566
 1400TIP3    H1 4143   7.768   2.107   3.586
 1400TIP3    H2 4144   7.669   1.997   3.617
 1401TIP3   OH2 4145   6.350   0.115   0.660
 1401TIP3    H1 4146   6.401   0.151   0.732
 1401TIP3    H2 4147   6.414   0.074   0.603
 1402TIP3   OH2 4148   5.586   5.734   0.987
 1402TIP3    H1 4149   5.514   5.704   0.932
 1402TIP3    H2 4150   5.600   5.663   1.050
 1403TIP3   OH2 4151   2.816   3.157   6.129
 1403TIP3    H1 4152   2.904   3.124   6.109
 1403TIP3    H2 4153   2.798   3.219   6.059
 1404TIP3   OH2 4154   6.628   5.943   0.911
 1404TIP3    H1 4155   6.580   5.980   0.836
 1404TIP3    H2 4156   6.716   5.927   0.877
 1405TIP3   OH2 4157   0.437   2.476   0.561
 1405TIP3    H1 4158   0.418   2.494   0.469
 1405TIP3    H2 4159   0.372   2.527   0.610
 1406TIP3   OH2 4160   2.831   7.792   0.198
 1406TIP3    H1 4161   2.795   7.780   0.285
 1406TIP3    H2 4162   2.835   7.887   0.186
 1407TIP3   OH2 4163   5.810   0.315   6.578
 1407TIP3    H1 4164   5.860   0.240   6.545
 1407TIP3    H2 4165   5.751   0.338   6.506
 1408TIP3   OH2 4166   6.073   6.785   3.911
 1408TIP3    H1 4167   6.032   6.840   3.978
 1408TIP3    H2 4168   6.129   6.725   3.960
 1409TIP3   OH2 4169   4.493   6.106   2.234
 1409TIP3    H1 4170   4.528   6.062   2.157
 1409TIP3    H2 4171   4.560   6.093   2.301
 1410TIP3   OH2 4172   7.743   2.598   6.272
 1410TIP3    H1 4173   7.803   2.579   6.344
 1410TIP3    H2 4174   7.789   2.568   6.193
 1411TIP3   OH2 4175   5.642   5.549   3.760
 1411TIP3    H1 4176   5.644   5.559   3.665
 1411TIP3    H2 4177   5.709   5.484   3.779
 1412TIP3   OH2 4178   2.202   2.924   6.334
 1412TIP3    H1 4179   2.276   2.913   6.394
 1412TIP3    H2 4180   2.141   2.855   6.358
 1413TIP3   OH2 4181   0.895   4.365   3.960
 1413TIP3    H1 4182   0.873   4.450   3.997
 1413TIP3    H2 4183   0.986   4.350   3.986
 1414TIP3   OH2 4184   2.904   2.553   5.375
 1414TIP3    H1 4185   2.996   2.569   5.398
 1414TIP3    H2 4186   2.899   2.570   5.281
 1415TIP3   OH2 4187   5.610   3.915   5.357
 1415TIP3    H1 4188   5.658   3.990   5.322
 1415TIP3    H2 4189   5.653   3.838   5.320
 1416TIP3   OH2 4190   0.223   7.370   2.711
 1416TIP3    H1 4191   0.191   7.283   2.685
 1416TIP3    H2 4192   0.145   7.417   2.739
 1417TIP3   OH2 4193   1.233   2.850   1.124
 1417TIP3    H1 4194   1.193   2.768   1.094
 1417TIP3    H2 4195   1.287   2.824   1.198
 1418TIP3   OH2 4196   0.850   2.300   2.695
 1418TIP3    H1 4197   0.791   2.374   2.684
 1418TIP3    H2 4198   0.878   2.305   2.787
 1419TIP3   OH2 4199   6.528   2.194   0.824
 1419TIP3    H1 4200   6.560   2.201   0.734
 1419TIP3    H2 4201   6.596   2.145   0.870
 1420TIP3   OH2 4202   6.363   4.659   3.625
 1420TIP3    H1 4203   6.436   4.629   3.571
 1420TIP3    H2 4204   6.345   4.747   3.592
 1421TIP3   OH2 4205   6.556   6.690   5.450
 1421TIP3    H1 4206   6.545   6.660   5.360
 1421TIP3    H2 4207   6.620   6.631   5.488
 1422TIP3   OH2 4208   4.794   0.674   1.731
 1422TIP3    H1 4209   4.776   0.588   1.693
 1422TIP3    H2 4210   4.708   0.715   1.739
 1423TIP3   OH2 4211   4.739   6.160   1.823
 1423TIP3    H1 4212   4.817   6.215   1.813
 1423TIP3    H2 4213   4.731   6.113   1.740
 1424TIP3   OH2 4214   1.110   2.870   6.696
 1424TIP3    H1 4215   1.100   2.961   6.670
 1424TIP3    H2 4216   1.030   2.827   6.667
 1425TIP3   OH2 4217   4.705   0.227   3.235
 1425TIP3    H1 4218   4.632   0.213   3.175
 1425TIP3    H2 4219   4.690   0.315   3.270
 1426TIP3   OH2 4220   5.335   0.491   1.851
 1426TIP3    H1 4221   5.362   0.453   1.935
 1426TIP3    H2 4222   5.241   0.506   1.860
 1427TIP3   OH2 4223   6.871   1.037   3.190
 1427TIP3    H1 4224   6.868   1.104   3.121
 1427TIP3    H2 4225   6.780   1.030   3.221
 1428TIP3   OH2 4226   7.484   3.622   0.043
 1428TIP3    H1 4227   7.561   3.598   0.095
 1428TIP3    H2 4228   7.486   3.718   0.041
 1429TIP3   OH2 4229   3.782   4.544   0.370
 1429TIP3    H1 4230   3.846   4.534   0.440
 1429TIP3    H2 4231   3.746   4.632   0.383
 1430TIP3   OH2 4232   0.973   2.086   3.494
 1430TIP3    H1 4233   1.046   2.024   3.490
 1430TIP3    H2 4234   0.987   2.135   3.575
 1431TIP3   OH2 4235   0.115   5.268   0.775
 1431TIP3    H1 4236   0.105   5.273   0.680
 1431TIP3    H2 4237   0.209   5.260   0.789
 1432TIP3   OH2 4238   2.289   5.103   4.086
 1432TIP3    H1 4239   2.312   5.050   4.010
 1432TIP3    H2 4240   2.338   5.184   4.075
 1433TIP3   OH2 4241   0.002   6.490   5.133
 1433TIP3    H1 4242   0.074   6.441   5.092
 1433TIP3    H2 4243  -0.007   6.450   5.220
 1434TIP3   OH2 4244   4.928   6.939   4.227
 1434TIP3    H1 4245   4.898   7.029   4.216
 1434TIP3    H2 4246   5.021   6.942   4.207
 1435TIP3   OH2 4247   3.688   0.484   5.091
 1435TIP3    H1 4248   3.697   0.551   5.159
 1435TIP3    H2 4249   3.593   0.477   5.077
 1436TIP3   OH2 4250   3.907   2.403   6.465
 1436TIP3    H1 4251   3.983   2.370   6.513
 1436TIP3    H2 4252   3.931   2.394   6.373
 1437TIP3   OH2 4253   6.273   2.419   4.026
 1437TIP3    H1 4254   6.200   2.481   4.020
 1437TIP3    H2 4255   6.333   2.459   4.088
 1438TIP3   OH2 4256   1.683   4.076   3.419
 1438TIP3    H1 4257   1.720   4.002   3.370
 1438TIP3    H2 4258   1.673   4.145   3.354
 1439TIP3   OH2 4259   8.301   3.274   2.679
 1439TIP3    H1 4260   8.271   3.276   2.588
 1439TIP3    H2 4261   8.241   3.333   2.725
 1440TIP3   OH2 4262   3.625   1.913   0.794
 1440TIP3    H1 4263   3.575   1.842   0.834
 1440TIP3    H2 4264   3.627   1.982   0.861
 1441TIP3   OH2 4265   0.155   5.895   5.605
 1441TIP3    H1 4266   0.211   5.962   5.645
 1441TIP3    H2 4267   0.144   5.925   5.515
 1442TIP3   OH2 4268   4.345   3.293   3.220
 1442TIP3    H1 4269   4.328   3.242   3.299
 1442TIP3    H2 4270   4.439   3.282   3.204
 1443TIP3   OH2 4271   6.725   7.520   6.288
 1443TIP3    H1 4272   6.797   7.499   6.347
 1443TIP3    H2 4273   6.747   7.605   6.251
 1444TIP3   OH2 4274   6.277   1.737   5.201
 1444TIP3    H1 4275   6.275   1.652   5.157
 1444TIP3    H2 4276   6.297   1.800   5.132
 1445TIP3   OH2 4277   7.739   4.608   5.085
 1445TIP3    H1 4278   7.819   4.559   5.063
 1445TIP3    H2 4279   7.771   4.693   5.117
 1446TIP3   OH2 4280   1.195   4.170   1.966
 1446TIP3    H1 4281   1.289   4.187   1.962
 1446TIP3    H2 4282   1.187   4.078   1.943
 1447TIP3   OH2 4283   2.818   1.018   3.215
 1447TIP3    H1 4284   2.840   1.092   3.160
 1447TIP3    H2 4285   2.792   1.057   3.299
 1448TIP3   OH2 4286   4.173   1.524   6.589
 1448TIP3    H1 4287   4.254   1.520   6.639
 1448TIP3    H2 4288   4.153   1.618   6.584
 1449TIP3   OH2 4289   1.624   2.128   0.350
 1449TIP3    H1 4290   1.557   2.168   0.407
 1449TIP3    H2 4291   1.578   2.108   0.269
 1450TIP3   OH2 4292   1.730   3.960   4.483
 1450TIP3    H1 4293   1.671   4.004   4.544
 1450TIP3    H2 4294   1.815   4.002   4.498
 1451TIP3   OH2 4295   4.250   4.204   0.464
 1451TIP3    H1 4296   4.251   4.280   0.406
 1451TIP3    H2 4297   4.324   4.151   0.435
 1452TIP3   OH2 4298   8.121   7.834   4.618
 1452TIP3    H1 4299   8.050   7.773   4.597
 1452TIP3    H2 4300   8.104   7.860   4.708
 1453TIP3   OH2 4301   2.004   6.232   0.363
 1453TIP3    H1 4302   2.038   6.211   0.450
 1453TIP3    H2 4303   2.053   6.176   0.304
 1454TIP3   OH2 4304   6.917   6.595   5.594
 1454TIP3    H1 4305   6.913   6.623   5.502
 1454TIP3    H2 4306   6.840   6.540   5.606
 1455TIP3   OH2 4307   7.034   1.615   0.739
 1455TIP3    H1 4308   7.093   1.666   0.684
 1455TIP3    H2 4309   7.079   1.609   0.823
 1456TIP3   OH2 4310   2.961   1.154   2.215
 1456TIP3    H1 4311   2.919   1.223   2.266
 1456TIP3    H2 4312   2.991   1.198   2.136
 1457TIP3   OH2 4313   1.109   3.676   4.098
 1457TIP3    H1 4314   1.112   3.689   4.193
 1457TIP3    H2 4315   1.029   3.719   4.070
 1458TIP3   OH2 4316   6.969   4.266   4.267
 1458TIP3    H1 4317   7.026   4.333   4.303
 1458TIP3    H2 4318   6.945   4.298   4.180
 1459TIP3   OH2 4319   2.537   4.548   5.193
 1459TIP3    H1 4320   2.498   4.535   5.279
 1459TIP3    H2 4321   2.626   4.514   5.201
 1460TIP3   OH2 4322   1.474   4.832   2.427
 1460TIP3    H1 4323   1.398   4.884   2.455
 1460TIP3    H2 4324   1.446   4.742   2.438
 1461TIP3   OH2 4325   4.718   4.042   1.151
 1461TIP3    H1 4326   4.644   4.089   1.188
 1461TIP3    H2 4327   4.738   3.973   1.215
 1462TIP3   OH2 4328   6.073   6.883   2.630
 1462TIP3    H1 4329   6.121   6.818   2.680
 1462TIP3    H2 4330   6.031   6.834   2.559
 1463TIP3   OH2 4331   4.631   4.836   6.622
 1463TIP3    H1 4332   4.635   4.874   6.710
 1463TIP3    H2 4333   4.553   4.875   6.582
 1464TIP3   OH2 4334   4.853   3.065   3.328
 1464TIP3    H1 4335   4.821   2.978   3.350
 1464TIP3    H2 4336   4.913   3.088   3.399
 1465TIP3   OH2 4337   5.381   0.639   5.054
 1465TIP3    H1 4338   5.314   0.575   5.080
 1465TIP3    H2 4339   5.381   0.637   4.959
 1466TIP3   OH2 4340   8.178   2.518   3.763
 1466TIP3    H1 4341   8.160   2.514   3.857
 1466TIP3    H2 4342   8.236   2.444   3.747
 1467TIP3   OH2 4343   7.538   1.635   2.638
 1467TIP3    H1 4344   7.457   1.606   2.595
 1467TIP3    H2 4345   7.534   1.594   2.724
 1468TIP3   OH2 4346   5.057   3.486   0.254
 1468TIP3    H1 4347   4.994   3.429   0.210
 1468TIP3    H2 4348   5.142   3.459   0.220
 1469TIP3   OH2 4349   5.624   0.380   6.756
 1469TIP3    H1 4350   5.614   0.326   6.834
 1469TIP3    H2 4351   5.704   0.349   6.715
 1470TIP3   OH2 4352   7.349   3.430   4.416
 1470TIP3    H1 4353   7.292   3.488   4.366
 1470TIP3    H2 4354   7.311   3.343   4.402
 1471TIP3   OH2 4355   5.909   1.604   0.787
 1471TIP3    H1 4356   5.836   1.546   0.766
 1471TIP3    H2 4357   5.928   1.586   0.880
 1472TIP3   OH2 4358   0.404   3.019   5.708
 1472TIP3    H1 4359   0.491   3.003   5.743
 1472TIP3    H2 4360   0.370   3.092   5.761
 1473TIP3   OH2 4361   5.107   6.049   0.258
 1473TIP3    H1 4362   5.181   6.005   0.301
 1473TIP3    H2 4363   5.089   6.125   0.313
 1474TIP3   OH2 4364   6.982   7.437   6.606
 1474TIP3    H1 4365   6.890   7.412   6.609
 1474TIP3    H2 4366   7.014   7.425   6.696
 1475TIP3   OH2 4367   4.511   1.012   5.785
 1475TIP3    H1 4368   4.535   1.023   5.693
 1475TIP3    H2 4369   4.467   1.094   5.808
 1476TIP3   OH2 4370   2.916   4.964   2.505
 1476TIP3    H1 4371   2.916   5.026   2.577
 1476TIP3    H2 4372   2.823   4.945   2.490
 1477TIP3   OH2 4373   4.319   0.625   4.863
 1477TIP3    H1 4374   4.384   0.581   4.919
 1477TIP3    H2 4375   4.247   0.645   4.923
 1478TIP3   OH2 4376   2.209   2.656   5.228
 1478TIP3    H1 4377   2.269   2.632   5.158
 1478TIP3    H2 4378   2.259   2.644   5.309
 1479TIP3   OH2 4379   0.386   5.636   0.818
 1479TIP3    H1 4380   0.462   5.583   0.793
 1479TIP3    H2 4381   0.424   5.718   0.849
 1480TIP3   OH2 4382   4.345   2.536   1.459
 1480TIP3    H1 4383   4.349   2.627   1.488
 1480TIP3    H2 4384   4.354   2.541   1.363
 1481TIP3   OH2 4385   6.618   3.315   5.564
 1481TIP3    H1 4386   6.544   3.254   5.564
 1481TIP3    H2 4387   6.643   3.324   5.472
 1482TIP3   OH2 4388   1.753   6.401   4.726
 1482TIP3    H1 4389   1.781   6.431   4.639
 1482TIP3    H2 4390   1.762   6.306   4.722
 1483TIP3   OH2 4391   0.482   2.340   4.538
 1483TIP3    H1 4392   0.541   2.324   4.464
 1483TIP3    H2 4393   0.492   2.433   4.558
 1484TIP3   OH2 4394   0.358   7.376   2.294
 1484TIP3    H1 4395   0.292   7.444   2.310
 1484TIP3    H2 4396   0.330   7.302   2.349
 1485TIP3   OH2 4397   0.294   0.065   6.656
 1485TIP3    H1 4398   0.359   0.099   6.718
 1485TIP3    H2 4399   0.294   0.128   6.584
 1486TIP3   OH2 4400   1.734   3.365   3.256
 1486TIP3    H1 4401   1.828   3.346   3.261
 1486TIP3    H2 4402   1.692   3.288   3.295
 1487TIP3   OH2 4403   0.760   0.983   6.620
 1487TIP3    H1 4404   0.685   1.028   6.581
 1487TIP3    H2 4405   0.721   0.921   6.681
 1488TIP3   OH2 4406   6.764   6.436   4.520
 1488TIP3    H1 4407   6.757   6.429   4.615
 1488TIP3    H2 4408   6.678   6.410   4.487
 1489TIP3   OH2 4409   7.139   2.934   2.343
 1489TIP3    H1 4410   7.220   2.964   2.385
 1489TIP3    H2 4411   7.163   2.850   2.303
 1490TIP3   OH2 4412   3.544   1.480   1.298
 1490TIP3    H1 4413   3.504   1.464   1.384
 1490TIP3    H2 4414   3.496   1.554   1.262
 1491TIP3   OH2 4415   6.866   6.787   1.005
 1491TIP3    H1 4416   6.818   6.768   0.925
 1491TIP3    H2 4417   6.908   6.704   1.028
 1492TIP3   OH2 4418   3.125   6.529   0.608
 1492TIP3    H1 4419   3.074   6.455   0.640
 1492TIP3    H2 4420   3.059   6.589   0.572
 1493TIP3   OH2 4421   6.177   3.050   5.890
 1493TIP3    H1 4422   6.172   3.089   5.977
 1493TIP3    H2 4423   6.114   3.100   5.837
 1494TIP3   OH2 4424   0.202   4.917   2.458
 1494TIP3    H1 4425   0.247   4.857   2.398
 1494TIP3    H2 4426   0.173   4.862   2.531
 1495TIP3   OH2 4427   1.211   7.000   0.159
 1495TIP3    H1 4428   1.151   7.026   0.230
 1495TIP3    H2 4429   1.209   7.074   0.099
 1496TIP3   OH2 4430   5.387   2.045   4.371
 1496TIP3    H1 4431   5.324   1.974   4.381
 1496TIP3    H2 4432   5.389   2.087   4.456
 1497TIP3   OH2 4433   0.110   3.919   2.252
 1497TIP3    H1 4434   0.131   4.012   2.252
 1497TIP3    H2 4435   0.100   3.896   2.160
 1498TIP3   OH2 4436   7.497   0.020   6.078
 1498TIP3    H1 4437   7.422   0.078   6.069
 1498TIP3    H2 4438   7.459  -0.062   6.110
 1499TIP3   OH2 4439   6.303   6.060   5.672
 1499TIP3    H1 4440   6.270   6.149   5.684
 1499TIP3    H2 4441   6.365   6.067   5.600
 1500TIP3   OH2 4442   6.505   5.913   6.510
 1500TIP3    H1 4443   6.472   5.874   6.591
 1500TIP3    H2 4444   6.432   5.909   6.450
 1501TIP3   OH2 4445   1.307   6.479   2.313
 1501TIP3    H1 4446   1.277   6.558   2.269
 1501TIP3    H2 4447   1.302   6.500   2.407
 1502TIP3   OH2 4448   0.914   2.024   1.678
 1502TIP3    H1 4449   0.856   1.952   1.652
 1502TIP3    H2 4450   1.002   1.990   1.665
 1503TIP3   OH2 4451   4.163   0.521   6.443
 1503TIP3    H1 4452   4.071   0.527   6.468
 1503TIP3    H2 4453   4.197   0.448   6.495
 1504TIP3   OH2 4454   4.351   7.207   0.505
 1504TIP3    H1 4455   4.373   7.159   0.585
 1504TIP3    H2 4456   4.260   7.184   0.488
 1505TIP3   OH2 4457   3.022   3.886   0.332
 1505TIP3    H1 4458   2.952   3.911   0.394
 1505TIP3    H2 4459   2.986   3.909   0.246
 1506TIP3   OH2 4460   1.837   6.349   1.310
 1506TIP3    H1 4461   1.843   6.417   1.243
 1506TIP3    H2 4462   1.860   6.268   1.264
 1507TIP3   OH2 4463   6.677   6.735   4.522
 1507TIP3    H1 4464   6.673   6.827   4.547
 1507TIP3    H2 4465   6.603   6.694   4.565
 1508TIP3   OH2 4466   3.161   2.083   3.563
 1508TIP3    H1 4467   3.200   2.007   3.606
 1508TIP3    H2 4468   3.235   2.131   3.526
 1509TIP3   OH2 4469   5.909   0.723   1.958
 1509TIP3    H1 4470   5.923   0.675   2.040
 1509TIP3    H2 4471   5.841   0.787   1.979
 1510TIP3   OH2 4472   3.304   3.772   6.684
 1510TIP3    H1 4473   3.294   3.677   6.690
 1510TIP3    H2 4474   3.217   3.807   6.701
 1511TIP3   OH2 4475   7.831   7.117   1.715
 1511TIP3    H1 4476   7.756   7.063   1.690
 1511TIP3    H2 4477   7.793   7.199   1.747
 1512TIP3   OH2 4478   7.697   5.940   5.808
 1512TIP3    H1 4479   7.714   5.846   5.806
 1512TIP3    H2 4480   7.661   5.956   5.895
 1513TIP3   OH2 4481   2.691   2.863   5.726
 1513TIP3    H1 4482   2.761   2.812   5.686
 1513TIP3    H2 4483   2.684   2.828   5.815
 1514TIP3   OH2 4484   0.248   2.770   5.888
 1514TIP3    H1 4485   0.261   2.729   5.973
 1514TIP3    H2 4486   0.256   2.864   5.905
 1515TIP3   OH2 4487   0.973   7.051   6.154
 1515TIP3    H1 4488   1.067   7.063   6.158
 1515TIP3    H2 4489   0.956   7.022   6.064
 1516TIP3   OH2 4490   1.007   6.551   3.729
 1516TIP3    H1 4491   1.057   6.568   3.649
 1516TIP3    H2 4492   0.976   6.461   3.721
 1517TIP3   OH2 4493   3.167   5.106   5.777
 1517TIP3    H1 4494   3.228   5.039   5.806
 1517TIP3    H2 4495   3.180   5.110   5.682
 1518TIP3   OH2 4496   3.229   0.305   1.604
 1518TIP3    H1 4497   3.275   0.221   1.611
 1518TIP3    H2 4498   3.256   0.354   1.682
 1519TIP3   OH2 4499   2.685   4.971   5.685
 1519TIP3    H1 4500   2.636   5.044   5.722
 1519TIP3    H2 4501   2.763   5.013   5.646
 1520TIP3   OH2 4502   0.070   7.303   4.880
 1520TIP3    H1 4503  -0.019   7.308   4.843
 1520TIP3    H2 4504   0.087   7.390   4.915
 1521TIP3   OH2 4505   6.396   2.175   2.380
 1521TIP3    H1 4506   6.490   2.174   2.395
 1521TIP3    H2 4507   6.382   2.248   2.320
 1522TIP3   OH2 4508   3.292   0.283   0.044
 1522TIP3    H1 4509   3.358   0.297  -0.024
 1522TIP3    H2 4510   3.343   0.253   0.120
 1523TIP3   OH2 4511   7.241   2.903   6.593
 1523TIP3    H1 4512   7.270   2.967   6.659
 1523TIP3    H2 4513   7.321   2.857   6.568
 1524TIP3   OH2 4514   5.737   1.370   5.700
 1524TIP3    H1 4515   5.728   1.306   5.630
 1524TIP3    H2 4516   5.786   1.442   5.661
 1525TIP3   OH2 4517   0.707   3.071   2.258
 1525TIP3    H1 4518   0.778   3.123   2.221
 1525TIP3    H2 4519   0.676   3.122   2.333
 1526TIP3   OH2 4520   3.234   1.157   3.354
 1526TIP3    H1 4521   3.274   1.209   3.285
 1526TIP3    H2 4522   3.146   1.195   3.364
 1527TIP3   OH2 4523   6.762   5.087   6.694
 1527TIP3    H1 4524   6.783   5.180   6.691
 1527TIP3    H2 4525   6.796   5.052   6.611
 1528TIP3   OH2 4526   1.915   0.550   5.430
 1528TIP3    H1 4527   1.959   0.521   5.510
 1528TIP3    H2 4528   1.836   0.594   5.460
 1529TIP3   OH2 4529   4.774   1.469   5.366
 1529TIP3    H1 4530   4.758   1.434   5.278
 1529TIP3    H2 4531   4.691   1.458   5.412
 1530TIP3   OH2 4532   2.400   0.348   2.176
 1530TIP3    H1 4533   2.485   0.387   2.155
 1530TIP3    H2 4534   2.398   0.266   2.125
 1531TIP3   OH2 4535   2.681   6.651   0.203
 1531TIP3    H1 4536   2.747   6.719   0.195
 1531TIP3    H2 4537   2.702   6.589   0.133
 1532TIP3   OH2 4538   5.155   6.136   4.004
 1532TIP3    H1 4539   5.236   6.162   4.046
 1532TIP3    H2 4540   5.112   6.079   4.068
 1533TIP3   OH2 4541   3.819   2.218   5.198
 1533TIP3    H1 4542   3.817   2.310   5.224
 1533TIP3    H2 4543   3.731   2.186   5.215
 1534TIP3   OH2 4544   1.406   0.312   3.534
 1534TIP3    H1 4545   1.322   0.271   3.556
 1534TIP3    H2 4546   1.468   0.239   3.530
 1535TIP3   OH2 4547   1.635   6.979   4.192
 1535TIP3    H1 4548   1.682   7.036   4.252
 1535TIP3    H2 4549   1.649   7.017   4.105
 1536TIP3   OH2 4550   2.269   2.947   4.000
 1536TIP3    H1 4551   2.230   2.905   3.923
 1536TIP3    H2 4552   2.206   3.015   4.024
 1537TIP3   OH2 4553   0.129   6.938   2.939
 1537TIP3    H1 4554   0.067   7.002   2.976
 1537TIP3    H2 4555   0.116   6.859   2.992
 1538TIP3   OH2 4556   4.255   2.466   1.195
 1538TIP3    H1 4557   4.226   2.503   1.111
 1538TIP3    H2 4558   4.269   2.373   1.177
 1539TIP3   OH2 4559   1.823   2.357   1.046
 1539TIP3    H1 4560   1.794   2.266   1.043
 1539TIP3    H2 4561   1.834   2.382   0.954
 1540TIP3   OH2 4562   0.869   5.082   0.466
 1540TIP3    H1 4563   0.874   5.073   0.370
 1540TIP3    H2 4564   0.951   5.126   0.490
 1541TIP3   OH2 4565   6.245   0.927   0.724
 1541TIP3    H1 4566   6.202   0.853   0.680
 1541TIP3    H2 4567   6.189   1.002   0.705
 1542TIP3   OH2 4568   2.898   2.110   5.040
 1542TIP3    H1 4569   2.934   2.033   4.996
 1542TIP3    H2 4570   2.820   2.132   4.989
 1543TIP3   OH2 4571   5.483   7.632   3.187
 1543TIP3    H1 4572   5.565   7.603   3.147
 1543TIP3    H2 4573   5.438   7.681   3.118
 1544TIP3   OH2 4574   1.932   6.204   2.307
 1544TIP3    H1 4575   1.959   6.174   2.220
 1544TIP3    H2 4576   1.912   6.123   2.354
 1545TIP3   OH2 4577   0.516   4.223   5.365
 1545TIP3    H1 4578   0.497   4.283   5.437
 1545TIP3    H2 4579   0.577   4.159   5.403
 1546TIP3   OH2 4580   4.260   6.732   0.700
 1546TIP3    H1 4581   4.315   6.664   0.738
 1546TIP3    H2 4582   4.321   6.804   0.680
 1547TIP3   OH2 4583   6.237   3.790   3.009
 1547TIP3    H1 4584   6.274   3.798   3.096
 1547TIP3    H2 4585   6.300   3.736   2.961
 1548TIP3   OH2 4586   0.409   4.885   2.064
 1548TIP3    H1 4587   0.336   4.884   2.001
 1548TIP3    H2 4588   0.398   4.966   2.113
 1549TIP3   OH2 4589   3.600   6.460   5.455
 1549TIP3    H1 4590   3.524   6.461   5.514
 1549TIP3    H2 4591   3.574   6.517   5.383
 1550TIP3   OH2 4592   4.318   3.610   6.266
 1550TIP3    H1 4593   4.292   3.519   6.281
 1550TIP3    H2 4594   4.337   3.645   6.353
 1551TIP3   OH2 4595   7.922   3.880   0.143
 1551TIP3    H1 4596   7.980   3.944   0.102
 1551TIP3    H2 4597   7.924   3.804   0.086
 1552TIP3   OH2 4598   1.252   1.283   6.372
 1552TIP3    H1 4599   1.344   1.274   6.398
 1552TIP3    H2 4600   1.228   1.195   6.342
 1553TIP3   OH2 4601   5.386   4.840   0.017
 1553TIP3    H1 4602   5.442   4.812   0.090
 1553TIP3    H2 4603   5.421   4.926  -0.008
 1554TIP3   OH2 4604   7.847   5.732   2.910
 1554TIP3    H1 4605   7.823   5.640   2.897
 1554TIP3    H2 4606   7.941   5.734   2.890
 1555TIP3   OH2 4607   3.531   7.187   5.647
 1555TIP3    H1 4608   3.563   7.097   5.655
 1555TIP3    H2 4609   3.506   7.212   5.736
 1556TIP3   OH2 4610   7.280   5.881   0.889
 1556TIP3    H1 4611   7.345   5.905   0.955
 1556TIP3    H2 4612   7.271   5.786   0.897
 1557TIP3   OH2 4613   2.986   1.998   0.612
 1557TIP3    H1 4614   3.052   1.933   0.587
 1557TIP3    H2 4615   2.974   2.052   0.534
 1558TIP3   OH2 4616   6.696   5.098   4.339
 1558TIP3    H1 4617   6.661   5.009   4.334
 1558TIP3    H2 4618   6.634   5.151   4.289
 1559TIP3   OH2 4619   1.575   4.985   1.319
 1559TIP3    H1 4620   1.552   4.927   1.246
 1559TIP3    H2 4621   1.574   4.928   1.395
 1560TIP3   OH2 4622   6.702   3.045   1.519
 1560TIP3    H1 4623   6.766   2.975   1.537
 1560TIP3    H2 4624   6.755   3.119   1.490
 1561TIP3   OH2 4625   7.246   6.175   3.488
 1561TIP3    H1 4626   7.294   6.096   3.511
 1561TIP3    H2 4627   7.244   6.227   3.569
 1562TIP3   OH2 4628   6.462   5.478   2.857
 1562TIP3    H1 4629   6.427   5.561   2.889
 1562TIP3    H2 4630   6.540   5.502   2.808
 1563TIP3   OH2 4631   0.322   6.132   6.547
 1563TIP3    H1 4632   0.284   6.211   6.509
 1563TIP3    H2 4633   0.336   6.074   6.473
 1564TIP3   OH2 4634   7.807   2.283   3.553
 1564TIP3    H1 4635   7.770   2.361   3.512
 1564TIP3    H2 4636   7.889   2.268   3.505
 1565TIP3   OH2 4637   7.343   0.436   0.868
 1565TIP3    H1 4638   7.308   0.457   0.955
 1565TIP3    H2 4639   7.289   0.488   0.808
 1566TIP3   OH2 4640   7.367   2.996   1.686
 1566TIP3    H1 4641   7.445   3.004   1.741
 1566TIP3    H2 4642   7.376   3.066   1.621
 1567TIP3   OH2 4643   2.852   7.776   4.051
 1567TIP3    H1 4644   2.865   7.681   4.056
 1567TIP3    H2 4645   2.885   7.809   4.135
 1568TIP3   OH2 4646   4.836   7.610   2.145
 1568TIP3    H1 4647   4.865   7.599   2.235
 1568TIP3    H2 4648   4.767   7.676   2.150
 1569TIP3   OH2 4649   1.117   5.213   6.755
 1569TIP3    H1 4650   1.022   5.216   6.750
 1569TIP3    H2 4651   1.145   5.304   6.745
 1570TIP3   OH2 4652   0.961   0.391   2.525
 1570TIP3    H1 4653   1.026   0.440   2.475
 1570TIP3    H2 4654   0.947   0.311   2.475
 1571TIP3   OH2 4655   2.744   3.903   4.032
 1571TIP3    H1 4656   2.830   3.941   4.046
 1571TIP3    H2 4657   2.720   3.929   3.943
 1572TIP3   OH2 4658   7.701   7.420   4.819
 1572TIP3    H1 4659   7.750   7.366   4.880
 1572TIP3    H2 4660   7.741   7.402   4.733
 1573TIP3   OH2 4661   5.077   6.574   2.056
 1573TIP3    H1 4662   5.135   6.613   2.122
 1573TIP3    H2 4663   4.996   6.626   2.063
 1574TIP3   OH2 4664   3.342   0.832   4.507
 1574TIP3    H1 4665   3.296   0.883   4.574
 1574TIP3    H2 4666   3.278   0.821   4.437
 1575TIP3   OH2 4667   4.981   3.022   3.586
 1575TIP3    H1 4668   4.957   2.932   3.608
 1575TIP3    H2 4669   5.062   3.038   3.635
 1576TIP3   OH2 4670   7.226   1.083   3.718
 1576TIP3    H1 4671   7.239   1.120   3.805
 1576TIP3    H2 4672   7.254   0.992   3.725
 1577TIP3   OH2 4673   3.793   0.210   0.210
 1577TIP3    H1 4674   3.843   0.219   0.129
 1577TIP3    H2 4675   3.825   0.281   0.266
 1578TIP3   OH2 4676   4.236   4.185   3.249
 1578TIP3    H1 4677   4.246   4.097   3.286
 1578TIP3    H2 4678   4.320   4.228   3.263
 1579TIP3   OH2 4679   5.055   0.802   4.021
 1579TIP3    H1 4680   4.961   0.807   4.040
 1579TIP3    H2 4681   5.096   0.796   4.107
 1580TIP3   OH2 4682   2.491   6.271   0.891
 1580TIP3    H1 4683   2.495   6.194   0.948
 1580TIP3    H2 4684   2.397   6.289   0.882
 1581TIP3   OH2 4685   7.947   6.669   3.478
 1581TIP3    H1 4686   7.921   6.627   3.396
 1581TIP3    H2 4687   7.889   6.630   3.545
 1582TIP3   OH2 4688   2.675   1.450   5.161
 1582TIP3    H1 4689   2.691   1.356   5.153
 1582TIP3    H2 4690   2.703   1.472   5.250
 1583TIP3   OH2 4691   2.944   5.655   3.020
 1583TIP3    H1 4692   2.869   5.638   3.077
 1583TIP3    H2 4693   2.904   5.687   2.939
 1584TIP3   OH2 4694   8.042   6.941   0.202
 1584TIP3    H1 4695   8.077   6.963   0.115
 1584TIP3    H2 4696   8.058   6.847   0.212
 1585TIP3   OH2 4697   4.488  -0.017   3.252
 1585TIP3    H1 4698   4.550  -0.036   3.181
 1585TIP3    H2 4699   4.448  -0.101   3.272
 1586TIP3   OH2 4700   5.689   4.940   4.575
 1586TIP3    H1 4701   5.708   5.034   4.565
 1586TIP3    H2 4702   5.774   4.897   4.564
 1587TIP3   OH2 4703   2.343   5.583   0.836
 1587TIP3    H1 4704   2.414   5.643   0.859
 1587TIP3    H2 4705   2.278   5.595   0.906
 1588TIP3   OH2 4706   0.417   1.213   4.242
 1588TIP3    H1 4707   0.447   1.183   4.328
 1588TIP3    H2 4708   0.457   1.152   4.180
 1589TIP3   OH2 4709   1.852   1.769   6.280
 1589TIP3    H1 4710   1.803   1.850   6.270
 1589TIP3    H2 4711   1.920   1.789   6.344
 1590TIP3   OH2 4712   5.282   7.576   4.456
 1590TIP3    H1 4713   5.218   7.565   4.526
 1590TIP3    H2 4714   5.328   7.657   4.477
 1591TIP3   OH2 4715   7.216   7.267   2.068
 1591TIP3    H1 4716   7.234   7.186   2.019
 1591TIP3    H2 4717   7.139   7.247   2.120
 1592TIP3   OH2 4718   2.044   0.649   2.960
 1592TIP3    H1 4719   1.963   0.611   2.927
 1592TIP3    H2 4720   2.052   0.614   3.049
 1593TIP3   OH2 4721   3.594   1.639   4.070
 1593TIP3    H1 4722   3.554   1.596   4.146
 1593TIP3    H2 4723   3.680   1.598   4.062
 1594TIP3   OH2 4724   4.938   0.267   2.039
 1594TIP3    H1 4725   4.902   0.184   2.071
 1594TIP3    H2 4726   4.999   0.242   1.970
 1595TIP3   OH2 4727   1.990   1.090   1.402
 1595TIP3    H1 4728   2.032   1.067   1.485
 1595TIP3    H2 4729   2.006   1.184   1.393
 1596TIP3   OH2 4730   6.921   1.563   2.486
 1596TIP3    H1 4731   6.951   1.654   2.488
 1596TIP3    H2 4732   6.873   1.552   2.568
 1597TIP3   OH2 4733   4.637   7.157   1.600
 1597TIP3    H1 4734   4.731   7.152   1.619
 1597TIP3    H2 4735   4.626   7.239   1.552
 1598TIP3   OH2 4736   0.451   1.416   5.964
 1598TIP3    H1 4737   0.443   1.507   5.993
 1598TIP3    H2 4738   0.445   1.420   5.869
 1599TIP3   OH2 4739   0.412   0.869   2.940
 1599TIP3    H1 4740   0.398   0.903   3.028
 1599TIP3    H2 4741   0.508   0.865   2.931
 1600TIP3   OH2 4742   4.151   3.255   5.853
 1600TIP3    H1 4743   4.157   3.345   5.822
 1600TIP3    H2 4744   4.136   3.263   5.947
 1601TIP3   OH2 4745   1.891   1.304   2.819
 1601TIP3    H1 4746   1.811   1.329   2.866
 1601TIP3    H2 4747   1.885   1.208   2.812
 1602TIP3   OH2 4748   7.954   0.535   6.515
 1602TIP3    H1 4749   7.935   0.580   6.598
 1602TIP3    H2 4750   8.035   0.487   6.533
 1603TIP3   OH2 4751   4.295   0.495   1.431
 1603TIP3    H1 4752   4.240   0.438   1.484
 1603TIP3    H2 4753   4.381   0.492   1.473
 1604TIP3   OH2 4754   7.783   1.902   5.436
 1604TIP3    H1 4755   7.830   1.905   5.353
 1604TIP3    H2 4756   7.695   1.932   5.415
 1605TIP3   OH2 4757   3.921   2.748   4.233
 1605TIP3    H1 4758   3.888   2.836   4.214
 1605TIP3    H2 4759   3.885   2.727   4.319
 1606TIP3   OH2 4760   2.068   2.140   6.534
 1606TIP3    H1 4761   2.131   2.207   6.507
 1606TIP3    H2 4762   2.092   2.120   6.624
 1607TIP3   OH2 4763   1.060   1.642   5.824
 1607TIP3    H1 4764   1.111   1.562   5.811
 1607TIP3    H2 4765   1.072   1.664   5.916
 1608TIP3   OH2 4766   5.729   6.725   5.977
 1608TIP3    H1 4767   5.750   6.661   6.045
 1608TIP3    H2 4768   5.669   6.786   6.020
 1609TIP3   OH2 4769   6.651   7.241   4.162
 1609TIP3    H1 4770   6.644   7.336   4.169
 1609TIP3    H2 4771   6.695   7.214   4.243
 1610TIP3   OH2 4772   8.200   5.302   1.758
 1610TIP3    H1 4773   8.249   5.293   1.839
 1610TIP3    H2 4774   8.154   5.219   1.748
 1611TIP3   OH2 4775   7.441   4.958   4.619
 1611TIP3    H1 4776   7.442   4.927   4.528
 1611TIP3    H2 4777   7.468   4.883   4.671
 1612TIP3   OH2 4778   0.695   1.715   1.940
 1612TIP3    H1 4779   0.709   1.787   1.878
 1612TIP3    H2 4780   0.617   1.670   1.908
 1613TIP3   OH2 4781   1.108   3.362   4.587
 1613TIP3    H1 4782   1.122   3.451   4.620
 1613TIP3    H2 4783   1.183   3.345   4.531
 1614TIP3   OH2 4784   5.825   0.177   3.625
 1614TIP3    H1 4785   5.739   0.169   3.585
 1614TIP3    H2 4786   5.806   0.195   3.717
 1615TIP3   OH2 4787   5.443   0.769   1.815
 1615TIP3    H1 4788   5.426   0.678   1.838
 1615TIP3    H2 4789   5.493   0.804   1.889
 1616TIP3   OH2 4790   5.704   6.501   4.717
 1616TIP3    H1 4791   5.635   6.493   4.783
 1616TIP3    H2 4792   5.750   6.416   4.721
 1617TIP3   OH2 4793   1.762   3.344   0.078
 1617TIP3    H1 4794   1.767   3.327  -0.016
 1617TIP3    H2 4795   1.709   3.424   0.085
 1618TIP3   OH2 4796   3.757   7.393   0.712
 1618TIP3    H1 4797   3.800   7.476   0.691
 1618TIP3    H2 4798   3.703   7.375   0.635
 1619TIP3   OH2 4799   2.538   1.897   1.953
 1619TIP3    H1 4800   2.578   1.971   1.907
 1619TIP3    H2 4801   2.543   1.825   1.891
 1620TIP3   OH2 4802   0.970   0.739   2.757
 1620TIP3    H1 4803   1.046   0.713   2.704
 1620TIP3    H2 4804   0.971   0.834   2.754
 1621TIP3   OH2 4805   4.629   1.861   1.235
 1621TIP3    H1 4806   4.576   1.933   1.269
 1621TIP3    H2 4807   4.704   1.903   1.193
 1622TIP3   OH2 4808   7.351   6.787   0.046
 1622TIP3    H1 4809   7.369   6.876   0.014
 1622TIP3    H2 4810   7.438   6.747   0.053
 1623TIP3   OH2 4811   0.116   2.908   3.382
 1623TIP3    H1 4812   0.038   2.937   3.335
 1623TIP3    H2 4813   0.081   2.871   3.463
 1624TIP3   OH2 4814   6.555   3.658   0.118
 1624TIP3    H1 4815   6.545   3.663   0.213
 1624TIP3    H2 4816   6.639   3.699   0.100
 1625TIP3   OH2 4817   1.622   4.759   1.532
 1625TIP3    H1 4818   1.586   4.713   1.456
 1625TIP3    H2 4819   1.716   4.762   1.515
 1626TIP3   OH2 4820   6.992   2.278   5.428
 1626TIP3    H1 4821   7.063   2.297   5.489
 1626TIP3    H2 4822   6.916   2.264   5.485
 1627TIP3   OH2 4823   4.476   6.662   2.992
 1627TIP3    H1 4824   4.422   6.594   2.952
 1627TIP3    H2 4825   4.417   6.706   3.054
 1628TIP3   OH2 4826   1.429   6.383   0.921
 1628TIP3    H1 4827   1.381   6.304   0.899
 1628TIP3    H2 4828   1.372   6.430   0.982
 1629TIP3   OH2 4829   7.529   2.990   5.414
 1629TIP3    H1 4830   7.453   3.039   5.382
 1629TIP3    H2 4831   7.495   2.903   5.433
 1630TIP3   OH2 4832   0.552   7.466   0.055
 1630TIP3    H1 4833   0.605   7.546   0.051
 1630TIP3    H2 4834   0.563   7.435   0.145
 1631TIP3   OH2 4835   7.927   0.871   3.025
 1631TIP3    H1 4836   7.997   0.823   2.980
 1631TIP3    H2 4837   7.896   0.810   3.092
 1632TIP3   OH2 4838   4.208   2.943   4.574
 1632TIP3    H1 4839   4.233   2.947   4.666
 1632TIP3    H2 4840   4.207   2.849   4.553
 1633TIP3   OH2 4841   6.552   2.587   2.318
 1633TIP3    H1 4842   6.635   2.634   2.327
 1633TIP3    H2 4843   6.492   2.632   2.377
 1634TIP3   OH2 4844   7.984   4.500   4.416
 1634TIP3    H1 4845   8.009   4.576   4.364
 1634TIP3    H2 4846   8.037   4.506   4.496
 1635TIP3   OH2 4847   7.897   1.377   1.516
 1635TIP3    H1 4848   7.843   1.443   1.560
 1635TIP3    H2 4849   7.833   1.318   1.476
 1636TIP3   OH2 4850   5.868   4.403   2.597
 1636TIP3    H1 4851   5.872   4.427   2.505
 1636TIP3    H2 4852   5.775   4.409   2.620
 1637TIP3   OH2 4853   7.229   4.973   3.021
 1637TIP3    H1 4854   7.177   4.954   2.942
 1637TIP3    H2 4855   7.279   5.051   2.998
 1638TIP3   OH2 4856   7.665   0.594   5.260
 1638TIP3    H1 4857   7.732   0.534   5.291
 1638TIP3    H2 4858   7.699   0.627   5.177
 1639TIP3   OH2 4859   7.076   0.573   1.244
 1639TIP3    H1 4860   7.020   0.638   1.203
 1639TIP3    H2 4861   7.072   0.593   1.338
 1640TIP3   OH2 4862   0.845   4.176   2.257
 1640TIP3    H1 4863   0.919   4.147   2.310
 1640TIP3    H2 4864   0.874   4.258   2.218
 1641TIP3   OH2 4865   0.448   7.084   0.303
 1641TIP3    H1 4866   0.419   6.994   0.291
 1641TIP3    H2 4867   0.405   7.133   0.233
 1642TIP3   OH2 4868   7.211   7.823   1.843
 1642TIP3    H1 4869   7.116   7.829   1.856
 1642TIP3    H2 4870   7.222   7.751   1.781
 1643TIP3   OH2 4871   0.656   2.312   6.637
 1643TIP3    H1 4872   0.566   2.341   6.622
 1643TIP3    H2 4873   0.667   2.234   6.583
 1644TIP3   OH2 4874   0.527   0.955   1.233
 1644TIP3    H1 4875   0.552   0.917   1.148
 1644TIP3    H2 4876   0.457   1.016   1.211
 1645TIP3   OH2 4877   4.217   3.933   6.744
 1645TIP3    H1 4878   4.134   3.978   6.725
 1645TIP3    H2 4879   4.277   3.963   6.677
 1646TIP3   OH2 4880   7.099   2.984   4.458
 1646TIP3    H1 4881   7.127   3.048   4.524
 1646TIP3    H2 4882   7.006   3.001   4.446
 1647TIP3   OH2 4883   5.826   1.423   3.104
 1647TIP3    H1 4884   5.740   1.391   3.078
 1647TIP3    H2 4885   5.887   1.355   3.074
 1648TIP3   OH2 4886   0.876   4.924   1.227
 1648TIP3    H1 4887   0.831   4.908   1.310
 1648TIP3    H2 4888   0.806   4.930   1.162
 1649TIP3   OH2 4889   5.281   0.679   2.379
 1649TIP3    H1 4890   5.290   0.771   2.405
 1649TIP3    H2 4891   5.270   0.632   2.461
 1650TIP3   OH2 4892   4.445   0.316   3.073
 1650TIP3    H1 4893   4.433   0.411   3.081
 1650TIP3    H2 4894   4.374   0.279   3.125
 1651TIP3   OH2 4895   1.276   3.133   6.396
 1651TIP3    H1 4896   1.351   3.103   6.448
 1651TIP3    H2 4897   1.308   3.130   6.305
 1652TIP3   OH2 4898   8.038   7.118   6.434
 1652TIP3    H1 4899   7.968   7.053   6.423
 1652TIP3    H2 4900   8.098   7.077   6.496
 1653TIP3   OH2 4901   1.599   4.772   5.736
 1653TIP3    H1 4902   1.544   4.829   5.681
 1653TIP3    H2 4903   1.583   4.802   5.825
 1654TIP3   OH2 4904   0.193   2.207   5.204
 1654TIP3    H1 4905   0.266   2.237   5.150
 1654TIP3    H2 4906   0.119   2.262   5.178
 1655TIP3   OH2 4907   4.730   3.807   1.317
 1655TIP3    H1 4908   4.776   3.739   1.366
 1655TIP3    H2 4909   4.648   3.819   1.364
 1656TIP3   OH2 4910   2.661   0.938   4.094
 1656TIP3    H1 4911   2.641   0.873   4.027
 1656TIP3    H2 4912   2.605   1.013   4.072
 1657TIP3   OH2 4913   7.250   4.292   1.747
 1657TIP3    H1 4914   7.292   4.364   1.795
 1657TIP3    H2 4915   7.237   4.224   1.813
 1658TIP3   OH2 4916   7.938   5.639   0.904
 1658TIP3    H1 4917   8.005   5.657   0.969
 1658TIP3    H2 4918   7.980   5.580   0.842
 1659TIP3   OH2 4919   6.811   2.545   6.085
 1659TIP3    H1 4920   6.874   2.535   6.156
 1659TIP3    H2 4921   6.735   2.585   6.126
 1660TIP3   OH2 4922   0.987   7.381   3.173
 1660TIP3    H1 4923   1.030   7.460   3.140
 1660TIP3    H2 4924   0.997   7.317   3.103
 1661TIP3   OH2 4925   8.219   3.968   2.672
 1661TIP3    H1 4926   8.205   3.937   2.583
 1661TIP3    H2 4927   8.247   3.890   2.720
 1662TIP3   OH2 4928   0.804   7.626   2.988
 1662TIP3    H1 4929   0.801   7.542   2.943
 1662TIP3    H2 4930   0.874   7.674   2.945
 1663TIP3   OH2 4931   4.694   1.233   1.515
 1663TIP3    H1 4932   4.692   1.288   1.437
 1663TIP3    H2 4933   4.628   1.165   1.498
 1664TIP3   OH2 4934   1.836   7.598   1.739
 1664TIP3    H1 4935   1.815   7.588   1.832
 1664TIP3    H2 4936   1.796   7.521   1.698
 1665TIP3   OH2 4937   4.143   6.466   6.546
 1665TIP3    H1 4938   4.231   6.504   6.536
 1665TIP3    H2 4939   4.085   6.541   6.552
 1666TIP3   OH2 4940   3.850   2.547   3.696
 1666TIP3    H1 4941   3.856   2.639   3.719
 1666TIP3    H2 4942   3.812   2.505   3.773
 1667TIP3   OH2 4943   1.366   3.851   1.379
 1667TIP3    H1 4944   1.428   3.805   1.322
 1667TIP3    H2 4945   1.303   3.783   1.405
 1668TIP3   OH2 4946   3.502   2.665   3.182
 1668TIP3    H1 4947   3.454   2.609   3.243
 1668TIP3    H2 4948   3.433   2.705   3.128
 1669TIP3   OH2 4949   0.462   2.994   4.338
 1669TIP3    H1 4950   0.510   3.031   4.265
 1669TIP3    H2 4951   0.380   2.962   4.300
 1670TIP3   OH2 4952   1.299   1.147   3.346
 1670TIP3    H1 4953   1.210   1.167   3.317
 1670TIP3    H2 4954   1.345   1.231   3.341
 1671TIP3   OH2 4955   1.849   3.625   2.483
 1671TIP3    H1 4956   1.870   3.717   2.498
 1671TIP3    H2 4957   1.891   3.578   2.556
 1672TIP3   OH2 4958   1.540   1.352   3.321
 1672TIP3    H1 4959   1.574   1.436   3.290
 1672TIP3    H2 4960   1.605   1.322   3.384
 1673TIP3   OH2 4961   6.741   5.516   1.400
 1673TIP3    H1 4962   6.698   5.541   1.481
 1673TIP3    H2 4963   6.797   5.591   1.378
 1674TIP3   OH2 4964   8.110   4.775   6.519
 1674TIP3    H1 4965   8.190   4.725   6.531
 1674TIP3    H2 4966   8.045   4.711   6.490
 1675TIP3   OH2 4967   4.719   5.172   2.404
 1675TIP3    H1 4968   4.775   5.097   2.424
 1675TIP3    H2 4969   4.691   5.158   2.314
 1676TIP3   OH2 4970   5.625   5.510   2.140
 1676TIP3    H1 4971   5.619   5.575   2.210
 1676TIP3    H2 4972   5.595   5.428   2.180
 1677TIP3   OH2 4973   5.207   1.880   6.391
 1677TIP3    H1 4974   5.223   1.824   6.315
 1677TIP3    H2 4975   5.234   1.826   6.466
 1678TIP3   OH2 4976   2.880   0.635   3.978
 1678TIP3    H1 4977   2.958   0.665   3.932
 1678TIP3    H2 4978   2.900   0.647   4.071
 1679TIP3   OH2 4979   2.145   5.476   5.901
 1679TIP3    H1 4980   2.186   5.557   5.932
 1679TIP3    H2 4981   2.053   5.486   5.923
 1680TIP3   OH2 4982   7.343   0.339   4.314
 1680TIP3    H1 4983   7.421   0.305   4.358
 1680TIP3    H2 4984   7.270   0.298   4.360
 1681TIP3   OH2 4985   5.893   0.762   0.652
 1681TIP3    H1 4986   5.976   0.719   0.672
 1681TIP3    H2 4987   5.919   0.842   0.605
 1682TIP3   OH2 4988   6.131   3.184   6.516
 1682TIP3    H1 4989   6.094   3.269   6.542
 1682TIP3    H2 4990   6.213   3.178   6.565
 1683TIP3   OH2 4991   5.992   7.312   0.403
 1683TIP3    H1 4992   6.082   7.329   0.374
 1683TIP3    H2 4993   5.964   7.236   0.352
 1684TIP3   OH2 4994   2.727   7.501   6.569
 1684TIP3    H1 4995   2.736   7.410   6.597
 1684TIP3    H2 4996   2.753   7.552   6.646
 1685TIP3   OH2 4997   1.141   7.700   0.386
 1685TIP3    H1 4998   1.132   7.782   0.435
 1685TIP3    H2 4999   1.229   7.669   0.409
 1686TIP3   OH2 5000   6.155   6.287   2.479
 1686TIP3    H1 5001   6.096   6.321   2.411
 1686TIP3    H2 5002   6.115   6.205   2.506
 1687TIP3   OH2 5003   1.684   2.951   6.216
 1687TIP3    H1 5004   1.733   2.986   6.290
 1687TIP3    H2 5005   1.683   2.856   6.230
 1688TIP3   OH2 5006   5.879   0.499   6.149
 1688TIP3    H1 5007   5.926   0.580   6.131
 1688TIP3    H2 5008   5.892   0.483   6.242
 1689TIP3   OH2 5009   4.092   4.613   2.086
 1689TIP3    H1 5010   4.169   4.555   2.081
 1689TIP3    H2 5011   4.033   4.579   2.019
 1690TIP3   OH2 5012   5.488   6.940   6.059
 1690TIP3    H1 5013   5.443   6.899   6.133
 1690TIP3    H2 5014   5.560   6.988   6.099
 1691TIP3   OH2 5015   6.251   1.471   6.177
 1691TIP3    H1 5016   6.228   1.445   6.266
 1691TIP3    H2 5017   6.346   1.455   6.171
 1692TIP3   OH2 5018   7.292   2.493   0.869
 1692TIP3    H1 5019   7.256   2.410   0.840
 1692TIP3    H2 5020   7.272   2.497   0.963
 1693TIP3   OH2 5021   4.259   0.043   4.361
 1693TIP3    H1 5022   4.322  -0.001   4.419
 1693TIP3    H2 5023   4.297   0.130   4.347
 1694TIP3   OH2 5024   8.030   7.560   4.038
 1694TIP3    H1 5025   7.948   7.593   4.077
 1694TIP3    H2 5026   8.093   7.630   4.053
 1695TIP3   OH2 5027   5.236   4.029   0.346
 1695TIP3    H1 5028   5.244   4.082   0.425
 1695TIP3    H2 5029   5.154   3.982   0.356
 1696TIP3   OH2 5030   0.634   1.787   0.956
 1696TIP3    H1 5031   0.601   1.700   0.935
 1696TIP3    H2 5032   0.667   1.821   0.873
 1697TIP3   OH2 5033   6.449   1.564   1.225
 1697TIP3    H1 5034   6.440   1.582   1.318
 1697TIP3    H2 5035   6.365   1.526   1.199
 1698TIP3   OH2 5036   0.835   4.735   2.087
 1698TIP3    H1 5037   0.844   4.829   2.100
 1698TIP3    H2 5038   0.744   4.723   2.058
 1699TIP3   OH2 5039   0.177   0.706   2.949
 1699TIP3    H1 5040   0.194   0.625   2.902
 1699TIP3    H2 5041   0.240   0.768   2.912
 1700TIP3   OH2 5042   2.856   2.563   6.255
 1700TIP3    H1 5043   2.852   2.659   6.251
 1700TIP3    H2 5044   2.839   2.535   6.165
 1701TIP3   OH2 5045   6.698   6.732   3.850
 1701TIP3    H1 5046   6.660   6.646   3.832
 1701TIP3    H2 5047   6.778   6.735   3.797
 1702TIP3   OH2 5048   6.564   2.321   3.610
 1702TIP3    H1 5049   6.539   2.326   3.518
 1702TIP3    H2 5050   6.481   2.316   3.657
 1703TIP3   OH2 5051   6.030   3.884   6.259
 1703TIP3    H1 5052   6.024   3.811   6.321
 1703TIP3    H2 5053   6.011   3.961   6.312
 1704TIP3   OH2 5054   8.022   0.684   2.796
 1704TIP3    H1 5055   8.077   0.689   2.718
 1704TIP3    H2 5056   7.937   0.719   2.767
 1705TIP3   OH2 5057   1.676   6.179   2.131
 1705TIP3    H1 5058   1.653   6.194   2.040
 1705TIP3    H2 5059   1.594   6.152   2.173
 1706TIP3   OH2 5060   7.004   2.646   0.024
 1706TIP3    H1 5061   7.078   2.641   0.085
 1706TIP3    H2 5062   6.930   2.671   0.078
 1707TIP3   OH2 5063   4.269   0.139   1.523
 1707TIP3    H1 5064   4.329   0.144   1.448
 1707TIP3    H2 5065   4.323   0.107   1.595
 1708TIP3   OH2 5066   7.258   1.623   5.284
 1708TIP3    H1 5067   7.181   1.622   5.341
 1708TIP3    H2 5068   7.242   1.693   5.221
 1709TIP3   OH2 5069   7.901   1.558   3.075
 1709TIP3    H1 5070   7.956   1.634   3.057
 1709TIP3    H2 5071   7.861   1.577   3.160
 1710TIP3   OH2 5072   6.539   5.739   1.096
 1710TIP3    H1 5073   6.547   5.805   1.028
 1710TIP3    H2 5074   6.621   5.689   1.091
 1711TIP3   OH2 5075   0.491   0.277   1.429
 1711TIP3    H1 5076   0.573   0.308   1.392
 1711TIP3    H2 5077   0.512   0.194   1.470
 1712TIP3   OH2 5078   1.179   3.240   3.019
 1712TIP3    H1 5079   1.187   3.154   2.978
 1712TIP3    H2 5080   1.188   3.302   2.946
 1713TIP3   OH2 5081   4.710   2.691   2.316
 1713TIP3    H1 5082   4.656   2.692   2.237
 1713TIP3    H2 5083   4.691   2.606   2.356
 1714TIP3   OH2 5084   3.248   4.464   4.818
 1714TIP3    H1 5085   3.194   4.528   4.863
 1714TIP3    H2 5086   3.279   4.405   4.886
 1715TIP3   OH2 5087   4.897   3.090   1.380
 1715TIP3    H1 5088   4.888   3.160   1.445
 1715TIP3    H2 5089   4.989   3.065   1.385
 1716TIP3   OH2 5090   3.873   7.350   1.372
 1716TIP3    H1 5091   3.906   7.410   1.440
 1716TIP3    H2 5092   3.910   7.265   1.394
 1717TIP3   OH2 5093   0.278   1.399   3.222
 1717TIP3    H1 5094   0.292   1.442   3.137
 1717TIP3    H2 5095   0.256   1.471   3.281
 1718TIP3   OH2 5096   6.821   1.466   3.106
 1718TIP3    H1 5097   6.776   1.458   3.190
 1718TIP3    H2 5098   6.778   1.541   3.063
 1719TIP3   OH2 5099   2.037   1.144   1.916
 1719TIP3    H1 5100   2.109   1.107   1.968
 1719TIP3    H2 5101   1.974   1.072   1.908
 1720TIP3   OH2 5102   1.912   4.490   6.797
 1720TIP3    H1 5103   1.956   4.522   6.719
 1720TIP3    H2 5104   1.866   4.411   6.769
 1721TIP3   OH2 5105   4.681   0.474   3.377
 1721TIP3    H1 5106   4.739   0.549   3.390
 1721TIP3    H2 5107   4.600   0.499   3.421
 1722TIP3   OH2 5108   0.391   5.101   3.140
 1722TIP3    H1 5109   0.480   5.134   3.131
 1722TIP3    H2 5110   0.401   5.017   3.186
 1723TIP3   OH2 5111   2.128   7.161   0.121
 1723TIP3    H1 5112   2.220   7.136   0.126
 1723TIP3    H2 5113   2.111   7.208   0.203
 1724TIP3   OH2 5114   7.686   4.809   3.809
 1724TIP3    H1 5115   7.698   4.788   3.716
 1724TIP3    H2 5116   7.772   4.835   3.839
 1725TIP3   OH2 5117   3.244  -0.009   4.211
 1725TIP3    H1 5118   3.299   0.066   4.233
 1725TIP3    H2 5119   3.252  -0.068   4.286
 1726TIP3   OH2 5120   5.751   1.304   4.606
 1726TIP3    H1 5121   5.812   1.332   4.539
 1726TIP3    H2 5122   5.749   1.209   4.598
 1727TIP3   OH2 5123   5.973   2.569   2.596
 1727TIP3    H1 5124   5.938   2.520   2.522
 1727TIP3    H2 5125   5.911   2.642   2.608
 1728TIP3   OH2 5126   5.692   3.023   3.421
 1728TIP3    H1 5127   5.606   2.984   3.434
 1728TIP3    H2 5128   5.673   3.114   3.396
 1729TIP3   OH2 5129   2.094   5.061   1.665
 1729TIP3    H1 5130   2.069   5.063   1.758
 1729TIP3    H2 5131   2.189   5.060   1.666
 1730TIP3   OH2 5132   7.080   6.646   3.367
 1730TIP3    H1 5133   7.000   6.699   3.364
 1730TIP3    H2 5134   7.128   6.671   3.287
 1731TIP3   OH2 5135   0.649   5.499   2.947
 1731TIP3    H1 5136   0.695   5.474   3.027
 1731TIP3    H2 5137   0.688   5.583   2.921
 1732TIP3   OH2 5138   6.146   6.799   2.070
 1732TIP3    H1 5139   6.241   6.792   2.059
 1732TIP3    H2 5140   6.121   6.717   2.112
 1733TIP3   OH2 5141   4.159   0.096   4.699
 1733TIP3    H1 5142   4.146   0.129   4.610
 1733TIP3    H2 5143   4.075   0.057   4.722
 1734TIP3   OH2 5144   0.591   3.446   5.563
 1734TIP3    H1 5145   0.610   3.482   5.476
 1734TIP3    H2 5146   0.574   3.353   5.548
 1735TIP3   OH2 5147   6.740   3.452   2.225
 1735TIP3    H1 5148   6.673   3.493   2.280
 1735TIP3    H2 5149   6.697   3.375   2.189
 1736TIP3   OH2 5150   6.647   6.515   2.356
 1736TIP3    H1 5151   6.584   6.443   2.361
 1736TIP3    H2 5152   6.730   6.476   2.385
 1737TIP3   OH2 5153   3.169   4.137   1.716
 1737TIP3    H1 5154   3.203   4.061   1.763
 1737TIP3    H2 5155   3.190   4.212   1.772
 1738TIP3   OH2 5156   4.197   7.292   3.644
 1738TIP3    H1 5157   4.290   7.291   3.665
 1738TIP3    H2 5158   4.194   7.316   3.552
 1739TIP3   OH2 5159   4.171   1.153   4.284
 1739TIP3    H1 5160   4.161   1.079   4.345
 1739TIP3    H2 5161   4.258   1.140   4.246
 1740TIP3   OH2 5162   1.200   3.631   2.268
 1740TIP3    H1 5163   1.256   3.565   2.226
 1740TIP3    H2 5164   1.111   3.600   2.251
 1741TIP3   OH2 5165   3.632   6.280   2.400
 1741TIP3    H1 5166   3.674   6.270   2.315
 1741TIP3    H2 5167   3.684   6.226   2.459
 1742TIP3   OH2 5168   5.983   4.289   0.110
 1742TIP3    H1 5169   6.044   4.232   0.157
 1742TIP3    H2 5170   5.985   4.257   0.020
 1743TIP3   OH2 5171   4.792   4.086   3.399
 1743TIP3    H1 5172   4.841   4.005   3.416
 1743TIP3    H2 5173   4.817   4.110   3.310
 1744TIP3   OH2 5174   2.235   0.278   2.383
 1744TIP3    H1 5175   2.280   0.320   2.309
 1744TIP3    H2 5176   2.266   0.326   2.459
 1745TIP3   OH2 5177   6.794   6.362   3.203
 1745TIP3    H1 5178   6.782   6.406   3.119
 1745TIP3    H2 5179   6.718   6.387   3.255
 1746TIP3   OH2 5180   0.755   0.049   4.682
 1746TIP3    H1 5181   0.814  -0.015   4.722
 1746TIP3    H2 5182   0.804   0.131   4.685
 1747TIP3   OH2 5183   1.847   1.048   2.828
 1747TIP3    H1 5184   1.766   1.054   2.777
 1747TIP3    H2 5185   1.885   0.964   2.804
 1748TIP3   OH2 5186   6.541   0.058   4.116
 1748TIP3    H1 5187   6.570  -0.002   4.048
 1748TIP3    H2 5188   6.594   0.035   4.192
 1749TIP3   OH2 5189   6.370   1.928   1.997
 1749TIP3    H1 5190   6.436   1.997   2.002
 1749TIP3    H2 5191   6.420   1.847   2.004
 1750TIP3   OH2 5192   5.197   6.698   0.051
 1750TIP3    H1 5193   5.136   6.771   0.039
 1750TIP3    H2 5194   5.141   6.624   0.076
 1751TIP3   OH2 5195   1.977   3.241   6.473
 1751TIP3    H1 5196   1.896   3.289   6.489
 1751TIP3    H2 5197   2.044   3.293   6.518
 1752TIP3   OH2 5198   5.333   1.787   4.091
 1752TIP3    H1 5199   5.372   1.759   4.008
 1752TIP3    H2 5200   5.347   1.714   4.151
 1753TIP3   OH2 5201   2.509   6.510   3.268
 1753TIP3    H1 5202   2.536   6.519   3.176
 1753TIP3    H2 5203   2.442   6.577   3.279
 1754TIP3   OH2 5204   4.648   1.097   4.709
 1754TIP3    H1 5205   4.728   1.137   4.743
 1754TIP3    H2 5206   4.619   1.038   4.779
 1755TIP3   OH2 5207   0.310   6.798   3.946
 1755TIP3    H1 5208   0.308   6.893   3.958
 1755TIP3    H2 5209   0.258   6.783   3.867
 1756TIP3   OH2 5210   7.076   6.915   0.926
 1756TIP3    H1 5211   7.127   6.834   0.914
 1756TIP3    H2 5212   7.007   6.891   0.988
 1757TIP3   OH2 5213   3.037   0.336   6.091
 1757TIP3    H1 5214   3.007   0.281   6.019
 1757TIP3    H2 5215   3.077   0.275   6.153
 1758TIP3   OH2 5216   4.469   0.159   3.457
 1758TIP3    H1 5217   4.479   0.125   3.368
 1758TIP3    H2 5218   4.559   0.175   3.487
 1759TIP3   OH2 5219   2.572   6.593   1.408
 1759TIP3    H1 5220   2.664   6.615   1.425
 1759TIP3    H2 5221   2.526   6.624   1.486
 1760TIP3   OH2 5222   6.981   6.984   3.055
 1760TIP3    H1 5223   7.019   6.940   2.979
 1760TIP3    H2 5224   7.027   7.067   3.060
 1761TIP3   OH2 5225   0.061   6.230  -0.024
 1761TIP3    H1 5226   0.043   6.212   0.068
 1761TIP3    H2 5227   0.147   6.271  -0.024
 1762TIP3   OH2 5228   1.345   4.509   4.321
 1762TIP3    H1 5229   1.369   4.443   4.255
 1762TIP3    H2 5230   1.427   4.527   4.367
 1763TIP3   OH2 5231   5.397   5.127   1.544
 1763TIP3    H1 5232   5.437   5.205   1.584
 1763TIP3    H2 5233   5.425   5.054   1.599
 1764TIP3   OH2 5234   5.084   6.836   1.885
 1764TIP3    H1 5235   5.157   6.806   1.939
 1764TIP3    H2 5236   5.034   6.757   1.865
 1765TIP3   OH2 5237   6.710   1.075   5.459
 1765TIP3    H1 5238   6.728   1.133   5.385
 1765TIP3    H2 5239   6.721   0.987   5.423
 1766TIP3   OH2 5240   5.109   5.848   2.976
 1766TIP3    H1 5241   5.200   5.863   3.001
 1766TIP3    H2 5242   5.059   5.913   3.025
 1767TIP3   OH2 5243   6.200   0.184   4.847
 1767TIP3    H1 5244   6.206   0.132   4.927
 1767TIP3    H2 5245   6.262   0.143   4.787
 1768TIP3   OH2 5246   0.454   7.749   5.122
 1768TIP3    H1 5247   0.420   7.762   5.210
 1768TIP3    H2 5248   0.465   7.654   5.113
 1769TIP3   OH2 5249   8.244   7.077   6.598
 1769TIP3    H1 5250   8.335   7.070   6.570
 1769TIP3    H2 5251   8.248   7.117   6.685
 1770TIP3   OH2 5252   3.495   3.189   0.640
 1770TIP3    H1 5253   3.466   3.231   0.559
 1770TIP3    H2 5254   3.548   3.256   0.683
 1771TIP3   OH2 5255   3.122   4.313   5.175
 1771TIP3    H1 5256   3.160   4.399   5.154
 1771TIP3    H2 5257   3.035   4.316   5.136
 1772TIP3   OH2 5258   1.696   1.040   6.155
 1772TIP3    H1 5259   1.753   1.023   6.230
 1772TIP3    H2 5260   1.718   1.129   6.127
 1773TIP3   OH2 5261   3.434   7.283   0.942
 1773TIP3    H1 5262   3.520   7.247   0.920
 1773TIP3    H2 5263   3.407   7.235   1.020
 1774TIP3   OH2 5264   6.258   3.536   6.171
 1774TIP3    H1 5265   6.321   3.487   6.119
 1774TIP3    H2 5266   6.259   3.624   6.133
 1775TIP3   OH2 5267   7.129   1.100   3.334
 1775TIP3    H1 5268   7.037   1.075   3.327
 1775TIP3    H2 5269   7.148   1.145   3.251
 1776TIP3   OH2 5270   6.880   2.768   1.901
 1776TIP3    H1 5271   6.971   2.787   1.926
 1776TIP3    H2 5272   6.828   2.812   1.968
 1777TIP3   OH2 5273   2.507   0.377   5.996
 1777TIP3    H1 5274   2.482   0.286   6.011
 1777TIP3    H2 5275   2.513   0.415   6.083
 1778TIP3   OH2 5276   5.693   4.799   1.094
 1778TIP3    H1 5277   5.756   4.851   1.144
 1778TIP3    H2 5278   5.719   4.708   1.108
 1779TIP3   OH2 5279   4.713  -0.032   1.098
 1779TIP3    H1 5280   4.736   0.001   1.011
 1779TIP3    H2 5281   4.775  -0.103   1.113
 1780TIP3   OH2 5282   1.413   4.845   4.521
 1780TIP3    H1 5283   1.408   4.786   4.596
 1780TIP3    H2 5284   1.399   4.932   4.558
 1781TIP3   OH2 5285   2.477   3.942   4.078
 1781TIP3    H1 5286   2.444   3.892   4.153
 1781TIP3    H2 5287   2.570   3.921   4.074
 1782TIP3   OH2 5288   6.283   6.888   6.505
 1782TIP3    H1 5289   6.244   6.810   6.546
 1782TIP3    H2 5290   6.352   6.853   6.449
 1783TIP3   OH2 5291   7.941   4.482   3.475
 1783TIP3    H1 5292   8.008   4.540   3.509
 1783TIP3    H2 5293   7.858   4.521   3.503
 1784TIP3   OH2 5294   3.081   2.773   3.525
 1784TIP3    H1 5295   3.172   2.757   3.551
 1784TIP3    H2 5296   3.044   2.824   3.597
 1785TIP3   OH2 5297   5.372   2.347   3.675
 1785TIP3    H1 5298   5.404   2.259   3.692
 1785TIP3    H2 5299   5.330   2.373   3.757
 1786TIP3   OH2 5300   5.097   0.755   2.153
 1786TIP3    H1 5301   5.156   0.778   2.224
 1786TIP3    H2 5302   5.085   0.661   2.160
 1787TIP3   OH2 5303   2.538   6.998   0.981
 1787TIP3    H1 5304   2.517   6.947   0.903
 1787TIP3    H2 5305   2.552   6.932   1.049
 1788TIP3   OH2 5306   1.948   3.953   2.222
 1788TIP3    H1 5307   2.030   4.001   2.214
 1788TIP3    H2 5308   1.906   3.990   2.299
 1789TIP3   OH2 5309   3.658   0.935  -0.027
 1789TIP3    H1 5310   3.702   0.875   0.033
 1789TIP3    H2 5311   3.565   0.917  -0.014
 1790TIP3   OH2 5312   3.678   3.758   3.679
 1790TIP3    H1 5313   3.632   3.842   3.670
 1790TIP3    H2 5314   3.770   3.780   3.667
 1791TIP3   OH2 5315   6.904   3.750   5.257
 1791TIP3    H1 5316   6.845   3.822   5.278
 1791TIP3    H2 5317   6.845   3.675   5.242
 1792TIP3   OH2 5318   5.548   0.261   2.979
 1792TIP3    H1 5319   5.508   0.336   3.023
 1792TIP3    H2 5320   5.522   0.185   3.032
 1793TIP3   OH2 5321   0.541   2.517   2.174
 1793TIP3    H1 5322   0.450   2.499   2.152
 1793TIP3    H2 5323   0.560   2.602   2.134
 1794TIP3   OH2 5324   2.049   1.017   4.538
 1794TIP3    H1 5325   2.133   0.988   4.502
 1794TIP3    H2 5326   2.044   1.110   4.513
 1795TIP3   OH2 5327   5.612   3.147   3.095
 1795TIP3    H1 5328   5.551   3.075   3.078
 1795TIP3    H2 5329   5.619   3.151   3.190
 1796TIP3   OH2 5330   0.688   4.419   4.470
 1796TIP3    H1 5331   0.765   4.369   4.494
 1796TIP3    H2 5332   0.723   4.499   4.430
 1797TIP3   OH2 5333   4.931   7.066   0.991
 1797TIP3    H1 5334   4.861   7.096   0.934
 1797TIP3    H2 5335   5.007   7.056   0.934
 1798TIP3   OH2 5336   7.907   4.194   6.147
 1798TIP3    H1 5337   7.964   4.155   6.082
 1798TIP3    H2 5338   7.820   4.190   6.109
 1799TIP3   OH2 5339   1.158   7.587   3.636
 1799TIP3    H1 5340   1.100   7.549   3.569
 1799TIP3    H2 5341   1.238   7.533   3.631
 1800TIP3   OH2 5342   6.460   3.216   6.543
 1800TIP3    H1 5343   6.537   3.197   6.597
 1800TIP3    H2 5344   6.448   3.311   6.551
 1801TIP3   OH2 5345   1.445   6.202   3.256
 1801TIP3    H1 5346   1.365   6.182   3.207
 1801TIP3    H2 5347   1.494   6.261   3.198
 1802TIP3   OH2 5348   2.876   2.672   1.392
 1802TIP3    H1 5349   2.784   2.648   1.404
 1802TIP3    H2 5350   2.904   2.699   1.480
 1803TIP3   OH2 5351   6.028   2.435   6.404
 1803TIP3    H1 5352   5.996   2.521   6.377
 1803TIP3    H2 5353   5.949   2.382   6.415
 1804TIP3   OH2 5354   5.445   5.568   4.376
 1804TIP3    H1 5355   5.527   5.518   4.382
 1804TIP3    H2 5356   5.379   5.503   4.352
 1805TIP3   OH2 5357   1.813   4.231   2.380
 1805TIP3    H1 5358   1.893   4.283   2.370
 1805TIP3    H2 5359   1.796   4.229   2.474
 1806TIP3   OH2 5360   7.064   5.795   0.519
 1806TIP3    H1 5361   7.135   5.858   0.529
 1806TIP3    H2 5362   7.043   5.768   0.608
 1807TIP3   OH2 5363   7.212   5.173   1.700
 1807TIP3    H1 5364   7.259   5.125   1.632
 1807TIP3    H2 5365   7.126   5.132   1.704
 1808TIP3   OH2 5366   2.174   0.843   3.132
 1808TIP3    H1 5367   2.155   0.758   3.092
 1808TIP3    H2 5368   2.164   0.905   3.060
 1809TIP3   OH2 5369   3.088   5.546   2.010
 1809TIP3    H1 5370   3.021   5.612   1.994
 1809TIP3    H2 5371   3.091   5.538   2.106
 1810TIP3   OH2 5372   1.128   5.664   0.345
 1810TIP3    H1 5373   1.051   5.688   0.294
 1810TIP3    H2 5374   1.147   5.574   0.318
 1811TIP3   OH2 5375   6.515   0.418   2.555
 1811TIP3    H1 5376   6.501   0.501   2.510
 1811TIP3    H2 5377   6.445   0.362   2.523
 1812TIP3   OH2 5378   2.308   1.648   4.144
 1812TIP3    H1 5379   2.223   1.606   4.155
 1812TIP3    H2 5380   2.369   1.575   4.128
 1813TIP3   OH2 5381   4.778   3.412   2.830
 1813TIP3    H1 5382   4.810   3.431   2.918
 1813TIP3    H2 5383   4.740   3.495   2.799
 1814TIP3   OH2 5384   4.374   4.323   5.431
 1814TIP3    H1 5385   4.397   4.414   5.410
 1814TIP3    H2 5386   4.407   4.310   5.519
 1815TIP3   OH2 5387   1.461   6.012   5.760
 1815TIP3    H1 5388   1.487   6.087   5.707
 1815TIP3    H2 5389   1.413   5.955   5.700
 1816TIP3   OH2 5390   4.554   7.368   1.400
 1816TIP3    H1 5391   4.545   7.463   1.401
 1816TIP3    H2 5392   4.614   7.350   1.327
 1817TIP3   OH2 5393   2.305   7.235   3.477
 1817TIP3    H1 5394   2.296   7.324   3.513
 1817TIP3    H2 5395   2.306   7.178   3.554
 1818TIP3   OH2 5396   6.029   0.861   4.721
 1818TIP3    H1 5397   6.091   0.934   4.728
 1818TIP3    H2 5398   5.983   0.877   4.638
 1819TIP3   OH2 5399   0.257   0.139   4.577
 1819TIP3    H1 5400   0.249   0.221   4.626
 1819TIP3    H2 5401   0.351   0.132   4.558
 1820TIP3   OH2 5402   7.466   1.928   3.079
 1820TIP3    H1 5403   7.481   1.834   3.086
 1820TIP3    H2 5404   7.532   1.967   3.135
 1821TIP3   OH2 5405   3.832   1.791   6.209
 1821TIP3    H1 5406   3.883   1.768   6.130
 1821TIP3    H2 5407   3.795   1.707   6.238
 1822TIP3   OH2 5408   4.112   7.017   4.804
 1822TIP3    H1 5409   4.207   7.013   4.816
 1822TIP3    H2 5410   4.077   7.019   4.894
 1823TIP3   OH2 5411   2.935   1.992   2.254
 1823TIP3    H1 5412   3.025   2.007   2.283
 1823TIP3    H2 5413   2.942   1.919   2.191
 1824TIP3   OH2 5414   5.778   4.633   5.136
 1824TIP3    H1 5415   5.763   4.539   5.130
 1824TIP3    H2 5416   5.717   4.663   5.203
 1825TIP3   OH2 5417   0.613   6.928   2.003
 1825TIP3    H1 5418   0.590   6.949   1.913
 1825TIP3    H2 5419   0.597   6.834   2.010
 1826TIP3   OH2 5420   2.259   6.339   1.927
 1826TIP3    H1 5421   2.219   6.382   1.851
 1826TIP3    H2 5422   2.206   6.369   2.001
 1827TIP3   OH2 5423   7.177   2.124   3.728
 1827TIP3    H1 5424   7.238   2.196   3.712
 1827TIP3    H2 5425   7.205   2.055   3.668
 1828TIP3   OH2 5426   1.790   2.865   2.289
 1828TIP3    H1 5427   1.768   2.801   2.221
 1828TIP3    H2 5428   1.726   2.849   2.358
 1829TIP3   OH2 5429   6.357   0.469   0.661
 1829TIP3    H1 5430   6.430   0.512   0.617
 1829TIP3    H2 5431   6.399   0.406   0.720
 1830TIP3   OH2 5432   0.839   4.646   3.970
 1830TIP3    H1 5433   0.785   4.629   3.892
 1830TIP3    H2 5434   0.871   4.735   3.958
 1831TIP3   OH2 5435   6.403   6.712   1.951
 1831TIP3    H1 5436   6.367   6.647   1.891
 1831TIP3    H2 5437   6.467   6.761   1.898
 1832TIP3   OH2 5438   1.359   3.015   0.943
 1832TIP3    H1 5439   1.323   3.103   0.953
 1832TIP3    H2 5440   1.302   2.960   0.996
 1833TIP3   OH2 5441   6.659   7.596   3.009
 1833TIP3    H1 5442   6.623   7.535   2.945
 1833TIP3    H2 5443   6.754   7.591   2.996
 1834TIP3   OH2 5444   1.493   6.039   5.063
 1834TIP3    H1 5445   1.533   6.096   4.998
 1834TIP3    H2 5446   1.452   5.969   5.012
 1835TIP3   OH2 5447   5.516   1.060   2.852
 1835TIP3    H1 5448   5.577   1.127   2.820
 1835TIP3    H2 5449   5.529   1.059   2.947
 1836TIP3   OH2 5450   0.204   6.448   0.302
 1836TIP3    H1 5451   0.148   6.507   0.354
 1836TIP3    H2 5452   0.148   6.372   0.285
 1837TIP3   OH2 5453   1.631   3.685   4.114
 1837TIP3    H1 5454   1.557   3.666   4.171
 1837TIP3    H2 5455   1.650   3.777   4.129
 1838TIP3   OH2 5456   5.114   7.438   5.242
 1838TIP3    H1 5457   5.147   7.380   5.173
 1838TIP3    H2 5458   5.193   7.469   5.287
 1839TIP3   OH2 5459   4.283   4.654   0.739
 1839TIP3    H1 5460   4.211   4.683   0.684
 1839TIP3    H2 5461   4.355   4.637   0.678
 1840TIP3   OH2 5462   6.618   3.909   3.781
 1840TIP3    H1 5463   6.652   3.878   3.865
 1840TIP3    H2 5464   6.527   3.880   3.780
 1841TIP3   OH2 5465   0.348   0.257   3.377
 1841TIP3    H1 5466   0.412   0.305   3.325
 1841TIP3    H2 5467   0.300   0.325   3.424
 1842TIP3   OH2 5468   2.896   3.863   4.434
 1842TIP3    H1 5469   2.902   3.770   4.459
 1842TIP3    H2 5470   2.803   3.884   4.440
 1843TIP3   OH2 5471   4.251   0.766   2.045
 1843TIP3    H1 5472   4.278   0.769   2.137
 1843TIP3    H2 5473   4.307   0.831   2.002
 1844TIP3   OH2 5474   6.093   2.933   6.701
 1844TIP3    H1 5475   6.169   2.969   6.747
 1844TIP3    H2 5476   6.030   3.005   6.700
 1845TIP3   OH2 5477   6.305   6.295   6.460
 1845TIP3    H1 5478   6.320   6.377   6.415
 1845TIP3    H2 5479   6.388   6.247   6.452
 1846TIP3   OH2 5480   4.187   3.899   5.900
 1846TIP3    H1 5481   4.152   3.842   5.968
 1846TIP3    H2 5482   4.278   3.870   5.888
 1847TIP3   OH2 5483   1.173   4.050   5.520
 1847TIP3    H1 5484   1.183   4.051   5.616
 1847TIP3    H2 5485   1.262   4.066   5.487
 1848TIP3   OH2 5486   0.058   5.046   5.421
 1848TIP3    H1 5487   0.061   5.094   5.504
 1848TIP3    H2 5488   0.022   4.960   5.444
 1849TIP3   OH2 5489   5.392   5.376   1.011
 1849TIP3    H1 5490   5.316   5.320   0.997
 1849TIP3    H2 5491   5.416   5.361   1.103
 1850TIP3   OH2 5492   3.939   0.289   4.737
 1850TIP3    H1 5493   3.849   0.308   4.709
 1850TIP3    H2 5494   3.952   0.342   4.816
 1851TIP3   OH2 5495   5.397   0.563   4.785
 1851TIP3    H1 5496   5.393   0.487   4.728
 1851TIP3    H2 5497   5.467   0.617   4.749
 1852TIP3   OH2 5498   4.781   7.572   0.180
 1852TIP3    H1 5499   4.726   7.620   0.241
 1852TIP3    H2 5500   4.771   7.619   0.097
 1853TIP3   OH2 5501   7.820   3.237   1.663
 1853TIP3    H1 5502   7.792   3.280   1.583
 1853TIP3    H2 5503   7.755   3.168   1.678
 1854TIP3   OH2 5504   5.690   5.436   1.709
 1854TIP3    H1 5505   5.687   5.344   1.735
 1854TIP3    H2 5506   5.617   5.477   1.756
 1855TIP3   OH2 5507   0.258   4.302   2.737
 1855TIP3    H1 5508   0.251   4.392   2.771
 1855TIP3    H2 5509   0.285   4.250   2.813
 1856TIP3   OH2 5510   3.791   3.992   2.551
 1856TIP3    H1 5511   3.873   3.947   2.570
 1856TIP3    H2 5512   3.724   3.936   2.589
 1857TIP3   OH2 5513   2.496   7.579   6.242
 1857TIP3    H1 5514   2.575   7.536   6.275
 1857TIP3    H2 5515   2.528   7.643   6.178
 1858TIP3   OH2 5516   7.847   4.158   0.627
 1858TIP3    H1 5517   7.776   4.223   0.629
 1858TIP3    H2 5518   7.906   4.184   0.698
 1859TIP3   OH2 5519   2.982   0.471   5.064
 1859TIP3    H1 5520   2.960   0.381   5.088
 1859TIP3    H2 5521   3.039   0.462   4.988
 1860TIP3   OH2 5522   5.260   1.927   0.331
 1860TIP3    H1 5523   5.317   1.939   0.255
 1860TIP3    H2 5524   5.194   1.864   0.302
 1861TIP3   OH2 5525   1.246   4.607   5.101
 1861TIP3    H1 5526   1.284   4.553   5.032
 1861TIP3    H2 5527   1.253   4.553   5.180
 1862TIP3   OH2 5528   3.965   7.545   5.585
 1862TIP3    H1 5529   3.998   7.622   5.632
 1862TIP3    H2 5530   3.877   7.530   5.620
 1863TIP3   OH2 5531   7.575   2.495   5.194
 1863TIP3    H1 5532   7.480   2.503   5.200
 1863TIP3    H2 5533   7.591   2.401   5.192
 1864TIP3   OH2 5534   3.039   1.638   5.808
 1864TIP3    H1 5535   3.100   1.681   5.747
 1864TIP3    H2 5536   3.005   1.563   5.759
 1865TIP3   OH2 5537   1.009   6.103   2.907
 1865TIP3    H1 5538   1.081   6.081   2.966
 1865TIP3    H2 5539   0.957   6.167   2.955
 1866TIP3   OH2 5540   1.208   3.680   4.963
 1866TIP3    H1 5541   1.255   3.597   4.954
 1866TIP3    H2 5542   1.145   3.679   4.890
 1867TIP3   OH2 5543   5.277   3.757   2.248
 1867TIP3    H1 5544   5.257   3.663   2.255
 1867TIP3    H2 5545   5.330   3.775   2.326
 1868TIP3   OH2 5546  -0.009   3.002   3.950
 1868TIP3    H1 5547  -0.030   3.013   4.042
 1868TIP3    H2 5548   0.083   3.025   3.943
 1869TIP3   OH2 5549   8.076   3.546   5.205
 1869TIP3    H1 5550   8.066   3.577   5.295
 1869TIP3    H2 5551   8.139   3.473   5.212
 1870TIP3   OH2 5552   0.877   3.117   5.980
 1870TIP3    H1 5553   0.934   3.140   6.054
 1870TIP3    H2 5554   0.921   3.044   5.937
 1871TIP3   OH2 5555   4.548   7.143   1.906
 1871TIP3    H1 5556   4.615   7.155   1.973
 1871TIP3    H2 5557   4.597   7.125   1.826
 1872TIP3   OH2 5558   4.338   0.824   5.722
 1872TIP3    H1 5559   4.371   0.743   5.761
 1872TIP3    H2 5560   4.400   0.891   5.749
 1873TIP3   OH2 5561   2.504   5.395   4.280
 1873TIP3    H1 5562   2.489   5.366   4.190
 1873TIP3    H2 5563   2.453   5.335   4.334
 1874TIP3   OH2 5564   6.436   7.232   3.293
 1874TIP3    H1 5565   6.519   7.281   3.294
 1874TIP3    H2 5566   6.380   7.280   3.354
 1875TIP3   OH2 5567   6.899   0.079   0.099
 1875TIP3    H1 5568   6.949   0.124   0.167
 1875TIP3    H2 5569   6.822   0.135   0.086
 1876TIP3   OH2 5570   6.430   1.282   1.374
 1876TIP3    H1 5571   6.461   1.300   1.285
 1876TIP3    H2 5572   6.411   1.189   1.374
 1877TIP3   OH2 5573   7.209   3.941   3.647
 1877TIP3    H1 5574   7.275   3.903   3.705
 1877TIP3    H2 5575   7.158   3.866   3.616
 1878TIP3   OH2 5576   0.070   5.173   3.943
 1878TIP3    H1 5577   0.159   5.204   3.925
 1878TIP3    H2 5578   0.031   5.243   3.996
 1879TIP3   OH2 5579   6.562   3.992   0.779
 1879TIP3    H1 5580   6.602   3.929   0.839
 1879TIP3    H2 5581   6.637   4.041   0.744
 1880TIP3   OH2 5582   0.826   3.561   1.354
 1880TIP3    H1 5583   0.864   3.616   1.287
 1880TIP3    H2 5584   0.758   3.616   1.394
 1881TIP3   OH2 5585   1.528   6.875   2.346
 1881TIP3    H1 5586   1.448   6.869   2.398
 1881TIP3    H2 5587   1.498   6.899   2.258
 1882TIP3   OH2 5588   2.719   5.375   1.486
 1882TIP3    H1 5589   2.760   5.428   1.417
 1882TIP3    H2 5590   2.749   5.286   1.469
 1883TIP3   OH2 5591   5.702   1.399   5.159
 1883TIP3    H1 5592   5.750   1.319   5.140
 1883TIP3    H2 5593   5.610   1.375   5.147
 1884TIP3   OH2 5594   5.403   1.443   6.663
 1884TIP3    H1 5595   5.395   1.493   6.744
 1884TIP3    H2 5596   5.497   1.426   6.654
 1885TIP3   OH2 5597   5.791   3.116   6.428
 1885TIP3    H1 5598   5.811   3.023   6.423
 1885TIP3    H2 5599   5.833   3.145   6.509
 1886TIP3   OH2 5600   7.918   1.405   4.966
 1886TIP3    H1 5601   8.011   1.418   4.985
 1886TIP3    H2 5602   7.912   1.414   4.871
 1887TIP3   OH2 5603   5.059   4.160   2.790
 1887TIP3    H1 5604   5.083   4.177   2.699
 1887TIP3    H2 5605   5.065   4.246   2.832
 1888TIP3   OH2 5606   7.587   1.942   0.435
 1888TIP3    H1 5607   7.672   1.957   0.394
 1888TIP3    H2 5608   7.523   1.959   0.365
 1889TIP3   OH2 5609   1.981   2.100   0.749
 1889TIP3    H1 5610   1.987   2.089   0.844
 1889TIP3    H2 5611   1.925   2.029   0.720
 1890TIP3   OH2 5612   0.237   1.874   5.547
 1890TIP3    H1 5613   0.193   1.812   5.489
 1890TIP3    H2 5614   0.196   1.959   5.528
 1891TIP3   OH2 5615   3.937   3.574   0.682
 1891TIP3    H1 5616   3.874   3.646   0.678
 1891TIP3    H2 5617   4.021   3.616   0.701
 1892TIP3   OH2 5618   2.264   7.030   4.301
 1892TIP3    H1 5619   2.286   7.111   4.346
 1892TIP3    H2 5620   2.321   7.028   4.225
 1893TIP3   OH2 5621   6.607   3.830   5.847
 1893TIP3    H1 5622   6.569   3.843   5.934
 1893TIP3    H2 5623   6.637   3.740   5.847
 1894TIP3   OH2 5624   0.670   0.583   5.278
 1894TIP3    H1 5625   0.588   0.632   5.268
 1894TIP3    H2 5626   0.659   0.534   5.359
 1895TIP3   OH2 5627   5.328   0.652   0.507
 1895TIP3    H1 5628   5.377   0.573   0.533
 1895TIP3    H2 5629   5.360   0.671   0.418
 1896TIP3   OH2 5630   2.308   6.730   0.954
 1896TIP3    H1 5631   2.213   6.724   0.949
 1896TIP3    H2 5632   2.326   6.756   1.045
 1897TIP3   OH2 5633   7.737   3.800   6.130
 1897TIP3    H1 5634   7.763   3.816   6.221
 1897TIP3    H2 5635   7.749   3.885   6.087
 1898TIP3   OH2 5636   4.058   6.941   4.542
 1898TIP3    H1 5637   4.127   6.972   4.484
 1898TIP3    H2 5638   4.084   6.971   4.629
 1899TIP3   OH2 5639   3.375   4.376   0.896
 1899TIP3    H1 5640   3.422   4.317   0.954
 1899TIP3    H2 5641   3.287   4.337   0.889
 1900TIP3   OH2 5642   6.175   2.443   4.829
 1900TIP3    H1 5643   6.111   2.459   4.898
 1900TIP3    H2 5644   6.151   2.358   4.793
 1901TIP3   OH2 5645   2.999   4.394   3.994
 1901TIP3    H1 5646   2.918   4.438   4.020
 1901TIP3    H2 5647   3.035   4.450   3.925
 1902TIP3   OH2 5648   4.943   4.784   6.226
 1902TIP3    H1 5649   5.032   4.815   6.213
 1902TIP3    H2 5650   4.905   4.847   6.288
 1903TIP3   OH2 5651   5.920   1.648   4.245
 1903TIP3    H1 5652   5.999   1.600   4.219
 1903TIP3    H2 5653   5.937   1.738   4.219
 1904TIP3   OH2 5654   5.907   0.176   5.097
 1904TIP3    H1 5655   5.886   0.190   5.189
 1904TIP3    H2 5656   5.965   0.249   5.074
 1905TIP3   OH2 5657   2.673   1.393   5.978
 1905TIP3    H1 5658   2.660   1.332   6.051
 1905TIP3    H2 5659   2.663   1.338   5.900
 1906TIP3   OH2 5660   2.374   0.706   0.498
 1906TIP3    H1 5661   2.445   0.688   0.559
 1906TIP3    H2 5662   2.379   0.636   0.433
 1907TIP3   OH2 5663   7.658   4.915   6.501
 1907TIP3    H1 5664   7.727   4.945   6.443
 1907TIP3    H2 5665   7.611   4.848   6.450
 1908TIP3   OH2 5666   6.187   5.783   4.871
 1908TIP3    H1 5667   6.111   5.764   4.816
 1908TIP3    H2 5668   6.207   5.876   4.854
 1909TIP3   OH2 5669   3.102   6.186   0.258
 1909TIP3    H1 5670   3.173   6.139   0.215
 1909TIP3    H2 5671   3.094   6.268   0.210
 1910TIP3   OH2 5672   3.488   0.224   6.447
 1910TIP3    H1 5673   3.496   0.156   6.380
 1910TIP3    H2 5674   3.516   0.304   6.403
 1911TIP3   OH2 5675   5.223   1.879   2.042
 1911TIP3    H1 5676   5.237   1.857   1.950
 1911TIP3    H2 5677   5.216   1.975   2.043
 1912TIP3   OH2 5678   2.548   6.922   0.249
 1912TIP3    H1 5679   2.587   6.836   0.235
 1912TIP3    H2 5680   2.494   6.912   0.327
 1913TIP3   OH2 5681   6.436   0.331   4.990
 1913TIP3    H1 5682   6.357   0.343   4.938
 1913TIP3    H2 5683   6.507   0.334   4.925
 1914TIP3   OH2 5684   1.667   6.109   3.106
 1914TIP3    H1 5685   1.735   6.176   3.100
 1914TIP3    H2 5686   1.646   6.104   3.199
 1915TIP3   OH2 5687   0.206   7.518   3.199
 1915TIP3    H1 5688   0.229   7.452   3.134
 1915TIP3    H2 5689   0.280   7.520   3.260
 1916TIP3   OH2 5690   5.976   6.559   2.594
 1916TIP3    H1 5691   5.881   6.571   2.594
 1916TIP3    H2 5692   5.988   6.465   2.583
 1917TIP3   OH2 5693   0.264   7.512   4.598
 1917TIP3    H1 5694   0.299   7.513   4.687
 1917TIP3    H2 5695   0.170   7.529   4.609
 1918TIP3   OH2 5696   4.633   3.260   0.147
 1918TIP3    H1 5697   4.554   3.306   0.175
 1918TIP3    H2 5698   4.601   3.185   0.098
 1919TIP3   OH2 5699   2.646   5.330   0.774
 1919TIP3    H1 5700   2.555   5.302   0.768
 1919TIP3    H2 5701   2.677   5.330   0.683
 1920TIP3   OH2 5702   4.818   6.918   5.675
 1920TIP3    H1 5703   4.754   6.855   5.641
 1920TIP3    H2 5704   4.810   6.994   5.617
 1921TIP3   OH2 5705   1.447   5.760   4.072
 1921TIP3    H1 5706   1.415   5.696   4.136
 1921TIP3    H2 5707   1.513   5.811   4.120
 1922TIP3   OH2 5708   2.574   5.304   1.962
 1922TIP3    H1 5709   2.491   5.351   1.961
 1922TIP3    H2 5710   2.624   5.341   1.889
 1923TIP3   OH2 5711   8.143   4.861   2.697
 1923TIP3    H1 5712   8.080   4.817   2.754
 1923TIP3    H2 5713   8.088   4.912   2.636
 1924TIP3   OH2 5714   3.612   5.568   1.937
 1924TIP3    H1 5715   3.653   5.520   1.865
 1924TIP3    H2 5716   3.568   5.642   1.895
 1925TIP3   OH2 5717   3.623   3.817   1.200
 1925TIP3    H1 5718   3.588   3.739   1.156
 1925TIP3    H2 5719   3.705   3.787   1.240
 1926TIP3   OH2 5720   5.000   6.037   3.777
 1926TIP3    H1 5721   5.052   6.101   3.826
 1926TIP3    H2 5722   4.996   5.961   3.834
 1927TIP3   OH2 5723   5.371   2.953   0.165
 1927TIP3    H1 5724   5.361   2.858   0.177
 1927TIP3    H2 5725   5.416   2.961   0.081
 1928TIP3   OH2 5726   8.129   0.805   0.414
 1928TIP3    H1 5727   8.187   0.853   0.473
 1928TIP3    H2 5728   8.124   0.861   0.336
 1929TIP3   OH2 5729   5.486   3.938   0.521
 1929TIP3    H1 5730   5.544   3.871   0.555
 1929TIP3    H2 5731   5.401   3.894   0.512
 1930TIP3   OH2 5732   0.992   0.123   4.904
 1930TIP3    H1 5733   0.954   0.037   4.886
 1930TIP3    H2 5734   1.086   0.109   4.899
 1931TIP3   OH2 5735   6.301   1.299   0.471
 1931TIP3    H1 5736   6.304   1.243   0.549
 1931TIP3    H2 5737   6.249   1.375   0.498
 1932TIP3   OH2 5738   0.930   4.389   2.135
 1932TIP3    H1 5739   0.891   4.475   2.119
 1932TIP3    H2 5740   1.022   4.407   2.153
 1933TIP3   OH2 5741   1.955   0.730   2.166
 1933TIP3    H1 5742   2.034   0.676   2.178
 1933TIP3    H2 5743   1.953   0.786   2.244
 1934TIP3   OH2 5744   0.554   5.121   3.743
 1934TIP3    H1 5745   0.587   5.098   3.830
 1934TIP3    H2 5746   0.462   5.095   3.745
 1935TIP3   OH2 5747   3.667   7.562   1.388
 1935TIP3    H1 5748   3.732   7.493   1.379
 1935TIP3    H2 5749   3.686   7.603   1.473
 1936TIP3   OH2 5750   1.895   1.374   0.229
 1936TIP3    H1 5751   1.813   1.352   0.185
 1936TIP3    H2 5752   1.867   1.413   0.312
 1937TIP3   OH2 5753   5.629   0.405   6.383
 1937TIP3    H1 5754   5.536   0.427   6.386
 1937TIP3    H2 5755   5.673   0.487   6.365
 1938TIP3   OH2 5756   7.759   7.397   6.680
 1938TIP3    H1 5757   7.683   7.425   6.630
 1938TIP3    H2 5758   7.727   7.326   6.736
 1939TIP3   OH2 5759   3.859   5.648   5.454
 1939TIP3    H1 5760   3.838   5.554   5.453
 1939TIP3    H2 5761   3.935   5.654   5.512
 1940TIP3   OH2 5762   1.450   6.427   5.126
 1940TIP3    H1 5763   1.416   6.507   5.085
 1940TIP3    H2 5764   1.534   6.413   5.084
 1941TIP3   OH2 5765   3.366   4.465   5.922
 1941TIP3    H1 5766   3.391   4.529   5.989
 1941TIP3    H2 5767   3.301   4.409   5.965
 1942TIP3   OH2 5768   7.782   3.918   0.775
 1942TIP3    H1 5769   7.701   3.878   0.745
 1942TIP3    H2 5770   7.799   3.989   0.712
 1943TIP3   OH2 5771   1.552   4.349   3.097
 1943TIP3    H1 5772   1.492   4.421   3.116
 1943TIP3    H2 5773   1.636   4.391   3.082
 1944TIP3   OH2 5774   2.914   5.108   4.907
 1944TIP3    H1 5775   2.914   5.202   4.927
 1944TIP3    H2 5776   3.005   5.088   4.885
 1945TIP3   OH2 5777   5.888   3.199   6.193
 1945TIP3    H1 5778   5.849   3.167   6.274
 1945TIP3    H2 5779   5.925   3.284   6.215
 1946TIP3   OH2 5780   2.391   3.871   6.059
 1946TIP3    H1 5781   2.450   3.806   6.021
 1946TIP3    H2 5782   2.311   3.864   6.006
 1947TIP3   OH2 5783   5.945   6.509   4.930
 1947TIP3    H1 5784   5.946   6.454   4.852
 1947TIP3    H2 5785   5.959   6.598   4.898
 1948TIP3   OH2 5786   0.823   0.431   0.640
 1948TIP3    H1 5787   0.761   0.502   0.620
 1948TIP3    H2 5788   0.878   0.466   0.709
 1949TIP3   OH2 5789   0.704   2.078   6.453
 1949TIP3    H1 5790   0.731   2.004   6.506
 1949TIP3    H2 5791   0.785   2.124   6.431
 1950TIP3   OH2 5792   1.327   7.698   5.650
 1950TIP3    H1 5793   1.343   7.768   5.587
 1950TIP3    H2 5794   1.320   7.618   5.597
 1951TIP3   OH2 5795   4.036   6.878   5.426
 1951TIP3    H1 5796   3.965   6.923   5.471
 1951TIP3    H2 5797   4.067   6.813   5.490
 1952TIP3   OH2 5798   4.864   7.844   4.071
 1952TIP3    H1 5799   4.787   7.808   4.115
 1952TIP3    H2 5800   4.874   7.790   3.992
 1953TIP3   OH2 5801   6.775   3.614   2.948
 1953TIP3    H1 5802   6.697   3.613   2.893
 1953TIP3    H2 5803   6.744   3.644   3.033
 1954TIP3   OH2 5804   7.127   7.144   4.384
 1954TIP3    H1 5805   7.157   7.216   4.329
 1954TIP3    H2 5806   7.158   7.166   4.472
 1955TIP3   OH2 5807   3.006   2.890   0.850
 1955TIP3    H1 5808   2.985   2.977   0.817
 1955TIP3    H2 5809   2.926   2.861   0.894
 1956TIP3   OH2 5810   3.308   3.676   6.366
 1956TIP3    H1 5811   3.338   3.713   6.448
 1956TIP3    H2 5812   3.293   3.583   6.385
 1957TIP3   OH2 5813   4.191   3.779   0.373
 1957TIP3    H1 5814   4.108   3.733   0.374
 1957TIP3    H2 5815   4.187   3.838   0.449
 1958TIP3   OH2 5816   1.858   2.556   5.119
 1958TIP3    H1 5817   1.835   2.526   5.031
 1958TIP3    H2 5818   1.909   2.636   5.105
 1959TIP3   OH2 5819   2.904   5.786   3.321
 1959TIP3    H1 5820   2.985   5.821   3.285
 1959TIP3    H2 5821   2.900   5.696   3.288
 1960TIP3   OH2 5822   4.983   2.985  -0.060
 1960TIP3    H1 5823   4.906   2.936  -0.032
 1960TIP3    H2 5824   5.028   3.009   0.021
 1961TIP3   OH2 5825   4.312   3.030   6.532
 1961TIP3    H1 5826   4.255   2.967   6.488
 1961TIP3    H2 5827   4.253   3.103   6.554
 1962TIP3   OH2 5828   0.405   3.179   4.530
 1962TIP3    H1 5829   0.390   3.101   4.476
 1962TIP3    H2 5830   0.442   3.145   4.612
 1963TIP3   OH2 5831   2.632   6.769   1.684
 1963TIP3    H1 5832   2.546   6.794   1.716
 1963TIP3    H2 5833   2.674   6.724   1.757
 1964TIP3   OH2 5834   0.251   1.248   5.113
 1964TIP3    H1 5835   0.203   1.296   5.045
 1964TIP3    H2 5836   0.185   1.190   5.152
 1965TIP3   OH2 5837   4.932   4.621   5.984
 1965TIP3    H1 5838   4.925   4.693   6.047
 1965TIP3    H2 5839   4.846   4.619   5.941
 1966TIP3   OH2 5840   4.524   7.305   0.841
 1966TIP3    H1 5841   4.567   7.367   0.782
 1966TIP3    H2 5842   4.509   7.355   0.921
 1967TIP3   OH2 5843   6.862   2.989   2.507
 1967TIP3    H1 5844   6.817   2.951   2.582
 1967TIP3    H2 5845   6.917   2.919   2.473
 1968TIP3   OH2 5846   0.709   2.740   0.160
 1968TIP3    H1 5847   0.704   2.687   0.239
 1968TIP3    H2 5848   0.631   2.794   0.162
 1969TIP3   OH2 5849   3.019   0.082   1.136
 1969TIP3    H1 5850   3.007   0.073   1.041
 1969TIP3    H2 5851   2.930   0.082   1.171
 1970TIP3   OH2 5852   6.079   5.545   2.476
 1970TIP3    H1 5853   6.060   5.571   2.386
 1970TIP3    H2 5854   6.002   5.573   2.526
 1971TIP3   OH2 5855   2.140   0.527   2.212
 1971TIP3    H1 5856   2.085   0.478   2.150
 1971TIP3    H2 5857   2.229   0.513   2.181
 1972TIP3   OH2 5858   7.810   4.948   4.201
 1972TIP3    H1 5859   7.802   4.971   4.108
 1972TIP3    H2 5860   7.892   4.899   4.206
 1973TIP3   OH2 5861   4.071   1.060   1.805
 1973TIP3    H1 5862   3.999   1.035   1.863
 1973TIP3    H2 5863   4.029   1.077   1.721
 1974TIP3   OH2 5864   7.467   0.813   5.791
 1974TIP3    H1 5865   7.425   0.840   5.872
 1974TIP3    H2 5866   7.400   0.828   5.723
 1975TIP3   OH2 5867   4.652   7.142   2.968
 1975TIP3    H1 5868   4.743   7.131   2.940
 1975TIP3    H2 5869   4.601   7.102   2.897
 1976TIP3   OH2 5870   4.404   3.569   4.799
 1976TIP3    H1 5871   4.475   3.551   4.861
 1976TIP3    H2 5872   4.448   3.591   4.718
 1977TIP3   OH2 5873   3.602   2.892   6.435
 1977TIP3    H1 5874   3.596   2.816   6.376
 1977TIP3    H2 5875   3.692   2.890   6.467
 1978TIP3   OH2 5876   5.755   5.828   0.798
 1978TIP3    H1 5877   5.831   5.822   0.856
 1978TIP3    H2 5878   5.679   5.820   0.856
 1979TIP3   OH2 5879   5.277   7.391   3.414
 1979TIP3    H1 5880   5.350   7.452   3.424
 1979TIP3    H2 5881   5.316   7.304   3.427
 1980TIP3   OH2 5882   4.266   5.918   2.477
 1980TIP3    H1 5883   4.253   5.971   2.398
 1980TIP3    H2 5884   4.246   5.829   2.449
 1981TIP3   OH2 5885   5.711   4.344   0.113
 1981TIP3    H1 5886   5.732   4.429   0.075
 1981TIP3    H2 5887   5.795   4.297   0.115
 1982TIP3   OH2 5888   2.187   6.062   4.560
 1982TIP3    H1 5889   2.255   6.054   4.627
 1982TIP3    H2 5890   2.147   6.148   4.577
 1983TIP3   OH2 5891   3.753   2.154   4.570
 1983TIP3    H1 5892   3.776   2.126   4.659
 1983TIP3    H2 5893   3.662   2.126   4.559
 1984TIP3   OH2 5894   5.688   3.138   4.509
 1984TIP3    H1 5895   5.726   3.180   4.432
 1984TIP3    H2 5896   5.763   3.125   4.568
 1985TIP3   OH2 5897   6.943   1.256   4.829
 1985TIP3    H1 5898   7.015   1.308   4.795
 1985TIP3    H2 5899   6.984   1.177   4.864
 1986TIP3   OH2 5900   7.868   6.813   2.317
 1986TIP3    H1 5901   7.824   6.858   2.390
 1986TIP3    H2 5902   7.846   6.721   2.330
 1987TIP3   OH2 5903   5.114   0.359   6.547
 1987TIP3    H1 5904   5.027   0.336   6.515
 1987TIP3    H2 5905   5.115   0.332   6.638
 1988TIP3   OH2 5906   7.575   6.649   2.370
 1988TIP3    H1 5907   7.629   6.708   2.422
 1988TIP3    H2 5908   7.610   6.562   2.388
 1989TIP3   OH2 5909   4.737   3.982   4.467
 1989TIP3    H1 5910   4.690   3.982   4.384
 1989TIP3    H2 5911   4.702   4.057   4.514
 1990TIP3   OH2 5912   8.160   0.568   0.118
 1990TIP3    H1 5913   8.154   0.560   0.213
 1990TIP3    H2 5914   8.076   0.534   0.086
 1991TIP3   OH2 5915   4.873   6.398   5.615
 1991TIP3    H1 5916   4.796   6.432   5.569
 1991TIP3    H2 5917   4.852   6.407   5.708
 1992TIP3   OH2 5918   5.920   1.487   1.034
 1992TIP3    H1 5919   5.859   1.425   0.994
 1992TIP3    H2 5920   5.876   1.515   1.115
 1993TIP3   OH2 5921   8.066   3.439   2.356
 1993TIP3    H1 5922   8.012   3.374   2.312
 1993TIP3    H2 5923   8.038   3.523   2.318
 1994TIP3   OH2 5924   1.445   5.658   1.175
 1994TIP3    H1 5925   1.427   5.594   1.243
 1994TIP3    H2 5926   1.477   5.735   1.222
 1995TIP3   OH2 5927   1.509   4.351   5.651
 1995TIP3    H1 5928   1.601   4.326   5.659
 1995TIP3    H2 5929   1.467   4.314   5.729
 1996TIP3   OH2 5930   6.232   2.046   5.525
 1996TIP3    H1 5931   6.222   1.995   5.445
 1996TIP3    H2 5932   6.165   2.013   5.584
 1997TIP3   OH2 5933   2.062   4.653   3.939
 1997TIP3    H1 5934   2.124   4.641   4.011
 1997TIP3    H2 5935   2.110   4.625   3.861
 1998TIP3   OH2 5936   4.604   5.352   1.851
 1998TIP3    H1 5937   4.531   5.290   1.845
 1998TIP3    H2 5938   4.682   5.299   1.842
 1999TIP3   OH2 5939   1.422   1.186   1.287
 1999TIP3    H1 5940   1.407   1.270   1.331
 1999TIP3    H2 5941   1.499   1.201   1.232
 2000TIP3   OH2 5942   4.202   7.176   5.607
 2000TIP3    H1 5943   4.236   7.114   5.544
 2000TIP3    H2 5944   4.272   7.187   5.671
 2001TIP3   OH2 5945   7.268   1.219   1.614
 2001TIP3    H1 5946   7.187   1.256   1.581
 2001TIP3    H2 5947   7.284   1.143   1.558
 2002TIP3   OH2 5948   7.533   7.303   5.454
 2002TIP3    H1 5949   7.537   7.364   5.528
 2002TIP3    H2 5950   7.576   7.224   5.486
 2003TIP3   OH2 5951   7.057   3.717   5.809
 2003TIP3    H1 5952   7.027   3.674   5.889
 2003TIP3    H2 5953   6.996   3.790   5.797
 2004TIP3   OH2 5954   4.372   1.694   5.264
 2004TIP3    H1 5955   4.297   1.710   5.207
 2004TIP3    H2 5956   4.430   1.638   5.213
 2005TIP3   OH2 5957   3.469   2.429   5.502
 2005TIP3    H1 5958   3.392   2.395   5.546
 2005TIP3    H2 5959   3.434   2.478   5.427
 2006TIP3   OH2 5960   5.805   2.861   5.025
 2006TIP3    H1 5961   5.896   2.832   5.036
 2006TIP3    H2 5962   5.759   2.786   4.990
 2007TIP3   OH2 5963   5.482   2.529   1.708
 2007TIP3    H1 5964   5.523   2.536   1.622
 2007TIP3    H2 5965   5.521   2.451   1.747
 2008TIP3   OH2 5966   6.214   5.773   4.498
 2008TIP3    H1 5967   6.122   5.786   4.523
 2008TIP3    H2 5968   6.220   5.681   4.475
 2009TIP3   OH2 5969   6.212   0.710   5.770
 2009TIP3    H1 5970   6.172   0.782   5.723
 2009TIP3    H2 5971   6.300   0.703   5.734
 2010TIP3   OH2 5972   7.023   2.336   5.156
 2010TIP3    H1 5973   7.065   2.260   5.115
 2010TIP3    H2 5974   7.008   2.309   5.246
 2011TIP3   OH2 5975   0.530   0.814   3.863
 2011TIP3    H1 5976   0.613   0.777   3.894
 2011TIP3    H2 5977   0.533   0.804   3.768
 2012TIP3   OH2 5978   5.474   7.490   2.612
 2012TIP3    H1 5979   5.526   7.426   2.661
 2012TIP3    H2 5980   5.527   7.510   2.535
 2013TIP3   OH2 5981   7.051   7.148   3.342
 2013TIP3    H1 5982   7.081   7.059   3.321
 2013TIP3    H2 5983   7.124   7.204   3.317
 2014TIP3   OH2 5984   3.280   2.558   2.906
 2014TIP3    H1 5985   3.267   2.553   2.811
 2014TIP3    H2 5986   3.303   2.468   2.931
 2015TIP3   OH2 5987   6.057   7.106   4.951
 2015TIP3    H1 5988   5.980   7.050   4.956
 2015TIP3    H2 5989   6.060   7.134   4.859
 2016TIP3   OH2 5990   2.688   3.406   0.527
 2016TIP3    H1 5991   2.703   3.316   0.556
 2016TIP3    H2 5992   2.666   3.399   0.434
 2017TIP3   OH2 5993   4.972   5.416   4.018
 2017TIP3    H1 5994   4.899   5.444   3.963
 2017TIP3    H2 5995   4.992   5.327   3.988
 2018TIP3   OH2 5996   7.341   7.471   0.092
 2018TIP3    H1 5997   7.284   7.487   0.017
 2018TIP3    H2 5998   7.309   7.389   0.130
 2019TIP3   OH2 5999   4.360   7.284   1.750
 2019TIP3    H1 6000   4.386   7.369   1.785
 2019TIP3    H2 6001   4.418   7.221   1.793
 2020TIP3   OH2 6002   4.391   1.723   0.245
 2020TIP3    H1 6003   4.377   1.786   0.315
 2020TIP3    H2 6004   4.324   1.745   0.180
 2021TIP3   OH2 6005   6.719   5.480   4.441
 2021TIP3    H1 6006   6.659   5.426   4.390
 2021TIP3    H2 6007   6.668   5.558   4.463
 2022TIP3   OH2 6008   2.829   5.738   0.198
 2022TIP3    H1 6009   2.917   5.702   0.209
 2022TIP3    H2 6010   2.837   5.829   0.225
 2023TIP3   OH2 6011   2.058   3.196   0.275
 2023TIP3    H1 6012   2.010   3.134   0.331
 2023TIP3    H2 6013   2.146   3.199   0.313
 2024TIP3   OH2 6014   3.260   6.361   3.517
 2024TIP3    H1 6015   3.284   6.318   3.435
 2024TIP3    H2 6016   3.255   6.454   3.495
 2025TIP3   OH2 6017   2.680   1.004   0.969
 2025TIP3    H1 6018   2.775   0.991   0.961
 2025TIP3    H2 6019   2.656   0.960   1.050
 2026TIP3   OH2 6020   2.818   5.576   4.706
 2026TIP3    H1 6021   2.860   5.490   4.715
 2026TIP3    H2 6022   2.882   5.637   4.742
 2027TIP3   OH2 6023   3.086   6.429   0.148
 2027TIP3    H1 6024   3.083   6.496   0.216
 2027TIP3    H2 6025   3.029   6.462   0.079
 2028TIP3   OH2 6026   7.913   4.883   2.266
 2028TIP3    H1 6027   7.845   4.905   2.331
 2028TIP3    H2 6028   7.952   4.802   2.299
 2029TIP3   OH2 6029   6.510   7.271   0.284
 2029TIP3    H1 6030   6.539   7.260   0.194
 2029TIP3    H2 6031   6.570   7.336   0.321
 2030TIP3   OH2 6032   0.614   4.732   4.958
 2030TIP3    H1 6033   0.675   4.686   4.901
 2030TIP3    H2 6034   0.544   4.762   4.899
 2031TIP3   OH2 6035   7.841   1.114   4.704
 2031TIP3    H1 6036   7.747   1.115   4.719
 2031TIP3    H2 6037   7.874   1.042   4.758
 2032TIP3   OH2 6038   1.241   7.799   2.019
 2032TIP3    H1 6039   1.211   7.857   2.090
 2032TIP3    H2 6040   1.184   7.722   2.025
 2033TIP3   OH2 6041   0.463   7.445   4.111
 2033TIP3    H1 6042   0.468   7.469   4.203
 2033TIP3    H2 6043   0.544   7.397   4.094
 2034TIP3   OH2 6044   2.220   1.299   1.317
 2034TIP3    H1 6045   2.277   1.223   1.309
 2034TIP3    H2 6046   2.156   1.288   1.247
 2035TIP3   OH2 6047   4.629   3.542   3.365
 2035TIP3    H1 6048   4.673   3.466   3.329
 2035TIP3    H2 6049   4.628   3.528   3.460
 2036TIP3   OH2 6050   2.236   6.211   1.426
 2036TIP3    H1 6051   2.240   6.296   1.470
 2036TIP3    H2 6052   2.194   6.231   1.341
 2037TIP3   OH2 6053   5.223   2.686   2.814
 2037TIP3    H1 6054   5.143   2.684   2.761
 2037TIP3    H2 6055   5.219   2.770   2.860
 2038TIP3   OH2 6056   4.143   5.955   3.635
 2038TIP3    H1 6057   4.152   6.038   3.682
 2038TIP3    H2 6058   4.232   5.918   3.634
 2039TIP3   OH2 6059   5.410   4.147   4.485
 2039TIP3    H1 6060   5.353   4.077   4.518
 2039TIP3    H2 6061   5.475   4.103   4.431
 2040TIP3   OH2 6062   6.359   4.435   5.707
 2040TIP3    H1 6063   6.326   4.414   5.620
 2040TIP3    H2 6064   6.311   4.377   5.766
 2041TIP3   OH2 6065   4.085   5.420   4.362
 2041TIP3    H1 6066   4.122   5.335   4.386
 2041TIP3    H2 6067   4.059   5.460   4.446
 2042TIP3   OH2 6068   2.783   4.790   1.947
 2042TIP3    H1 6069   2.806   4.698   1.943
 2042TIP3    H2 6070   2.750   4.803   2.036
 2043TIP3   OH2 6071   6.010   0.146   2.030
 2043TIP3    H1 6072   6.053   0.193   1.958
 2043TIP3    H2 6073   6.000   0.056   1.997
 2044TIP3   OH2 6074   3.902   6.800   2.760
 2044TIP3    H1 6075   3.911   6.867   2.827
 2044TIP3    H2 6076   3.826   6.749   2.787
 2045TIP3   OH2 6077   5.154   4.073   4.179
 2045TIP3    H1 6078   5.177   4.081   4.272
 2045TIP3    H2 6079   5.227   4.116   4.133
 2046TIP3   OH2 6080   5.672   1.060   2.460
 2046TIP3    H1 6081   5.642   1.117   2.389
 2046TIP3    H2 6082   5.598   1.058   2.521
 2047TIP3   OH2 6083   6.305   4.342   1.486
 2047TIP3    H1 6084   6.344   4.403   1.548
 2047TIP3    H2 6085   6.335   4.372   1.400
 2048TIP3   OH2 6086   5.407   6.836   0.785
 2048TIP3    H1 6087   5.488   6.877   0.818
 2048TIP3    H2 6088   5.415   6.744   0.809
 2049TIP3   OH2 6089   1.665   4.334   4.019
 2049TIP3    H1 6090   1.663   4.341   3.923
 2049TIP3    H2 6091   1.637   4.420   4.050
 2050TIP3   OH2 6092   1.863   5.690   2.046
 2050TIP3    H1 6093   1.815   5.612   2.020
 2050TIP3    H2 6094   1.801   5.762   2.033
 2051TIP3   OH2 6095   1.967   7.326   3.445
 2051TIP3    H1 6096   2.009   7.399   3.490
 2051TIP3    H2 6097   2.005   7.248   3.485
 2052TIP3   OH2 6098   1.153   1.893   1.590
 2052TIP3    H1 6099   1.206   1.888   1.670
 2052TIP3    H2 6100   1.213   1.926   1.523
 2053TIP3   OH2 6101   7.381   7.054   4.098
 2053TIP3    H1 6102   7.425   7.062   4.182
 2053TIP3    H2 6103   7.343   6.966   4.100
 2054TIP3   OH2 6104   8.228   4.062   1.668
 2054TIP3    H1 6105   8.244   3.968   1.655
 2054TIP3    H2 6106   8.153   4.082   1.611
 2055TIP3   OH2 6107   3.398   4.546   2.910
 2055TIP3    H1 6108   3.492   4.533   2.919
 2055TIP3    H2 6109   3.371   4.587   2.992
 2056TIP3   OH2 6110   1.451   3.746   5.771
 2056TIP3    H1 6111   1.535   3.733   5.727
 2056TIP3    H2 6112   1.386   3.736   5.701
 2057TIP3   OH2 6113   7.854   3.763   4.030
 2057TIP3    H1 6114   7.933   3.753   3.977
 2057TIP3    H2 6115   7.885   3.763   4.120
 2058TIP3   OH2 6116   7.145   1.867   6.357
 2058TIP3    H1 6117   7.080   1.934   6.376
 2058TIP3    H2 6118   7.125   1.839   6.268
 2059TIP3   OH2 6119   7.871   7.604   0.227
 2059TIP3    H1 6120   7.910   7.573   0.145
 2059TIP3    H2 6121   7.777   7.609   0.209
 2060TIP3   OH2 6122   8.158   1.697   1.009
 2060TIP3    H1 6123   8.089   1.745   1.054
 2060TIP3    H2 6124   8.122   1.610   0.994
 2061TIP3   OH2 6125   3.340   1.318   5.695
 2061TIP3    H1 6126   3.310   1.268   5.771
 2061TIP3    H2 6127   3.434   1.300   5.690
 2062TIP3   OH2 6128   0.567   3.638   0.074
 2062TIP3    H1 6129   0.477   3.609   0.058
 2062TIP3    H2 6130   0.609   3.630  -0.012
 2063TIP3   OH2 6131   2.828   0.698   6.654
 2063TIP3    H1 6132   2.734   0.711   6.666
 2063TIP3    H2 6133   2.868   0.772   6.700
 2064TIP3   OH2 6134   7.972   3.996   3.635
 2064TIP3    H1 6135   8.046   4.001   3.574
 2064TIP3    H2 6136   7.949   3.903   3.638
 2065TIP3   OH2 6137   0.733   5.299   0.594
 2065TIP3    H1 6138   0.788   5.341   0.528
 2065TIP3    H2 6139   0.730   5.207   0.567
 2066TIP3   OH2 6140   3.523   0.821   4.217
 2066TIP3    H1 6141   3.572   0.749   4.178
 2066TIP3    H2 6142   3.449   0.835   4.157
 2067TIP3   OH2 6143   0.820   2.551   5.411
 2067TIP3    H1 6144   0.749   2.519   5.466
 2067TIP3    H2 6145   0.786   2.542   5.322
 2068TIP3   OH2 6146   0.041   5.922   3.425
 2068TIP3    H1 6147   0.063   5.843   3.474
 2068TIP3    H2 6148  -0.004   5.890   3.346
 2069TIP3   OH2 6149   6.107   5.777   0.774
 2069TIP3    H1 6150   6.063   5.794   0.857
 2069TIP3    H2 6151   6.036   5.753   0.714
 2070TIP3   OH2 6152   2.427   3.234   4.000
 2070TIP3    H1 6153   2.432   3.153   4.050
 2070TIP3    H2 6154   2.371   3.292   4.052
 2071TIP3   OH2 6155   4.815   2.932   6.533
 2071TIP3    H1 6156   4.865   2.850   6.528
 2071TIP3    H2 6157   4.724   2.905   6.517
 2072TIP3   OH2 6158   6.656   5.086   5.444
 2072TIP3    H1 6159   6.642   5.167   5.394
 2072TIP3    H2 6160   6.574   5.037   5.433
 2073TIP3   OH2 6161   0.385   7.206   5.411
 2073TIP3    H1 6162   0.408   7.270   5.478
 2073TIP3    H2 6163   0.341   7.136   5.459
 2074TIP3   OH2 6164   1.321   5.375   0.852
 2074TIP3    H1 6165   1.388   5.357   0.786
 2074TIP3    H2 6166   1.358   5.445   0.905
 2075TIP3   OH2 6167   0.009   1.638   4.573
 2075TIP3    H1 6168   0.043   1.549   4.582
 2075TIP3    H2 6169   0.086   1.693   4.570
 2076TIP3   OH2 6170   7.645   4.806   2.998
 2076TIP3    H1 6171   7.694   4.783   3.077
 2076TIP3    H2 6172   7.663   4.734   2.938
 2077TIP3   OH2 6173   5.141   2.672   2.295
 2077TIP3    H1 6174   5.129   2.617   2.218
 2077TIP3    H2 6175   5.170   2.612   2.363
 2078TIP3   OH2 6176   0.116   2.466   6.003
 2078TIP3    H1 6177   0.178   2.521   6.051
 2078TIP3    H2 6178   0.111   2.505   5.916
 2079TIP3   OH2 6179   5.114   5.055   3.165
 2079TIP3    H1 6180   5.172   5.098   3.227
 2079TIP3    H2 6181   5.052   5.123   3.139
 2080TIP3   OH2 6182   6.933   3.435   3.510
 2080TIP3    H1 6183   6.986   3.513   3.525
 2080TIP3    H2 6184   6.950   3.379   3.585
 2081TIP3   OH2 6185  -0.016   2.937   6.775
 2081TIP3    H1 6186   0.007   3.024   6.808
 2081TIP3    H2 6187   0.058   2.911   6.720
 2082TIP3   OH2 6188   1.474   1.934   6.413
 2082TIP3    H1 6189   1.536   1.959   6.481
 2082TIP3    H2 6190   1.391   1.922   6.460
 2083TIP3   OH2 6191   4.611   1.538   3.017
 2083TIP3    H1 6192   4.538   1.516   2.958
 2083TIP3    H2 6193   4.603   1.632   3.031
 2084TIP3   OH2 6194   6.629   4.067   4.820
 2084TIP3    H1 6195   6.719   4.088   4.845
 2084TIP3    H2 6196   6.599   4.143   4.771
 2085TIP3   OH2 6197   4.946   2.383   6.024
 2085TIP3    H1 6198   5.029   2.366   6.068
 2085TIP3    H2 6199   4.884   2.400   6.095
 2086TIP3   OH2 6200   3.054   0.618   6.070
 2086TIP3    H1 6201   2.970   0.663   6.074
 2086TIP3    H2 6202   3.033   0.525   6.077
 2087TIP3   OH2 6203   5.865   4.770   6.339
 2087TIP3    H1 6204   5.836   4.702   6.400
 2087TIP3    H2 6205   5.867   4.726   6.254
 2088TIP3   OH2 6206   2.385   2.729   0.375
 2088TIP3    H1 6207   2.380   2.802   0.437
 2088TIP3    H2 6208   2.329   2.756   0.302
 2089TIP3   OH2 6209   5.236   6.869   4.899
 2089TIP3    H1 6210   5.316   6.823   4.874
 2089TIP3    H2 6211   5.179   6.801   4.934
 2090TIP3   OH2 6212   0.874   0.184   5.543
 2090TIP3    H1 6213   0.868   0.091   5.565
 2090TIP3    H2 6214   0.848   0.229   5.623
 2091TIP3   OH2 6215   5.341   0.079   2.170
 2091TIP3    H1 6216   5.433   0.101   2.185
 2091TIP3    H2 6217   5.338  -0.017   2.179
 2092TIP3   OH2 6218   7.843   3.395   5.365
 2092TIP3    H1 6219   7.916   3.349   5.323
 2092TIP3    H2 6220   7.875   3.414   5.453
 2093TIP3   OH2 6221   6.492   6.112   3.968
 2093TIP3    H1 6222   6.558   6.137   4.033
 2093TIP3    H2 6223   6.533   6.131   3.884
 2094TIP3   OH2 6224   4.582   0.392   1.073
 2094TIP3    H1 6225   4.494   0.406   1.107
 2094TIP3    H2 6226   4.574   0.317   1.014
 2095TIP3   OH2 6227   0.038   4.224   4.569
 2095TIP3    H1 6228  -0.054   4.231   4.543
 2095TIP3    H2 6229   0.045   4.137   4.608
 2096TIP3   OH2 6230   3.868   5.500   6.616
 2096TIP3    H1 6231   3.797   5.552   6.651
 2096TIP3    H2 6232   3.926   5.564   6.573
 2097TIP3   OH2 6233   4.798   4.975   5.788
 2097TIP3    H1 6234   4.813   4.891   5.744
 2097TIP3    H2 6235   4.712   5.003   5.758
 2098TIP3   OH2 6236   0.248   1.779   3.692
 2098TIP3    H1 6237   0.166   1.743   3.724
 2098TIP3    H2 6238   0.274   1.720   3.621
 2099TIP3   OH2 6239   5.804   0.859   2.250
 2099TIP3    H1 6240   5.777   0.774   2.286
 2099TIP3    H2 6241   5.724   0.912   2.254
 2100TIP3   OH2 6242   8.092   3.601   3.445
 2100TIP3    H1 6243   8.027   3.631   3.508
 2100TIP3    H2 6244   8.134   3.526   3.488
 2101TIP3   OH2 6245   5.304   7.818   0.245
 2101TIP3    H1 6246   5.293   7.764   0.324
 2101TIP3    H2 6247   5.321   7.906   0.279
 2102TIP3   OH2 6248   7.317   7.658   3.846
 2102TIP3    H1 6249   7.307   7.717   3.921
 2102TIP3    H2 6250   7.251   7.590   3.860
 2103TIP3   OH2 6251   4.349   0.270   2.277
 2103TIP3    H1 6252   4.408   0.340   2.305
 2103TIP3    H2 6253   4.373   0.254   2.185
 2104TIP3   OH2 6254   1.173   6.970   0.841
 2104TIP3    H1 6255   1.116   6.932   0.908
 2104TIP3    H2 6256   1.239   6.902   0.825
 2105TIP3   OH2 6257   5.441   0.352   4.626
 2105TIP3    H1 6258   5.415   0.260   4.613
 2105TIP3    H2 6259   5.521   0.361   4.575
 2106TIP3   OH2 6260   1.686   0.104   0.759
 2106TIP3    H1 6261   1.711   0.033   0.700
 2106TIP3    H2 6262   1.675   0.062   0.844
 2107TIP3   OH2 6263   4.512   4.145   2.920
 2107TIP3    H1 6264   4.447   4.078   2.904
 2107TIP3    H2 6265   4.464   4.228   2.911
 2108TIP3   OH2 6266   3.103   4.942   3.527
 2108TIP3    H1 6267   3.172   4.961   3.590
 2108TIP3    H2 6268   3.022   4.970   3.570
 2109TIP3   OH2 6269   1.698   4.754   2.026
 2109TIP3    H1 6270   1.736   4.680   2.074
 2109TIP3    H2 6271   1.719   4.737   1.935
 2110TIP3   OH2 6272   3.250   1.496   3.622
 2110TIP3    H1 6273   3.245   1.403   3.644
 2110TIP3    H2 6274   3.310   1.533   3.687
 2111TIP3   OH2 6275   4.490   6.912   0.641
 2111TIP3    H1 6276   4.563   6.852   0.654
 2111TIP3    H2 6277   4.484   6.962   0.722
 2112TIP3   OH2 6278   4.983   1.170   1.583
 2112TIP3    H1 6279   5.034   1.138   1.657
 2112TIP3    H2 6280   4.892   1.163   1.611
 2113TIP3   OH2 6281   1.934   5.230   6.005
 2113TIP3    H1 6282   1.936   5.224   6.101
 2113TIP3    H2 6283   1.914   5.322   5.987
 2114TIP3   OH2 6284   7.855   0.351   4.130
 2114TIP3    H1 6285   7.945   0.367   4.102
 2114TIP3    H2 6286   7.814   0.308   4.055
 2115TIP3   OH2 6287   5.000   1.820   2.153
 2115TIP3    H1 6288   4.944   1.767   2.097
 2115TIP3    H2 6289   5.083   1.826   2.106
 2116TIP3   OH2 6290   6.101   3.070   3.788
 2116TIP3    H1 6291   6.085   2.980   3.760
 2116TIP3    H2 6292   6.132   3.062   3.878
 2117TIP3   OH2 6293   3.153   5.728   5.894
 2117TIP3    H1 6294   3.106   5.738   5.977
 2117TIP3    H2 6295   3.137   5.810   5.848
 2118TIP3   OH2 6296   4.074   2.536   3.979
 2118TIP3    H1 6297   4.094   2.515   3.888
 2118TIP3    H2 6298   4.102   2.627   3.989
 2119TIP3   OH2 6299   0.032   2.959   1.457
 2119TIP3    H1 6300   0.008   2.896   1.525
 2119TIP3    H2 6301   0.120   2.932   1.430
 2120TIP3   OH2 6302   1.308   7.023   5.773
 2120TIP3    H1 6303   1.315   6.981   5.688
 2120TIP3    H2 6304   1.223   7.068   5.771
 2121TIP3   OH2 6305   5.387   1.465   5.143
 2121TIP3    H1 6306   5.393   1.501   5.054
 2121TIP3    H2 6307   5.321   1.520   5.186
 2122TIP3   OH2 6308   6.089   1.868   5.353
 2122TIP3    H1 6309   6.148   1.817   5.298
 2122TIP3    H2 6310   6.086   1.821   5.436
 2123TIP3   OH2 6311   3.453   0.769   5.067
 2123TIP3    H1 6312   3.431   0.844   5.123
 2123TIP3    H2 6313   3.465   0.696   5.128
 2124TIP3   OH2 6314   3.597   2.632   0.140
 2124TIP3    H1 6315   3.680   2.596   0.171
 2124TIP3    H2 6316   3.551   2.558   0.102
 2125TIP3   OH2 6317   0.605   0.552   3.460
 2125TIP3    H1 6318   0.687   0.566   3.507
 2125TIP3    H2 6319   0.538   0.550   3.529
 2126TIP3   OH2 6320   1.029   2.337   4.842
 2126TIP3    H1 6321   1.080   2.402   4.794
 2126TIP3    H2 6322   1.003   2.273   4.776
 2127TIP3   OH2 6323   0.256   7.494   6.587
 2127TIP3    H1 6324   0.279   7.409   6.623
 2127TIP3    H2 6325   0.201   7.535   6.653
 2128TIP3   OH2 6326   4.494   2.389   3.376
 2128TIP3    H1 6327   4.492   2.296   3.352
 2128TIP3    H2 6328   4.404   2.420   3.360
 2129TIP3   OH2 6329   0.683   0.955   5.215
 2129TIP3    H1 6330   0.736   1.024   5.255
 2129TIP3    H2 6331   0.602   0.954   5.267
 2130TIP3   OH2 6332   5.262   4.413   4.911
 2130TIP3    H1 6333   5.290   4.333   4.955
 2130TIP3    H2 6334   5.241   4.474   4.982
 2131TIP3   OH2 6335   4.345   2.819   1.468
 2131TIP3    H1 6336   4.305   2.901   1.439
 2131TIP3    H2 6337   4.438   2.841   1.480
 2132TIP3   OH2 6338   6.234   1.847   1.728
 2132TIP3    H1 6339   6.319   1.890   1.726
 2132TIP3    H2 6340   6.171   1.918   1.740
 2133TIP3   OH2 6341   1.387   1.037   0.728
 2133TIP3    H1 6342   1.412   1.085   0.649
 2133TIP3    H2 6343   1.346   0.956   0.695
 2134TIP3   OH2 6344   7.180   6.368   1.373
 2134TIP3    H1 6345   7.169   6.334   1.462
 2134TIP3    H2 6346   7.188   6.463   1.384
 2135TIP3   OH2 6347   2.176   5.845   6.274
 2135TIP3    H1 6348   2.102   5.843   6.336
 2135TIP3    H2 6349   2.225   5.923   6.299
 2136TIP3   OH2 6350   5.654   1.221   0.823
 2136TIP3    H1 6351   5.624   1.201   0.912
 2136TIP3    H2 6352   5.589   1.282   0.789
 2137TIP3   OH2 6353   2.392   0.590   1.840
 2137TIP3    H1 6354   2.429   0.501   1.840
 2137TIP3    H2 6355   2.458   0.643   1.885
 2138TIP3   OH2 6356   0.772   1.616   0.619
 2138TIP3    H1 6357   0.716   1.565   0.559
 2138TIP3    H2 6358   0.850   1.635   0.568
 2139TIP3   OH2 6359   8.284   3.352   5.242
 2139TIP3    H1 6360   8.282   3.268   5.289
 2139TIP3    H2 6361   8.343   3.336   5.168
 2140TIP3   OH2 6362   0.243   7.611   2.378
 2140TIP3    H1 6363   0.250   7.667   2.300
 2140TIP3    H2 6364   0.149   7.597   2.389
 2141TIP3   OH2 6365   7.457   6.207   5.884
 2141TIP3    H1 6366   7.491   6.286   5.925
 2141TIP3    H2 6367   7.504   6.201   5.801
 2142TIP3   OH2 6368   2.169   3.785   5.887
 2142TIP3    H1 6369   2.216   3.806   5.806
 2142TIP3    H2 6370   2.166   3.689   5.889
 2143TIP3   OH2 6371   2.608   4.454   1.436
 2143TIP3    H1 6372   2.567   4.379   1.479
 2143TIP3    H2 6373   2.671   4.487   1.500
 2144TIP3   OH2 6374   7.458   4.219   0.409
 2144TIP3    H1 6375   7.377   4.228   0.460
 2144TIP3    H2 6376   7.528   4.233   0.473
 2145TIP3   OH2 6377   1.013   5.422   1.350
 2145TIP3    H1 6378   1.043   5.367   1.422
 2145TIP3    H2 6379   1.056   5.386   1.273
 2146TIP3   OH2 6380   3.668   4.515   2.947
 2146TIP3    H1 6381   3.708   4.474   2.871
 2146TIP3    H2 6382   3.660   4.445   3.012
 2147TIP3   OH2 6383   7.140   2.654   5.331
 2147TIP3    H1 6384   7.184   2.738   5.342
 2147TIP3    H2 6385   7.048   2.676   5.316
 2148TIP3   OH2 6386   4.890   7.003   1.761
 2148TIP3    H1 6387   4.950   6.950   1.814
 2148TIP3    H2 6388   4.899   7.092   1.796
 2149TIP3   OH2 6389   5.059   4.677   4.788
 2149TIP3    H1 6390   5.096   4.651   4.873
 2149TIP3    H2 6391   4.968   4.697   4.806
 2150TIP3   OH2 6392   5.138   3.344   1.387
 2150TIP3    H1 6393   5.188   3.409   1.337
 2150TIP3    H2 6394   5.178   3.260   1.363
 2151TIP3   OH2 6395   6.400   4.998   5.386
 2151TIP3    H1 6396   6.320   5.042   5.358
 2151TIP3    H2 6397   6.437   4.961   5.306
 2152TIP3   OH2 6398   1.056   6.859   3.416
 2152TIP3    H1 6399   1.011   6.788   3.371
 2152TIP3    H2 6400   1.127   6.816   3.463
 2153TIP3   OH2 6401   8.027   2.180   2.172
 2153TIP3    H1 6402   7.951   2.184   2.113
 2153TIP3    H2 6403   8.068   2.096   2.152
 2154TIP3   OH2 6404   6.910   6.816   4.266
 2154TIP3    H1 6405   6.958   6.734   4.261
 2154TIP3    H2 6406   6.958   6.875   4.208
 2155TIP3   OH2 6407   2.306   7.080   3.722
 2155TIP3    H1 6408   2.340   7.028   3.795
 2155TIP3    H2 6409   2.223   7.116   3.753
 2156TIP3   OH2 6410   5.199   1.106   1.731
 2156TIP3    H1 6411   5.197   1.033   1.792
 2156TIP3    H2 6412   5.211   1.184   1.785
 2157TIP3   OH2 6413   5.605   6.126   5.030
 2157TIP3    H1 6414   5.685   6.094   5.073
 2157TIP3    H2 6415   5.544   6.053   5.035
 2158TIP3   OH2 6416   7.656   5.036   6.001
 2158TIP3    H1 6417   7.582   5.085   5.964
 2158TIP3    H2 6418   7.717   5.104   6.030
 2159TIP3   OH2 6419   5.749   6.991   1.988
 2159TIP3    H1 6420   5.752   7.024   2.078
 2159TIP3    H2 6421   5.827   7.028   1.946
 2160TIP3   OH2 6422   6.253   1.247   2.800
 2160TIP3    H1 6423   6.219   1.331   2.830
 2160TIP3    H2 6424   6.187   1.214   2.739
 2161TIP3   OH2 6425   2.815   4.079   1.673
 2161TIP3    H1 6426   2.825   4.078   1.577
 2161TIP3    H2 6427   2.781   3.992   1.694
 2162TIP3   OH2 6428   2.368   4.828   6.464
 2162TIP3    H1 6429   2.447   4.774   6.457
 2162TIP3    H2 6430   2.386   4.888   6.536
 2163TIP3   OH2 6431   5.342   4.852   5.634
 2163TIP3    H1 6432   5.427   4.889   5.612
 2163TIP3    H2 6433   5.284   4.880   5.563
 2164TIP3   OH2 6434   7.220   2.646   1.320
 2164TIP3    H1 6435   7.171   2.605   1.392
 2164TIP3    H2 6436   7.198   2.594   1.243
 2165TIP3   OH2 6437   0.043   2.444   5.397
 2165TIP3    H1 6438   0.125   2.489   5.415
 2165TIP3    H2 6439   0.034   2.446   5.302
 2166TIP3   OH2 6440   3.922   6.894   3.690
 2166TIP3    H1 6441   3.979   6.959   3.731
 2166TIP3    H2 6442   3.846   6.944   3.660
 2167TIP3   OH2 6443   7.635   3.149   4.983
 2167TIP3    H1 6444   7.657   3.132   4.891
 2167TIP3    H2 6445   7.711   3.196   5.017
 2168TIP3   OH2 6446   0.074   7.286   2.950
 2168TIP3    H1 6447   0.167   7.295   2.969
 2168TIP3    H2 6448   0.041   7.376   2.944
 2169TIP3   OH2 6449   0.850   3.184   1.187
 2169TIP3    H1 6450   0.880   3.274   1.189
 2169TIP3    H2 6451   0.922   3.136   1.146
 2170TIP3   OH2 6452   3.180   2.625   6.422
 2170TIP3    H1 6453   3.104   2.676   6.450
 2170TIP3    H2 6454   3.165   2.537   6.459
 2171TIP3   OH2 6455   3.273   0.750   6.151
 2171TIP3    H1 6456   3.213   0.689   6.108
 2171TIP3    H2 6457   3.360   0.714   6.133
 2172TIP3   OH2 6458   6.215   7.780   5.340
 2172TIP3    H1 6459   6.257   7.858   5.304
 2172TIP3    H2 6460   6.246   7.709   5.283
 2173TIP3   OH2 6461   3.008   0.880   0.024
 2173TIP3    H1 6462   3.028   0.789   0.046
 2173TIP3    H2 6463   2.913   0.882   0.015
 2174TIP3   OH2 6464   7.954   3.646   4.725
 2174TIP3    H1 6465   7.960   3.642   4.820
 2174TIP3    H2 6466   7.860   3.636   4.707
 2175TIP3   OH2 6467   0.329   1.807   2.857
 2175TIP3    H1 6468   0.350   1.758   2.936
 2175TIP3    H2 6469   0.299   1.741   2.795
 2176TIP3   OH2 6470   0.499   7.152   0.958
 2176TIP3    H1 6471   0.484   7.214   1.029
 2176TIP3    H2 6472   0.475   7.201   0.879
 2177TIP3   OH2 6473   8.114   3.767   6.358
 2177TIP3    H1 6474   8.139   3.811   6.277
 2177TIP3    H2 6475   8.029   3.805   6.381
 2178TIP3   OH2 6476   5.657   7.217   4.839
 2178TIP3    H1 6477   5.570   7.210   4.879
 2178TIP3    H2 6478   5.680   7.127   4.817
 2179TIP3   OH2 6479   5.666   2.559   0.931
 2179TIP3    H1 6480   5.693   2.640   0.888
 2179TIP3    H2 6481   5.695   2.490   0.872
 2180TIP3   OH2 6482   5.486   4.287   0.259
 2180TIP3    H1 6483   5.488   4.191   0.266
 2180TIP3    H2 6484   5.564   4.308   0.208
 2181TIP3   OH2 6485   5.119   0.278   1.513
 2181TIP3    H1 6486   5.057   0.292   1.585
 2181TIP3    H2 6487   5.068   0.229   1.448
 2182TIP3   OH2 6488   8.190   0.499   1.346
 2182TIP3    H1 6489   8.162   0.554   1.272
 2182TIP3    H2 6490   8.253   0.438   1.308
 2183TIP3   OH2 6491   0.200   4.985   2.927
 2183TIP3    H1 6492   0.124   5.035   2.899
 2183TIP3    H2 6493   0.205   5.000   3.021
 2184TIP3   OH2 6494   7.074   5.499   0.325
 2184TIP3    H1 6495   7.116   5.505   0.239
 2184TIP3    H2 6496   7.088   5.409   0.353
 2185TIP3   OH2 6497   1.386   1.819   6.020
 2185TIP3    H1 6498   1.431   1.750   6.069
 2185TIP3    H2 6499   1.294   1.797   6.028
 2186TIP3   OH2 6500   1.369   0.677   0.163
 2186TIP3    H1 6501   1.420   0.599   0.188
 2186TIP3    H2 6502   1.278   0.647   0.165
 2187TIP3   OH2 6503   7.940   7.315   1.273
 2187TIP3    H1 6504   8.010   7.346   1.215
 2187TIP3    H2 6505   7.913   7.231   1.234
 2188TIP3   OH2 6506   2.058   4.329   2.919
 2188TIP3    H1 6507   2.000   4.255   2.903
 2188TIP3    H2 6508   2.111   4.303   2.994
 2189TIP3   OH2 6509   1.896   6.319   6.746
 2189TIP3    H1 6510   1.956   6.295   6.816
 2189TIP3    H2 6511   1.913   6.257   6.676
 2190TIP3   OH2 6512   1.726   6.057   0.915
 2190TIP3    H1 6513   1.782   6.109   0.858
 2190TIP3    H2 6514   1.744   5.966   0.889
 2191TIP3   OH2 6515   5.190   7.508   3.167
 2191TIP3    H1 6516   5.212   7.481   3.257
 2191TIP3    H2 6517   5.270   7.548   3.133
 2192TIP3   OH2 6518   2.991   6.858   6.419
 2192TIP3    H1 6519   2.911   6.879   6.467
 2192TIP3    H2 6520   2.968   6.867   6.327
 2193TIP3   OH2 6521   3.908   5.640   2.778
 2193TIP3    H1 6522   3.984   5.601   2.734
 2193TIP3    H2 6523   3.946   5.705   2.837
 2194TIP3   OH2 6524   8.091   3.319   3.952
 2194TIP3    H1 6525   8.181   3.309   3.980
 2194TIP3    H2 6526   8.039   3.308   4.032
 2195TIP3   OH2 6527   3.713   6.583   2.800
 2195TIP3    H1 6528   3.705   6.595   2.705
 2195TIP3    H2 6529   3.752   6.496   2.809
 2196TIP3   OH2 6530   4.829   6.133   2.776
 2196TIP3    H1 6531   4.907   6.109   2.727
 2196TIP3    H2 6532   4.767   6.062   2.759
 2197TIP3   OH2 6533   6.152   2.755   3.044
 2197TIP3    H1 6534   6.178   2.663   3.044
 2197TIP3    H2 6535   6.176   2.788   2.957
 2198TIP3   OH2 6536   2.755   4.385   3.024
 2198TIP3    H1 6537   2.832   4.388   3.081
 2198TIP3    H2 6538   2.739   4.476   3.001
 2199TIP3   OH2 6539   2.161   2.514   3.274
 2199TIP3    H1 6540   2.124   2.547   3.192
 2199TIP3    H2 6541   2.197   2.593   3.317
 2200TIP3   OH2 6542   7.095   2.869   2.910
 2200TIP3    H1 6543   7.156   2.918   2.854
 2200TIP3    H2 6544   7.108   2.777   2.884
 2201TIP3   OH2 6545   0.028   6.187   3.238
 2201TIP3    H1 6546   0.104   6.241   3.216
 2201TIP3    H2 6547   0.061   6.126   3.304
 2202TIP3   OH2 6548   7.500   1.647   1.760
 2202TIP3    H1 6549   7.541   1.725   1.798
 2202TIP3    H2 6550   7.488   1.587   1.834
 2203TIP3   OH2 6551   7.741   0.174   4.328
 2203TIP3    H1 6552   7.766   0.240   4.263
 2203TIP3    H2 6553   7.715   0.099   4.276
 2204TIP3   OH2 6554   7.199   7.807   3.200
 2204TIP3    H1 6555   7.168   7.717   3.200
 2204TIP3    H2 6556   7.239   7.818   3.114
 2205TIP3   OH2 6557   7.676   4.280   6.286
 2205TIP3    H1 6558   7.634   4.274   6.200
 2205TIP3    H2 6559   7.769   4.290   6.265
 2206TIP3   OH2 6560   0.549   3.169   6.393
 2206TIP3    H1 6561   0.493   3.102   6.355
 2206TIP3    H2 6562   0.638   3.135   6.382
 2207TIP3   OH2 6563   0.530   5.501   0.331
 2207TIP3    H1 6564   0.449   5.507   0.381
 2207TIP3    H2 6565   0.596   5.542   0.388
 2208TIP3   OH2 6566   1.292   6.955   3.026
 2208TIP3    H1 6567   1.240   6.993   3.097
 2208TIP3    H2 6568   1.252   6.989   2.946
 2209TIP3   OH2 6569   2.763   6.829   3.359
 2209TIP3    H1 6570   2.694   6.875   3.312
 2209TIP3    H2 6571   2.717   6.771   3.419
 2210TIP3   OH2 6572   7.937   6.200   3.471
 2210TIP3    H1 6573   7.962   6.214   3.380
 2210TIP3    H2 6574   7.892   6.281   3.496
 2211TIP3   OH2 6575   6.417   4.319   6.215
 2211TIP3    H1 6576   6.458   4.397   6.254
 2211TIP3    H2 6577   6.323   4.336   6.221
 2212TIP3   OH2 6578   5.069   0.576   1.824
 2212TIP3    H1 6579   4.997   0.608   1.770
 2212TIP3    H2 6580   5.029   0.556   1.909
 2213TIP3   OH2 6581   0.004   7.477   3.359
 2213TIP3    H1 6582   0.060   7.492   3.283
 2213TIP3    H2 6583   0.063   7.449   3.429
 2214TIP3   OH2 6584   3.176   7.418   0.638
 2214TIP3    H1 6585   3.206   7.357   0.705
 2214TIP3    H2 6586   3.171   7.366   0.558
 2215TIP3   OH2 6587   6.180   2.866   0.902
 2215TIP3    H1 6588   6.096   2.857   0.948
 2215TIP3    H2 6589   6.223   2.782   0.913
 2216TIP3   OH2 6590   6.547   6.088   4.693
 2216TIP3    H1 6591   6.518   6.012   4.743
 2216TIP3    H2 6592   6.552   6.058   4.603
 2217TIP3   OH2 6593   1.462   4.585   0.410
 2217TIP3    H1 6594   1.395   4.652   0.391
 2217TIP3    H2 6595   1.413   4.503   0.415
 2218TIP3   OH2 6596   1.461   2.408   4.162
 2218TIP3    H1 6597   1.504   2.490   4.183
 2218TIP3    H2 6598   1.369   2.431   4.148
 2219TIP3   OH2 6599   6.064   7.603   1.146
 2219TIP3    H1 6600   6.039   7.651   1.067
 2219TIP3    H2 6601   6.147   7.560   1.123
 2220TIP3   OH2 6602   5.843   6.487   1.143
 2220TIP3    H1 6603   5.832   6.564   1.087
 2220TIP3    H2 6604   5.755   6.447   1.147
 2221TIP3   OH2 6605   5.179   6.115   3.550
 2221TIP3    H1 6606   5.117   6.043   3.534
 2221TIP3    H2 6607   5.206   6.142   3.462
 2222TIP3   OH2 6608   4.417   4.921   2.747
 2222TIP3    H1 6609   4.334   4.932   2.701
 2222TIP3    H2 6610   4.447   5.010   2.765
 2223TIP3   OH2 6611   4.473   0.830   3.327
 2223TIP3    H1 6612   4.470   0.889   3.252
 2223TIP3    H2 6613   4.462   0.887   3.403
 2224TIP3   OH2 6614   8.256   4.295   5.341
 2224TIP3    H1 6615   8.166   4.298   5.309
 2224TIP3    H2 6616   8.253   4.238   5.417
 2225TIP3   OH2 6617   2.460   1.117   5.230
 2225TIP3    H1 6618   2.466   1.173   5.308
 2225TIP3    H2 6619   2.441   1.030   5.265
 2226TIP3   OH2 6620   4.758   3.682   0.807
 2226TIP3    H1 6621   4.730   3.719   0.891
 2226TIP3    H2 6622   4.717   3.595   0.804
 2227TIP3   OH2 6623   1.775   1.154   0.619
 2227TIP3    H1 6624   1.843   1.123   0.678
 2227TIP3    H2 6625   1.754   1.242   0.650
 2228TIP3   OH2 6626   4.287   5.587   1.835
 2228TIP3    H1 6627   4.244   5.526   1.775
 2228TIP3    H2 6628   4.287   5.541   1.920
 2229TIP3   OH2 6629   4.361   2.133   6.158
 2229TIP3    H1 6630   4.357   2.077   6.080
 2229TIP3    H2 6631   4.432   2.095   6.211
 2230TIP3   OH2 6632   3.241   6.157   3.948
 2230TIP3    H1 6633   3.252   6.194   3.861
 2230TIP3    H2 6634   3.292   6.075   3.946
 2231TIP3   OH2 6635   4.198   4.272   6.260
 2231TIP3    H1 6636   4.168   4.253   6.172
 2231TIP3    H2 6637   4.275   4.218   6.272
 2232TIP3   OH2 6638   3.286   1.730   5.229
 2232TIP3    H1 6639   3.240   1.756   5.309
 2232TIP3    H2 6640   3.328   1.809   5.198
 2233TIP3   OH2 6641   6.481   5.871   2.103
 2233TIP3    H1 6642   6.563   5.823   2.112
 2233TIP3    H2 6643   6.491   5.948   2.159
 2234TIP3   OH2 6644   7.191   1.022   4.343
 2234TIP3    H1 6645   7.177   0.942   4.394
 2234TIP3    H2 6646   7.163   0.999   4.254
 2235TIP3   OH2 6647   0.350   1.434   3.637
 2235TIP3    H1 6648   0.315   1.472   3.557
 2235TIP3    H2 6649   0.322   1.342   3.635
 2236TIP3   OH2 6650   2.176   0.937   6.706
 2236TIP3    H1 6651   2.215   0.862   6.661
 2236TIP3    H2 6652   2.083   0.917   6.711
 2237TIP3   OH2 6653   3.851   4.976   4.326
 2237TIP3    H1 6654   3.947   4.975   4.317
 2237TIP3    H2 6655   3.820   4.924   4.252
 2238TIP3   OH2 6656   6.358   0.225   2.485
 2238TIP3    H1 6657   6.281   0.238   2.541
 2238TIP3    H2 6658   6.323   0.187   2.404
 2239TIP3   OH2 6659   4.020   4.443   3.978
 2239TIP3    H1 6660   3.941   4.496   3.984
 2239TIP3    H2 6661   4.022   4.393   4.060
 2240TIP3   OH2 6662   2.937   1.685   3.935
 2240TIP3    H1 6663   2.991   1.707   4.011
 2240TIP3    H2 6664   2.907   1.596   3.953
 2241TIP3   OH2 6665   1.649   7.076   1.366
 2241TIP3    H1 6666   1.600   7.141   1.417
 2241TIP3    H2 6667   1.614   6.992   1.393
 2242TIP3   OH2 6668   0.611   1.208   3.312
 2242TIP3    H1 6669   0.656   1.155   3.378
 2242TIP3    H2 6670   0.519   1.209   3.340
 2243TIP3   OH2 6671   1.156   7.538   2.770
 2243TIP3    H1 6672   1.140   7.553   2.863
 2243TIP3    H2 6673   1.068   7.525   2.733
 2244TIP3   OH2 6674   5.207   0.205   4.538
 2244TIP3    H1 6675   5.190   0.165   4.623
 2244TIP3    H2 6676   5.120   0.219   4.500
 2245TIP3   OH2 6677   7.042   1.723   1.276
 2245TIP3    H1 6678   7.130   1.692   1.299
 2245TIP3    H2 6679   7.000   1.646   1.237
 2246TIP3   OH2 6680   7.393   3.825   1.206
 2246TIP3    H1 6681   7.411   3.917   1.186
 2246TIP3    H2 6682   7.310   3.806   1.163
 2247TIP3   OH2 6683   1.510   3.906   2.849
 2247TIP3    H1 6684   1.470   3.977   2.899
 2247TIP3    H2 6685   1.495   3.929   2.758
 2248TIP3   OH2 6686   1.621   1.579   3.221
 2248TIP3    H1 6687   1.706   1.606   3.185
 2248TIP3    H2 6688   1.557   1.610   3.157
 2249TIP3   OH2 6689   3.825   5.595   4.253
 2249TIP3    H1 6690   3.872   5.568   4.332
 2249TIP3    H2 6691   3.869   5.675   4.226
 2250TIP3   OH2 6692   3.137   1.467   1.427
 2250TIP3    H1 6693   3.206   1.480   1.362
 2250TIP3    H2 6694   3.058   1.450   1.376
 2251TIP3   OH2 6695   0.634   3.731   1.950
 2251TIP3    H1 6696   0.695   3.802   1.970
 2251TIP3    H2 6697   0.565   3.773   1.898
 2252TIP3   OH2 6698   2.664   7.018   6.703
 2252TIP3    H1 6699   2.577   6.987   6.677
 2252TIP3    H2 6700   2.723   6.946   6.681
 2253TIP3   OH2 6701   5.588   3.660   0.584
 2253TIP3    H1 6702   5.587   3.677   0.490
 2253TIP3    H2 6703   5.532   3.582   0.595
 2254TIP3   OH2 6704   1.785   7.584   6.011
 2254TIP3    H1 6705   1.815   7.512   5.955
 2254TIP3    H2 6706   1.702   7.554   6.046
 2255TIP3   OH2 6707   2.930   4.997   1.862
 2255TIP3    H1 6708   2.887   5.082   1.866
 2255TIP3    H2 6709   2.863   4.934   1.887
 2256TIP3   OH2 6710   7.925   6.219   5.983
 2256TIP3    H1 6711   7.960   6.271   5.911
 2256TIP3    H2 6712   7.954   6.129   5.965
 2257TIP3   OH2 6713   4.328   2.774   5.204
 2257TIP3    H1 6714   4.349   2.684   5.228
 2257TIP3    H2 6715   4.388   2.796   5.133
 2258TIP3   OH2 6716   2.488   5.889   3.654
 2258TIP3    H1 6717   2.553   5.821   3.671
 2258TIP3    H2 6718   2.536   5.971   3.662
 2259TIP3   OH2 6719   1.738   1.411   4.271
 2259TIP3    H1 6720   1.757   1.359   4.193
 2259TIP3    H2 6721   1.821   1.454   4.292
 2260TIP3   OH2 6722   5.489   1.630   0.439
 2260TIP3    H1 6723   5.395   1.632   0.458
 2260TIP3    H2 6724   5.502   1.699   0.374
 2261TIP3   OH2 6725   5.751   5.295   5.190
 2261TIP3    H1 6726   5.707   5.210   5.191
 2261TIP3    H2 6727   5.699   5.350   5.249
 2262TIP3   OH2 6728   0.614   4.826   6.622
 2262TIP3    H1 6729   0.597   4.736   6.594
 2262TIP3    H2 6730   0.597   4.825   6.716
 2263TIP3   OH2 6731   2.881   3.685   1.448
 2263TIP3    H1 6732   2.916   3.736   1.521
 2263TIP3    H2 6733   2.956   3.632   1.418
 2264TIP3   OH2 6734   4.973   3.060   5.437
 2264TIP3    H1 6735   4.973   2.964   5.436
 2264TIP3    H2 6736   4.881   3.084   5.447
 2265TIP3   OH2 6737   7.833   6.030   0.361
 2265TIP3    H1 6738   7.805   5.953   0.411
 2265TIP3    H2 6739   7.788   6.103   0.403
 2266TIP3   OH2 6740   2.621   4.747   5.826
 2266TIP3    H1 6741   2.529   4.762   5.806
 2266TIP3    H2 6742   2.665   4.828   5.800
 2267TIP3   OH2 6743   3.820   7.004   4.388
 2267TIP3    H1 6744   3.862   6.952   4.456
 2267TIP3    H2 6745   3.797   6.941   4.319
 2268TIP3   OH2 6746   4.930   0.011   3.554
 2268TIP3    H1 6747   4.887  -0.073   3.567
 2268TIP3    H2 6748   4.858   0.074   3.550
 2269TIP3   OH2 6749   4.838   0.145   0.885
 2269TIP3    H1 6750   4.918   0.096   0.900
 2269TIP3    H2 6751   4.789   0.094   0.821
 2270TIP3   OH2 6752   2.639   1.677   5.724
 2270TIP3    H1 6753   2.657   1.628   5.644
 2270TIP3    H2 6754   2.549   1.653   5.747
 2271TIP3   OH2 6755   1.274   6.379   4.308
 2271TIP3    H1 6756   1.221   6.412   4.381
 2271TIP3    H2 6757   1.296   6.457   4.257
 2272TIP3   OH2 6758   2.710   5.992   1.334
 2272TIP3    H1 6759   2.669   5.953   1.411
 2272TIP3    H2 6760   2.644   6.051   1.299
 2273TIP3   OH2 6761   4.741   2.770   0.841
 2273TIP3    H1 6762   4.772   2.776   0.751
 2273TIP3    H2 6763   4.794   2.835   0.889
 2274TIP3   OH2 6764   1.398   1.180   5.677
 2274TIP3    H1 6765   1.370   1.182   5.585
 2274TIP3    H2 6766   1.344   1.111   5.716
 2275TIP3   OH2 6767   2.018   3.915   3.099
 2275TIP3    H1 6768   2.089   3.851   3.109
 2275TIP3    H2 6769   1.952   3.888   3.162
 2276TIP3   OH2 6770   0.128   3.531   6.461
 2276TIP3    H1 6771   0.128   3.475   6.383
 2276TIP3    H2 6772   0.045   3.511   6.505
 2277TIP3   OH2 6773   4.291   2.484   0.921
 2277TIP3    H1 6774   4.275   2.553   0.857
 2277TIP3    H2 6775   4.316   2.407   0.870
 2278TIP3   OH2 6776   1.131   3.778   1.614
 2278TIP3    H1 6777   1.072   3.742   1.681
 2278TIP3    H2 6778   1.149   3.705   1.556
 2279TIP3   OH2 6779   5.282   3.895   1.578
 2279TIP3    H1 6780   5.376   3.908   1.570
 2279TIP3    H2 6781   5.263   3.911   1.671
 2280TIP3   OH2 6782   8.202   0.001   1.630
 2280TIP3    H1 6783   8.224   0.094   1.638
 2280TIP3    H2 6784   8.110  -0.004   1.656
 2281TIP3   OH2 6785   7.355   7.762   4.890
 2281TIP3    H1 6786   7.336   7.800   4.976
 2281TIP3    H2 6787   7.435   7.712   4.903
 2282TIP3   OH2 6788   2.396   5.418   3.114
 2282TIP3    H1 6789   2.392   5.513   3.104
 2282TIP3    H2 6790   2.475   5.392   3.066
 2283TIP3   OH2 6791   7.027   0.328   4.059
 2283TIP3    H1 6792   6.956   0.388   4.035
 2283TIP3    H2 6793   7.086   0.328   3.984
 2284TIP3   OH2 6794   2.306   7.265   2.420
 2284TIP3    H1 6795   2.295   7.261   2.515
 2284TIP3    H2 6796   2.379   7.327   2.408
 2285TIP3   OH2 6797   7.954   3.119   5.314
 2285TIP3    H1 6798   7.995   3.088   5.395
 2285TIP3    H2 6799   7.866   3.146   5.340
 2286TIP3   OH2 6800   4.643   6.373   1.370
 2286TIP3    H1 6801   4.694   6.302   1.330
 2286TIP3    H2 6802   4.701   6.410   1.437
 2287TIP3   OH2 6803   3.519   1.404   3.821
 2287TIP3    H1 6804   3.568   1.413   3.903
 2287TIP3    H2 6805   3.582   1.424   3.752
 2288TIP3   OH2 6806   6.272   2.696   4.163
 2288TIP3    H1 6807   6.301   2.754   4.093
 2288TIP3    H2 6808   6.341   2.701   4.229
 2289TIP3   OH2 6809   1.734   4.335   6.245
 2289TIP3    H1 6810   1.747   4.360   6.154
 2289TIP3    H2 6811   1.688   4.409   6.285
 2290TIP3   OH2 6812   5.504   4.305   5.647
 2290TIP3    H1 6813   5.574   4.293   5.583
 2290TIP3    H2 6814   5.550   4.317   5.730
 2291TIP3   OH2 6815   6.396   5.271   2.470
 2291TIP3    H1 6816   6.381   5.353   2.518
 2291TIP3    H2 6817   6.491   5.259   2.471
 2292TIP3   OH2 6818   2.230   0.092   4.553
 2292TIP3    H1 6819   2.255   0.095   4.461
 2292TIP3    H2 6820   2.194   0.179   4.570
 2293TIP3   OH2 6821   7.114   6.995   1.657
 2293TIP3    H1 6822   7.085   7.086   1.646
 2293TIP3    H2 6823   7.198   7.002   1.702
 2294TIP3   OH2 6824   0.384   4.592   4.086
 2294TIP3    H1 6825   0.426   4.509   4.062
 2294TIP3    H2 6826   0.297   4.567   4.117
 2295TIP3   OH2 6827   6.572   1.093   2.785
 2295TIP3    H1 6828   6.492   1.082   2.734
 2295TIP3    H2 6829   6.642   1.070   2.724
 2296TIP3   OH2 6830   0.902   1.998   2.180
 2296TIP3    H1 6831   0.837   2.030   2.242
 2296TIP3    H2 6832   0.969   1.957   2.234
 2297TIP3   OH2 6833   3.672   7.326   1.632
 2297TIP3    H1 6834   3.598   7.374   1.595
 2297TIP3    H2 6835   3.698   7.264   1.563
 2298TIP3   OH2 6836   7.111   1.008   6.562
 2298TIP3    H1 6837   7.054   0.950   6.512
 2298TIP3    H2 6838   7.196   0.964   6.562
 2299TIP3   OH2 6839   6.786   4.429   1.610
 2299TIP3    H1 6840   6.788   4.521   1.583
 2299TIP3    H2 6841   6.860   4.389   1.564
 2300TIP3   OH2 6842   3.511   3.053   4.211
 2300TIP3    H1 6843   3.537   3.112   4.283
 2300TIP3    H2 6844   3.419   3.073   4.196
 2301TIP3   OH2 6845   8.221   6.024   0.925
 2301TIP3    H1 6846   8.174   5.981   0.853
 2301TIP3    H2 6847   8.287   5.960   0.953
 2302TIP3   OH2 6848   5.708   6.959   5.219
 2302TIP3    H1 6849   5.766   7.035   5.214
 2302TIP3    H2 6850   5.687   6.951   5.312
 2303TIP3   OH2 6851   2.597   2.798   1.208
 2303TIP3    H1 6852   2.655   2.839   1.273
 2303TIP3    H2 6853   2.599   2.705   1.230
 2304TIP3   OH2 6854   7.514   1.899   2.538
 2304TIP3    H1 6855   7.538   1.813   2.572
 2304TIP3    H2 6856   7.471   1.881   2.455
 2305TIP3   OH2 6857   1.709   0.781   4.378
 2305TIP3    H1 6858   1.728   0.690   4.354
 2305TIP3    H2 6859   1.668   0.819   4.300
 2306TIP3   OH2 6860   7.317   7.531   0.990
 2306TIP3    H1 6861   7.333   7.498   0.901
 2306TIP3    H2 6862   7.349   7.621   0.989
 2307TIP3   OH2 6863   4.781   2.679   6.164
 2307TIP3    H1 6864   4.772   2.584   6.157
 2307TIP3    H2 6865   4.708   2.705   6.221
 2308TIP3   OH2 6866   7.163   6.555   0.255
 2308TIP3    H1 6867   7.147   6.620   0.323
 2308TIP3    H2 6868   7.193   6.478   0.302
 2309TIP3   OH2 6869   5.117   6.641   3.680
 2309TIP3    H1 6870   5.155   6.640   3.768
 2309TIP3    H2 6871   5.080   6.728   3.671
 2310TIP3   OH2 6872   0.612   4.762   0.853
 2310TIP3    H1 6873   0.614   4.671   0.883
 2310TIP3    H2 6874   0.585   4.757   0.762
 2311TIP3   OH2 6875   1.133   2.811   0.832
 2311TIP3    H1 6876   1.193   2.826   0.905
 2311TIP3    H2 6877   1.106   2.720   0.841
 2312TIP3   OH2 6878   5.830   6.785   0.575
 2312TIP3    H1 6879   5.866   6.731   0.505
 2312TIP3    H2 6880   5.740   6.753   0.586
 2313TIP3   OH2 6881   5.880   4.513   3.707
 2313TIP3    H1 6882   5.930   4.518   3.626
 2313TIP3    H2 6883   5.850   4.602   3.723
 2314TIP3   OH2 6884   0.980   3.237   3.193
 2314TIP3    H1 6885   0.894   3.265   3.162
 2314TIP3    H2 6886   1.041   3.265   3.125
 2315TIP3   OH2 6887   2.062   2.006   1.573
 2315TIP3    H1 6888   2.086   2.096   1.596
 2315TIP3    H2 6889   1.983   2.015   1.520
 2316TIP3   OH2 6890   7.431   5.860   3.037
 2316TIP3    H1 6891   7.408   5.824   2.951
 2316TIP3    H2 6892   7.373   5.815   3.098
 2317TIP3   OH2 6893   2.384   3.540   0.033
 2317TIP3    H1 6894   2.402   3.454   0.070
 2317TIP3    H2 6895   2.309   3.573   0.084
 2318TIP3   OH2 6896   3.224   3.571   2.668
 2318TIP3    H1 6897   3.272   3.524   2.599
 2318TIP3    H2 6898   3.213   3.659   2.634
 2319TIP3   OH2 6899   6.743   4.708   0.513
 2319TIP3    H1 6900   6.722   4.801   0.524
 2319TIP3    H2 6901   6.836   4.708   0.488
 2320TIP3   OH2 6902   7.659   6.198   5.699
 2320TIP3    H1 6903   7.743   6.243   5.694
 2320TIP3    H2 6904   7.680   6.110   5.729
 2321TIP3   OH2 6905   7.234   6.028   5.902
 2321TIP3    H1 6906   7.144   6.058   5.887
 2321TIP3    H2 6907   7.286   6.108   5.901
 2322TIP3   OH2 6908   0.434   2.897   0.137
 2322TIP3    H1 6909   0.471   2.953   0.206
 2322TIP3    H2 6910   0.469   2.934   0.056
 2323TIP3   OH2 6911   4.190   2.273   5.976
 2323TIP3    H1 6912   4.270   2.263   5.924
 2323TIP3    H2 6913   4.200   2.209   6.046
 2324TIP3   OH2 6914   2.578   5.481   3.566
 2324TIP3    H1 6915   2.521   5.558   3.571
 2324TIP3    H2 6916   2.664   5.517   3.547
 2325TIP3   OH2 6917   3.426   1.049   2.983
 2325TIP3    H1 6918   3.449   1.130   3.029
 2325TIP3    H2 6919   3.507   0.999   2.978
 2326TIP3   OH2 6920   1.328   6.742   2.744
 2326TIP3    H1 6921   1.376   6.660   2.756
 2326TIP3    H2 6922   1.238   6.722   2.772
 2327TIP3   OH2 6923   5.853   1.079   0.529
 2327TIP3    H1 6924   5.876   1.100   0.619
 2327TIP3    H2 6925   5.768   1.121   0.515
 2328TIP3   OH2 6926   2.093   0.563   3.234
 2328TIP3    H1 6927   2.139   0.506   3.296
 2328TIP3    H2 6928   2.002   0.534   3.237
 2329TIP3   OH2 6929   0.311   6.012   0.160
 2329TIP3    H1 6930   0.389   5.957   0.156
 2329TIP3    H2 6931   0.309   6.057   0.076
 2330TIP3   OH2 6932   7.591   3.637   1.251
 2330TIP3    H1 6933   7.533   3.696   1.203
 2330TIP3    H2 6934   7.532   3.573   1.291
 2331TIP3   OH2 6935   6.425   3.112   6.294
 2331TIP3    H1 6936   6.456   3.170   6.363
 2331TIP3    H2 6937   6.425   3.025   6.333
 2332TIP3   OH2 6938   8.117   3.415   0.360
 2332TIP3    H1 6939   8.172   3.341   0.334
 2332TIP3    H2 6940   8.093   3.397   0.451
 2333TIP3   OH2 6941   7.170   1.704   1.671
 2333TIP3    H1 6942   7.165   1.691   1.766
 2333TIP3    H2 6943   7.125   1.629   1.634
 2334TIP3   OH2 6944   5.834   1.182   6.182
 2334TIP3    H1 6945   5.877   1.267   6.181
 2334TIP3    H2 6946   5.765   1.190   6.247
 2335TIP3   OH2 6947   2.175   3.141   2.383
 2335TIP3    H1 6948   2.091   3.187   2.380
 2335TIP3    H2 6949   2.230   3.188   2.321
 2336TIP3   OH2 6950   1.182   5.994   5.261
 2336TIP3    H1 6951   1.219   6.053   5.194
 2336TIP3    H2 6952   1.141   6.053   5.324
 2337TIP3   OH2 6953   4.143   1.083   5.978
 2337TIP3    H1 6954   4.102   0.999   5.956
 2337TIP3    H2 6955   4.142   1.133   5.897
 2338TIP3   OH2 6956   3.051   5.922   5.744
 2338TIP3    H1 6957   2.984   5.984   5.773
 2338TIP3    H2 6958   3.002   5.854   5.697
 2339TIP3   OH2 6959   1.993   0.180   1.290
 2339TIP3    H1 6960   1.922   0.117   1.302
 2339TIP3    H2 6961   2.068   0.140   1.334
 2340TIP3   OH2 6962   2.824   6.822   5.204
 2340TIP3    H1 6963   2.787   6.751   5.255
 2340TIP3    H2 6964   2.918   6.821   5.224
 2341TIP3   OH2 6965   7.115   0.834   0.695
 2341TIP3    H1 6966   7.049   0.832   0.626
 2341TIP3    H2 6967   7.134   0.927   0.708
 2342TIP3   OH2 6968   3.169   2.778   2.603
 2342TIP3    H1 6969   3.189   2.836   2.677
 2342TIP3    H2 6970   3.100   2.824   2.555
 2343TIP3   OH2 6971   1.688   0.259   2.225
 2343TIP3    H1 6972   1.702   0.321   2.153
 2343TIP3    H2 6973   1.711   0.174   2.188
 2344TIP3   OH2 6974   3.682   1.664   1.066
 2344TIP3    H1 6975   3.641   1.743   1.101
 2344TIP3    H2 6976   3.743   1.696   1.001
 2345TIP3   OH2 6977   1.610   2.159   1.240
 2345TIP3    H1 6978   1.621   2.156   1.145
 2345TIP3    H2 6979   1.605   2.068   1.267
 2346TIP3   OH2 6980   0.855   3.164   4.075
 2346TIP3    H1 6981   0.842   3.137   4.166
 2346TIP3    H2 6982   0.797   3.107   4.024
 2347TIP3   OH2 6983   3.491   0.539   3.298
 2347TIP3    H1 6984   3.425   0.541   3.229
 2347TIP3    H2 6985   3.543   0.618   3.283
 2348TIP3   OH2 6986   1.252   5.037   1.112
 2348TIP3    H1 6987   1.164   5.006   1.129
 2348TIP3    H2 6988   1.307   4.959   1.115
 2349TIP3   OH2 6989   3.369   7.395   1.900
 2349TIP3    H1 6990   3.387   7.461   1.832
 2349TIP3    H2 6991   3.319   7.327   1.854
 2350TIP3   OH2 6992   7.353   6.712   5.252
 2350TIP3    H1 6993   7.283   6.661   5.211
 2350TIP3    H2 6994   7.410   6.646   5.292
 2351TIP3   OH2 6995   4.457   0.593   5.797
 2351TIP3    H1 6996   4.486   0.565   5.884
 2351TIP3    H2 6997   4.421   0.514   5.757
 2352TIP3   OH2 6998   3.529   4.297   6.396
 2352TIP3    H1 6999   3.440   4.287   6.361
 2352TIP3    H2 7000   3.529   4.383   6.438
 2353TIP3   OH2 7001   7.813   1.816   3.017
 2353TIP3    H1 7002   7.725   1.794   3.046
 2353TIP3    H2 7003   7.808   1.817   2.922
 2354TIP3   OH2 7004   0.797   4.972   4.741
 2354TIP3    H1 7005   0.855   5.026   4.687
 2354TIP3    H2 7006   0.828   4.986   4.831
 2355TIP3   OH2 7007   6.486   1.935   3.943
 2355TIP3    H1 7008   6.490   1.951   3.849
 2355TIP3    H2 7009   6.427   2.002   3.976
 2356TIP3   OH2 7010   6.697   0.102   6.717
 2356TIP3    H1 7011   6.758   0.066   6.652
 2356TIP3    H2 7012   6.675   0.027   6.773
 2357TIP3   OH2 7013   4.829   4.927   2.460
 2357TIP3    H1 7014   4.754   4.868   2.451
 2357TIP3    H2 7015   4.903   4.869   2.476
 2358TIP3   OH2 7016   4.325   5.381   6.387
 2358TIP3    H1 7017   4.305   5.464   6.429
 2358TIP3    H2 7018   4.376   5.406   6.309
 2359TIP3   OH2 7019   5.363   5.915   2.090
 2359TIP3    H1 7020   5.403   5.864   2.160
 2359TIP3    H2 7021   5.284   5.952   2.129
 2360TIP3   OH2 7022   1.572   7.789   0.400
 2360TIP3    H1 7023   1.565   7.856   0.468
 2360TIP3    H2 7024   1.526   7.713   0.436
 2361TIP3   OH2 7025   5.301   0.538   4.419
 2361TIP3    H1 7026   5.266   0.466   4.473
 2361TIP3    H2 7027   5.393   0.542   4.443
 2362TIP3   OH2 7028   1.783   6.676   5.937
 2362TIP3    H1 7029   1.762   6.726   6.016
 2362TIP3    H2 7030   1.703   6.680   5.885
 2363TIP3   OH2 7031   1.847   3.470   2.092
 2363TIP3    H1 7032   1.796   3.537   2.136
 2363TIP3    H2 7033   1.782   3.406   2.062
 2364TIP3   OH2 7034   3.948   0.578   4.771
 2364TIP3    H1 7035   3.873   0.541   4.725
 2364TIP3    H2 7036   3.946   0.537   4.858
 2365TIP3   OH2 7037   7.648   3.933   2.870
 2365TIP3    H1 7038   7.735   3.950   2.908
 2365TIP3    H2 7039   7.634   4.006   2.810
 2366TIP3   OH2 7040   1.619   0.535   1.326
 2366TIP3    H1 7041   1.691   0.529   1.389
 2366TIP3    H2 7042   1.649   0.598   1.261
 2367TIP3   OH2 7043   8.014   0.401   2.604
 2367TIP3    H1 7044   8.001   0.496   2.593
 2367TIP3    H2 7045   7.929   0.369   2.635
 2368TIP3   OH2 7046   0.909   0.577   3.464
 2368TIP3    H1 7047   0.899   0.672   3.460
 2368TIP3    H2 7048   0.907   0.549   3.372
 2369TIP3   OH2 7049   3.798   5.734   0.859
 2369TIP3    H1 7050   3.761   5.716   0.946
 2369TIP3    H2 7051   3.724   5.729   0.799
 2370TIP3   OH2 7052   7.612   1.214   0.576
 2370TIP3    H1 7053   7.662   1.185   0.652
 2370TIP3    H2 7054   7.669   1.277   0.532
 2371TIP3   OH2 7055   7.805   3.064   2.668
 2371TIP3    H1 7056   7.711   3.048   2.667
 2371TIP3    H2 7057   7.843   2.980   2.696
 2372TIP3   OH2 7058   7.736   2.451   2.194
 2372TIP3    H1 7059   7.735   2.456   2.290
 2372TIP3    H2 7060   7.653   2.408   2.172
 2373TIP3   OH2 7061   7.304   5.517   2.007
 2373TIP3    H1 7062   7.273   5.490   1.920
 2373TIP3    H2 7063   7.321   5.611   1.999
 2374TIP3   OH2 7064   3.721   3.083   0.804
 2374TIP3    H1 7065   3.710   3.178   0.801
 2374TIP3    H2 7066   3.759   3.060   0.719
 2375TIP3   OH2 7067   2.672   3.748   4.767
 2375TIP3    H1 7068   2.679   3.841   4.787
 2375TIP3    H2 7069   2.753   3.710   4.799
 2376TIP3   OH2 7070   2.124   6.122   0.586
 2376TIP3    H1 7071   2.207   6.165   0.608
 2376TIP3    H2 7072   2.145   6.029   0.583
 2377TIP3   OH2 7073   4.651   3.765   2.565
 2377TIP3    H1 7074   4.582   3.785   2.629
 2377TIP3    H2 7075   4.720   3.828   2.584
 2378TIP3   OH2 7076   7.867   3.299   6.323
 2378TIP3    H1 7077   7.942   3.294   6.263
 2378TIP3    H2 7078   7.847   3.393   6.326
 2379TIP3   OH2 7079   2.352   4.626   0.877
 2379TIP3    H1 7080   2.365   4.708   0.830
 2379TIP3    H2 7081   2.439   4.586   0.882
 2380TIP3   OH2 7082   7.174   6.213   0.062
 2380TIP3    H1 7083   7.176   6.268  -0.017
 2380TIP3    H2 7084   7.127   6.266   0.127
 2381TIP3   OH2 7085   5.758   7.284   3.872
 2381TIP3    H1 7086   5.830   7.222   3.880
 2381TIP3    H2 7087   5.785   7.359   3.925
 2382TIP3   OH2 7088   2.082   0.663   5.953
 2382TIP3    H1 7089   2.176   0.671   5.941
 2382TIP3    H2 7090   2.069   0.662   6.048
 2383TIP3   OH2 7091   2.868   0.398   5.756
 2383TIP3    H1 7092   2.840   0.362   5.672
 2383TIP3    H2 7093   2.929   0.333   5.790
 2384TIP3   OH2 7094   7.481   4.158   4.988
 2384TIP3    H1 7095   7.415   4.101   4.947
 2384TIP3    H2 7096   7.431   4.234   5.018
 2385TIP3   OH2 7097   4.094   5.623   0.469
 2385TIP3    H1 7098   4.145   5.626   0.550
 2385TIP3    H2 7099   4.022   5.684   0.485
 2386TIP3   OH2 7100   8.053   4.514   5.883
 2386TIP3    H1 7101   8.095   4.518   5.969
 2386TIP3    H2 7102   8.120   4.544   5.822
 2387TIP3   OH2 7103   4.893   7.248   1.427
 2387TIP3    H1 7104   4.944   7.167   1.430
 2387TIP3    H2 7105   4.885   7.275   1.519
 2388TIP3   OH2 7106   8.163   6.260   1.355
 2388TIP3    H1 7107   8.212   6.194   1.307
 2388TIP3    H2 7108   8.218   6.338   1.354
 2389TIP3   OH2 7109   1.231   1.897   0.047
 2389TIP3    H1 7110   1.264   1.860   0.129
 2389TIP3    H2 7111   1.155   1.842   0.025
 2390TIP3   OH2 7112   5.201   1.278   2.475
 2390TIP3    H1 7113   5.132   1.212   2.476
 2390TIP3    H2 7114   5.168   1.349   2.529
 2391TIP3   OH2 7115   0.676   6.900   4.274
 2391TIP3    H1 7116   0.758   6.949   4.275
 2391TIP3    H2 7117   0.676   6.855   4.189
 2392TIP3   OH2 7118   3.248   3.555   4.370
 2392TIP3    H1 7119   3.199   3.625   4.327
 2392TIP3    H2 7120   3.336   3.592   4.382
 2393TIP3   OH2 7121   5.368   7.221   0.026
 2393TIP3    H1 7122   5.414   7.148  -0.015
 2393TIP3    H2 7123   5.283   7.224  -0.019
 2394TIP3   OH2 7124   3.231   7.486   6.379
 2394TIP3    H1 7125   3.219   7.408   6.325
 2394TIP3    H2 7126   3.226   7.559   6.317
 2395TIP3   OH2 7127   3.942   1.913   5.240
 2395TIP3    H1 7128   4.031   1.945   5.227
 2395TIP3    H2 7129   3.890   1.992   5.256
 2396TIP3   OH2 7130   6.635   7.864   3.064
 2396TIP3    H1 7131   6.635   7.781   3.016
 2396TIP3    H2 7132   6.656   7.840   3.154
 2397TIP3   OH2 7133   5.287   1.143   1.099
 2397TIP3    H1 7134   5.347   1.113   1.030
 2397TIP3    H2 7135   5.345   1.175   1.168
 2398TIP3   OH2 7136   7.552   6.464   1.182
 2398TIP3    H1 7137   7.564   6.527   1.253
 2398TIP3    H2 7138   7.556   6.516   1.102
 2399TIP3   OH2 7139   7.225   3.187   1.367
 2399TIP3    H1 7140   7.313   3.173   1.401
 2399TIP3    H2 7141   7.220   3.281   1.352
 2400TIP3   OH2 7142   7.633   1.492   0.803
 2400TIP3    H1 7143   7.544   1.457   0.810
 2400TIP3    H2 7144   7.627   1.580   0.841
 2401TIP3   OH2 7145   1.978   5.501   3.257
 2401TIP3    H1 7146   2.010   5.448   3.329
 2401TIP3    H2 7147   2.004   5.591   3.278
 2402TIP3   OH2 7148   1.928   3.868   2.508
 2402TIP3    H1 7149   2.010   3.913   2.528
 2402TIP3    H2 7150   1.863   3.911   2.565
 2403TIP3   OH2 7151   0.801   2.831   6.100
 2403TIP3    H1 7152   0.709   2.843   6.074
 2403TIP3    H2 7153   0.844   2.797   6.022
 2404TIP3   OH2 7154   0.579   3.146   2.551
 2404TIP3    H1 7155   0.586   3.051   2.566
 2404TIP3    H2 7156   0.521   3.177   2.620
 2405TIP3   OH2 7157   0.009   2.737   5.179
 2405TIP3    H1 7158   0.057   2.798   5.235
 2405TIP3    H2 7159  -0.006   2.786   5.098
 2406TIP3   OH2 7160   7.999   5.904   1.961
 2406TIP3    H1 7161   7.949   5.921   2.040
 2406TIP3    H2 7162   7.962   5.824   1.926
 2407TIP3   OH2 7163   1.437   3.107   6.145
 2407TIP3    H1 7164   1.531   3.086   6.143
 2407TIP3    H2 7165   1.428   3.179   6.083
 2408TIP3   OH2 7166   3.590   3.635   0.991
 2408TIP3    H1 7167   3.590   3.540   1.004
 2408TIP3    H2 7168   3.683   3.660   0.995
 2409TIP3   OH2 7169   2.224   7.743   5.447
 2409TIP3    H1 7170   2.247   7.667   5.501
 2409TIP3    H2 7171   2.274   7.731   5.366
 2410TIP3   OH2 7172   1.094   5.298   2.795
 2410TIP3    H1 7173   1.171   5.316   2.741
 2410TIP3    H2 7174   1.036   5.247   2.738
 2411TIP3   OH2 7175   5.851   5.981   5.097
 2411TIP3    H1 7176   5.852   5.893   5.135
 2411TIP3    H2 7177   5.939   6.015   5.115
 2412TIP3   OH2 7178   3.069   7.310   0.374
 2412TIP3    H1 7179   2.987   7.260   0.371
 2412TIP3    H2 7180   3.042   7.402   0.365
 2413TIP3   OH2 7181   3.844   2.994   3.842
 2413TIP3    H1 7182   3.808   2.909   3.869
 2413TIP3    H2 7183   3.767   3.046   3.819
 2414TIP3   OH2 7184   2.480   5.762   3.197
 2414TIP3    H1 7185   2.428   5.766   3.277
 2414TIP3    H2 7186   2.566   5.794   3.224
 2415TIP3   OH2 7187   1.350   4.993   3.433
 2415TIP3    H1 7188   1.340   5.078   3.391
 2415TIP3    H2 7189   1.426   5.004   3.491
 2416TIP3   OH2 7190   4.613   3.356   3.836
 2416TIP3    H1 7191   4.694   3.309   3.856
 2416TIP3    H2 7192   4.594   3.406   3.915
 2417TIP3   OH2 7193   3.072   6.100   4.588
 2417TIP3    H1 7194   3.078   6.193   4.613
 2417TIP3    H2 7195   3.024   6.059   4.660
 2418TIP3   OH2 7196   8.002   4.370   5.604
 2418TIP3    H1 7197   8.018   4.334   5.517
 2418TIP3    H2 7198   8.015   4.464   5.594
 2419TIP3   OH2 7199   8.239   2.821   5.923
 2419TIP3    H1 7200   8.297   2.752   5.891
 2419TIP3    H2 7201   8.261   2.898   5.870
 2420TIP3   OH2 7202   2.714   7.612   4.861
 2420TIP3    H1 7203   2.642   7.609   4.797
 2420TIP3    H2 7204   2.788   7.572   4.816
 2421TIP3   OH2 7205   3.294   3.933   0.493
 2421TIP3    H1 7206   3.244   3.854   0.513
 2421TIP3    H2 7207   3.381   3.916   0.528
 2422TIP3   OH2 7208   5.174   5.212   4.767
 2422TIP3    H1 7209   5.086   5.180   4.745
 2422TIP3    H2 7210   5.226   5.133   4.778
 2423TIP3   OH2 7211   5.523   5.567   2.622
 2423TIP3    H1 7212   5.574   5.487   2.633
 2423TIP3    H2 7213   5.567   5.615   2.551
 2424TIP3   OH2 7214   7.498   1.881   6.168
 2424TIP3    H1 7215   7.568   1.907   6.109
 2424TIP3    H2 7216   7.491   1.786   6.157
 2425TIP3   OH2 7217   2.876   6.773   6.711
 2425TIP3    H1 7218   2.822   6.744   6.638
 2425TIP3    H2 7219   2.887   6.695   6.766
 2426TIP3   OH2 7220   2.862   4.283   5.425
 2426TIP3    H1 7221   2.812   4.353   5.468
 2426TIP3    H2 7222   2.949   4.322   5.410
 2427TIP3   OH2 7223   1.893   7.815   0.738
 2427TIP3    H1 7224   1.851   7.729   0.736
 2427TIP3    H2 7225   1.828   7.873   0.779
 2428TIP3   OH2 7226   3.156   4.216   2.807
 2428TIP3    H1 7227   3.198   4.130   2.809
 2428TIP3    H2 7228   3.226   4.275   2.779
 2429TIP3   OH2 7229   3.933   4.232   1.642
 2429TIP3    H1 7230   3.873   4.165   1.610
 2429TIP3    H2 7231   4.015   4.185   1.658
 2430TIP3   OH2 7232   0.519   3.777   3.603
 2430TIP3    H1 7233   0.569   3.700   3.626
 2430TIP3    H2 7234   0.428   3.754   3.624
 2431TIP3   OH2 7235   2.217   5.365   3.648
 2431TIP3    H1 7236   2.134   5.392   3.608
 2431TIP3    H2 7237   2.257   5.447   3.677
 2432TIP3   OH2 7238   4.412   5.456   3.212
 2432TIP3    H1 7239   4.446   5.512   3.282
 2432TIP3    H2 7240   4.346   5.510   3.168
 2433TIP3   OH2 7241   0.187   6.881   3.419
 2433TIP3    H1 7242   0.230   6.839   3.344
 2433TIP3    H2 7243   0.189   6.975   3.398
 2434TIP3   OH2 7244   4.170   3.539   0.931
 2434TIP3    H1 7245   4.172   3.521   1.025
 2434TIP3    H2 7246   4.120   3.466   0.894
 2435TIP3   OH2 7247   6.508   6.127   1.074
 2435TIP3    H1 7248   6.555   6.058   1.026
 2435TIP3    H2 7249   6.420   6.125   1.038
 2436TIP3   OH2 7250   5.831   0.464   4.001
 2436TIP3    H1 7251   5.774   0.434   3.930
 2436TIP3    H2 7252   5.900   0.514   3.958
 2437TIP3   OH2 7253   0.471   6.678   2.293
 2437TIP3    H1 7254   0.386   6.670   2.250
 2437TIP3    H2 7255   0.530   6.627   2.237
 2438TIP3   OH2 7256   5.643   4.290   6.711
 2438TIP3    H1 7257   5.653   4.374   6.757
 2438TIP3    H2 7258   5.625   4.228   6.781
 2439TIP3   OH2 7259   7.776   4.988   6.277
 2439TIP3    H1 7260   7.745   4.986   6.186
 2439TIP3    H2 7261   7.858   4.938   6.275
 2440TIP3   OH2 7262   6.922   5.163   4.932
 2440TIP3    H1 7263   6.989   5.139   4.868
 2440TIP3    H2 7264   6.850   5.102   4.916
 2441TIP3   OH2 7265   6.229   0.752   3.252
 2441TIP3    H1 7266   6.319   0.722   3.264
 2441TIP3    H2 7267   6.179   0.673   3.231
 2442TIP3   OH2 7268   1.787   0.409   2.022
 2442TIP3    H1 7269   1.804   0.499   1.995
 2442TIP3    H2 7270   1.872   0.377   2.053
 2443TIP3   OH2 7271   6.242   0.549   2.582
 2443TIP3    H1 7272   6.287   0.559   2.498
 2443TIP3    H2 7273   6.304   0.583   2.647
 2444TIP3   OH2 7274   2.932  -0.030   0.877
 2444TIP3    H1 7275   2.843  -0.051   0.906
 2444TIP3    H2 7276   2.921   0.022   0.798
 2445TIP3   OH2 7277   4.952   2.302   4.769
 2445TIP3    H1 7278   4.923   2.315   4.859
 2445TIP3    H2 7279   4.930   2.211   4.749
 2446TIP3   OH2 7280   2.235   6.180   5.205
 2446TIP3    H1 7281   2.297   6.221   5.266
 2446TIP3    H2 7282   2.212   6.250   5.143
 2447TIP3   OH2 7283   6.502   7.557   3.453
 2447TIP3    H1 7284   6.428   7.500   3.434
 2447TIP3    H2 7285   6.572   7.524   3.396
 2448TIP3   OH2 7286   7.558   5.941   0.432
 2448TIP3    H1 7287   7.590   5.891   0.357
 2448TIP3    H2 7288   7.551   5.876   0.502
 2449TIP3   OH2 7289   4.463   1.800   6.368
 2449TIP3    H1 7290   4.398   1.801   6.298
 2449TIP3    H2 7291   4.546   1.782   6.324
 2450TIP3   OH2 7292   4.036   0.044   5.880
 2450TIP3    H1 7293   4.050  -0.014   5.805
 2450TIP3    H2 7294   4.114   0.099   5.882
 2451TIP3   OH2 7295   0.160   3.582   3.461
 2451TIP3    H1 7296   0.222   3.634   3.410
 2451TIP3    H2 7297   0.174   3.608   3.552
 2452TIP3   OH2 7298   7.257   1.366   5.112
 2452TIP3    H1 7299   7.206   1.446   5.103
 2452TIP3    H2 7300   7.341   1.396   5.148
 2453TIP3   OH2 7301   0.525   2.221   2.622
 2453TIP3    H1 7302   0.507   2.218   2.528
 2453TIP3    H2 7303   0.548   2.312   2.639
 2454TIP3   OH2 7304   0.158   4.368   1.908
 2454TIP3    H1 7305   0.114   4.451   1.889
 2454TIP3    H2 7306   0.091   4.301   1.894
 2455TIP3   OH2 7307   0.306   3.602   5.233
 2455TIP3    H1 7308   0.333   3.573   5.145
 2455TIP3    H2 7309   0.257   3.682   5.218
 2456TIP3   OH2 7310   1.099   6.936   1.862
 2456TIP3    H1 7311   1.043   6.881   1.807
 2456TIP3    H2 7312   1.065   6.924   1.951
 2457TIP3   OH2 7313   0.375   5.830   5.320
 2457TIP3    H1 7314   0.344   5.913   5.357
 2457TIP3    H2 7315   0.342   5.831   5.230
 2458TIP3   OH2 7316   5.112   0.903   3.042
 2458TIP3    H1 7317   5.091   0.828   3.097
 2458TIP3    H2 7318   5.107   0.979   3.100
 2459TIP3   OH2 7319   1.423   5.044   5.293
 2459TIP3    H1 7320   1.477   4.977   5.250
 2459TIP3    H2 7321   1.359   4.994   5.343
 2460TIP3   OH2 7322   1.455   7.187   0.583
 2460TIP3    H1 7323   1.464   7.146   0.497
 2460TIP3    H2 7324   1.364   7.217   0.586
 2461TIP3   OH2 7325   1.162   3.041   2.615
 2461TIP3    H1 7326   1.236   3.015   2.560
 2461TIP3    H2 7327   1.169   3.136   2.622
 2462TIP3   OH2 7328   5.545   6.378   2.255
 2462TIP3    H1 7329   5.616   6.322   2.225
 2462TIP3    H2 7330   5.540   6.448   2.190
 2463TIP3   OH2 7331   7.038   2.886   0.191
 2463TIP3    H1 7332   7.058   2.861   0.281
 2463TIP3    H2 7333   6.990   2.812   0.155
 2464TIP3   OH2 7334   2.600   5.215   5.764
 2464TIP3    H1 7335   2.586   5.219   5.858
 2464TIP3    H2 7336   2.549   5.288   5.729
 2465TIP3   OH2 7337   2.722   0.958   3.684
 2465TIP3    H1 7338   2.743   0.959   3.777
 2465TIP3    H2 7339   2.626   0.959   3.680
 2466TIP3   OH2 7340   8.183   2.598   1.330
 2466TIP3    H1 7341   8.177   2.593   1.235
 2466TIP3    H2 7342   8.264   2.552   1.351
 2467TIP3   OH2 7343   3.478   4.334   5.206
 2467TIP3    H1 7344   3.476   4.428   5.224
 2467TIP3    H2 7345   3.513   4.295   5.286
 2468TIP3   OH2 7346   5.762   4.011   5.140
 2468TIP3    H1 7347   5.761   4.095   5.093
 2468TIP3    H2 7348   5.848   4.006   5.180
 2469TIP3   OH2 7349   6.248   1.356   3.928
 2469TIP3    H1 7350   6.323   1.341   3.871
 2469TIP3    H2 7351   6.191   1.281   3.912
 2470TIP3   OH2 7352   5.815   6.730   1.022
 2470TIP3    H1 7353   5.895   6.782   1.022
 2470TIP3    H2 7354   5.749   6.789   0.985
 2471TIP3   OH2 7355   4.376   3.788   1.187
 2471TIP3    H1 7356   4.437   3.719   1.212
 2471TIP3    H2 7357   4.301   3.776   1.245
 2472TIP3   OH2 7358   1.987   2.897   3.207
 2472TIP3    H1 7359   1.925   2.969   3.213
 2472TIP3    H2 7360   2.059   2.922   3.265
 2473TIP3   OH2 7361   4.725   6.233   6.287
 2473TIP3    H1 7362   4.763   6.193   6.208
 2473TIP3    H2 7363   4.764   6.320   6.292
 2474TIP3   OH2 7364   4.984   4.862   2.162
 2474TIP3    H1 7365   4.923   4.802   2.205
 2474TIP3    H2 7366   5.066   4.812   2.156
 2475TIP3   OH2 7367   7.944   6.690   6.142
 2475TIP3    H1 7368   7.895   6.621   6.097
 2475TIP3    H2 7369   7.962   6.654   6.229
 2476TIP3   OH2 7370   5.433   5.423   0.521
 2476TIP3    H1 7371   5.424   5.499   0.465
 2476TIP3    H2 7372   5.498   5.448   0.586
 2477TIP3   OH2 7373   3.637   7.655   4.503
 2477TIP3    H1 7374   3.563   7.602   4.534
 2477TIP3    H2 7375   3.713   7.614   4.543
 2478TIP3   OH2 7376   2.579   4.795   0.759
 2478TIP3    H1 7377   2.593   4.773   0.851
 2478TIP3    H2 7378   2.618   4.723   0.710
 2479TIP3   OH2 7379   8.135   3.424   4.277
 2479TIP3    H1 7380   8.221   3.417   4.237
 2479TIP3    H2 7381   8.093   3.498   4.232
 2480TIP3   OH2 7382   2.182   0.223   6.153
 2480TIP3    H1 7383   2.262   0.209   6.103
 2480TIP3    H2 7384   2.196   0.306   6.198
 2481TIP3   OH2 7385   6.263   2.513   1.792
 2481TIP3    H1 7386   6.341   2.569   1.794
 2481TIP3    H2 7387   6.256   2.478   1.881
 2482TIP3   OH2 7388   5.512   4.956   2.548
 2482TIP3    H1 7389   5.492   4.871   2.508
 2482TIP3    H2 7390   5.587   4.988   2.499
 2483TIP3   OH2 7391   2.728   1.637   2.208
 2483TIP3    H1 7392   2.817   1.646   2.172
 2483TIP3    H2 7393   2.697   1.726   2.216
 2484TIP3   OH2 7394   1.967   0.338   6.390
 2484TIP3    H1 7395   1.995   0.310   6.303
 2484TIP3    H2 7396   2.048   0.359   6.436
 2485TIP3   OH2 7397   3.388   6.412   4.007
 2485TIP3    H1 7398   3.429   6.498   3.997
 2485TIP3    H2 7399   3.359   6.388   3.919
 2486TIP3   OH2 7400   0.277   3.666   3.707
 2486TIP3    H1 7401   0.262   3.583   3.752
 2486TIP3    H2 7402   0.260   3.733   3.773
 2487TIP3   OH2 7403   0.678   5.169   3.220
 2487TIP3    H1 7404   0.665   5.148   3.312
 2487TIP3    H2 7405   0.662   5.086   3.174
 2488TIP3   OH2 7406   3.277   0.037   0.556
 2488TIP3    H1 7407   3.255  -0.055   0.574
 2488TIP3    H2 7408   3.192   0.080   0.544
 2489TIP3   OH2 7409   3.024   5.578   4.979
 2489TIP3    H1 7410   3.088   5.610   5.043
 2489TIP3    H2 7411   3.000   5.656   4.929
 2490TIP3   OH2 7412   2.011   7.654   2.698
 2490TIP3    H1 7413   2.096   7.628   2.733
 2490TIP3    H2 7414   1.973   7.573   2.664
 2491TIP3   OH2 7415   0.841   3.614   5.026
 2491TIP3    H1 7416   0.758   3.587   5.067
 2491TIP3    H2 7417   0.908   3.590   5.090
 2492TIP3   OH2 7418   0.643   0.814   2.085
 2492TIP3    H1 7419   0.572   0.755   2.109
 2492TIP3    H2 7420   0.606   0.902   2.097
 2493TIP3   OH2 7421   3.963   2.055   3.871
 2493TIP3    H1 7422   4.058   2.051   3.876
 2493TIP3    H2 7423   3.937   2.107   3.947
 2494TIP3   OH2 7424   3.003   2.415   6.443
 2494TIP3    H1 7425   3.042   2.384   6.362
 2494TIP3    H2 7426   2.937   2.479   6.416
 2495TIP3   OH2 7427   4.413   4.687   1.209
 2495TIP3    H1 7428   4.392   4.629   1.136
 2495TIP3    H2 7429   4.503   4.665   1.232
 2496TIP3   OH2 7430   2.041   5.759   0.145
 2496TIP3    H1 7431   1.993   5.712   0.077
 2496TIP3    H2 7432   2.030   5.705   0.223
 2497TIP3   OH2 7433   1.766   3.880   3.260
 2497TIP3    H1 7434   1.703   3.810   3.242
 2497TIP3    H2 7435   1.738   3.952   3.204
 2498TIP3   OH2 7436   2.323   6.895   3.517
 2498TIP3    H1 7437   2.285   6.950   3.448
 2498TIP3    H2 7438   2.344   6.957   3.587
 2499TIP3   OH2 7439   4.951   2.898   6.196
 2499TIP3    H1 7440   5.036   2.857   6.177
 2499TIP3    H2 7441   4.893   2.824   6.214
 2500TIP3   OH2 7442   6.287   6.578   3.223
 2500TIP3    H1 7443   6.332   6.663   3.224
 2500TIP3    H2 7444   6.203   6.595   3.266
 2501TIP3   OH2 7445   3.346   2.755   1.562
 2501TIP3    H1 7446   3.306   2.818   1.622
 2501TIP3    H2 7447   3.273   2.701   1.531
 2502TIP3   OH2 7448   0.166   3.475   1.921
 2502TIP3    H1 7449   0.119   3.415   1.863
 2502TIP3    H2 7450   0.098   3.530   1.959
 2503TIP3   OH2 7451   6.609   3.446   6.248
 2503TIP3    H1 7452   6.704   3.451   6.237
 2503TIP3    H2 7453   6.595   3.465   6.341
 2504TIP3   OH2 7454   0.374   1.659   6.054
 2504TIP3    H1 7455   0.305   1.685   5.993
 2504TIP3    H2 7456   0.346   1.695   6.138
 2505TIP3   OH2 7457   4.974   1.714   1.210
 2505TIP3    H1 7458   5.064   1.747   1.210
 2505TIP3    H2 7459   4.969   1.659   1.288
 2506TIP3   OH2 7460   0.233   5.318   3.557
 2506TIP3    H1 7461   0.279   5.336   3.475
 2506TIP3    H2 7462   0.301   5.325   3.624
 2507TIP3   OH2 7463   0.463   4.599   2.323
 2507TIP3    H1 7464   0.455   4.538   2.396
 2507TIP3    H2 7465   0.374   4.604   2.287
 2508TIP3   OH2 7466   2.974   5.752   5.233
 2508TIP3    H1 7467   3.038   5.805   5.280
 2508TIP3    H2 7468   3.026   5.682   5.194
 2509TIP3   OH2 7469   4.466   2.460   2.616
 2509TIP3    H1 7470   4.432   2.507   2.692
 2509TIP3    H2 7471   4.557   2.440   2.637
 2510TIP3   OH2 7472   2.447   0.830   4.677
 2510TIP3    H1 7473   2.509   0.807   4.608
 2510TIP3    H2 7474   2.464   0.766   4.746
 2511TIP3   OH2 7475   1.209   2.523   4.083
 2511TIP3    H1 7476   1.204   2.556   3.993
 2511TIP3    H2 7477   1.249   2.594   4.132
 2512TIP3   OH2 7478   6.340   5.478   0.637
 2512TIP3    H1 7479   6.391   5.527   0.701
 2512TIP3    H2 7480   6.255   5.465   0.678
 2513TIP3   OH2 7481   7.808   4.639   2.519
 2513TIP3    H1 7482   7.735   4.636   2.457
 2513TIP3    H2 7483   7.883   4.606   2.469
 2514TIP3   OH2 7484   7.301   0.211   3.017
 2514TIP3    H1 7485   7.367   0.268   2.978
 2514TIP3    H2 7486   7.229   0.211   2.954
 2515TIP3   OH2 7487   2.389   1.507   5.051
 2515TIP3    H1 7488   2.373   1.422   5.011
 2515TIP3    H2 7489   2.478   1.501   5.084
 2516TIP3   OH2 7490   3.993   3.902   3.222
 2516TIP3    H1 7491   3.930   3.851   3.171
 2516TIP3    H2 7492   3.983   3.871   3.312
 2517TIP3   OH2 7493   0.511   5.702   3.956
 2517TIP3    H1 7494   0.472   5.708   4.043
 2517TIP3    H2 7495   0.565   5.781   3.949
 2518TIP3   OH2 7496   0.974   5.906   0.580
 2518TIP3    H1 7497   1.058   5.867   0.558
 2518TIP3    H2 7498   0.910   5.855   0.530
 2519TIP3   OH2 7499   5.622   0.093   4.635
 2519TIP3    H1 7500   5.709   0.124   4.659
 2519TIP3    H2 7501   5.569   0.107   4.714
 2520TIP3   OH2 7502   5.410   4.199   3.435
 2520TIP3    H1 7503   5.488   4.236   3.476
 2520TIP3    H2 7504   5.439   4.174   3.347
 2521TIP3   OH2 7505   0.688   6.835   3.262
 2521TIP3    H1 7506   0.721   6.860   3.348
 2521TIP3    H2 7507   0.688   6.739   3.264
 2522TIP3   OH2 7508   1.632   7.815   1.710
 2522TIP3    H1 7509   1.584   7.817   1.793
 2522TIP3    H2 7510   1.707   7.758   1.727
 2523TIP3   OH2 7511   4.609   7.287   2.568
 2523TIP3    H1 7512   4.606   7.329   2.654
 2523TIP3    H2 7513   4.525   7.242   2.560
 2524TIP3   OH2 7514   2.593   4.454   6.456
 2524TIP3    H1 7515   2.638   4.538   6.460
 2524TIP3    H2 7516   2.550   4.454   6.370
 2525TIP3   OH2 7517   8.166   2.586   6.078
 2525TIP3    H1 7518   8.259   2.565   6.079
 2525TIP3    H2 7519   8.161   2.675   6.043
 2526TIP3   OH2 7520   7.006   6.674   1.949
 2526TIP3    H1 7521   6.956   6.602   1.911
 2526TIP3    H2 7522   6.957   6.753   1.926
 2527TIP3   OH2 7523   2.980   2.229   4.711
 2527TIP3    H1 7524   2.959   2.141   4.744
 2527TIP3    H2 7525   2.985   2.218   4.616
 2528TIP3   OH2 7526   1.782   4.361   5.974
 2528TIP3    H1 7527   1.801   4.445   5.932
 2528TIP3    H2 7528   1.815   4.296   5.913
 2529TIP3   OH2 7529   6.191   3.031   2.384
 2529TIP3    H1 7530   6.132   3.047   2.310
 2529TIP3    H2 7531   6.169   3.100   2.447
 2530TIP3   OH2 7532   6.106   1.083   6.174
 2530TIP3    H1 7533   6.104   1.007   6.115
 2530TIP3    H2 7534   6.019   1.122   6.165
 2531TIP3   OH2 7535   7.109   5.494   6.403
 2531TIP3    H1 7536   7.030   5.539   6.434
 2531TIP3    H2 7537   7.076   5.420   6.353
 2532TIP3   OH2 7538   3.921   4.655   2.633
 2532TIP3    H1 7539   3.924   4.729   2.693
 2532TIP3    H2 7540   3.831   4.657   2.598
 2533TIP3   OH2 7541   0.592   4.077   2.749
 2533TIP3    H1 7542   0.621   3.988   2.767
 2533TIP3    H2 7543   0.533   4.069   2.674
 2534TIP3   OH2 7544   0.322   3.891   0.435
 2534TIP3    H1 7545   0.311   3.877   0.341
 2534TIP3    H2 7546   0.240   3.860   0.474
 2535TIP3   OH2 7547   5.819   5.755   2.526
 2535TIP3    H1 7548   5.888   5.743   2.590
 2535TIP3    H2 7549   5.749   5.800   2.574
 2536TIP3   OH2 7550   7.192   2.533   1.825
 2536TIP3    H1 7551   7.183   2.508   1.733
 2536TIP3    H2 7552   7.145   2.464   1.873
 2537TIP3   OH2 7553   0.492   7.289   6.631
 2537TIP3    H1 7554   0.525   7.379   6.629
 2537TIP3    H2 7555   0.533   7.250   6.708
 2538TIP3   OH2 7556   6.711   5.565   0.258
 2538TIP3    H1 7557   6.802   5.562   0.290
 2538TIP3    H2 7558   6.718   5.548   0.164
 2539TIP3   OH2 7559   8.197   1.058   1.222
 2539TIP3    H1 7560   8.268   1.012   1.178
 2539TIP3    H2 7561   8.161   0.994   1.283
 2540TIP3   OH2 7562   1.541   4.187   4.228
 2540TIP3    H1 7563   1.595   4.112   4.202
 2540TIP3    H2 7564   1.573   4.260   4.175
 2541TIP3   OH2 7565   1.412   4.421   3.843
 2541TIP3    H1 7566   1.427   4.515   3.837
 2541TIP3    H2 7567   1.489   4.382   3.802
 2542TIP3   OH2 7568   3.583   4.882   6.666
 2542TIP3    H1 7569   3.567   4.950   6.601
 2542TIP3    H2 7570   3.503   4.830   6.667
 2543TIP3   OH2 7571   1.551   6.009   0.265
 2543TIP3    H1 7572   1.584   6.080   0.210
 2543TIP3    H2 7573   1.607   5.934   0.245
 2544TIP3   OH2 7574   2.238   2.134   2.962
 2544TIP3    H1 7575   2.279   2.123   3.047
 2544TIP3    H2 7576   2.311   2.138   2.900
 2545TIP3   OH2 7577   3.586   1.528   1.792
 2545TIP3    H1 7578   3.542   1.605   1.830
 2545TIP3    H2 7579   3.600   1.552   1.701
 2546TIP3   OH2 7580   7.379   1.656   5.543
 2546TIP3    H1 7581   7.334   1.579   5.579
 2546TIP3    H2 7582   7.397   1.633   5.452
 2547TIP3   OH2 7583   7.656   5.308   2.496
 2547TIP3    H1 7584   7.731   5.291   2.552
 2547TIP3    H2 7585   7.580   5.291   2.551
 2548TIP3   OH2 7586   1.239   4.149   4.512
 2548TIP3    H1 7587   1.182   4.131   4.437
 2548TIP3    H2 7588   1.189   4.210   4.567
 2549TIP3   OH2 7589   4.084   3.966   0.558
 2549TIP3    H1 7590   4.111   4.045   0.512
 2549TIP3    H2 7591   3.989   3.976   0.569
 2550TIP3   OH2 7592   3.606   2.174   5.776
 2550TIP3    H1 7593   3.608   2.208   5.866
 2550TIP3    H2 7594   3.684   2.211   5.735
 2551TIP3   OH2 7595   6.704   4.564   4.661
 2551TIP3    H1 7596   6.617   4.581   4.624
 2551TIP3    H2 7597   6.686   4.524   4.746
 2552TIP3   OH2 7598   0.000   0.561   0.860
 2552TIP3    H1 7599   0.042   0.607   0.932
 2552TIP3    H2 7600   0.046   0.592   0.782
 2553TIP3   OH2 7601   6.235   5.093   4.300
 2553TIP3    H1 7602   6.311   5.151   4.306
 2553TIP3    H2 7603   6.223   5.059   4.388
 2554TIP3   OH2 7604   1.950   4.999   4.738
 2554TIP3    H1 7605   1.987   5.047   4.664
 2554TIP3    H2 7606   1.938   4.910   4.705
 2555TIP3   OH2 7607   6.433   0.197   5.852
 2555TIP3    H1 7608   6.342   0.221   5.838
 2555TIP3    H2 7609   6.429   0.106   5.882
 2556TIP3   OH2 7610   3.691   6.495   4.285
 2556TIP3    H1 7611   3.631   6.439   4.334
 2556TIP3    H2 7612   3.634   6.542   4.224
 2557TIP3   OH2 7613   4.988   4.989   5.348
 2557TIP3    H1 7614   4.978   5.028   5.262
 2557TIP3    H2 7615   4.996   5.063   5.408
 2558TIP3   OH2 7616   2.969   4.341   0.827
 2558TIP3    H1 7617   2.911   4.286   0.879
 2558TIP3    H2 7618   2.990   4.289   0.750
 2559TIP3   OH2 7619   1.599   2.966   3.953
 2559TIP3    H1 7620   1.627   2.894   3.896
 2559TIP3    H2 7621   1.609   2.932   4.042
 2560TIP3   OH2 7622   5.774   3.197   4.244
 2560TIP3    H1 7623   5.778   3.106   4.215
 2560TIP3    H2 7624   5.795   3.248   4.166
 2561TIP3   OH2 7625   7.556   5.756   3.822
 2561TIP3    H1 7626   7.592   5.843   3.836
 2561TIP3    H2 7627   7.627   5.708   3.778
 2562TIP3   OH2 7628   3.485   6.929   0.372
 2562TIP3    H1 7629   3.511   6.897   0.286
 2562TIP3    H2 7630   3.564   6.921   0.425
 2563TIP3   OH2 7631   1.676   0.262   4.600
 2563TIP3    H1 7632   1.640   0.174   4.589
 2563TIP3    H2 7633   1.755   0.249   4.653
 2564TIP3   OH2 7634   6.447   2.982   2.460
 2564TIP3    H1 7635   6.499   2.965   2.382
 2564TIP3    H2 7636   6.370   3.030   2.429
 2565TIP3   OH2 7637   6.845   5.808   2.830
 2565TIP3    H1 7638   6.830   5.888   2.780
 2565TIP3    H2 7639   6.934   5.816   2.863
 2566TIP3   OH2 7640   6.675   2.857   4.091
 2566TIP3    H1 7641   6.624   2.863   4.172
 2566TIP3    H2 7642   6.608   2.854   4.022
 2567TIP3   OH2 7643   2.526   1.656   3.611
 2567TIP3    H1 7644   2.540   1.746   3.584
 2567TIP3    H2 7645   2.466   1.620   3.546
 2568TIP3   OH2 7646   7.147   1.314   4.430
 2568TIP3    H1 7647   7.226   1.356   4.465
 2568TIP3    H2 7648   7.165   1.305   4.337
 2569TIP3   OH2 7649   6.262   2.938   1.417
 2569TIP3    H1 7650   6.256   3.034   1.417
 2569TIP3    H2 7651   6.224   2.912   1.333
 2570TIP3   OH2 7652   6.659   3.825   4.055
 2570TIP3    H1 7653   6.596   3.893   4.078
 2570TIP3    H2 7654   6.701   3.802   4.138
 2571TIP3   OH2 7655   6.824   0.782   5.669
 2571TIP3    H1 7656   6.865   0.790   5.583
 2571TIP3    H2 7657   6.805   0.688   5.677
 2572TIP3   OH2 7658   4.152   3.801   6.147
 2572TIP3    H1 7659   4.154   3.883   6.196
 2572TIP3    H2 7660   4.212   3.743   6.194
 2573TIP3   OH2 7661   0.841   0.190   5.850
 2573TIP3    H1 7662   0.809   0.262   5.904
 2573TIP3    H2 7663   0.765   0.131   5.842
 2574TIP3   OH2 7664   4.175   2.269   6.346
 2574TIP3    H1 7665   4.214   2.247   6.430
 2574TIP3    H2 7666   4.227   2.221   6.282
 2575TIP3   OH2 7667   7.613   6.471   6.595
 2575TIP3    H1 7668   7.544   6.498   6.655
 2575TIP3    H2 7669   7.683   6.535   6.609
 2576TIP3   OH2 7670   5.195   3.478   4.307
 2576TIP3    H1 7671   5.181   3.395   4.260
 2576TIP3    H2 7672   5.269   3.460   4.365
 2577TIP3   OH2 7673   4.311   7.287   4.737
 2577TIP3    H1 7674   4.247   7.294   4.808
 2577TIP3    H2 7675   4.258   7.274   4.659
 2578TIP3   OH2 7676   1.734   7.601   5.699
 2578TIP3    H1 7677   1.797   7.547   5.746
 2578TIP3    H2 7678   1.649   7.574   5.731
 2579TIP3   OH2 7679   1.240   2.415   3.709
 2579TIP3    H1 7680   1.224   2.360   3.632
 2579TIP3    H2 7681   1.234   2.354   3.783
 2580TIP3   OH2 7682   5.171   2.563   3.513
 2580TIP3    H1 7683   5.253   2.537   3.471
 2580TIP3    H2 7684   5.136   2.482   3.549
 2581TIP3   OH2 7685   1.674   0.976   2.580
 2581TIP3    H1 7686   1.658   1.070   2.577
 2581TIP3    H2 7687   1.690   0.951   2.489
 2582TIP3   OH2 7688   4.256   0.299   6.575
 2582TIP3    H1 7689   4.314   0.356   6.625
 2582TIP3    H2 7690   4.231   0.230   6.636
 2583TIP3   OH2 7691   2.293   6.632   2.160
 2583TIP3    H1 7692   2.222   6.569   2.147
 2583TIP3    H2 7693   2.275   6.671   2.246
 2584TIP3   OH2 7694   2.247   1.133   3.411
 2584TIP3    H1 7695   2.268   1.217   3.371
 2584TIP3    H2 7696   2.279   1.140   3.501
 2585TIP3   OH2 7697   7.863   4.902   3.505
 2585TIP3    H1 7698   7.891   4.969   3.443
 2585TIP3    H2 7699   7.767   4.910   3.507
 2586TIP3   OH2 7700   6.071   2.150   1.549
 2586TIP3    H1 7701   6.106   2.100   1.476
 2586TIP3    H2 7702   6.061   2.239   1.515
 2587TIP3   OH2 7703   1.438   2.591   3.734
 2587TIP3    H1 7704   1.488   2.574   3.655
 2587TIP3    H2 7705   1.352   2.553   3.718
 2588TIP3   OH2 7706   0.152   5.918   3.860
 2588TIP3    H1 7707   0.167   6.007   3.827
 2588TIP3    H2 7708   0.147   5.927   3.955
 2589TIP3   OH2 7709   2.367   1.762   2.926
 2589TIP3    H1 7710   2.435   1.772   2.860
 2589TIP3    H2 7711   2.286   1.754   2.876
 2590TIP3   OH2 7712   0.600   5.617   5.822
 2590TIP3    H1 7713   0.514   5.650   5.795
 2590TIP3    H2 7714   0.636   5.576   5.743
 2591TIP3   OH2 7715   5.639   2.667   5.282
 2591TIP3    H1 7716   5.723   2.629   5.258
 2591TIP3    H2 7717   5.624   2.736   5.217
 2592TIP3   OH2 7718   6.498   3.160   3.339
 2592TIP3    H1 7719   6.564   3.198   3.397
 2592TIP3    H2 7720   6.528   3.179   3.251
 2593TIP3   OH2 7721   4.317   0.376   1.182
 2593TIP3    H1 7722   4.363   0.312   1.236
 2593TIP3    H2 7723   4.289   0.444   1.243
 2594TIP3   OH2 7724   0.986   4.767   3.272
 2594TIP3    H1 7725   1.011   4.857   3.252
 2594TIP3    H2 7726   1.023   4.750   3.359
 2595TIP3   OH2 7727   1.687   7.173   3.608
 2595TIP3    H1 7728   1.682   7.218   3.524
 2595TIP3    H2 7729   1.692   7.243   3.674
 2596TIP3   OH2 7730   2.197   6.917   6.182
 2596TIP3    H1 7731   2.277   6.961   6.154
 2596TIP3    H2 7732   2.208   6.907   6.277
 2597TIP3   OH2 7733   4.628   2.517   3.561
 2597TIP3    H1 7734   4.687   2.548   3.493
 2597TIP3    H2 7735   4.568   2.457   3.516
 2598TIP3   OH2 7736   0.610   3.015   5.311
 2598TIP3    H1 7737   0.564   2.941   5.349
 2598TIP3    H2 7738   0.554   3.090   5.328
 2599TIP3   OH2 7739   2.628   2.331   6.031
 2599TIP3    H1 7740   2.553   2.387   6.048
 2599TIP3    H2 7741   2.703   2.389   6.035
 2600TIP3   OH2 7742   4.862   0.915   2.181
 2600TIP3    H1 7743   4.932   0.855   2.156
 2600TIP3    H2 7744   4.782   0.872   2.150
 2601TIP3   OH2 7745   1.483   1.676   6.268
 2601TIP3    H1 7746   1.473   1.761   6.311
 2601TIP3    H2 7747   1.543   1.628   6.324
 2602TIP3   OH2 7748   5.980   2.375   2.122
 2602TIP3    H1 7749   6.075   2.388   2.125
 2602TIP3    H2 7750   5.943   2.462   2.138
 2603TIP3   OH2 7751   7.705   0.763   5.018
 2603TIP3    H1 7752   7.742   0.724   4.939
 2603TIP3    H2 7753   7.715   0.858   5.004
 2604TIP3   OH2 7754   3.931   0.034   6.404
 2604TIP3    H1 7755   3.853   0.084   6.381
 2604TIP3    H2 7756   3.958   0.070   6.489
 2605TIP3   OH2 7757   7.906   6.002   3.104
 2605TIP3    H1 7758   7.948   5.966   3.027
 2605TIP3    H2 7759   7.901   5.929   3.166
 2606TIP3   OH2 7760   4.577   4.990   5.417
 2606TIP3    H1 7761   4.631   5.069   5.420
 2606TIP3    H2 7762   4.606   4.938   5.492
 2607TIP3   OH2 7763   6.305   0.998   6.751
 2607TIP3    H1 7764   6.400   1.014   6.753
 2607TIP3    H2 7765   6.297   0.905   6.730
 2608TIP3   OH2 7766   3.838   4.161   3.831
 2608TIP3    H1 7767   3.782   4.213   3.773
 2608TIP3    H2 7768   3.834   4.207   3.914
 2609TIP3   OH2 7769   6.127   0.632   0.647
 2609TIP3    H1 7770   6.219   0.611   0.626
 2609TIP3    H2 7771   6.116   0.602   0.737
 2610TIP3   OH2 7772   4.402   5.013   2.436
 2610TIP3    H1 7773   4.481   5.035   2.486
 2610TIP3    H2 7774   4.344   4.972   2.501
 2611TIP3   OH2 7775   3.318   5.094   1.247
 2611TIP3    H1 7776   3.315   5.013   1.298
 2611TIP3    H2 7777   3.281   5.160   1.306
 2612TIP3   OH2 7778   6.014   4.797   5.335
 2612TIP3    H1 7779   5.966   4.758   5.409
 2612TIP3    H2 7780   5.946   4.840   5.283
 2613TIP3   OH2 7781   0.462   7.058   4.401
 2613TIP3    H1 7782   0.512   6.983   4.368
 2613TIP3    H2 7783   0.521   7.132   4.390
 2614TIP3   OH2 7784   1.178   1.606   3.386
 2614TIP3    H1 7785   1.201   1.688   3.341
 2614TIP3    H2 7786   1.257   1.582   3.435
 2615TIP3   OH2 7787   7.053   0.711   1.899
 2615TIP3    H1 7788   7.132   0.691   1.950
 2615TIP3    H2 7789   7.047   0.806   1.901
 2616TIP3   OH2 7790   7.035   2.467   3.533
 2616TIP3    H1 7791   7.011   2.479   3.441
 2616TIP3    H2 7792   7.027   2.555   3.571
 2617TIP3   OH2 7793   1.861   7.358   1.266
 2617TIP3    H1 7794   1.769   7.344   1.285
 2617TIP3    H2 7795   1.873   7.453   1.276
 2618TIP3   OH2 7796   7.998   3.778   5.746
 2618TIP3    H1 7797   7.905   3.763   5.766
 2618TIP3    H2 7798   8.017   3.717   5.675
 2619TIP3   OH2 7799   4.225   7.306   0.063
 2619TIP3    H1 7800   4.251   7.246  -0.007
 2619TIP3    H2 7801   4.265   7.268   0.142
 2620TIP3   OH2 7802   8.199   2.722   4.497
 2620TIP3    H1 7803   8.218   2.815   4.509
 2620TIP3    H2 7804   8.186   2.689   4.586
 2621TIP3   OH2 7805   4.024   2.502   2.748
 2621TIP3    H1 7806   3.950   2.562   2.759
 2621TIP3    H2 7807   4.087   2.551   2.694
 2622TIP3   OH2 7808   6.144   5.081   4.672
 2622TIP3    H1 7809   6.196   5.007   4.641
 2622TIP3    H2 7810   6.076   5.041   4.726
 2623TIP3   OH2 7811   5.569   0.877   1.144
 2623TIP3    H1 7812   5.588   0.837   1.229
 2623TIP3    H2 7813   5.516   0.812   1.098
 2624TIP3   OH2 7814   5.938   5.498   0.662
 2624TIP3    H1 7815   5.857   5.503   0.613
 2624TIP3    H2 7816   5.912   5.504   0.754
 2625TIP3   OH2 7817   1.924   4.752   1.280
 2625TIP3    H1 7818   1.933   4.727   1.188
 2625TIP3    H2 7819   1.951   4.674   1.329
 2626TIP3   OH2 7820   7.402   1.886   6.451
 2626TIP3    H1 7821   7.452   1.881   6.370
 2626TIP3    H2 7822   7.310   1.884   6.423
 2627TIP3   OH2 7823   5.580   4.112   1.403
 2627TIP3    H1 7824   5.611   4.082   1.488
 2627TIP3    H2 7825   5.550   4.032   1.359
 2628TIP3   OH2 7826   2.186   1.222   2.989
 2628TIP3    H1 7827   2.205   1.133   2.960
 2628TIP3    H2 7828   2.193   1.275   2.910
 2629TIP3   OH2 7829   3.228   7.182   0.794
 2629TIP3    H1 7830   3.261   7.123   0.726
 2629TIP3    H2 7831   3.307   7.217   0.836
 2630TIP3   OH2 7832   3.441   7.394   1.462
 2630TIP3    H1 7833   3.386   7.460   1.504
 2630TIP3    H2 7834   3.492   7.444   1.398
 2631TIP3   OH2 7835   4.430   5.660   2.948
 2631TIP3    H1 7836   4.434   5.667   2.853
 2631TIP3    H2 7837   4.339   5.636   2.967
 2632TIP3   OH2 7838   4.178   7.362   4.961
 2632TIP3    H1 7839   4.120   7.326   5.028
 2632TIP3    H2 7840   4.212   7.443   4.999
 2633TIP3   OH2 7841   2.152   7.726   0.045
 2633TIP3    H1 7842   2.196   7.694  -0.033
 2633TIP3    H2 7843   2.194   7.810   0.063
 2634TIP3   OH2 7844   1.509   5.527   2.310
 2634TIP3    H1 7845   1.504   5.603   2.367
 2634TIP3    H2 7846   1.545   5.457   2.365
 2635TIP3   OH2 7847   7.896   4.610   4.778
 2635TIP3    H1 7848   7.900   4.561   4.860
 2635TIP3    H2 7849   7.906   4.702   4.804
 2636TIP3   OH2 7850   3.060   4.936   6.736
 2636TIP3    H1 7851   3.075   5.026   6.708
 2636TIP3    H2 7852   3.011   4.944   6.818
 2637TIP3   OH2 7853   4.429   6.569   1.363
 2637TIP3    H1 7854   4.448   6.607   1.449
 2637TIP3    H2 7855   4.501   6.598   1.307
 2638TIP3   OH2 7856   3.674   0.719   0.733
 2638TIP3    H1 7857   3.731   0.789   0.703
 2638TIP3    H2 7858   3.730   0.664   0.788
 2639TIP3   OH2 7859   3.856   0.866   2.989
 2639TIP3    H1 7860   3.878   0.773   2.994
 2639TIP3    H2 7861   3.889   0.903   3.070
 2640TIP3   OH2 7862   7.138   7.226   3.061
 2640TIP3    H1 7863   7.173   7.262   2.979
 2640TIP3    H2 7864   7.205   7.244   3.126
 2641TIP3   OH2 7865   0.589   0.636   0.295
 2641TIP3    H1 7866   0.603   0.548   0.261
 2641TIP3    H2 7867   0.498   0.636   0.326
 2642TIP3   OH2 7868   7.119   3.105   1.117
 2642TIP3    H1 7869   7.121   3.009   1.116
 2642TIP3    H2 7870   7.144   3.129   1.206
 2643TIP3   OH2 7871   0.763   0.788   5.828
 2643TIP3    H1 7872   0.750   0.693   5.825
 2643TIP3    H2 7873   0.737   0.813   5.917
 2644TIP3   OH2 7874   6.540   1.828   4.478
 2644TIP3    H1 7875   6.507   1.910   4.514
 2644TIP3    H2 7876   6.473   1.801   4.415
 2645TIP3   OH2 7877   3.221   1.803   5.676
 2645TIP3    H1 7878   3.242   1.843   5.760
 2645TIP3    H2 7879   3.291   1.739   5.661
 2646TIP3   OH2 7880   6.662   0.988   5.164
 2646TIP3    H1 7881   6.571   1.004   5.186
 2646TIP3    H2 7882   6.710   1.062   5.200
 2647TIP3   OH2 7883   4.568   2.713   5.429
 2647TIP3    H1 7884   4.491   2.757   5.465
 2647TIP3    H2 7885   4.638   2.732   5.490
 2648TIP3   OH2 7886   0.973   3.717   4.797
 2648TIP3    H1 7887   0.959   3.783   4.729
 2648TIP3    H2 7888   0.894   3.720   4.850
 2649TIP3   OH2 7889   3.651   1.406   6.052
 2649TIP3    H1 7890   3.586   1.475   6.065
 2649TIP3    H2 7891   3.599   1.326   6.041
 2650TIP3   OH2 7892   2.077   7.448   1.453
 2650TIP3    H1 7893   2.012   7.380   1.435
 2650TIP3    H2 7894   2.052   7.520   1.395
 2651TIP3   OH2 7895   5.717   4.279   5.012
 2651TIP3    H1 7896   5.722   4.231   4.930
 2651TIP3    H2 7897   5.732   4.370   4.988
 2652TIP3   OH2 7898   1.156   1.578   4.916
 2652TIP3    H1 7899   1.066   1.589   4.884
 2652TIP3    H2 7900   1.206   1.558   4.838
 2653TIP3   OH2 7901   5.761   1.220   4.023
 2653TIP3    H1 7902   5.702   1.291   3.997
 2653TIP3    H2 7903   5.732   1.145   3.972
 2654TIP3   OH2 7904   6.767   4.775   4.852
 2654TIP3    H1 7905   6.752   4.721   4.775
 2654TIP3    H2 7906   6.768   4.865   4.819
 2655TIP3   OH2 7907   2.234   7.804   0.707
 2655TIP3    H1 7908   2.298   7.796   0.777
 2655TIP3    H2 7909   2.171   7.734   0.723
 2656TIP3   OH2 7910   4.651   7.731   1.624
 2656TIP3    H1 7911   4.607   7.710   1.542
 2656TIP3    H2 7912   4.740   7.756   1.597
 2657TIP3   OH2 7913   4.484   2.993   6.048
 2657TIP3    H1 7914   4.579   3.002   6.054
 2657TIP3    H2 7915   4.460   2.938   6.123
 2658TIP3   OH2 7916   8.258   2.641   1.062
 2658TIP3    H1 7917   8.300   2.558   1.041
 2658TIP3    H2 7918   8.316   2.708   1.026
 2659TIP3   OH2 7919   4.409   2.142   5.121
 2659TIP3    H1 7920   4.492   2.122   5.165
 2659TIP3    H2 7921   4.395   2.235   5.138
 2660TIP3   OH2 7922   4.344   3.243   4.305
 2660TIP3    H1 7923   4.390   3.215   4.385
 2660TIP3    H2 7924   4.383   3.190   4.235
 2661TIP3   OH2 7925   8.160   5.227   2.648
 2661TIP3    H1 7926   8.152   5.139   2.611
 2661TIP3    H2 7927   8.190   5.281   2.575
 2662TIP3   OH2 7928   6.005   7.040   0.141
 2662TIP3    H1 7929   6.044   7.004   0.221
 2662TIP3    H2 7930   5.924   7.082   0.170
 2663TIP3   OH2 7931   5.440   1.286   1.284
 2663TIP3    H1 7932   5.527   1.301   1.322
 2663TIP3    H2 7933   5.381   1.334   1.341
 2664TIP3   OH2 7934   5.659   1.525   4.223
 2664TIP3    H1 7935   5.749   1.546   4.244
 2664TIP3    H2 7936   5.619   1.501   4.306
 2665TIP3   OH2 7937   0.679   5.201   2.104
 2665TIP3    H1 7938   0.599   5.228   2.059
 2665TIP3    H2 7939   0.711   5.282   2.146
 2666TIP3   OH2 7940   7.196   0.893   1.407
 2666TIP3    H1 7941   7.117   0.839   1.416
 2666TIP3    H2 7942   7.165   0.971   1.360
 2667TIP3   OH2 7943   2.459   2.491   1.088
 2667TIP3    H1 7944   2.523   2.437   1.042
 2667TIP3    H2 7945   2.412   2.429   1.145
 2668TIP3   OH2 7946   6.640   1.814   2.560
 2668TIP3    H1 7947   6.614   1.860   2.480
 2668TIP3    H2 7948   6.711   1.867   2.596
 2669TIP3   OH2 7949   6.958   4.327   6.071
 2669TIP3    H1 7950   6.908   4.295   6.146
 2669TIP3    H2 7951   6.897   4.380   6.021
 2670TIP3   OH2 7952   4.526   0.771   1.728
 2670TIP3    H1 7953   4.530   0.855   1.773
 2670TIP3    H2 7954   4.508   0.792   1.637
 2671TIP3   OH2 7955   1.554   3.218   6.674
 2671TIP3    H1 7956   1.611   3.166   6.732
 2671TIP3    H2 7957   1.521   3.154   6.610
 2672TIP3   OH2 7958   2.868   4.848   4.785
 2672TIP3    H1 7959   2.848   4.931   4.828
 2672TIP3    H2 7960   2.938   4.869   4.723
 2673TIP3   OH2 7961   1.594   1.781   4.261
 2673TIP3    H1 7962   1.532   1.742   4.323
 2673TIP3    H2 7963   1.539   1.819   4.193
 2674TIP3   OH2 7964   3.413   5.094   0.545
 2674TIP3    H1 7965   3.445   5.052   0.626
 2674TIP3    H2 7966   3.330   5.134   0.570
 2675TIP3   OH2 7967   7.351   7.214   0.194
 2675TIP3    H1 7968   7.298   7.208   0.114
 2675TIP3    H2 7969   7.287   7.228   0.263
 2676TIP3   OH2 7970   0.037   1.679   3.851
 2676TIP3    H1 7971   0.075   1.645   3.932
 2676TIP3    H2 7972   0.024   1.772   3.868
 2677TIP3   OH2 7973   3.021   0.969   4.335
 2677TIP3    H1 7974   2.995   0.880   4.357
 2677TIP3    H2 7975   2.948   1.024   4.366
 2678TIP3   OH2 7976   8.040   4.808   6.827
 2678TIP3    H1 7977   8.076   4.748   6.762
 2678TIP3    H2 7978   7.991   4.873   6.775
 2679TIP3   OH2 7979   4.613   0.201   5.487
 2679TIP3    H1 7980   4.610   0.278   5.430
 2679TIP3    H2 7981   4.668   0.139   5.441
 2680TIP3   OH2 7982   4.588   6.669   4.804
 2680TIP3    H1 7983   4.652   6.715   4.857
 2680TIP3    H2 7984   4.640   6.623   4.738
 2681TIP3   OH2 7985   5.390   2.930   0.597
 2681TIP3    H1 7986   5.399   2.873   0.673
 2681TIP3    H2 7987   5.317   2.893   0.548
 2682TIP3   OH2 7988   1.229   2.200   3.900
 2682TIP3    H1 7989   1.206   2.129   3.840
 2682TIP3    H2 7990   1.161   2.198   3.967
 2683TIP3   OH2 7991   0.814   3.009   4.556
 2683TIP3    H1 7992   0.864   2.933   4.525
 2683TIP3    H2 7993   0.877   3.058   4.610
 2684TIP3   OH2 7994   0.921   1.724   2.692
 2684TIP3    H1 7995   0.845   1.672   2.666
 2684TIP3    H2 7996   0.965   1.670   2.758
 2685TIP3   OH2 7997   2.759   7.268   6.677
 2685TIP3    H1 7998   2.723   7.180   6.687
 2685TIP3    H2 7999   2.816   7.280   6.753
 2686TIP3   OH2 8000   7.921   6.601   6.691
 2686TIP3    H1 8001   7.935   6.568   6.779
 2686TIP3    H2 8002   7.905   6.695   6.703
 2687TIP3   OH2 8003   4.632   0.414   5.986
 2687TIP3    H1 8004   4.714   0.437   6.029
 2687TIP3    H2 8005   4.656   0.392   5.896
 2688TIP3   OH2 8006   3.919   6.179   4.310
 2688TIP3    H1 8007   3.987   6.115   4.328
 2688TIP3    H2 8008   3.840   6.144   4.352
 2689TIP3   OH2 8009   4.260   2.643   0.190
 2689TIP3    H1 8010   4.180   2.665   0.143
 2689TIP3    H2 8011   4.266   2.709   0.259
 2690TIP3   OH2 8012   6.150   7.690   3.441
 2690TIP3    H1 8013   6.062   7.701   3.476
 2690TIP3    H2 8014   6.187   7.778   3.438
 2691TIP3   OH2 8015   4.608   1.158   2.550
 2691TIP3    H1 8016   4.670   1.164   2.477
 2691TIP3    H2 8017   4.625   1.072   2.589
 2692TIP3   OH2 8018   4.567   6.057   1.100
 2692TIP3    H1 8019   4.619   5.996   1.152
 2692TIP3    H2 8020   4.631   6.102   1.044
 2693TIP3   OH2 8021   7.761   4.446   5.351
 2693TIP3    H1 8022   7.729   4.503   5.281
 2693TIP3    H2 8023   7.691   4.381   5.362
 2694TIP3   OH2 8024   0.773   7.433   3.656
 2694TIP3    H1 8025   0.692   7.454   3.703
 2694TIP3    H2 8026   0.744   7.378   3.583
 2695TIP3   OH2 8027   8.072   4.424   3.933
 2695TIP3    H1 8028   8.077   4.519   3.917
 2695TIP3    H2 8029   7.981   4.410   3.958
 2696TIP3   OH2 8030   1.431   7.664   4.180
 2696TIP3    H1 8031   1.414   7.750   4.142
 2696TIP3    H2 8032   1.503   7.680   4.242
 2697TIP3   OH2 8033   0.248   3.610   2.875
 2697TIP3    H1 8034   0.204   3.526   2.883
 2697TIP3    H2 8035   0.177   3.672   2.855
 2698TIP3   OH2 8036   1.550   0.662   2.920
 2698TIP3    H1 8037   1.563   0.594   2.986
 2698TIP3    H2 8038   1.545   0.744   2.969
 2699TIP3   OH2 8039   0.546   3.571   1.161
 2699TIP3    H1 8040   0.469   3.627   1.149
 2699TIP3    H2 8041   0.614   3.630   1.193
 2700TIP3   OH2 8042   3.739   3.414   4.860
 2700TIP3    H1 8043   3.812   3.400   4.920
 2700TIP3    H2 8044   3.671   3.455   4.914
 2701TIP3   OH2 8045   4.137   0.560   3.613
 2701TIP3    H1 8046   4.190   0.493   3.569
 2701TIP3    H2 8047   4.046   0.535   3.593
 2702TIP3   OH2 8048   8.239   5.919   5.783
 2702TIP3    H1 8049   8.190   5.840   5.761
 2702TIP3    H2 8050   8.315   5.918   5.725
 2703TIP3   OH2 8051   7.746   3.728   5.828
 2703TIP3    H1 8052   7.751   3.703   5.920
 2703TIP3    H2 8053   7.659   3.765   5.818
 2704TIP3   OH2 8054   3.447   2.814   4.532
 2704TIP3    H1 8055   3.445   2.731   4.580
 2704TIP3    H2 8056   3.491   2.875   4.591
 2705TIP3   OH2 8057   7.908   2.806   5.135
 2705TIP3    H1 8058   7.953   2.886   5.106
 2705TIP3    H2 8059   7.977   2.740   5.141
 2706TIP3   OH2 8060   3.175   7.557   3.696
 2706TIP3    H1 8061   3.236   7.501   3.746
 2706TIP3    H2 8062   3.229   7.595   3.627
 2707TIP3   OH2 8063   7.502   5.800   0.671
 2707TIP3    H1 8064   7.572   5.802   0.736
 2707TIP3    H2 8065   7.432   5.852   0.711
 2708TIP3   OH2 8066   5.319   0.346   2.112
 2708TIP3    H1 8067   5.403   0.386   2.136
 2708TIP3    H2 8068   5.319   0.261   2.156
 2709TIP3   OH2 8069   3.456   2.877   1.317
 2709TIP3    H1 8070   3.402   2.827   1.379
 2709TIP3    H2 8071   3.497   2.810   1.262
 2710TIP3   OH2 8072   0.740   7.543   4.926
 2710TIP3    H1 8073   0.823   7.507   4.894
 2710TIP3    H2 8074   0.736   7.631   4.888
 2711TIP3   OH2 8075   6.925   6.335   6.057
 2711TIP3    H1 8076   6.951   6.250   6.021
 2711TIP3    H2 8077   7.004   6.387   6.056
 2712TIP3   OH2 8078   7.829   6.460   4.041
 2712TIP3    H1 8079   7.800   6.442   4.131
 2712TIP3    H2 8080   7.904   6.401   4.029
 2713TIP3   OH2 8081   2.133   7.460   1.719
 2713TIP3    H1 8082   2.092   7.487   1.637
 2713TIP3    H2 8083   2.204   7.401   1.692
 2714TIP3   OH2 8084   5.119   4.933   4.708
 2714TIP3    H1 8085   5.064   4.983   4.768
 2714TIP3    H2 8086   5.144   4.855   4.757
 2715TIP3   OH2 8087   5.884   5.434   3.839
 2715TIP3    H1 8088   5.894   5.359   3.781
 2715TIP3    H2 8089   5.893   5.398   3.928
 2716TIP3   OH2 8090   4.338   1.114   1.774
 2716TIP3    H1 8091   4.340   1.069   1.689
 2716TIP3    H2 8092   4.250   1.098   1.808
 2717TIP3   OH2 8093   0.212   2.237   0.883
 2717TIP3    H1 8094   0.205   2.319   0.834
 2717TIP3    H2 8095   0.190   2.261   0.973
 2718TIP3   OH2 8096   1.608   6.790   3.834
 2718TIP3    H1 8097   1.695   6.799   3.873
 2718TIP3    H2 8098   1.598   6.696   3.819
 2719TIP3   OH2 8099   1.994   3.155   1.036
 2719TIP3    H1 8100   2.014   3.083   1.094
 2719TIP3    H2 8101   2.030   3.232   1.079
 2720TIP3   OH2 8102   7.979   4.902   2.990
 2720TIP3    H1 8103   8.008   4.817   2.956
 2720TIP3    H2 8104   7.998   4.898   3.084
 2721TIP3   OH2 8105   0.958   0.125   2.468
 2721TIP3    H1 8106   0.978   0.035   2.494
 2721TIP3    H2 8107   0.897   0.115   2.394
 2722TIP3   OH2 8108   5.734   1.024   5.261
 2722TIP3    H1 8109   5.756   1.054   5.172
 2722TIP3    H2 8110   5.746   0.929   5.257
 2723TIP3   OH2 8111   7.504   2.792   6.545
 2723TIP3    H1 8112   7.591   2.776   6.582
 2723TIP3    H2 8113   7.521   2.823   6.456
 2724TIP3   OH2 8114   7.774   1.903   2.035
 2724TIP3    H1 8115   7.746   1.820   1.998
 2724TIP3    H2 8116   7.808   1.882   2.122
 2725TIP3   OH2 8117   0.293   4.363   6.475
 2725TIP3    H1 8118   0.274   4.276   6.511
 2725TIP3    H2 8119   0.270   4.423   6.546
 2726TIP3   OH2 8120   3.890   5.556   6.296
 2726TIP3    H1 8121   3.890   5.582   6.204
 2726TIP3    H2 8122   3.882   5.638   6.344
 2727TIP3   OH2 8123   3.939   6.677   5.222
 2727TIP3    H1 8124   3.947   6.739   5.295
 2727TIP3    H2 8125   3.903   6.728   5.150
 2728TIP3   OH2 8126   0.512   3.455   2.318
 2728TIP3    H1 8127   0.508   3.543   2.354
 2728TIP3    H2 8128   0.428   3.443   2.274
 2729TIP3   OH2 8129   6.264   4.454   1.989
 2729TIP3    H1 8130   6.210   4.531   2.010
 2729TIP3    H2 8131   6.316   4.439   2.068
 2730TIP3   OH2 8132   8.188   7.328   0.108
 2730TIP3    H1 8133   8.154   7.378   0.034
 2730TIP3    H2 8134   8.112   7.313   0.165
 2731TIP3   OH2 8135   5.875   6.916   5.005
 2731TIP3    H1 8136   5.803   6.911   4.941
 2731TIP3    H2 8137   5.832   6.921   5.090
 2732TIP3   OH2 8138   4.766   0.242   1.436
 2732TIP3    H1 8139   4.842   0.239   1.377
 2732TIP3    H2 8140   4.760   0.153   1.471
 2733TIP3   OH2 8141   0.150   3.368   2.957
 2733TIP3    H1 8142   0.128   3.386   3.048
 2733TIP3    H2 8143   0.124   3.276   2.944
 2734TIP3   OH2 8144   4.797   3.386   5.228
 2734TIP3    H1 8145   4.756   3.400   5.313
 2734TIP3    H2 8146   4.889   3.370   5.247
 2735TIP3   OH2 8147   1.532   2.224   5.830
 2735TIP3    H1 8148   1.556   2.315   5.850
 2735TIP3    H2 8149   1.532   2.221   5.734
 2736TIP3   OH2 8150   3.932   4.961   3.288
 2736TIP3    H1 8151   3.863   4.971   3.354
 2736TIP3    H2 8152   4.006   4.924   3.336
 2737TIP3   OH2 8153   7.644   1.313   3.711
 2737TIP3    H1 8154   7.622   1.265   3.632
 2737TIP3    H2 8155   7.687   1.393   3.679
 2738TIP3   OH2 8156   1.977   5.834   5.257
 2738TIP3    H1 8157   1.925   5.763   5.220
 2738TIP3    H2 8158   1.942   5.846   5.345
 2739TIP3   OH2 8159   1.780   6.700   4.699
 2739TIP3    H1 8160   1.719   6.664   4.764
 2739TIP3    H2 8161   1.857   6.724   4.750
 2740TIP3   OH2 8162   6.076   2.583   4.300
 2740TIP3    H1 8163   6.156   2.589   4.247
 2740TIP3    H2 8164   6.107   2.557   4.387
 2741TIP3   OH2 8165   8.057   7.420   5.213
 2741TIP3    H1 8166   8.036   7.326   5.217
 2741TIP3    H2 8167   7.976   7.464   5.237
 2742TIP3   OH2 8168   7.634   6.355   3.779
 2742TIP3    H1 8169   7.563   6.377   3.719
 2742TIP3    H2 8170   7.591   6.340   3.863
 2743TIP3   OH2 8171   6.888   3.414   3.853
 2743TIP3    H1 8172   6.795   3.435   3.848
 2743TIP3    H2 8173   6.895   3.326   3.818
 2744TIP3   OH2 8174   4.628   3.256   4.152
 2744TIP3    H1 8175   4.619   3.262   4.247
 2744TIP3    H2 8176   4.642   3.347   4.125
 2745TIP3   OH2 8177   5.347   6.194   0.092
 2745TIP3    H1 8178   5.284   6.168   0.025
 2745TIP3    H2 8179   5.405   6.119   0.101
 2746TIP3   OH2 8180   6.151   2.081   3.912
 2746TIP3    H1 8181   6.168   2.033   3.830
 2746TIP3    H2 8182   6.232   2.071   3.962
 2747TIP3   OH2 8183   5.500   4.434   4.806
 2747TIP3    H1 8184   5.417   4.419   4.852
 2747TIP3    H2 8185   5.518   4.527   4.820
 2748TIP3   OH2 8186   2.422   4.549   5.455
 2748TIP3    H1 8187   2.327   4.543   5.445
 2748TIP3    H2 8188   2.440   4.505   5.538
 2749TIP3   OH2 8189   2.367   3.023   3.200
 2749TIP3    H1 8190   2.382   3.104   3.250
 2749TIP3    H2 8191   2.375   3.050   3.108
 2750TIP3   OH2 8192   6.159   6.247   3.372
 2750TIP3    H1 8193   6.101   6.281   3.441
 2750TIP3    H2 8194   6.210   6.179   3.415
 2751TIP3   OH2 8195   0.828   0.090   1.482
 2751TIP3    H1 8196   0.800   0.106   1.572
 2751TIP3    H2 8197   0.801   0.168   1.434
 2752TIP3   OH2 8198   0.751   6.628   4.730
 2752TIP3    H1 8199   0.746   6.642   4.825
 2752TIP3    H2 8200   0.688   6.690   4.693
 2753TIP3   OH2 8201   7.776   1.530   2.598
 2753TIP3    H1 8202   7.807   1.553   2.510
 2753TIP3    H2 8203   7.694   1.579   2.608
 2754TIP3   OH2 8204   6.580   4.517   0.400
 2754TIP3    H1 8205   6.644   4.563   0.454
 2754TIP3    H2 8206   6.544   4.450   0.458
 2755TIP3   OH2 8207   7.341   4.041   5.276
 2755TIP3    H1 8208   7.369   3.966   5.223
 2755TIP3    H2 8209   7.358   4.117   5.220
 2756TIP3   OH2 8210   5.140   6.552   0.800
 2756TIP3    H1 8211   5.161   6.494   0.727
 2756TIP3    H2 8212   5.154   6.640   0.765
 2757TIP3   OH2 8213   5.255   6.807   5.410
 2757TIP3    H1 8214   5.283   6.754   5.484
 2757TIP3    H2 8215   5.265   6.750   5.334
 2758TIP3   OH2 8216   3.278   5.577   5.463
 2758TIP3    H1 8217   3.374   5.582   5.466
 2758TIP3    H2 8218   3.256   5.604   5.375
 2759TIP3   OH2 8219   2.237   7.493   5.630
 2759TIP3    H1 8220   2.174   7.490   5.702
 2759TIP3    H2 8221   2.204   7.429   5.567
 2760TIP3   OH2 8222   4.718   1.655   2.097
 2760TIP3    H1 8223   4.721   1.560   2.085
 2760TIP3    H2 8224   4.675   1.667   2.181
 2761TIP3   OH2 8225   6.110   4.500   2.668
 2761TIP3    H1 8226   6.036   4.439   2.663
 2761TIP3    H2 8227   6.172   4.458   2.727
 2762TIP3   OH2 8228   3.529   7.558   0.958
 2762TIP3    H1 8229   3.485   7.474   0.971
 2762TIP3    H2 8230   3.504   7.585   0.870
 2763TIP3   OH2 8231   3.612   6.631   0.983
 2763TIP3    H1 8232   3.617   6.681   0.901
 2763TIP3    H2 8233   3.521   6.640   1.011
 2764TIP3   OH2 8234   3.940   1.001   3.603
 2764TIP3    H1 8235   3.857   0.953   3.600
 2764TIP3    H2 8236   4.002   0.945   3.556
 2765TIP3   OH2 8237   4.369   3.069   5.094
 2765TIP3    H1 8238   4.416   3.015   5.032
 2765TIP3    H2 8239   4.290   3.098   5.047
 2766TIP3   OH2 8240   6.512   4.859   6.295
 2766TIP3    H1 8241   6.555   4.825   6.373
 2766TIP3    H2 8242   6.449   4.790   6.271
 2767TIP3   OH2 8243   0.220   6.971   5.482
 2767TIP3    H1 8244   0.208   6.934   5.395
 2767TIP3    H2 8245   0.153   6.929   5.536
 2768TIP3   OH2 8246   3.213   7.277   3.424
 2768TIP3    H1 8247   3.286   7.339   3.428
 2768TIP3    H2 8248   3.140   7.329   3.390
 2769TIP3   OH2 8249   2.785   1.282   6.419
 2769TIP3    H1 8250   2.860   1.225   6.435
 2769TIP3    H2 8251   2.800   1.319   6.332
 2770TIP3   OH2 8252   2.271   3.899   6.295
 2770TIP3    H1 8253   2.308   3.885   6.208
 2770TIP3    H2 8254   2.177   3.907   6.279
 2771TIP3   OH2 8255   3.156   5.296   5.523
 2771TIP3    H1 8256   3.201   5.379   5.505
 2771TIP3    H2 8257   3.094   5.317   5.593
 2772TIP3   OH2 8258   4.113   4.622   4.547
 2772TIP3    H1 8259   4.025   4.588   4.530
 2772TIP3    H2 8260   4.130   4.598   4.638
 2773TIP3   OH2 8261   7.916   3.907   2.975
 2773TIP3    H1 8262   7.942   3.816   2.987
 2773TIP3    H2 8263   7.987   3.947   2.926
 2774TIP3   OH2 8264   7.024   7.128   6.730
 2774TIP3    H1 8265   7.024   7.035   6.755
 2774TIP3    H2 8266   6.966   7.170   6.792
 2775TIP3   OH2 8267   5.668   2.602   0.377
 2775TIP3    H1 8268   5.727   2.610   0.303
 2775TIP3    H2 8269   5.691   2.674   0.434
 2776TIP3   OH2 8270   1.715   7.658   4.294
 2776TIP3    H1 8271   1.765   7.621   4.220
 2776TIP3    H2 8272   1.775   7.652   4.368
 2777TIP3   OH2 8273   4.410   7.400   2.751
 2777TIP3    H1 8274   4.336   7.460   2.743
 2777TIP3    H2 8275   4.374   7.314   2.731
 2778TIP3   OH2 8276   6.159   2.693   3.577
 2778TIP3    H1 8277   6.154   2.619   3.517
 2778TIP3    H2 8278   6.091   2.753   3.545
 2779TIP3   OH2 8279   2.324   5.814   2.340
 2779TIP3    H1 8280   2.291   5.728   2.365
 2779TIP3    H2 8281   2.373   5.845   2.416
 2780TIP3   OH2 8282   4.694   2.688   0.003
 2780TIP3    H1 8283   4.599   2.685   0.004
 2780TIP3    H2 8284   4.720   2.631   0.075
 2781TIP3   OH2 8285   1.482   1.712   1.663
 2781TIP3    H1 8286   1.510   1.672   1.745
 2781TIP3    H2 8287   1.423   1.783   1.689
 2782TIP3   OH2 8288   2.143   4.987   2.357
 2782TIP3    H1 8289   2.191   4.974   2.275
 2782TIP3    H2 8290   2.068   4.929   2.350
 2783TIP3   OH2 8291   0.371   3.673   1.796
 2783TIP3    H1 8292   0.292   3.644   1.842
 2783TIP3    H2 8293   0.396   3.754   1.841
 2784TIP3   OH2 8294   7.956   4.793   1.041
 2784TIP3    H1 8295   7.861   4.806   1.033
 2784TIP3    H2 8296   7.993   4.837   0.965
 2785TIP3   OH2 8297   2.851   5.072   6.139
 2785TIP3    H1 8298   2.912   5.126   6.088
 2785TIP3    H2 8299   2.783   5.134   6.167
 2786TIP3   OH2 8300   0.293   3.499   6.079
 2786TIP3    H1 8301   0.294   3.592   6.100
 2786TIP3    H2 8302   0.348   3.458   6.146
 2787TIP3   OH2 8303   5.882   7.122   5.633
 2787TIP3    H1 8304   5.799   7.136   5.678
 2787TIP3    H2 8305   5.885   7.192   5.567
 2788TIP3   OH2 8306   7.759   1.180   1.781
 2788TIP3    H1 8307   7.689   1.128   1.742
 2788TIP3    H2 8308   7.734   1.271   1.764
 2789TIP3   OH2 8309   0.463   3.824   2.178
 2789TIP3    H1 8310   0.443   3.790   2.265
 2789TIP3    H2 8311   0.474   3.745   2.124
 2790TIP3   OH2 8312   7.630   4.184   0.944
 2790TIP3    H1 8313   7.606   4.120   0.878
 2790TIP3    H2 8314   7.663   4.259   0.894
 2791TIP3   OH2 8315   1.301   5.413   1.303
 2791TIP3    H1 8316   1.373   5.378   1.251
 2791TIP3    H2 8317   1.344   5.445   1.383
 2792TIP3   OH2 8318   3.893   6.328   1.752
 2792TIP3    H1 8319   3.829   6.400   1.755
 2792TIP3    H2 8320   3.874   6.275   1.829
 2793TIP3   OH2 8321   8.015   2.590   0.419
 2793TIP3    H1 8322   8.071   2.627   0.351
 2793TIP3    H2 8323   8.000   2.663   0.480
 2794TIP3   OH2 8324   3.438   5.250   5.650
 2794TIP3    H1 8325   3.347   5.272   5.671
 2794TIP3    H2 8326   3.443   5.255   5.555
 2795TIP3   OH2 8327   7.211   3.616   3.530
 2795TIP3    H1 8328   7.299   3.594   3.560
 2795TIP3    H2 8329   7.224   3.655   3.444
 2796TIP3   OH2 8330   5.263   2.039   2.515
 2796TIP3    H1 8331   5.203   1.986   2.568
 2796TIP3    H2 8332   5.207   2.107   2.477
 2797TIP3   OH2 8333   5.236   5.459   3.704
 2797TIP3    H1 8334   5.278   5.537   3.740
 2797TIP3    H2 8335   5.142   5.480   3.704
 2798TIP3   OH2 8336   6.063   0.187   4.509
 2798TIP3    H1 8337   6.079   0.100   4.472
 2798TIP3    H2 8338   5.970   0.186   4.531
 2799TIP3   OH2 8339   3.761   7.238   5.945
 2799TIP3    H1 8340   3.738   7.328   5.969
 2799TIP3    H2 8341   3.856   7.239   5.934
 2800TIP3   OH2 8342   6.179   4.870   2.196
 2800TIP3    H1 8343   6.261   4.919   2.189
 2800TIP3    H2 8344   6.190   4.816   2.274
 2801TIP3   OH2 8345   0.227   6.112   3.448
 2801TIP3    H1 8346   0.309   6.074   3.482
 2801TIP3    H2 8347   0.164   6.041   3.451
 2802TIP3   OH2 8348   2.680   7.490   1.477
 2802TIP3    H1 8349   2.725   7.459   1.399
 2802TIP3    H2 8350   2.723   7.573   1.498
 2803TIP3   OH2 8351   8.238   3.027   3.186
 2803TIP3    H1 8352   8.300   3.098   3.202
 2803TIP3    H2 8353   8.212   3.038   3.095
 2804TIP3   OH2 8354   6.159   5.748   1.866
 2804TIP3    H1 8355   6.151   5.667   1.816
 2804TIP3    H2 8356   6.172   5.720   1.956
 2805TIP3   OH2 8357   7.980   6.371   4.653
 2805TIP3    H1 8358   7.903   6.407   4.697
 2805TIP3    H2 8359   8.045   6.362   4.723
 2806TIP3   OH2 8360   2.297   6.333   4.457
 2806TIP3    H1 8361   2.225   6.335   4.520
 2806TIP3    H2 8362   2.325   6.241   4.456
 2807TIP3   OH2 8363   2.367   0.617   3.405
 2807TIP3    H1 8364   2.425   0.670   3.349
 2807TIP3    H2 8365   2.296   0.676   3.429
 2808TIP3   OH2 8366   2.675   5.849   5.718
 2808TIP3    H1 8367   2.627   5.875   5.797
 2808TIP3    H2 8368   2.721   5.769   5.743
 2809TIP3   OH2 8369   7.145   5.455   4.514
 2809TIP3    H1 8370   7.199   5.500   4.449
 2809TIP3    H2 8371   7.156   5.362   4.496
 2810TIP3   OH2 8372   6.022   1.859   1.404
 2810TIP3    H1 8373   6.037   1.929   1.341
 2810TIP3    H2 8374   6.108   1.821   1.419
 2811TIP3   OH2 8375   2.909   3.230   5.544
 2811TIP3    H1 8376   2.917   3.319   5.577
 2811TIP3    H2 8377   2.904   3.240   5.449
 2812TIP3   OH2 8378   3.954   6.879   6.742
 2812TIP3    H1 8379   3.959   6.884   6.837
 2812TIP3    H2 8380   3.958   6.970   6.713
 2813TIP3   OH2 8381   6.200   7.248   0.065
 2813TIP3    H1 8382   6.147   7.172   0.086
 2813TIP3    H2 8383   6.231   7.280   0.149
 2814TIP3   OH2 8384   6.450   6.439   3.900
 2814TIP3    H1 8385   6.408   6.510   3.852
 2814TIP3    H2 8386   6.420   6.360   3.857
 2815TIP3   OH2 8387   5.401   2.597   5.738
 2815TIP3    H1 8388   5.470   2.638   5.686
 2815TIP3    H2 8389   5.445   2.563   5.816
 2816TIP3   OH2 8390   5.236   4.365   3.773
 2816TIP3    H1 8391   5.312   4.307   3.773
 2816TIP3    H2 8392   5.270   4.449   3.743
 2817TIP3   OH2 8393   0.845   7.554   1.851
 2817TIP3    H1 8394   0.897   7.520   1.924
 2817TIP3    H2 8395   0.781   7.485   1.833
 2818TIP3   OH2 8396   5.932   1.485   1.743
 2818TIP3    H1 8397   5.928   1.474   1.838
 2818TIP3    H2 8398   5.904   1.401   1.708
 2819TIP3   OH2 8399   0.044   5.744   2.171
 2819TIP3    H1 8400   0.019   5.692   2.094
 2819TIP3    H2 8401   0.048   5.680   2.242
 2820TIP3   OH2 8402   4.865   1.235   3.546
 2820TIP3    H1 8403   4.783   1.209   3.505
 2820TIP3    H2 8404   4.855   1.211   3.638
 2821TIP3   OH2 8405   3.318   0.263   5.699
 2821TIP3    H1 8406   3.236   0.229   5.734
 2821TIP3    H2 8407   3.371   0.184   5.682
 2822TIP3   OH2 8408   0.273   3.564   2.565
 2822TIP3    H1 8409   0.250   3.562   2.658
 2822TIP3    H2 8410   0.272   3.472   2.538
 2823TIP3   OH2 8411   3.600   3.524   2.845
 2823TIP3    H1 8412   3.691   3.501   2.864
 2823TIP3    H2 8413   3.568   3.453   2.790
 2824TIP3   OH2 8414   1.538   4.090   4.947
 2824TIP3    H1 8415   1.485   4.019   4.910
 2824TIP3    H2 8416   1.479   4.134   5.008
 2825TIP3   OH2 8417   2.773   5.665   0.805
 2825TIP3    H1 8418   2.681   5.686   0.822
 2825TIP3    H2 8419   2.780   5.659   0.710
 2826TIP3   OH2 8420   2.114   2.375   5.200
 2826TIP3    H1 8421   2.192   2.327   5.226
 2826TIP3    H2 8422   2.121   2.459   5.244
 2827TIP3   OH2 8423   7.238   4.759   1.647
 2827TIP3    H1 8424   7.287   4.833   1.612
 2827TIP3    H2 8425   7.303   4.706   1.691
 2828TIP3   OH2 8426   7.055   1.893   0.951
 2828TIP3    H1 8427   7.106   1.957   0.901
 2828TIP3    H2 8428   7.113   1.817   0.961
 2829TIP3   OH2 8429   6.232   4.332   4.560
 2829TIP3    H1 8430   6.251   4.365   4.472
 2829TIP3    H2 8431   6.174   4.257   4.546
 2830TIP3   OH2 8432   8.155   0.961   0.186
 2830TIP3    H1 8433   8.125   0.885   0.137
 2830TIP3    H2 8434   8.160   1.031   0.120
 2831TIP3   OH2 8435   0.398   1.145   5.947
 2831TIP3    H1 8436   0.410   1.238   5.931
 2831TIP3    H2 8437   0.431   1.131   6.035
 2832TIP3   OH2 8438   2.145   5.605   1.964
 2832TIP3    H1 8439   2.057   5.643   1.965
 2832TIP3    H2 8440   2.133   5.519   1.921
 2833TIP3   OH2 8441   4.979   3.701   6.085
 2833TIP3    H1 8442   4.929   3.758   6.026
 2833TIP3    H2 8443   4.960   3.736   6.172
 2834TIP3   OH2 8444   2.168   0.608   2.503
 2834TIP3    H1 8445   2.173   0.521   2.544
 2834TIP3    H2 8446   2.151   0.590   2.411
 2835TIP3   OH2 8447   7.123   1.252   1.857
 2835TIP3    H1 8448   7.150   1.298   1.936
 2835TIP3    H2 8449   7.202   1.247   1.803
 2836TIP3   OH2 8450   5.706   6.177   1.759
 2836TIP3    H1 8451   5.628   6.145   1.715
 2836TIP3    H2 8452   5.705   6.272   1.744
 2837TIP3   OH2 8453   7.093   6.644   1.314
 2837TIP3    H1 8454   7.060   6.600   1.235
 2837TIP3    H2 8455   7.023   6.703   1.340
 2838TIP3   OH2 8456   8.212   4.617   3.359
 2838TIP3    H1 8457   8.159   4.652   3.430
 2838TIP3    H2 8458   8.255   4.540   3.397
 2839TIP3   OH2 8459   3.364   1.990   5.161
 2839TIP3    H1 8460   3.308   2.057   5.120
 2839TIP3    H2 8461   3.436   2.040   5.199
 2840TIP3   OH2 8462   4.751   0.860   2.567
 2840TIP3    H1 8463   4.728   0.833   2.655
 2840TIP3    H2 8464   4.786   0.781   2.525
 2841TIP3   OH2 8465   5.885   1.722   6.638
 2841TIP3    H1 8466   5.884   1.675   6.722
 2841TIP3    H2 8467   5.795   1.716   6.607
 2842TIP3   OH2 8468   6.102   0.389   5.056
 2842TIP3    H1 8469   6.089   0.463   5.115
 2842TIP3    H2 8470   6.065   0.418   4.972
 2843TIP3   OH2 8471   3.771   1.424   3.603
 2843TIP3    H1 8472   3.814   1.508   3.619
 2843TIP3    H2 8473   3.823   1.361   3.653
 2844TIP3   OH2 8474   5.019   6.463   0.096
 2844TIP3    H1 8475   5.044   6.402   0.026
 2844TIP3    H2 8476   4.943   6.422   0.137
 2845TIP3   OH2 8477   8.047   5.144   4.328
 2845TIP3    H1 8478   7.958   5.166   4.357
 2845TIP3    H2 8479   8.079   5.223   4.285
 2846TIP3   OH2 8480   7.131   4.569   5.103
 2846TIP3    H1 8481   7.089   4.601   5.023
 2846TIP3    H2 8482   7.224   4.588   5.089
 2847TIP3   OH2 8483   5.773   3.528   0.734
 2847TIP3    H1 8484   5.722   3.578   0.670
 2847TIP3    H2 8485   5.839   3.590   0.764
 2848TIP3   OH2 8486   5.036   2.830   0.672
 2848TIP3    H1 8487   5.060   2.908   0.722
 2848TIP3    H2 8488   5.072   2.846   0.585
 2849TIP3   OH2 8489   2.843   6.272   0.873
 2849TIP3    H1 8490   2.763   6.238   0.832
 2849TIP3    H2 8491   2.818   6.359   0.905
 2850TIP3   OH2 8492   7.612   5.134   2.302
 2850TIP3    H1 8493   7.662   5.192   2.360
 2850TIP3    H2 8494   7.657   5.140   2.217
 2851TIP3   OH2 8495   4.670   7.444   4.390
 2851TIP3    H1 8496   4.740   7.508   4.397
 2851TIP3    H2 8497   4.665   7.423   4.297
 2852TIP3   OH2 8498   7.638   7.349   2.382
 2852TIP3    H1 8499   7.629   7.375   2.290
 2852TIP3    H2 8500   7.721   7.388   2.410
 2853TIP3   OH2 8501   4.643   0.240   0.032
 2853TIP3    H1 8502   4.658   0.330   0.058
 2853TIP3    H2 8503   4.595   0.201   0.105
 2854TIP3   OH2 8504   3.237   2.131   6.039
 2854TIP3    H1 8505   3.297   2.206   6.045
 2854TIP3    H2 8506   3.189   2.132   6.121
 2855TIP3   OH2 8507   7.399   7.124   0.790
 2855TIP3    H1 8508   7.361   7.064   0.727
 2855TIP3    H2 8509   7.486   7.088   0.809
 2856TIP3   OH2 8510   7.576   7.755   0.764
 2856TIP3    H1 8511   7.635   7.827   0.785
 2856TIP3    H2 8512   7.629   7.694   0.713
 2857TIP3   OH2 8513   5.474   4.847   5.906
 2857TIP3    H1 8514   5.400   4.831   5.847
 2857TIP3    H2 8515   5.467   4.777   5.971
 2858TIP3   OH2 8516   5.102   0.880   4.615
 2858TIP3    H1 8517   5.128   0.796   4.654
 2858TIP3    H2 8518   5.170   0.898   4.550
 2859TIP3   OH2 8519   6.674   0.855   3.618
 2859TIP3    H1 8520   6.596   0.893   3.659
 2859TIP3    H2 8521   6.646   0.836   3.528
 2860TIP3   OH2 8522   4.632   3.232   3.303
 2860TIP3    H1 8523   4.559   3.181   3.338
 2860TIP3    H2 8524   4.708   3.174   3.309
 2861TIP3   OH2 8525   7.637   3.966   1.440
 2861TIP3    H1 8526   7.556   4.006   1.472
 2861TIP3    H2 8527   7.677   4.034   1.385
 2862TIP3   OH2 8528   8.235   7.387   0.549
 2862TIP3    H1 8529   8.256   7.313   0.605
 2862TIP3    H2 8530   8.159   7.428   0.590
 2863TIP3   OH2 8531   8.199   7.121   3.096
 2863TIP3    H1 8532   8.267   7.175   3.056
 2863TIP3    H2 8533   8.233   7.101   3.184
 2864TIP3   OH2 8534   6.338   3.387   5.790
 2864TIP3    H1 8535   6.383   3.306   5.767
 2864TIP3    H2 8536   6.391   3.425   5.861
 2865TIP3   OH2 8537   6.821   7.215   6.386
 2865TIP3    H1 8538   6.790   7.152   6.452
 2865TIP3    H2 8539   6.765   7.291   6.398
 2866TIP3   OH2 8540   2.784   2.176   2.982
 2866TIP3    H1 8541   2.696   2.163   3.018
 2866TIP3    H2 8542   2.813   2.088   2.958
 2867TIP3   OH2 8543   1.054   5.113   4.274
 2867TIP3    H1 8544   0.961   5.135   4.281
 2867TIP3    H2 8545   1.063   5.032   4.324
 2868TIP3   OH2 8546   4.801   7.409   1.958
 2868TIP3    H1 8547   4.796   7.484   2.017
 2868TIP3    H2 8548   4.867   7.352   1.997
 2869TIP3   OH2 8549   5.803   5.359   6.327
 2869TIP3    H1 8550   5.835   5.384   6.241
 2869TIP3    H2 8551   5.783   5.442   6.371
 2870TIP3   OH2 8552   7.346   5.672   2.823
 2870TIP3    H1 8553   7.288   5.679   2.747
 2870TIP3    H2 8554   7.292   5.631   2.890
 2871TIP3   OH2 8555   0.886   2.341   4.489
 2871TIP3    H1 8556   0.809   2.344   4.433
 2871TIP3    H2 8557   0.861   2.391   4.567
 2872TIP3   OH2 8558   2.176   5.883   0.860
 2872TIP3    H1 8559   2.169   5.860   0.768
 2872TIP3    H2 8560   2.152   5.803   0.907
 2873TIP3   OH2 8561   2.957   3.729   4.855
 2873TIP3    H1 8562   3.024   3.797   4.867
 2873TIP3    H2 8563   2.942   3.695   4.943
 2874TIP3   OH2 8564   3.839   2.562   2.297
 2874TIP3    H1 8565   3.882   2.487   2.256
 2874TIP3    H2 8566   3.794   2.525   2.373
 2875TIP3   OH2 8567   8.171   5.200   5.305
 2875TIP3    H1 8568   8.229   5.141   5.352
 2875TIP3    H2 8569   8.229   5.250   5.247
 2876TIP3   OH2 8570   7.868   3.048   1.997
 2876TIP3    H1 8571   7.949   3.033   1.947
 2876TIP3    H2 8572   7.839   2.960   2.020
 2877TIP3   OH2 8573   3.387   5.657   4.866
 2877TIP3    H1 8574   3.361   5.674   4.956
 2877TIP3    H2 8575   3.328   5.711   4.813
 2878TIP3   OH2 8576   4.576   0.255   2.818
 2878TIP3    H1 8577   4.524   0.269   2.898
 2878TIP3    H2 8578   4.633   0.182   2.839
 2879TIP3   OH2 8579   0.868   4.039   1.276
 2879TIP3    H1 8580   0.914   4.088   1.208
 2879TIP3    H2 8581   0.859   4.100   1.349
 2880TIP3   OH2 8582   5.244   3.889   6.179
 2880TIP3    H1 8583   5.222   3.907   6.271
 2880TIP3    H2 8584   5.188   3.947   6.129
 2881TIP3   OH2 8585   6.866   0.539   2.583
 2881TIP3    H1 8586   6.873   0.467   2.646
 2881TIP3    H2 8587   6.913   0.611   2.624
 2882TIP3   OH2 8588   1.251   2.648   0.602
 2882TIP3    H1 8589   1.319   2.698   0.647
 2882TIP3    H2 8590   1.195   2.616   0.673
 2883TIP3   OH2 8591   4.953   1.657   6.494
 2883TIP3    H1 8592   4.973   1.699   6.578
 2883TIP3    H2 8593   4.942   1.565   6.516
 2884TIP3   OH2 8594   3.068   6.680   0.248
 2884TIP3    H1 8595   3.048   6.744   0.179
 2884TIP3    H2 8596   3.033   6.719   0.328
 2885TIP3   OH2 8597   1.777   4.232   6.732
 2885TIP3    H1 8598   1.769   4.175   6.655
 2885TIP3    H2 8599   1.741   4.179   6.803
 2886TIP3   OH2 8600   4.917   1.395   5.792
 2886TIP3    H1 8601   4.954   1.348   5.717
 2886TIP3    H2 8602   4.825   1.408   5.770
 2887TIP3   OH2 8603   4.914   5.277   3.134
 2887TIP3    H1 8604   4.933   5.367   3.160
 2887TIP3    H2 8605   4.879   5.285   3.045
 2888TIP3   OH2 8606   7.769   2.704   6.611
 2888TIP3    H1 8607   7.826   2.764   6.659
 2888TIP3    H2 8608   7.812   2.619   6.619
 2889TIP3   OH2 8609   1.532   0.553   2.461
 2889TIP3    H1 8610   1.517   0.633   2.511
 2889TIP3    H2 8611   1.584   0.582   2.386
 2890TIP3   OH2 8612   0.249   4.872   6.694
 2890TIP3    H1 8613   0.313   4.939   6.667
 2890TIP3    H2 8614   0.186   4.919   6.749
 2891TIP3   OH2 8615   0.908   6.407   5.005
 2891TIP3    H1 8616   0.939   6.332   4.954
 2891TIP3    H2 8617   0.814   6.411   4.988
 2892TIP3   OH2 8618   3.692   7.139   3.262
 2892TIP3    H1 8619   3.768   7.081   3.269
 2892TIP3    H2 8620   3.708   7.189   3.182
 2893TIP3   OH2 8621   5.584   6.923   1.244
 2893TIP3    H1 8622   5.549   6.956   1.327
 2893TIP3    H2 8623   5.640   6.993   1.212
 2894TIP3   OH2 8624   3.282   5.693   4.407
 2894TIP3    H1 8625   3.312   5.616   4.456
 2894TIP3    H2 8626   3.362   5.741   4.386
 2895TIP3   OH2 8627   3.883   1.735   0.884
 2895TIP3    H1 8628   3.837   1.750   0.802
 2895TIP3    H2 8629   3.937   1.813   0.896
 2896TIP3   OH2 8630   8.216   4.973   3.462
 2896TIP3    H1 8631   8.300   4.930   3.443
 2896TIP3    H2 8632   8.197   4.950   3.553
 2897TIP3   OH2 8633   2.411   5.417   2.525
 2897TIP3    H1 8634   2.432   5.343   2.581
 2897TIP3    H2 8635   2.325   5.448   2.556
 2898TIP3   OH2 8636   7.470   3.382   5.713
 2898TIP3    H1 8637   7.490   3.433   5.792
 2898TIP3    H2 8638   7.465   3.447   5.643
 2899TIP3   OH2 8639   3.200   4.580   6.313
 2899TIP3    H1 8640   3.110   4.589   6.342
 2899TIP3    H2 8641   3.253   4.621   6.381
 2900TIP3   OH2 8642   7.937   6.216   5.123
 2900TIP3    H1 8643   7.949   6.277   5.195
 2900TIP3    H2 8644   7.855   6.242   5.082
 2901TIP3   OH2 8645   7.349   0.294   4.041
 2901TIP3    H1 8646   7.326   0.296   4.134
 2901TIP3    H2 8647   7.441   0.320   4.039
 2902TIP3   OH2 8648   3.622   2.326   1.844
 2902TIP3    H1 8649   3.612   2.421   1.851
 2902TIP3    H2 8650   3.668   2.301   1.924
 2903TIP3   OH2 8651   3.501   3.618   4.437
 2903TIP3    H1 8652   3.555   3.670   4.377
 2903TIP3    H2 8653   3.563   3.583   4.501
 2904TIP3   OH2 8654   5.525   4.943   1.725
 2904TIP3    H1 8655   5.576   4.907   1.652
 2904TIP3    H2 8656   5.540   4.882   1.797
 2905TIP3   OH2 8657   7.679   7.671   1.209
 2905TIP3    H1 8658   7.598   7.720   1.221
 2905TIP3    H2 8659   7.742   7.714   1.267
 2906TIP3   OH2 8660   2.354   5.357   1.312
 2906TIP3    H1 8661   2.368   5.405   1.394
 2906TIP3    H2 8662   2.402   5.407   1.246
 2907TIP3   OH2 8663   6.411   5.862   3.928
 2907TIP3    H1 8664   6.458   5.943   3.948
 2907TIP3    H2 8665   6.343   5.857   3.996
 2908TIP3   OH2 8666   2.348   3.742   5.093
 2908TIP3    H1 8667   2.413   3.805   5.062
 2908TIP3    H2 8668   2.396   3.659   5.097
 2909TIP3   OH2 8669   0.227   5.646   1.716
 2909TIP3    H1 8670   0.171   5.692   1.653
 2909TIP3    H2 8671   0.219   5.554   1.691
 2910TIP3   OH2 8672   4.384   0.364   2.005
 2910TIP3    H1 8673   4.437   0.443   1.991
 2910TIP3    H2 8674   4.294   0.396   2.013
 2911TIP3   OH2 8675   3.813   1.325   2.595
 2911TIP3    H1 8676   3.811   1.410   2.551
 2911TIP3    H2 8677   3.740   1.276   2.557
 2912TIP3   OH2 8678   7.377   5.570   6.385
 2912TIP3    H1 8679   7.292   5.538   6.414
 2912TIP3    H2 8680   7.380   5.661   6.414
 2913TIP3   OH2 8681   7.083   6.766   2.849
 2913TIP3    H1 8682   7.121   6.678   2.848
 2913TIP3    H2 8683   6.988   6.750   2.852
 2914TIP3   OH2 8684   4.383   4.502   4.656
 2914TIP3    H1 8685   4.405   4.586   4.617
 2914TIP3    H2 8686   4.384   4.517   4.750
 2915TIP3   OH2 8687   4.724   4.991   5.030
 2915TIP3    H1 8688   4.744   4.933   5.103
 2915TIP3    H2 8689   4.634   5.020   5.045
 2916TIP3   OH2 8690   1.587   1.634   5.576
 2916TIP3    H1 8691   1.598   1.716   5.527
 2916TIP3    H2 8692   1.493   1.615   5.569
 2917TIP3   OH2 8693   5.692   3.899   3.992
 2917TIP3    H1 8694   5.607   3.881   4.033
 2917TIP3    H2 8695   5.670   3.927   3.903
 2918TIP3   OH2 8696   0.911   5.978   2.102
 2918TIP3    H1 8697   0.903   5.886   2.078
 2918TIP3    H2 8698   0.974   6.013   2.039
 2919TIP3   OH2 8699   3.949   6.620   4.115
 2919TIP3    H1 8700   4.043   6.612   4.126
 2919TIP3    H2 8701   3.936   6.624   4.020
 2920TIP3   OH2 8702   5.066   3.485   3.998
 2920TIP3    H1 8703   5.008   3.496   3.923
 2920TIP3    H2 8704   5.143   3.440   3.964
 2921TIP3   OH2 8705   5.952   0.569   2.184
 2921TIP3    H1 8706   5.950   0.597   2.276
 2921TIP3    H2 8707   5.879   0.507   2.177
 2922TIP3   OH2 8708   4.891   3.255   6.660
 2922TIP3    H1 8709   4.906   3.162   6.676
 2922TIP3    H2 8710   4.973   3.298   6.683
 2923TIP3   OH2 8711   2.181   4.871   4.988
 2923TIP3    H1 8712   2.269   4.896   4.960
 2923TIP3    H2 8713   2.143   4.826   4.913
 2924TIP3   OH2 8714   0.288   7.539   0.954
 2924TIP3    H1 8715   0.216   7.588   0.914
 2924TIP3    H2 8716   0.341   7.606   0.998
 2925TIP3   OH2 8717   5.146   5.295   6.618
 2925TIP3    H1 8718   5.126   5.387   6.638
 2925TIP3    H2 8719   5.231   5.297   6.575
 2926TIP3   OH2 8720   1.299   1.611   0.875
 2926TIP3    H1 8721   1.241   1.535   0.876
 2926TIP3    H2 8722   1.240   1.686   0.881
 2927TIP3   OH2 8723   3.196   6.120   3.659
 2927TIP3    H1 8724   3.116   6.165   3.687
 2927TIP3    H2 8725   3.248   6.187   3.615
 2928TIP3   OH2 8726   7.135   6.080   2.376
 2928TIP3    H1 8727   7.166   6.137   2.447
 2928TIP3    H2 8728   7.212   6.067   2.321
 2929TIP3   OH2 8729   1.773   7.521   1.019
 2929TIP3    H1 8730   1.869   7.526   1.022
 2929TIP3    H2 8731   1.754   7.457   0.951
 2930TIP3   OH2 8732   0.944   2.372   0.611
 2930TIP3    H1 8733   0.950   2.300   0.547
 2930TIP3    H2 8734   0.852   2.396   0.610
 2931TIP3   OH2 8735   3.192   6.173   3.243
 2931TIP3    H1 8736   3.152   6.086   3.231
 2931TIP3    H2 8737   3.277   6.166   3.200
 2932TIP3   OH2 8738   5.590   3.971   4.369
 2932TIP3    H1 8739   5.572   3.896   4.312
 2932TIP3    H2 8740   5.663   4.017   4.327
 2933TIP3   OH2 8741   7.661   1.253   1.435
 2933TIP3    H1 8742   7.601   1.179   1.433
 2933TIP3    H2 8743   7.606   1.328   1.456
 2934TIP3   OH2 8744   0.599   4.051   1.549
 2934TIP3    H1 8745   0.505   4.059   1.565
 2934TIP3    H2 8746   0.632   4.140   1.555
 2935TIP3   OH2 8747   5.927   6.413   1.677
 2935TIP3    H1 8748   5.868   6.344   1.706
 2935TIP3    H2 8749   5.879   6.459   1.609
 2936TIP3   OH2 8750   1.764   5.301   3.726
 2936TIP3    H1 8751   1.718   5.230   3.771
 2936TIP3    H2 8752   1.779   5.367   3.793
 2937TIP3   OH2 8753   5.528   4.230   3.796
 2937TIP3    H1 8754   5.607   4.249   3.846
 2937TIP3    H2 8755   5.554   4.243   3.704
 2938TIP3   OH2 8756   7.700   2.788   2.014
 2938TIP3    H1 8757   7.615   2.745   2.005
 2938TIP3    H2 8758   7.758   2.738   1.957
 2939TIP3   OH2 8759   5.613   7.403   0.631
 2939TIP3    H1 8760   5.521   7.426   0.643
 2939TIP3    H2 8761   5.661   7.464   0.687
 2940TIP3   OH2 8762   6.051   1.494   2.837
 2940TIP3    H1 8763   5.970   1.459   2.800
 2940TIP3    H2 8764   6.064   1.577   2.790
 2941TIP3   OH2 8765   2.793   6.370   4.464
 2941TIP3    H1 8766   2.858   6.392   4.397
 2941TIP3    H2 8767   2.723   6.435   4.451
 2942TIP3   OH2 8768   6.392   7.596   1.923
 2942TIP3    H1 8769   6.424   7.683   1.946
 2942TIP3    H2 8770   6.384   7.550   2.006
 2943TIP3   OH2 8771   8.164   3.479   6.580
 2943TIP3    H1 8772   8.079   3.484   6.624
 2943TIP3    H2 8773   8.144   3.475   6.487
 2944TIP3   OH2 8774   1.105   0.517   3.913
 2944TIP3    H1 8775   1.160   0.449   3.951
 2944TIP3    H2 8776   1.139   0.528   3.824
 2945TIP3   OH2 8777   0.291   2.963   6.251
 2945TIP3    H1 8778   0.293   2.966   6.347
 2945TIP3    H2 8779   0.307   2.871   6.230
 2946TIP3   OH2 8780   3.499   7.705   3.214
 2946TIP3    H1 8781   3.541   7.624   3.245
 2946TIP3    H2 8782   3.566   7.772   3.228
 2947TIP3   OH2 8783   5.236   3.240   4.731
 2947TIP3    H1 8784   5.317   3.218   4.777
 2947TIP3    H2 8785   5.217   3.164   4.677
 2948TIP3   OH2 8786   5.315   7.004   5.090
 2948TIP3    H1 8787   5.267   6.964   5.018
 2948TIP3    H2 8788   5.394   6.951   5.099
 2949TIP3   OH2 8789   1.427   6.720   3.026
 2949TIP3    H1 8790   1.362   6.782   2.993
 2949TIP3    H2 8791   1.509   6.750   2.987
 2950TIP3   OH2 8792   0.767   6.620   5.361
 2950TIP3    H1 8793   0.752   6.562   5.287
 2950TIP3    H2 8794   0.684   6.667   5.371
 2951TIP3   OH2 8795   2.742   1.984   4.391
 2951TIP3    H1 8796   2.708   2.012   4.306
 2951TIP3    H2 8797   2.836   1.974   4.377
 2952TIP3   OH2 8798   2.369   4.217   5.546
 2952TIP3    H1 8799   2.403   4.177   5.466
 2952TIP3    H2 8800   2.275   4.204   5.541
 2953TIP3   OH2 8801   5.926   5.281   5.836
 2953TIP3    H1 8802   5.895   5.332   5.761
 2953TIP3    H2 8803   5.940   5.193   5.801
 2954TIP3   OH2 8804   6.607   4.610   3.527
 2954TIP3    H1 8805   6.603   4.584   3.435
 2954TIP3    H2 8806   6.688   4.570   3.560
 2955TIP3   OH2 8807   6.509   4.315   6.514
 2955TIP3    H1 8808   6.536   4.226   6.490
 2955TIP3    H2 8809   6.550   4.371   6.448
 2956TIP3   OH2 8810   6.038   7.307   4.218
 2956TIP3    H1 8811   6.024   7.268   4.304
 2956TIP3    H2 8812   6.131   7.290   4.199
 2957TIP3   OH2 8813   3.955   1.902   4.233
 2957TIP3    H1 8814   3.981   1.990   4.208
 2957TIP3    H2 8815   3.949   1.854   4.150
 2958TIP3   OH2 8816   3.574   6.947   1.732
 2958TIP3    H1 8817   3.487   6.908   1.741
 2958TIP3    H2 8818   3.572   6.991   1.647
 2959TIP3   OH2 8819   3.596   5.480   2.272
 2959TIP3    H1 8820   3.680   5.519   2.298
 2959TIP3    H2 8821   3.618   5.392   2.243
 2960TIP3   OH2 8822   6.585   4.139   1.673
 2960TIP3    H1 8823   6.669   4.183   1.667
 2960TIP3    H2 8824   6.534   4.190   1.736
 2961TIP3   OH2 8825   4.905   0.491   5.155
 2961TIP3    H1 8826   4.889   0.569   5.102
 2961TIP3    H2 8827   4.870   0.512   5.241
 2962TIP3   OH2 8828   0.692   4.803   6.054
 2962TIP3    H1 8829   0.709   4.875   5.993
 2962TIP3    H2 8830   0.774   4.753   6.055
 2963TIP3   OH2 8831   4.288   7.577   6.236
 2963TIP3    H1 8832   4.225   7.509   6.259
 2963TIP3    H2 8833   4.360   7.530   6.195
 2964TIP3   OH2 8834   0.522   0.231   4.431
 2964TIP3    H1 8835   0.544   0.155   4.377
 2964TIP3    H2 8836   0.504   0.301   4.369
 2965TIP3   OH2 8837   3.620   0.732   1.182
 2965TIP3    H1 8838   3.559   0.669   1.143
 2965TIP3    H2 8839   3.565   0.807   1.205
 2966TIP3   OH2 8840   3.685   6.076   1.695
 2966TIP3    H1 8841   3.681   5.980   1.692
 2966TIP3    H2 8842   3.686   6.103   1.603
 2967TIP3   OH2 8843   5.152   0.676   4.784
 2967TIP3    H1 8844   5.226   0.616   4.786
 2967TIP3    H2 8845   5.080   0.627   4.825
 2968TIP3   OH2 8846   1.081   3.650   5.204
 2968TIP3    H1 8847   1.062   3.736   5.241
 2968TIP3    H2 8848   1.113   3.668   5.116
 2969TIP3   OH2 8849   8.174   1.074   5.000
 2969TIP3    H1 8850   8.260   1.097   4.964
 2969TIP3    H2 8851   8.193   1.022   5.077
 2970TIP3   OH2 8852   2.290   0.398   2.635
 2970TIP3    H1 8853   2.361   0.416   2.697
 2970TIP3    H2 8854   2.212   0.390   2.690
 2971TIP3   OH2 8855   8.077   3.273   0.645
 2971TIP3    H1 8856   8.170   3.294   0.641
 2971TIP3    H2 8857   8.066   3.224   0.726
 2972TIP3   OH2 8858   4.194   4.008   3.726
 2972TIP3    H1 8859   4.252   4.023   3.801
 2972TIP3    H2 8860   4.149   4.092   3.713
 2973TIP3   OH2 8861   1.242   6.997   1.169
 2973TIP3    H1 8862   1.304   6.973   1.100
 2973TIP3    H2 8863   1.223   7.089   1.154
 2974TIP3   OH2 8864   2.509   3.944   4.990
 2974TIP3    H1 8865   2.603   3.949   5.011
 2974TIP3    H2 8866   2.473   4.026   5.022
 2975TIP3   OH2 8867   5.049   4.713   1.140
 2975TIP3    H1 8868   4.980   4.759   1.188
 2975TIP3    H2 8869   5.043   4.746   1.051
 2976TIP3   OH2 8870   7.213   6.730   3.109
 2976TIP3    H1 8871   7.157   6.709   3.035
 2976TIP3    H2 8872   7.265   6.805   3.079
 2977TIP3   OH2 8873   7.054   0.393   2.051
 2977TIP3    H1 8874   7.136   0.388   2.099
 2977TIP3    H2 8875   6.991   0.428   2.114
 2978TIP3   OH2 8876   2.109   2.899   2.970
 2978TIP3    H1 8877   2.036   2.888   3.030
 2978TIP3    H2 8878   2.185   2.912   3.027
 2979TIP3   OH2 8879   6.979   3.360   6.686
 2979TIP3    H1 8880   7.025   3.443   6.669
 2979TIP3    H2 8881   7.041   3.310   6.740
 2980TIP3   OH2 8882   1.906   6.156   2.843
 2980TIP3    H1 8883   1.902   6.188   2.933
 2980TIP3    H2 8884   1.964   6.218   2.798
 2981TIP3   OH2 8885   4.395   3.488   0.530
 2981TIP3    H1 8886   4.467   3.532   0.485
 2981TIP3    H2 8887   4.419   3.395   0.527
 2982TIP3   OH2 8888   1.829   7.144   1.009
 2982TIP3    H1 8889   1.781   7.208   0.957
 2982TIP3    H2 8890   1.854   7.191   1.088
 2983TIP3   OH2 8891   4.654   5.348   3.870
 2983TIP3    H1 8892   4.651   5.340   3.775
 2983TIP3    H2 8893   4.650   5.442   3.887
 2984TIP3   OH2 8894   1.206   1.078   0.225
 2984TIP3    H1 8895   1.111   1.072   0.215
 2984TIP3    H2 8896   1.229   1.008   0.285
 2985TIP3   OH2 8897   1.652   5.226   0.322
 2985TIP3    H1 8898   1.610   5.311   0.308
 2985TIP3    H2 8899   1.745   5.248   0.335
 2986TIP3   OH2 8900   7.328   7.687   0.665
 2986TIP3    H1 8901   7.412   7.723   0.694
 2986TIP3    H2 8902   7.351   7.627   0.595
 2987TIP3   OH2 8903   2.686   5.965   3.261
 2987TIP3    H1 8904   2.756   5.909   3.295
 2987TIP3    H2 8905   2.730   6.022   3.198
 2988TIP3   OH2 8906   7.898   2.135   6.672
 2988TIP3    H1 8907   7.814   2.090   6.680
 2988TIP3    H2 8908   7.936   2.100   6.591
 2989TIP3   OH2 8909   5.114   7.201   0.446
 2989TIP3    H1 8910   5.177   7.180   0.378
 2989TIP3    H2 8911   5.099   7.296   0.436
 2990TIP3   OH2 8912   2.334   7.014   1.739
 2990TIP3    H1 8913   2.298   6.985   1.823
 2990TIP3    H2 8914   2.428   7.014   1.751
 2991TIP3   OH2 8915   0.968   4.577   1.896
 2991TIP3    H1 8916   1.030   4.513   1.932
 2991TIP3    H2 8917   0.941   4.629   1.971
 2992TIP3   OH2 8918   1.777   0.493   2.582
 2992TIP3    H1 8919   1.683   0.498   2.564
 2992TIP3    H2 8920   1.806   0.413   2.538
 2993TIP3   OH2 8921   3.185   6.888   4.952
 2993TIP3    H1 8922   3.265   6.869   4.903
 2993TIP3    H2 8923   3.135   6.946   4.895
 2994TIP3   OH2 8924   2.672   6.879   3.711
 2994TIP3    H1 8925   2.649   6.813   3.646
 2994TIP3    H2 8926   2.754   6.849   3.748
 2995TIP3   OH2 8927   0.563   3.771   5.408
 2995TIP3    H1 8928   0.555   3.850   5.462
 2995TIP3    H2 8929   0.527   3.701   5.462
 2996TIP3   OH2 8930   2.428   7.502   2.456
 2996TIP3    H1 8931   2.452   7.544   2.539
 2996TIP3    H2 8932   2.348   7.546   2.429
 2997TIP3   OH2 8933   0.630   6.810   1.683
 2997TIP3    H1 8934   0.652   6.819   1.590
 2997TIP3    H2 8935   0.554   6.867   1.695
 2998TIP3   OH2 8936   2.422   7.226   0.451
 2998TIP3    H1 8937   2.482   7.158   0.480
 2998TIP3    H2 8938   2.455   7.254   0.366
 2999TIP3   OH2 8939   3.990   6.621   2.302
 2999TIP3    H1 8940   3.941   6.693   2.263
 2999TIP3    H2 8941   4.081   6.640   2.283
 3000TIP3   OH2 8942   0.411   3.008   3.359
 3000TIP3    H1 8943   0.412   3.082   3.419
 3000TIP3    H2 8944   0.327   2.965   3.376
 3001TIP3   OH2 8945   4.396   5.175   1.784
 3001TIP3    H1 8946   4.329   5.242   1.793
 3001TIP3    H2 8947   4.350   5.100   1.746
 3002TIP3   OH2 8948   6.509   3.117   1.694
 3002TIP3    H1 8949   6.536   3.069   1.772
 3002TIP3    H2 8950   6.569   3.087   1.625
 3003TIP3   OH2 8951   8.222   7.766   4.076
 3003TIP3    H1 8952   8.222   7.787   4.169
 3003TIP3    H2 8953   8.312   7.782   4.048
 3004TIP3   OH2 8954   4.969   7.624   3.000
 3004TIP3    H1 8955   4.999   7.646   3.088
 3004TIP3    H2 8956   4.994   7.533   2.989
 3005TIP3   OH2 8957   8.118   0.880   6.147
 3005TIP3    H1 8958   8.051   0.942   6.118
 3005TIP3    H2 8959   8.190   0.935   6.179
 3006TIP3   OH2 8960   3.000   6.757   3.585
 3006TIP3    H1 8961   3.068   6.819   3.560
 3006TIP3    H2 8962   3.041   6.700   3.650
 3007TIP3   OH2 8963   3.890   4.888   6.288
 3007TIP3    H1 8964   3.895   4.890   6.384
 3007TIP3    H2 8965   3.919   4.800   6.265
 3008TIP3   OH2 8966   2.756   2.552   1.796
 3008TIP3    H1 8967   2.766   2.632   1.847
 3008TIP3    H2 8968   2.665   2.551   1.768
 3009TIP3   OH2 8969   1.299   0.474   4.413
 3009TIP3    H1 8970   1.332   0.523   4.338
 3009TIP3    H2 8971   1.368   0.412   4.434
 3010TIP3   OH2 8972   7.787   7.648   0.618
 3010TIP3    H1 8973   7.733   7.640   0.539
 3010TIP3    H2 8974   7.826   7.561   0.629
 3011TIP3   OH2 8975   7.048   2.526   1.544
 3011TIP3    H1 8976   6.965   2.556   1.579
 3011TIP3    H2 8977   7.045   2.431   1.550
 3012TIP3   OH2 8978   6.067   6.120   2.143
 3012TIP3    H1 8979   5.988   6.080   2.179
 3012TIP3    H2 8980   6.085   6.071   2.063
 3013TIP3   OH2 8981   1.691   5.601   0.224
 3013TIP3    H1 8982   1.671   5.565   0.311
 3013TIP3    H2 8983   1.751   5.538   0.184
 3014TIP3   OH2 8984   2.311   3.645   4.029
 3014TIP3    H1 8985   2.402   3.661   4.052
 3014TIP3    H2 8986   2.264   3.652   4.112
 3015TIP3   OH2 8987   5.263   2.549   0.304
 3015TIP3    H1 8988   5.318   2.581   0.233
 3015TIP3    H2 8989   5.281   2.456   0.309
 3016TIP3   OH2 8990   2.643   4.908   1.397
 3016TIP3    H1 8991   2.668   5.000   1.391
 3016TIP3    H2 8992   2.714   4.861   1.353
 3017TIP3   OH2 8993   1.484   5.606   4.489
 3017TIP3    H1 8994   1.477   5.599   4.394
 3017TIP3    H2 8995   1.569   5.566   4.509
 3018TIP3   OH2 8996   7.759   6.696   3.035
 3018TIP3    H1 8997   7.693   6.750   3.078
 3018TIP3    H2 8998   7.785   6.633   3.102
 3019TIP3   OH2 8999   3.565   4.742   3.302
 3019TIP3    H1 9000   3.610   4.716   3.382
 3019TIP3    H2 9001   3.635   4.750   3.237
 3020TIP3   OH2 9002   1.077   4.374   3.494
 3020TIP3    H1 9003   1.022   4.448   3.520
 3020TIP3    H2 9004   1.123   4.405   3.415
 3021TIP3   OH2 9005   3.994   5.058   1.095
 3021TIP3    H1 9006   4.017   4.988   1.156
 3021TIP3    H2 9007   4.012   5.021   1.008
 3022TIP3   OH2 9008   1.807   3.565   0.722
 3022TIP3    H1 9009   1.807   3.641   0.780
 3022TIP3    H2 9010   1.823   3.491   0.780
 3023TIP3   OH2 9011   7.574   2.349   4.438
 3023TIP3    H1 9012   7.499   2.307   4.481
 3023TIP3    H2 9013   7.622   2.390   4.509
 3024TIP3   OH2 9014   6.626   1.346   4.625
 3024TIP3    H1 9015   6.619   1.441   4.631
 3024TIP3    H2 9016   6.696   1.331   4.562
 3025TIP3   OH2 9017   7.221   7.480   4.850
 3025TIP3    H1 9018   7.239   7.484   4.944
 3025TIP3    H2 9019   7.219   7.386   4.831
 3026TIP3   OH2 9020   0.659   0.369   4.630
 3026TIP3    H1 9021   0.748   0.335   4.625
 3026TIP3    H2 9022   0.611   0.321   4.563
 3027TIP3   OH2 9023   7.098   1.790   5.468
 3027TIP3    H1 9024   7.110   1.869   5.416
 3027TIP3    H2 9025   7.070   1.822   5.554
 3028TIP3   OH2 9026   3.706   2.316   2.949
 3028TIP3    H1 9027   3.735   2.396   2.992
 3028TIP3    H2 9028   3.761   2.310   2.871
 3029TIP3   OH2 9029   7.788   4.493   3.035
 3029TIP3    H1 9030   7.811   4.561   3.098
 3029TIP3    H2 9031   7.869   4.446   3.019
 3030TIP3   OH2 9032   0.665   0.539   1.543
 3030TIP3    H1 9033   0.635   0.625   1.512
 3030TIP3    H2 9034   0.739   0.558   1.600
 3031TIP3   OH2 9035   3.522   3.884   0.882
 3031TIP3    H1 9036   3.515   3.872   0.787
 3031TIP3    H2 9037   3.528   3.796   0.918
 3032TIP3   OH2 9038   6.462   0.731   3.023
 3032TIP3    H1 9039   6.548   0.770   3.040
 3032TIP3    H2 9040   6.439   0.688   3.105
 3033TIP3   OH2 9041   6.429   3.320   5.082
 3033TIP3    H1 9042   6.494   3.390   5.087
 3033TIP3    H2 9043   6.352   3.356   5.126
 3034TIP3   OH2 9044   3.448   1.872   3.229
 3034TIP3    H1 9045   3.510   1.910   3.166
 3034TIP3    H2 9046   3.500   1.808   3.277
 3035TIP3   OH2 9047   0.145   1.426   1.471
 3035TIP3    H1 9048   0.127   1.508   1.518
 3035TIP3    H2 9049   0.227   1.443   1.425
 3036TIP3   OH2 9050   4.433   4.317   3.784
 3036TIP3    H1 9051   4.452   4.317   3.690
 3036TIP3    H2 9052   4.380   4.395   3.798
 3037TIP3   OH2 9053   2.590   5.795   1.947
 3037TIP3    H1 9054   2.553   5.726   2.001
 3037TIP3    H2 9055   2.526   5.865   1.949
 3038TIP3   OH2 9056   3.940   7.541   4.123
 3038TIP3    H1 9057   3.885   7.559   4.200
 3038TIP3    H2 9058   4.027   7.525   4.159
 3039TIP3   OH2 9059   3.707   6.257   5.920
 3039TIP3    H1 9060   3.644   6.185   5.917
 3039TIP3    H2 9061   3.656   6.331   5.955
 3040TIP3   OH2 9062   8.030   7.799   0.614
 3040TIP3    H1 9063   8.030   7.890   0.643
 3040TIP3    H2 9064   7.939   7.770   0.622
 3041TIP3   OH2 9065   0.695   5.608   0.954
 3041TIP3    H1 9066   0.785   5.595   0.925
 3041TIP3    H2 9067   0.649   5.530   0.923
 3042TIP3   OH2 9068   1.002   5.504   2.454
 3042TIP3    H1 9069   1.060   5.429   2.470
 3042TIP3    H2 9070   0.916   5.465   2.438
 3043TIP3   OH2 9071   5.514   7.338   5.520
 3043TIP3    H1 9072   5.486   7.252   5.551
 3043TIP3    H2 9073   5.554   7.320   5.435
 3044TIP3   OH2 9074   7.603   0.426   0.796
 3044TIP3    H1 9075   7.517   0.406   0.834
 3044TIP3    H2 9076   7.654   0.461   0.869
 3045TIP3   OH2 9077   8.315   4.552   5.423
 3045TIP3    H1 9078   8.397   4.590   5.455
 3045TIP3    H2 9079   8.329   4.457   5.428
 3046TIP3   OH2 9080   6.547   5.904   4.934
 3046TIP3    H1 9081   6.572   5.892   5.025
 3046TIP3    H2 9082   6.570   5.822   4.891
 3047TIP3   OH2 9083   2.118   7.548   0.283
 3047TIP3    H1 9084   2.024   7.546   0.301
 3047TIP3    H2 9085   2.129   7.617   0.218
 3048TIP3   OH2 9086   0.725   3.772   0.228
 3048TIP3    H1 9087   0.810   3.729   0.216
 3048TIP3    H2 9088   0.668   3.732   0.162
 3049TIP3   OH2 9089   0.167   6.848   5.226
 3049TIP3    H1 9090   0.180   6.754   5.214
 3049TIP3    H2 9091   0.136   6.879   5.141
 3050TIP3   OH2 9092   2.396   1.648   6.452
 3050TIP3    H1 9093   2.446   1.652   6.533
 3050TIP3    H2 9094   2.414   1.561   6.417
 3051TIP3   OH2 9095   3.923   3.398   0.963
 3051TIP3    H1 9096   3.879   3.390   0.878
 3051TIP3    H2 9097   3.899   3.319   1.010
 3052TIP3   OH2 9098   3.899   0.665   3.221
 3052TIP3    H1 9099   3.941   0.579   3.227
 3052TIP3    H2 9100   3.971   0.726   3.203
 3053TIP3   OH2 9101   3.700   5.403   0.114
 3053TIP3    H1 9102   3.682   5.422   0.022
 3053TIP3    H2 9103   3.736   5.485   0.149
 3054TIP3   OH2 9104   6.839   7.809   3.612
 3054TIP3    H1 9105   6.804   7.720   3.616
 3054TIP3    H2 9106   6.768   7.864   3.646
 3055TIP3   OH2 9107   7.694   4.158   3.458
 3055TIP3    H1 9108   7.648   4.086   3.415
 3055TIP3    H2 9109   7.707   4.222   3.388
 3056TIP3   OH2 9110   3.641   2.086   1.404
 3056TIP3    H1 9111   3.730   2.116   1.422
 3056TIP3    H2 9112   3.650   1.992   1.392
 3057TIP3   OH2 9113   8.059   7.770   0.330
 3057TIP3    H1 9114   7.984   7.731   0.285
 3057TIP3    H2 9115   8.032   7.773   0.422
 3058TIP3   OH2 9116   0.687   2.744   0.622
 3058TIP3    H1 9117   0.606   2.765   0.667
 3058TIP3    H2 9118   0.709   2.656   0.654
 3059TIP3   OH2 9119   0.199   5.890   3.065
 3059TIP3    H1 9120   0.230   5.802   3.086
 3059TIP3    H2 9121   0.152   5.918   3.144
 3060TIP3   OH2 9122   7.683   5.201   4.000
 3060TIP3    H1 9123   7.760   5.250   4.029
 3060TIP3    H2 9124   7.620   5.210   4.071
 3061TIP3   OH2 9125   0.061   7.160   3.353
 3061TIP3    H1 9126   0.156   7.167   3.343
 3061TIP3    H2 9127   0.040   7.214   3.429
 3062TIP3   OH2 9128   1.317   1.766   0.274
 3062TIP3    H1 9129   1.358   1.775   0.360
 3062TIP3    H2 9130   1.350   1.682   0.240
 3063TIP3   OH2 9131   7.655   0.383   6.404
 3063TIP3    H1 9132   7.658   0.288   6.390
 3063TIP3    H2 9133   7.734   0.416   6.362
 3064TIP3   OH2 9134   4.326   3.323   6.311
 3064TIP3    H1 9135   4.297   3.266   6.239
 3064TIP3    H2 9136   4.275   3.293   6.387
 3065TIP3   OH2 9137   1.148   3.786   0.070
 3065TIP3    H1 9138   1.098   3.741   0.138
 3065TIP3    H2 9139   1.228   3.735   0.060
 3066TIP3   OH2 9140   5.714   3.667   2.581
 3066TIP3    H1 9141   5.800   3.651   2.618
 3066TIP3    H2 9142   5.709   3.609   2.505
 3067TIP3   OH2 9143   1.394   1.903   5.292
 3067TIP3    H1 9144   1.335   1.848   5.240
 3067TIP3    H2 9145   1.368   1.887   5.383
 3068TIP3   OH2 9146   4.410   2.024   4.354
 3068TIP3    H1 9147   4.408   2.076   4.273
 3068TIP3    H2 9148   4.331   1.970   4.350
 3069TIP3   OH2 9149   1.087   3.008   2.351
 3069TIP3    H1 9150   1.114   3.017   2.442
 3069TIP3    H2 9151   1.023   2.936   2.352
 3070TIP3   OH2 9152   0.472   1.142   1.842
 3070TIP3    H1 9153   0.462   1.204   1.770
 3070TIP3    H2 9154   0.415   1.177   1.911
 3071TIP3   OH2 9155   1.877   1.811   2.232
 3071TIP3    H1 9156   1.963   1.839   2.202
 3071TIP3    H2 9157   1.816   1.850   2.170
 3072TIP3   OH2 9158   0.415   5.410   6.222
 3072TIP3    H1 9159   0.385   5.378   6.137
 3072TIP3    H2 9160   0.367   5.358   6.286
 3073TIP3   OH2 9161   7.489   4.741   1.348
 3073TIP3    H1 9162   7.568   4.687   1.351
 3073TIP3    H2 9163   7.505   4.811   1.412
 3074TIP3   OH2 9164   4.398   6.367   4.088
 3074TIP3    H1 9165   4.485   6.391   4.056
 3074TIP3    H2 9166   4.352   6.333   4.011
 3075TIP3   OH2 9167   2.558   3.837   3.646
 3075TIP3    H1 9168   2.470   3.802   3.654
 3075TIP3    H2 9169   2.603   3.775   3.588
 3076TIP3   OH2 9170   2.814   4.566   2.382
 3076TIP3    H1 9171   2.850   4.584   2.469
 3076TIP3    H2 9172   2.780   4.650   2.352
 3077TIP3   OH2 9173   4.679   7.762   5.149
 3077TIP3    H1 9174   4.708   7.812   5.073
 3077TIP3    H2 9175   4.756   7.713   5.177
 3078TIP3   OH2 9176   7.101   1.200   2.146
 3078TIP3    H1 9177   7.010   1.186   2.117
 3078TIP3    H2 9178   7.145   1.117   2.129
 3079TIP3   OH2 9179   6.005   6.069   2.591
 3079TIP3    H1 9180   5.943   6.133   2.626
 3079TIP3    H2 9181   6.007   5.999   2.656
 3080TIP3   OH2 9182   7.905   3.599   4.453
 3080TIP3    H1 9183   7.942   3.623   4.538
 3080TIP3    H2 9184   7.874   3.509   4.465
 3081TIP3   OH2 9185   2.772   2.027   2.492
 3081TIP3    H1 9186   2.832   2.038   2.566
 3081TIP3    H2 9187   2.829   2.019   2.415
 3082TIP3   OH2 9188   1.648   0.893   0.813
 3082TIP3    H1 9189   1.639   0.870   0.905
 3082TIP3    H2 9190   1.575   0.953   0.796
 3083TIP3   OH2 9191   2.127   2.365   2.544
 3083TIP3    H1 9192   2.039   2.381   2.578
 3083TIP3    H2 9193   2.160   2.451   2.519
 3084TIP3   OH2 9194   2.103   1.808   2.798
 3084TIP3    H1 9195   2.075   1.899   2.807
 3084TIP3    H2 9196   2.122   1.798   2.704
 3085TIP3   OH2 9197   6.076   6.448   1.915
 3085TIP3    H1 9198   6.025   6.403   1.847
 3085TIP3    H2 9199   6.160   6.466   1.874
 3086TIP3   OH2 9200   1.908   5.527   5.225
 3086TIP3    H1 9201   1.881   5.461   5.289
 3086TIP3    H2 9202   2.002   5.537   5.237
 3087TIP3   OH2 9203   4.722   2.238   0.358
 3087TIP3    H1 9204   4.789   2.296   0.394
 3087TIP3    H2 9205   4.747   2.151   0.391
 3088TIP3   OH2 9206   1.001   7.543   3.862
 3088TIP3    H1 9207   0.922   7.597   3.870
 3088TIP3    H2 9208   1.054   7.588   3.797
 3089TIP3   OH2 9209   0.176   3.611   1.581
 3089TIP3    H1 9210   0.251   3.648   1.627
 3089TIP3    H2 9211   0.150   3.537   1.635
 3090TIP3   OH2 9212   4.999   5.658   3.658
 3090TIP3    H1 9213   4.950   5.638   3.738
 3090TIP3    H2 9214   4.964   5.742   3.629
 3091TIP3   OH2 9215   1.882   0.647   1.923
 3091TIP3    H1 9216   1.963   0.598   1.907
 3091TIP3    H2 9217   1.907   0.714   1.987
 3092TIP3   OH2 9218   2.214   6.534   4.812
 3092TIP3    H1 9219   2.291   6.508   4.760
 3092TIP3    H2 9220   2.159   6.581   4.750
 3093TIP3   OH2 9221   0.824   5.788   0.374
 3093TIP3    H1 9222   0.797   5.711   0.423
 3093TIP3    H2 9223   0.745   5.815   0.327
 3094TIP3   OH2 9224   7.073   2.286   0.146
 3094TIP3    H1 9225   7.067   2.264   0.239
 3094TIP3    H2 9226   7.149   2.237   0.115
 3095TIP3   OH2 9227   3.471   2.601   6.670
 3095TIP3    H1 9228   3.476   2.529   6.733
 3095TIP3    H2 9229   3.561   2.610   6.637
 3096TIP3   OH2 9230   1.572   4.530   1.413
 3096TIP3    H1 9231   1.512   4.507   1.484
 3096TIP3    H2 9232   1.655   4.488   1.437
 3097TIP3   OH2 9233   0.046   6.015   4.437
 3097TIP3    H1 9234   0.103   5.979   4.370
 3097TIP3    H2 9235   0.066   5.963   4.516
 3098TIP3   OH2 9236   1.792   0.715   1.131
 3098TIP3    H1 9237   1.862   0.778   1.147
 3098TIP3    H2 9238   1.803   0.689   1.040
 3099TIP3   OH2 9239   0.113   5.831   6.088
 3099TIP3    H1 9240   0.153   5.780   6.018
 3099TIP3    H2 9241   0.034   5.784   6.112
 3100TIP3   OH2 9242   8.039   7.497   2.649
 3100TIP3    H1 9243   7.954   7.537   2.631
 3100TIP3    H2 9244   8.039   7.481   2.743
 3101TIP3   OH2 9245   0.185   1.008   1.019
 3101TIP3    H1 9246   0.174   0.913   1.029
 3101TIP3    H2 9247   0.222   1.036   1.103
 3102TIP3   OH2 9248   0.546   2.434   1.523
 3102TIP3    H1 9249   0.495   2.356   1.501
 3102TIP3    H2 9250   0.501   2.506   1.479
 3103TIP3   OH2 9251   7.683   5.129   1.360
 3103TIP3    H1 9252   7.613   5.073   1.395
 3103TIP3    H2 9253   7.761   5.102   1.409
 3104TIP3   OH2 9254   6.259   4.195   2.555
 3104TIP3    H1 9255   6.330   4.240   2.602
 3104TIP3    H2 9256   6.272   4.102   2.575
 3105TIP3   OH2 9257   2.947   1.470   0.247
 3105TIP3    H1 9258   3.028   1.450   0.202
 3105TIP3    H2 9259   2.971   1.534   0.314
 3106TIP3   OH2 9260   6.837   5.442   4.101
 3106TIP3    H1 9261   6.890   5.517   4.073
 3106TIP3    H2 9262   6.752   5.456   4.058
 3107TIP3   OH2 9263   0.749   1.047   6.260
 3107TIP3    H1 9264   0.775   1.070   6.349
 3107TIP3    H2 9265   0.766   1.126   6.209
 3108TIP3   OH2 9266   5.894   5.021   2.737
 3108TIP3    H1 9267   5.818   4.975   2.769
 3108TIP3    H2 9268   5.895   5.104   2.785
 3109TIP3   OH2 9269   5.969   7.023   3.631
 3109TIP3    H1 9270   5.888   6.998   3.585
 3109TIP3    H2 9271   6.027   7.055   3.561
 3110TIP3   OH2 9272   3.180   3.279   4.449
 3110TIP3    H1 9273   3.222   3.195   4.432
 3110TIP3    H2 9274   3.243   3.345   4.422
 3111TIP3   OH2 9275   6.873   2.591   2.704
 3111TIP3    H1 9276   6.947   2.651   2.702
 3111TIP3    H2 9277   6.797   2.647   2.688
 3112TIP3   OH2 9278   1.893   7.630   3.764
 3112TIP3    H1 9279   1.957   7.581   3.713
 3112TIP3    H2 9280   1.900   7.595   3.853
 3113TIP3   OH2 9281   7.414   2.672   2.434
 3113TIP3    H1 9282   7.509   2.662   2.423
 3113TIP3    H2 9283   7.401   2.676   2.528
 3114TIP3   OH2 9284   3.108   7.294   4.002
 3114TIP3    H1 9285   3.168   7.242   4.056
 3114TIP3    H2 9286   3.118   7.258   3.914
 3115TIP3   OH2 9287   6.049   7.381   2.605
 3115TIP3    H1 9288   5.980   7.408   2.545
 3115TIP3    H2 9289   6.126   7.431   2.576
 3116TIP3   OH2 9290   7.476   7.163   2.895
 3116TIP3    H1 9291   7.389   7.184   2.862
 3116TIP3    H2 9292   7.499   7.238   2.950
 3117TIP3   OH2 9293   6.589   7.496   4.619
 3117TIP3    H1 9294   6.568   7.416   4.668
 3117TIP3    H2 9295   6.556   7.479   4.531
 3118TIP3   OH2 9296   5.438   6.712   3.334
 3118TIP3    H1 9297   5.421   6.680   3.423
 3118TIP3    H2 9298   5.374   6.665   3.279
 3119TIP3   OH2 9299   1.299   1.487   2.263
 3119TIP3    H1 9300   1.279   1.581   2.257
 3119TIP3    H2 9301   1.352   1.470   2.185
 3120TIP3   OH2 9302   8.354   7.123   0.146
 3120TIP3    H1 9303   8.297   7.196   0.123
 3120TIP3    H2 9304   8.390   7.145   0.231
 3121TIP3   OH2 9305   4.960   2.247   0.569
 3121TIP3    H1 9306   4.942   2.315   0.634
 3121TIP3    H2 9307   5.053   2.258   0.548
 3122TIP3   OH2 9308   6.925   1.885   1.536
 3122TIP3    H1 9309   7.016   1.861   1.522
 3122TIP3    H2 9310   6.877   1.802   1.537
 3123TIP3   OH2 9311   4.563   2.528   0.718
 3123TIP3    H1 9312   4.477   2.551   0.753
 3123TIP3    H2 9313   4.610   2.611   0.713
 3124TIP3   OH2 9314   2.707   0.026   2.588
 3124TIP3    H1 9315   2.680   0.111   2.553
 3124TIP3    H2 9316   2.655   0.015   2.667
 3125TIP3   OH2 9317   6.912   4.654   2.116
 3125TIP3    H1 9318   6.848   4.586   2.094
 3125TIP3    H2 9319   6.987   4.636   2.059
 3126TIP3   OH2 9320   1.645   4.084   3.101
 3126TIP3    H1 9321   1.716   4.079   3.037
 3126TIP3    H2 9322   1.622   4.177   3.103
 3127TIP3   OH2 9323   8.166   7.672   5.328
 3127TIP3    H1 9324   8.251   7.633   5.309
 3127TIP3    H2 9325   8.102   7.610   5.293
 3128TIP3   OH2 9326   3.241   7.742   3.319
 3128TIP3    H1 9327   3.323   7.721   3.274
 3128TIP3    H2 9328   3.267   7.769   3.407
 3129TIP3   OH2 9329   6.907   7.688   0.208
 3129TIP3    H1 9330   6.918   7.737   0.126
 3129TIP3    H2 9331   6.959   7.608   0.195
 3130TIP3   OH2 9332   1.987   7.420   6.138
 3130TIP3    H1 9333   1.919   7.480   6.106
 3130TIP3    H2 9334   2.013   7.370   6.062
 3131TIP3   OH2 9335   5.798   1.103   1.985
 3131TIP3    H1 9336   5.864   1.135   2.047
 3131TIP3    H2 9337   5.729   1.169   1.986
 3132TIP3   OH2 9338   4.233   5.162   2.869
 3132TIP3    H1 9339   4.276   5.122   2.945
 3132TIP3    H2 9340   4.140   5.158   2.890
 3133TIP3   OH2 9341   5.993   1.230   4.827
 3133TIP3    H1 9342   6.065   1.171   4.846
 3133TIP3    H2 9343   6.023   1.281   4.751
 3134TIP3   OH2 9344   6.553   3.094   2.681
 3134TIP3    H1 9345   6.614   3.153   2.635
 3134TIP3    H2 9346   6.510   3.045   2.611
 3135TIP3   OH2 9347   1.337   2.463   6.570
 3135TIP3    H1 9348   1.409   2.420   6.614
 3135TIP3    H2 9349   1.358   2.455   6.476
 3136TIP3   OH2 9350   0.081   0.904   1.613
 3136TIP3    H1 9351   0.055   0.813   1.601
 3136TIP3    H2 9352   0.170   0.909   1.577
 3137TIP3   OH2 9353   6.833   2.714   0.229
 3137TIP3    H1 9354   6.753   2.768   0.227
 3137TIP3    H2 9355   6.802   2.627   0.255
 3138TIP3   OH2 9356   5.936   6.311   4.727
 3138TIP3    H1 9357   5.907   6.238   4.783
 3138TIP3    H2 9358   5.969   6.268   4.648
 3139TIP3   OH2 9359   3.680   7.208   1.208
 3139TIP3    H1 9360   3.728   7.286   1.237
 3139TIP3    H2 9361   3.705   7.199   1.116
 3140TIP3   OH2 9362   6.494   3.500   1.183
 3140TIP3    H1 9363   6.570   3.508   1.240
 3140TIP3    H2 9364   6.434   3.443   1.231
 3141TIP3   OH2 9365   3.705   5.857   2.031
 3141TIP3    H1 9366   3.630   5.798   2.031
 3141TIP3    H2 9367   3.781   5.800   2.042
 3142TIP3   OH2 9368   1.701   0.650   2.262
 3142TIP3    H1 9369   1.652   0.599   2.198
 3142TIP3    H2 9370   1.789   0.658   2.225
 3143TIP3   OH2 9371   7.462   6.830   5.986
 3143TIP3    H1 9372   7.429   6.748   6.022
 3143TIP3    H2 9373   7.554   6.835   6.014
 3144TIP3   OH2 9374   7.118   5.330   3.468
 3144TIP3    H1 9375   7.103   5.284   3.386
 3144TIP3    H2 9376   7.054   5.401   3.468
 3145TIP3   OH2 9377   6.235   2.003   4.569
 3145TIP3    H1 9378   6.304   2.061   4.601
 3145TIP3    H2 9379   6.176   2.061   4.521
 3146TIP3   OH2 9380   3.353   6.132   1.805
 3146TIP3    H1 9381   3.381   6.203   1.862
 3146TIP3    H2 9382   3.431   6.108   1.756
 3147TIP3   OH2 9383   0.191   3.084   2.654
 3147TIP3    H1 9384   0.200   3.023   2.581
 3147TIP3    H2 9385   0.122   3.144   2.626
 3148TIP3   OH2 9386   3.036   3.170   0.449
 3148TIP3    H1 9387   3.026   3.128   0.364
 3148TIP3    H2 9388   3.022   3.263   0.431
 3149TIP3   OH2 9389   5.982   1.543   0.255
 3149TIP3    H1 9390   5.892   1.525   0.283
 3149TIP3    H2 9391   6.002   1.474   0.193
 3150TIP3   OH2 9392   1.174   5.823   0.954
 3150TIP3    H1 9393   1.252   5.877   0.968
 3150TIP3    H2 9394   1.209   5.740   0.922
 3151TIP3   OH2 9395   0.546   7.518   1.769
 3151TIP3    H1 9396   0.583   7.606   1.760
 3151TIP3    H2 9397   0.456   7.531   1.796
 3152TIP3   OH2 9398   7.385   3.571   3.019
 3152TIP3    H1 9399   7.428   3.580   3.104
 3152TIP3    H2 9400   7.369   3.661   2.991
 3153TIP3   OH2 9401   7.270   1.137   5.624
 3153TIP3    H1 9402   7.191   1.142   5.678
 3153TIP3    H2 9403   7.284   1.043   5.611
 3154TIP3   OH2 9404   1.505   6.853   3.295
 3154TIP3    H1 9405   1.588   6.807   3.309
 3154TIP3    H2 9406   1.519   6.905   3.215
 3155TIP3   OH2 9407   2.514   1.948   3.937
 3155TIP3    H1 9408   2.428   1.991   3.939
 3155TIP3    H2 9409   2.495   1.859   3.905
 3156TIP3   OH2 9410   4.422   7.081   3.443
 3156TIP3    H1 9411   4.467   7.097   3.361
 3156TIP3    H2 9412   4.492   7.066   3.507
 3157TIP3   OH2 9413   1.956   0.473   3.854
 3157TIP3    H1 9414   1.993   0.445   3.771
 3157TIP3    H2 9415   1.914   0.557   3.836
 3158TIP3   OH2 9416   8.258   0.928   0.892
 3158TIP3    H1 9417   8.297   0.843   0.917
 3158TIP3    H2 9418   8.311   0.993   0.939
 3159TIP3   OH2 9419   7.054   2.422   3.853
 3159TIP3    H1 9420   7.136   2.470   3.837
 3159TIP3    H2 9421   6.999   2.445   3.778
 3160TIP3   OH2 9422   6.748   1.789   6.714
 3160TIP3    H1 9423   6.803   1.816   6.788
 3160TIP3    H2 9424   6.660   1.817   6.738
 3161TIP3   OH2 9425   7.167   3.057   0.023
 3161TIP3    H1 9426   7.218   2.979  -0.001
 3161TIP3    H2 9427   7.088   3.021   0.063
 3162TIP3   OH2 9428   5.480   3.341   0.044
 3162TIP3    H1 9429   5.479   3.370   0.135
 3162TIP3    H2 9430   5.388   3.330   0.020
 3163TIP3   OH2 9431   3.557   2.189   5.253
 3163TIP3    H1 9432   3.487   2.242   5.214
 3163TIP3    H2 9433   3.519   2.155   5.334
 3164TIP3   OH2 9434   7.229   1.422   2.058
 3164TIP3    H1 9435   7.200   1.338   2.096
 3164TIP3    H2 9436   7.247   1.477   2.134
 3165TIP3   OH2 9437   6.534   0.734   6.594
 3165TIP3    H1 9438   6.441   0.758   6.599
 3165TIP3    H2 9439   6.547   0.710   6.502
 3166TIP3   OH2 9440   4.644   4.041   0.716
 3166TIP3    H1 9441   4.575   4.099   0.683
 3166TIP3    H2 9442   4.602   3.955   0.724
 3167TIP3   OH2 9443   6.257   0.743   3.641
 3167TIP3    H1 9444   6.251   0.822   3.588
 3167TIP3    H2 9445   6.249   0.774   3.732
 3168TIP3   OH2 9446   1.276   1.727   5.112
 3168TIP3    H1 9447   1.311   1.652   5.160
 3168TIP3    H2 9448   1.216   1.688   5.048
 3169TIP3   OH2 9449   7.352   4.633   4.889
 3169TIP3    H1 9450   7.414   4.672   4.828
 3169TIP3    H2 9451   7.273   4.686   4.881
 3170TIP3   OH2 9452   8.272   0.241   6.430
 3170TIP3    H1 9453   8.236   0.153   6.442
 3170TIP3    H2 9454   8.210   0.285   6.373
 3171TIP3   OH2 9455   3.819   2.864   6.611
 3171TIP3    H1 9456   3.749   2.873   6.675
 3171TIP3    H2 9457   3.897   2.897   6.656
 3172TIP3   OH2 9458   6.061   6.692   3.333
 3172TIP3    H1 9459   6.070   6.709   3.427
 3172TIP3    H2 9460   5.967   6.702   3.316
 3173TIP3   OH2 9461   5.361   1.598   2.489
 3173TIP3    H1 9462   5.300   1.665   2.459
 3173TIP3    H2 9463   5.428   1.646   2.537
 3174TIP3   OH2 9464   4.158   2.344   2.943
 3174TIP3    H1 9465   4.085   2.397   2.976
 3174TIP3    H2 9466   4.151   2.350   2.848
 3175TIP3   OH2 9467   6.976   2.078   6.399
 3175TIP3    H1 9468   6.982   2.091   6.493
 3175TIP3    H2 9469   6.920   2.149   6.368
 3176TIP3   OH2 9470   2.550   7.327   3.929
 3176TIP3    H1 9471   2.505   7.411   3.916
 3176TIP3    H2 9472   2.575   7.301   3.840
 3177TIP3   OH2 9473   7.819   1.581   5.313
 3177TIP3    H1 9474   7.741   1.615   5.270
 3177TIP3    H2 9475   7.829   1.492   5.279
 3178TIP3   OH2 9476   3.861   2.481   0.178
 3178TIP3    H1 9477   3.831   2.411   0.120
 3178TIP3    H2 9478   3.898   2.435   0.254
 3179TIP3   OH2 9479   3.404   6.822   2.652
 3179TIP3    H1 9480   3.472   6.870   2.606
 3179TIP3    H2 9481   3.331   6.884   2.659
 3180TIP3   OH2 9482   4.647   6.569   5.791
 3180TIP3    H1 9483   4.703   6.534   5.860
 3180TIP3    H2 9484   4.605   6.646   5.830
 3181TIP3   OH2 9485   1.103   5.596   0.597
 3181TIP3    H1 9486   1.141   5.633   0.518
 3181TIP3    H2 9487   1.178   5.577   0.653
 3182TIP3   OH2 9488   7.257   2.228   5.644
 3182TIP3    H1 9489   7.262   2.149   5.590
 3182TIP3    H2 9490   7.276   2.299   5.583
 3183TIP3   OH2 9491   1.332   6.135   0.938
 3183TIP3    H1 9492   1.259   6.118   0.879
 3183TIP3    H2 9493   1.385   6.056   0.935
 3184TIP3   OH2 9494   2.133   4.866   6.725
 3184TIP3    H1 9495   2.219   4.831   6.749
 3184TIP3    H2 9496   2.096   4.899   6.808
 3185TIP3   OH2 9497   7.724   6.353   1.672
 3185TIP3    H1 9498   7.794   6.357   1.607
 3185TIP3    H2 9499   7.644   6.349   1.620
 3186TIP3   OH2 9500   0.046   6.522   4.643
 3186TIP3    H1 9501  -0.002   6.522   4.560
 3186TIP3    H2 9502   0.035   6.611   4.677
 3187TIP3   OH2 9503   2.387   5.290   0.474
 3187TIP3    H1 9504   2.403   5.320   0.563
 3187TIP3    H2 9505   2.451   5.336   0.420
 3188TIP3   OH2 9506   0.119   6.856   5.923
 3188TIP3    H1 9507   0.182   6.802   5.875
 3188TIP3    H2 9508   0.045   6.797   5.940
 3189TIP3   OH2 9509   6.346   7.177   6.218
 3189TIP3    H1 9510   6.399   7.255   6.202
 3189TIP3    H2 9511   6.375   7.115   6.152
 3190TIP3   OH2 9512   1.425   5.784   2.839
 3190TIP3    H1 9513   1.405   5.870   2.877
 3190TIP3    H2 9514   1.520   5.782   2.833
 3191TIP3   OH2 9515   4.661   3.389   2.247
 3191TIP3    H1 9516   4.721   3.318   2.227
 3191TIP3    H2 9517   4.646   3.433   2.163
 3192TIP3   OH2 9518   7.039   0.758   6.441
 3192TIP3    H1 9519   6.953   0.734   6.477
 3192TIP3    H2 9520   7.046   0.707   6.360
 3193TIP3   OH2 9521   7.208   0.783   1.666
 3193TIP3    H1 9522   7.122   0.763   1.702
 3193TIP3    H2 9523   7.190   0.826   1.582
 3194TIP3   OH2 9524   7.637   3.402   4.251
 3194TIP3    H1 9525   7.563   3.411   4.311
 3194TIP3    H2 9526   7.659   3.492   4.227
 3195TIP3   OH2 9527   7.113   1.786   2.618
 3195TIP3    H1 9528   7.043   1.779   2.683
 3195TIP3    H2 9529   7.160   1.866   2.643
 3196TIP3   OH2 9530   4.122   2.543   5.161
 3196TIP3    H1 9531   4.095   2.551   5.252
 3196TIP3    H2 9532   4.063   2.477   5.124
 3197TIP3   OH2 9533   8.003   6.925   1.818
 3197TIP3    H1 9534   7.954   7.001   1.787
 3197TIP3    H2 9535   7.946   6.885   1.884
 3198TIP3   OH2 9536   5.886   5.589   3.472
 3198TIP3    H1 9537   5.827   5.558   3.403
 3198TIP3    H2 9538   5.910   5.509   3.519
 3199TIP3   OH2 9539   6.764   2.368   2.179
 3199TIP3    H1 9540   6.773   2.421   2.100
 3199TIP3    H2 9541   6.838   2.393   2.233
 3200TIP3   OH2 9542   3.964   4.010   5.502
 3200TIP3    H1 9543   3.885   3.972   5.541
 3200TIP3    H2 9544   3.937   4.038   5.414
 3201TIP3   OH2 9545   4.536   3.508   4.050
 3201TIP3    H1 9546   4.441   3.493   4.040
 3201TIP3    H2 9547   4.543   3.592   4.095
 3202TIP3   OH2 9548   3.313   4.022   2.192
 3202TIP3    H1 9549   3.300   3.962   2.119
 3202TIP3    H2 9550   3.270   4.103   2.165
 3203TIP3   OH2 9551   6.249   5.525   1.066
 3203TIP3    H1 9552   6.331   5.518   1.115
 3203TIP3    H2 9553   6.219   5.435   1.054
 3204TIP3   OH2 9554   3.985   1.662   5.975
 3204TIP3    H1 9555   3.914   1.601   5.956
 3204TIP3    H2 9556   4.061   1.606   5.988
 3205TIP3   OH2 9557   4.443   2.132   4.102
 3205TIP3    H1 9558   4.534   2.104   4.096
 3205TIP3    H2 9559   4.418   2.155   4.013
 3206TIP3   OH2 9560   4.125   6.557   0.221
 3206TIP3    H1 9561   4.189   6.596   0.280
 3206TIP3    H2 9562   4.053   6.530   0.278
 3207TIP3   OH2 9563   1.783   2.595   0.556
 3207TIP3    H1 9564   1.850   2.597   0.488
 3207TIP3    H2 9565   1.820   2.540   0.625
 3208TIP3   OH2 9566   5.070   7.620   0.073
 3208TIP3    H1 9567   4.986   7.637   0.118
 3208TIP3    H2 9568   5.060   7.664  -0.012
 3209TIP3   OH2 9569   7.643   3.156   6.409
 3209TIP3    H1 9570   7.668   3.079   6.460
 3209TIP3    H2 9571   7.717   3.171   6.351
 3210TIP3   OH2 9572   6.304   1.600   2.516
 3210TIP3    H1 9573   6.276   1.644   2.436
 3210TIP3    H2 9574   6.369   1.536   2.487
 3211TIP3   OH2 9575   6.764   6.624   0.676
 3211TIP3    H1 9576   6.708   6.682   0.727
 3211TIP3    H2 9577   6.703   6.575   0.620
 3212TIP3   OH2 9578   7.149   7.830   1.452
 3212TIP3    H1 9579   7.107   7.911   1.422
 3212TIP3    H2 9580   7.080   7.783   1.498
 3213TIP3   OH2 9581   1.594   4.606   1.138
 3213TIP3    H1 9582   1.596   4.576   1.229
 3213TIP3    H2 9583   1.578   4.526   1.087
 3214TIP3   OH2 9584   2.260   0.094   1.348
 3214TIP3    H1 9585   2.237   0.091   1.441
 3214TIP3    H2 9586   2.313   0.174   1.339
 3215TIP3   OH2 9587   1.812   6.583   3.035
 3215TIP3    H1 9588   1.893   6.541   3.063
 3215TIP3    H2 9589   1.775   6.524   2.969
 3216TIP3   OH2 9590   2.280   0.362   5.485
 3216TIP3    H1 9591   2.266   0.451   5.519
 3216TIP3    H2 9592   2.221   0.355   5.410
 3217TIP3   OH2 9593   6.188   3.188   3.404
 3217TIP3    H1 9594   6.171   3.265   3.458
 3217TIP3    H2 9595   6.283   3.183   3.400
 3218TIP3   OH2 9596   3.732   1.066   3.158
 3218TIP3    H1 9597   3.770   1.140   3.205
 3218TIP3    H2 9598   3.761   1.077   3.068
 3219TIP3   OH2 9599   0.442   2.463   3.374
 3219TIP3    H1 9600   0.375   2.466   3.443
 3219TIP3    H2 9601   0.522   2.435   3.419
 3220TIP3   OH2 9602   5.200   0.060   3.565
 3220TIP3    H1 9603   5.230  -0.010   3.507
 3220TIP3    H2 9604   5.105   0.045   3.573
 3221TIP3   OH2 9605   6.848   1.864   4.621
 3221TIP3    H1 9606   6.785   1.802   4.584
 3221TIP3    H2 9607   6.833   1.860   4.716
 3222TIP3   OH2 9608   6.424   2.891   5.083
 3222TIP3    H1 9609   6.420   2.808   5.035
 3222TIP3    H2 9610   6.346   2.892   5.137
 3223TIP3   OH2 9611   6.692   3.266   4.025
 3223TIP3    H1 9612   6.621   3.213   3.987
 3223TIP3    H2 9613   6.654   3.353   4.036
 3224TIP3   OH2 9614   8.008   5.435   3.565
 3224TIP3    H1 9615   8.080   5.379   3.537
 3224TIP3    H2 9616   8.020   5.445   3.659
 3225TIP3   OH2 9617   7.277   5.579   5.144
 3225TIP3    H1 9618   7.202   5.639   5.138
 3225TIP3    H2 9619   7.352   5.636   5.160
 3226TIP3   OH2 9620   5.050   3.165   5.177
 3226TIP3    H1 9621   5.056   3.071   5.162
 3226TIP3    H2 9622   5.051   3.174   5.272
 3227TIP3   OH2 9623   6.257   2.404   3.530
 3227TIP3    H1 9624   6.234   2.395   3.622
 3227TIP3    H2 9625   6.176   2.384   3.483
 3228TIP3   OH2 9626   4.061   2.255   5.466
 3228TIP3    H1 9627   4.146   2.286   5.499
 3228TIP3    H2 9628   4.036   2.186   5.526
 3229TIP3   OH2 9629   6.900   6.862   0.594
 3229TIP3    H1 9630   6.844   6.786   0.606
 3229TIP3    H2 9631   6.972   6.830   0.538
 3230TIP3   OH2 9632   0.583   5.326   1.862
 3230TIP3    H1 9633   0.512   5.319   1.798
 3230TIP3    H2 9634   0.544   5.374   1.935
 3231TIP3   OH2 9635   0.240   7.450   5.559
 3231TIP3    H1 9636   0.209   7.525   5.610
 3231TIP3    H2 9637   0.164   7.424   5.507
 3232TIP3   OH2 9638   0.110   5.711   0.726
 3232TIP3    H1 9639   0.202   5.730   0.744
 3232TIP3    H2 9640   0.111   5.666   0.641
 3233TIP3   OH2 9641   3.349   4.920   3.115
 3233TIP3    H1 9642   3.372   4.938   3.206
 3233TIP3    H2 9643   3.334   5.007   3.077
 3234TIP3   OH2 9644   3.570   3.522   0.709
 3234TIP3    H1 9645   3.548   3.497   0.619
 3234TIP3    H2 9646   3.647   3.470   0.731
 3235TIP3   OH2 9647   0.391   3.872   4.366
 3235TIP3    H1 9648   0.427   3.877   4.454
 3235TIP3    H2 9649   0.342   3.954   4.355
 3236TIP3   OH2 9650   0.136   4.182   2.154
 3236TIP3    H1 9651   0.086   4.261   2.171
 3236TIP3    H2 9652   0.077   4.127   2.102
 3237TIP3   OH2 9653   4.478   4.833   3.495
 3237TIP3    H1 9654   4.559   4.845   3.446
 3237TIP3    H2 9655   4.491   4.752   3.544
 3238TIP3   OH2 9656   1.684   5.670   2.899
 3238TIP3    H1 9657   1.630   5.662   2.977
 3238TIP3    H2 9658   1.772   5.687   2.932
 3239TIP3   OH2 9659   4.522   6.896   0.362
 3239TIP3    H1 9660   4.496   6.918   0.451
 3239TIP3    H2 9661   4.618   6.904   0.363
 3240TIP3   OH2 9662   5.074   6.264   1.435
 3240TIP3    H1 9663   5.087   6.357   1.413
 3240TIP3    H2 9664   5.004   6.235   1.376
 3241TIP3   OH2 9665   5.786   4.226   0.993
 3241TIP3    H1 9666   5.720   4.265   1.050
 3241TIP3    H2 9667   5.869   4.263   1.024
 3242TIP3   OH2 9668   2.993   3.481   5.054
 3242TIP3    H1 9669   2.913   3.438   5.024
 3242TIP3    H2 9670   2.963   3.559   5.100
 3243TIP3   OH2 9671   7.838   6.468   0.647
 3243TIP3    H1 9672   7.881   6.503   0.725
 3243TIP3    H2 9673   7.794   6.544   0.608
 3244TIP3   OH2 9674   2.436   5.546   6.061
 3244TIP3    H1 9675   2.398   5.542   6.149
 3244TIP3    H2 9676   2.519   5.593   6.073
 3245TIP3   OH2 9677   2.737   2.233   6.485
 3245TIP3    H1 9678   2.819   2.204   6.526
 3245TIP3    H2 9679   2.740   2.196   6.397
 3246TIP3   OH2 9680   2.789  -0.033   1.307
 3246TIP3    H1 9681   2.794   0.062   1.316
 3246TIP3    H2 9682   2.695  -0.051   1.301
 3247TIP3   OH2 9683   0.545   7.474   3.792
 3247TIP3    H1 9684   0.512   7.487   3.881
 3247TIP3    H2 9685   0.474   7.431   3.745
 3248TIP3   OH2 9686   2.025   6.681   5.563
 3248TIP3    H1 9687   2.095   6.664   5.626
 3248TIP3    H2 9688   2.038   6.617   5.494
 3249TIP3   OH2 9689   7.215   5.951   6.332
 3249TIP3    H1 9690   7.226   6.016   6.262
 3249TIP3    H2 9691   7.295   5.899   6.330
 3250TIP3   OH2 9692   3.739   1.134   4.526
 3250TIP3    H1 9693   3.660   1.092   4.492
 3250TIP3    H2 9694   3.760   1.201   4.461
 3251TIP3   OH2 9695   7.780   4.097   2.057
 3251TIP3    H1 9696   7.742   4.027   2.004
 3251TIP3    H2 9697   7.801   4.055   2.141
 3252TIP3   OH2 9698   5.373   6.675   4.446
 3252TIP3    H1 9699   5.294   6.728   4.440
 3252TIP3    H2 9700   5.408   6.672   4.357
 3253TIP3   OH2 9701   0.587   1.049   4.046
 3253TIP3    H1 9702   0.594   0.982   3.978
 3253TIP3    H2 9703   0.673   1.048   4.089
 3254TIP3   OH2 9704   7.978   3.014   4.236
 3254TIP3    H1 9705   7.903   2.966   4.201
 3254TIP3    H2 9706   7.956   3.106   4.222
 3255TIP3   OH2 9707   2.139   7.587   4.369
 3255TIP3    H1 9708   2.084   7.645   4.317
 3255TIP3    H2 9709   2.106   7.499   4.351
 3256TIP3   OH2 9710   3.255   5.640   1.538
 3256TIP3    H1 9711   3.278   5.721   1.491
 3256TIP3    H2 9712   3.314   5.574   1.503
 3257TIP3   OH2 9713   4.424   5.064   4.824
 3257TIP3    H1 9714   4.465   4.984   4.856
 3257TIP3    H2 9715   4.330   5.051   4.840
 3258TIP3   OH2 9716   5.660   7.351   4.569
 3258TIP3    H1 9717   5.652   7.306   4.653
 3258TIP3    H2 9718   5.580   7.329   4.522
 3259TIP3   OH2 9719   4.636   6.636   3.233
 3259TIP3    H1 9720   4.602   6.672   3.151
 3259TIP3    H2 9721   4.690   6.561   3.206
 3260TIP3   OH2 9722   3.803   7.275   3.065
 3260TIP3    H1 9723   3.735   7.312   3.010
 3260TIP3    H2 9724   3.883   7.320   3.038
 3261TIP3   OH2 9725   3.773   4.321   4.057
 3261TIP3    H1 9726   3.750   4.340   4.148
 3261TIP3    H2 9727   3.744   4.398   4.008
 3262TIP3   OH2 9728   0.713   4.572   5.465
 3262TIP3    H1 9729   0.744   4.640   5.405
 3262TIP3    H2 9730   0.741   4.490   5.424
 3263TIP3   OH2 9731   6.581   5.480   4.773
 3263TIP3    H1 9732   6.580   5.394   4.731
 3263TIP3    H2 9733   6.489   5.496   4.796
 3264TIP3   OH2 9734   2.906   5.466   4.240
 3264TIP3    H1 9735   2.966   5.496   4.172
 3264TIP3    H2 9736   2.928   5.519   4.317
 3265TIP3   OH2 9737   4.176   4.100   1.311
 3265TIP3    H1 9738   4.149   4.009   1.325
 3265TIP3    H2 9739   4.229   4.121   1.388
 3266TIP3   OH2 9740   2.354   0.747   3.901
 3266TIP3    H1 9741   2.446   0.747   3.875
 3266TIP3    H2 9742   2.335   0.655   3.921
 3267TIP3   OH2 9743   6.263   4.988   3.205
 3267TIP3    H1 9744   6.198   5.032   3.150
 3267TIP3    H2 9745   6.232   5.001   3.295
 3268TIP3   OH2 9746   8.097   5.030   5.904
 3268TIP3    H1 9747   8.081   5.014   5.811
 3268TIP3    H2 9748   8.163   4.965   5.928
 3269TIP3   OH2 9749   7.737   3.805   1.915
 3269TIP3    H1 9750   7.687   3.725   1.898
 3269TIP3    H2 9751   7.723   3.859   1.837
 3270TIP3   OH2 9752   7.706   5.208   0.673
 3270TIP3    H1 9753   7.643   5.255   0.727
 3270TIP3    H2 9754   7.765   5.166   0.736
 3271TIP3   OH2 9755   7.041   1.990   5.177
 3271TIP3    H1 9756   7.103   2.047   5.131
 3271TIP3    H2 9757   7.065   1.902   5.150
 3272TIP3   OH2 9758   5.313   4.867   0.702
 3272TIP3    H1 9759   5.386   4.807   0.718
 3272TIP3    H2 9760   5.354   4.954   0.700
 3273TIP3   OH2 9761   5.978   7.613   2.143
 3273TIP3    H1 9762   5.950   7.701   2.166
 3273TIP3    H2 9763   5.904   7.575   2.097
 3274TIP3   OH2 9764   0.747   4.732   4.393
 3274TIP3    H1 9765   0.658   4.765   4.382
 3274TIP3    H2 9766   0.795   4.806   4.428
 3275TIP3   OH2 9767   3.914   3.649   2.272
 3275TIP3    H1 9768   3.949   3.614   2.190
 3275TIP3    H2 9769   3.992   3.670   2.324
 3276TIP3   OH2 9770   4.549   2.683   0.423
 3276TIP3    H1 9771   4.505   2.597   0.422
 3276TIP3    H2 9772   4.477   2.746   0.424
 3277TIP3   OH2 9773   2.786   2.678   0.856
 3277TIP3    H1 9774   2.826   2.594   0.876
 3277TIP3    H2 9775   2.734   2.661   0.777
 3278TIP3   OH2 9776   0.333   5.831   6.712
 3278TIP3    H1 9777   0.407   5.845   6.771
 3278TIP3    H2 9778   0.337   5.737   6.692
 3279TIP3   OH2 9779   4.803   6.681   0.191
 3279TIP3    H1 9780   4.860   6.604   0.187
 3279TIP3    H2 9781   4.716   6.645   0.205
 3280TIP3   OH2 9782   0.201   6.078   1.684
 3280TIP3    H1 9783   0.245   6.032   1.612
 3280TIP3    H2 9784   0.193   6.169   1.653
 3281TIP3   OH2 9785   7.278   0.438   1.123
 3281TIP3    H1 9786   7.311   0.367   1.178
 3281TIP3    H2 9787   7.199   0.469   1.169
 3282TIP3   OH2 9788   1.505   2.793   0.249
 3282TIP3    H1 9789   1.443   2.862   0.228
 3282TIP3    H2 9790   1.451   2.713   0.253
 3283TIP3   OH2 9791   4.025   7.623   5.215
 3283TIP3    H1 9792   4.053   7.668   5.295
 3283TIP3    H2 9793   4.035   7.530   5.236
 3284TIP3   OH2 9794   1.525   5.505   0.448
 3284TIP3    H1 9795   1.513   5.430   0.506
 3284TIP3    H2 9796   1.489   5.579   0.496
 3285TIP3   OH2 9797   0.883   0.537   3.184
 3285TIP3    H1 9798   0.828   0.498   3.116
 3285TIP3    H2 9799   0.915   0.618   3.145
 3286TIP3   OH2 9800   0.349   3.896   4.667
 3286TIP3    H1 9801   0.345   3.808   4.706
 3286TIP3    H2 9802   0.405   3.945   4.727
 3287TIP3   OH2 9803   2.055   2.725   0.522
 3287TIP3    H1 9804   2.064   2.631   0.508
 3287TIP3    H2 9805   2.107   2.742   0.601
 3288TIP3   OH2 9806   7.050   0.461   0.010
 3288TIP3    H1 9807   7.096   0.537  -0.025
 3288TIP3    H2 9808   7.100   0.386  -0.021
 3289TIP3   OH2 9809   6.515   1.739   3.713
 3289TIP3    H1 9810   6.519   1.834   3.705
 3289TIP3    H2 9811   6.588   1.716   3.771
 3290TIP3   OH2 9812   2.633   4.969   2.520
 3290TIP3    H1 9813   2.558   4.962   2.461
 3290TIP3    H2 9814   2.638   5.062   2.542
 3291TIP3   OH2 9815   4.000   1.094   1.536
 3291TIP3    H1 9816   4.005   1.173   1.481
 3291TIP3    H2 9817   3.990   1.022   1.474
 3292TIP3   OH2 9818   6.973   5.902   0.024
 3292TIP3    H1 9819   6.975   5.832   0.090
 3292TIP3    H2 9820   6.898   5.956   0.048
 3293TIP3   OH2 9821   1.705   0.318   3.921
 3293TIP3    H1 9822   1.793   0.344   3.894
 3293TIP3    H2 9823   1.667   0.397   3.959
 3294TIP3   OH2 9824   4.461   7.375   6.057
 3294TIP3    H1 9825   4.516   7.451   6.079
 3294TIP3    H2 9826   4.523   7.303   6.047
 3295TIP3   OH2 9827   7.114   7.693   3.535
 3295TIP3    H1 9828   7.046   7.705   3.602
 3295TIP3    H2 9829   7.157   7.778   3.528
 3296TIP3   OH2 9830   7.644   3.740   0.272
 3296TIP3    H1 9831   7.565   3.780   0.308
 3296TIP3    H2 9832   7.664   3.791   0.194
 3297TIP3   OH2 9833   6.639   0.310   4.126
 3297TIP3    H1 9834   6.671   0.324   4.037
 3297TIP3    H2 9835   6.594   0.225   4.123
 3298TIP3   OH2 9836   7.859   0.859   3.623
 3298TIP3    H1 9837   7.870   0.891   3.533
 3298TIP3    H2 9838   7.842   0.938   3.674
 3299TIP3   OH2 9839   8.180   2.991   4.431
 3299TIP3    H1 9840   8.124   2.994   4.354
 3299TIP3    H2 9841   8.142   3.056   4.491
 3300TIP3   OH2 9842   7.965   1.182   0.426
 3300TIP3    H1 9843   7.977   1.147   0.338
 3300TIP3    H2 9844   7.925   1.110   0.475
 3301TIP3   OH2 9845   7.624   6.892   2.891
 3301TIP3    H1 9846   7.598   6.968   2.839
 3301TIP3    H2 9847   7.710   6.915   2.925
 3302TIP3   OH2 9848   2.738   2.930   4.961
 3302TIP3    H1 9849   2.790   2.868   4.910
 3302TIP3    H2 9850   2.702   2.877   5.033
 3303TIP3   OH2 9851   7.243   1.681   0.974
 3303TIP3    H1 9852   7.279   1.604   1.016
 3303TIP3    H2 9853   7.317   1.742   0.968
 3304TIP3   OH2 9854   1.043   5.039   1.938
 3304TIP3    H1 9855   1.092   5.119   1.917
 3304TIP3    H2 9856   1.110   4.971   1.940
 3305TIP3   OH2 9857   1.064   6.770   5.631
 3305TIP3    H1 9858   1.146   6.771   5.581
 3305TIP3    H2 9859   1.000   6.812   5.574
 3306TIP3   OH2 9860   2.537   7.749   0.030
 3306TIP3    H1 9861   2.630   7.756   0.050
 3306TIP3    H2 9862   2.495   7.736   0.114
 3307TIP3   OH2 9863   2.924   2.690   5.680
 3307TIP3    H1 9864   2.964   2.604   5.689
 3307TIP3    H2 9865   2.995   2.748   5.655
 3308TIP3   OH2 9866   1.618   7.731   6.347
 3308TIP3    H1 9867   1.628   7.745   6.253
 3308TIP3    H2 9868   1.686   7.785   6.387
 3309TIP3   OH2 9869   1.444   2.541   1.851
 3309TIP3    H1 9870   1.529   2.571   1.820
 3309TIP3    H2 9871   1.416   2.608   1.914
 3310TIP3   OH2 9872   2.202   5.379   2.716
 3310TIP3    H1 9873   2.186   5.321   2.791
 3310TIP3    H2 9874   2.135   5.446   2.723
 3311TIP3   OH2 9875   4.683   4.145   0.346
 3311TIP3    H1 9876   4.601   4.122   0.390
 3311TIP3    H2 9877   4.719   4.216   0.400
 3312TIP3   OH2 9878   1.627   2.087   1.808
 3312TIP3    H1 9879   1.547   2.066   1.760
 3312TIP3    H2 9880   1.639   2.181   1.794
 3313TIP3   OH2 9881   2.112   5.273  -0.015
 3313TIP3    H1 9882   2.197   5.270   0.029
 3313TIP3    H2 9883   2.050   5.248   0.053
 3314TIP3   OH2 9884   5.087   4.036   5.998
 3314TIP3    H1 9885   5.057   4.126   5.989
 3314TIP3    H2 9886   5.061   3.994   5.917
 3315TIP3   OH2 9887   1.550   1.495   4.473
 3315TIP3    H1 9888   1.501   1.575   4.452
 3315TIP3    H2 9889   1.622   1.494   4.410
 3316TIP3   OH2 9890   5.851   3.439   3.328
 3316TIP3    H1 9891   5.930   3.443   3.274
 3316TIP3    H2 9892   5.794   3.506   3.290
 3317TIP3   OH2 9893   5.686   2.329   3.773
 3317TIP3    H1 9894   5.660   2.345   3.863
 3317TIP3    H2 9895   5.639   2.249   3.748
 3318TIP3   OH2 9896   7.616   6.342   3.048
 3318TIP3    H1 9897   7.597   6.411   3.112
 3318TIP3    H2 9898   7.620   6.262   3.100
 3319TIP3   OH2 9899   5.461   4.004   0.206
 3319TIP3    H1 9900   5.431   3.959   0.128
 3319TIP3    H2 9901   5.386   4.004   0.265
 3320TIP3   OH2 9902   7.760   3.089   4.006
 3320TIP3    H1 9903   7.800   3.052   3.927
 3320TIP3    H2 9904   7.723   3.013   4.052
 3321TIP3   OH2 9905   0.641   3.997   2.338
 3321TIP3    H1 9906   0.580   3.986   2.265
 3321TIP3    H2 9907   0.696   4.071   2.312
 3322TIP3   OH2 9908   7.141   3.190   3.826
 3322TIP3    H1 9909   7.230   3.198   3.862
 3322TIP3    H2 9910   7.118   3.098   3.842
 3323TIP3   OH2 9911   2.451   0.868   2.717
 3323TIP3    H1 9912   2.425   0.777   2.713
 3323TIP3    H2 9913   2.542   0.866   2.748
 3324TIP3   OH2 9914   3.027   5.738   4.762
 3324TIP3    H1 9915   3.118   5.753   4.734
 3324TIP3    H2 9916   2.982   5.821   4.746
 3325TIP3   OH2 9917   5.072   3.698   4.161
 3325TIP3    H1 9918   5.068   3.631   4.092
 3325TIP3    H2 9919   5.127   3.659   4.229
 3326TIP3   OH2 9920   1.689   3.689   1.905
 3326TIP3    H1 9921   1.751   3.636   1.856
 3326TIP3    H2 9922   1.724   3.690   1.994
 3327TIP3   OH2 9923   0.348   4.125   2.908
 3327TIP3    H1 9924   0.427   4.100   2.859
 3327TIP3    H2 9925   0.377   4.126   3.000
 3328TIP3   OH2 9926   4.090   4.598   2.995
 3328TIP3    H1 9927   4.077   4.526   3.056
 3328TIP3    H2 9928   4.123   4.670   3.049
 3329TIP3   OH2 9929   4.878   6.704   2.184
 3329TIP3    H1 9930   4.786   6.717   2.162
 3329TIP3    H2 9931   4.915   6.792   2.191
 3330TIP3   OH2 9932   2.461   1.616   3.127
 3330TIP3    H1 9933   2.547   1.596   3.091
 3330TIP3    H2 9934   2.410   1.646   3.053
 3331TIP3   OH2 9935   7.644   4.635   2.317
 3331TIP3    H1 9936   7.634   4.579   2.240
 3331TIP3    H2 9937   7.579   4.705   2.304
 3332TIP3   OH2 9938   5.393   3.410   4.523
 3332TIP3    H1 9939   5.486   3.431   4.523
 3332TIP3    H2 9940   5.389   3.317   4.504
 3333TIP3   OH2 9941   4.046   0.771   6.280
 3333TIP3    H1 9942   4.071   0.685   6.247
 3333TIP3    H2 9943   4.003   0.813   6.205
 3334TIP3   OH2 9944   2.197   2.251   0.900
 3334TIP3    H1 9945   2.262   2.188   0.929
 3334TIP3    H2 9946   2.146   2.271   0.978
 3335TIP3   OH2 9947   4.785   0.885   5.212
 3335TIP3    H1 9948   4.808   0.971   5.248
 3335TIP3    H2 9949   4.859   0.829   5.235
 3336TIP3   OH2 9950   2.328   2.533   6.415
 3336TIP3    H1 9951   2.418   2.512   6.391
 3336TIP3    H2 9952   2.280   2.452   6.403
 3337TIP3   OH2 9953   2.737   5.276   0.500
 3337TIP3    H1 9954   2.782   5.212   0.446
 3337TIP3    H2 9955   2.681   5.325   0.439
 3338TIP3   OH2 9956   5.367   7.416   3.726
 3338TIP3    H1 9957   5.425   7.491   3.710
 3338TIP3    H2 9958   5.407   7.344   3.678
 3339TIP3   OH2 9959   4.216   2.878   5.663
 3339TIP3    H1 9960   4.231   2.853   5.572
 3339TIP3    H2 9961   4.303   2.884   5.702
 3340TIP3   OH2 9962   3.406   5.420   1.131
 3340TIP3    H1 9963   3.327   5.389   1.087
 3340TIP3    H2 9964   3.478   5.389   1.077
 3341TIP3   OH2 9965   6.502   3.093   3.889
 3341TIP3    H1 9966   6.446   3.170   3.888
 3341TIP3    H2 9967   6.462   3.034   3.825
 3342TIP3   OH2 9968   4.152   1.010   4.747
 3342TIP3    H1 9969   4.064   0.975   4.764
 3342TIP3    H2 9970   4.139   1.104   4.737
 3343TIP3   OH2 9971   5.661   2.038   6.710
 3343TIP3    H1 9972   5.651   2.127   6.676
 3343TIP3    H2 9973   5.641   1.981   6.636
 3344TIP3   OH2 9974   3.541   2.597   1.979
 3344TIP3    H1 9975   3.525   2.659   1.908
 3344TIP3    H2 9976   3.454   2.568   2.005
 3345TIP3   OH2 9977   5.322   1.721   3.821
 3345TIP3    H1 9978   5.410   1.704   3.787
 3345TIP3    H2 9979   5.298   1.805   3.782
 3346TIP3   OH2 9980   6.069   4.461   1.544
 3346TIP3    H1 9981   6.135   4.404   1.503
 3346TIP3    H2 9982   6.120   4.520   1.600
 3347TIP3   OH2 9983   7.184   2.609   2.821
 3347TIP3    H1 9984   7.164   2.533   2.766
 3347TIP3    H2 9985   7.229   2.572   2.898
 3348TIP3   OH2 9986   6.362   6.113   0.277
 3348TIP3    H1 9987   6.284   6.091   0.327
 3348TIP3    H2 9988   6.395   6.193   0.319
 3349TIP3   OH2 9989   5.255   2.770   4.910
 3349TIP3    H1 9990   5.331   2.748   4.857
 3349TIP3    H2 9991   5.180   2.738   4.858
 3350TIP3   OH2 9992   1.265   2.239   1.897
 3350TIP3    H1 9993   1.344   2.223   1.948
 3350TIP3    H2 9994   1.194   2.234   1.961
 3351TIP3   OH2 9995   4.300   7.144   6.406
 3351TIP3    H1 9996   4.339   7.056   6.404
 3351TIP3    H2 9997   4.257   7.149   6.492
 3352TIP3   OH2 9998   0.503   0.512   2.273
 3352TIP3    H1 9999   0.495   0.602   2.239
 3352TIP3    H210000   0.421   0.470   2.247
 3353TIP3   OH210001   3.027   5.286   3.830
 3353TIP3    H110002   3.017   5.365   3.884
 3353TIP3    H210003   3.001   5.214   3.887
 3354TIP3   OH210004   1.887   0.308   5.288
 3354TIP3    H110005   1.793   0.303   5.301
 3354TIP3    H210006   1.911   0.397   5.313
 3355TIP3   OH210007   4.052   4.495   0.512
 3355TIP3    H110008   4.040   4.419   0.569
 3355TIP3    H210009   4.141   4.486   0.479
 3356TIP3   OH210010   3.532   1.153   4.971
 3356TIP3    H110011   3.527   1.147   5.067
 3356TIP3    H210012   3.624   1.133   4.951
 3357TIP3   OH210013   5.109   5.110   6.087
 3357TIP3    H110014   5.174   5.154   6.031
 3357TIP3    H210015   5.101   5.167   6.163
 3358TIP3   OH210016   0.155   0.798   5.984
 3358TIP3    H110017   0.244   0.788   5.950
 3358TIP3    H210018   0.159   0.764   6.074
 3359TIP3   OH210019   7.451   7.567   3.264
 3359TIP3    H110020   7.430   7.660   3.251
 3359TIP3    H210021   7.447   7.530   3.176
 3360TIP3   OH210022   5.554   6.490   5.943
 3360TIP3    H110023   5.579   6.561   5.884
 3360TIP3    H210024   5.570   6.410   5.892
 3361TIP3   OH210025   7.190   0.649   3.002
 3361TIP3    H110026   7.148   0.584   3.058
 3361TIP3    H210027   7.209   0.723   3.060
 3362TIP3   OH210028   3.515   6.940   1.113
 3362TIP3    H110029   3.494   6.962   1.022
 3362TIP3    H210030   3.466   7.003   1.165
 3363TIP3   OH210031   1.518   0.860   1.138
 3363TIP3    H110032   1.527   0.955   1.147
 3363TIP3    H210033   1.600   0.825   1.173
 3364TIP3   OH210034   3.491   2.047   4.573
 3364TIP3    H110035   3.485   1.970   4.516
 3364TIP3    H210036   3.405   2.053   4.614
 3365TIP3   OH210037   5.312   7.683   2.163
 3365TIP3    H110038   5.249   7.718   2.226
 3365TIP3    H210039   5.371   7.757   2.145
 3366TIP3   OH210040   5.350   6.843   2.400
 3366TIP3    H110041   5.411   6.769   2.403
 3366TIP3    H210042   5.396   6.914   2.445
 3367TIP3   OH210043   5.566   7.243   0.396
 3367TIP3    H110044   5.495   7.185   0.366
 3367TIP3    H210045   5.561   7.239   0.492
 3368TIP3   OH210046   0.767   6.215   3.891
 3368TIP3    H110047   0.735   6.299   3.926
 3368TIP3    H210048   0.785   6.234   3.798
 3369TIP3   OH210049   4.590   3.358   4.500
 3369TIP3    H110050   4.540   3.435   4.473
 3369TIP3    H210051   4.528   3.306   4.552
 3370TIP3   OH210052   5.003   1.687   4.986
 3370TIP3    H110053   5.082   1.734   4.959
 3370TIP3    H210054   4.957   1.748   5.044
 3371TIP3   OH210055   2.560   7.218   4.330
 3371TIP3    H110056   2.632   7.279   4.318
 3371TIP3    H210057   2.565   7.160   4.253
 3372TIP3   OH210058   1.657   5.050   1.926
 3372TIP3    H110059   1.618   5.107   1.993
 3372TIP3    H210060   1.598   4.975   1.921
 3373TIP3   OH210061   5.642   1.111   4.303
 3373TIP3    H110062   5.610   1.031   4.263
 3373TIP3    H210063   5.647   1.174   4.231
 3374TIP3   OH210064   5.117   6.402   5.115
 3374TIP3    H110065   5.034   6.403   5.067
 3374TIP3    H210066   5.095   6.436   5.201
 3375TIP3   OH210067   1.478   3.818   1.800
 3375TIP3    H110068   1.540   3.754   1.836
 3375TIP3    H210069   1.531   3.875   1.745
 3376TIP3   OH210070   2.308   5.689   2.638
 3376TIP3    H110071   2.392   5.719   2.603
 3376TIP3    H210072   2.329   5.657   2.726
 3377TIP3   OH210073   3.443   5.854   2.673
 3377TIP3    H110074   3.430   5.759   2.676
 3377TIP3    H210075   3.500   5.868   2.597
 3378TIP3   OH210076   6.127   5.988   5.105
 3378TIP3    H110077   6.186   5.929   5.153
 3378TIP3    H210078   6.184   6.033   5.043
 3379TIP3   OH210079   4.307   5.310   6.063
 3379TIP3    H110080   4.264   5.249   6.123
 3379TIP3    H210081   4.382   5.261   6.029
 3380TIP3   OH210082   7.623   1.208   3.476
 3380TIP3    H110083   7.538   1.163   3.467
 3380TIP3    H210084   7.676   1.174   3.405
 3381TIP3   OH210085   0.574   5.683   0.004
 3381TIP3    H110086   0.631   5.606   0.004
 3381TIP3    H210087   0.509   5.665  -0.063
 3382TIP3   OH210088   2.660   3.488   6.045
 3382TIP3    H110089   2.574   3.458   6.072
 3382TIP3    H210090   2.690   3.421   5.982
 3383TIP3   OH210091   1.173   1.339   0.917
 3383TIP3    H110092   1.132   1.328   0.831
 3383TIP3    H210093   1.101   1.327   0.979
 3384TIP3   OH210094   3.639   0.009   0.912
 3384TIP3    H110095   3.570  -0.002   0.847
 3384TIP3    H210096   3.597  -0.016   0.995
 3385TIP3   OH210097   0.298   3.024   5.984
 3385TIP3    H110098   0.365   3.090   5.968
 3385TIP3    H210099   0.290   3.020   6.079
 3386TIP3   OH210100   8.152   5.203   6.359
 3386TIP3    H110101   8.138   5.148   6.436
 3386TIP3    H210102   8.218   5.157   6.308
 3387TIP3   OH210103   7.730   4.425   3.904
 3387TIP3    H110104   7.791   4.412   3.832
 3387TIP3    H210105   7.670   4.351   3.899
 3388TIP3   OH210106   4.080   0.366   1.565
 3388TIP3    H110107   4.006   0.406   1.519
 3388TIP3    H210108   4.091   0.420   1.644
 3389TIP3   OH210109   7.459   7.164   1.795
 3389TIP3    H110110   7.477   7.129   1.883
 3389TIP3    H210111   7.511   7.110   1.736
 3390TIP3   OH210112   3.299   6.223   5.494
 3390TIP3    H110113   3.384   6.179   5.491
 3390TIP3    H210114   3.269   6.211   5.584
 3391TIP3   OH210115   4.977   0.658   3.606
 3391TIP3    H110116   5.021   0.641   3.689
 3391TIP3    H210117   5.041   0.706   3.554
 3392TIP3   OH210118   2.154   5.243   3.026
 3392TIP3    H110119   2.105   5.191   3.089
 3392TIP3    H210120   2.179   5.322   3.073
 3393TIP3   OH210121   5.962   5.001   5.769
 3393TIP3    H110122   5.910   4.942   5.824
 3393TIP3    H210123   6.043   5.014   5.819
 3394TIP3   OH210124   3.993   0.057   5.189
 3394TIP3    H110125   4.002   0.021   5.101
 3394TIP3    H210126   3.927   0.126   5.180
 3395TIP3   OH210127   1.095   0.099   3.866
 3395TIP3    H110128   1.006   0.107   3.902
 3395TIP3    H210129   1.099   0.166   3.797
 3396TIP3   OH210130   2.767   1.460   0.046
 3396TIP3    H110131   2.841   1.484   0.101
 3396TIP3    H210132   2.701   1.527   0.065
 3397TIP3   OH210133   5.654   1.860   0.351
 3397TIP3    H110134   5.622   1.948   0.369
 3397TIP3    H210135   5.749   1.868   0.350
 3398TIP3   OH210136   0.323   4.159   1.421
 3398TIP3    H110137   0.284   4.211   1.491
 3398TIP3    H210138   0.250   4.111   1.382
 3399TIP3   OH210139   5.870   2.559   1.787
 3399TIP3    H110140   5.852   2.483   1.731
 3399TIP3    H210141   5.786   2.603   1.796
 3400TIP3   OH210142   8.291   6.811   2.566
 3400TIP3    H110143   8.196   6.827   2.561
 3400TIP3    H210144   8.300   6.716   2.562
 3401TIP3   OH210145   7.164   0.623   5.473
 3401TIP3    H110146   7.159   0.636   5.568
 3401TIP3    H210147   7.084   0.576   5.451
 3402TIP3   OH210148   3.864   2.624   1.972
 3402TIP3    H110149   3.889   2.615   1.881
 3402TIP3    H210150   3.947   2.641   2.018
 3403TIP3   OH210151   6.793   0.787   6.206
 3403TIP3    H110152   6.838   0.859   6.248
 3403TIP3    H210153   6.747   0.827   6.132
 3404TIP3   OH210154   4.360   4.498   5.794
 3404TIP3    H110155   4.270   4.481   5.765
 3404TIP3    H210156   4.351   4.522   5.887
 3405TIP3   OH210157   3.893   4.646   2.263
 3405TIP3    H110158   3.966   4.629   2.203
 3405TIP3    H210159   3.838   4.568   2.257
 3406TIP3   OH210160   2.710   2.626   4.519
 3406TIP3    H110161   2.690   2.719   4.523
 3406TIP3    H210162   2.794   2.621   4.473
 3407TIP3   OH210163   3.206   0.206   3.008
 3407TIP3    H110164   3.156   0.128   3.031
 3407TIP3    H210165   3.187   0.221   2.916
 3408TIP3   OH210166   5.607   3.690   1.013
 3408TIP3    H110167   5.693   3.729   1.025
 3408TIP3    H210168   5.609   3.611   1.068
 3409TIP3   OH210169   6.930   0.144   2.189
 3409TIP3    H110170   6.921   0.099   2.273
 3409TIP3    H210171   6.988   0.218   2.207
 3410TIP3   OH210172   5.362   3.383   1.170
 3410TIP3    H110173   5.454   3.397   1.195
 3410TIP3    H210174   5.366   3.371   1.075
 3411TIP3   OH210175   1.320   1.349   2.539
 3411TIP3    H110176   1.357   1.318   2.457
 3411TIP3    H210177   1.275   1.430   2.516
 3412TIP3   OH210178   3.225   7.649   4.697
 3412TIP3    H110179   3.206   7.653   4.603
 3412TIP3    H210180   3.314   7.614   4.703
 3413TIP3   OH210181   5.658   0.432   3.546
 3413TIP3    H110182   5.707   0.398   3.471
 3413TIP3    H210183   5.647   0.525   3.527
 3414TIP3   OH210184   8.038   5.521   2.605
 3414TIP3    H110185   7.987   5.449   2.641
 3414TIP3    H210186   8.028   5.513   2.510
 3415TIP3   OH210187   5.048   1.506   2.593
 3415TIP3    H110188   4.996   1.556   2.656
 3415TIP3    H210189   5.016   1.534   2.508
 3416TIP3   OH210190   6.834   1.533   0.484
 3416TIP3    H110191   6.797   1.472   0.421
 3416TIP3    H210192   6.866   1.477   0.555
 3417TIP3   OH210193   5.029   6.359   3.681
 3417TIP3    H110194   5.064   6.435   3.727
 3417TIP3    H210195   5.106   6.307   3.658
 3418TIP3   OH210196   6.141   2.006   2.868
 3418TIP3    H110197   6.179   2.065   2.804
 3418TIP3    H210198   6.205   1.934   2.876
 3419TIP3   OH210199   7.028   3.506   1.227
 3419TIP3    H110200   7.004   3.416   1.249
 3419TIP3    H210201   6.951   3.558   1.251
 3420TIP3   OH210202   4.583   3.030   0.360
 3420TIP3    H110203   4.649   2.967   0.332
 3420TIP3    H210204   4.501   2.980   0.361
 3421TIP3   OH210205   2.290   4.319   6.429
 3421TIP3    H110206   2.218   4.343   6.371
 3421TIP3    H210207   2.324   4.403   6.461
 3422TIP3   OH210208   2.543   3.025   0.203
 3422TIP3    H110209   2.499   3.091   0.148
 3422TIP3    H210210   2.527   2.942   0.157
 3423TIP3   OH210211   6.246   3.547  -0.023
 3423TIP3    H110212   6.253   3.527   0.070
 3423TIP3    H210213   6.186   3.621  -0.028
 3424TIP3   OH210214   7.036   4.688   0.541
 3424TIP3    H110215   7.074   4.623   0.482
 3424TIP3    H210216   7.094   4.689   0.617
 3425TIP3   OH210217   6.592   3.092   5.160
 3425TIP3    H110218   6.520   3.145   5.125
 3425TIP3    H210219   6.559   3.002   5.158
 3426TIP3   OH210220   8.079   6.153   1.872
 3426TIP3    H110221   8.161   6.181   1.914
 3426TIP3    H210222   8.050   6.078   1.924
 3427TIP3   OH210223   1.528   6.687   6.224
 3427TIP3    H110224   1.441   6.710   6.192
 3427TIP3    H210225   1.580   6.766   6.209
 3428TIP3   OH210226   7.547   2.493   5.483
 3428TIP3    H110227   7.605   2.489   5.559
 3428TIP3    H210228   7.606   2.503   5.408
 3429TIP3   OH210229   2.316   1.272   6.016
 3429TIP3    H110230   2.275   1.202   5.966
 3429TIP3    H210231   2.261   1.348   5.999
 3430TIP3   OH210232   2.705   2.195   4.891
 3430TIP3    H110233   2.696   2.289   4.876
 3430TIP3    H210234   2.669   2.155   4.812
 3431TIP3   OH210235   1.431   1.425   2.028
 3431TIP3    H110236   1.517   1.449   1.996
 3431TIP3    H210237   1.370   1.458   1.962
 3432TIP3   OH210238   0.820   0.469   2.882
 3432TIP3    H110239   0.879   0.401   2.916
 3432TIP3    H210240   0.878   0.530   2.836
 3433TIP3   OH210241   2.490   0.331   6.617
 3433TIP3    H110242   2.569   0.382   6.595
 3433TIP3    H210243   2.491   0.326   6.713
 3434TIP3   OH210244   4.389   4.632   0.029
 3434TIP3    H110245   4.362   4.572  -0.040
 3434TIP3    H210246   4.360   4.718  -0.001
 3435TIP3   OH210247   0.123   5.719   1.469
 3435TIP3    H110248   0.195   5.685   1.415
 3435TIP3    H210249   0.095   5.799   1.425
 3436TIP3   OH210250   4.818   1.123   6.507
 3436TIP3    H110251   4.866   1.074   6.440
 3436TIP3    H210252   4.883   1.183   6.542
 3437TIP3   OH210253   5.453   3.863   4.118
 3437TIP3    H110254   5.422   3.951   4.096
 3437TIP3    H210255   5.384   3.827   4.175
 3438TIP3   OH210256   1.318   4.866   0.790
 3438TIP3    H110257   1.233   4.822   0.789
 3438TIP3    H210258   1.331   4.891   0.881
 3439TIP3   OH210259   7.397   3.082   4.594
 3439TIP3    H110260   7.418   3.116   4.507
 3439TIP3    H210261   7.312   3.120   4.615
 3440TIP3   OH210262   5.543   0.701   3.600
 3440TIP3    H110263   5.605   0.740   3.661
 3440TIP3    H210264   5.457   0.720   3.637
 3441TIP3   OH210265   4.977   2.719   6.608
 3441TIP3    H110266   5.030   2.671   6.671
 3441TIP3    H210267   4.984   2.811   6.636
 3442TIP3   OH210268   7.503   1.813   3.380
 3442TIP3    H110269   7.468   1.820   3.469
 3442TIP3    H210270   7.540   1.725   3.376
 3443TIP3   OH210271   0.430   5.074   6.625
 3443TIP3    H110272   0.462   5.111   6.543
 3443TIP3    H210273   0.498   5.012   6.651
 3444TIP3   OH210274   4.604   1.810   1.517
 3444TIP3    H110275   4.547   1.734   1.530
 3444TIP3    H210276   4.622   1.810   1.423
 3445TIP3   OH210277   1.544   6.037   1.598
 3445TIP3    H110278   1.626   6.037   1.647
 3445TIP3    H210279   1.548   6.116   1.544
 3446TIP3   OH210280   5.547   1.564   6.352
 3446TIP3    H110281   5.546   1.636   6.289
 3446TIP3    H210282   5.600   1.596   6.425
 3447TIP3   OH210283   5.793   7.845   2.017
 3447TIP3    H110284   5.755   7.768   1.975
 3447TIP3    H210285   5.872   7.863   1.966
 3448TIP3   OH210286   2.928   4.577   0.669
 3448TIP3    H110287   2.958   4.508   0.728
 3448TIP3    H210288   2.954   4.659   0.712
 3449TIP3   OH210289   5.017   2.072   2.209
 3449TIP3    H110290   4.993   1.980   2.199
 3449TIP3    H210291   4.977   2.116   2.134
 3450TIP3   OH210292   7.580   5.394   5.095
 3450TIP3    H110293   7.496   5.387   5.049
 3450TIP3    H210294   7.607   5.485   5.083
 3451TIP3   OH210295   0.682   3.243   4.346
 3451TIP3    H110296   0.591   3.251   4.375
 3451TIP3    H210297   0.734   3.256   4.425
 3452TIP3   OH210298   6.701   4.238   6.157
 3452TIP3    H110299   6.661   4.306   6.211
 3452TIP3    H210300   6.661   4.250   6.071
 3453TIP3   OH210301   4.460   0.979   5.320
 3453TIP3    H110302   4.478   0.915   5.251
 3453TIP3    H210303   4.415   1.051   5.276
 3454TIP3   OH210304   1.644   5.381   6.220
 3454TIP3    H110305   1.719   5.436   6.199
 3454TIP3    H210306   1.625   5.333   6.139
 3455TIP3   OH210307   4.481   4.463   6.149
 3455TIP3    H110308   4.459   4.378   6.186
 3455TIP3    H210309   4.517   4.444   6.063
 3456TIP3   OH210310   0.475   1.144   4.783
 3456TIP3    H110311   0.431   1.069   4.824
 3456TIP3    H210312   0.565   1.140   4.816
 3457TIP3   OH210313   7.828   0.828   2.668
 3457TIP3    H110314   7.744   0.837   2.712
 3457TIP3    H210315   7.830   0.900   2.605
 3458TIP3   OH210316   7.158   1.573   6.210
 3458TIP3    H110317   7.215   1.508   6.250
 3458TIP3    H210318   7.078   1.572   6.262
 3459TIP3   OH210319   2.958   2.260   4.426
 3459TIP3    H110320   2.992   2.171   4.429
 3459TIP3    H210321   2.983   2.292   4.340
 3460TIP3   OH210322   6.095   5.098   3.764
 3460TIP3    H110323   6.029   5.167   3.758
 3460TIP3    H210324   6.143   5.117   3.844
 3461TIP3   OH210325   0.771   1.555   6.677
 3461TIP3    H110326   0.795   1.467   6.650
 3461TIP3    H210327   0.731   1.594   6.599
 3462TIP3   OH210328   8.295   7.567   4.670
 3462TIP3    H110329   8.258   7.653   4.650
 3462TIP3    H210330   8.265   7.548   4.759
 3463TIP3   OH210331   4.300   2.574   6.088
 3463TIP3    H110332   4.215   2.553   6.050
 3463TIP3    H210333   4.345   2.624   6.020
 3464TIP3   OH210334   2.096   6.443   2.166
 3464TIP3    H110335   2.000   6.442   2.166
 3464TIP3    H210336   2.121   6.403   2.249
 3465TIP3   OH210337   3.354   1.786   0.883
 3465TIP3    H110338   3.351   1.835   0.801
 3465TIP3    H210339   3.304   1.839   0.945
 3466TIP3   OH210340   6.500   7.216   2.215
 3466TIP3    H110341   6.420   7.230   2.164
 3466TIP3    H210342   6.517   7.122   2.208
 3467TIP3   OH210343  -0.030   1.659   3.279
 3467TIP3    H110344   0.026   1.636   3.205
 3467TIP3    H210345  -0.108   1.696   3.240
 3468TIP3   OH210346   2.390   3.011   5.552
 3468TIP3    H110347   2.382   3.044   5.642
 3468TIP3    H210348   2.401   2.916   5.562
 3469TIP3   OH210349   1.118   5.774   6.030
 3469TIP3    H110350   1.193   5.831   6.044
 3469TIP3    H210351   1.105   5.775   5.935
 3470TIP3   OH210352   5.889   1.807   5.178
 3470TIP3    H110353   5.869   1.719   5.212
 3470TIP3    H210354   5.948   1.845   5.244
 3471TIP3   OH210355   2.479   5.414   5.627
 3471TIP3    H110356   2.473   5.494   5.680
 3471TIP3    H210357   2.505   5.444   5.541
 3472TIP3   OH210358   0.560   6.288   6.587
 3472TIP3    H110359   0.647   6.295   6.549
 3472TIP3    H210360   0.536   6.196   6.575
 3473TIP3   OH210361   8.049   2.366   5.504
 3473TIP3    H110362   8.143   2.382   5.496
 3473TIP3    H210363   8.035   2.355   5.598
 3474TIP3   OH210364   4.455   5.852   1.777
 3474TIP3    H110365   4.441   5.761   1.751
 3474TIP3    H210366   4.400   5.902   1.718
 3475TIP3   OH210367   6.177   7.707   1.733
 3475TIP3    H110368   6.179   7.784   1.790
 3475TIP3    H210369   6.207   7.635   1.788
 3476TIP3   OH210370   6.057   2.221   4.580
 3476TIP3    H110371   5.984   2.206   4.520
 3476TIP3    H210372   6.015   2.248   4.662
 3477TIP3   OH210373   6.923   2.567   5.047
 3477TIP3    H110374   6.971   2.493   5.082
 3477TIP3    H210375   6.981   2.642   5.059
 3478TIP3   OH210376   5.975   6.757   6.225
 3478TIP3    H110377   6.022   6.726   6.147
 3478TIP3    H210378   6.019   6.839   6.248
 3479TIP3   OH210379   5.694   6.024   1.062
 3479TIP3    H110380   5.757   6.018   1.134
 3479TIP3    H210381   5.645   5.942   1.066
 3480TIP3   OH210382   1.935   5.195   6.264
 3480TIP3    H110383   1.944   5.099   6.265
 3480TIP3    H210384   1.879   5.215   6.339
 3481TIP3   OH210385   5.115   7.763   1.066
 3481TIP3    H110386   5.184   7.795   1.124
 3481TIP3    H210387   5.160   7.739   0.985
 3482TIP3   OH210388   2.605   3.703   4.508
 3482TIP3    H110389   2.606   3.608   4.499
 3482TIP3    H210390   2.602   3.719   4.602
 3483TIP3   OH210391   1.948   2.142   4.491
 3483TIP3    H110392   1.970   2.218   4.437
 3483TIP3    H210393   1.950   2.068   4.430
 3484TIP3   OH210394   3.497   5.292   5.383
 3484TIP3    H110395   3.463   5.316   5.296
 3484TIP3    H210396   3.590   5.312   5.379
 3485TIP3   OH210397   1.268   4.263   2.454
 3485TIP3    H110398   1.317   4.205   2.395
 3485TIP3    H210399   1.292   4.351   2.425
 3486TIP3   OH210400   6.379   6.892   1.367
 3486TIP3    H110401   6.345   6.915   1.281
 3486TIP3    H210402   6.427   6.970   1.395
 3487TIP3   OH210403   2.816   6.339   5.465
 3487TIP3    H110404   2.829   6.379   5.551
 3487TIP3    H210405   2.750   6.272   5.480
 3488TIP3   OH210406   0.812   6.739   0.705
 3488TIP3    H110407   0.879   6.790   0.659
 3488TIP3    H210408   0.756   6.804   0.746
 3489TIP3   OH210409   2.818   3.987   4.730
 3489TIP3    H110410   2.909   3.968   4.707
 3489TIP3    H210411   2.800   4.072   4.689
 3490TIP3   OH210412   6.117   3.439   1.996
 3490TIP3    H110413   6.148   3.528   1.980
 3490TIP3    H210414   6.060   3.447   2.073
 3491TIP3   OH210415   3.462   1.526   0.982
 3491TIP3    H110416   3.534   1.565   1.031
 3491TIP3    H210417   3.431   1.596   0.925
 3492TIP3   OH210418   7.770   5.080   4.486
 3492TIP3    H110419   7.696   5.042   4.533
 3492TIP3    H210420   7.806   5.008   4.434
 3493TIP3   OH210421   7.766   1.074   6.462
 3493TIP3    H110422   7.687   1.079   6.516
 3493TIP3    H210423   7.736   1.092   6.373
 3494TIP3   OH210424   0.988   3.172   4.955
 3494TIP3    H110425   0.912   3.119   4.977
 3494TIP3    H210426   1.033   3.186   5.038
 3495TIP3   OH210427   1.196   2.015   3.701
 3495TIP3    H110428   1.224   2.016   3.610
 3495TIP3    H210429   1.145   1.934   3.709
 3496TIP3   OH210430   7.329   4.312   2.798
 3496TIP3    H110431   7.279   4.330   2.877
 3496TIP3    H210432   7.302   4.379   2.736
 3497TIP3   OH210433   2.620   5.464   2.965
 3497TIP3    H110434   2.656   5.484   2.878
 3497TIP3    H210435   2.681   5.504   3.026
 3498TIP3   OH210436   5.873   3.520   0.150
 3498TIP3    H110437   5.881   3.539   0.243
 3498TIP3    H210438   5.899   3.602   0.107
 3499TIP3   OH210439   2.387   6.683   1.788
 3499TIP3    H110440   2.446   6.608   1.781
 3499TIP3    H210441   2.325   6.659   1.857
 3500TIP3   OH210442   1.516   2.871   2.854
 3500TIP3    H110443   1.610   2.855   2.849
 3500TIP3    H210444   1.476   2.784   2.853
 3501TIP3   OH210445   5.776   3.745   5.037
 3501TIP3    H110446   5.807   3.732   5.127
 3501TIP3    H210447   5.733   3.830   5.038
 3502TIP3   OH210448   4.813   6.743   4.104
 3502TIP3    H110449   4.830   6.756   4.011
 3502TIP3    H210450   4.859   6.815   4.147
 3503TIP3   OH210451   3.709   3.724   4.263
 3503TIP3    H110452   3.720   3.759   4.174
 3503TIP3    H210453   3.793   3.683   4.284
 3504TIP3   OH210454   4.334   5.053   3.089
 3504TIP3    H110455   4.330   5.081   3.181
 3504TIP3    H210456   4.427   5.032   3.075
 3505TIP3   OH210457   4.580   6.293   5.754
 3505TIP3    H110458   4.485   6.293   5.769
 3505TIP3    H210459   4.604   6.386   5.755
 3506TIP3   OH210460   7.323   6.590   6.364
 3506TIP3    H110461   7.379   6.538   6.306
 3506TIP3    H210462   7.250   6.619   6.308
 3507TIP3   OH210463   6.135   3.245   4.147
 3507TIP3    H110464   6.063   3.298   4.114
 3507TIP3    H210465   6.163   3.193   4.071
 3508TIP3   OH210466   0.944   0.801   3.026
 3508TIP3    H110467   0.961   0.769   2.938
 3508TIP3    H210468   0.998   0.880   3.034
 3509TIP3   OH210469   2.296   3.094   1.003
 3509TIP3    H110470   2.311   3.188   1.007
 3509TIP3    H210471   2.262   3.079   0.914
 3510TIP3   OH210472   3.927   6.967   1.258
 3510TIP3    H110473   4.003   6.954   1.202
 3510TIP3    H210474   3.963   7.009   1.337
 3511TIP3   OH210475   0.734   4.472   2.389
 3511TIP3    H110476   0.683   4.465   2.309
 3511TIP3    H210477   0.812   4.522   2.363
 3512TIP3   OH210478   4.402   3.333   3.579
 3512TIP3    H110479   4.414   3.258   3.638
 3512TIP3    H210480   4.470   3.395   3.605
 3513TIP3   OH210481   5.380   6.421   5.332
 3513TIP3    H110482   5.461   6.388   5.292
 3513TIP3    H210483   5.410   6.483   5.398
 3514TIP3   OH210484   6.540   3.643   4.482
 3514TIP3    H110485   6.603   3.656   4.412
 3514TIP3    H210486   6.490   3.725   4.485
 3515TIP3   OH210487   8.246   3.685   5.013
 3515TIP3    H110488   8.228   3.636   5.093
 3515TIP3    H210489   8.261   3.618   4.946
 3516TIP3   OH210490   6.498   5.537   5.129
 3516TIP3    H110491   6.439   5.540   5.053
 3516TIP3    H210492   6.568   5.477   5.102
 3517TIP3   OH210493   3.409   3.909   2.913
 3517TIP3    H110494   3.449   3.992   2.939
 3517TIP3    H210495   3.433   3.849   2.983
 3518TIP3   OH210496   4.804   4.663   2.213
 3518TIP3    H110497   4.745   4.646   2.286
 3518TIP3    H210498   4.755   4.636   2.135
 3519TIP3   OH210499   4.904   0.434   4.774
 3519TIP3    H110500   4.895   0.460   4.682
 3519TIP3    H210501   4.995   0.404   4.782
 3520TIP3   OH210502   5.976   4.177   2.097
 3520TIP3    H110503   6.016   4.187   2.183
 3520TIP3    H210504   5.940   4.263   2.077
 3521TIP3   OH210505   5.824   3.930   2.415
 3521TIP3    H110506   5.849   3.999   2.477
 3521TIP3    H210507   5.784   3.862   2.469
 3522TIP3   OH210508   2.924   1.135   1.158
 3522TIP3    H110509   2.952   1.057   1.206
 3522TIP3    H210510   2.954   1.120   1.068
 3523TIP3   OH210511   0.540   7.447   0.798
 3523TIP3    H110512   0.595   7.490   0.863
 3523TIP3    H210513   0.466   7.507   0.786
 3524TIP3   OH210514   6.257   5.725   5.135
 3524TIP3    H110515   6.221   5.739   5.048
 3524TIP3    H210516   6.350   5.742   5.126
 3525TIP3   OH210517   1.964   5.674   4.531
 3525TIP3    H110518   1.890   5.649   4.476
 3525TIP3    H210519   2.022   5.723   4.472
 3526TIP3   OH210520   4.363   3.948   0.949
 3526TIP3    H110521   4.389   3.887   1.017
 3526TIP3    H210522   4.407   3.916   0.870
 3527TIP3   OH210523   8.246   2.853   0.291
 3527TIP3    H110524   8.185   2.843   0.219
 3527TIP3    H210525   8.227   2.940   0.326
 3528TIP3   OH210526   4.849   3.186   2.113
 3528TIP3    H110527   4.871   3.167   2.021
 3528TIP3    H210528   4.794   3.113   2.141
 3529TIP3   OH210529   0.811   7.600   6.128
 3529TIP3    H110530   0.860   7.555   6.197
 3529TIP3    H210531   0.809   7.537   6.056
 3530TIP3   OH210532   0.582   1.516   0.837
 3530TIP3    H110533   0.569   1.421   0.827
 3530TIP3    H210534   0.639   1.541   0.765
 3531TIP3   OH210535   0.395   5.210   1.170
 3531TIP3    H110536   0.316   5.178   1.214
 3531TIP3    H210537   0.463   5.205   1.238
 3532TIP3   OH210538   7.744   2.927   1.114
 3532TIP3    H110539   7.831   2.891   1.132
 3532TIP3    H210540   7.719   2.971   1.195
 3533TIP3   OH210541   3.391   4.728   2.024
 3533TIP3    H110542   3.312   4.682   2.052
 3533TIP3    H210543   3.359   4.805   1.976
 3534TIP3   OH210544   7.133   5.243   0.387
 3534TIP3    H110545   7.204   5.234   0.450
 3534TIP3    H210546   7.100   5.154   0.375
 3535TIP3   OH210547   3.313   3.713   5.610
 3535TIP3    H110548   3.317   3.781   5.543
 3535TIP3    H210549   3.244   3.741   5.669
 3536TIP3   OH210550   6.961   4.570   4.889
 3536TIP3    H110551   6.903   4.642   4.861
 3536TIP3    H210552   7.011   4.548   4.811
 3537TIP3   OH210553   1.487   5.734   2.464
 3537TIP3    H110554   1.400   5.724   2.503
 3537TIP3    H210555   1.509   5.826   2.479
 3538TIP3   OH210556   4.447   1.474   4.476
 3538TIP3    H110557   4.485   1.555   4.440
 3538TIP3    H210558   4.481   1.405   4.419
 3539TIP3   OH210559   4.274   7.520   4.279
 3539TIP3    H110560   4.254   7.503   4.187
 3539TIP3    H210561   4.320   7.604   4.279
 3540TIP3   OH210562   3.203   4.714   2.287
 3540TIP3    H110563   3.112   4.689   2.270
 3540TIP3    H210564   3.198   4.789   2.346
 3541TIP3   OH210565   8.318   1.976   1.510
 3541TIP3    H110566   8.248   1.911   1.510
 3541TIP3    H210567   8.280   2.051   1.464
 3542TIP3   OH210568   7.500   4.852   0.379
 3542TIP3    H110569   7.496   4.948   0.383
 3542TIP3    H210570   7.594   4.832   0.384
 3543TIP3   OH210571   0.211   6.642   4.318
 3543TIP3    H110572   0.269   6.667   4.390
 3543TIP3    H210573   0.270   6.608   4.250
 3544TIP3   OH210574   4.311   4.297   5.169
 3544TIP3    H110575   4.316   4.280   5.264
 3544TIP3    H210576   4.332   4.213   5.129
 3545TIP3   OH210577   7.444   1.979   2.288
 3545TIP3    H110578   7.408   2.066   2.268
 3545TIP3    H210579   7.538   1.994   2.294
 3546TIP3   OH210580   5.460   5.120   0.664
 3546TIP3    H110581   5.552   5.127   0.638
 3546TIP3    H210582   5.415   5.186   0.612
 3547TIP3   OH210583   6.500   2.116   4.622
 3547TIP3    H110584   6.513   2.069   4.704
 3547TIP3    H210585   6.506   2.208   4.646
 3548TIP3   OH210586   6.244   7.624   5.108
 3548TIP3    H110587   6.319   7.620   5.049
 3548TIP3    H210588   6.177   7.569   5.066
 3549TIP3   OH210589   6.646   5.304   0.616
 3549TIP3    H110590   6.646   5.333   0.525
 3549TIP3    H210591   6.734   5.268   0.630
 3550TIP3   OH210592   3.000   6.394   5.214
 3550TIP3    H110593   2.999   6.312   5.164
 3550TIP3    H210594   2.966   6.369   5.300
 3551TIP3   OH210595   4.507   0.389   2.594
 3551TIP3    H110596   4.537   0.373   2.684
 3551TIP3    H210597   4.512   0.303   2.552
 3552TIP3   OH210598   0.812   4.345   5.675
 3552TIP3    H110599   0.722   4.336   5.644
 3552TIP3    H210600   0.865   4.333   5.596
 3553TIP3   OH210601   4.081   4.364   4.248
 3553TIP3    H110602   4.034   4.443   4.276
 3553TIP3    H210603   4.160   4.362   4.304
 3554TIP3   OH210604   0.242   0.723   0.137
 3554TIP3    H110605   0.210   0.811   0.157
 3554TIP3    H210606   0.305   0.704   0.206
 3555TIP3   OH210607   1.929   5.840   6.473
 3555TIP3    H110608   1.986   5.833   6.549
 3555TIP3    H210609   1.842   5.856   6.510
 3556TIP3   OH210610   0.581   3.765   0.849
 3556TIP3    H110611   0.509   3.824   0.826
 3556TIP3    H210612   0.651   3.823   0.880
 3557TIP3   OH210613   0.945   4.656   2.900
 3557TIP3    H110614   0.904   4.636   2.816
 3557TIP3    H210615   0.971   4.571   2.935
 3558TIP3   OH210616   3.253   1.036   0.258
 3558TIP3    H110617   3.220   0.957   0.301
 3558TIP3    H210618   3.242   1.105   0.323
 3559TIP3   OH210619   0.412   6.596   1.021
 3559TIP3    H110620   0.434   6.603   1.114
 3559TIP3    H210621   0.377   6.683   0.999
 3560TIP3   OH210622   6.664   6.581   6.634
 3560TIP3    H110623   6.587   6.630   6.662
 3560TIP3    H210624   6.665   6.589   6.539
 3561TIP3   OH210625   3.746   6.782   0.349
 3561TIP3    H110626   3.695   6.716   0.397
 3561TIP3    H210627   3.714   6.777   0.259
 3562TIP3   OH210628   4.179   4.494   3.772
 3562TIP3    H110629   4.236   4.570   3.777
 3562TIP3    H210630   4.134   4.492   3.856
 3563TIP3   OH210631   3.450   0.757   2.168
 3563TIP3    H110632   3.375   0.816   2.157
 3563TIP3    H210633   3.522   0.815   2.194
 3564TIP3   OH210634   0.229   0.163   1.396
 3564TIP3    H110635   0.270   0.127   1.318
 3564TIP3    H210636   0.302   0.194   1.450
 3565TIP3   OH210637   7.057   4.498   5.354
 3565TIP3    H110638   7.065   4.516   5.260
 3565TIP3    H210639   7.001   4.568   5.387
 3566TIP3   OH210640   7.641   4.490  -0.011
 3566TIP3    H110641   7.621   4.434   0.065
 3566TIP3    H210642   7.576   4.466  -0.076
 3567TIP3   OH210643   4.998   0.725   5.440
 3567TIP3    H110644   4.933   0.760   5.501
 3567TIP3    H210645   5.058   0.798   5.425
 3568TIP3   OH210646   3.414   3.654   1.738
 3568TIP3    H110647   3.319   3.660   1.730
 3568TIP3    H210648   3.444   3.627   1.651
 3569TIP3   OH210649   5.197   3.205   4.299
 3569TIP3    H110650   5.119   3.178   4.348
 3569TIP3    H210651   5.269   3.160   4.343
 3570TIP3   OH210652   0.969   7.524   1.410
 3570TIP3    H110653   0.996   7.450   1.465
 3570TIP3    H210654   0.908   7.573   1.464
 3571TIP3   OH210655   0.897   7.045   4.312
 3571TIP3    H110656   0.951   7.068   4.236
 3571TIP3    H210657   0.916   7.114   4.376
 3572TIP3   OH210658   2.950   5.283   3.148
 3572TIP3    H110659   3.026   5.303   3.203
 3572TIP3    H210660   2.987   5.247   3.068
 3573TIP3   OH210661   0.021   1.369   1.872
 3573TIP3    H110662  -0.065   1.410   1.861
 3573TIP3    H210663   0.064   1.422   1.939
 3574TIP3   OH210664   8.055   1.785   5.549
 3574TIP3    H110665   8.070   1.738   5.467
 3574TIP3    H210666   7.967   1.821   5.540
 3575TIP3   OH210667   5.822   4.980   3.917
 3575TIP3    H110668   5.895   4.993   3.977
 3575TIP3    H210669   5.828   4.888   3.891
 3576TIP3   OH210670   1.218   3.752   1.071
 3576TIP3    H110671   1.185   3.694   1.002
 3576TIP3    H210672   1.288   3.702   1.113
 3577TIP3   OH210673   8.142   3.814   3.283
 3577TIP3    H110674   8.125   3.729   3.324
 3577TIP3    H210675   8.161   3.873   3.356
 3578TIP3   OH210676   1.946   3.292   2.401
 3578TIP3    H110677   1.891   3.318   2.475
 3578TIP3    H210678   1.891   3.233   2.349
 3579TIP3   OH210679   1.168   2.312   4.513
 3579TIP3    H110680   1.170   2.244   4.446
 3579TIP3    H210681   1.077   2.340   4.517
 3580TIP3   OH210682   8.261   1.532   3.540
 3580TIP3    H110683   8.238   1.611   3.590
 3580TIP3    H210684   8.278   1.564   3.451
 3581TIP3   OH210685   7.743   2.880   1.668
 3581TIP3    H110686   7.811   2.824   1.704
 3581TIP3    H210687   7.707   2.926   1.744
 3582TIP3   OH210688   2.788   0.063   0.369
 3582TIP3    H110689   2.698   0.030   0.367
 3582TIP3    H210690   2.842  -0.016   0.367
 3583TIP3   OH210691   4.616   3.861   4.903
 3583TIP3    H110692   4.554   3.887   4.835
 3583TIP3    H210693   4.562   3.826   4.974
 3584TIP3   OH210694   6.190   1.690   6.392
 3584TIP3    H110695   6.179   1.601   6.426
 3584TIP3    H210696   6.147   1.688   6.307
 3585TIP3   OH210697   7.537   2.814   4.368
 3585TIP3    H110698   7.526   2.725   4.334
 3585TIP3    H210699   7.448   2.849   4.370
 3586TIP3   OH210700   2.027   2.253   3.162
 3586TIP3    H110701   2.000   2.180   3.217
 3586TIP3    H210702   2.104   2.289   3.206
 3587TIP3   OH210703   4.862   5.407   1.197
 3587TIP3    H110704   4.924   5.334   1.204
 3587TIP3    H210705   4.917   5.485   1.196
 3588TIP3   OH210706   7.730   6.410   5.211
 3588TIP3    H110707   7.647   6.405   5.163
 3588TIP3    H210708   7.710   6.374   5.298
 3589TIP3   OH210709   2.207   6.531   1.223
 3589TIP3    H110710   2.127   6.567   1.263
 3589TIP3    H210711   2.264   6.607   1.212
 3590TIP3   OH210712   3.248   5.604   3.548
 3590TIP3    H110713   3.335   5.605   3.587
 3590TIP3    H210714   3.230   5.696   3.527
 3591TIP3   OH210715   7.900   3.452   6.686
 3591TIP3    H110716   7.918   3.391   6.758
 3591TIP3    H210717   7.811   3.432   6.660
 3592TIP3   OH210718   6.527   7.738   6.061
 3592TIP3    H110719   6.527   7.788   6.142
 3592TIP3    H210720   6.580   7.790   6.000
 3593TIP3   OH210721   3.788   6.351   6.478
 3593TIP3    H110722   3.846   6.402   6.422
 3593TIP3    H210723   3.736   6.299   6.417
 3594TIP3   OH210724   7.030   4.376   1.473
 3594TIP3    H110725   7.111   4.423   1.492
 3594TIP3    H210726   7.044   4.336   1.387
 3595TIP3   OH210727   4.125   0.645   3.013
 3595TIP3    H110728   4.117   0.723   3.067
 3595TIP3    H210729   4.208   0.656   2.966
 3596TIP3   OH210730   2.642   0.476   2.317
 3596TIP3    H110731   2.577   0.545   2.331
 3596TIP3    H210732   2.722   0.509   2.357
 3597TIP3   OH210733   6.944   3.413   4.154
 3597TIP3    H110734   6.924   3.387   4.064
 3597TIP3    H210735   6.962   3.507   4.149
 3598TIP3   OH210736   5.092   0.485   6.309
 3598TIP3    H110737   5.027   0.546   6.343
 3598TIP3    H210738   5.123   0.438   6.386
 3599TIP3   OH210739   6.254   2.848   5.711
 3599TIP3    H110740   6.236   2.927   5.762
 3599TIP3    H210741   6.259   2.879   5.621
 3600TIP3   OH210742   5.389   6.857   0.235
 3600TIP3    H110743   5.480   6.829   0.243
 3600TIP3    H210744   5.345   6.784   0.192
 3601TIP3   OH210745   2.148   1.204   6.610
 3601TIP3    H110746   2.159   1.119   6.651
 3601TIP3    H210747   2.118   1.185   6.521
 3602TIP3   OH210748   5.065   1.998   4.121
 3602TIP3    H110749   5.058   1.966   4.211
 3602TIP3    H210750   5.046   1.921   4.067
 3603TIP3   OH210751   3.993   0.047   4.356
 3603TIP3    H110752   3.999   0.096   4.274
 3603TIP3    H210753   4.081   0.011   4.369
 3604TIP3   OH210754   3.851   2.716   2.740
 3604TIP3    H110755   3.849   2.730   2.645
 3604TIP3    H210756   3.818   2.797   2.777
 3605TIP3   OH210757   4.955   4.960   3.711
 3605TIP3    H110758   4.897   4.884   3.710
 3605TIP3    H210759   4.965   4.984   3.619
 3606TIP3   OH210760   2.356   2.371   0.039
 3606TIP3    H110761   2.289   2.407  -0.018
 3606TIP3    H210762   2.309   2.350   0.121
 3607TIP3   OH210763   5.401   4.387   0.781
 3607TIP3    H110764   5.381   4.342   0.699
 3607TIP3    H210765   5.384   4.322   0.849
 3608TIP3   OH210766   3.234   7.548   1.553
 3608TIP3    H110767   3.163   7.520   1.611
 3608TIP3    H210768   3.196   7.619   1.500
 3609TIP3   OH210769   1.353   7.210   1.968
 3609TIP3    H110770   1.324   7.143   2.030
 3609TIP3    H210771   1.442   7.182   1.943
 3610TIP3   OH210772   4.850   5.665   3.883
 3610TIP3    H110773   4.756   5.674   3.897
 3610TIP3    H210774   4.888   5.741   3.926
 3611TIP3   OH210775   4.579   4.060   3.579
 3611TIP3    H110776   4.501   4.114   3.566
 3611TIP3    H210777   4.629   4.071   3.498
 3612TIP3   OH210778   7.873   5.779   5.490
 3612TIP3    H110779   7.813   5.704   5.501
 3612TIP3    H210780   7.830   5.833   5.424
 3613TIP3   OH210781   1.543   5.270   2.064
 3613TIP3    H110782   1.453   5.243   2.084
 3613TIP3    H210783   1.539   5.366   2.066
 3614TIP3   OH210784   3.402   3.157   2.876
 3614TIP3    H110785   3.480   3.192   2.834
 3614TIP3    H210786   3.329   3.199   2.831
 3615TIP3   OH210787   1.310   5.114   2.522
 3615TIP3    H110788   1.285   5.197   2.564
 3615TIP3    H210789   1.326   5.054   2.595
 3616TIP3   OH210790   5.793   6.316   0.398
 3616TIP3    H110791   5.792   6.256   0.473
 3616TIP3    H210792   5.858   6.383   0.421
 3617TIP3   OH210793   1.956   4.789   2.276
 3617TIP3    H110794   1.871   4.745   2.280
 3617TIP3    H210795   1.949   4.848   2.200
 3618TIP3   OH210796   4.359   7.007   6.159
 3618TIP3    H110797   4.306   6.940   6.202
 3618TIP3    H210798   4.355   7.083   6.217
 3619TIP3   OH210799   0.217   5.412   4.848
 3619TIP3    H110800   0.159   5.468   4.899
 3619TIP3    H210801   0.202   5.438   4.757
 3620TIP3   OH210802   7.436   1.493   1.123
 3620TIP3    H110803   7.489   1.555   1.173
 3620TIP3    H210804   7.500   1.436   1.079
 3621TIP3   OH210805   4.626   1.205   3.899
 3621TIP3    H110806   4.681   1.157   3.838
 3621TIP3    H210807   4.540   1.207   3.857
 3622TIP3   OH210808   7.200   1.280   2.393
 3622TIP3    H110809   7.133   1.251   2.332
 3622TIP3    H210810   7.262   1.207   2.397
 3623TIP3   OH210811   0.466   6.689   4.615
 3623TIP3    H110812   0.482   6.753   4.685
 3623TIP3    H210813   0.373   6.668   4.623
 3624TIP3   OH210814   6.858   3.272   5.719
 3624TIP3    H110815   6.832   3.247   5.808
 3624TIP3    H210816   6.776   3.273   5.670
 3625TIP3   OH210817   7.806   2.334   1.634
 3625TIP3    H110818   7.733   2.396   1.641
 3625TIP3    H210819   7.803   2.303   1.543
 3626TIP3   OH210820   5.692   1.670   1.698
 3626TIP3    H110821   5.682   1.685   1.792
 3626TIP3    H210822   5.756   1.599   1.693
 3627TIP3   OH210823   5.683   6.839   2.331
 3627TIP3    H110824   5.618   6.874   2.270
 3627TIP3    H210825   5.635   6.772   2.380
 3628TIP3   OH210826   0.397   0.912   3.219
 3628TIP3    H110827   0.385   0.982   3.282
 3628TIP3    H210828   0.492   0.899   3.215
 3629TIP3   OH210829   2.285   3.856   1.846
 3629TIP3    H110830   2.209   3.799   1.837
 3629TIP3    H210831   2.324   3.832   1.930
 3630TIP3   OH210832   2.784   5.828   2.299
 3630TIP3    H110833   2.717   5.772   2.337
 3630TIP3    H210834   2.792   5.901   2.361
 3631TIP3   OH210835   3.231   7.611   3.045
 3631TIP3    H110836   3.193   7.622   2.958
 3631TIP3    H210837   3.258   7.700   3.070
 3632TIP3   OH210838   4.800   6.243   3.883
 3632TIP3    H110839   4.849   6.241   3.801
 3632TIP3    H210840   4.799   6.152   3.913
 3633TIP3   OH210841   4.865   5.264   1.880
 3633TIP3    H110842   4.888   5.347   1.838
 3633TIP3    H210843   4.922   5.200   1.838
 3634TIP3   OH210844   0.619   3.740   1.517
 3634TIP3    H110845   0.677   3.783   1.454
 3634TIP3    H210846   0.554   3.806   1.539
 3635TIP3   OH210847   6.881   0.462   2.325
 3635TIP3    H110848   6.956   0.407   2.346
 3635TIP3    H210849   6.864   0.512   2.405
 3636TIP3   OH210850   3.426   2.684   4.284
 3636TIP3    H110851   3.464   2.599   4.305
 3636TIP3    H210852   3.430   2.734   4.366
 3637TIP3   OH210853   7.193   4.296   2.526
 3637TIP3    H110854   7.248   4.374   2.522
 3637TIP3    H210855   7.108   4.324   2.491
 3638TIP3   OH210856   5.749   3.559   6.603
 3638TIP3    H110857   5.774   3.651   6.611
 3638TIP3    H210858   5.766   3.521   6.690
 3639TIP3   OH210859   6.808   6.377   6.529
 3639TIP3    H110860   6.826   6.433   6.453
 3639TIP3    H210861   6.763   6.435   6.590
 3640TIP3   OH210862   4.957   3.516   3.765
 3640TIP3    H110863   5.007   3.587   3.726
 3640TIP3    H210864   4.934   3.460   3.690
 3641TIP3   OH210865   5.876   5.721   6.773
 3641TIP3    H110866   5.789   5.703   6.736
 3641TIP3    H210867   5.860   5.740   6.865
 3642TIP3   OH210868   3.945   5.678   1.521
 3642TIP3    H110869   3.994   5.597   1.510
 3642TIP3    H210870   3.887   5.682   1.444
 3643TIP3   OH210871   6.861   1.705   5.817
 3643TIP3    H110872   6.945   1.736   5.783
 3643TIP3    H210873   6.798   1.772   5.789
 3644TIP3   OH210874   4.254   1.873   4.650
 3644TIP3    H110875   4.228   1.895   4.561
 3644TIP3    H210876   4.332   1.926   4.667
 3645TIP3   OH210877   5.742   3.346   4.950
 3645TIP3    H110878   5.692   3.344   5.031
 3645TIP3    H210879   5.675   3.340   4.881
 3646TIP3   OH210880   2.122   3.595   4.769
 3646TIP3    H110881   2.082   3.586   4.856
 3646TIP3    H210882   2.214   3.613   4.787
 3647TIP3   OH210883   7.693   5.282   0.115
 3647TIP3    H110884   7.645   5.351   0.067
 3647TIP3    H210885   7.665   5.201   0.073
 3648TIP3   OH210886   1.279   5.364   4.625
 3648TIP3    H110887   1.199   5.417   4.634
 3648TIP3    H210888   1.322   5.370   4.710
 3649TIP3   OH210889   0.573   3.049   4.705
 3649TIP3    H110890   0.653   3.069   4.658
 3649TIP3    H210891   0.570   2.954   4.711
 3650TIP3   OH210892   4.687   7.536   5.476
 3650TIP3    H110893   4.757   7.600   5.488
 3650TIP3    H210894   4.679   7.494   5.562
 3651TIP3   OH210895   6.743   0.792   0.841
 3651TIP3    H110896   6.762   0.698   0.837
 3651TIP3    H210897   6.661   0.802   0.794
 3652TIP3   OH210898   1.486   1.792   2.128
 3652TIP3    H110899   1.571   1.818   2.094
 3652TIP3    H210900   1.503   1.712   2.177
 3653TIP3   OH210901   7.086   4.937   0.412
 3653TIP3    H110902   7.156   4.936   0.346
 3653TIP3    H210903   7.083   4.846   0.443
 3654TIP3   OH210904   3.570   1.120   1.917
 3654TIP3    H110905   3.627   1.188   1.953
 3654TIP3    H210906   3.512   1.167   1.857
 3655TIP3   OH210907   5.080   1.487   3.758
 3655TIP3    H110908   5.088   1.479   3.663
 3655TIP3    H210909   5.149   1.549   3.782
 3656TIP3   OH210910   2.795   3.101   0.899
 3656TIP3    H110911   2.800   3.142   0.985
 3656TIP3    H210912   2.877   3.123   0.856
 3657TIP3   OH210913   8.164   6.370   2.688
 3657TIP3    H110914   8.196   6.286   2.654
 3657TIP3    H210915   8.208   6.381   2.772
 3658TIP3   OH210916   8.078   7.005   2.334
 3658TIP3    H110917   8.006   6.944   2.318
 3658TIP3    H210918   8.035   7.088   2.353
 3659TIP3   OH210919   5.694   6.772   1.544
 3659TIP3    H110920   5.623   6.831   1.517
 3659TIP3    H210921   5.750   6.826   1.599
 3660TIP3   OH210922   1.049   6.720   6.729
 3660TIP3    H110923   1.047   6.629   6.701
 3660TIP3    H210924   0.965   6.757   6.699
 3661TIP3   OH210925   4.473   5.457   5.869
 3661TIP3    H110926   4.416   5.417   5.935
 3661TIP3    H210927   4.553   5.404   5.871
 3662TIP3   OH210928   4.573   3.955   2.352
 3662TIP3    H110929   4.577   3.962   2.256
 3662TIP3    H210930   4.607   3.868   2.371
 3663TIP3   OH210931   3.640   2.288   4.974
 3663TIP3    H110932   3.650   2.382   4.989
 3663TIP3    H210933   3.585   2.258   5.047
 3664TIP3   OH210934   3.736   5.142   3.161
 3664TIP3    H110935   3.676   5.105   3.095
 3664TIP3    H210936   3.791   5.068   3.187
 3665TIP3   OH210937   5.983   0.373   3.480
 3665TIP3    H110938   5.921   0.306   3.508
 3665TIP3    H210939   6.061   0.357   3.533
 3666TIP3   OH210940   0.879   4.549   2.649
 3666TIP3    H110941   0.949   4.515   2.594
 3666TIP3    H210942   0.810   4.483   2.645
 3667TIP3   OH210943   4.392   7.295   4.424
 3667TIP3    H110944   4.342   7.356   4.370
 3667TIP3    H210945   4.480   7.333   4.427
 3668TIP3   OH210946   5.071   5.139   1.682
 3668TIP3    H110947   5.088   5.057   1.636
 3668TIP3    H210948   5.053   5.202   1.612
 3669TIP3   OH210949   5.337   1.590   4.273
 3669TIP3    H110950   5.285   1.519   4.234
 3669TIP3    H210951   5.401   1.546   4.329
 3670TIP3   OH210952   4.823   6.594   1.548
 3670TIP3    H110953   4.805   6.688   1.542
 3670TIP3    H210954   4.828   6.577   1.642
 3671TIP3   OH210955   3.524   0.818   6.066
 3671TIP3    H110956   3.502   0.885   6.002
 3671TIP3    H210957   3.553   0.743   6.014
 3672TIP3   OH210958   4.011   0.532   5.538
 3672TIP3    H110959   3.960   0.452   5.551
 3672TIP3    H210960   4.091   0.519   5.589
 3673TIP3   OH210961   3.357   1.650   4.775
 3673TIP3    H110962   3.377   1.578   4.835
 3673TIP3    H210963   3.278   1.622   4.729
 3674TIP3   OH210964   2.595   2.304   2.749
 3674TIP3    H110965   2.583   2.396   2.772
 3674TIP3    H210966   2.690   2.289   2.756
 3675TIP3   OH210967   3.919   4.232   4.479
 3675TIP3    H110968   3.828   4.262   4.475
 3675TIP3    H210969   3.942   4.212   4.388
 3676TIP3   OH210970   2.337   5.644   6.632
 3676TIP3    H110971   2.322   5.732   6.597
 3676TIP3    H210972   2.266   5.592   6.597
 3677TIP3   OH210973   8.283   6.323   4.415
 3677TIP3    H110974   8.300   6.230   4.432
 3677TIP3    H210975   8.197   6.339   4.453
 3678TIP3   OH210976   2.042   2.660   4.051
 3678TIP3    H110977   1.950   2.681   4.036
 3678TIP3    H210978   2.053   2.667   4.146
 3679TIP3   OH210979   8.124   0.885   1.441
 3679TIP3    H110980   8.113   0.838   1.524
 3679TIP3    H210981   8.147   0.974   1.466
 3680TIP3   OH210982   3.790   4.687   5.666
 3680TIP3    H110983   3.797   4.592   5.674
 3680TIP3    H210984   3.697   4.703   5.649
 3681TIP3   OH210985   0.988   0.917   3.306
 3681TIP3    H110986   0.936   0.852   3.257
 3681TIP3    H210987   1.035   0.966   3.238
 3682TIP3   OH210988   0.427   3.037   1.557
 3682TIP3    H110989   0.456   3.107   1.616
 3682TIP3    H210990   0.506   2.985   1.543
 3683TIP3   OH210991   4.266   7.040   4.387
 3683TIP3    H110992   4.324   7.028   4.312
 3683TIP3    H210993   4.297   7.120   4.429
 3684TIP3   OH210994   1.329   6.487   1.585
 3684TIP3    H110995   1.319   6.393   1.574
 3684TIP3    H210996   1.282   6.508   1.665
 3685TIP3   OH210997   6.976   7.592   2.145
 3685TIP3    H110998   6.927   7.516   2.113
 3685TIP3    H210999   6.909   7.656   2.169
 3686TIP3   OH211000   5.552   3.303   1.753
 3686TIP3    H111001   5.639   3.278   1.723
 3686TIP3    H211002   5.501   3.316   1.673
 3687TIP3   OH211003   1.018   1.003   6.036
 3687TIP3    H111004   0.940   0.957   6.064
 3687TIP3    H211005   1.090   0.963   6.085
 3688TIP3   OH211006   3.720   6.459   0.567
 3688TIP3    H111007   3.716   6.495   0.656
 3688TIP3    H211008   3.654   6.507   0.518
 3689TIP3   OH211009   6.441   4.579   4.584
 3689TIP3    H111010   6.405   4.617   4.504
 3689TIP3    H211011   6.364   4.560   4.638
 3690TIP3   OH211012   7.493   5.863   2.261
 3690TIP3    H111013   7.458   5.938   2.309
 3690TIP3    H211014   7.501   5.894   2.171
 3691TIP3   OH211015   3.548   0.680   3.005
 3691TIP3    H111016   3.543   0.695   2.910
 3691TIP3    H211017   3.458   0.689   3.035
 3692TIP3   OH211018   4.543   5.168   2.787
 3692TIP3    H111019   4.610   5.187   2.721
 3692TIP3    H211020   4.546   5.243   2.846
 3693TIP3   OH211021   0.817   3.799   4.074
 3693TIP3    H111022   0.844   3.885   4.104
 3693TIP3    H211023   0.726   3.811   4.046
 3694TIP3   OH211024   6.529   2.730   4.323
 3694TIP3    H111025   6.625   2.727   4.323
 3694TIP3    H211026   6.503   2.639   4.307
 3695TIP3   OH211027   7.861   6.823   2.052
 3695TIP3    H111028   7.882   6.848   2.142
 3695TIP3    H211029   7.766   6.838   2.044
 3696TIP3   OH211030   5.892   6.074   4.835
 3696TIP3    H111031   5.807   6.053   4.795
 3696TIP3    H211032   5.894   6.023   4.916
 3697TIP3   OH211033   5.137   3.307   2.585
 3697TIP3    H111034   5.109   3.320   2.494
 3697TIP3    H211035   5.056   3.287   2.632
 3698TIP3   OH211036   4.384   4.477   1.988
 3698TIP3    H111037   4.473   4.458   2.016
 3698TIP3    H211038   4.348   4.392   1.962
 3699TIP3   OH211039   4.805   3.712   3.887
 3699TIP3    H111040   4.783   3.737   3.797
 3699TIP3    H211041   4.831   3.620   3.881
 3700TIP3   OH211042   0.059   3.316   4.020
 3700TIP3    H111043   0.111   3.280   4.092
 3700TIP3    H211044   0.115   3.307   3.943
 3701TIP3   OH211045   4.366   2.037   0.873
 3701TIP3    H111046   4.350   2.095   0.947
 3701TIP3    H211047   4.452   1.999   0.890
 3702TIP3   OH211048   4.040   5.410   5.113
 3702TIP3    H111049   4.093   5.411   5.193
 3702TIP3    H211050   4.041   5.319   5.084
 3703TIP3   OH211051   2.256   5.804   5.584
 3703TIP3    H111052   2.225   5.885   5.544
 3703TIP3    H211053   2.350   5.803   5.567
 3704TIP3   OH211054   5.638   5.879   2.685
 3704TIP3    H111055   5.544   5.862   2.690
 3704TIP3    H211056   5.655   5.941   2.756
 3705TIP3   OH211057   6.312   3.585   3.265
 3705TIP3    H111058   6.356   3.667   3.287
 3705TIP3    H211059   6.340   3.523   3.332
 3706TIP3   OH211060   0.655   3.832   1.241
 3706TIP3    H111061   0.582   3.875   1.196
 3706TIP3    H211062   0.724   3.898   1.244
 3707TIP3   OH211063   3.723   3.857   4.699
 3707TIP3    H111064   3.767   3.880   4.617
 3707TIP3    H211065   3.696   3.766   4.687
 3708TIP3   OH211066   5.463   6.924   4.583
 3708TIP3    H111067   5.415   7.001   4.615
 3708TIP3    H211068   5.409   6.890   4.512
 3709TIP3   OH211069   4.451   7.395   2.098
 3709TIP3    H111070   4.498   7.428   2.021
 3709TIP3    H211071   4.520   7.378   2.162
 3710TIP3   OH211072   0.985   0.040   6.371
 3710TIP3    H111073   0.960  -0.046   6.406
 3710TIP3    H211074   1.064   0.063   6.420
 3711TIP3   OH211075   6.794   1.823   6.438
 3711TIP3    H111076   6.764   1.905   6.399
 3711TIP3    H211077   6.787   1.837   6.532
 3712TIP3   OH211078   1.090   4.170   5.055
 3712TIP3    H111079   1.029   4.097   5.069
 3712TIP3    H211080   1.040   4.234   5.005
 3713TIP3   OH211081   5.611   6.557   4.992
 3713TIP3    H111082   5.611   6.520   5.080
 3713TIP3    H211083   5.528   6.529   4.954
 3714TIP3   OH211084   1.597   1.435   5.012
 3714TIP3    H111085   1.547   1.446   4.931
 3714TIP3    H211086   1.602   1.340   5.024
 3715TIP3   OH211087   6.931   4.751   3.528
 3715TIP3    H111088   6.904   4.824   3.473
 3715TIP3    H211089   6.925   4.784   3.617
 3716TIP3   OH211090   0.668   6.025   0.556
 3716TIP3    H111091   0.593   6.007   0.500
 3716TIP3    H211092   0.691   5.940   0.593
 3717TIP3   OH211093   0.148   2.386   1.601
 3717TIP3    H111094   0.217   2.328   1.568
 3717TIP3    H211095   0.081   2.384   1.533
 3718TIP3   OH211096   2.218   0.354   6.474
 3718TIP3    H111097   2.273   0.414   6.423
 3718TIP3    H211098   2.276   0.321   6.543
 3719TIP3   OH211099   6.575   4.876   1.196
 3719TIP3    H111100   6.503   4.915   1.145
 3719TIP3    H211101   6.647   4.938   1.186
 3720TIP3   OH211102   2.282   7.214   4.987
 3720TIP3    H111103   2.203   7.188   5.033
 3720TIP3    H211104   2.350   7.216   5.055
 3721TIP3   OH211105   7.257   4.357   2.022
 3721TIP3    H111106   7.178   4.401   1.990
 3721TIP3    H211107   7.234   4.326   2.110
 3722TIP3   OH211108   2.031   6.948   2.862
 3722TIP3    H111109   2.068   6.968   2.776
 3722TIP3    H211110   1.942   6.982   2.858
 3723TIP3   OH211111   1.650   1.565   1.862
 3723TIP3    H111112   1.713   1.577   1.933
 3723TIP3    H211113   1.683   1.489   1.814
 3724TIP3   OH211114   1.768   4.954   0.486
 3724TIP3    H111115   1.726   4.875   0.520
 3724TIP3    H211116   1.742   4.957   0.394
 3725TIP3   OH211117   6.955   1.609   6.401
 3725TIP3    H111118   7.030   1.643   6.449
 3725TIP3    H211119   6.904   1.687   6.379
 3726TIP3   OH211120   3.989   6.129   1.509
 3726TIP3    H111121   3.956   6.191   1.573
 3726TIP3    H211122   3.910   6.095   1.465
 3727TIP3   OH211123   3.078   0.730   6.541
 3727TIP3    H111124   3.062   0.821   6.515
 3727TIP3    H211125   2.992   0.690   6.542
 3728TIP3   OH211126   6.786   4.985   4.676
 3728TIP3    H111127   6.857   5.047   4.660
 3728TIP3    H211128   6.737   4.982   4.594
 3729TIP3   OH211129   4.291   5.567   3.714
 3729TIP3    H111130   4.352   5.502   3.748
 3729TIP3    H211131   4.260   5.531   3.631
 3730TIP3   OH211132   1.193   2.975   6.124
 3730TIP3    H111133   1.247   3.041   6.081
 3730TIP3    H211134   1.131   3.026   6.176
 3731TIP3   OH211135   2.581   0.629   5.399
 3731TIP3    H111136   2.620   0.660   5.481
 3731TIP3    H211137   2.497   0.590   5.426
 3732TIP3   OH211138   7.428   7.462   0.498
 3732TIP3    H111139   7.441   7.378   0.453
 3732TIP3    H211140   7.426   7.438   0.591
 3733TIP3   OH211141   6.896   1.473   2.236
 3733TIP3    H111142   6.868   1.381   2.236
 3733TIP3    H211143   6.849   1.513   2.309
 3734TIP3   OH211144   6.131   0.324   1.155
 3734TIP3    H111145   6.143   0.241   1.110
 3734TIP3    H211146   6.041   0.349   1.134
 3735TIP3   OH211147   1.815   1.244   5.277
 3735TIP3    H111148   1.855   1.330   5.266
 3735TIP3    H211149   1.872   1.200   5.341
 3736TIP3   OH211150   1.044   2.315   6.722
 3736TIP3    H111151   1.107   2.281   6.658
 3736TIP3    H211152   1.073   2.405   6.739
 3737TIP3   OH211153   7.225   0.960   2.910
 3737TIP3    H111154   7.131   0.960   2.893
 3737TIP3    H211155   7.233   0.954   3.005
 3738TIP3   OH211156   5.444   0.083   3.195
 3738TIP3    H111157   5.374   0.025   3.165
 3738TIP3    H211158   5.404   0.137   3.263
 3739TIP3   OH211159   3.311   7.051   2.938
 3739TIP3    H111160   3.279   7.095   3.016
 3739TIP3    H211161   3.397   7.016   2.963
 3740TIP3   OH211162   4.079   2.125   1.379
 3740TIP3    H111163   3.997   2.174   1.372
 3740TIP3    H211164   4.109   2.115   1.289
 3741TIP3   OH211165   0.290   2.315   3.008
 3741TIP3    H111166   0.279   2.300   2.914
 3741TIP3    H211167   0.382   2.293   3.025
 3742TIP3   OH211168   2.402   4.860   1.515
 3742TIP3    H111169   2.481   4.891   1.470
 3742TIP3    H211170   2.356   4.940   1.540
 3743TIP3   OH211171   2.363   6.651   2.716
 3743TIP3    H111172   2.342   6.607   2.634
 3743TIP3    H211173   2.369   6.744   2.692
 3744TIP3   OH211174   4.582   2.982   1.516
 3744TIP3    H111175   4.558   2.997   1.425
 3744TIP3    H211176   4.669   2.940   1.512
 3745TIP3   OH211177   0.419   1.875   1.412
 3745TIP3    H111178   0.484   1.940   1.383
 3745TIP3    H211179   0.457   1.836   1.490
 3746TIP3   OH211180   3.747   3.006   5.763
 3746TIP3    H111181   3.683   3.046   5.704
 3746TIP3    H211182   3.827   2.998   5.710
 3747TIP3   OH211183   3.846   0.215   3.128
 3747TIP3    H111184   3.812   0.137   3.172
 3747TIP3    H211185   3.774   0.278   3.132
 3748TIP3   OH211186   3.853   4.945   6.689
 3748TIP3    H111187   3.759   4.934   6.672
 3748TIP3    H211188   3.883   5.005   6.620
 3749TIP3   OH211189   4.084   7.480   4.738
 3749TIP3    H111190   4.135   7.561   4.748
 3749TIP3    H211191   4.102   7.431   4.819
 3750TIP3   OH211192   1.628   2.471   5.940
 3750TIP3    H111193   1.672   2.554   5.960
 3750TIP3    H211194   1.654   2.413   6.011
 3751TIP3   OH211195   5.663   5.960   0.227
 3751TIP3    H111196   5.679   5.935   0.136
 3751TIP3    H211197   5.649   6.054   0.224
 3752TIP3   OH211198   5.901   3.799   1.289
 3752TIP3    H111199   5.889   3.753   1.372
 3752TIP3    H211200   5.988   3.839   1.296
 3753TIP3   OH211201   5.737   0.412   0.573
 3753TIP3    H111202   5.747   0.499   0.534
 3753TIP3    H211203   5.650   0.383   0.545
 3754TIP3   OH211204   2.467   3.044   2.923
 3754TIP3    H111205   2.454   2.950   2.936
 3754TIP3    H211206   2.562   3.054   2.917
 3755TIP3   OH211207   0.037   2.244   4.063
 3755TIP3    H111208  -0.028   2.189   4.106
 3755TIP3    H211209   0.102   2.263   4.131
 3756TIP3   OH211210   2.824   0.677   5.566
 3756TIP3    H111211   2.819   0.619   5.491
 3756TIP3    H211212   2.863   0.624   5.636
 3757TIP3   OH211213   2.418   2.906   0.594
 3757TIP3    H111214   2.348   2.949   0.643
 3757TIP3    H211215   2.489   2.898   0.657
 3758TIP3   OH211216   6.281   5.841   4.158
 3758TIP3    H111217   6.319   5.831   4.246
 3758TIP3    H211218   6.210   5.904   4.171
 3759TIP3   OH211219   0.602   0.556   4.802
 3759TIP3    H111220   0.626   0.477   4.754
 3759TIP3    H211221   0.572   0.525   4.887
 3760TIP3   OH211222   0.005   0.712   6.378
 3760TIP3    H111223   0.041   0.623   6.380
 3760TIP3    H211224  -0.082   0.702   6.339
 3761TIP3   OH211225   2.738   3.686   0.216
 3761TIP3    H111226   2.749   3.639   0.134
 3761TIP3    H211227   2.783   3.769   0.203
 3762TIP3   OH211228   1.649   4.988   3.361
 3762TIP3    H111229   1.679   5.044   3.432
 3762TIP3    H211230   1.569   5.030   3.329
 3763TIP3   OH211231   2.627   6.027   6.193
 3763TIP3    H111232   2.698   6.048   6.133
 3763TIP3    H211233   2.608   6.109   6.238
 3764TIP3   OH211234   0.827   7.682   3.531
 3764TIP3    H111235   0.739   7.681   3.493
 3764TIP3    H211236   0.842   7.591   3.558
 3765TIP3   OH211237   3.711   3.912   3.183
 3765TIP3    H111238   3.617   3.916   3.195
 3765TIP3    H211239   3.727   3.950   3.097
 3766TIP3   OH211240   5.276   5.495   5.797
 3766TIP3    H111241   5.255   5.408   5.763
 3766TIP3    H211242   5.318   5.539   5.723
 3767TIP3   OH211243   5.852   4.742   0.423
 3767TIP3    H111244   5.904   4.662   0.411
 3767TIP3    H211245   5.800   4.725   0.501
 3768TIP3   OH211246   6.801   5.548   3.772
 3768TIP3    H111247   6.892   5.574   3.754
 3768TIP3    H211248   6.773   5.606   3.843
 3769TIP3   OH211249   5.618   5.334   3.042
 3769TIP3    H111250   5.532   5.377   3.038
 3769TIP3    H211251   5.673   5.395   3.090
 3770TIP3   OH211252   7.682   6.456   1.921
 3770TIP3    H111253   7.768   6.466   1.961
 3770TIP3    H211254   7.698   6.401   1.844
 3771TIP3   OH211255   2.903   0.576   2.415
 3771TIP3    H111256   2.927   0.666   2.394
 3771TIP3    H211257   2.863   0.581   2.502
 3772TIP3   OH211258   4.290   6.307   0.208
 3772TIP3    H111259   4.324   6.218   0.208
 3772TIP3    H211260   4.199   6.297   0.179
 3773TIP3   OH211261   0.534   6.103   5.128
 3773TIP3    H111262   0.513   6.048   5.204
 3773TIP3    H211263   0.459   6.092   5.069
 3774TIP3   OH211264   2.256   4.719   1.132
 3774TIP3    H111265   2.279   4.697   1.042
 3774TIP3    H211266   2.324   4.677   1.185
 3775TIP3   OH211267   4.277   4.545   6.323
 3775TIP3    H111268   4.342   4.528   6.254
 3775TIP3    H211269   4.221   4.467   6.323
 3776TIP3   OH211270   3.098   2.966   4.529
 3776TIP3    H111271   3.173   3.011   4.490
 3776TIP3    H211272   3.050   2.931   4.455
 3777TIP3   OH211273   2.634   7.320   3.680
 3777TIP3    H111274   2.599   7.242   3.635
 3777TIP3    H211275   2.591   7.394   3.637
 3778TIP3   OH211276   1.133   5.595   3.991
 3778TIP3    H111277   1.100   5.607   4.080
 3778TIP3    H211278   1.229   5.598   4.001
 3779TIP3   OH211279   7.234   0.543   2.735
 3779TIP3    H111280   7.249   0.587   2.819
 3779TIP3    H211281   7.155   0.584   2.700
 3780TIP3   OH211282   7.909   1.143   3.028
 3780TIP3    H111283   7.996   1.165   2.995
 3780TIP3    H211284   7.900   1.049   3.012
 3781TIP3   OH211285   7.364   6.091   5.188
 3781TIP3    H111286   7.395   6.116   5.275
 3781TIP3    H211287   7.280   6.134   5.179
 3782TIP3   OH211288   2.023   0.078   6.007
 3782TIP3    H111289   2.050  -0.012   5.989
 3782TIP3    H211290   2.085   0.109   6.072
 3783TIP3   OH211291   1.533   0.386   5.779
 3783TIP3    H111292   1.528   0.433   5.695
 3783TIP3    H211293   1.540   0.456   5.844
 3784TIP3   OH211294   6.108   7.375   3.026
 3784TIP3    H111295   6.138   7.466   3.017
 3784TIP3    H211296   6.037   7.367   2.962
 3785TIP3   OH211297   5.329   1.215   3.426
 3785TIP3    H111298   5.400   1.164   3.466
 3785TIP3    H211299   5.251   1.189   3.475
 3786TIP3   OH211300   5.690   2.211   6.076
 3786TIP3    H111301   5.622   2.168   6.129
 3786TIP3    H211302   5.765   2.152   6.080
 3787TIP3   OH211303   2.450   6.309   4.917
 3787TIP3    H111304   2.474   6.231   4.867
 3787TIP3    H211305   2.377   6.347   4.868
 3788TIP3   OH211306   3.214   2.521   2.642
 3788TIP3    H111307   3.208   2.460   2.569
 3788TIP3    H211308   3.197   2.607   2.603
 3789TIP3   OH211309   3.095   2.745   4.750
 3789TIP3    H111310   3.143   2.682   4.803
 3789TIP3    H211311   3.095   2.708   4.662
 3790TIP3   OH211312   0.119   4.563   1.693
 3790TIP3    H111313   0.183   4.626   1.659
 3790TIP3    H211314   0.039   4.580   1.643
 3791TIP3   OH211315   5.527   1.738   5.125
 3791TIP3    H111316   5.540   1.733   5.030
 3791TIP3    H211317   5.449   1.685   5.142
 3792TIP3   OH211318   0.884   6.033   5.474
 3792TIP3    H111319   0.834   6.015   5.395
 3792TIP3    H211320   0.945   6.102   5.449
 3793TIP3   OH211321   3.919   3.077   5.216
 3793TIP3    H111322   3.920   3.124   5.299
 3793TIP3    H211323   3.957   2.992   5.236
 3794TIP3   OH211324   0.322   6.416   5.075
 3794TIP3    H111325   0.278   6.380   4.999
 3794TIP3    H211326   0.378   6.485   5.040
 3795TIP3   OH211327   4.365   0.039   4.048
 3795TIP3    H111328   4.416   0.117   4.071
 3795TIP3    H211329   4.274   0.068   4.047
 3796TIP3   OH211330   0.114   7.211   0.391
 3796TIP3    H111331   0.064   7.286   0.426
 3796TIP3    H211332   0.054   7.137   0.400
 3797TIP3   OH211333   4.370   2.405   5.198
 3797TIP3    H111334   4.309   2.464   5.156
 3797TIP3    H211335   4.455   2.425   5.158
 3798TIP3   OH211336   0.274   0.169   5.190
 3798TIP3    H111337   0.254   0.200   5.101
 3798TIP3    H211338   0.341   0.229   5.221
 3799TIP3   OH211339   4.489   2.380   6.191
 3799TIP3    H111340   4.436   2.301   6.183
 3799TIP3    H211341   4.438   2.447   6.145
 3800TIP3   OH211342   0.794   1.307   6.090
 3800TIP3    H111343   0.832   1.278   6.007
 3800TIP3    H211344   0.769   1.398   6.074
 3801TIP3   OH211345   4.820   0.115   2.557
 3801TIP3    H111346   4.792   0.125   2.466
 3801TIP3    H211347   4.772   0.038   2.589
 3802TIP3   OH211348   3.731   1.273   0.630
 3802TIP3    H111349   3.665   1.331   0.592
 3802TIP3    H211350   3.750   1.312   0.715
 3803TIP3   OH211351   5.412   2.291   6.438
 3803TIP3    H111352   5.333   2.239   6.449
 3803TIP3    H211353   5.429   2.328   6.524
 3804TIP3   OH211354   6.913   5.596   5.295
 3804TIP3    H111355   6.943   5.565   5.380
 3804TIP3    H211356   6.889   5.516   5.248
 3805TIP3   OH211357   0.570   1.150   3.029
 3805TIP3    H111358   0.636   1.091   2.994
 3805TIP3    H211359   0.598   1.169   3.118
 3806TIP3   OH211360   6.749   0.239   5.840
 3806TIP3    H111361   6.771   0.164   5.895
 3806TIP3    H211362   6.657   0.256   5.858
 3807TIP3   OH211363   2.916   3.195   4.276
 3807TIP3    H111364   2.967   3.246   4.213
 3807TIP3    H211365   2.844   3.253   4.301
 3808TIP3   OH211366   7.520   3.280   1.275
 3808TIP3    H111367   7.473   3.208   1.234
 3808TIP3    H211368   7.490   3.358   1.228
 3809TIP3   OH211369   7.360   1.111   3.466
 3809TIP3    H111370   7.334   1.106   3.558
 3809TIP3    H211371   7.277   1.116   3.418
 3810TIP3   OH211372   0.309   6.830   0.364
 3810TIP3    H111373   0.351   6.753   0.404
 3810TIP3    H211374   0.239   6.853   0.425
 3811TIP3   OH211375   2.785   4.167   0.964
 3811TIP3    H111376   2.704   4.182   1.012
 3811TIP3    H211377   2.825   4.092   1.008
 3812TIP3   OH211378   6.613   7.534   0.154
 3812TIP3    H111379   6.708   7.525   0.159
 3812TIP3    H211380   6.586   7.463   0.096
 3813TIP3   OH211381   1.933   0.832   5.279
 3813TIP3    H111382   1.849   0.873   5.256
 3813TIP3    H211383   1.921   0.739   5.258
 3814TIP3   OH211384   2.868   0.414   3.706
 3814TIP3    H111385   2.891   0.334   3.657
 3814TIP3    H211386   2.942   0.427   3.765
 3815TIP3   OH211387   8.289   6.345   5.364
 3815TIP3    H111388   8.242   6.262   5.366
 3815TIP3    H211389   8.367   6.330   5.417
 3816TIP3   OH211390   4.971   0.215   5.419
 3816TIP3    H111391   4.894   0.203   5.364
 3816TIP3    H211392   4.989   0.128   5.455
 3817TIP3   OH211393   7.124   7.717   6.073
 3817TIP3    H111394   7.112   7.782   6.003
 3817TIP3    H211395   7.183   7.652   6.034
 3818TIP3   OH211396   0.215   3.961   1.719
 3818TIP3    H111397   0.189   3.949   1.627
 3818TIP3    H211398   0.251   4.050   1.722
 3819TIP3   OH211399   6.360   1.455   4.256
 3819TIP3    H111400   6.454   1.455   4.243
 3819TIP3    H211401   6.331   1.541   4.225
 3820TIP3   OH211402   0.362   6.165   4.809
 3820TIP3    H111403   0.393   6.255   4.798
 3820TIP3    H211404   0.380   6.124   4.724
 3821TIP3   OH211405   4.147   6.549   1.864
 3821TIP3    H111406   4.140   6.467   1.913
 3821TIP3    H211407   4.056   6.579   1.856
 3822TIP3   OH211408   4.815   2.886   2.851
 3822TIP3    H111409   4.839   2.967   2.896
 3822TIP3    H211410   4.873   2.882   2.775
 3823TIP3   OH211411   2.288   1.088   5.757
 3823TIP3    H111412   2.369   1.100   5.708
 3823TIP3    H211413   2.220   1.081   5.690
 3824TIP3   OH211414   0.310   4.028   5.418
 3824TIP3    H111415   0.368   4.102   5.399
 3824TIP3    H211416   0.356   3.978   5.486
 3825TIP3   OH211417   5.601   1.754   2.271
 3825TIP3    H111418   5.603   1.847   2.245
 3825TIP3    H211419   5.609   1.756   2.366
 3826TIP3   OH211420   3.289   2.212   0.866
 3826TIP3    H111421   3.316   2.295   0.905
 3826TIP3    H211422   3.330   2.211   0.780
 3827TIP3   OH211423   4.353   5.165   4.323
 3827TIP3    H111424   4.318   5.160   4.412
 3827TIP3    H211425   4.434   5.115   4.325
 3828TIP3   OH211426   6.598   4.714   5.507
 3828TIP3    H111427   6.579   4.697   5.415
 3828TIP3    H211428   6.586   4.629   5.550
 3829TIP3   OH211429   5.556   1.362   4.792
 3829TIP3    H111430   5.636   1.314   4.772
 3829TIP3    H211431   5.508   1.304   4.851
 3830TIP3   OH211432   4.636   4.515   1.447
 3830TIP3    H111433   4.667   4.597   1.408
 3830TIP3    H211434   4.540   4.522   1.444
 3831TIP3   OH211435   3.215   3.694   0.618
 3831TIP3    H111436   3.253   3.659   0.698
 3831TIP3    H211437   3.121   3.686   0.631
 3832TIP3   OH211438   7.853   3.565   1.141
 3832TIP3    H111439   7.770   3.592   1.180
 3832TIP3    H211440   7.828   3.524   1.058
 3833TIP3   OH211441   4.764   5.723   4.312
 3833TIP3    H111442   4.697   5.680   4.364
 3833TIP3    H211443   4.845   5.712   4.362
 3834TIP3   OH211444   7.677   7.173   2.666
 3834TIP3    H111445   7.614   7.177   2.595
 3834TIP3    H211446   7.624   7.168   2.746
 3835TIP3   OH211447   7.026   1.003   5.324
 3835TIP3    H111448   7.071   1.081   5.358
 3835TIP3    H211449   7.079   0.976   5.249
 3836TIP3   OH211450   2.016   0.070   2.337
 3836TIP3    H111451   2.044  -0.022   2.344
 3836TIP3    H211452   2.095   0.117   2.314
 3837TIP3   OH211453   4.088   6.122   0.608
 3837TIP3    H111454   4.094   6.179   0.685
 3837TIP3    H211455   4.054   6.039   0.641
 3838TIP3   OH211456   2.084   4.316   2.551
 3838TIP3    H111457   2.084   4.411   2.538
 3838TIP3    H211458   1.997   4.296   2.584
 3839TIP3   OH211459   1.881   3.950   1.233
 3839TIP3    H111460   1.903   4.041   1.253
 3839TIP3    H211461   1.791   3.954   1.202
 3840TIP3   OH211462   4.464   4.262   0.634
 3840TIP3    H111463   4.371   4.243   0.623
 3840TIP3    H211464   4.474   4.278   0.728
 3841TIP3   OH211465   6.199   2.440   5.317
 3841TIP3    H111466   6.256   2.403   5.384
 3841TIP3    H211467   6.244   2.520   5.289
 3842TIP3   OH211468   0.843   2.022   0.115
 3842TIP3    H111469   0.791   1.993   0.191
 3842TIP3    H211470   0.779   2.066   0.058
 3843TIP3   OH211471   2.916   5.286   1.883
 3843TIP3    H111472   2.994   5.244   1.846
 3843TIP3    H211473   2.945   5.319   1.968
 3844TIP3   OH211474   1.446   7.561   6.590
 3844TIP3    H111475   1.538   7.585   6.601
 3844TIP3    H211476   1.440   7.472   6.626
 3845TIP3   OH211477   2.933   6.488   1.786
 3845TIP3    H111478   2.897   6.496   1.698
 3845TIP3    H211479   2.862   6.514   1.844
 3846TIP3   OH211480   4.331   6.435   3.224
 3846TIP3    H111481   4.361   6.463   3.138
 3846TIP3    H211482   4.279   6.356   3.207
 3847TIP3   OH211483   6.125   0.272   0.629
 3847TIP3    H111484   6.177   0.352   0.634
 3847TIP3    H211485   6.182   0.204   0.665
 3848TIP3   OH211486   1.490   7.827   3.499
 3848TIP3    H111487   1.511   7.733   3.501
 3848TIP3    H211488   1.575   7.870   3.497
 3849TIP3   OH211489   5.145   4.598   0.487
 3849TIP3    H111490   5.107   4.563   0.568
 3849TIP3    H211491   5.239   4.581   0.496
 3850TIP3   OH211492   4.315   6.071   2.010
 3850TIP3    H111493   4.405   6.043   1.994
 3850TIP3    H211494   4.270   5.991   2.040
 3851TIP3   OH211495   0.774   3.012   5.039
 3851TIP3    H111496   0.752   2.925   5.008
 3851TIP3    H211497   0.796   3.000   5.132
 3852TIP3   OH211498   3.909   2.850   3.116
 3852TIP3    H111499   3.875   2.781   3.173
 3852TIP3    H211500   3.973   2.896   3.169
 3853TIP3   OH211501   1.683   2.621   1.784
 3853TIP3    H111502   1.767   2.625   1.830
 3853TIP3    H211503   1.695   2.678   1.708
 3854TIP3   OH211504   0.623   0.672   4.555
 3854TIP3    H111505   0.602   0.593   4.605
 3854TIP3    H211506   0.615   0.743   4.619
 3855TIP3   OH211507   0.153   3.283   5.023
 3855TIP3    H111508   0.153   3.199   4.978
 3855TIP3    H211509   0.244   3.298   5.048
 3856TIP3   OH211510   2.136   5.437   6.628
 3856TIP3    H111511   2.202   5.380   6.669
 3856TIP3    H211512   2.134   5.408   6.537
 3857TIP3   OH211513   3.682   2.704   0.658
 3857TIP3    H111514   3.722   2.698   0.571
 3857TIP3    H211515   3.636   2.788   0.657
 3858TIP3   OH211516   5.813   6.249   2.650
 3858TIP3    H111517   5.718   6.258   2.641
 3858TIP3    H211518   5.831   6.272   2.741
 3859TIP3   OH211519   1.130   3.147   6.626
 3859TIP3    H111520   1.197   3.135   6.559
 3859TIP3    H211521   1.149   3.233   6.663
 3860TIP3   OH211522   7.581   1.648   5.207
 3860TIP3    H111523   7.614   1.642   5.117
 3860TIP3    H211524   7.520   1.721   5.206
 3861TIP3   OH211525   0.406   2.588   0.304
 3861TIP3    H111526   0.429   2.621   0.217
 3861TIP3    H211527   0.311   2.598   0.309
 3862TIP3   OH211528   2.268   4.053   3.599
 3862TIP3    H111529   2.177   4.078   3.585
 3862TIP3    H211530   2.309   4.130   3.637
 3863TIP3   OH211531   4.961   6.061   5.924
 3863TIP3    H111532   4.936   5.968   5.923
 3863TIP3    H211533   4.889   6.104   5.970
 3864TIP3   OH211534   6.532   0.871   0.608
 3864TIP3    H111535   6.453   0.918   0.633
 3864TIP3    H211536   6.549   0.897   0.518
 3865TIP3   OH211537   7.503   2.296   6.695
 3865TIP3    H111538   7.547   2.216   6.723
 3865TIP3    H211539   7.533   2.309   6.605
 3866TIP3   OH211540   3.541   4.081   3.967
 3866TIP3    H111541   3.596   4.069   4.044
 3866TIP3    H211542   3.564   4.009   3.909
 3867TIP3   OH211543   0.489   5.030   4.014
 3867TIP3    H111544   0.546   4.962   4.051
 3867TIP3    H211545   0.475   5.091   4.086
 3868TIP3   OH211546   7.060   3.617   4.714
 3868TIP3    H111547   6.990   3.572   4.666
 3868TIP3    H211548   7.109   3.547   4.756
 3869TIP3   OH211549   7.916  -0.027   5.037
 3869TIP3    H111550   7.951  -0.025   4.948
 3869TIP3    H211551   7.834  -0.076   5.029
 3870TIP3   OH211552   6.008   1.750   0.593
 3870TIP3    H111553   5.932   1.807   0.580
 3870TIP3    H211554   5.985   1.696   0.669
 3871TIP3   OH211555   2.935   6.206   3.323
 3871TIP3    H111556   3.026   6.202   3.295
 3871TIP3    H211557   2.885   6.177   3.247
 3872TIP3   OH211558   7.205   2.336   0.462
 3872TIP3    H111559   7.147   2.411   0.477
 3872TIP3    H211560   7.204   2.289   0.545
 3873TIP3   OH211561   0.077   2.481   5.113
 3873TIP3    H111562   0.056   2.572   5.133
 3873TIP3    H211563   0.036   2.466   5.027
 3874TIP3   OH211564   3.492   5.841   3.491
 3874TIP3    H111565   3.544   5.804   3.420
 3874TIP3    H211566   3.524   5.798   3.570
 3875TIP3   OH211567   1.591   0.285   5.255
 3875TIP3    H111568   1.575   0.215   5.318
 3875TIP3    H211569   1.543   0.259   5.177
 3876TIP3   OH211570   8.234   6.660   4.379
 3876TIP3    H111571   8.319   6.659   4.334
 3876TIP3    H211572   8.243   6.730   4.444
 3877TIP3   OH211573   6.790   6.390   5.140
 3877TIP3    H111574   6.769   6.319   5.079
 3877TIP3    H211575   6.879   6.370   5.170
 3878TIP3   OH211576   1.784   7.057   2.994
 3878TIP3    H111577   1.819   7.080   3.080
 3878TIP3    H211578   1.708   7.115   2.983
 3879TIP3   OH211579   4.743   0.023   5.317
 3879TIP3    H111580   4.700  -0.029   5.250
 3879TIP3    H211581   4.814  -0.032   5.350
 3880TIP3   OH211582   3.022   0.071   4.034
 3880TIP3    H111583   3.054   0.141   4.091
 3880TIP3    H211584   3.080  -0.003   4.053
 3881TIP3   OH211585   3.324   4.667   3.193
 3881TIP3    H111586   3.403   4.647   3.244
 3881TIP3    H211587   3.338   4.757   3.162
 3882TIP3   OH211588   2.026   1.754   3.353
 3882TIP3    H111589   2.050   1.815   3.284
 3882TIP3    H211590   2.109   1.728   3.393
 3883TIP3   OH211591   8.128   2.222   0.290
 3883TIP3    H111592   8.169   2.232   0.204
 3883TIP3    H211593   8.169   2.290   0.344
 3884TIP3   OH211594   4.917   2.768   3.648
 3884TIP3    H111595   4.852   2.796   3.713
 3884TIP3    H211596   4.953   2.687   3.683
 3885TIP3   OH211597   5.609   7.782   4.706
 3885TIP3    H111598   5.572   7.843   4.769
 3885TIP3    H211599   5.662   7.836   4.647
 3886TIP3   OH211600   3.419   5.766   5.919
 3886TIP3    H111601   3.329   5.740   5.938
 3886TIP3    H211602   3.463   5.683   5.898
 3887TIP3   OH211603   7.220   3.070   5.178
 3887TIP3    H111604   7.279   3.032   5.113
 3887TIP3    H211605   7.198   2.997   5.236
 3888TIP3   OH211606   6.968   1.356   0.642
 3888TIP3    H111607   7.009   1.429   0.687
 3888TIP3    H211608   6.906   1.320   0.706
 3889TIP3   OH211609   3.931   2.893   3.479
 3889TIP3    H111610   3.929   2.972   3.425
 3889TIP3    H211611   3.885   2.918   3.559
 3890TIP3   OH211612   8.027   4.036   1.474
 3890TIP3    H111613   7.980   3.953   1.471
 3890TIP3    H211614   8.042   4.058   1.382
 3891TIP3   OH211615   2.319   6.230   4.148
 3891TIP3    H111616   2.251   6.211   4.083
 3891TIP3    H211617   2.299   6.318   4.179
 3892TIP3   OH211618   6.565   0.669   6.317
 3892TIP3    H111619   6.650   0.705   6.290
 3892TIP3    H211620   6.511   0.677   6.238
 3893TIP3   OH211621   3.792   0.739   4.443
 3893TIP3    H111622   3.793   0.656   4.395
 3893TIP3    H211623   3.736   0.721   4.520
 3894TIP3   OH211624   0.662   4.852   0.232
 3894TIP3    H111625   0.700   4.911   0.167
 3894TIP3    H211626   0.629   4.778   0.182
 3895TIP3   OH211627   1.927   3.812   1.450
 3895TIP3    H111628   1.915   3.859   1.368
 3895TIP3    H211629   1.930   3.881   1.517
 3896TIP3   OH211630   3.366   5.351   6.277
 3896TIP3    H111631   3.302   5.390   6.217
 3896TIP3    H211632   3.427   5.304   6.220
 3897TIP3   OH211633   7.852   3.715   2.612
 3897TIP3    H111634   7.831   3.698   2.520
 3897TIP3    H211635   7.806   3.797   2.632
 3898TIP3   OH211636   5.483   0.513   2.261
 3898TIP3    H111637   5.500   0.561   2.179
 3898TIP3    H211638   5.410   0.560   2.301
 3899TIP3   OH211639   0.844   2.802   6.641
 3899TIP3    H111640   0.803   2.836   6.561
 3899TIP3    H211641   0.855   2.709   6.624
 3900TIP3   OH211642   6.020   6.800   1.571
 3900TIP3    H111643   5.998   6.717   1.528
 3900TIP3    H211644   6.004   6.783   1.664
 3901TIP3   OH211645   1.510   3.553   5.953
 3901TIP3    H111646   1.476   3.636   5.921
 3901TIP3    H211647   1.523   3.566   6.047
 3902TIP3   OH211648   4.347   7.195   2.555
 3902TIP3    H111649   4.349   7.126   2.489
 3902TIP3    H211650   4.286   7.260   2.520
 3903TIP3   OH211651   0.317   7.421   5.233
 3903TIP3    H111652   0.339   7.352   5.295
 3903TIP3    H211653   0.400   7.442   5.190
 3904TIP3   OH211654   5.812   5.418   5.607
 3904TIP3    H111655   5.738   5.479   5.614
 3904TIP3    H211656   5.886   5.472   5.580
 3905TIP3   OH211657   7.681   7.647   6.045
 3905TIP3    H111658   7.615   7.579   6.056
 3905TIP3    H211659   7.740   7.635   6.119
 3906TIP3   OH211660   0.185   2.107   0.439
 3906TIP3    H111661   0.194   2.105   0.343
 3906TIP3    H211662   0.093   2.131   0.453
 3907TIP3   OH211663   6.273   6.301   0.089
 3907TIP3    H111664   6.305   6.269   0.174
 3907TIP3    H211665   6.259   6.222   0.038
 3908TIP3   OH211666   3.104   0.414   2.287
 3908TIP3    H111667   3.175   0.477   2.295
 3908TIP3    H211668   3.033   0.451   2.340
 3909TIP3   OH211669   5.399   2.351   5.005
 3909TIP3    H111670   5.370   2.276   5.056
 3909TIP3    H211671   5.353   2.426   5.042
 3910TIP3   OH211672   1.782   2.546   1.271
 3910TIP3    H111673   1.796   2.488   1.196
 3910TIP3    H211674   1.745   2.489   1.339
 3911TIP3   OH211675   3.371   0.973   2.677
 3911TIP3    H111676   3.287   0.996   2.715
 3911TIP3    H211677   3.434   0.981   2.749
 3912TIP3   OH211678   2.206   7.081   3.040
 3912TIP3    H111679   2.170   7.010   2.987
 3912TIP3    H211680   2.131   7.138   3.057
 3913TIP3   OH211681   5.845   7.069   0.610
 3913TIP3    H111682   5.855   6.974   0.600
 3913TIP3    H211683   5.825   7.100   0.521
 3914TIP3   OH211684   5.407   5.908   1.328
 3914TIP3    H111685   5.389   5.993   1.368
 3914TIP3    H211686   5.502   5.897   1.335
 3915TIP3   OH211687   5.732   2.146   0.614
 3915TIP3    H111688   5.749   2.062   0.657
 3915TIP3    H211689   5.677   2.124   0.539
 3916TIP3   OH211690   4.654   1.320   1.243
 3916TIP3    H111691   4.605   1.283   1.170
 3916TIP3    H211692   4.662   1.413   1.222
 3917TIP3   OH211693   6.008   3.514   2.898
 3917TIP3    H111694   5.939   3.524   2.964
 3917TIP3    H211695   6.090   3.519   2.948
 3918TIP3   OH211696   4.314   7.238   5.871
 3918TIP3    H111697   4.294   7.309   5.810
 3918TIP3    H211698   4.353   7.282   5.947
 3919TIP3   OH211699   5.710   2.346   2.475
 3919TIP3    H111700   5.771   2.285   2.516
 3919TIP3    H211701   5.764   2.401   2.419
 3920TIP3   OH211702   6.662   1.401   1.908
 3920TIP3    H111703   6.604   1.337   1.868
 3920TIP3    H211704   6.744   1.393   1.860
 3921TIP3   OH211705   6.967   3.438   5.967
 3921TIP3    H111706   6.908   3.363   5.978
 3921TIP3    H211707   6.920   3.496   5.906
 3922TIP3   OH211708   1.117   0.304   4.259
 3922TIP3    H111709   1.149   0.319   4.170
 3922TIP3    H211710   1.151   0.378   4.309
 3923TIP3   OH211711   3.189   0.871   3.337
 3923TIP3    H111712   3.211   0.952   3.382
 3923TIP3    H211713   3.105   0.845   3.374
 3924TIP3   OH211714   3.505   6.451   1.282
 3924TIP3    H111715   3.435   6.389   1.303
 3924TIP3    H211716   3.472   6.499   1.206
 3925TIP3   OH211717   7.024   0.487   6.314
 3925TIP3    H111718   7.083   0.450   6.379
 3925TIP3    H211719   6.954   0.423   6.305
 3926TIP3   OH211720   1.127   5.376   6.229
 3926TIP3    H111721   1.074   5.413   6.158
 3926TIP3    H211722   1.082   5.402   6.309
 3927TIP3   OH211723   3.278   0.876   5.861
 3927TIP3    H111724   3.217   0.804   5.846
 3927TIP3    H211725   3.343   0.868   5.791
 3928TIP3   OH211726   5.338   1.437   2.771
 3928TIP3    H111727   5.303   1.515   2.815
 3928TIP3    H211728   5.344   1.462   2.679
 3929TIP3   OH211729   7.385   5.237   4.932
 3929TIP3    H111730   7.394   5.145   4.954
 3929TIP3    H211731   7.420   5.245   4.843
 3930TIP3   OH211732   7.821   3.369   4.956
 3930TIP3    H111733   7.904   3.329   4.986
 3930TIP3    H211734   7.772   3.384   5.037
 3931TIP3   OH211735   3.603   6.999   2.869
 3931TIP3    H111736   3.606   6.916   2.918
 3931TIP3    H211737   3.589   6.972   2.778
 3932TIP3   OH211738   6.071   6.812   4.382
 3932TIP3    H111739   6.038   6.779   4.465
 3932TIP3    H211740   6.114   6.894   4.403
 3933TIP3   OH211741   0.123   2.614   0.309
 3933TIP3    H111742   0.066   2.688   0.291
 3933TIP3    H211743   0.082   2.570   0.384
 3934TIP3   OH211744   5.466   6.404   4.517
 3934TIP3    H111745   5.495   6.398   4.608
 3934TIP3    H211746   5.428   6.491   4.509
 3935TIP3   OH211747   3.316   6.780   1.744
 3935TIP3    H111748   3.242   6.836   1.767
 3935TIP3    H211749   3.325   6.720   1.819
 3936TIP3   OH211750   8.291   0.663   1.558
 3936TIP3    H111751   8.258   0.599   1.621
 3936TIP3    H211752   8.254   0.635   1.474
 3937TIP3   OH211753   7.375   1.384   3.800
 3937TIP3    H111754   7.434   1.452   3.767
 3937TIP3    H211755   7.407   1.303   3.760
 3938TIP3   OH211756   5.152   0.372   4.829
 3938TIP3    H111757   5.178   0.382   4.920
 3938TIP3    H211758   5.187   0.287   4.803
 3939TIP3   OH211759   5.711   4.764   2.760
 3939TIP3    H111760   5.731   4.673   2.737
 3939TIP3    H211761   5.627   4.782   2.718
 3940TIP3   OH211762   5.338   0.835   3.765
 3940TIP3    H111763   5.351   0.918   3.811
 3940TIP3    H211764   5.354   0.768   3.831
 3941TIP3   OH211765   0.036   4.181   0.242
 3941TIP3    H111766   0.045   4.212   0.332
 3941TIP3    H211767  -0.005   4.095   0.250
 3942TIP3   OH211768   1.046   3.697   5.969
 3942TIP3    H111769   0.977   3.632   5.981
 3942TIP3    H211770   1.015   3.774   6.017
 3943TIP3   OH211771   2.155   7.283   0.364
 3943TIP3    H111772   2.232   7.263   0.418
 3943TIP3    H211773   2.162   7.377   0.347
 3944TIP3   OH211774   6.284   6.249   3.799
 3944TIP3    H111775   6.252   6.200   3.875
 3944TIP3    H211776   6.226   6.223   3.727
 3945TIP3   OH211777   4.393   5.181   0.433
 3945TIP3    H111778   4.342   5.256   0.401
 3945TIP3    H211779   4.386   5.115   0.364
 3946TIP3   OH211780   0.128   7.610   5.286
 3946TIP3    H111781   0.188   7.539   5.261
 3946TIP3    H211782   0.185   7.684   5.304
 3947TIP3   OH211783   8.199   1.501   2.495
 3947TIP3    H111784   8.199   1.550   2.577
 3947TIP3    H211785   8.265   1.545   2.441
 3948TIP3   OH211786   3.672   1.298   5.399
 3948TIP3    H111787   3.711   1.378   5.363
 3948TIP3    H211788   3.738   1.230   5.382
 3949TIP3   OH211789   0.532   5.803   3.166
 3949TIP3    H111790   0.605   5.746   3.190
 3949TIP3    H211791   0.454   5.751   3.183
 3950TIP3   OH211792   2.225   2.781   5.939
 3950TIP3    H111793   2.207   2.812   5.851
 3950TIP3    H211794   2.157   2.820   5.993
 3951TIP3   OH211795   7.574   4.736   0.834
 3951TIP3    H111796   7.527   4.691   0.764
 3951TIP3    H211797   7.617   4.665   0.883
 3952TIP3   OH211798   8.064   4.402   3.069
 3952TIP3    H111799   8.075   4.349   3.148
 3952TIP3    H211800   8.140   4.461   3.070
 3953TIP3   OH211801   1.022   1.812   1.085
 3953TIP3    H111802   1.044   1.780   1.172
 3953TIP3    H211803   0.974   1.739   1.044
 3954TIP3   OH211804   0.228   6.041   5.382
 3954TIP3    H111805   0.245   6.121   5.431
 3954TIP3    H211806   0.156   6.063   5.323
 3955TIP3   OH211807   4.840   6.633   1.841
 3955TIP3    H111808   4.881   6.549   1.864
 3955TIP3    H211809   4.770   6.644   1.904
 3956TIP3   OH211810   2.977   5.611   4.459
 3956TIP3    H111811   3.058   5.655   4.435
 3956TIP3    H211812   2.989   5.587   4.551
 3957TIP3   OH211813   0.889   0.586   4.774
 3957TIP3    H111814   0.862   0.501   4.808
 3957TIP3    H211815   0.808   0.623   4.737
 3958TIP3   OH211816   2.951   5.991   4.816
 3958TIP3    H111817   3.017   5.968   4.881
 3958TIP3    H211818   2.868   5.963   4.855
 3959TIP3   OH211819   2.407   1.541   5.776
 3959TIP3    H111820   2.392   1.468   5.717
 3959TIP3    H211821   2.369   1.513   5.860
 3960TIP3   OH211822   5.955   6.574   5.426
 3960TIP3    H111823   5.912   6.606   5.346
 3960TIP3    H211824   6.037   6.537   5.395
 3961TIP3   OH211825   2.802   6.098   6.435
 3961TIP3    H111826   2.796   6.033   6.365
 3961TIP3    H211827   2.896   6.117   6.441
 3962TIP3   OH211828   5.247   4.745   1.347
 3962TIP3    H111829   5.338   4.769   1.331
 3962TIP3    H211830   5.207   4.741   1.260
 3963TIP3   OH211831   3.176   2.836   6.648
 3963TIP3    H111832   3.240   2.770   6.624
 3963TIP3    H211833   3.134   2.802   6.727
 3964TIP3   OH211834   0.652   4.346   3.816
 3964TIP3    H111835   0.737   4.352   3.860
 3964TIP3    H211836   0.669   4.297   3.736
 3965TIP3   OH211837   1.349   0.860   3.266
 3965TIP3    H111838   1.321   0.952   3.265
 3965TIP3    H211839   1.420   0.855   3.203
 3966TIP3   OH211840   5.966   7.348   1.080
 3966TIP3    H111841   5.989   7.440   1.088
 3966TIP3    H211842   6.026   7.303   1.139
 3967TIP3   OH211843   0.762   2.222   2.442
 3967TIP3    H111844   0.779   2.253   2.531
 3967TIP3    H211845   0.737   2.130   2.452
 3968TIP3   OH211846   6.938   4.318   3.797
 3968TIP3    H111847   6.966   4.251   3.860
 3968TIP3    H211848   6.997   4.307   3.723
 3969TIP3   OH211849   0.290   0.420   0.146
 3969TIP3    H111850   0.212   0.366   0.155
 3969TIP3    H211851   0.258   0.501   0.105
 3970TIP3   OH211852   7.524   5.374   4.459
 3970TIP3    H111853   7.526   5.456   4.410
 3970TIP3    H211854   7.518   5.306   4.392
 3971TIP3   OH211855   5.050   4.314   5.222
 3971TIP3    H111856   5.056   4.283   5.132
 3971TIP3    H211857   5.060   4.409   5.215
 3972TIP3   OH211858   3.930   5.730   6.487
 3972TIP3    H111859   3.916   5.810   6.537
 3972TIP3    H211860   4.016   5.743   6.445
 3973TIP3   OH211861   5.489   2.619   3.097
 3973TIP3    H111862   5.501   2.612   3.002
 3973TIP3    H211863   5.578   2.630   3.131
 3974TIP3   OH211864   7.057   7.565   3.860
 3974TIP3    H111865   7.012   7.649   3.866
 3974TIP3    H211866   6.995   7.502   3.896
 3975TIP3   OH211867   1.260   2.422   2.261
 3975TIP3    H111868   1.291   2.334   2.285
 3975TIP3    H211869   1.185   2.437   2.319
 3976TIP3   OH211870   4.797   4.624   2.702
 3976TIP3    H111871   4.761   4.705   2.738
 3976TIP3    H211872   4.856   4.652   2.632
 3977TIP3   OH211873   6.199   0.506   5.977
 3977TIP3    H111874   6.278   0.460   5.949
 3977TIP3    H211875   6.188   0.575   5.912
 3978TIP3   OH211876   2.212   6.939   6.464
 3978TIP3    H111877   2.236   7.029   6.440
 3978TIP3    H211878   2.122   6.946   6.496
 3979TIP3   OH211879   7.976   0.958   3.377
 3979TIP3    H111880   8.010   1.036   3.334
 3979TIP3    H211881   8.052   0.900   3.385
 3980TIP3   OH211882   5.409   2.536   6.779
 3980TIP3    H111883   5.488   2.589   6.774
 3980TIP3    H211884   5.436   2.450   6.749
 3981TIP3   OH211885   0.427   0.469   3.812
 3981TIP3    H111886   0.340   0.439   3.837
 3981TIP3    H211887   0.411   0.537   3.747
 3982TIP3   OH211888   3.262   6.415   6.431
 3982TIP3    H111889   3.266   6.501   6.472
 3982TIP3    H211890   3.281   6.432   6.338
 3983TIP3   OH211891   0.939   1.831   5.675
 3983TIP3    H111892   0.996   1.899   5.711
 3983TIP3    H211893   0.971   1.750   5.712
 3984TIP3   OH211894   3.293   5.579   0.809
 3984TIP3    H111895   3.330   5.644   0.868
 3984TIP3    H211896   3.200   5.601   0.804
 3985TIP3   OH211897   5.080   7.133   5.132
 3985TIP3    H111898   5.164   7.111   5.092
 3985TIP3    H211899   5.048   7.051   5.168
 3986TIP3   OH211900   3.457   3.916   1.568
 3986TIP3    H111901   3.405   3.938   1.491
 3986TIP3    H211902   3.483   4.001   1.605
 3987TIP3   OH211903   6.784   5.265   6.140
 3987TIP3    H111904   6.727   5.336   6.167
 3987TIP3    H211905   6.726   5.188   6.136
 3988TIP3   OH211906   0.674   2.509   2.694
 3988TIP3    H111907   0.638   2.553   2.617
 3988TIP3    H211908   0.654   2.568   2.767
 3989TIP3   OH211909   2.434   7.120   0.081
 3989TIP3    H111910   2.518   7.128   0.036
 3989TIP3    H211911   2.446   7.046   0.141
 3990TIP3   OH211912   5.460   6.424   5.626
 3990TIP3    H111913   5.540   6.444   5.577
 3990TIP3    H211914   5.487   6.360   5.692
 3991TIP3   OH211915   0.945   5.102   0.163
 3991TIP3    H111916   0.977   5.044   0.094
 3991TIP3    H211917   0.899   5.172   0.117
 3992TIP3   OH211918   5.284   4.339   5.393
 3992TIP3    H111919   5.321   4.251   5.384
 3992TIP3    H211920   5.202   4.336   5.344
 3993TIP3   OH211921   2.189   0.185   0.428
 3993TIP3    H111922   2.095   0.196   0.420
 3993TIP3    H211923   2.211   0.117   0.363
 3994TIP3   OH211924   0.292   5.001   5.257
 3994TIP3    H111925   0.244   4.928   5.218
 3994TIP3    H211926   0.248   5.015   5.341
 3995TIP3   OH211927   2.434   4.942   2.310
 3995TIP3    H111928   2.400   4.879   2.373
 3995TIP3    H211929   2.376   5.018   2.318
 3996TIP3   OH211930   3.324   2.557   1.241
 3996TIP3    H111931   3.409   2.580   1.279
 3996TIP3    H211932   3.265   2.551   1.316
 3997TIP3   OH211933   3.304   3.303   1.538
 3997TIP3    H111934   3.241   3.334   1.603
 3997TIP3    H211935   3.386   3.294   1.586
 3998TIP3   OH211936   1.761   0.350   1.028
 3998TIP3    H111937   1.799   0.371   0.943
 3998TIP3    H211938   1.670   0.379   1.022
 3999TIP3   OH211939   4.334   3.566   5.995
 3999TIP3    H111940   4.419   3.521   5.986
 3999TIP3    H211941   4.331   3.594   6.086
 4000TIP3   OH211942   0.515   6.811   5.345
 4000TIP3    H111943   0.538   6.883   5.286
 4000TIP3    H211944   0.419   6.806   5.341
 4001TIP3   OH211945   1.347   5.679   4.720
 4001TIP3    H111946   1.395   5.661   4.639
 4001TIP3    H211947   1.259   5.647   4.703
 4002TIP3   OH211948   2.767   7.236   0.360
 4002TIP3    H111949   2.758   7.217   0.454
 4002TIP3    H211950   2.677   7.251   0.330
 4003TIP3   OH211951   3.518   1.582   5.444
 4003TIP3    H111952   3.456   1.577   5.372
 4003TIP3    H211953   3.593   1.530   5.414
 4004TIP3   OH211954   0.916   6.848   5.386
 4004TIP3    H111955   0.987   6.816   5.330
 4004TIP3    H211956   0.863   6.770   5.403
 4005TIP3   OH211957   6.669   5.316   2.456
 4005TIP3    H111958   6.653   5.396   2.405
 4005TIP3    H211959   6.687   5.348   2.544
 4006TIP3   OH211960   0.837   5.002   2.406
 4006TIP3    H111961   0.855   5.016   2.314
 4006TIP3    H211962   0.751   4.959   2.408
 4007TIP3   OH211963   8.041   2.516   6.324
 4007TIP3    H111964   8.035   2.421   6.310
 4007TIP3    H211965   8.049   2.553   6.236
 4008TIP3   OH211966   5.235   1.801   1.783
 4008TIP3    H111967   5.297   1.749   1.732
 4008TIP3    H211968   5.189   1.855   1.718
 4009TIP3   OH211969   6.588   2.866   0.243
 4009TIP3    H111970   6.522   2.853   0.175
 4009TIP3    H211971   6.621   2.955   0.227
 4010TIP3   OH211972   4.221   6.143   2.285
 4010TIP3    H111973   4.315   6.163   2.288
 4010TIP3    H211974   4.180   6.226   2.264
 4011TIP3   OH211975  -0.017   0.941   0.595
 4011TIP3    H111976   0.061   0.893   0.622
 4011TIP3    H211977  -0.052   0.977   0.677
 4012TIP3   OH211978   4.856   0.658   4.943
 4012TIP3    H111979   4.771   0.695   4.921
 4012TIP3    H211980   4.872   0.592   4.876
 4013TIP3   OH211981   6.532   0.791   2.423
 4013TIP3    H111982   6.445   0.755   2.407
 4013TIP3    H211983   6.590   0.738   2.369
 4014TIP3   OH211984   1.989   0.419   1.158
 4014TIP3    H111985   1.909   0.397   1.110
 4014TIP3    H211986   1.998   0.349   1.222
 4015TIP3   OH211987   8.305   3.910   5.709
 4015TIP3    H111988   8.237   3.842   5.711
 4015TIP3    H211989   8.384   3.865   5.739
 4016TIP3   OH211990   7.242   4.703   0.746
 4016TIP3    H111991   7.316   4.676   0.692
 4016TIP3    H211992   7.271   4.784   0.788
 4017TIP3   OH211993   0.354   3.733   3.339
 4017TIP3    H111994   0.405   3.750   3.259
 4017TIP3    H211995   0.420   3.730   3.409
 4018TIP3   OH211996   2.896   2.703   1.130
 4018TIP3    H111997   2.803   2.716   1.114
 4018TIP3    H211998   2.902   2.687   1.224
 4019TIP3   OH211999   5.278   0.051   5.582
 4019TIP3    H112000   5.296   0.003   5.501
 4019TIP3    H212001   5.301  -0.011   5.652
 4020TIP3   OH212002   1.673   1.480   3.671
 4020TIP3    H112003   1.676   1.541   3.744
 4020TIP3    H212004   1.720   1.525   3.600
 4021TIP3   OH212005   5.038   1.751   3.970
 4021TIP3    H112006   5.131   1.732   3.984
 4021TIP3    H212007   4.995   1.667   3.985
 4022TIP3   OH212008   8.300   5.606   2.700
 4022TIP3    H112009   8.259   5.642   2.779
 4022TIP3    H212010   8.226   5.579   2.645
 4023TIP3   OH212011   3.930   3.953   0.297
 4023TIP3    H112012   3.932   4.049   0.293
 4023TIP3    H212013   3.988   3.925   0.227
 4024TIP3   OH212014   6.488   6.342   4.600
 4024TIP3    H112015   6.492   6.263   4.654
 4024TIP3    H212016   6.396   6.365   4.598
 4025TIP3   OH212017   1.791   5.110   5.815
 4025TIP3    H112018   1.844   5.034   5.794
 4025TIP3    H212019   1.841   5.157   5.882
 4026TIP3   OH212020   7.770   6.420   3.473
 4026TIP3    H112021   7.773   6.466   3.390
 4026TIP3    H212022   7.680   6.389   3.480
 4027TIP3   OH212023   5.883   0.394   0.178
 4027TIP3    H112024   5.908   0.318   0.231
 4027TIP3    H212025   5.883   0.467   0.240
 4028TIP3   OH212026   3.375   6.573   1.081
 4028TIP3    H112027   3.305   6.526   1.036
 4028TIP3    H212028   3.334   6.653   1.113
 4029TIP3   OH212029   4.407   6.789   4.274
 4029TIP3    H112030   4.443   6.740   4.200
 4029TIP3    H212031   4.377   6.871   4.235
 4030TIP3   OH212032   6.499   0.702   5.745
 4030TIP3    H112033   6.527   0.695   5.654
 4030TIP3    H212034   6.505   0.612   5.779
 4031TIP3   OH212035   7.495   6.677   1.002
 4031TIP3    H112036   7.503   6.760   1.048
 4031TIP3    H212037   7.549   6.688   0.923
 4032TIP3   OH212038   0.238   4.857   4.166
 4032TIP3    H112039   0.284   4.935   4.195
 4032TIP3    H212040   0.307   4.799   4.133
 4033TIP3   OH212041   3.484   1.536   0.580
 4033TIP3    H112042   3.548   1.584   0.633
 4033TIP3    H212043   3.508   1.557   0.490
 4034TIP3   OH212044   4.245   0.824   6.529
 4034TIP3    H112045   4.217   0.735   6.508
 4034TIP3    H212046   4.312   0.844   6.463
 4035TIP3   OH212047   1.331   4.868   0.498
 4035TIP3    H112048   1.264   4.807   0.467
 4035TIP3    H212049   1.313   4.879   0.591
 4036TIP3   OH212050   7.966   4.287   5.325
 4036TIP3    H112051   7.904   4.360   5.317
 4036TIP3    H212052   7.950   4.233   5.248
 4037TIP3   OH212053   5.743   6.664   3.334
 4037TIP3    H112054   5.752   6.582   3.285
 4037TIP3    H212055   5.651   6.667   3.360
 4038TIP3   OH212056   4.743   5.337   5.052
 4038TIP3    H112057   4.650   5.333   5.028
 4038TIP3    H212058   4.788   5.359   4.970
 4039TIP3   OH212059   2.116   3.640   0.185
 4039TIP3    H112060   2.042   3.582   0.203
 4039TIP3    H212061   2.084   3.728   0.206
 4040TIP3   OH212062   1.503   6.538   2.652
 4040TIP3    H112063   1.527   6.578   2.569
 4040TIP3    H212064   1.441   6.469   2.629
 4041TIP3   OH212065   7.347   6.449   5.652
 4041TIP3    H112066   7.348   6.353   5.648
 4041TIP3    H212067   7.431   6.472   5.691
 4042TIP3   OH212068   1.384   4.125   1.661
 4042TIP3    H112069   1.462   4.074   1.640
 4042TIP3    H212070   1.398   4.155   1.751
 4043TIP3   OH212071   5.653   6.176   3.916
 4043TIP3    H112072   5.630   6.267   3.900
 4043TIP3    H212073   5.712   6.153   3.844
 4044TIP3   OH212074   3.286   2.796   3.004
 4044TIP3    H112075   3.231   2.841   2.940
 4044TIP3    H212076   3.280   2.704   2.979
 4045TIP3   OH212077   7.222   6.688   0.917
 4045TIP3    H112078   7.243   6.663   0.828
 4045TIP3    H212079   7.305   6.684   0.964
 4046TIP3   OH212080   2.554   7.312   2.792
 4046TIP3    H112081   2.513   7.317   2.878
 4046TIP3    H212082   2.609   7.390   2.787
 4047TIP3   OH212083   1.220   4.416   3.268
 4047TIP3    H112084   1.193   4.437   3.179
 4047TIP3    H212085   1.295   4.474   3.285
 4048TIP3   OH212086   4.451   0.720   1.147
 4048TIP3    H112087   4.379   0.680   1.196
 4048TIP3    H212088   4.502   0.766   1.214
 4049TIP3   OH212089   7.626   3.205   2.488
 4049TIP3    H112090   7.711   3.196   2.531
 4049TIP3    H212091   7.597   3.115   2.471
 4050TIP3   OH212092   2.022   3.725   3.945
 4050TIP3    H112093   1.934   3.736   3.909
 4050TIP3    H212094   2.011   3.731   4.040
 4051TIP3   OH212095   6.886   0.477   6.053
 4051TIP3    H112096   6.926   0.521   6.129
 4051TIP3    H212097   6.923   0.389   6.054
 4052TIP3   OH212098   7.775   4.792   0.660
 4052TIP3    H112099   7.859   4.838   0.671
 4052TIP3    H212100   7.716   4.834   0.723
 4053TIP3   OH212101   4.740   6.280   0.580
 4053TIP3    H112102   4.712   6.271   0.489
 4053TIP3    H212103   4.726   6.372   0.602
 4054TIP3   OH212104   4.973   1.670   6.217
 4054TIP3    H112105   4.957   1.686   6.310
 4054TIP3    H212106   5.052   1.616   6.215
 4055TIP3   OH212107   5.743   0.420   1.449
 4055TIP3    H112108   5.750   0.447   1.541
 4055TIP3    H212109   5.653   0.439   1.426
 4056TIP3   OH212110   3.827   2.667   4.495
 4056TIP3    H112111   3.881   2.608   4.548
 4056TIP3    H212112   3.743   2.622   4.487
 4057TIP3   OH212113   3.788   5.255   5.991
 4057TIP3    H112114   3.791   5.351   5.997
 4057TIP3    H212115   3.872   5.227   6.028
 4058TIP3   OH212116   1.448   7.663   2.258
 4058TIP3    H112117   1.528   7.677   2.206
 4058TIP3    H212118   1.422   7.750   2.286
 4059TIP3   OH212119   4.191   3.662   3.865
 4059TIP3    H112120   4.208   3.738   3.921
 4059TIP3    H212121   4.139   3.603   3.920
 4060TIP3   OH212122   5.091   4.194   2.513
 4060TIP3    H112123   5.134   4.275   2.541
 4060TIP3    H212124   5.160   4.142   2.473
 4061TIP3   OH212125   1.836   0.870   4.625
 4061TIP3    H112126   1.909   0.927   4.599
 4061TIP3    H212127   1.808   0.828   4.543
 4062TIP3   OH212128   3.189   6.551   3.810
 4062TIP3    H112129   3.127   6.617   3.843
 4062TIP3    H212130   3.134   6.485   3.768
 4063TIP3   OH212131   3.691   5.143   5.770
 4063TIP3    H112132   3.728   5.187   5.846
 4063TIP3    H212133   3.604   5.181   5.759
 4064TIP3   OH212134   7.126   5.056   5.793
 4064TIP3    H112135   7.101   4.967   5.821
 4064TIP3    H212136   7.132   5.050   5.698
 4065TIP3   OH212137   0.894   2.138   3.218
 4065TIP3    H112138   0.937   2.111   3.299
 4065TIP3    H212139   0.919   2.072   3.154
 4066TIP3   OH212140   5.997   1.231   2.175
 4066TIP3    H112141   5.980   1.307   2.119
 4066TIP3    H212142   6.052   1.264   2.245
 4067TIP3   OH212143   6.043   1.364   0.034
 4067TIP3    H112144   6.101   1.298   0.073
 4067TIP3    H212145   5.973   1.313  -0.007
 4068TIP3   OH212146   5.815   5.984   6.019
 4068TIP3    H112147   5.856   6.061   6.058
 4068TIP3    H212148   5.843   5.910   6.073
 4069TIP3   OH212149   2.710   0.374   2.014
 4069TIP3    H112150   2.756   0.455   1.991
 4069TIP3    H212151   2.767   0.332   2.079
 4070TIP3   OH212152   8.063   4.547   5.297
 4070TIP3    H112153   8.047   4.457   5.269
 4070TIP3    H212154   8.153   4.547   5.329
 4071TIP3   OH212155   4.954   1.355   6.525
 4071TIP3    H112156   4.980   1.299   6.453
 4071TIP3    H212157   5.036   1.378   6.568
 4072TIP3   OH212158   7.478   3.089   3.142
 4072TIP3    H112159   7.386   3.098   3.115
 4072TIP3    H212160   7.485   3.000   3.177
 4073TIP3   OH212161   4.003   4.962   4.950
 4073TIP3    H112162   3.956   4.887   4.986
 4073TIP3    H212163   4.063   4.924   4.885
 4074TIP3   OH212164   1.527   5.044   3.623
 4074TIP3    H112165   1.492   5.114   3.679
 4074TIP3    H212166   1.592   5.000   3.678
 4075TIP3   OH212167   2.911   6.910   6.142
 4075TIP3    H112168   2.920   6.844   6.073
 4075TIP3    H212169   2.817   6.911   6.160
 4076TIP3   OH212170   4.127   2.272   4.744
 4076TIP3    H112171   4.151   2.207   4.810
 4076TIP3    H212172   4.208   2.292   4.697
 4077TIP3   OH212173   8.259   2.249   0.025
 4077TIP3    H112174   8.209   2.184  -0.024
 4077TIP3    H212175   8.252   2.329  -0.026
 4078TIP3   OH212176   3.467   0.684   0.287
 4078TIP3    H112177   3.510   0.761   0.324
 4078TIP3    H212178   3.533   0.644   0.231
 4079TIP3   OH212179   5.225   5.336   2.666
 4079TIP3    H112180   5.185   5.411   2.621
 4079TIP3    H212181   5.283   5.297   2.601
 4080TIP3   OH212182   1.955   5.217   2.637
 4080TIP3    H112183   1.978   5.304   2.604
 4080TIP3    H212184   1.865   5.226   2.668
 4081TIP3   OH212185   8.036   1.348   0.647
 4081TIP3    H112186   7.971   1.306   0.704
 4081TIP3    H212187   8.025   1.306   0.562
 4082TIP3   OH212188   3.242   3.822   4.550
 4082TIP3    H112189   3.160   3.774   4.550
 4082TIP3    H212190   3.260   3.839   4.458
 4083TIP3   OH212191   8.131   6.676   0.201
 4083TIP3    H112192   8.226   6.670   0.190
 4083TIP3    H212193   8.098   6.593   0.167
 4084TIP3   OH212194   0.229   1.743   0.984
 4084TIP3    H112195   0.221   1.665   0.929
 4084TIP3    H212196   0.302   1.723   1.043
 4085TIP3   OH212197   1.126   3.426   6.190
 4085TIP3    H112198   1.042   3.437   6.146
 4085TIP3    H212199   1.179   3.375   6.129
 4086TIP3   OH212200   5.834   1.510   2.293
 4086TIP3    H112201   5.747   1.485   2.324
 4086TIP3    H212202   5.890   1.505   2.371
 4087TIP3   OH212203   2.855   1.267   3.090
 4087TIP3    H112204   2.810   1.343   3.051
 4087TIP3    H212205   2.944   1.271   3.055
 4088TIP3   OH212206   7.237   3.305   0.950
 4088TIP3    H112207   7.305   3.342   1.007
 4088TIP3    H212208   7.209   3.225   0.995
 4089TIP3   OH212209   2.743   0.905   0.004
 4089TIP3    H112210   2.758   0.984   0.056
 4089TIP3    H212211   2.648   0.896   0.002
 4090TIP3   OH212212   7.718   4.456   5.675
 4090TIP3    H112213   7.788   4.487   5.732
 4090TIP3    H212214   7.757   4.455   5.588
 4091TIP3   OH212215   1.750   0.831   4.898
 4091TIP3    H112216   1.793   0.810   4.815
 4091TIP3    H212217   1.748   0.927   4.900
 4092TIP3   OH212218   2.567   7.108   2.540
 4092TIP3    H112219   2.589   7.180   2.599
 4092TIP3    H212220   2.583   7.029   2.591
 4093TIP3   OH212221   7.683   7.656   1.705
 4093TIP3    H112222   7.616   7.610   1.655
 4093TIP3    H212223   7.766   7.623   1.670
 4094TIP3   OH212224   3.873   1.977   2.417
 4094TIP3    H112225   3.809   1.924   2.464
 4094TIP3    H212226   3.821   2.046   2.374
 4095TIP3   OH212227   5.754   3.358  -0.034
 4095TIP3    H112228   5.815   3.395   0.030
 4095TIP3    H212229   5.669   3.358   0.011
 4096TIP3   OH212230   2.632   7.155   1.278
 4096TIP3    H112231   2.566   7.106   1.327
 4096TIP3    H212232   2.628   7.118   1.189
 4097TIP3   OH212233   6.059   3.125   5.427
 4097TIP3    H112234   6.010   3.199   5.464
 4097TIP3    H212235   5.995   3.077   5.375
 4098TIP3   OH212236   8.038   5.078   1.798
 4098TIP3    H112237   7.987   5.055   1.875
 4098TIP3    H212238   8.079   4.996   1.770
 4099TIP3   OH212239   6.167   4.956   5.147
 4099TIP3    H112240   6.106   5.029   5.140
 4099TIP3    H212241   6.123   4.892   5.203
 4100TIP3   OH212242   7.930   6.556   2.029
 4100TIP3    H112243   8.021   6.544   2.000
 4100TIP3    H212244   7.908   6.645   2.003
 4101TIP3   OH212245   5.766   5.878   5.773
 4101TIP3    H112246   5.776   5.897   5.866
 4101TIP3    H212247   5.825   5.939   5.729
 4102TIP3   OH212248   2.984   6.424   4.220
 4102TIP3    H112249   2.969   6.510   4.182
 4102TIP3    H212250   3.063   6.392   4.177
 4103TIP3   OH212251   3.841   4.404   3.365
 4103TIP3    H112252   3.855   4.330   3.307
 4103TIP3    H212253   3.921   4.457   3.356
 4104TIP3   OH212254   5.248   2.250   2.221
 4104TIP3    H112255   5.219   2.178   2.165
 4104TIP3    H212256   5.341   2.233   2.236
 4105TIP3   OH212257   6.697   5.739   6.387
 4105TIP3    H112258   6.664   5.782   6.466
 4105TIP3    H212259   6.680   5.801   6.316
 4106TIP3   OH212260   2.949   0.841   3.530
 4106TIP3    H112261   2.867   0.880   3.558
 4106TIP3    H212262   2.924   0.754   3.496
 4107TIP3   OH212263   5.837   4.059   3.092
 4107TIP3    H112264   5.857   4.024   3.005
 4107TIP3    H212265   5.909   4.118   3.112
 4108TIP3   OH212266   6.654   2.765   2.972
 4108TIP3    H112267   6.566   2.799   2.985
 4108TIP3    H212268   6.706   2.806   3.041
 4109TIP3   OH212269   7.370   3.811   2.629
 4109TIP3    H112270   7.375   3.889   2.574
 4109TIP3    H212271   7.278   3.784   2.623
 4110TIP3   OH212272   0.892   4.142   6.144
 4110TIP3    H112273   0.820   4.204   6.157
 4110TIP3    H212274   0.918   4.155   6.053
 4111TIP3   OH212275   7.456   2.615   1.961
 4111TIP3    H112276   7.378   2.618   1.905
 4111TIP3    H212277   7.428   2.565   2.038
 4112TIP3   OH212278   4.259   4.864   4.026
 4112TIP3    H112279   4.280   4.942   3.975
 4112TIP3    H212280   4.263   4.792   3.963
 4113TIP3   OH212281   1.591   5.896   1.949
 4113TIP3    H112282   1.518   5.952   1.921
 4113TIP3    H212283   1.554   5.841   2.018
 4114TIP3   OH212284   6.400   0.682   5.040
 4114TIP3    H112285   6.431   0.592   5.027
 4114TIP3    H212286   6.327   0.691   4.980
 4115TIP3   OH212287   1.782   1.029   1.658
 4115TIP3    H112288   1.875   1.013   1.645
 4115TIP3    H212289   1.741   0.998   1.577
 4116TIP3   OH212290   1.236   2.591   1.019
 4116TIP3    H112291   1.327   2.579   1.046
 4116TIP3    H212292   1.219   2.519   0.959
 4117TIP3   OH212293   7.683   0.789   0.627
 4117TIP3    H112294   7.668   0.803   0.720
 4117TIP3    H212295   7.760   0.732   0.624
 4118TIP3   OH212296   4.416   1.220   4.815
 4118TIP3    H112297   4.481   1.195   4.749
 4118TIP3    H212298   4.345   1.259   4.765
 4119TIP3   OH212299   1.501   6.430   6.541
 4119TIP3    H112300   1.502   6.492   6.614
 4119TIP3    H212301   1.431   6.462   6.484
 4120TIP3   OH212302   4.558   2.709   4.001
 4120TIP3    H112303   4.558   2.640   4.066
 4120TIP3    H212304   4.470   2.705   3.962
 4121TIP3   OH212305   5.093   5.519   2.427
 4121TIP3    H112306   5.002   5.548   2.425
 4121TIP3    H212307   5.144   5.600   2.421
 4122TIP3   OH212308   1.682   6.811   2.902
 4122TIP3    H112309   1.754   6.753   2.927
 4122TIP3    H212310   1.704   6.895   2.944
 4123TIP3   OH212311   2.186   6.416   6.287
 4123TIP3    H112312   2.255   6.357   6.258
 4123TIP3    H212313   2.206   6.500   6.246
 4124TIP3   OH212314   2.882   0.731   1.489
 4124TIP3    H112315   2.923   0.658   1.443
 4124TIP3    H212316   2.789   0.709   1.490
 4125TIP3   OH212317   7.819   0.683   4.743
 4125TIP3    H112318   7.907   0.651   4.724
 4125TIP3    H212319   7.768   0.659   4.665
 4126TIP3   OH212320   0.055   6.585   0.480
 4126TIP3    H112321   0.091   6.582   0.569
 4126TIP3    H212322  -0.034   6.550   0.489
 4127TIP3   OH212323   4.067   3.097   3.700
 4127TIP3    H112324   4.136   3.031   3.715
 4127TIP3    H212325   3.987   3.055   3.732
 4128TIP3   OH212326   6.135   2.821   4.767
 4128TIP3    H112327   6.206   2.859   4.715
 4128TIP3    H212328   6.114   2.739   4.722
 4129TIP3   OH212329   7.973   7.281   0.275
 4129TIP3    H112330   8.017   7.249   0.354
 4129TIP3    H212331   7.912   7.348   0.308
 4130TIP3   OH212332   5.634   5.821   6.596
 4130TIP3    H112333   5.574   5.751   6.569
 4130TIP3    H212334   5.593   5.901   6.565
 4131TIP3   OH212335   6.692   3.571   5.796
 4131TIP3    H112336   6.620   3.552   5.736
 4131TIP3    H212337   6.771   3.556   5.744
 4132TIP3   OH212338   1.083   7.276   1.904
 4132TIP3    H112339   1.080   7.295   1.811
 4132TIP3    H212340   1.155   7.213   1.914
 4133TIP3   OH212341   5.348   6.472   6.396
 4133TIP3    H112342   5.368   6.433   6.311
 4133TIP3    H212343   5.329   6.564   6.376
 4134TIP3   OH212344   1.380   0.045   2.955
 4134TIP3    H112345   1.381   0.116   2.891
 4134TIP3    H212346   1.295   0.054   2.999
 4135TIP3   OH212347   1.860   7.382   2.770
 4135TIP3    H112348   1.807   7.462   2.780
 4135TIP3    H212349   1.898   7.368   2.856
 4136TIP3   OH212350   4.365   7.534   5.477
 4136TIP3    H112351   4.367   7.446   5.440
 4136TIP3    H212352   4.440   7.578   5.437
 4137TIP3   OH212353   8.195   3.082   2.923
 4137TIP3    H112354   8.155   3.137   2.856
 4137TIP3    H212355   8.276   3.050   2.883
 4138TIP3   OH212356   3.006   1.040   3.886
 4138TIP3    H112357   3.004   0.946   3.867
 4138TIP3    H212358   3.068   1.048   3.958
 4139TIP3   OH212359   8.286   6.496   1.418
 4139TIP3    H112360   8.340   6.466   1.345
 4139TIP3    H212361   8.242   6.575   1.385
 4140TIP3   OH212362   5.825   1.670   4.947
 4140TIP3    H112363   5.845   1.581   4.979
 4140TIP3    H212364   5.827   1.724   5.026
 4141TIP3   OH212365   4.003   3.068   0.760
 4141TIP3    H112366   3.951   3.109   0.829
 4141TIP3    H212367   4.024   2.981   0.795
 4142TIP3   OH212368   7.531   5.313   1.536
 4142TIP3    H112369   7.513   5.348   1.623
 4142TIP3    H212370   7.512   5.219   1.544
 4143TIP3   OH212371   1.073   0.486   0.766
 4143TIP3    H112372   1.135   0.418   0.741
 4143TIP3    H212373   1.108   0.521   0.848
 4144TIP3   OH212374   1.656   1.063   3.282
 4144TIP3    H112375   1.723   1.129   3.300
 4144TIP3    H212376   1.588   1.110   3.234
 4145TIP3   OH212377   6.275   3.183   0.867
 4145TIP3    H112378   6.352   3.127   0.851
 4145TIP3    H212379   6.289   3.216   0.956
 4146TIP3   OH212380   8.031   4.156   0.422
 4146TIP3    H112381   8.065   4.242   0.447
 4146TIP3    H212382   7.967   4.135   0.490
 4147TIP3   OH212383   7.654   6.640   1.424
 4147TIP3    H112384   7.567   6.647   1.465
 4147TIP3    H212385   7.677   6.730   1.403
 4148TIP3   OH212386   0.201   2.019   0.707
 4148TIP3    H112387   0.220   2.077   0.780
 4148TIP3    H212388   0.230   2.067   0.630
 4149TIP3   OH212389   4.543   5.142   0.851
 4149TIP3    H112390   4.565   5.200   0.924
 4149TIP3    H212391   4.543   5.055   0.889
 4150TIP3   OH212392   2.285   3.854   6.610
 4150TIP3    H112393   2.379   3.862   6.593
 4150TIP3    H212394   2.250   3.941   6.593
 4151TIP3   OH212395   0.876   3.027   5.316
 4151TIP3    H112396   0.885   2.984   5.401
 4151TIP3    H212397   0.782   3.026   5.298
 4152TIP3   OH212398   1.859   2.138   1.413
 4152TIP3    H112399   1.822   2.225   1.427
 4152TIP3    H212400   1.801   2.079   1.461
 4153TIP3   OH212401   7.550   0.333   2.968
 4153TIP3    H112402   7.551   0.382   3.050
 4153TIP3    H212403   7.592   0.391   2.905
 4154TIP3   OH212404   4.494   5.903   6.544
 4154TIP3    H112405   4.434   5.867   6.479
 4154TIP3    H212406   4.573   5.850   6.536
 4155TIP3   OH212407   7.022   5.326   5.787
 4155TIP3    H112408   6.954   5.266   5.755
 4155TIP3    H212409   7.104   5.279   5.772
 4156TIP3   OH212410   3.736   0.536   2.053
 4156TIP3    H112411   3.783   0.512   1.973
 4156TIP3    H212412   3.803   0.574   2.110
 4157TIP3   OH212413   4.049   0.430   5.992
 4157TIP3    H112414   4.016   0.388   6.071
 4157TIP3    H212415   4.130   0.474   6.019
 4158TIP3   OH212416   3.730   4.089   1.212
 4158TIP3    H112417   3.769   4.096   1.125
 4158TIP3    H212418   3.689   4.003   1.213
 4159TIP3   OH212419   8.183   0.759   5.435
 4159TIP3    H112420   8.122   0.831   5.450
 4159TIP3    H212421   8.269   0.795   5.455
 4160TIP3   OH212422   6.044   0.012   3.605
 4160TIP3    H112423   6.099   0.011   3.683
 4160TIP3    H212424   5.979   0.080   3.622
 4161TIP3   OH212425   5.394   4.994   4.816
 4161TIP3    H112426   5.349   4.940   4.880
 4161TIP3    H212427   5.407   4.937   4.740
 4162TIP3   OH212428   4.167   1.683   3.901
 4162TIP3    H112429   4.211   1.722   3.825
 4162TIP3    H212430   4.230   1.619   3.935
 4163TIP3   OH212431   2.974   2.732   1.636
 4163TIP3    H112432   3.016   2.670   1.694
 4163TIP3    H212433   2.997   2.818   1.671
 4164TIP3   OH212434   0.092   5.861   4.683
 4164TIP3    H112435   0.179   5.828   4.706
 4164TIP3    H212436   0.032   5.807   4.734
 4165TIP3   OH212437   6.408   0.955   5.591
 4165TIP3    H112438   6.459   0.879   5.564
 4165TIP3    H212439   6.323   0.944   5.548
 4166TIP3   OH212440   5.866   2.019   6.010
 4166TIP3    H112441   5.924   1.971   6.068
 4166TIP3    H212442   5.802   1.954   5.980
 4167TIP3   OH212443   0.144   1.993   2.978
 4167TIP3    H112444   0.151   2.080   2.940
 4167TIP3    H212445   0.220   1.945   2.944
 4168TIP3   OH212446   7.607   2.115   6.515
 4168TIP3    H112447   7.540   2.083   6.454
 4168TIP3    H212448   7.636   2.036   6.561
 4169TIP3   OH212449   0.572   5.377   4.555
 4169TIP3    H112450   0.590   5.370   4.648
 4169TIP3    H212451   0.520   5.300   4.534
 4170TIP3   OH212452   6.394   2.921   3.716
 4170TIP3    H112453   6.306   2.907   3.680
 4170TIP3    H212454   6.450   2.928   3.638
 4171TIP3   OH212455   6.094   1.158   3.786
 4171TIP3    H112456   6.052   1.079   3.820
 4171TIP3    H212457   6.029   1.197   3.728
 4172TIP3   OH212458   7.519   3.739   4.525
 4172TIP3    H112459   7.583   3.752   4.595
 4172TIP3    H212460   7.441   3.705   4.569
 4173TIP3   OH212461   1.103   1.289   4.377
 4173TIP3    H112462   1.101   1.384   4.362
 4173TIP3    H212463   1.194   1.265   4.362
 4174TIP3   OH212464   1.582   4.599   4.080
 4174TIP3    H112465   1.561   4.628   3.991
 4174TIP3    H212466   1.596   4.679   4.129
 4175TIP3   OH212467   0.683   6.999   0.433
 4175TIP3    H112468   0.602   7.048   0.418
 4175TIP3    H212469   0.719   7.036   0.513
 4176TIP3   OH212470   2.519   6.585   0.422
 4176TIP3    H112471   2.584   6.621   0.361
 4176TIP3    H212472   2.443   6.566   0.367
 4177TIP3   OH212473   0.313   5.296   4.085
 4177TIP3    H112474   0.292   5.364   4.149
 4177TIP3    H212475   0.335   5.220   4.139
 4178TIP3   OH212476   3.174   4.941   2.463
 4178TIP3    H112477   3.216   5.016   2.505
 4178TIP3    H212478   3.081   4.952   2.480
 4179TIP3   OH212479   0.425   3.232   3.546
 4179TIP3    H112480   0.471   3.314   3.562
 4179TIP3    H212481   0.345   3.239   3.599
 4180TIP3   OH212482   7.981   3.666   2.994
 4180TIP3    H112483   7.931   3.588   2.972
 4180TIP3    H212484   8.072   3.637   2.998
 4181TIP3   OH212485   6.741   7.500   1.463
 4181TIP3    H112486   6.684   7.428   1.491
 4181TIP3    H212487   6.746   7.558   1.539
 4182TIP3   OH212488   4.663   5.758   3.062
 4182TIP3    H112489   4.592   5.694   3.048
 4182TIP3    H212490   4.634   5.836   3.014
 4183TIP3   OH212491   7.671   5.820   4.486
 4183TIP3    H112492   7.705   5.828   4.575
 4183TIP3    H212493   7.746   5.840   4.430
 4184TIP3   OH212494   6.476   2.398   0.442
 4184TIP3    H112495   6.512   2.314   0.471
 4184TIP3    H212496   6.394   2.374   0.399
 4185TIP3   OH212497   8.089   4.632   1.879
 4185TIP3    H112498   8.008   4.614   1.927
 4185TIP3    H212499   8.101   4.556   1.823
 4186TIP3   OH212500   8.272   3.681   0.047
 4186TIP3    H112501   8.242   3.590   0.052
 4186TIP3    H212502   8.250   3.717   0.133
 4187TIP3   OH212503   2.628   5.990   3.932
 4187TIP3    H112504   2.618   5.979   4.027
 4187TIP3    H212505   2.688   5.921   3.906
 4188TIP3   OH212506   4.807   4.726   3.713
 4188TIP3    H112507   4.880   4.665   3.712
 4188TIP3    H212508   4.776   4.728   3.622
 4189TIP3   OH212509   3.985   1.854   3.154
 4189TIP3    H112510   4.027   1.844   3.069
 4189TIP3    H212511   3.977   1.949   3.166
 4190TIP3   OH212512   2.961   7.484   1.292
 4190TIP3    H112513   3.005   7.553   1.244
 4190TIP3    H212514   2.954   7.517   1.381
 4191TIP3   OH212515   7.887   4.597   2.074
 4191TIP3    H112516   7.804   4.644   2.081
 4191TIP3    H212517   7.867   4.509   2.106
 4192TIP3   OH212518   3.875   3.747   1.268
 4192TIP3    H112519   3.879   3.751   1.172
 4192TIP3    H212520   3.869   3.654   1.288
 4193TIP3   OH212521   4.106   3.553   1.200
 4193TIP3    H112522   4.117   3.648   1.201
 4193TIP3    H212523   4.188   3.519   1.236
 4194TIP3   OH212524   4.651   3.821   0.126
 4194TIP3    H112525   4.571   3.800   0.078
 4194TIP3    H212526   4.671   3.911   0.102
 4195TIP3   OH212527   3.481   0.971   1.275
 4195TIP3    H112528   3.398   1.015   1.252
 4195TIP3    H212529   3.481   0.968   1.370
 4196TIP3   OH212530   8.028   0.239   0.377
 4196TIP3    H112531   7.937   0.213   0.391
 4196TIP3    H212532   8.065   0.245   0.465
 4197TIP3   OH212533   0.554   3.994   0.240
 4197TIP3    H112534   0.484   3.980   0.176
 4197TIP3    H212535   0.600   3.911   0.244
 4198TIP3   OH212536   3.029   5.495   3.336
 4198TIP3    H112537   3.085   5.550   3.391
 4198TIP3    H212538   3.015   5.416   3.388
 4199TIP3   OH212539   2.511   0.265   3.446
 4199TIP3    H112540   2.520   0.359   3.430
 4199TIP3    H212541   2.539   0.223   3.365
 4200TIP3   OH212542   1.344   3.648   5.540
 4200TIP3    H112543   1.251   3.644   5.516
 4200TIP3    H212544   1.373   3.557   5.539
 4201TIP3   OH212545   6.021   2.118   6.449
 4201TIP3    H112546   5.998   2.035   6.407
 4201TIP3    H212547   5.942   2.171   6.441
 4202TIP3   OH212548   1.475   1.247   0.876
 4202TIP3    H112549   1.391   1.290   0.895
 4202TIP3    H212550   1.451   1.171   0.823
 4203TIP3   OH212551   7.670   0.484   2.018
 4203TIP3    H112552   7.678   0.559   1.960
 4203TIP3    H212553   7.591   0.501   2.069
 4204TIP3   OH212554   0.116   2.030   2.192
 4204TIP3    H112555   0.165   1.956   2.227
 4204TIP3    H212556   0.181   2.083   2.147
 4205TIP3   OH212557   4.679   5.097   0.046
 4205TIP3    H112558   4.729   5.051   0.114
 4205TIP3    H212559   4.741   5.105  -0.027
 4206TIP3   OH212560   7.230   4.315   4.430
 4206TIP3    H112561   7.271   4.240   4.386
 4206TIP3    H212562   7.300   4.379   4.438
 4207TIP3   OH212563   0.952   5.742   1.155
 4207TIP3    H112564   0.980   5.741   1.064
 4207TIP3    H212565   0.975   5.655   1.189
 4208TIP3   OH212566   2.112   5.224   1.274
 4208TIP3    H112567   2.205   5.245   1.265
 4208TIP3    H212568   2.110   5.128   1.273
 4209TIP3   OH212569   7.033   1.861   6.093
 4209TIP3    H112570   6.956   1.910   6.065
 4209TIP3    H212571   7.046   1.796   6.024
 4210TIP3   OH212572   5.920   4.428   2.024
 4210TIP3    H112573   5.999   4.481   2.006
 4210TIP3    H212574   5.858   4.455   1.956
 4211TIP3   OH212575   0.402   4.867   5.969
 4211TIP3    H112576   0.479   4.855   6.025
 4211TIP3    H212577   0.360   4.946   6.003
 4212TIP3   OH212578   0.640   7.262   4.749
 4212TIP3    H112579   0.667   7.206   4.676
 4212TIP3    H212580   0.633   7.201   4.823
 4213TIP3   OH212581   5.217   7.674   0.820
 4213TIP3    H112582   5.266   7.607   0.772
 4213TIP3    H212583   5.160   7.714   0.755
 4214TIP3   OH212584   0.762   1.800   6.085
 4214TIP3    H112585   0.807   1.790   6.169
 4214TIP3    H212586   0.799   1.879   6.047
 4215TIP3   OH212587   7.781   1.746   0.703
 4215TIP3    H112588   7.872   1.775   0.712
 4215TIP3    H212589   7.756   1.716   0.790
 4216TIP3   OH212590   0.064   1.976   0.065
 4216TIP3    H112591   0.127   2.048   0.065
 4216TIP3    H212592   0.002   1.998  -0.004
 4217TIP3   OH212593   7.652   4.087   5.209
 4217TIP3    H112594   7.585   4.119   5.149
 4217TIP3    H212595   7.640   4.139   5.288
 4218TIP3   OH212596   5.647   4.765   3.360
 4218TIP3    H112597   5.697   4.770   3.442
 4218TIP3    H212598   5.637   4.857   3.333
 4219TIP3   OH212599   5.915   0.700   1.030
 4219TIP3    H112600   5.832   0.682   0.987
 4219TIP3    H212601   5.926   0.795   1.020
 4220TIP3   OH212602   3.344   2.388   6.364
 4220TIP3    H112603   3.306   2.476   6.368
 4220TIP3    H212604   3.288   2.335   6.421
 4221TIP3   OH212605   3.962   5.531   4.585
 4221TIP3    H112606   3.878   5.490   4.565
 4221TIP3    H212607   3.953   5.561   4.676
 4222TIP3   OH212608   1.044   7.705   5.674
 4222TIP3    H112609   1.135   7.730   5.686
 4222TIP3    H212610   1.019   7.744   5.591
 4223TIP3   OH212611   0.522   0.190   2.889
 4223TIP3    H112612   0.602   0.204   2.837
 4223TIP3    H212613   0.549   0.129   2.957
 4224TIP3   OH212614   3.864   5.238   5.586
 4224TIP3    H112615   3.785   5.212   5.634
 4224TIP3    H212616   3.928   5.170   5.607
 4225TIP3   OH212617   7.341   4.939   0.858
 4225TIP3    H112618   7.305   4.927   0.946
 4225TIP3    H212619   7.425   4.982   0.872
 4226TIP3   OH212620   1.690   3.823   6.194
 4226TIP3    H112621   1.599   3.841   6.219
 4226TIP3    H212622   1.739   3.900   6.224
 4227TIP3   OH212623   5.176   3.959   4.647
 4227TIP3    H112624   5.121   3.949   4.725
 4227TIP3    H212625   5.123   4.012   4.588
 4228TIP3   OH212626   0.004   0.688   3.169
 4228TIP3    H112627   0.068   0.697   3.099
 4228TIP3    H212628   0.004   0.773   3.212
 4229TIP3   OH212629   3.163   0.800   1.530
 4229TIP3    H112630   3.082   0.752   1.511
 4229TIP3    H212631   3.214   0.795   1.449
 4230TIP3   OH212632   5.620   2.657   4.992
 4230TIP3    H112633   5.571   2.627   4.915
 4230TIP3    H212634   5.664   2.578   5.024
 4231TIP3   OH212635   7.013   1.037   4.981
 4231TIP3    H112636   6.980   1.008   5.066
 4231TIP3    H212637   7.086   0.979   4.963
 4232TIP3   OH212638   0.832   1.317   2.795
 4232TIP3    H112639   0.818   1.395   2.742
 4232TIP3    H212640   0.861   1.251   2.732
 4233TIP3   OH212641   0.165   5.372   1.623
 4233TIP3    H112642   0.130   5.283   1.619
 4233TIP3    H212643   0.093   5.428   1.594
 4234TIP3   OH212644   0.908   0.050   6.692
 4234TIP3    H112645   0.864   0.012   6.616
 4234TIP3    H212646   0.967  -0.019   6.723
 4235TIP3   OH212647   5.012   2.989   4.674
 4235TIP3    H112648   5.007   2.921   4.742
 4235TIP3    H212649   4.940   3.048   4.694
 4236TIP3   OH212650   2.997   5.848   6.430
 4236TIP3    H112651   2.972   5.784   6.363
 4236TIP3    H212652   2.962   5.812   6.512
 4237TIP3   OH212653   6.270   1.749   4.341
 4237TIP3    H112654   6.205   1.811   4.376
 4237TIP3    H212655   6.272   1.768   4.247
 4238TIP3   OH212656   4.862   2.205   2.033
 4238TIP3    H112657   4.804   2.258   1.978
 4238TIP3    H212658   4.889   2.132   1.976
 4239TIP3   OH212659   5.737   0.146   6.194
 4239TIP3    H112660   5.694   0.132   6.279
 4239TIP3    H212661   5.702   0.230   6.163
 4240TIP3   OH212662   1.065   6.628   5.023
 4240TIP3    H112663   1.048   6.535   5.038
 4240TIP3    H212664   1.055   6.639   4.929
 4241TIP3   OH212665   6.132   4.571   5.803
 4241TIP3    H112666   6.225   4.548   5.813
 4241TIP3    H212667   6.087   4.511   5.863
 4242TIP3   OH212668   7.037   1.973   2.868
 4242TIP3    H112669   6.990   1.973   2.951
 4242TIP3    H212670   7.124   2.006   2.888
 4243TIP3   OH212671   2.175   3.052   0.711
 4243TIP3    H112672   2.128   3.028   0.632
 4243TIP3    H212673   2.199   3.144   0.698
 4244TIP3   OH212674   0.939   5.287   0.835
 4244TIP3    H112675   0.879   5.258   0.767
 4244TIP3    H212676   1.018   5.235   0.822
 4245TIP3   OH212677   7.848   7.688   3.521
 4245TIP3    H112678   7.755   7.671   3.538
 4245TIP3    H212679   7.876   7.614   3.468
 4246TIP3   OH212680   2.945   6.723   0.516
 4246TIP3    H112681   3.011   6.788   0.540
 4246TIP3    H212682   2.877   6.774   0.473
 4247TIP3   OH212683   6.957   0.930   2.441
 4247TIP3    H112684   6.960   0.888   2.355
 4247TIP3    H212685   7.047   0.928   2.472
 4248TIP3   OH212686   5.198   2.878   1.266
 4248TIP3    H112687   5.291   2.857   1.256
 4248TIP3    H212688   5.197   2.952   1.327
 4249TIP3   OH212689   6.989   5.750   6.191
 4249TIP3    H112690   7.038   5.821   6.232
 4249TIP3    H212691   6.920   5.795   6.141
 4250TIP3   OH212692   1.106   4.051   1.643
 4250TIP3    H112693   1.199   4.074   1.642
 4250TIP3    H212694   1.104   3.956   1.631
 4251TIP3   OH212695   0.888   3.456   6.062
 4251TIP3    H112696   0.866   3.422   5.975
 4251TIP3    H212697   0.812   3.434   6.116
 4252TIP3   OH212698   0.333   6.104   5.805
 4252TIP3    H112699   0.393   6.050   5.754
 4252TIP3    H212700   0.361   6.194   5.788
 4253TIP3   OH212701   4.465   3.201   2.713
 4253TIP3    H112702   4.466   3.282   2.764
 4253TIP3    H212703   4.557   3.184   2.693
 4254TIP3   OH212704   5.389   7.370   2.926
 4254TIP3    H112705   5.363   7.312   2.998
 4254TIP3    H212706   5.445   7.315   2.870
 4255TIP3   OH212707   7.167   6.459   6.054
 4255TIP3    H112708   7.166   6.490   5.964
 4255TIP3    H212709   7.260   6.455   6.077
 4256TIP3   OH212710   1.219   1.586   2.597
 4256TIP3    H112711   1.168   1.541   2.665
 4256TIP3    H212712   1.156   1.643   2.554
 4257TIP3   OH212713   5.252   0.190   2.761
 4257TIP3    H112714   5.189   0.221   2.827
 4257TIP3    H212715   5.210   0.112   2.723
 4258TIP3   OH212716   7.739   1.518   0.541
 4258TIP3    H112717   7.679   1.519   0.615
 4258TIP3    H212718   7.815   1.569   0.570
 4259TIP3   OH212719   4.706   4.763   5.585
 4259TIP3    H112720   4.611   4.765   5.601
 4259TIP3    H212721   4.725   4.672   5.563
 4260TIP3   OH212722   7.028   7.388   1.856
 4260TIP3    H112723   7.115   7.361   1.824
 4260TIP3    H212724   7.006   7.465   1.803
 4261TIP3   OH212725   0.524   5.891   1.376
 4261TIP3    H112726   0.595   5.945   1.342
 4261TIP3    H212727   0.565   5.832   1.438
 4262TIP3   OH212728   7.840   6.749   0.988
 4262TIP3    H112729   7.895   6.783   1.058
 4262TIP3    H212730   7.750   6.763   1.018
 4263TIP3   OH212731   7.656   5.762  -0.045
 4263TIP3    H112732   7.742   5.792  -0.015
 4263TIP3    H212733   7.598   5.836  -0.032
 4264TIP3   OH212734   4.102   3.341   0.190
 4264TIP3    H112735   4.090   3.365   0.282
 4264TIP3    H212736   4.019   3.298   0.166
 4265TIP3   OH212737   1.129   4.979   2.362
 4265TIP3    H112738   1.039   4.978   2.395
 4265TIP3    H212739   1.174   5.041   2.418
 4266TIP3   OH212740   1.528   3.520   4.362
 4266TIP3    H112741   1.614   3.560   4.372
 4266TIP3    H212742   1.467   3.589   4.389
 4267TIP3   OH212743   2.660   0.207   1.613
 4267TIP3    H112744   2.629   0.116   1.607
 4267TIP3    H212745   2.633   0.236   1.700
 4268TIP3   OH212746   4.965   2.184   3.922
 4268TIP3    H112747   5.004   2.133   3.993
 4268TIP3    H212748   4.983   2.275   3.946
 4269TIP3   OH212749   0.560   1.260   2.746
 4269TIP3    H112750   0.535   1.306   2.826
 4269TIP3    H212751   0.656   1.265   2.745
 4270TIP3   OH212752   2.317   4.527   4.090
 4270TIP3    H112753   2.284   4.538   4.179
 4270TIP3    H212754   2.409   4.501   4.101
 4271TIP3   OH212755   6.859   4.033   0.242
 4271TIP3    H112756   6.857   3.997   0.331
 4271TIP3    H212757   6.769   4.025   0.210
 4272TIP3   OH212758   5.277   5.029   2.230
 4272TIP3    H112759   5.236   4.948   2.260
 4272TIP3    H212760   5.204   5.090   2.219
 4273TIP3   OH212761   6.743   0.626   3.275
 4273TIP3    H112762   6.719   0.591   3.189
 4273TIP3    H212763   6.806   0.696   3.255
 4274TIP3   OH212764   4.620   5.292   5.360
 4274TIP3    H112765   4.568   5.339   5.296
 4274TIP3    H212766   4.577   5.309   5.444
 4275TIP3   OH212767   3.444   3.592   1.460
 4275TIP3    H112768   3.532   3.554   1.461
 4275TIP3    H212769   3.435   3.628   1.371
 4276TIP3   OH212770   2.094   3.161   5.543
 4276TIP3    H112771   2.109   3.252   5.570
 4276TIP3    H212772   2.068   3.167   5.451
 4277TIP3   OH212773   5.715   1.413   0.284
 4277TIP3    H112774   5.702   1.325   0.248
 4277TIP3    H212775   5.647   1.467   0.242
 4278TIP3   OH212776   1.478   7.260   0.969
 4278TIP3    H112777   1.390   7.236   0.942
 4278TIP3    H212778   1.467   7.344   1.014
 4279TIP3   OH212779   4.589   4.724   6.146
 4279TIP3    H112780   4.638   4.728   6.228
 4279TIP3    H212781   4.543   4.641   6.150
 4280TIP3   OH212782   7.702   4.567   4.543
 4280TIP3    H112783   7.792   4.537   4.553
 4280TIP3    H212784   7.703   4.620   4.463
 4281TIP3   OH212785   7.636   3.503   1.959
 4281TIP3    H112786   7.549   3.483   1.995
 4281TIP3    H212787   7.695   3.445   2.007
 4282TIP3   OH212788   6.278   1.311   0.201
 4282TIP3    H112789   6.312   1.399   0.217
 4282TIP3    H212790   6.265   1.274   0.288
 4283TIP3   OH212791  -0.020   6.684   0.998
 4283TIP3    H112792   0.006   6.640   0.917
 4283TIP3    H212793  -0.013   6.617   1.066
 4284TIP3   OH212794   1.343   6.950   4.771
 4284TIP3    H112795   1.428   6.943   4.813
 4284TIP3    H212796   1.361   6.940   4.677
 4285TIP3   OH212797   4.885   7.144   6.410
 4285TIP3    H112798   4.947   7.149   6.337
 4285TIP3    H212799   4.939   7.144   6.489
 4286TIP3   OH212800   6.265   3.652   1.272
 4286TIP3    H112801   6.349   3.697   1.260
 4286TIP3    H212802   6.216   3.670   1.192
 4287TIP3   OH212803   5.013   0.333   3.766
 4287TIP3    H112804   5.021   0.411   3.711
 4287TIP3    H212805   5.096   0.287   3.753
 4288TIP3   OH212806   3.634   1.643   6.570
 4288TIP3    H112807   3.687   1.720   6.591
 4288TIP3    H212808   3.662   1.619   6.481
 4289TIP3   OH212809   0.507   2.698   3.999
 4289TIP3    H112810   0.432   2.724   3.946
 4289TIP3    H212811   0.584   2.723   3.948
 4290TIP3   OH212812   6.840   1.099   2.218
 4290TIP3    H112813   6.765   1.156   2.202
 4290TIP3    H212814   6.822   1.057   2.303
 4291TIP3   OH212815   4.993   5.821   6.717
 4291TIP3    H112816   4.999   5.903   6.669
 4291TIP3    H212817   5.008   5.847   6.809
 4292TIP3   OH212818   1.580   2.457   5.186
 4292TIP3    H112819   1.530   2.387   5.144
 4292TIP3    H212820   1.639   2.490   5.118
 4293TIP3   OH212821   6.418   7.295   1.142
 4293TIP3    H112822   6.415   7.361   1.211
 4293TIP3    H212823   6.511   7.281   1.126
 4294TIP3   OH212824   1.077   1.946   0.359
 4294TIP3    H112825   1.079   1.942   0.264
 4294TIP3    H212826   1.014   1.879   0.384
 4295TIP3   OH212827   3.731   5.814   1.657
 4295TIP3    H112828   3.824   5.795   1.649
 4295TIP3    H212829   3.699   5.819   1.567
 4296TIP3   OH212830   6.273   7.035   1.111
 4296TIP3    H112831   6.320   7.117   1.128
 4296TIP3    H212832   6.185   7.051   1.147
 4297TIP3   OH212833   1.057   2.748   2.963
 4297TIP3    H112834   1.100   2.750   3.049
 4297TIP3    H212835   0.996   2.674   2.969
 4298TIP3   OH212836   5.183   7.720   2.750
 4298TIP3    H112837   5.173   7.781   2.823
 4298TIP3    H212838   5.262   7.751   2.704
 4299TIP3   OH212839   6.445   0.177   2.982
 4299TIP3    H112840   6.458   0.268   2.957
 4299TIP3    H212841   6.386   0.142   2.916
 4300TIP3   OH212842   3.612   3.620   6.528
 4300TIP3    H112843   3.532   3.591   6.484
 4300TIP3    H212844   3.660   3.540   6.547
 4301TIP3   OH212845   0.956   2.389   5.094
 4301TIP3    H112846   0.998   2.360   5.013
 4301TIP3    H212847   0.970   2.484   5.096
 4302TIP3   OH212848   6.937   4.211   6.390
 4302TIP3    H112849   6.982   4.165   6.460
 4302TIP3    H212850   6.886   4.143   6.345
 4303TIP3   OH212851   5.811   6.691   0.143
 4303TIP3    H112852   5.794   6.717   0.233
 4303TIP3    H212853   5.724   6.686   0.102
 4304TIP3   OH212854   4.740   4.262   4.876
 4304TIP3    H112855   4.834   4.247   4.887
 4304TIP3    H212856   4.699   4.200   4.936
 4305TIP3   OH212857   4.866   1.276   6.031
 4305TIP3    H112858   4.896   1.305   5.944
 4305TIP3    H212859   4.854   1.182   6.022
 4306TIP3   OH212860   2.500   4.634   3.228
 4306TIP3    H112861   2.465   4.717   3.194
 4306TIP3    H212862   2.497   4.574   3.154
 4307TIP3   OH212863   0.340   1.197   0.535
 4307TIP3    H112864   0.268   1.157   0.486
 4307TIP3    H212865   0.351   1.283   0.495
 4308TIP3   OH212866   5.771   5.582   0.381
 4308TIP3    H112867   5.848   5.634   0.403
 4308TIP3    H212868   5.723   5.574   0.463
 4309TIP3   OH212869   3.759   1.313   4.310
 4309TIP3    H112870   3.800   1.279   4.231
 4309TIP3    H212871   3.697   1.379   4.279
 4310TIP3   OH212872   3.511   3.098   3.843
 4310TIP3    H112873   3.532   3.176   3.895
 4310TIP3    H212874   3.416   3.090   3.850
 4311TIP3   OH212875   4.260   6.669   0.438
 4311TIP3    H112876   4.341   6.621   0.452
 4311TIP3    H212877   4.235   6.701   0.525
 4312TIP3   OH212878   2.007   1.584   1.992
 4312TIP3    H112879   1.991   1.517   1.925
 4312TIP3    H212880   1.960   1.552   2.069
 4313TIP3   OH212881   2.804   5.654   3.554
 4313TIP3    H112882   2.875   5.600   3.590
 4313TIP3    H212883   2.842   5.696   3.477
 4314TIP3   OH212884   1.597   5.932   4.221
 4314TIP3    H112885   1.688   5.935   4.194
 4314TIP3    H212886   1.582   6.013   4.269
 4315TIP3   OH212887   6.830   5.824   3.553
 4315TIP3    H112888   6.888   5.896   3.529
 4315TIP3    H212889   6.787   5.853   3.633
 4316TIP3   OH212890   3.920   1.651   3.573
 4316TIP3    H112891   3.970   1.730   3.593
 4316TIP3    H212892   3.963   1.614   3.496
 4317TIP3   OH212893   3.521   2.921   0.611
 4317TIP3    H112894   3.527   3.014   0.631
 4317TIP3    H212895   3.433   2.910   0.574
 4318TIP3   OH212896   0.738   2.325   3.361
 4318TIP3    H112897   0.697   2.257   3.415
 4318TIP3    H212898   0.790   2.276   3.297
 4319TIP3   OH212899   3.793   4.617   6.158
 4319TIP3    H112900   3.816   4.650   6.072
 4319TIP3    H212901   3.877   4.601   6.201
 4320TIP3   OH212902   7.028   6.955   6.030
 4320TIP3    H112903   6.975   6.934   6.107
 4320TIP3    H212904   6.963   6.971   5.961
 4321TIP3   OH212905   7.948   5.545   5.332
 4321TIP3    H112906   7.935   5.516   5.242
 4321TIP3    H212907   7.859   5.561   5.365
 4322TIP3   OH212908   2.128   1.263   0.402
 4322TIP3    H112909   2.148   1.194   0.466
 4322TIP3    H212910   2.211   1.280   0.358
 4323TIP3   OH212911   2.091   5.542   5.647
 4323TIP3    H112912   2.133   5.626   5.667
 4323TIP3    H212913   2.099   5.492   5.728
 4324TIP3   OH212914   4.477   5.329   4.948
 4324TIP3    H112915   4.445   5.386   4.879
 4324TIP3    H212916   4.480   5.242   4.908
 4325TIP3   OH212917   2.061   4.580   2.446
 4325TIP3    H112918   1.997   4.647   2.468
 4325TIP3    H212919   2.115   4.619   2.377
 4326TIP3   OH212920   3.650   0.818   3.253
 4326TIP3    H112921   3.668   0.910   3.236
 4326TIP3    H212922   3.656   0.775   3.167
 4327TIP3   OH212923   6.524   7.281   4.779
 4327TIP3    H112924   6.578   7.283   4.858
 4327TIP3    H212925   6.545   7.197   4.738
 4328TIP3   OH212926   0.315   2.781   4.965
 4328TIP3    H112927   0.355   2.742   5.043
 4328TIP3    H212928   0.233   2.734   4.954
 4329TIP3   OH212929   4.482   4.109   1.922
 4329TIP3    H112930   4.542   4.156   1.980
 4329TIP3    H212931   4.411   4.080   1.978
 4330TIP3   OH212932   0.045   5.945   6.325
 4330TIP3    H112933   0.094   5.896   6.259
 4330TIP3    H212934  -0.026   5.987   6.276
 4331TIP3   OH212935   4.602   4.153   6.631
 4331TIP3    H112936   4.695   4.175   6.633
 4331TIP3    H212937   4.558   4.236   6.649
 4332TIP3   OH212938   2.358   3.357   0.887
 4332TIP3    H112939   2.358   3.449   0.913
 4332TIP3    H212940   2.278   3.346   0.836
 4333TIP3   OH212941   7.031   6.004   3.582
 4333TIP3    H112942   7.080   5.989   3.501
 4333TIP3    H212943   7.009   6.097   3.579
 4334TIP3   OH212944   3.247   6.917   2.372
 4334TIP3    H112945   3.237   6.952   2.461
 4334TIP3    H212946   3.321   6.857   2.378
 4335TIP3   OH212947   3.352   1.421   4.562
 4335TIP3    H112948   3.298   1.356   4.518
 4335TIP3    H212949   3.295   1.498   4.570
 4336TIP3   OH212950   4.373   6.167   5.541
 4336TIP3    H112951   4.399   6.259   5.536
 4336TIP3    H212952   4.290   6.168   5.589
 4337TIP3   OH212953   5.269   0.939   2.360
 4337TIP3    H112954   5.231   0.956   2.446
 4337TIP3    H212955   5.223   1.000   2.301
 4338TIP3   OH212956   8.016   4.763   4.297
 4338TIP3    H112957   8.020   4.803   4.384
 4338TIP3    H212958   8.105   4.770   4.263
 4339TIP3   OH212959   3.481   0.564   1.958
 4339TIP3    H112960   3.555   0.526   2.005
 4339TIP3    H212961   3.461   0.645   2.006
 4340TIP3   OH212962   6.088   7.637   2.512
 4340TIP3    H112963   6.107   7.729   2.494
 4340TIP3    H212964   6.163   7.606   2.563
 4341TIP3   OH212965   4.961   4.677   2.462
 4341TIP3    H112966   4.914   4.603   2.423
 4341TIP3    H212967   5.043   4.681   2.414
 4342TIP3   OH212968   2.831   5.514   2.304
 4342TIP3    H112969   2.835   5.554   2.216
 4342TIP3    H212970   2.815   5.588   2.363
 4343TIP3   OH212971   2.713   2.435   3.222
 4343TIP3    H112972   2.676   2.347   3.230
 4343TIP3    H212973   2.764   2.433   3.142
 4344TIP3   OH212974   3.939   3.798   5.017
 4344TIP3    H112975   3.973   3.865   5.077
 4344TIP3    H212976   3.844   3.803   5.029
 4345TIP3   OH212977   3.990   4.837   6.042
 4345TIP3    H112978   3.915   4.871   5.993
 4345TIP3    H212979   3.989   4.884   6.125
 4346TIP3   OH212980   5.855   1.620  -0.091
 4346TIP3    H112981   5.937   1.571  -0.092
 4346TIP3    H212982   5.790   1.556  -0.059
 4347TIP3   OH212983   0.215   7.262   2.040
 4347TIP3    H112984   0.257   7.315   2.108
 4347TIP3    H212985   0.158   7.203   2.088
 4348TIP3   OH212986   6.666   3.553   5.317
 4348TIP3    H112987   6.662   3.498   5.239
 4348TIP3    H212988   6.749   3.529   5.359
 4349TIP3   OH212989   4.569   6.206   5.316
 4349TIP3    H112990   4.513   6.264   5.368
 4349TIP3    H212991   4.526   6.121   5.321
 4350TIP3   OH212992   6.465   1.181   0.738
 4350TIP3    H112993   6.414   1.103   0.760
 4350TIP3    H212994   6.444   1.244   0.807
 4351TIP3   OH212995   1.245   7.409   6.213
 4351TIP3    H112996   1.311   7.376   6.152
 4351TIP3    H212997   1.258   7.504   6.213
 4352TIP3   OH212998   7.727   1.037   2.022
 4352TIP3    H112999   7.805   0.999   2.063
 4352TIP3    H213000   7.759   1.076   1.941
 4353TIP3   OH213001   5.213   2.119   6.292
 4353TIP3    H113002   5.207   2.032   6.332
 4353TIP3    H213003   5.155   2.114   6.216
 4354TIP3   OH213004   0.794   7.267   2.330
 4354TIP3    H113005   0.877   7.268   2.283
 4354TIP3    H213006   0.731   7.231   2.267
 4355TIP3   OH213007   3.681   5.005   5.186
 4355TIP3    H113008   3.717   5.053   5.111
 4355TIP3    H213009   3.750   4.944   5.211
 4356TIP3   OH213010   5.695   2.500   3.339
 4356TIP3    H113011   5.689   2.596   3.330
 4356TIP3    H213012   5.750   2.473   3.266
 4357TIP3   OH213013   1.163   1.963   2.323
 4357TIP3    H113014   1.121   2.017   2.390
 4357TIP3    H213015   1.226   1.910   2.371
 4358TIP3   OH213016   7.997   6.616   0.795
 4358TIP3    H113017   8.046   6.574   0.866
 4358TIP3    H213018   7.948   6.686   0.837
 4359TIP3   OH213019   4.259   6.519   2.915
 4359TIP3    H113020   4.237   6.426   2.907
 4359TIP3    H213021   4.188   6.557   2.966
 4360TIP3   OH213022   4.398   3.425   1.822
 4360TIP3    H113023   4.346   3.471   1.887
 4360TIP3    H213024   4.335   3.377   1.769
 4361TIP3   OH213025   0.827   6.248   2.774
 4361TIP3    H113026   0.906   6.197   2.759
 4361TIP3    H213027   0.857   6.339   2.778
 4362TIP3   OH213028   3.973   6.289   5.872
 4362TIP3    H113029   3.890   6.265   5.913
 4362TIP3    H213030   4.026   6.209   5.878
 4363TIP3   OH213031   4.543   0.936   6.052
 4363TIP3    H113032   4.563   0.847   6.023
 4363TIP3    H213033   4.550   0.989   5.973
 4364TIP3   OH213034   8.175   0.319   4.272
 4364TIP3    H113035   8.263   0.282   4.270
 4364TIP3    H213036   8.157   0.345   4.181
 4365TIP3   OH213037   5.736   7.552   4.728
 4365TIP3    H113038   5.669   7.619   4.715
 4365TIP3    H213039   5.717   7.486   4.661
 4366TIP3   OH213040   7.122   4.256   0.755
 4366TIP3    H113041   7.182   4.256   0.830
 4366TIP3    H213042   7.122   4.165   0.724
 4367TIP3   OH213043   3.150   0.539   0.805
 4367TIP3    H113044   3.172   0.607   0.869
 4367TIP3    H213045   3.179   0.576   0.721
 4368TIP3   OH213046   7.443   2.891   5.810
 4368TIP3    H113047   7.434   2.981   5.780
 4368TIP3    H213048   7.512   2.853   5.755
 4369TIP3   OH213049   6.557   1.155   0.473
 4369TIP3    H113050   6.547   1.171   0.567
 4369TIP3    H213051   6.496   1.215   0.431
 4370TIP3   OH213052   5.544   2.460   4.785
 4370TIP3    H113053   5.554   2.395   4.716
 4370TIP3    H213054   5.483   2.419   4.847
 4371TIP3   OH213055   6.092   4.315   3.477
 4371TIP3    H113056   6.080   4.410   3.484
 4371TIP3    H213057   6.185   4.304   3.454
 4372TIP3   OH213058   3.992   2.101   5.022
 4372TIP3    H113059   4.050   2.061   5.086
 4372TIP3    H213060   3.922   2.140   5.074
 4373TIP3   OH213061   0.770   3.527   3.915
 4373TIP3    H113062   0.766   3.521   4.011
 4373TIP3    H213063   0.837   3.593   3.898
 4374TIP3   OH213064   0.312   2.762   3.000
 4374TIP3    H113065   0.406   2.746   3.004
 4374TIP3    H213066   0.276   2.718   3.077
 4375TIP3   OH213067   5.938   1.509   6.431
 4375TIP3    H113068   5.933   1.578   6.497
 4375TIP3    H213069   5.978   1.435   6.476
 4376TIP3   OH213070   0.468   6.404   4.728
 4376TIP3    H113071   0.409   6.400   4.653
 4376TIP3    H213072   0.482   6.497   4.743
 4377TIP3   OH213073   1.523   0.766   2.627
 4377TIP3    H113074   1.537   0.762   2.721
 4377TIP3    H213075   1.559   0.851   2.601
 4378TIP3   OH213076   4.684   0.473   0.746
 4378TIP3    H113077   4.616   0.440   0.805
 4378TIP3    H213078   4.639   0.533   0.687
 4379TIP3   OH213079   5.049   6.089   2.598
 4379TIP3    H113080   5.019   6.048   2.517
 4379TIP3    H213081   5.076   6.177   2.572
 4380TIP3   OH213082   2.847   2.207   5.725
 4380TIP3    H113083   2.935   2.185   5.694
 4380TIP3    H213084   2.830   2.295   5.689
 4381TIP3   OH213085   4.163   2.004   1.158
 4381TIP3    H113086   4.132   1.948   1.087
 4381TIP3    H213087   4.221   1.947   1.209
 4382TIP3   OH213088   5.706   3.453   3.005
 4382TIP3    H113089   5.685   3.378   3.060
 4382TIP3    H213090   5.629   3.510   3.011
 4383TIP3   OH213091   8.164   7.086   1.618
 4383TIP3    H113092   8.109   7.033   1.675
 4383TIP3    H213093   8.194   7.158   1.674
 4384TIP3   OH213094   7.910   1.578   4.433
 4384TIP3    H113095   7.867   1.571   4.348
 4384TIP3    H213096   7.974   1.507   4.434
 4385TIP3   OH213097   8.236   2.072   4.275
 4385TIP3    H113098   8.184   2.012   4.328
 4385TIP3    H213099   8.261   2.142   4.336
 4386TIP3   OH213100   2.069   2.246   4.243
 4386TIP3    H113101   2.158   2.216   4.264
 4386TIP3    H213102   2.078   2.291   4.159
 4387TIP3   OH213103   2.652   6.889   6.185
 4387TIP3    H113104   2.596   6.957   6.148
 4387TIP3    H213105   2.629   6.810   6.136
 4388TIP3   OH213106   0.915   0.378   4.975
 4388TIP3    H113107   0.954   0.292   4.959
 4388TIP3    H213108   0.984   0.440   4.952
 4389TIP3   OH213109   4.999   5.133   2.127
 4389TIP3    H113110   4.914   5.175   2.137
 4389TIP3    H213111   4.983   5.040   2.143
 4390TIP3   OH213112   1.540   3.384   4.599
 4390TIP3    H113113   1.562   3.413   4.510
 4390TIP3    H213114   1.567   3.457   4.655
 4391TIP3   OH213115   1.264   5.050   4.658
 4391TIP3    H113116   1.170   5.049   4.641
 4391TIP3    H213117   1.282   5.140   4.687
 4392TIP3   OH213118   4.003   1.597   0.205
 4392TIP3    H113119   4.089   1.639   0.196
 4392TIP3    H213120   4.021   1.515   0.251
 4393TIP3   OH213121   7.995   5.034   2.511
 4393TIP3    H113122   8.030   5.049   2.423
 4393TIP3    H213123   7.902   5.016   2.497
 4394TIP3   OH213124   1.992   5.642   4.165
 4394TIP3    H113125   2.044   5.568   4.134
 4394TIP3    H213126   2.023   5.717   4.115
 4395TIP3   OH213127   7.395   5.719   1.226
 4395TIP3    H113128   7.301   5.709   1.242
 4395TIP3    H213129   7.412   5.812   1.237
 4396TIP3   OH213130   2.951   4.800   3.825
 4396TIP3    H113131   2.930   4.816   3.733
 4396TIP3    H213132   3.046   4.806   3.830
 4397TIP3   OH213133   4.788   5.830   5.982
 4397TIP3    H113134   4.781   5.778   5.902
 4397TIP3    H213135   4.808   5.766   6.050
 4398TIP3   OH213136   3.717   6.694   6.714
 4398TIP3    H113137   3.792   6.753   6.720
 4398TIP3    H213138   3.717   6.648   6.798
 4399TIP3   OH213139   4.184   4.979   4.732
 4399TIP3    H113140   4.102   4.988   4.683
 4399TIP3    H213141   4.247   5.029   4.680
 4400TIP3   OH213142   1.384   7.387   4.071
 4400TIP3    H113143   1.390   7.420   4.160
 4400TIP3    H213144   1.458   7.427   4.025
 4401TIP3   OH213145   7.055   1.285   4.136
 4401TIP3    H113146   7.018   1.373   4.129
 4401TIP3    H213147   6.987   1.228   4.101
 4402TIP3   OH213148   2.171   3.411   3.870
 4402TIP3    H113149   2.234   3.342   3.888
 4402TIP3    H213150   2.127   3.426   3.954
 4403TIP3   OH213151   7.406   6.701   3.831
 4403TIP3    H113152   7.437   6.791   3.818
 4403TIP3    H213153   7.485   6.651   3.848
 4404TIP3   OH213154  -0.020   6.392   2.338
 4404TIP3    H113155  -0.105   6.431   2.354
 4404TIP3    H213156  -0.032   6.299   2.359
 4405TIP3   OH213157   1.352   2.404   5.420
 4405TIP3    H113158   1.367   2.349   5.344
 4405TIP3    H213159   1.373   2.493   5.390
 4406TIP3   OH213160   6.560   4.218   3.086
 4406TIP3    H113161   6.573   4.123   3.084
 4406TIP3    H213162   6.641   4.254   3.050
 4407TIP3   OH213163   7.984   2.147   5.953
 4407TIP3    H113164   8.015   2.228   5.913
 4407TIP3    H213165   7.907   2.173   6.003
 4408TIP3   OH213166   4.275   4.402   2.306
 4408TIP3    H113167   4.232   4.353   2.237
 4408TIP3    H213168   4.244   4.362   2.388
 4409TIP3   OH213169   4.856   3.291   1.596
 4409TIP3    H113170   4.902   3.253   1.672
 4409TIP3    H213171   4.778   3.331   1.633
 4410TIP3   OH213172   2.445   3.570   3.780
 4410TIP3    H113173   2.461   3.476   3.788
 4410TIP3    H213174   2.494   3.609   3.852
 4411TIP3   OH213175   2.272   6.378   5.585
 4411TIP3    H113176   2.177   6.370   5.571
 4411TIP3    H213177   2.302   6.289   5.603
 4412TIP3   OH213178   6.580   6.419   4.849
 4412TIP3    H113179   6.568   6.511   4.873
 4412TIP3    H213180   6.566   6.417   4.755
 4413TIP3   OH213181   7.001   0.176   3.221
 4413TIP3    H113182   7.011   0.107   3.287
 4413TIP3    H213183   7.013   0.258   3.270
 4414TIP3   OH213184   6.799   3.865   1.242
 4414TIP3    H113185   6.744   3.933   1.280
 4414TIP3    H213186   6.761   3.849   1.155
 4415TIP3   OH213187   4.146   3.236   6.518
 4415TIP3    H113188   4.103   3.254   6.434
 4415TIP3    H213189   4.076   3.242   6.583
 4416TIP3   OH213190   4.982   6.746   6.797
 4416TIP3    H113191   4.967   6.790   6.713
 4416TIP3    H213192   5.077   6.738   6.802
 4417TIP3   OH213193   0.632   7.158   2.148
 4417TIP3    H113194   0.626   7.075   2.100
 4417TIP3    H213195   0.547   7.167   2.191
 4418TIP3   OH213196   1.320   5.026   1.586
 4418TIP3    H113197   1.363   5.110   1.570
 4418TIP3    H213198   1.235   5.034   1.544
 4419TIP3   OH213199   2.436   6.532   6.181
 4419TIP3    H113200   2.462   6.547   6.090
 4419TIP3    H213201   2.407   6.617   6.212
 4420TIP3   OH213202   6.417   7.081   5.463
 4420TIP3    H113203   6.423   7.116   5.374
 4420TIP3    H213204   6.348   7.133   5.505
 4421TIP3   OH213205   1.304   4.384   0.420
 4421TIP3    H113206   1.314   4.292   0.444
 4421TIP3    H213207   1.231   4.384   0.358
 4422TIP3   OH213208   2.378   0.090   3.859
 4422TIP3    H113209   2.300   0.054   3.903
 4422TIP3    H213210   2.405   0.020   3.800
 4423TIP3   OH213211   0.228   1.162   3.570
 4423TIP3    H113212   0.147   1.120   3.600
 4423TIP3    H213213   0.293   1.135   3.634
 4424TIP3   OH213214   2.282   4.148   4.143
 4424TIP3    H113215   2.351   4.084   4.128
 4424TIP3    H213216   2.237   4.155   4.058
 4425TIP3   OH213217   5.484   1.579   5.589
 4425TIP3    H113218   5.486   1.503   5.532
 4425TIP3    H213219   5.540   1.643   5.545
 4426TIP3   OH213220   0.359   4.632   1.073
 4426TIP3    H113221   0.395   4.718   1.096
 4426TIP3    H213222   0.334   4.641   0.981
 4427TIP3   OH213223   6.020   7.835   1.348
 4427TIP3    H113224   5.999   7.745   1.323
 4427TIP3    H213225   6.000   7.840   1.441
 4428TIP3   OH213226   3.080   4.701   4.374
 4428TIP3    H113227   3.081   4.756   4.453
 4428TIP3    H213228   3.012   4.741   4.319
 4429TIP3   OH213229   2.217   4.574   0.263
 4429TIP3    H113230   2.201   4.615   0.348
 4429TIP3    H213231   2.245   4.485   0.283
 4430TIP3   OH213232   2.322   7.282   4.408
 4430TIP3    H113233   2.315   7.356   4.348
 4430TIP3    H213234   2.416   7.267   4.418
 4431TIP3   OH213235   1.029   7.103   5.696
 4431TIP3    H113236   1.034   7.155   5.776
 4431TIP3    H213237   0.945   7.057   5.703
 4432TIP3   OH213238   6.826   7.152   4.360
 4432TIP3    H113239   6.920   7.142   4.378
 4432TIP3    H213240   6.783   7.095   4.423
 4433TIP3   OH213241   1.295   2.153   6.262
 4433TIP3    H113242   1.344   2.072   6.273
 4433TIP3    H213243   1.300   2.172   6.168
 4434TIP3   OH213244   3.586   0.454   5.725
 4434TIP3    H113245   3.583   0.418   5.637
 4434TIP3    H213246   3.654   0.403   5.769
 4435TIP3   OH213247   4.316   1.227   0.429
 4435TIP3    H113248   4.405   1.214   0.462
 4435TIP3    H213249   4.297   1.147   0.380
 4436TIP3   OH213250   2.837   2.875   0.505
 4436TIP3    H113251   2.774   2.813   0.468
 4436TIP3    H213252   2.910   2.821   0.536
 4437TIP3   OH213253   3.623   5.050   0.369
 4437TIP3    H113254   3.600   5.118   0.306
 4437TIP3    H213255   3.562   5.062   0.441
 4438TIP3   OH213256   7.511   6.270   4.031
 4438TIP3    H113257   7.419   6.294   4.035
 4438TIP3    H213258   7.545   6.289   4.118
 4439TIP3   OH213259   4.040   1.267   5.780
 4439TIP3    H113260   3.976   1.316   5.832
 4439TIP3    H213261   4.095   1.334   5.740
 4440TIP3   OH213262   3.058   1.335   5.964
 4440TIP3    H113263   3.106   1.407   5.924
 4440TIP3    H213264   3.004   1.300   5.894
 4441TIP3   OH213265   1.773   0.003   2.126
 4441TIP3    H113266   1.839  -0.066   2.128
 4441TIP3    H213267   1.740   0.003   2.036
 4442TIP3   OH213268   4.159   0.675   0.207
 4442TIP3    H113269   4.066   0.679   0.184
 4442TIP3    H213270   4.161   0.695   0.301
 4443TIP3   OH213271   3.527   6.562   3.426
 4443TIP3    H113272   3.617   6.544   3.397
 4443TIP3    H213273   3.488   6.612   3.355
 4444TIP3   OH213274   2.340   1.678   3.391
 4444TIP3    H113275   2.356   1.693   3.298
 4444TIP3    H213276   2.296   1.593   3.395
 4445TIP3   OH213277   7.546   2.685   2.970
 4445TIP3    H113278   7.599   2.744   3.023
 4445TIP3    H213279   7.594   2.603   2.969
 4446TIP3   OH213280   5.036   4.435   2.839
 4446TIP3    H113281   5.089   4.513   2.855
 4446TIP3    H213282   4.965   4.465   2.783
 4447TIP3   OH213283   1.999   2.304   0.062
 4447TIP3    H113284   1.998   2.238  -0.007
 4447TIP3    H213285   2.066   2.367   0.034
 4448TIP3   OH213286   3.509   5.430   4.293
 4448TIP3    H113287   3.542   5.510   4.335
 4448TIP3    H213288   3.564   5.419   4.216
 4449TIP3   OH213289   7.975   5.969   5.877
 4449TIP3    H113290   7.881   5.957   5.879
 4449TIP3    H213291   8.012   5.882   5.890
 4450TIP3   OH213292   3.649   0.483   3.701
 4450TIP3    H113293   3.692   0.516   3.622
 4450TIP3    H213294   3.658   0.388   3.694
 4451TIP3   OH213295   5.379   6.326   1.935
 4451TIP3    H113296   5.456   6.272   1.954
 4451TIP3    H213297   5.363   6.312   1.842
 4452TIP3   OH213298   1.181   4.881   6.073
 4452TIP3    H113299   1.136   4.960   6.106
 4452TIP3    H213300   1.165   4.815   6.141
 4453TIP3   OH213301   0.633   5.336   3.596
 4453TIP3    H113302   0.642   5.279   3.672
 4453TIP3    H213303   0.585   5.283   3.532
 4454TIP3   OH213304   5.502   2.236   5.574
 4454TIP3    H113305   5.565   2.288   5.624
 4454TIP3    H213306   5.423   2.290   5.573
 4455TIP3   OH213307   0.688   2.043   0.477
 4455TIP3    H113308   0.667   2.005   0.562
 4455TIP3    H213309   0.657   1.978   0.413
 4456TIP3   OH213310   4.917   3.293   4.982
 4456TIP3    H113311   4.972   3.238   5.037
 4456TIP3    H213312   4.842   3.316   5.037
 4457TIP3   OH213313   2.841   5.922   5.076
 4457TIP3    H113314   2.867   5.845   5.128
 4457TIP3    H213315   2.749   5.906   5.054
 4458TIP3   OH213316   6.882   7.247   4.660
 4458TIP3    H113317   6.963   7.199   4.640
 4458TIP3    H213318   6.814   7.180   4.659
 4459TIP3   OH213319   7.099   7.501   4.458
 4459TIP3    H113320   7.011   7.466   4.440
 4459TIP3    H213321   7.146   7.428   4.499
 4460TIP3   OH213322   3.214   6.128   2.638
 4460TIP3    H113323   3.246   6.192   2.575
 4460TIP3    H213324   3.230   6.167   2.723
 4461TIP3   OH213325   1.024   3.458   3.394
 4461TIP3    H113326   0.979   3.522   3.340
 4461TIP3    H213327   1.043   3.385   3.335
 4462TIP3   OH213328   6.042   7.522   0.712
 4462TIP3    H113329   6.082   7.559   0.633
 4462TIP3    H213330   6.055   7.428   0.704
 4463TIP3   OH213331   6.454   2.671   3.594
 4463TIP3    H113332   6.391   2.604   3.618
 4463TIP3    H213333   6.409   2.723   3.527
 4464TIP3   OH213334   1.765   1.943   0.042
 4464TIP3    H113335   1.778   1.964  -0.050
 4464TIP3    H213336   1.696   1.878   0.043
 4465TIP3   OH213337   2.710   3.209   0.033
 4465TIP3    H113338   2.788   3.167   0.070
 4465TIP3    H213339   2.734   3.302   0.028
 4466TIP3   OH213340  -0.019   0.617   4.424
 4466TIP3    H113341   0.069   0.655   4.413
 4466TIP3    H213342  -0.015   0.534   4.378
 4467TIP3   OH213343   2.286   2.235   5.928
 4467TIP3    H113344   2.219   2.207   5.990
 4467TIP3    H213345   2.363   2.252   5.981
 4468TIP3   OH213346   6.443   0.807   1.939
 4468TIP3    H113347   6.373   0.744   1.920
 4468TIP3    H213348   6.509   0.790   1.872
 4469TIP3   OH213349   0.602   2.541   3.648
 4469TIP3    H113350   0.634   2.626   3.677
 4469TIP3    H213351   0.507   2.552   3.644
 4470TIP3   OH213352   7.853   5.922   1.573
 4470TIP3    H113353   7.889   6.011   1.583
 4470TIP3    H213354   7.910   5.880   1.508
 4471TIP3   OH213355   7.446   2.382   3.378
 4471TIP3    H113356   7.432   2.364   3.285
 4471TIP3    H213357   7.419   2.473   3.389
 4472TIP3   OH213358   7.339   7.704   5.617
 4472TIP3    H113359   7.315   7.796   5.607
 4472TIP3    H213360   7.298   7.678   5.699
 4473TIP3   OH213361   1.087   6.513   1.339
 4473TIP3    H113362   1.122   6.427   1.314
 4473TIP3    H213363   1.010   6.525   1.284
 4474TIP3   OH213364   7.062   1.512   5.521
 4474TIP3    H113365   7.050   1.495   5.615
 4474TIP3    H213366   7.079   1.606   5.516
 4475TIP3   OH213367   2.590   1.219   4.834
 4475TIP3    H113368   2.511   1.168   4.814
 4475TIP3    H213369   2.639   1.164   4.894
 4476TIP3   OH213370   1.464   5.408   6.669
 4476TIP3    H113371   1.467   5.389   6.576
 4476TIP3    H213372   1.524   5.344   6.708
 4477TIP3   OH213373   3.036   5.059   1.578
 4477TIP3    H113374   3.004   5.057   1.668
 4477TIP3    H213375   3.131   5.064   1.586
 4478TIP3   OH213376   7.236   4.591   2.713
 4478TIP3    H113377   7.237   4.628   2.801
 4478TIP3    H213378   7.303   4.639   2.665
 4479TIP3   OH213379   5.487   6.941   2.146
 4479TIP3    H113380   5.410   6.991   2.172
 4479TIP3    H213381   5.526   6.993   2.076
 4480TIP3   OH213382   8.233   7.585   2.480
 4480TIP3    H113383   8.245   7.669   2.524
 4480TIP3    H213384   8.158   7.545   2.524
 4481TIP3   OH213385   5.614   5.273   2.264
 4481TIP3    H113386   5.604   5.177   2.267
 4481TIP3    H213387   5.708   5.287   2.271
 4482TIP3   OH213388   3.645   6.679   4.032
 4482TIP3    H113389   3.558   6.707   4.003
 4482TIP3    H213390   3.695   6.671   3.951
 4483TIP3   OH213391   5.397   2.648   3.360
 4483TIP3    H113392   5.465   2.658   3.294
 4483TIP3    H213393   5.408   2.725   3.417
 4484TIP3   OH213394   4.104   2.654   1.646
 4484TIP3    H113395   4.138   2.586   1.705
 4484TIP3    H213396   4.179   2.681   1.594
 4485TIP3   OH213397   5.705   2.299   5.791
 4485TIP3    H113398   5.714   2.382   5.836
 4485TIP3    H213399   5.654   2.244   5.851
 4486TIP3   OH213400   0.212   3.481   0.440
 4486TIP3    H113401   0.181   3.568   0.468
 4486TIP3    H213402   0.308   3.487   0.448
 4487TIP3   OH213403   2.743   2.111   0.778
 4487TIP3    H113404   2.693   2.083   0.855
 4487TIP3    H213405   2.819   2.053   0.776
 4488TIP3   OH213406   2.353   5.973   4.224
 4488TIP3    H113407   2.378   6.062   4.201
 4488TIP3    H213408   2.399   5.955   4.306
 4489TIP3   OH213409   5.049   5.980   4.208
 4489TIP3    H113410   5.118   5.925   4.172
 4489TIP3    H213411   4.995   5.920   4.260
 4490TIP3   OH213412   1.700   5.254   2.751
 4490TIP3    H113413   1.649   5.309   2.811
 4490TIP3    H213414   1.655   5.169   2.752
 4491TIP3   OH213415   7.883   0.436   5.327
 4491TIP3    H113416   7.868   0.354   5.375
 4491TIP3    H213417   7.914   0.497   5.393
 4492TIP3   OH213418   4.677   5.733   5.511
 4492TIP3    H113419   4.724   5.657   5.474
 4492TIP3    H213420   4.738   5.806   5.500
 4493TIP3   OH213421   6.053   3.512   4.597
 4493TIP3    H113422   5.990   3.448   4.630
 4493TIP3    H213423   6.064   3.575   4.668
 4494TIP3   OH213424   5.364   6.674   5.627
 4494TIP3    H113425   5.375   6.579   5.621
 4494TIP3    H213426   5.441   6.704   5.676
 4495TIP3   OH213427   2.430   7.018   2.293
 4495TIP3    H113428   2.473   7.069   2.361
 4495TIP3    H213429   2.483   7.033   2.215
 4496TIP3   OH213430   7.748   7.592   2.612
 4496TIP3    H113431   7.751   7.635   2.526
 4496TIP3    H213432   7.655   7.575   2.626
 4497TIP3   OH213433   8.235   2.320   1.442
 4497TIP3    H113434   8.194   2.275   1.516
 4497TIP3    H213435   8.169   2.318   1.373
 4498TIP3   OH213436   7.892   6.535   3.233
 4498TIP3    H113437   7.918   6.443   3.220
 4498TIP3    H213438   7.956   6.585   3.184
 4499TIP3   OH213439   3.120   1.537   4.645
 4499TIP3    H113440   3.132   1.453   4.690
 4499TIP3    H213441   3.055   1.583   4.698
 4500TIP3   OH213442   1.548   0.679   6.299
 4500TIP3    H113443   1.472   0.623   6.281
 4500TIP3    H213444   1.598   0.631   6.365
 4501TIP3   OH213445   4.586   1.213   0.173
 4501TIP3    H113446   4.525   1.287   0.171
 4501TIP3    H213447   4.622   1.210   0.084
 4502TIP3   OH213448   6.026   2.542   4.571
 4502TIP3    H113449   5.958   2.597   4.610
 4502TIP3    H213450   6.022   2.460   4.619
 4503TIP3   OH213451   1.390   2.123   3.291
 4503TIP3    H113452   1.347   2.041   3.268
 4503TIP3    H213453   1.329   2.167   3.350
 4504TIP3   OH213454   1.948   4.280   4.918
 4504TIP3    H113455   1.923   4.331   4.840
 4504TIP3    H213456   1.988   4.201   4.882
 4505TIP3   OH213457   7.840   1.579   3.349
 4505TIP3    H113458   7.877   1.514   3.409
 4505TIP3    H213459   7.877   1.662   3.378
 4506TIP3   OH213460   6.541   1.196   5.623
 4506TIP3    H113461   6.606   1.166   5.559
 4506TIP3    H213462   6.469   1.132   5.615
 4507TIP3   OH213463   2.704   7.766   1.881
 4507TIP3    H113464   2.641   7.824   1.923
 4507TIP3    H213465   2.653   7.722   1.812
 4508TIP3   OH213466   4.389   5.833   3.688
 4508TIP3    H113467   4.481   5.817   3.709
 4508TIP3    H213468   4.346   5.750   3.710
 4509TIP3   OH213469   4.142   6.538   4.862
 4509TIP3    H113470   4.096   6.463   4.899
 4509TIP3    H213471   4.150   6.600   4.934
 4510TIP3   OH213472   5.524   2.029   1.606
 4510TIP3    H113473   5.594   1.995   1.661
 4510TIP3    H213474   5.470   2.082   1.665
 4511TIP3   OH213475   0.760   6.984   5.710
 4511TIP3    H113476   0.711   6.910   5.673
 4511TIP3    H213477   0.779   6.957   5.800
 4512TIP3   OH213478   3.897   7.145   4.647
 4512TIP3    H113479   3.956   7.128   4.720
 4512TIP3    H213480   3.946   7.117   4.569
 4513TIP3   OH213481   4.957   4.907   3.418
 4513TIP3    H113482   4.953   5.002   3.402
 4513TIP3    H213483   5.051   4.888   3.426
 4514TIP3   OH213484   5.555   7.558   1.180
 4514TIP3    H113485   5.469   7.519   1.161
 4514TIP3    H213486   5.574   7.612   1.104
 4515TIP3   OH213487   2.764   1.171   0.165
 4515TIP3    H113488   2.669   1.172   0.152
 4515TIP3    H213489   2.793   1.258   0.135
 4516TIP3   OH213490   7.326   6.599   2.513
 4516TIP3    H113491   7.318   6.585   2.607
 4516TIP3    H213492   7.421   6.606   2.497
 4517TIP3   OH213493   2.197   6.454   0.230
 4517TIP3    H113494   2.256   6.390   0.189
 4517TIP3    H213495   2.111   6.435   0.194
 4518TIP3   OH213496   4.109   4.961   1.386
 4518TIP3    H113497   4.181   4.974   1.324
 4518TIP3    H213498   4.057   4.891   1.348
 4519TIP3   OH213499   7.811   5.242   6.083
 4519TIP3    H113500   7.888   5.243   6.140
 4519TIP3    H213501   7.819   5.321   6.029
 4520TIP3   OH213502   0.973   1.396   1.597
 4520TIP3    H113503   1.032   1.338   1.644
 4520TIP3    H213504   1.009   1.483   1.608
 4521TIP3   OH213505   2.079   6.645   1.844
 4521TIP3    H113506   2.011   6.628   1.910
 4521TIP3    H213507   2.039   6.710   1.786
 4522TIP3   OH213508   5.974   2.067   1.811
 4522TIP3    H113509   5.930   1.994   1.766
 4522TIP3    H213510   5.981   2.135   1.745
 4523TIP3   OH213511   7.996   3.733   2.281
 4523TIP3    H113512   7.994   3.748   2.186
 4523TIP3    H213513   7.906   3.715   2.305
 4524TIP3   OH213514   3.415   1.399   2.935
 4524TIP3    H113515   3.354   1.365   2.870
 4524TIP3    H213516   3.499   1.404   2.889
 4525TIP3   OH213517   7.249   1.092   0.116
 4525TIP3    H113518   7.336   1.063   0.143
 4525TIP3    H213519   7.194   1.076   0.193
 4526TIP3   OH213520   0.924   7.530   2.600
 4526TIP3    H113521   0.864   7.459   2.574
 4526TIP3    H213522   0.869   7.608   2.599
 4527TIP3   OH213523   3.931   5.137   3.597
 4527TIP3    H113524   3.905   5.215   3.645
 4527TIP3    H213525   3.963   5.077   3.665
 4528TIP3   OH213526   5.697   0.628   0.887
 4528TIP3    H113527   5.653   0.671   0.813
 4528TIP3    H213528   5.735   0.549   0.849
 4529TIP3   OH213529   7.682   4.524   0.980
 4529TIP3    H113530   7.616   4.470   1.024
 4529TIP3    H213531   7.765   4.486   1.007
 4530TIP3   OH213532   7.461   6.723   3.415
 4530TIP3    H113533   7.440   6.810   3.449
 4530TIP3    H213534   7.392   6.667   3.450
 4531TIP3   OH213535   1.129   3.129   5.241
 4531TIP3    H113536   1.037   3.103   5.255
 4531TIP3    H213537   1.132   3.221   5.267
 4532TIP3   OH213538   1.045   0.189   5.249
 4532TIP3    H113539   0.952   0.211   5.254
 4532TIP3    H213540   1.047   0.098   5.222
 4533TIP3   OH213541   8.270   1.936   5.907
 4533TIP3    H113542   8.322   1.856   5.917
 4533TIP3    H213543   8.326   2.006   5.942
 4534TIP3   OH213544   1.236   0.454   5.424
 4534TIP3    H113545   1.329   0.435   5.434
 4534TIP3    H213546   1.193   0.395   5.486
 4535TIP3   OH213547   0.911   1.198   5.852
 4535TIP3    H113548   0.900   1.127   5.789
 4535TIP3    H213549   0.960   1.158   5.924
 4536TIP3   OH213550   6.673   4.413   6.764
 4536TIP3    H113551   6.652   4.326   6.732
 4536TIP3    H213552   6.641   4.472   6.696
 4537TIP3   OH213553   4.358   0.745   0.021
 4537TIP3    H113554   4.355   0.669  -0.037
 4537TIP3    H213555   4.292   0.726   0.088
 4538TIP3   OH213556   3.877   6.713   1.792
 4538TIP3    H113557   3.897   6.787   1.850
 4538TIP3    H213558   3.916   6.737   1.708
 4539TIP3   OH213559   7.743   3.081   5.555
 4539TIP3    H113560   7.725   3.101   5.647
 4539TIP3    H213561   7.657   3.062   5.518
 4540TIP3   OH213562   0.894   2.289   6.358
 4540TIP3    H113563   0.953   2.317   6.288
 4540TIP3    H213564   0.809   2.326   6.335
 4541TIP3   OH213565   5.415   3.437   0.581
 4541TIP3    H113566   5.379   3.362   0.629
 4541TIP3    H213567   5.340   3.496   0.568
 4542TIP3   OH213568   1.803   0.642   1.523
 4542TIP3    H113569   1.870   0.583   1.557
 4542TIP3    H213570   1.770   0.688   1.601
 4543TIP3   OH213571   2.615   3.924   6.232
 4543TIP3    H113572   2.523   3.902   6.215
 4543TIP3    H213573   2.611   3.994   6.297
 4544TIP3   OH213574   7.393   0.091   3.237
 4544TIP3    H113575   7.336   0.015   3.231
 4544TIP3    H213576   7.370   0.145   3.161
 4545TIP3   OH213577   3.931   7.511   1.591
 4545TIP3    H113578   3.995   7.497   1.661
 4545TIP3    H213579   3.870   7.576   1.627
 4546TIP3   OH213580   0.069   5.915   6.604
 4546TIP3    H113581   0.069   5.945   6.513
 4546TIP3    H213582   0.150   5.865   6.613
 4547TIP3   OH213583   2.754   3.230   2.916
 4547TIP3    H113584   2.769   3.244   2.822
 4547TIP3    H213585   2.754   3.319   2.953
 4548TIP3   OH213586   3.006   1.614   5.363
 4548TIP3    H113587   3.060   1.549   5.408
 4548TIP3    H213588   2.919   1.605   5.402
 4549TIP3   OH213589   2.115   5.696   3.892
 4549TIP3    H113590   2.100   5.738   3.807
 4549TIP3    H213591   2.172   5.757   3.939
 4550TIP3   OH213592   8.181   1.962   5.311
 4550TIP3    H113593   8.182   1.867   5.324
 4550TIP3    H213594   8.095   1.981   5.276
 4551TIP3   OH213595   2.855   4.262   0.369
 4551TIP3    H113596   2.945   4.282   0.342
 4551TIP3    H213597   2.821   4.207   0.299
 4552TIP3   OH213598   5.281   2.919   4.598
 4552TIP3    H113599   5.188   2.932   4.618
 4552TIP3    H213600   5.307   2.845   4.653
 4553TIP3   OH213601   1.891   7.401   5.281
 4553TIP3    H113602   1.984   7.424   5.283
 4553TIP3    H213603   1.847   7.480   5.250
 4554TIP3   OH213604   7.196   5.120   6.352
 4554TIP3    H113605   7.194   5.092   6.261
 4554TIP3    H213606   7.273   5.177   6.358
 4555TIP3   OH213607   0.218   3.465   0.054
 4555TIP3    H113608   0.267   3.494  -0.023
 4555TIP3    H213609   0.285   3.426   0.111
 4556TIP3   OH213610   7.804   3.525   0.309
 4556TIP3    H113611   7.754   3.602   0.281
 4556TIP3    H213612   7.751   3.450   0.280
 4557TIP3   OH213613   1.652   4.889   4.095
 4557TIP3    H113614   1.596   4.932   4.159
 4557TIP3    H213615   1.740   4.890   4.134
 4558TIP3   OH213616   4.300   2.102   2.968
 4558TIP3    H113617   4.391   2.097   2.941
 4558TIP3    H213618   4.277   2.195   2.961
 4559TIP3   OH213619   6.862   5.364   6.587
 4559TIP3    H113620   6.899   5.320   6.510
 4559TIP3    H213621   6.890   5.455   6.578
 4560TIP3   OH213622   5.150   7.844   3.490
 4560TIP3    H113623   5.241   7.837   3.459
 4560TIP3    H213624   5.152   7.809   3.579
 4561TIP3   OH213625   6.574   7.742   5.226
 4561TIP3    H113626   6.538   7.660   5.192
 4561TIP3    H213627   6.664   7.719   5.250
 4562TIP3   OH213628   7.317   5.440   3.684
 4562TIP3    H113629   7.374   5.492   3.627
 4562TIP3    H213630   7.249   5.406   3.625
 4563TIP3   OH213631   2.579   0.304   3.061
 4563TIP3    H113632   2.589   0.355   3.141
 4563TIP3    H213633   2.546   0.219   3.090
 4564TIP3   OH213634   1.806   0.646   0.830
 4564TIP3    H113635   1.773   0.732   0.803
 4564TIP3    H213636   1.750   0.583   0.784
 4565TIP3   OH213637   6.476   1.061   3.983
 4565TIP3    H113638   6.439   1.058   3.895
 4565TIP3    H213639   6.563   1.099   3.971
 4566TIP3   OH213640   7.411   3.059   0.856
 4566TIP3    H113641   7.429   3.102   0.772
 4566TIP3    H213642   7.329   3.013   0.842
 4567TIP3   OH213643   1.927   7.011   4.736
 4567TIP3    H113644   1.918   6.940   4.799
 4567TIP3    H213645   2.016   7.044   4.749
 4568TIP3   OH213646  -0.003   7.584   3.747
 4568TIP3    H113647   0.038   7.640   3.681
 4568TIP3    H213648   0.066   7.568   3.811
 4569TIP3   OH213649   5.346   0.932   4.449
 4569TIP3    H113650   5.398   0.852   4.460
 4569TIP3    H213651   5.404   1.002   4.480
 4570TIP3   OH213652   6.520   0.671   4.176
 4570TIP3    H113653   6.528   0.727   4.253
 4570TIP3    H213654   6.513   0.582   4.211
 4571TIP3   OH213655   4.606   1.945   3.615
 4571TIP3    H113656   4.681   1.908   3.568
 4571TIP3    H213657   4.600   1.894   3.695
 4572TIP3   OH213658   1.211   3.875   3.678
 4572TIP3    H113659   1.255   3.947   3.632
 4572TIP3    H213660   1.177   3.819   3.608
 4573TIP3   OH213661   7.506   2.023   5.379
 4573TIP3    H113662   7.461   1.977   5.308
 4573TIP3    H213663   7.453   2.002   5.457
 4574TIP3   OH213664   3.775   7.129   6.452
 4574TIP3    H113665   3.713   7.080   6.399
 4574TIP3    H213666   3.725   7.203   6.486
 4575TIP3   OH213667   7.569   0.803   6.204
 4575TIP3    H113668   7.572   0.897   6.216
 4575TIP3    H213669   7.622   0.767   6.275
 4576TIP3   OH213670   7.699   0.422   0.357
 4576TIP3    H113671   7.733   0.494   0.304
 4576TIP3    H213672   7.740   0.435   0.443
 4577TIP3   OH213673   3.920   7.609   0.649
 4577TIP3    H113674   3.982   7.546   0.612
 4577TIP3    H213675   3.973   7.663   0.708
 4578TIP3   OH213676   8.037   1.329   4.665
 4578TIP3    H113677   8.033   1.320   4.570
 4578TIP3    H213678   8.024   1.240   4.698
 4579TIP3   OH213679   0.767   1.424   1.825
 4579TIP3    H113680   0.788   1.389   1.738
 4579TIP3    H213681   0.820   1.371   1.885
 4580TIP3   OH213682   5.327   3.753   1.229
 4580TIP3    H113683   5.241   3.769   1.189
 4580TIP3    H213684   5.357   3.839   1.256
 4581TIP3   OH213685   0.751   1.780   3.766
 4581TIP3    H113686   0.668   1.736   3.747
 4581TIP3    H213687   0.731   1.840   3.837
 4582TIP3   OH213688   4.630   7.383   2.317
 4582TIP3    H113689   4.659   7.312   2.260
 4582TIP3    H213690   4.654   7.354   2.405
 4583TIP3   OH213691   5.407   4.580   5.469
 4583TIP3    H113692   5.345   4.514   5.435
 4583TIP3    H213693   5.353   4.657   5.486
 4584TIP3   OH213694   7.079   3.753   1.578
 4584TIP3    H113695   7.102   3.845   1.566
 4584TIP3    H213696   7.127   3.708   1.509
 4585TIP3   OH213697   5.337   0.312   0.184
 4585TIP3    H113698   5.311   0.278   0.098
 4585TIP3    H213699   5.430   0.291   0.191
 4586TIP3   OH213700   2.822   1.476   2.530
 4586TIP3    H113701   2.834   1.384   2.553
 4586TIP3    H213702   2.754   1.507   2.590
 4587TIP3   OH213703   3.271   2.967   0.828
 4587TIP3    H113704   3.274   2.982   0.734
 4587TIP3    H213705   3.183   2.931   0.844
 4588TIP3   OH213706   5.605   5.418   3.464
 4588TIP3    H113707   5.678   5.391   3.407
 4588TIP3    H213708   5.548   5.470   3.407
 4589TIP3   OH213709   0.350   1.340   0.222
 4589TIP3    H113710   0.355   1.424   0.267
 4589TIP3    H213711   0.306   1.359   0.139
 4590TIP3   OH213712   5.537   1.912   3.315
 4590TIP3    H113713   5.564   1.973   3.245
 4590TIP3    H213714   5.545   1.825   3.276
 4591TIP3   OH213715   3.726   1.503   1.517
 4591TIP3    H113716   3.766   1.588   1.499
 4591TIP3    H213717   3.669   1.486   1.443
 4592TIP3   OH213718   7.621   1.524   2.247
 4592TIP3    H113719   7.577   1.588   2.191
 4592TIP3    H213720   7.551   1.465   2.275
 4593TIP3   OH213721   7.582   1.733   5.711
 4593TIP3    H113722   7.509   1.711   5.653
 4593TIP3    H213723   7.648   1.666   5.692
 4594TIP3   OH213724   2.051   1.080   4.946
 4594TIP3    H113725   2.110   1.021   4.993
 4594TIP3    H213726   1.986   1.023   4.907
 4595TIP3   OH213727   0.982   3.169   0.889
 4595TIP3    H113728   1.030   3.159   0.971
 4595TIP3    H213729   0.964   3.263   0.883
 4596TIP3   OH213730   6.072   6.751   0.714
 4596TIP3    H113731   5.986   6.759   0.674
 4596TIP3    H213732   6.132   6.739   0.639
 4597TIP3   OH213733   7.537   2.531   6.819
 4597TIP3    H113734   7.461   2.582   6.791
 4597TIP3    H213735   7.537   2.454   6.763
 4598TIP3   OH213736   5.210   7.630   0.497
 4598TIP3    H113737   5.124   7.611   0.459
 4598TIP3    H213738   5.272   7.580   0.445
 4599TIP3   OH213739   7.234   6.681   1.572
 4599TIP3    H113740   7.197   6.738   1.505
 4599TIP3    H213741   7.173   6.607   1.577
 4600TIP3   OH213742   5.520   1.485   4.457
 4600TIP3    H113743   5.532   1.548   4.528
 4600TIP3    H213744   5.490   1.405   4.500
 4601TIP3   OH213745   7.568   0.842   2.394
 4601TIP3    H113746   7.558   0.761   2.443
 4601TIP3    H213747   7.653   0.877   2.421
 4602TIP3   OH213748   2.935   2.286   2.679
 4602TIP3    H113749   3.007   2.304   2.619
 4602TIP3    H213750   2.936   2.359   2.740
 4603TIP3   OH213751   6.652   4.690   0.186
 4603TIP3    H113752   6.642   4.765   0.244
 4603TIP3    H213753   6.692   4.623   0.241
 4604TIP3   OH213754   5.455   2.669   0.171
 4604TIP3    H113755   5.497   2.614   0.105
 4604TIP3    H213756   5.512   2.662   0.248
 4605TIP3   OH213757   2.225   6.117   6.341
 4605TIP3    H113758   2.148   6.134   6.285
 4605TIP3    H213759   2.297   6.160   6.295
 4606TIP3   OH213760   3.788   4.568   4.603
 4606TIP3    H113761   3.801   4.488   4.655
 4606TIP3    H213762   3.823   4.546   4.517
 4607TIP3   OH213763   6.843   6.395   4.792
 4607TIP3    H113764   6.796   6.327   4.841
 4607TIP3    H213765   6.799   6.476   4.815
 4608TIP3   OH213766   5.038   3.733   3.202
 4608TIP3    H113767   5.117   3.691   3.237
 4608TIP3    H213768   5.038   3.820   3.241
 4609TIP3   OH213769   0.810   6.338   6.450
 4609TIP3    H113770   0.771   6.387   6.377
 4609TIP3    H213771   0.895   6.379   6.464
 4610TIP3   OH213772   5.939   5.469   1.151
 4610TIP3    H113773   5.929   5.508   1.064
 4610TIP3    H213774   5.972   5.540   1.206
 4611TIP3   OH213775   1.744   5.068   4.929
 4611TIP3    H113776   1.796   5.107   4.999
 4611TIP3    H213777   1.805   5.059   4.856
 4612TIP3   OH213778   8.298   2.973   0.644
 4612TIP3    H113779   8.209   2.972   0.609
 4612TIP3    H213780   8.354   2.984   0.568
 4613TIP3   OH213781   8.273   7.402   5.497
 4613TIP3    H113782   8.217   7.418   5.421
 4613TIP3    H213783   8.226   7.441   5.570
 4614TIP3   OH213784   5.574   5.094   2.791
 4614TIP3    H113785   5.522   5.064   2.866
 4614TIP3    H213786   5.551   5.035   2.720
 4615TIP3   OH213787   2.143   6.623   6.534
 4615TIP3    H113788   2.048   6.607   6.542
 4615TIP3    H213789   2.155   6.642   6.441
 4616TIP3   OH213790   0.781   3.472   4.190
 4616TIP3    H113791   0.761   3.478   4.283
 4616TIP3    H213792   0.733   3.396   4.159
 4617TIP3   OH213793   2.460   3.286   5.696
 4617TIP3    H113794   2.396   3.221   5.723
 4617TIP3    H213795   2.543   3.239   5.694
 4618TIP3   OH213796   1.989   2.055   2.878
 4618TIP3    H113797   1.976   2.090   2.790
 4618TIP3    H213798   2.082   2.071   2.896
 4619TIP3   OH213799   3.997   2.675   5.770
 4619TIP3    H113800   4.050   2.750   5.744
 4619TIP3    H213801   4.054   2.599   5.757
 4620TIP3   OH213802   6.864   6.321   1.340
 4620TIP3    H113803   6.951   6.358   1.329
 4620TIP3    H213804   6.846   6.277   1.257
 4621TIP3   OH213805   4.966   3.486   5.694
 4621TIP3    H113806   4.930   3.438   5.769
 4621TIP3    H213807   5.050   3.520   5.726
 4622TIP3   OH213808   0.808   2.492   1.503
 4622TIP3    H113809   0.714   2.476   1.507
 4622TIP3    H213810   0.846   2.411   1.469
 4623TIP3   OH213811   0.199   2.922   5.362
 4623TIP3    H113812   0.130   2.983   5.385
 4623TIP3    H213813   0.238   2.896   5.445
 4624TIP3   OH213814   4.741   6.871   3.294
 4624TIP3    H113815   4.693   6.789   3.279
 4624TIP3    H213816   4.674   6.939   3.289
 4625TIP3   OH213817   1.649   6.983   4.699
 4625TIP3    H113818   1.706   6.911   4.726
 4625TIP3    H213819   1.672   7.055   4.757
 4626TIP3   OH213820   4.477   3.767   0.436
 4626TIP3    H113821   4.532   3.712   0.380
 4626TIP3    H213822   4.389   3.731   0.426
 4627TIP3   OH213823   3.596   6.935   3.404
 4627TIP3    H113824   3.599   7.008   3.342
 4627TIP3    H213825   3.668   6.878   3.376
 4628TIP3   OH213826   6.420   6.334   2.334
 4628TIP3    H113827   6.365   6.346   2.256
 4628TIP3    H213828   6.362   6.357   2.407
 4629TIP3   OH213829   1.310   7.247   3.161
 4629TIP3    H113830   1.285   7.308   3.230
 4629TIP3    H213831   1.232   7.195   3.145
 4630TIP3   OH213832   5.791   2.296   6.360
 4630TIP3    H113833   5.718   2.302   6.422
 4630TIP3    H213834   5.751   2.270   6.277
 4631TIP3   OH213835   4.385   1.011   1.529
 4631TIP3    H113836   4.339   0.931   1.504
 4631TIP3    H213837   4.477   0.992   1.514
 4632TIP3   OH213838   3.965   0.883   1.354
 4632TIP3    H113839   3.991   0.801   1.397
 4632TIP3    H213840   4.025   0.893   1.281
 4633TIP3   OH213841   6.061   1.140   0.345
 4633TIP3    H113842   5.992   1.131   0.410
 4633TIP3    H213843   6.122   1.203   0.383
 4634TIP3   OH213844   5.437   6.385   1.411
 4634TIP3    H113845   5.380   6.321   1.369
 4634TIP3    H213846   5.524   6.345   1.410
 4635TIP3   OH213847   8.274   4.033   3.969
 4635TIP3    H113848   8.230   4.070   3.892
 4635TIP3    H213849   8.208   4.035   4.038
 4636TIP3   OH213850   7.895   6.309   4.306
 4636TIP3    H113851   7.920   6.267   4.389
 4636TIP3    H213852   7.962   6.376   4.292
 4637TIP3   OH213853   7.114   0.809   0.188
 4637TIP3    H113854   7.067   0.885   0.154
 4637TIP3    H213855   7.171   0.782   0.116
 4638TIP3   OH213856   0.355   4.861   5.678
 4638TIP3    H113857   0.343   4.767   5.670
 4638TIP3    H213858   0.345   4.879   5.772
 4639TIP3   OH213859   5.080   5.551   1.556
 4639TIP3    H113860   5.065   5.460   1.531
 4639TIP3    H213861   5.152   5.580   1.499
 4640TIP3   OH213862   7.875   5.693   6.670
 4640TIP3    H113863   7.787   5.729   6.659
 4640TIP3    H213864   7.932   5.759   6.631
 4641TIP3   OH213865   0.295   6.392   2.412
 4641TIP3    H113866   0.214   6.432   2.444
 4641TIP3    H213867   0.269   6.345   2.333
 4642TIP3   OH213868   4.363   4.372   6.695
 4642TIP3    H113869   4.299   4.350   6.763
 4642TIP3    H213870   4.338   4.460   6.667
 4643TIP3   OH213871   6.562   0.264   1.141
 4643TIP3    H113872   6.637   0.310   1.177
 4643TIP3    H213873   6.494   0.331   1.133
 4644TIP3   OH213874   4.462   3.766   1.997
 4644TIP3    H113875   4.512   3.728   2.070
 4644TIP3    H213876   4.529   3.804   1.940
 4645TIP3   OH213877   6.115   1.475   0.576
 4645TIP3    H113878   6.024   1.449   0.591
 4645TIP3    H213879   6.108   1.559   0.530
 4646TIP3   OH213880   0.374   4.889   4.459
 4646TIP3    H113881   0.314   4.840   4.515
 4646TIP3    H213882   0.435   4.823   4.425
 4647TIP3   OH213883   7.628   5.899   6.069
 4647TIP3    H113884   7.621   5.988   6.103
 4647TIP3    H213885   7.559   5.851   6.115
 4648TIP3   OH213886   1.252   2.239   5.725
 4648TIP3    H113887   1.320   2.302   5.748
 4648TIP3    H213888   1.191   2.289   5.670
 4649TIP3   OH213889   2.168   7.243   6.009
 4649TIP3    H113890   2.249   7.285   6.037
 4649TIP3    H213891   2.187   7.212   5.921
 4650TIP3   OH213892   8.244   5.607   1.017
 4650TIP3    H113893   8.322   5.564   0.981
 4650TIP3    H213894   8.273   5.697   1.034
 4651TIP3   OH213895   6.606   4.047   6.451
 4651TIP3    H113896   6.678   3.984   6.449
 4651TIP3    H213897   6.559   4.033   6.369
 4652TIP3   OH213898   2.891   6.068   1.057
 4652TIP3    H113899   2.826   6.057   1.128
 4652TIP3    H213900   2.852   6.133   0.999
 4653TIP3   OH213901   2.345   0.440   1.553
 4653TIP3    H113902   2.394   0.376   1.501
 4653TIP3    H213903   2.385   0.436   1.640
 4654TIP3   OH213904   3.783   3.722   0.012
 4654TIP3    H113905   3.775   3.686  -0.077
 4654TIP3    H213906   3.848   3.665   0.054
 4655TIP3   OH213907   8.202   0.458   1.729
 4655TIP3    H113908   8.268   0.394   1.705
 4655TIP3    H213909   8.151   0.416   1.798
 4656TIP3   OH213910   4.159   3.793   5.513
 4656TIP3    H113911   4.121   3.728   5.455
 4656TIP3    H213912   4.105   3.871   5.501
 4657TIP3   OH213913   1.186   3.804   2.965
 4657TIP3    H113914   1.135   3.859   3.025
 4657TIP3    H213915   1.164   3.837   2.878
 4658TIP3   OH213916   6.413   5.208   2.159
 4658TIP3    H113917   6.387   5.269   2.090
 4658TIP3    H213918   6.411   5.260   2.239
 4659TIP3   OH213919   1.507   7.301   5.783
 4659TIP3    H113920   1.542   7.244   5.715
 4659TIP3    H213921   1.511   7.389   5.746
 4660TIP3   OH213922   1.616   2.869   1.317
 4660TIP3    H113923   1.632   2.884   1.224
 4660TIP3    H213924   1.534   2.914   1.335
 4661TIP3   OH213925   2.704   3.634   2.383
 4661TIP3    H113926   2.771   3.642   2.451
 4661TIP3    H213927   2.727   3.554   2.337
 4662TIP3   OH213928   4.146   7.345   6.304
 4662TIP3    H113929   4.169   7.257   6.332
 4662TIP3    H213930   4.079   7.333   6.237
 4663TIP3   OH213931   7.751   4.169   1.239
 4663TIP3    H113932   7.831   4.220   1.229
 4663TIP3    H213933   7.731   4.137   1.151
 4664TIP3   OH213934   5.495   3.045   1.117
 4664TIP3    H113935   5.537   2.986   1.179
 4664TIP3    H213936   5.560   3.113   1.100
 4665TIP3   OH213937   2.048   5.390   2.409
 4665TIP3    H113938   1.992   5.333   2.356
 4665TIP3    H213939   2.008   5.476   2.402
 4666TIP3   OH213940   1.039   7.179   2.999
 4666TIP3    H113941   1.099   7.186   2.925
 4666TIP3    H213942   1.001   7.091   2.991
 4667TIP3   OH213943   0.474   7.495   3.281
 4667TIP3    H113944   0.479   7.553   3.357
 4667TIP3    H213945   0.565   7.473   3.261
 4668TIP3   OH213946   3.977   3.736   1.567
 4668TIP3    H113947   3.900   3.749   1.511
 4668TIP3    H213948   3.943   3.738   1.656
 4669TIP3   OH213949   3.690   5.288   6.337
 4669TIP3    H113950   3.644   5.296   6.254
 4669TIP3    H213951   3.730   5.374   6.351
 4670TIP3   OH213952   2.582   0.831   1.170
 4670TIP3    H113953   2.514   0.808   1.234
 4670TIP3    H213954   2.639   0.754   1.168
 4671TIP3   OH213955   1.820   3.329   4.473
 4671TIP3    H113956   1.834   3.348   4.566
 4671TIP3    H213957   1.813   3.233   4.469
 4672TIP3   OH213958   2.139   5.946   4.058
 4672TIP3    H113959   2.216   5.941   4.114
 4672TIP3    H213960   2.171   5.981   3.975
 4673TIP3   OH213961   5.068   2.254   5.404
 4673TIP3    H113962   5.086   2.162   5.423
 4673TIP3    H213963   5.136   2.302   5.451
 4674TIP3   OH213964   5.618   2.172   1.123
 4674TIP3    H113965   5.618   2.205   1.212
 4674TIP3    H213966   5.696   2.211   1.083
 4675TIP3   OH213967   3.540   6.264   0.114
 4675TIP3    H113968   3.582   6.184   0.145
 4675TIP3    H213969   3.497   6.239   0.032
 4676TIP3   OH213970   5.331   7.695   4.799
 4676TIP3    H113971   5.402   7.737   4.750
 4676TIP3    H213972   5.376   7.632   4.856
 4677TIP3   OH213973   1.047   1.248   3.873
 4677TIP3    H113974   1.141   1.263   3.861
 4677TIP3    H213975   1.036   1.236   3.967
 4678TIP3   OH213976   1.053   4.052   3.849
 4678TIP3    H113977   1.099   4.128   3.812
 4678TIP3    H213978   1.111   3.978   3.831
 4679TIP3   OH213979   6.617   2.064   0.306
 4679TIP3    H113980   6.553   1.993   0.311
 4679TIP3    H213981   6.603   2.102   0.220
 4680TIP3   OH213982   7.246   2.020   2.602
 4680TIP3    H113983   7.331   1.979   2.587
 4680TIP3    H213984   7.250   2.053   2.691
 4681TIP3   OH213985   5.945   2.879   6.465
 4681TIP3    H113986   5.998   2.934   6.523
 4681TIP3    H213987   5.879   2.840   6.522
 4682TIP3   OH213988   5.776   5.128   0.911
 4682TIP3    H113989   5.762   5.190   0.983
 4682TIP3    H213990   5.845   5.070   0.943
 4683TIP3   OH213991   1.947   4.755   3.585
 4683TIP3    H113992   1.982   4.666   3.579
 4683TIP3    H213993   1.957   4.791   3.497
 4684TIP3   OH213994   3.301   4.574   4.573
 4684TIP3    H113995   3.303   4.522   4.652
 4684TIP3    H213996   3.318   4.512   4.502
 4685TIP3   OH213997   3.336   4.280   0.243
 4685TIP3    H113998   3.428   4.266   0.223
 4685TIP3    H213999   3.328   4.263   0.337
 4686TIP3   OH214000   5.929   0.602   4.649
 4686TIP3    H114001   5.976   0.686   4.652
 4686TIP3    H214002   5.836   0.627   4.649
 4687TIP3   OH214003   2.926   5.698   6.638
 4687TIP3    H114004   2.914   5.742   6.722
 4687TIP3    H214005   2.858   5.630   6.637
 4688TIP3   OH214006   0.144   1.677   0.620
 4688TIP3    H114007   0.143   1.771   0.634
 4688TIP3    H214008   0.052   1.654   0.605
 4689TIP3   OH214009   2.593   0.834   1.691
 4689TIP3    H114010   2.630   0.916   1.658
 4689TIP3    H214011   2.524   0.812   1.628
 4690TIP3   OH214012   4.646   0.771   6.495
 4690TIP3    H114013   4.561   0.754   6.456
 4690TIP3    H214014   4.696   0.813   6.425
 4691TIP3   OH214015   4.117   1.621   1.460
 4691TIP3    H114016   4.184   1.552   1.467
 4691TIP3    H214017   4.052   1.585   1.401
 4692TIP3   OH214018   3.315   3.969   5.054
 4692TIP3    H114019   3.313   3.901   5.121
 4692TIP3    H214020   3.331   3.921   4.972
 4693TIP3   OH214021   1.957   1.470   5.267
 4693TIP3    H114022   1.972   1.547   5.212
 4693TIP3    H214023   2.035   1.465   5.322
 4694TIP3   OH214024   8.263   5.867   1.896
 4694TIP3    H114025   8.174   5.871   1.932
 4694TIP3    H214026   8.278   5.774   1.881
 4695TIP3   OH214027   2.932   4.810   6.520
 4695TIP3    H114028   2.935   4.717   6.495
 4695TIP3    H214029   3.021   4.829   6.550
 4696TIP3   OH214030   4.690   5.289   0.579
 4696TIP3    H114031   4.702   5.210   0.525
 4696TIP3    H214032   4.724   5.360   0.525
 4697TIP3   OH214033   7.740   2.392   2.459
 4697TIP3    H114034   7.818   2.338   2.470
 4697TIP3    H214035   7.723   2.427   2.546
 4698TIP3   OH214036   6.999   4.683   1.751
 4698TIP3    H114037   7.074   4.742   1.751
 4698TIP3    H214038   6.978   4.670   1.659
 4699TIP3   OH214039   1.356   3.803   4.103
 4699TIP3    H114040   1.388   3.858   4.032
 4699TIP3    H214041   1.281   3.756   4.066
 4700TIP3   OH214042   7.439   4.078   1.111
 4700TIP3    H114043   7.529   4.088   1.081
 4700TIP3    H214044   7.385   4.109   1.038
 4701TIP3   OH214045   5.447   1.747   1.067
 4701TIP3    H114046   5.362   1.758   1.109
 4701TIP3    H214047   5.464   1.653   1.069
 4702TIP3   OH214048   1.169   1.514   3.787
 4702TIP3    H114049   1.227   1.447   3.822
 4702TIP3    H214050   1.090   1.507   3.841
 4703TIP3   OH214051   5.067   7.766   3.230
 4703TIP3    H114052   5.119   7.690   3.204
 4703TIP3    H214053   5.118   7.808   3.300
 4704TIP3   OH214054   1.290   6.648   1.102
 4704TIP3    H114055   1.309   6.623   1.192
 4704TIP3    H214056   1.204   6.690   1.106
 4705TIP3   OH214057   8.015   2.317   3.383
 4705TIP3    H114058   8.106   2.298   3.404
 4705TIP3    H214059   8.008   2.412   3.391
 4706TIP3   OH214060   0.226   1.784   2.570
 4706TIP3    H114061   0.161   1.742   2.513
 4706TIP3    H214062   0.196   1.874   2.580
 4707TIP3   OH214063   5.671   1.344   6.686
 4707TIP3    H114064   5.667   1.259   6.730
 4707TIP3    H214065   5.763   1.370   6.692
 4708TIP3   OH214066   8.079   2.044   1.237
 4708TIP3    H114067   8.046   2.076   1.321
 4708TIP3    H214068   8.014   1.980   1.208
 4709TIP3   OH214069   3.255   5.784   2.419
 4709TIP3    H114070   3.270   5.852   2.353
 4709TIP3    H214071   3.339   5.738   2.426
 4710TIP3   OH214072   3.272   7.440   5.495
 4710TIP3    H114073   3.306   7.367   5.443
 4710TIP3    H214074   3.212   7.400   5.558
 4711TIP3   OH214075   6.391   5.505   6.334
 4711TIP3    H114076   6.338   5.461   6.399
 4711TIP3    H214077   6.366   5.598   6.341
 4712TIP3   OH214078   4.935   6.360   2.308
 4712TIP3    H114079   4.917   6.289   2.245
 4712TIP3    H214080   4.932   6.440   2.255
 4713TIP3   OH214081   0.316   3.744   6.184
 4713TIP3    H114082   0.340   3.706   6.269
 4713TIP3    H214083   0.400   3.759   6.140
 4714TIP3   OH214084   2.491   7.650   2.668
 4714TIP3    H114085   2.438   7.728   2.652
 4714TIP3    H214086   2.579   7.684   2.684
 4715TIP3   OH214087   5.022   6.142   4.409
 4715TIP3    H114088   5.038   6.090   4.330
 4715TIP3    H214089   5.077   6.102   4.476
 4716TIP3   OH214090   5.217   4.853   6.162
 4716TIP3    H114091   5.259   4.799   6.095
 4716TIP3    H214092   5.204   4.938   6.121
 4717TIP3   OH214093   7.767   1.070   3.251
 4717TIP3    H114094   7.812   1.098   3.171
 4717TIP3    H214095   7.837   1.046   3.311
 4718TIP3   OH214096   7.809   4.209   1.588
 4718TIP3    H114097   7.873   4.161   1.536
 4718TIP3    H214098   7.827   4.301   1.568
 4719TIP3   OH214099   3.850   0.611   6.391
 4719TIP3    H114100   3.876   0.535   6.443
 4719TIP3    H214101   3.925   0.671   6.397
 4720TIP3   OH214102   3.217   1.837   4.949
 4720TIP3    H114103   3.176   1.842   5.035
 4720TIP3    H214104   3.201   1.747   4.921
 4721TIP3   OH214105   3.730   0.835   6.750
 4721TIP3    H114106   3.786   0.820   6.826
 4721TIP3    H214107   3.641   0.815   6.780
 4722TIP3   OH214108   3.384   7.327   2.164
 4722TIP3    H114109   3.469   7.292   2.190
 4722TIP3    H214110   3.383   7.319   2.069
 4723TIP3   OH214111   4.690   2.209   3.652
 4723TIP3    H114112   4.756   2.228   3.586
 4723TIP3    H214113   4.664   2.118   3.634
 4724TIP3   OH214114   4.294   3.913   4.478
 4724TIP3    H114115   4.217   3.924   4.535
 4724TIP3    H214116   4.257   3.895   4.392
 4725TIP3   OH214117   7.017   5.767   1.568
 4725TIP3    H114118   6.961   5.775   1.490
 4725TIP3    H214119   6.976   5.696   1.619
 4726TIP3   OH214120   3.311   7.734   1.902
 4726TIP3    H114121   3.381   7.699   1.846
 4726TIP3    H214122   3.286   7.661   1.958
 4727TIP3   OH214123   7.150   2.819   1.638
 4727TIP3    H114124   7.074   2.808   1.696
 4727TIP3    H214125   7.202   2.888   1.679
 4728TIP3   OH214126   2.673   4.873   2.189
 4728TIP3    H114127   2.693   4.966   2.196
 4728TIP3    H214128   2.584   4.864   2.223
 4729TIP3   OH214129   1.348   3.440   4.985
 4729TIP3    H114130   1.352   3.371   4.919
 4729TIP3    H214131   1.439   3.463   5.001
 4730TIP3   OH214132   5.898   3.007   4.743
 4730TIP3    H114133   5.924   2.941   4.679
 4730TIP3    H214134   5.912   2.965   4.828
 4731TIP3   OH214135   0.234   0.061   2.607
 4731TIP3    H114136   0.199   0.121   2.542
 4731TIP3    H214137   0.246  -0.022   2.560
 4732TIP3   OH214138   7.450   5.110   3.618
 4732TIP3    H114139   7.455   5.129   3.525
 4732TIP3    H214140   7.537   5.132   3.652
 4733TIP3   OH214141   0.834   6.557   1.214
 4733TIP3    H114142   0.813   6.641   1.174
 4733TIP3    H214143   0.776   6.551   1.290
 4734TIP3   OH214144   5.362   4.054   5.402
 4734TIP3    H114145   5.432   4.080   5.343
 4734TIP3    H214146   5.405   4.038   5.485
 4735TIP3   OH214147   4.056   2.206   6.761
 4735TIP3    H114148   4.079   2.289   6.720
 4735TIP3    H214149   3.961   2.199   6.751
 4736TIP3   OH214150   5.638   1.789   5.464
 4736TIP3    H114151   5.662   1.826   5.379
 4736TIP3    H214152   5.637   1.864   5.524
 4737TIP3   OH214153   0.247   6.082   6.050
 4737TIP3    H114154   0.266   6.093   5.956
 4737TIP3    H214155   0.209   5.994   6.056
 4738TIP3   OH214156   3.019   1.879   0.250
 4738TIP3    H114157   2.940   1.825   0.259
 4738TIP3    H214158   2.987   1.969   0.254
 4739TIP3   OH214159   5.067   5.169   3.467
 4739TIP3    H114160   5.133   5.229   3.431
 4739TIP3    H214161   4.996   5.226   3.496
 4740TIP3   OH214162   0.055   6.456   1.130
 4740TIP3    H114163   0.142   6.418   1.115
 4740TIP3    H214164  -0.005   6.382   1.122
 4741TIP3   OH214165   3.612   0.025   3.756
 4741TIP3    H114166   3.693   0.073   3.778
 4741TIP3    H214167   3.625  -0.004   3.666
 4742TIP3   OH214168   5.077   6.058   4.792
 4742TIP3    H114169   5.111   6.144   4.817
 4742TIP3    H214170   5.123   6.037   4.711
 4743TIP3   OH214171   1.896   6.528   6.576
 4743TIP3    H114172   1.893   6.444   6.623
 4743TIP3    H214173   1.873   6.505   6.486
 4744TIP3   OH214174   4.887   7.300   3.254
 4744TIP3    H114175   4.934   7.337   3.329
 4744TIP3    H214176   4.796   7.327   3.266
 4745TIP3   OH214177   4.905   6.408   6.707
 4745TIP3    H114178   4.879   6.493   6.740
 4745TIP3    H214179   4.952   6.426   6.626
 4746TIP3   OH214180   0.388   7.550   2.001
 4746TIP3    H114181   0.479   7.574   2.017
 4746TIP3    H214182   0.338   7.624   2.036
 4747TIP3   OH214183   4.963   0.970   2.416
 4747TIP3    H114184   4.902   0.938   2.482
 4747TIP3    H214185   4.919   0.954   2.332
 4748TIP3   OH214186   2.511   3.997   1.442
 4748TIP3    H114187   2.593   3.970   1.402
 4748TIP3    H214188   2.505   3.945   1.523
 4749TIP3   OH214189   2.962   4.399   5.693
 4749TIP3    H114190   3.007   4.443   5.620
 4749TIP3    H214191   2.944   4.469   5.756
 4750TIP3   OH214192   7.640   4.697   2.007
 4750TIP3    H114193   7.570   4.761   2.002
 4750TIP3    H214194   7.688   4.708   1.924
 4751TIP3   OH214195   0.593   4.965   5.596
 4751TIP3    H114196   0.504   4.935   5.616
 4751TIP3    H214197   0.581   5.025   5.522
 4752TIP3   OH214198   0.202   0.863   6.518
 4752TIP3    H114199   0.282   0.818   6.488
 4752TIP3    H214200   0.131   0.805   6.492
 4753TIP3   OH214201   3.662   2.453   4.306
 4753TIP3    H114202   3.665   2.359   4.322
 4753TIP3    H214203   3.720   2.467   4.231
 4754TIP3   OH214204   6.476   4.837   3.249
 4754TIP3    H114205   6.396   4.881   3.219
 4754TIP3    H214206   6.531   4.832   3.171
 4755TIP3   OH214207   0.737   1.679   2.224
 4755TIP3    H114208   0.694   1.594   2.230
 4755TIP3    H214209   0.732   1.701   2.131
 4756TIP3   OH214210   8.157   5.232   0.873
 4756TIP3    H114211   8.240   5.275   0.852
 4756TIP3    H214212   8.161   5.149   0.826
 4757TIP3   OH214213   0.610   7.445   2.180
 4757TIP3    H114214   0.640   7.363   2.142
 4757TIP3    H214215   0.517   7.430   2.198
 4758TIP3   OH214216   2.644   2.957   5.408
 4758TIP3    H114217   2.633   2.862   5.404
 4758TIP3    H214218   2.571   2.988   5.462
 4759TIP3   OH214219   5.429   5.648   1.588
 4759TIP3    H114220   5.416   5.698   1.668
 4759TIP3    H214221   5.506   5.594   1.605
 4760TIP3   OH214222   6.935   7.358   3.233
 4760TIP3    H114223   6.947   7.327   3.143
 4760TIP3    H214224   6.973   7.289   3.287
 4761TIP3   OH214225   3.273   1.153   1.269
 4761TIP3    H114226   3.277   1.246   1.251
 4761TIP3    H214227   3.219   1.145   1.348
 4762TIP3   OH214228   8.337   7.325   3.590
 4762TIP3    H114229   8.309   7.411   3.622
 4762TIP3    H214230   8.384   7.286   3.664
 4763TIP3   OH214231   4.981   7.012   2.321
 4763TIP3    H114232   4.909   6.996   2.381
 4763TIP3    H214233   5.054   6.963   2.357
 4764TIP3   OH214234   4.671   0.099   4.423
 4764TIP3    H114235   4.640   0.022   4.472
 4764TIP3    H214236   4.626   0.172   4.464
 4765TIP3   OH214237   4.089   0.132   2.298
 4765TIP3    H114238   4.165   0.185   2.273
 4765TIP3    H214239   4.084   0.140   2.393
 4766TIP3   OH214240   7.077   6.211   2.997
 4766TIP3    H114241   7.164   6.197   2.960
 4766TIP3    H214242   7.090   6.279   3.064
 4767TIP3   OH214243   6.346   6.417   4.267
 4767TIP3    H114244   6.428   6.384   4.230
 4767TIP3    H214245   6.361   6.511   4.279
 4768TIP3   OH214246   7.442   7.175   0.484
 4768TIP3    H114247   7.489   7.092   0.499
 4768TIP3    H214248   7.351   7.154   0.503
 4769TIP3   OH214249   1.449   6.629   1.334
 4769TIP3    H114250   1.388   6.688   1.377
 4769TIP3    H214251   1.448   6.550   1.388
 4770TIP3   OH214252   4.974   0.996   6.071
 4770TIP3    H114253   5.028   1.036   6.003
 4770TIP3    H214254   5.031   0.991   6.147
 4771TIP3   OH214255   8.247   0.214   4.790
 4771TIP3    H114256   8.293   0.279   4.737
 4771TIP3    H214257   8.155   0.224   4.767
 4772TIP3   OH214258   7.622   7.039   5.057
 4772TIP3    H114259   7.641   6.960   5.109
 4772TIP3    H214260   7.564   7.009   4.988
 4773TIP3   OH214261   2.693   1.856   2.973
 4773TIP3    H114262   2.620   1.904   2.933
 4773TIP3    H214263   2.711   1.785   2.912
 4774TIP3   OH214264   4.562   2.764   5.016
 4774TIP3    H114265   4.612   2.714   4.951
 4774TIP3    H214266   4.604   2.850   5.016
 4775TIP3   OH214267   1.309   3.533   2.914
 4775TIP3    H114268   1.250   3.488   2.854
 4775TIP3    H214269   1.280   3.624   2.913
 4776TIP3   OH214270   6.061   7.708   0.321
 4776TIP3    H114271   6.137   7.652   0.307
 4776TIP3    H214272   6.050   7.711   0.416
 4777TIP3   OH214273   4.243   6.065   2.697
 4777TIP3    H114274   4.214   5.997   2.637
 4777TIP3    H214275   4.315   6.109   2.651
 4778TIP3   OH214276   3.769   7.661   2.148
 4778TIP3    H114277   3.837   7.613   2.101
 4778TIP3    H214278   3.765   7.746   2.105
 4779TIP3   OH214279   7.343   1.480   4.548
 4779TIP3    H114280   7.422   1.425   4.549
 4779TIP3    H214281   7.375   1.567   4.525
 4780TIP3   OH214282   7.237   1.947   1.571
 4780TIP3    H114283   7.199   1.941   1.483
 4780TIP3    H214284   7.227   1.859   1.607
 4781TIP3   OH214285   5.623   3.162   5.261
 4781TIP3    H114286   5.552   3.097   5.265
 4781TIP3    H214287   5.588   3.232   5.207
 4782TIP3   OH214288   1.796   0.914   3.600
 4782TIP3    H114289   1.706   0.939   3.580
 4782TIP3    H214290   1.829   0.876   3.519
 4783TIP3   OH214291   5.126   6.400   5.809
 4783TIP3    H114292   5.144   6.484   5.766
 4783TIP3    H214293   5.120   6.422   5.902
 4784TIP3   OH214294   7.097   1.854   4.501
 4784TIP3    H114295   7.125   1.771   4.463
 4784TIP3    H214296   7.008   1.837   4.532
 4785TIP3   OH214297   1.022   2.557   0.790
 4785TIP3    H114298   0.957   2.525   0.853
 4785TIP3    H214299   1.005   2.506   0.711
 4786TIP3   OH214300   0.383   5.106   0.344
 4786TIP3    H114301   0.335   5.030   0.312
 4786TIP3    H214302   0.458   5.070   0.390
 4787TIP3   OH214303   2.962   5.328   5.075
 4787TIP3    H114304   3.048   5.323   5.117
 4787TIP3    H214305   2.955   5.419   5.046
 4788TIP3   OH214306   3.152   1.256   0.383
 4788TIP3    H114307   3.095   1.299   0.447
 4788TIP3    H214308   3.157   1.318   0.310
 4789TIP3   OH214309   4.192   5.650   2.358
 4789TIP3    H114310   4.157   5.567   2.324
 4789TIP3    H214311   4.273   5.663   2.309
 4790TIP3   OH214312   3.525   7.076   2.499
 4790TIP3    H114313   3.473   7.152   2.523
 4790TIP3    H214314   3.557   7.094   2.411
 4791TIP3   OH214315   2.670   3.357   2.652
 4791TIP3    H114316   2.592   3.398   2.690
 4791TIP3    H214317   2.636   3.291   2.592
 4792TIP3   OH214318   6.682   0.114   5.013
 4792TIP3    H114319   6.609   0.063   5.050
 4792TIP3    H214320   6.671   0.104   4.918
 4793TIP3   OH214321   4.083   5.117   0.345
 4793TIP3    H114322   3.997   5.158   0.339
 4793TIP3    H214323   4.131   5.171   0.408
 4794TIP3   OH214324   7.966   2.588   2.895
 4794TIP3    H114325   7.960   2.493   2.885
 4794TIP3    H214326   7.882   2.613   2.934
 4795TIP3   OH214327   2.333   3.080   5.838
 4795TIP3    H114328   2.379   3.064   5.921
 4795TIP3    H214329   2.248   3.115   5.865
 4796TIP3   OH214330   7.488   5.586   4.654
 4796TIP3    H114331   7.516   5.536   4.577
 4796TIP3    H214332   7.480   5.521   4.724
 4797TIP3   OH214333   0.555   1.730   4.154
 4797TIP3    H114334   0.561   1.740   4.249
 4797TIP3    H214335   0.552   1.635   4.140
 4798TIP3   OH214336   0.073   6.372   5.756
 4798TIP3    H114337   0.104   6.438   5.818
 4798TIP3    H214338  -0.001   6.331   5.801
 4799TIP3   OH214339   2.251   3.626   0.428
 4799TIP3    H114340   2.340   3.596   0.408
 4799TIP3    H214341   2.201   3.604   0.350
 4800TIP3   OH214342   6.248   3.630   2.269
 4800TIP3    H114343   6.201   3.607   2.189
 4800TIP3    H214344   6.339   3.610   2.251
 4801TIP3   OH214345   4.649   6.732   1.278
 4801TIP3    H114346   4.656   6.719   1.372
 4801TIP3    H214347   4.721   6.790   1.255
 4802TIP3   OH214348   3.749   0.100   5.917
 4802TIP3    H114349   3.836   0.060   5.914
 4802TIP3    H214350   3.691   0.032   5.883
 4803TIP3   OH214351   6.247   2.395   2.065
 4803TIP3    H114352   6.226   2.308   2.030
 4803TIP3    H214353   6.337   2.387   2.096
 4804TIP3   OH214354   8.027   5.420   2.365
 4804TIP3    H114355   8.030   5.336   2.321
 4804TIP3    H214356   7.957   5.468   2.320
 4805TIP3   OH214357   6.083   1.225   5.251
 4805TIP3    H114358   6.007   1.167   5.255
 4805TIP3    H214359   6.081   1.260   5.161
 4806TIP3   OH214360   5.384   0.630   0.791
 4806TIP3    H114361   5.391   0.536   0.778
 4806TIP3    H214362   5.467   0.665   0.759
 4807TIP3   OH214363   5.517   3.679   4.386
 4807TIP3    H114364   5.572   3.616   4.432
 4807TIP3    H214365   5.449   3.703   4.449
 4808TIP3   OH214366   5.306   0.483   1.558
 4808TIP3    H114367   5.228   0.429   1.569
 4808TIP3    H214368   5.314   0.531   1.640
 4809TIP3   OH214369   7.083   7.280   3.739
 4809TIP3    H114370   7.048   7.356   3.785
 4809TIP3    H214371   7.016   7.212   3.749
 4810TIP3   OH214372   0.124   4.759   5.214
 4810TIP3    H114373   0.077   4.741   5.132
 4810TIP3    H214374   0.074   4.713   5.281
 4811TIP3   OH214375   0.433   4.342   4.001
 4811TIP3    H114376   0.358   4.343   3.941
 4811TIP3    H214377   0.509   4.326   3.944
 4812TIP3   OH214378   2.527   2.180   3.129
 4812TIP3    H114379   2.554   2.099   3.173
 4812TIP3    H214380   2.473   2.225   3.193
 4813TIP3   OH214381   7.747   4.626   2.775
 4813TIP3    H114382   7.788   4.626   2.688
 4813TIP3    H214383   7.694   4.546   2.777
 4814TIP3   OH214384   0.517   1.476   3.855
 4814TIP3    H114385   0.493   1.444   3.769
 4814TIP3    H214386   0.500   1.570   3.853
 4815TIP3   OH214387   3.121   7.098   5.314
 4815TIP3    H114388   3.067   7.115   5.391
 4815TIP3    H214389   3.209   7.126   5.339
 4816TIP3   OH214390   4.623   4.198   5.133
 4816TIP3    H114391   4.620   4.237   5.220
 4816TIP3    H214392   4.532   4.185   5.109
 4817TIP3   OH214393   2.201   3.435   6.583
 4817TIP3    H114394   2.188   3.438   6.678
 4817TIP3    H214395   2.261   3.362   6.569
 4818TIP3   OH214396   5.313   7.065   1.838
 4818TIP3    H114397   5.286   7.151   1.805
 4818TIP3    H214398   5.283   7.064   1.929
 4819TIP3   OH214399   3.723   0.481   4.629
 4819TIP3    H114400   3.661   0.554   4.635
 4819TIP3    H214401   3.684   0.421   4.566
 4820TIP3   OH214402   2.931   1.701   2.018
 4820TIP3    H114403   2.907   1.746   1.937
 4820TIP3    H214404   3.001   1.754   2.056
 4821TIP3   OH214405   1.250   0.958   1.262
 4821TIP3    H114406   1.283   1.044   1.287
 4821TIP3    H214407   1.239   0.963   1.167
 4822TIP3   OH214408   7.183   6.780   2.134
 4822TIP3    H114409   7.249   6.714   2.155
 4822TIP3    H214410   7.121   6.734   2.077
 4823TIP3   OH214411   3.699   0.223   2.393
 4823TIP3    H114412   3.729   0.300   2.440
 4823TIP3    H214413   3.753   0.151   2.428
 4824TIP3   OH214414   8.120   6.880   4.867
 4824TIP3    H114415   8.130   6.939   4.942
 4824TIP3    H214416   8.027   6.885   4.845
 4825TIP3   OH214417   1.001   1.992   6.164
 4825TIP3    H114418   0.931   2.027   6.110
 4825TIP3    H214419   1.067   2.062   6.165
 4826TIP3   OH214420   3.257   7.129   0.241
 4826TIP3    H114421   3.188   7.195   0.237
 4826TIP3    H214422   3.278   7.122   0.335
 4827TIP3   OH214423   5.397   0.144   4.997
 4827TIP3    H114424   5.410   0.193   5.078
 4827TIP3    H214425   5.484   0.113   4.973
 4828TIP3   OH214426   7.764   2.036   4.444
 4828TIP3    H114427   7.787   2.127   4.461
 4828TIP3    H214428   7.837   1.985   4.479
 4829TIP3   OH214429   5.696   6.149   0.602
 4829TIP3    H114430   5.603   6.148   0.578
 4829TIP3    H214431   5.696   6.163   0.697
 4830TIP3   OH214432   1.435   2.795   3.364
 4830TIP3    H114433   1.435   2.876   3.416
 4830TIP3    H214434   1.436   2.825   3.273
 4831TIP3   OH214435   6.820   4.354   0.949
 4831TIP3    H114436   6.876   4.326   0.876
 4831TIP3    H214437   6.842   4.294   1.020
 4832TIP3   OH214438   5.469   5.919   3.923
 4832TIP3    H114439   5.441   5.990   3.866
 4832TIP3    H214440   5.550   5.951   3.963
 4833TIP3   OH214441   3.893   0.763   2.339
 4833TIP3    H114442   3.982   0.755   2.375
 4833TIP3    H214443   3.905   0.765   2.245
 4834TIP3   OH214444   5.958   4.084   0.797
 4834TIP3    H114445   6.040   4.117   0.835
 4834TIP3    H214446   5.922   4.158   0.749
 4835TIP3   OH214447   1.118   5.548   5.844
 4835TIP3    H114448   1.141   5.541   5.752
 4835TIP3    H214449   1.072   5.466   5.864
 4836TIP3   OH214450   7.031   6.952   6.433
 4836TIP3    H114451   7.076   6.894   6.494
 4836TIP3    H214452   6.977   7.008   6.490
 4837TIP3   OH214453   0.941   3.205   2.190
 4837TIP3    H114454   0.985   3.165   2.265
 4837TIP3    H214455   1.004   3.197   2.118
 4838TIP3   OH214456   6.466   3.475   6.622
 4838TIP3    H114457   6.442   3.557   6.579
 4838TIP3    H214458   6.523   3.502   6.695
 4839TIP3   OH214459   6.286   7.313   2.012
 4839TIP3    H114460   6.254   7.233   1.971
 4839TIP3    H214461   6.210   7.372   2.013
 4840TIP3   OH214462   6.646   2.910   1.896
 4840TIP3    H114463   6.740   2.916   1.878
 4840TIP3    H214464   6.615   2.838   1.841
 4841TIP3   OH214465   1.336   1.934   5.564
 4841TIP3    H114466   1.345   1.851   5.609
 4841TIP3    H214467   1.341   2.000   5.633
 4842TIP3   OH214468   2.239   0.843   1.794
 4842TIP3    H114469   2.264   0.915   1.851
 4842TIP3    H214470   2.288   0.767   1.826
 4843TIP3   OH214471   3.591   1.512   2.344
 4843TIP3    H114472   3.687   1.520   2.346
 4843TIP3    H214473   3.566   1.548   2.258
 4844TIP3   OH214474   6.349   5.511   2.588
 4844TIP3    H114475   6.375   5.533   2.678
 4844TIP3    H214476   6.262   5.549   2.578
 4845TIP3   OH214477   5.033   3.279   2.319
 4845TIP3    H114478   4.995   3.206   2.369
 4845TIP3    H214479   4.981   3.282   2.238
 4846TIP3   OH214480   2.332   5.596   3.741
 4846TIP3    H114481   2.415   5.608   3.788
 4846TIP3    H214482   2.266   5.638   3.796
 4847TIP3   OH214483   4.414   1.475   6.144
 4847TIP3    H114484   4.438   1.386   6.170
 4847TIP3    H214485   4.433   1.528   6.221
 4848TIP3   OH214486   4.041   6.286   2.675
 4848TIP3    H114487   4.097   6.358   2.645
 4848TIP3    H214488   4.102   6.215   2.694
 4849TIP3   OH214489   1.825   2.709   3.680
 4849TIP3    H114490   1.762   2.753   3.622
 4849TIP3    H214491   1.909   2.751   3.660
 4850TIP3   OH214492   4.089   3.067   0.491
 4850TIP3    H114493   4.079   3.058   0.586
 4850TIP3    H214494   4.152   3.000   0.466
 4851TIP3   OH214495   7.549   6.834   6.433
 4851TIP3    H114496   7.500   6.915   6.417
 4851TIP3    H214497   7.485   6.777   6.476
 4852TIP3   OH214498   6.947   3.863   3.908
 4852TIP3    H114499   6.859   3.845   3.873
 4852TIP3    H214500   6.996   3.783   3.891
 4853TIP3   OH214501   3.297   5.890   1.892
 4853TIP3    H114502   3.323   5.981   1.878
 4853TIP3    H214503   3.367   5.839   1.852
 4854TIP3   OH214504   4.243   7.191   0.936
 4854TIP3    H114505   4.318   7.134   0.916
 4854TIP3    H214506   4.237   7.190   1.032
 4855TIP3   OH214507   5.824   5.085   6.016
 4855TIP3    H114508   5.870   5.157   5.973
 4855TIP3    H214509   5.734   5.093   5.985
 4856TIP3   OH214510   0.975   5.022   5.738
 4856TIP3    H114511   1.048   4.961   5.753
 4856TIP3    H214512   0.924   4.980   5.669
 4857TIP3   OH214513   0.193   6.516   1.812
 4857TIP3    H114514   0.251   6.585   1.779
 4857TIP3    H214515   0.166   6.548   1.898
 4858TIP3   OH214516   5.261   1.020   6.720
 4858TIP3    H114517   5.314   0.951   6.760
 4858TIP3    H214518   5.193   1.038   6.784
 4859TIP3   OH214519   4.440   4.021   0.406
 4859TIP3    H114520   4.473   3.934   0.427
 4859TIP3    H214521   4.396   4.010   0.322
 4860TIP3   OH214522   1.081   6.328   0.006
 4860TIP3    H114523   1.155   6.384  -0.016
 4860TIP3    H214524   1.015   6.389   0.041
 4861TIP3   OH214525   7.044   0.993   1.867
 4861TIP3    H114526   6.958   1.034   1.857
 4861TIP3    H214527   7.106   1.063   1.846
 4862TIP3   OH214528   0.938   1.837   5.147
 4862TIP3    H114529   0.972   1.761   5.099
 4862TIP3    H214530   1.006   1.859   5.210
 4863TIP3   OH214531   6.604   7.302   0.020
 4863TIP3    H114532   6.664   7.230   0.002
 4863TIP3    H214533   6.522   7.277  -0.022
 4864TIP3   OH214534   4.432   7.041   2.777
 4864TIP3    H114535   4.387   7.073   2.699
 4864TIP3    H214536   4.382   6.963   2.803
 4865TIP3   OH214537   5.341   4.241   6.007
 4865TIP3    H114538   5.277   4.307   5.979
 4865TIP3    H214539   5.333   4.240   6.103
 4866TIP3   OH214540   3.504   2.544   4.952
 4866TIP3    H114541   3.488   2.632   4.987
 4866TIP3    H214542   3.590   2.552   4.909
 4867TIP3   OH214543   0.061   3.931   4.649
 4867TIP3    H114544   0.155   3.943   4.638
 4867TIP3    H214545   0.040   3.853   4.598
 4868TIP3   OH214546   3.092   7.760   3.905
 4868TIP3    H114547   2.998   7.746   3.908
 4868TIP3    H214548   3.123   7.697   3.840
 4869TIP3   OH214549   4.713   6.388   4.821
 4869TIP3    H114550   4.726   6.378   4.727
 4869TIP3    H214551   4.626   6.351   4.837
 4870TIP3   OH214552   2.096   3.467  -0.040
 4870TIP3    H114553   2.119   3.557  -0.014
 4870TIP3    H214554   2.017   3.447   0.010
 4871TIP3   OH214555   4.558   4.478   2.257
 4871TIP3    H114556   4.517   4.421   2.322
 4871TIP3    H214557   4.510   4.561   2.266
 4872TIP3   OH214558   4.123   2.525   2.417
 4872TIP3    H114559   4.096   2.616   2.402
 4872TIP3    H214560   4.217   2.525   2.401
 4873TIP3   OH214561   0.264   7.245   4.145
 4873TIP3    H114562   0.307   7.329   4.129
 4873TIP3    H214563   0.174   7.267   4.166
 4874TIP3   OH214564   8.214   4.482   1.493
 4874TIP3    H114565   8.262   4.403   1.469
 4874TIP3    H214566   8.151   4.453   1.560
 4875TIP3   OH214567   3.123   5.968   0.827
 4875TIP3    H114568   3.032   5.968   0.796
 4875TIP3    H214569   3.116   5.948   0.920
 4876TIP3   OH214570   7.441   0.662   0.555
 4876TIP3    H114571   7.532   0.691   0.563
 4876TIP3    H214572   7.394   0.711   0.622
 4877TIP3   OH214573   7.981   0.203   6.597
 4877TIP3    H114574   7.965   0.275   6.658
 4877TIP3    H214575   7.906   0.145   6.608
 4878TIP3   OH214576   3.648   6.726   1.334
 4878TIP3    H114577   3.584   6.753   1.400
 4878TIP3    H214578   3.616   6.641   1.303
 4879TIP3   OH214579   4.567   0.475   2.315
 4879TIP3    H114580   4.552   0.491   2.408
 4879TIP3    H214581   4.662   0.483   2.304
 4880TIP3   OH214582   7.014   3.678   0.222
 4880TIP3    H114583   7.009   3.592   0.179
 4880TIP3    H214584   7.084   3.724   0.176
 4881TIP3   OH214585   6.274   1.206   4.197
 4881TIP3    H114586   6.329   1.189   4.120
 4881TIP3    H214587   6.254   1.300   4.192
 4882TIP3   OH214588   1.244   3.165   3.939
 4882TIP3    H114589   1.155   3.148   3.907
 4882TIP3    H214590   1.296   3.178   3.859
 4883TIP3   OH214591   7.831   5.094   2.863
 4883TIP3    H114592   7.888   5.040   2.919
 4883TIP3    H214593   7.761   5.123   2.921
 4884TIP3   OH214594   7.474   5.988   3.933
 4884TIP3    H114595   7.388   5.995   3.891
 4884TIP3    H214596   7.493   6.077   3.964
 4885TIP3   OH214597   1.401   3.381   5.475
 4885TIP3    H114598   1.429   3.307   5.421
 4885TIP3    H214599   1.426   3.357   5.564
 4886TIP3   OH214600   1.339   2.890   1.528
 4886TIP3    H114601   1.399   2.961   1.504
 4886TIP3    H214602   1.268   2.933   1.576
 4887TIP3   OH214603   8.198   3.262   6.753
 4887TIP3    H114604   8.207   3.303   6.667
 4887TIP3    H214605   8.285   3.271   6.793
 4888TIP3   OH214606   1.961   7.776   1.570
 4888TIP3    H114607   1.969   7.829   1.650
 4888TIP3    H214608   1.925   7.693   1.601
 4889TIP3   OH214609   0.519   2.523   3.107
 4889TIP3    H114610   0.491   2.514   3.199
 4889TIP3    H214611   0.561   2.440   3.086
 4890TIP3   OH214612   7.214   3.030   5.909
 4890TIP3    H114613   7.273   3.058   5.979
 4890TIP3    H214614   7.269   3.031   5.830
 4891TIP3   OH214615   6.119   4.682   2.011
 4891TIP3    H114616   6.125   4.717   1.922
 4891TIP3    H214617   6.159   4.748   2.067
 4892TIP3   OH214618   3.661   2.194   3.517
 4892TIP3    H114619   3.659   2.156   3.604
 4892TIP3    H214620   3.578   2.168   3.477
 4893TIP3   OH214621   1.901   4.264   1.039
 4893TIP3    H114622   1.890   4.206   1.115
 4893TIP3    H214623   1.812   4.278   1.006
 4894TIP3   OH214624   2.976   2.529   4.499
 4894TIP3    H114625   3.004   2.530   4.408
 4894TIP3    H214626   2.991   2.439   4.528
 4895TIP3   OH214627   5.073   6.959   3.954
 4895TIP3    H114628   5.107   7.007   3.878
 4895TIP3    H214629   4.983   6.938   3.930
 4896TIP3   OH214630   3.502   6.111   2.806
 4896TIP3    H114631   3.586   6.108   2.761
 4896TIP3    H214632   3.458   6.029   2.782
 4897TIP3   OH214633   3.059   0.218   5.495
 4897TIP3    H114634   3.118   0.293   5.502
 4897TIP3    H214635   3.050   0.185   5.584
 4898TIP3   OH214636   6.632   0.263   3.353
 4898TIP3    H114637   6.548   0.293   3.320
 4898TIP3    H214638   6.611   0.217   3.434
 4899TIP3   OH214639   0.078   0.962   3.155
 4899TIP3    H114640   0.062   1.008   3.237
 4899TIP3    H214641   0.158   1.001   3.121
 4900TIP3   OH214642   2.578   6.400   1.990
 4900TIP3    H114643   2.615   6.322   2.031
 4900TIP3    H214644   2.484   6.384   1.989
 4901TIP3   OH214645   7.339   4.780   6.118
 4901TIP3    H114646   7.361   4.767   6.025
 4901TIP3    H214647   7.322   4.875   6.125
 4902TIP3   OH214648   3.486   5.282   1.948
 4902TIP3    H114649   3.416   5.344   1.931
 4902TIP3    H214650   3.561   5.336   1.971
 4903TIP3   OH214651   7.569   0.511   6.650
 4903TIP3    H114652   7.596   0.453   6.721
 4903TIP3    H214653   7.577   0.458   6.571
 4904TIP3   OH214654   2.124   0.770   4.706
 4904TIP3    H114655   2.195   0.826   4.738
 4904TIP3    H214656   2.050   0.829   4.695
 4905TIP3   OH214657   4.461   3.736   3.031
 4905TIP3    H114658   4.380   3.736   3.082
 4905TIP3    H214659   4.530   3.737   3.097
 4906TIP3   OH214660   0.637   0.468   5.513
 4906TIP3    H114661   0.596   0.493   5.595
 4906TIP3    H214662   0.569   0.420   5.465
 4907TIP3   OH214663   4.380   0.711   2.901
 4907TIP3    H114664   4.357   0.799   2.929
 4907TIP3    H214665   4.428   0.674   2.976
 4908TIP3   OH214666   6.979   5.792   5.585
 4908TIP3    H114667   7.042   5.861   5.566
 4908TIP3    H214668   7.004   5.719   5.527
 4909TIP3   OH214669   6.364   5.823   0.764
 4909TIP3    H114670   6.270   5.807   0.772
 4909TIP3    H214671   6.382   5.813   0.671
 4910TIP3   OH214672   5.456   2.340   3.405
 4910TIP3    H114673   5.526   2.398   3.376
 4910TIP3    H214674   5.437   2.369   3.495
 4911TIP3   OH214675   8.061   5.731   1.681
 4911TIP3    H114676   7.975   5.706   1.716
 4911TIP3    H214677   8.055   5.826   1.671
 4912TIP3   OH214678   4.483   1.648   3.551
 4912TIP3    H114679   4.528   1.608   3.626
 4912TIP3    H214680   4.546   1.640   3.479
 4913TIP3   OH214681   2.977   4.722   1.497
 4913TIP3    H114682   2.947   4.794   1.553
 4913TIP3    H214683   2.943   4.643   1.540
 4914TIP3   OH214684   5.163   2.615   1.460
 4914TIP3    H114685   5.144   2.553   1.389
 4914TIP3    H214686   5.249   2.652   1.438
 4915TIP3   OH214687   8.279   4.260   1.308
 4915TIP3    H114688   8.257   4.227   1.221
 4915TIP3    H214689   8.309   4.183   1.356
 4916TIP3   OH214690   2.046   2.358   4.664
 4916TIP3    H114691   2.002   2.275   4.644
 4916TIP3    H214692   2.054   2.358   4.759
 4917TIP3   OH214693   4.685   2.716   1.502
 4917TIP3    H114694   4.758   2.723   1.441
 4917TIP3    H214695   4.714   2.654   1.569
 4918TIP3   OH214696   7.285   1.938   1.249
 4918TIP3    H114697   7.339   1.929   1.171
 4918TIP3    H214698   7.195   1.928   1.217
 4919TIP3   OH214699   7.608   7.652   0.428
 4919TIP3    H114700   7.605   7.673   0.334
 4919TIP3    H214701   7.544   7.581   0.438
 4920TIP3   OH214702   4.042   1.905   6.357
 4920TIP3    H114703   3.979   1.877   6.291
 4920TIP3    H214704   4.014   1.994   6.381
 4921TIP3   OH214705   2.429   2.480   3.831
 4921TIP3    H114706   2.514   2.437   3.818
 4921TIP3    H214707   2.440   2.529   3.913
 4922TIP3   OH214708   4.158   6.007   3.337
 4922TIP3    H114709   4.156   5.949   3.413
 4922TIP3    H214710   4.158   6.095   3.375
 4923TIP3   OH214711   4.646   1.305   0.825
 4923TIP3    H114712   4.564   1.275   0.787
 4923TIP3    H214713   4.657   1.251   0.904
 4924TIP3   OH214714   2.723   0.258   1.021
 4924TIP3    H114715   2.807   0.262   1.068
 4924TIP3    H214716   2.683   0.343   1.037
 4925TIP3   OH214717   8.131   1.352   4.394
 4925TIP3    H114718   8.203   1.291   4.378
 4925TIP3    H214719   8.113   1.391   4.309
 4926TIP3   OH214720   5.702   7.117   6.164
 4926TIP3    H114721   5.783   7.074   6.192
 4926TIP3    H214722   5.731   7.182   6.099
 4927TIP3   OH214723   3.445   4.357   5.686
 4927TIP3    H114724   3.439   4.402   5.770
 4927TIP3    H214725   3.357   4.321   5.673
 4928TIP3   OH214726   6.692   4.079   6.705
 4928TIP3    H114727   6.783   4.048   6.697
 4928TIP3    H214728   6.650   4.050   6.625
 4929TIP3   OH214729   2.655   0.403   4.036
 4929TIP3    H114730   2.742   0.437   4.013
 4929TIP3    H214731   2.632   0.449   4.117
 4930TIP3   OH214732   2.383   5.846   0.178
 4930TIP3    H114733   2.416   5.792   0.107
 4930TIP3    H214734   2.444   5.920   0.182
 4931TIP3   OH214735   6.732   4.756   2.686
 4931TIP3    H114736   6.818   4.732   2.720
 4931TIP3    H214737   6.751   4.816   2.613
 4932TIP3   OH214738   1.342   5.901   0.589
 4932TIP3    H114739   1.418   5.958   0.601
 4932TIP3    H214740   1.298   5.936   0.512
 4933TIP3   OH214741   0.379   1.452   2.276
 4933TIP3    H114742   0.402   1.543   2.296
 4933TIP3    H214743   0.363   1.412   2.362
 4934TIP3   OH214744   5.750   7.212   2.502
 4934TIP3    H114745   5.841   7.228   2.478
 4934TIP3    H214746   5.705   7.294   2.480
 4935TIP3   OH214747   6.128   2.621   0.655
 4935TIP3    H114748   6.110   2.688   0.721
 4935TIP3    H214749   6.181   2.666   0.589
 4936TIP3   OH214750   7.426   0.839   1.803
 4936TIP3    H114751   7.339   0.811   1.775
 4936TIP3    H214752   7.444   0.786   1.881
 4937TIP3   OH214753   0.688   0.867   2.896
 4937TIP3    H114754   0.698   0.873   2.801
 4937TIP3    H214755   0.777   0.877   2.930
 4938TIP3   OH214756   6.038   4.220   4.920
 4938TIP3    H114757   5.972   4.167   4.874
 4938TIP3    H214758   6.118   4.208   4.868
 4939TIP3   OH214759   1.558   4.774   2.930
 4939TIP3    H114760   1.511   4.702   2.888
 4939TIP3    H214761   1.575   4.836   2.860
 4940TIP3   OH214762   7.442   1.898   5.142
 4940TIP3    H114763   7.490   1.879   5.061
 4940TIP3    H214764   7.366   1.948   5.113
 4941TIP3   OH214765   3.965   3.640   4.772
 4941TIP3    H114766   3.909   3.563   4.779
 4941TIP3    H214767   3.967   3.676   4.861
 4942TIP3   OH214768   6.472   1.561   5.078
 4942TIP3    H114769   6.488   1.655   5.075
 4942TIP3    H214770   6.511   1.527   4.997
 4943TIP3   OH214771   7.114   5.064   4.738
 4943TIP3    H114772   7.204   5.096   4.745
 4943TIP3    H214773   7.110   5.027   4.649
 4944TIP3   OH214774   3.168   7.470   4.964
 4944TIP3    H114775   3.109   7.460   4.889
 4944TIP3    H214776   3.137   7.549   5.009
 4945TIP3   OH214777   7.318   1.432   6.458
 4945TIP3    H114778   7.302   1.523   6.483
 4945TIP3    H214779   7.286   1.381   6.532
 4946TIP3   OH214780   2.555   5.198   2.677
 4946TIP3    H114781   2.624   5.251   2.716
 4946TIP3    H214782   2.492   5.185   2.747
 4947TIP3   OH214783   1.520   3.600   3.851
 4947TIP3    H114784   1.515   3.592   3.756
 4947TIP3    H214785   1.430   3.583   3.881
 4948TIP3   OH214786   5.920   5.172   5.536
 4948TIP3    H114787   5.879   5.252   5.569
 4948TIP3    H214788   5.905   5.107   5.605
 4949TIP3   OH214789   4.035   0.257   1.322
 4949TIP3    H114790   4.000   0.345   1.337
 4949TIP3    H214791   4.103   0.269   1.257
 4950TIP3   OH214792   6.826   0.503   5.783
 4950TIP3    H114793   6.798   0.413   5.800
 4950TIP3    H214794   6.873   0.529   5.862
 4951TIP3   OH214795   5.665   5.521   6.553
 4951TIP3    H114796   5.693   5.444   6.603
 4951TIP3    H214797   5.744   5.573   6.543
 4952TIP3   OH214798   4.226   2.292   2.647
 4952TIP3    H114799   4.316   2.324   2.643
 4952TIP3    H214800   4.179   2.347   2.584
 4953TIP3   OH214801   7.834   1.918   5.748
 4953TIP3    H114802   7.798   1.912   5.659
 4953TIP3    H214803   7.770   1.872   5.802
 4954TIP3   OH214804   5.900   4.232   5.887
 4954TIP3    H114805   5.815   4.200   5.855
 4954TIP3    H214806   5.879   4.314   5.933
 4955TIP3   OH214807   1.964   0.632   3.589
 4955TIP3    H114808   1.981   0.707   3.533
 4955TIP3    H214809   1.870   0.618   3.585
 4956TIP3   OH214810   8.143   6.433   0.572
 4956TIP3    H114811   8.179   6.351   0.607
 4956TIP3    H214812   8.111   6.480   0.650
 4957TIP3   OH214813   7.984   5.212   0.240
 4957TIP3    H114814   7.894   5.239   0.224
 4957TIP3    H214815   7.979   5.149   0.312
 4958TIP3   OH214816   8.135   5.258   6.030
 4958TIP3    H114817   8.098   5.183   5.984
 4958TIP3    H214818   8.105   5.334   5.979
 4959TIP3   OH214819   8.175   5.408   5.723
 4959TIP3    H114820   8.251   5.465   5.710
 4959TIP3    H214821   8.147   5.424   5.813
 4960TIP3   OH214822   6.065   6.042   2.869
 4960TIP3    H114823   6.026   6.129   2.871
 4960TIP3    H214824   6.057   6.010   2.959
 4961TIP3   OH214825   7.295   2.033   2.896
 4961TIP3    H114826   7.321   2.125   2.906
 4961TIP3    H214827   7.356   1.986   2.953
 4962TIP3   OH214828   2.119   4.766   0.088
 4962TIP3    H114829   2.155   4.687   0.127
 4962TIP3    H214830   2.176   4.836   0.119
 4963TIP3   OH214831   2.803   6.804   2.818
 4963TIP3    H114832   2.866   6.795   2.746
 4963TIP3    H214833   2.810   6.722   2.867
 4964TIP3   OH214834   1.092   3.492   6.455
 4964TIP3    H114835   1.103   3.456   6.367
 4964TIP3    H214836   1.005   3.530   6.455
 4965TIP3   OH214837   2.490   3.468   3.510
 4965TIP3    H114838   2.480   3.461   3.605
 4965TIP3    H214839   2.584   3.467   3.496
 4966TIP3   OH214840   6.742   4.610   0.888
 4966TIP3    H114841   6.789   4.638   0.967
 4966TIP3    H214842   6.776   4.523   0.869
 4967TIP3   OH214843   7.980   1.612   6.399
 4967TIP3    H114844   8.016   1.577   6.481
 4967TIP3    H214845   7.938   1.536   6.358
 4968TIP3   OH214846   0.335   5.082   1.792
 4968TIP3    H114847   0.421   5.093   1.751
 4968TIP3    H214848   0.274   5.074   1.718
 4969TIP3   OH214849   3.541   4.292   1.204
 4969TIP3    H114850   3.624   4.259   1.238
 4969TIP3    H214851   3.501   4.216   1.161
 4970TIP3   OH214852   7.559   7.804   3.107
 4970TIP3    H114853   7.653   7.812   3.120
 4970TIP3    H214854   7.550   7.763   3.021
 4971TIP3   OH214855   3.266   4.354   4.401
 4971TIP3    H114856   3.279   4.365   4.307
 4971TIP3    H214857   3.171   4.361   4.413
 4972TIP3   OH214858   7.449   7.384   0.773
 4972TIP3    H114859   7.430   7.291   0.781
 4972TIP3    H214860   7.528   7.397   0.825
 4973TIP3   OH214861   2.013   2.765   2.371
 4973TIP3    H114862   1.935   2.813   2.343
 4973TIP3    H214863   2.086   2.818   2.339
 4974TIP3   OH214864   0.396   2.192   5.402
 4974TIP3    H114865   0.331   2.189   5.332
 4974TIP3    H214866   0.441   2.107   5.397
 4975TIP3   OH214867   4.765   2.664   5.894
 4975TIP3    H114868   4.782   2.664   5.989
 4975TIP3    H214869   4.806   2.745   5.863
 4976TIP3   OH214870   1.215   0.976   1.708
 4976TIP3    H114871   1.131   0.962   1.752
 4976TIP3    H214872   1.191   1.019   1.625
 4977TIP3   OH214873   4.012   6.364   4.016
 4977TIP3    H114874   4.102   6.330   4.011
 4977TIP3    H214875   4.002   6.417   3.937
 4978TIP3   OH214876   4.413   1.493   2.817
 4978TIP3    H114877   4.331   1.451   2.841
 4978TIP3    H214878   4.392   1.542   2.737
 4979TIP3   OH214879   1.415   6.195   0.005
 4979TIP3    H114880   1.386   6.228   0.090
 4979TIP3    H214881   1.473   6.263  -0.029
 4980TIP3   OH214882   0.776   2.295   4.090
 4980TIP3    H114883   0.776   2.361   4.020
 4980TIP3    H214884   0.786   2.212   4.045
 4981TIP3   OH214885   5.767   7.466   0.386
 4981TIP3    H114886   5.856   7.431   0.394
 4981TIP3    H214887   5.711   7.399   0.425
 4982TIP3   OH214888   3.358   4.030   5.716
 4982TIP3    H114889   3.279   4.084   5.716
 4982TIP3    H214890   3.364   3.997   5.626
 4983TIP3   OH214891   5.012   6.232   1.831
 4983TIP3    H114892   5.001   6.256   1.923
 4983TIP3    H214893   5.054   6.308   1.791
 4984TIP3   OH214894   3.663   0.291   1.328
 4984TIP3    H114895   3.615   0.225   1.377
 4984TIP3    H214896   3.687   0.248   1.246
 4985TIP3   OH214897   6.949   2.396   1.184
 4985TIP3    H114898   6.971   2.484   1.154
 4985TIP3    H214899   6.890   2.362   1.116
 4986TIP3   OH214900   3.226   5.224   1.796
 4986TIP3    H114901   3.277   5.159   1.749
 4986TIP3    H214902   3.277   5.305   1.789
 4987TIP3   OH214903   2.503   2.305   1.993
 4987TIP3    H114904   2.499   2.306   2.089
 4987TIP3    H214905   2.478   2.394   1.967
 4988TIP3   OH214906   7.740   7.368   1.772
 4988TIP3    H114907   7.779   7.438   1.824
 4988TIP3    H214908   7.684   7.413   1.709
 4989TIP3   OH214909   6.186   0.295   3.648
 4989TIP3    H114910   6.184   0.231   3.719
 4989TIP3    H214911   6.257   0.355   3.672
 4990TIP3   OH214912   0.428   3.421   5.085
 4990TIP3    H114913   0.471   3.336   5.094
 4990TIP3    H214914   0.446   3.447   4.995
 4991TIP3   OH214915   2.334   6.519   2.496
 4991TIP3    H114916   2.302   6.437   2.457
 4991TIP3    H214917   2.429   6.515   2.484
 4992TIP3   OH214918   5.401   6.787   6.326
 4992TIP3    H114919   5.397   6.866   6.379
 4992TIP3    H214920   5.495   6.773   6.310
 4993TIP3   OH214921   1.855   0.749   0.195
 4993TIP3    H114922   1.904   0.721   0.117
 4993TIP3    H214923   1.766   0.762   0.164
 4994TIP3   OH214924   2.571   7.097   3.534
 4994TIP3    H114925   2.597   7.012   3.571
 4994TIP3    H214926   2.496   7.077   3.478
 4995TIP3   OH214927   3.071   7.420   5.708
 4995TIP3    H114928   3.021   7.370   5.643
 4995TIP3    H214929   3.014   7.421   5.785
 4996TIP3   OH214930   3.699   4.342   1.776
 4996TIP3    H114931   3.617   4.309   1.741
 4996TIP3    H214932   3.767   4.291   1.733
 4997TIP3   OH214933   1.720   1.993   5.728
 4997TIP3    H114934   1.749   1.920   5.782
 4997TIP3    H214935   1.689   1.953   5.647
 4998TIP3   OH214936   3.220   6.725   6.540
 4998TIP3    H114937   3.136   6.759   6.508
 4998TIP3    H214938   3.243   6.783   6.613
 4999TIP3   OH214939   5.629   4.754   0.587
 4999TIP3    H114940   5.555   4.694   0.571
 4999TIP3    H214941   5.619   4.822   0.521
 5000TIP3   OH214942   6.312   5.567   3.796
 5000TIP3    H114943   6.356   5.618   3.728
 5000TIP3    H214944   6.249   5.627   3.835
 5001TIP3   OH214945   1.257   0.996   6.554
 5001TIP3    H114946   1.266   1.012   6.648
 5001TIP3    H214947   1.342   0.962   6.527
 5002TIP3   OH214948   2.811   6.197   3.886
 5002TIP3    H114949   2.864   6.156   3.955
 5002TIP3    H214950   2.724   6.160   3.898
 5003TIP3   OH214951   6.303   7.701   6.503
 5003TIP3    H114952   6.285   7.613   6.537
 5003TIP3    H214953   6.246   7.709   6.427
 5004TIP3   OH214954   7.878   6.027   6.702
 5004TIP3    H114955   7.945   5.974   6.660
 5004TIP3    H214956   7.845   6.084   6.633
 5005TIP3   OH214957   4.790   4.644   6.744
 5005TIP3    H114958   4.850   4.611   6.678
 5005TIP3    H214959   4.743   4.716   6.701
 5006TIP3   OH214960   5.985   6.873   5.885
 5006TIP3    H114961   5.895   6.880   5.851
 5006TIP3    H214962   5.983   6.920   5.968
 5007TIP3   OH214963   3.437   7.418   3.055
 5007TIP3    H114964   3.380   7.494   3.050
 5007TIP3    H214965   3.517   7.450   3.097
 5008TIP3   OH214966   6.496   1.226   5.916
 5008TIP3    H114967   6.532   1.223   6.004
 5008TIP3    H214968   6.485   1.134   5.891
 5009TIP3   OH214969   7.616   3.850   3.910
 5009TIP3    H114970   7.645   3.897   3.832
 5009TIP3    H214971   7.697   3.820   3.952
 5010TIP3   OH214972   6.286   1.408   5.714
 5010TIP3    H114973   6.246   1.431   5.630
 5010TIP3    H214974   6.240   1.463   5.777
 5011TIP3   OH214975   3.470   4.237   3.012
 5011TIP3    H114976   3.497   4.312   3.065
 5011TIP3    H214977   3.513   4.251   2.928
 5012TIP3   OH214978   7.151   6.273   0.361
 5012TIP3    H114979   7.119   6.238   0.444
 5012TIP3    H214980   7.220   6.212   0.333
 5013TIP3   OH214981   2.762   6.691   5.803
 5013TIP3    H114982   2.741   6.719   5.714
 5013TIP3    H214983   2.798   6.603   5.793
 5014TIP3   OH214984   1.872   3.821   0.212
 5014TIP3    H114985   1.854   3.911   0.239
 5014TIP3    H214986   1.806   3.802   0.145
 5015TIP3   OH214987   7.095   1.451   4.680
 5015TIP3    H114988   7.029   1.452   4.612
 5015TIP3    H214989   7.177   1.433   4.634
 5016TIP3   OH214990   5.202   5.996   4.555
 5016TIP3    H114991   5.261   6.062   4.518
 5016TIP3    H214992   5.216   5.918   4.501
 5017TIP3   OH214993   2.802   7.645   3.795
 5017TIP3    H114994   2.813   7.671   3.703
 5017TIP3    H214995   2.741   7.709   3.831
 5018TIP3   OH214996   1.960   2.165   2.124
 5018TIP3    H114997   2.006   2.136   2.203
 5018TIP3    H214998   1.977   2.096   2.060
 5019TIP3   OH214999   6.836   4.044   6.010
 5019TIP3    H115000   6.803   4.100   6.080
 5019TIP3    H215001   6.931   4.059   6.011
 5020TIP3   OH215002   4.793   7.623   0.561
 5020TIP3    H115003   4.828   7.676   0.632
 5020TIP3    H215004   4.771   7.685   0.492
 5021TIP3   OH215005   1.954   7.356   4.568
 5021TIP3    H115006   2.039   7.337   4.607
 5021TIP3    H215007   1.959   7.319   4.480
 5022TIP3   OH215008   3.006   7.273   4.542
 5022TIP3    H115009   3.096   7.239   4.540
 5022TIP3    H215010   3.011   7.359   4.500
 5023TIP3   OH215011   2.584   5.404   5.339
 5023TIP3    H115012   2.645   5.341   5.301
 5023TIP3    H215013   2.511   5.351   5.371
 5024TIP3   OH215014   0.870   4.237   3.148
 5024TIP3    H115015   0.806   4.167   3.137
 5024TIP3    H215016   0.884   4.242   3.242
 5025TIP3   OH215017   4.849   3.926   2.974
 5025TIP3    H115018   4.843   3.863   3.046
 5025TIP3    H215019   4.941   3.953   2.974
 5026TIP3   OH215020   4.940   7.768   0.797
 5026TIP3    H115021   4.861   7.732   0.838
 5026TIP3    H215022   4.994   7.798   0.870
 5027TIP3   OH215023   7.019   4.604   4.254
 5027TIP3    H115024   7.113   4.620   4.263
 5027TIP3    H215025   6.987   4.601   4.345
 5028TIP3   OH215026   5.585   7.322   4.233
 5028TIP3    H115027   5.584   7.228   4.217
 5028TIP3    H215028   5.667   7.353   4.192
 5029TIP3   OH215029   2.049   6.064   1.541
 5029TIP3    H115030   2.101   6.005   1.597
 5029TIP3    H215031   2.115   6.115   1.494
 5030TIP3   OH215032   5.996   4.078   3.921
 5030TIP3    H115033   5.961   4.105   3.836
 5030TIP3    H215034   6.012   3.985   3.912
 5031TIP3   OH215035   4.364   3.212   5.591
 5031TIP3    H115036   4.359   3.117   5.575
 5031TIP3    H215037   4.341   3.222   5.683
 5032TIP3   OH215038   0.219   7.787   2.612
 5032TIP3    H115039   0.124   7.788   2.628
 5032TIP3    H215040   0.227   7.775   2.517
 5033TIP3   OH215041   6.279   3.397   5.445
 5033TIP3    H115042   6.282   3.308   5.478
 5033TIP3    H215043   6.242   3.388   5.357
 5034TIP3   OH215044   7.195   1.679   0.084
 5034TIP3    H115045   7.141   1.749   0.046
 5034TIP3    H215046   7.163   1.599   0.042
 5035TIP3   OH215047   7.157   0.706   2.517
 5035TIP3    H115048   7.229   0.747   2.565
 5035TIP3    H215049   7.078   0.737   2.561
 5036TIP3   OH215050   4.135   5.177   4.514
 5036TIP3    H115051   4.059   5.134   4.553
 5036TIP3    H215052   4.162   5.242   4.578
 5037TIP3   OH215053   7.507   4.460   3.748
 5037TIP3    H115054   7.595   4.489   3.772
 5037TIP3    H215055   7.501   4.371   3.781
 5038TIP3   OH215056   3.098   6.880   0.676
 5038TIP3    H115057   3.070   6.960   0.720
 5038TIP3    H215058   3.118   6.819   0.748
 5039TIP3   OH215059   4.047   7.606   0.178
 5039TIP3    H115060   3.962   7.564   0.191
 5039TIP3    H215061   4.025   7.691   0.140
 5040TIP3   OH215062   4.781   1.152   2.055
 5040TIP3    H115063   4.852   1.183   1.999
 5040TIP3    H215064   4.824   1.099   2.121
 5041TIP3   OH215065   4.066   3.353   4.864
 5041TIP3    H115066   4.064   3.356   4.769
 5041TIP3    H215067   4.115   3.273   4.884
 5042TIP3   OH215068   7.989   0.937   6.572
 5042TIP3    H115069   7.911   0.986   6.547
 5042TIP3    H215070   8.062   0.993   6.543
 5043TIP3   OH215071   7.643   0.858   3.399
 5043TIP3    H115072   7.647   0.944   3.356
 5043TIP3    H215073   7.612   0.799   3.331
 5044TIP3   OH215074   2.690   7.511   3.319
 5044TIP3    H115075   2.738   7.488   3.239
 5044TIP3    H215076   2.759   7.540   3.379
 5045TIP3   OH215077   6.044   5.901   3.149
 5045TIP3    H115078   6.025   5.869   3.237
 5045TIP3    H215079   6.095   5.831   3.108
 5046TIP3   OH215080   3.554   3.582   5.608
 5046TIP3    H115081   3.468   3.623   5.609
 5046TIP3    H215082   3.615   3.655   5.603
 5047TIP3   OH215083   2.271   4.676   2.257
 5047TIP3    H115084   2.249   4.625   2.179
 5047TIP3    H215085   2.228   4.761   2.243
 5048TIP3   OH215086   5.474   5.137   0.124
 5048TIP3    H115087   5.566   5.117   0.136
 5048TIP3    H215088   5.442   5.157   0.212
 5049TIP3   OH215089   5.284   6.885   1.595
 5049TIP3    H115090   5.244   6.894   1.682
 5049TIP3    H215091   5.288   6.791   1.581
 5050TIP3   OH215092   3.279   2.570   0.462
 5050TIP3    H115093   3.302   2.621   0.539
 5050TIP3    H215094   3.262   2.635   0.394
 5051TIP3   OH215095   0.013   6.518   6.184
 5051TIP3    H115096   0.028   6.611   6.203
 5051TIP3    H215097  -0.034   6.518   6.101
 5052TIP3   OH215098   5.614   7.417   6.166
 5052TIP3    H115099   5.533   7.467   6.154
 5052TIP3    H215100   5.636   7.386   6.078
 5053TIP3   OH215101   3.584   2.644   0.975
 5053TIP3    H115102   3.566   2.734   0.948
 5053TIP3    H215103   3.641   2.609   0.907
 5054TIP3   OH215104   4.218   0.923   1.238
 5054TIP3    H115105   4.252   0.866   1.307
 5054TIP3    H215106   4.255   1.009   1.258
 5055TIP3   OH215107   3.307   4.852   1.442
 5055TIP3    H115108   3.252   4.788   1.398
 5055TIP3    H215109   3.372   4.800   1.490
 5056TIP3   OH215110   8.045   1.273   2.187
 5056TIP3    H115111   7.953   1.252   2.202
 5056TIP3    H215112   8.087   1.255   2.271
 5057TIP3   OH215113   3.500   6.164   4.108
 5057TIP3    H115114   3.418   6.115   4.119
 5057TIP3    H215115   3.490   6.209   4.024
 5058TIP3   OH215116   0.750   4.944   5.149
 5058TIP3    H115117   0.666   4.907   5.177
 5058TIP3    H215118   0.794   4.969   5.230
 5059TIP3   OH215119   3.374   6.561   2.634
 5059TIP3    H115120   3.384   6.656   2.637
 5059TIP3    H215121   3.299   6.542   2.691
 5060TIP3   OH215122   5.648   6.536   6.272
 5060TIP3    H115123   5.589   6.466   6.243
 5060TIP3    H215124   5.716   6.490   6.321
 5061TIP3   OH215125   5.901   0.130   4.756
 5061TIP3    H115126   5.931   0.216   4.785
 5061TIP3    H215127   5.979   0.074   4.759
 5062TIP3   OH215128   0.768   5.978   5.227
 5062TIP3    H115129   0.833   5.954   5.162
 5062TIP3    H215130   0.703   6.030   5.179
 5063TIP3   OH215131   7.432   0.731   5.039
 5063TIP3    H115132   7.418   0.669   5.111
 5063TIP3    H215133   7.525   0.754   5.045
 5064TIP3   OH215134   4.662   5.663   2.050
 5064TIP3    H115135   4.663   5.641   1.957
 5064TIP3    H215136   4.740   5.718   2.062
 5065TIP3   OH215137   4.237   3.535   2.008
 5065TIP3    H115138   4.147   3.505   1.996
 5065TIP3    H215139   4.252   3.528   2.102
 5066TIP3   OH215140   6.484   0.467   5.860
 5066TIP3    H115141   6.510   0.450   5.950
 5066TIP3    H215142   6.468   0.380   5.823
 5067TIP3   OH215143   1.372   5.218   2.820
 5067TIP3    H115144   1.365   5.141   2.877
 5067TIP3    H215145   1.417   5.283   2.874
 5068TIP3   OH215146   4.758   2.821   3.440
 5068TIP3    H115147   4.821   2.800   3.509
 5068TIP3    H215148   4.685   2.863   3.486
 5069TIP3   OH215149   3.544   5.932   2.348
 5069TIP3    H115150   3.520   6.025   2.356
 5069TIP3    H215151   3.489   5.900   2.277
 5070TIP3   OH215152   0.259   0.351   2.270
 5070TIP3    H115153   0.273   0.331   2.363
 5070TIP3    H215154   0.194   0.422   2.271
 5071TIP3   OH215155   4.040   4.940   0.073
 5071TIP3    H115156   4.073   5.005   0.135
 5071TIP3    H215157   3.990   4.879   0.126
 5072TIP3   OH215158   8.304   7.838   5.082
 5072TIP3    H115159   8.253   7.916   5.063
 5072TIP3    H215160   8.272   7.809   5.168
 5073TIP3   OH215161   7.449   3.306   3.325
 5073TIP3    H115162   7.460   3.227   3.272
 5073TIP3    H215163   7.458   3.379   3.263
 5074TIP3   OH215164   2.333   6.013   1.580
 5074TIP3    H115165   2.323   6.101   1.543
 5074TIP3    H215166   2.334   6.026   1.674
 5075TIP3   OH215167   4.410   6.719   0.013
 5075TIP3    H115168   4.319   6.708  -0.015
 5075TIP3    H215169   4.431   6.809  -0.010
 5076TIP3   OH215170   1.676   1.389   1.154
 5076TIP3    H115171   1.644   1.435   1.231
 5076TIP3    H215172   1.762   1.428   1.137
 5077TIP3   OH215173   4.526   4.872   0.419
 5077TIP3    H115174   4.578   4.930   0.475
 5077TIP3    H215175   4.537   4.908   0.331
 5078TIP3   OH215176   8.208   3.913   6.167
 5078TIP3    H115177   8.161   3.939   6.087
 5078TIP3    H215178   8.235   3.996   6.206
 5079TIP3   OH215179   3.644   0.938   5.332
 5079TIP3    H115180   3.568   0.970   5.284
 5079TIP3    H215181   3.612   0.862   5.380
 5080TIP3   OH215182   2.136   2.588   2.122
 5080TIP3    H115183   2.200   2.585   2.193
 5080TIP3    H215184   2.137   2.499   2.086
 5081TIP3   OH215185   3.379   3.046   4.956
 5081TIP3    H115186   3.347   3.067   5.043
 5081TIP3    H215187   3.402   3.132   4.918
 5082TIP3   OH215188   3.372   0.178   2.041
 5082TIP3    H115189   3.451   0.182   2.095
 5082TIP3    H215190   3.300   0.178   2.104
 5083TIP3   OH215191   0.192   6.021   2.836
 5083TIP3    H115192   0.241   5.944   2.810
 5083TIP3    H215193   0.164   6.003   2.925
 5084TIP3   OH215194   2.955   7.599   0.853
 5084TIP3    H115195   2.931   7.529   0.914
 5084TIP3    H215196   3.029   7.642   0.896
 5085TIP3   OH215197   7.806   2.551   5.078
 5085TIP3    H115198   7.719   2.535   5.113
 5085TIP3    H215199   7.823   2.643   5.096
 5086TIP3   OH215200   3.861   2.775   1.213
 5086TIP3    H115201   3.946   2.815   1.233
 5086TIP3    H215202   3.801   2.850   1.207
 5087TIP3   OH215203   4.625   6.034   3.747
 5087TIP3    H115204   4.666   6.121   3.745
 5087TIP3    H215205   4.688   5.977   3.703
 5088TIP3   OH215206   0.886   3.993   5.807
 5088TIP3    H115207   0.912   4.085   5.805
 5088TIP3    H215208   0.968   3.945   5.795
 5089TIP3   OH215209   3.266   0.031   5.978
 5089TIP3    H115210   3.195   0.081   5.939
 5089TIP3    H215211   3.293   0.082   6.055
 5090TIP3   OH215212   3.642   6.765   2.998
 5090TIP3    H115213   3.646   6.674   2.970
 5090TIP3    H215214   3.700   6.769   3.074
 5091TIP3   OH215215   7.537   7.133   5.933
 5091TIP3    H115216   7.472   7.082   5.884
 5091TIP3    H215217   7.573   7.071   5.997
 5092TIP3   OH215218   4.822   7.525   5.196
 5092TIP3    H115219   4.753   7.460   5.200
 5092TIP3    H215220   4.903   7.477   5.214
 5093TIP3   OH215221   1.991   4.916   5.761
 5093TIP3    H115222   1.995   4.972   5.684
 5093TIP3    H215223   2.040   4.837   5.736
 5094TIP3   OH215224   3.252   3.154   4.155
 5094TIP3    H115225   3.313   3.212   4.201
 5094TIP3    H215226   3.166   3.194   4.171
 5095TIP3   OH215227   2.233   7.154   5.765
 5095TIP3    H115228   2.258   7.160   5.673
 5095TIP3    H215229   2.194   7.067   5.774
 5096TIP3   OH215230   7.948   0.202   4.744
 5096TIP3    H115231   7.951   0.213   4.649
 5096TIP3    H215232   7.863   0.239   4.769
 5097TIP3   OH215233   7.230   2.118   5.025
 5097TIP3    H115234   7.210   2.065   4.947
 5097TIP3    H215235   7.276   2.195   4.990
 5098TIP3   OH215236   7.338   0.873   2.679
 5098TIP3    H115237   7.426   0.910   2.683
 5098TIP3    H215238   7.290   0.919   2.748
 5099TIP3   OH215239   1.073   5.280   5.183
 5099TIP3    H115240   1.030   5.264   5.099
 5099TIP3    H215241   1.046   5.368   5.208
 5100TIP3   OH215242   3.464   4.919   0.754
 5100TIP3    H115243   3.426   4.962   0.831
 5100TIP3    H215244   3.437   4.827   0.762
 5101TIP3   OH215245   6.311   2.112   3.488
 5101TIP3    H115246   6.339   2.199   3.516
 5101TIP3    H215247   6.242   2.128   3.424
 5102TIP3   OH215248   1.148   5.372   4.287
 5102TIP3    H115249   1.237   5.348   4.314
 5102TIP3    H215250   1.111   5.290   4.253
 5103TIP3   OH215251   0.237   4.861   0.694
 5103TIP3    H115252   0.251   4.805   0.770
 5103TIP3    H215253   0.289   4.939   0.711
 5104TIP3   OH215254   6.190   5.297   4.815
 5104TIP3    H115255   6.212   5.228   4.753
 5104TIP3    H215256   6.102   5.324   4.792
 5105TIP3   OH215257   8.029   2.871   1.129
 5105TIP3    H115258   8.119   2.840   1.123
 5105TIP3    H215259   8.020   2.901   1.220
 5106TIP3   OH215260   0.849   4.422   0.150
 5106TIP3    H115261   0.870   4.329   0.148
 5106TIP3    H215262   0.901   4.457   0.222
 5107TIP3   OH215263   2.347   3.857   2.644
 5107TIP3    H115264   2.356   3.812   2.560
 5107TIP3    H215265   2.296   3.935   2.623
 5108TIP3   OH215266   2.375   1.368   6.315
 5108TIP3    H115267   2.301   1.308   6.305
 5108TIP3    H215268   2.446   1.313   6.349
 5109TIP3   OH215269   3.160   2.079   2.365
 5109TIP3    H115270   3.209   2.085   2.283
 5109TIP3    H215271   3.202   2.008   2.413
 5110TIP3   OH215272   4.811   5.985   4.025
 5110TIP3    H115273   4.882   6.036   4.065
 5110TIP3    H215274   4.759   5.953   4.099
 5111TIP3   OH215275   3.924   7.020   3.361
 5111TIP3    H115276   3.901   6.941   3.313
 5111TIP3    H215277   4.018   7.011   3.379
 5112TIP3   OH215278   3.966   1.359   1.450
 5112TIP3    H115279   3.902   1.410   1.499
 5112TIP3    H215280   3.966   1.398   1.363
 5113TIP3   OH215281   0.784   6.807   1.119
 5113TIP3    H115282   0.776   6.898   1.148
 5113TIP3    H215283   0.737   6.805   1.035
 5114TIP3   OH215284   3.245   5.144   2.646
 5114TIP3    H115285   3.201   5.152   2.731
 5114TIP3    H215286   3.309   5.215   2.646
 5115TIP3   OH215287   1.458   3.960   5.948
 5115TIP3    H115288   1.421   3.895   5.888
 5115TIP3    H215289   1.553   3.949   5.940
 5116TIP3   OH215290   7.451   0.414   2.657
 5116TIP3    H115291   7.376   0.467   2.685
 5116TIP3    H215292   7.432   0.327   2.691
 5117TIP3   OH215293   7.809   5.097   5.764
 5117TIP3    H115294   7.746   5.065   5.828
 5117TIP3    H215295   7.862   5.161   5.811
 5118TIP3   OH215296   4.012   5.690   5.691
 5118TIP3    H115297   4.069   5.758   5.726
 5118TIP3    H215298   3.923   5.722   5.706
 5119TIP3   OH215299   5.556   7.023  -0.015
 5119TIP3    H115300   5.636   7.049  -0.061
 5119TIP3    H215301   5.582   7.019   0.078
 5120TIP3   OH215302   4.674   2.571   5.213
 5120TIP3    H115303   4.625   2.633   5.158
 5120TIP3    H215304   4.656   2.600   5.302
 5121TIP3   OH215305   1.239   3.522   3.909
 5121TIP3    H115306   1.192   3.583   3.964
 5121TIP3    H215307   1.173   3.459   3.880
 5122TIP3   OH215308   6.600   7.483   0.440
 5122TIP3    H115309   6.615   7.528   0.357
 5122TIP3    H215310   6.507   7.494   0.458
 5123TIP3   OH215311   7.542   1.522   2.904
 5123TIP3    H115312   7.597   1.451   2.938
 5123TIP3    H215313   7.530   1.581   2.979
 5124TIP3   OH215314   2.025   4.497   1.351
 5124TIP3    H115315   2.100   4.516   1.408
 5124TIP3    H215316   2.065   4.476   1.266
 5125TIP3   OH215317   3.894   0.428   6.588
 5125TIP3    H115318   3.924   0.351   6.637
 5125TIP3    H215319   3.799   0.422   6.588
 5126TIP3   OH215320   6.407   3.108   1.133
 5126TIP3    H115321   6.494   3.082   1.102
 5126TIP3    H215322   6.362   3.025   1.148
 5127TIP3   OH215323   0.797   2.101   6.024
 5127TIP3    H115324   0.836   2.183   5.995
 5127TIP3    H215325   0.706   2.123   6.044
 5128TIP3   OH215326   8.074   1.581   3.796
 5128TIP3    H115327   8.054   1.649   3.731
 5128TIP3    H215328   8.167   1.593   3.815
 5129TIP3   OH215329   7.092   2.297   1.898
 5129TIP3    H115330   7.015   2.288   1.842
 5129TIP3    H215331   7.138   2.213   1.890
 5130TIP3   OH215332   7.224   1.850   3.230
 5130TIP3    H115333   7.308   1.891   3.251
 5130TIP3    H215334   7.239   1.808   3.145
 5131TIP3   OH215335   7.259   4.809   5.358
 5131TIP3    H115336   7.333   4.807   5.297
 5131TIP3    H215337   7.194   4.864   5.314
 5132TIP3   OH215338   3.441   3.807   3.176
 5132TIP3    H115339   3.386   3.862   3.232
 5132TIP3    H215340   3.451   3.726   3.225
 5133TIP3   OH215341   2.458   3.113   1.231
 5133TIP3    H115342   2.539   3.068   1.209
 5133TIP3    H215343   2.396   3.086   1.163
 5134TIP3   OH215344   1.072   3.724   5.580
 5134TIP3    H115345   1.039   3.697   5.495
 5134TIP3    H215346   1.009   3.688   5.643
 5135TIP3   OH215347   7.284   6.758   4.876
 5135TIP3    H115348   7.244   6.690   4.930
 5135TIP3    H215349   7.252   6.741   4.787
 5136TIP3   OH215350   2.667   1.061   5.061
 5136TIP3    H115351   2.700   0.978   5.094
 5136TIP3    H215352   2.606   1.091   5.129
 5137TIP3   OH215353   1.160   4.062   6.203
 5137TIP3    H115354   1.227   4.129   6.216
 5137TIP3    H215355   1.079   4.111   6.190
 5138TIP3   OH215356   3.163   6.562   5.850
 5138TIP3    H115357   3.094   6.496   5.839
 5138TIP3    H215358   3.127   6.624   5.913
 5139TIP3   OH215359   3.609   2.663   1.240
 5139TIP3    H115360   3.702   2.682   1.245
 5139TIP3    H215361   3.592   2.653   1.146
 5140TIP3   OH215362   1.466   6.177   5.540
 5140TIP3    H115363   1.397   6.224   5.494
 5140TIP3    H215364   1.501   6.116   5.475
 5141TIP3   OH215365   0.848   6.102   6.759
 5141TIP3    H115366   0.765   6.069   6.725
 5141TIP3    H215367   0.905   6.109   6.682
 5142TIP3   OH215368   5.722   7.233   1.422
 5142TIP3    H115369   5.751   7.237   1.330
 5142TIP3    H215370   5.674   7.315   1.434
 5143TIP3   OH215371   6.081   4.780   3.053
 5143TIP3    H115372   6.150   4.743   2.997
 5143TIP3    H215373   6.129   4.826   3.122
 5144TIP3   OH215374   4.071   3.347   4.591
 5144TIP3    H115375   4.032   3.405   4.526
 5144TIP3    H215376   4.047   3.259   4.562
 5145TIP3   OH215377   4.380   3.724   3.421
 5145TIP3    H115378   4.325   3.664   3.472
 5145TIP3    H215379   4.467   3.684   3.423
 5146TIP3   OH215380   6.292   1.419   3.418
 5146TIP3    H115381   6.285   1.372   3.335
 5146TIP3    H215382   6.339   1.499   3.396
 5147TIP3   OH215383   3.699   2.483   5.328
 5147TIP3    H115384   3.639   2.420   5.369
 5147TIP3    H215385   3.663   2.569   5.351
 5148TIP3   OH215386   0.021   4.565   5.779
 5148TIP3    H115387   0.048   4.485   5.734
 5148TIP3    H215388   0.099   4.596   5.824
 5149TIP3   OH215389   3.009   1.792   5.134
 5149TIP3    H115390   2.932   1.743   5.107
 5149TIP3    H215391   3.030   1.758   5.222
 5150TIP3   OH215392   1.366   0.516   3.736
 5150TIP3    H115393   1.359   0.569   3.657
 5150TIP3    H215394   1.397   0.431   3.705
 5151TIP3   OH215395   3.055   3.959   6.772
 5151TIP3    H115396   3.027   4.040   6.730
 5151TIP3    H215397   3.053   3.979   6.866
 5152TIP3   OH215398   1.917   3.995   5.184
 5152TIP3    H115399   1.922   4.083   5.222
 5152TIP3    H215400   1.823   3.981   5.170
 5153TIP3   OH215401   5.320   6.661   5.187
 5153TIP3    H115402   5.376   6.587   5.210
 5153TIP3    H215403   5.381   6.726   5.152
 5154TIP3   OH215404   0.741   4.825   3.395
 5154TIP3    H115405   0.691   4.754   3.436
 5154TIP3    H215406   0.822   4.784   3.365
 5155TIP3   OH215407   3.317   6.687   0.116
 5155TIP3    H115408   3.232   6.687   0.162
 5155TIP3    H215409   3.312   6.762   0.057
 5156TIP3   OH215410   3.270   2.195   0.214
 5156TIP3    H115411   3.175   2.190   0.216
 5156TIP3    H215412   3.297   2.124   0.156
 5157TIP3   OH215413   1.701   7.260   4.089
 5157TIP3    H115414   1.648   7.282   4.165
 5157TIP3    H215415   1.754   7.338   4.074
 5158TIP3   OH215416   1.675   7.181   5.005
 5158TIP3    H115417   1.645   7.271   4.997
 5158TIP3    H215418   1.770   7.187   4.997
 5159TIP3   OH215419   6.864   1.309   2.588
 5159TIP3    H115420   6.853   1.362   2.667
 5159TIP3    H215421   6.917   1.363   2.530
 5160TIP3   OH215422   7.695   1.943   6.697
 5160TIP3    H115423   7.725   1.864   6.650
 5160TIP3    H215424   7.662   1.910   6.780
 5161TIP3   OH215425   0.880   5.440   3.568
 5161TIP3    H115426   0.901   5.503   3.637
 5161TIP3    H215427   0.796   5.402   3.595
 5162TIP3   OH215428   2.271   5.015   4.469
 5162TIP3    H115429   2.207   5.071   4.511
 5162TIP3    H215430   2.219   4.952   4.418
 5163TIP3   OH215431   4.528   0.460   5.364
 5163TIP3    H115432   4.448   0.508   5.342
 5163TIP3    H215433   4.593   0.492   5.302
 5164TIP3   OH215434   6.410   3.500   1.522
 5164TIP3    H115435   6.324   3.538   1.541
 5164TIP3    H215436   6.404   3.468   1.432
 5165TIP3   OH215437   4.935   3.176   6.394
 5165TIP3    H115438   4.886   3.219   6.464
 5165TIP3    H215439   4.933   3.083   6.416
 5166TIP3   OH215440   2.025   2.323   4.947
 5166TIP3    H115441   1.933   2.303   4.961
 5166TIP3    H215442   2.061   2.336   5.035
 5167TIP3   OH215443   0.835   7.791   1.705
 5167TIP3    H115444   0.910   7.808   1.762
 5167TIP3    H215445   0.826   7.695   1.705
 5168TIP3   OH215446   2.611   0.655   3.661
 5168TIP3    H115447   2.698   0.660   3.622
 5168TIP3    H215448   2.595   0.562   3.674
 5169TIP3   OH215449   3.807   0.162   1.569
 5169TIP3    H115450   3.769   0.235   1.617
 5169TIP3    H215451   3.732   0.106   1.549
 5170TIP3   OH215452   5.609   7.209   3.254
 5170TIP3    H115453   5.667   7.223   3.328
 5170TIP3    H215454   5.523   7.238   3.285
 5171TIP3   OH215455   2.034   3.266   3.394
 5171TIP3    H115456   2.069   3.179   3.375
 5171TIP3    H215457   2.090   3.300   3.464
 5172TIP3   OH215458   2.352   2.458   6.113
 5172TIP3    H115459   2.307   2.510   6.047
 5172TIP3    H215460   2.281   2.410   6.157
 5173TIP3   OH215461   7.735   6.881   2.563
 5173TIP3    H115462   7.761   6.819   2.631
 5173TIP3    H215463   7.643   6.901   2.584
 5174TIP3   OH215464   5.000   3.489   6.403
 5174TIP3    H115465   4.908   3.511   6.391
 5174TIP3    H215466   5.043   3.574   6.414
 5175TIP3   OH215467   0.244   1.601   0.183
 5175TIP3    H115468   0.314   1.636   0.128
 5175TIP3    H215469   0.190   1.677   0.205
 5176TIP3   OH215470   5.616   2.135   0.360
 5176TIP3    H115471   5.589   2.151   0.269
 5176TIP3    H215472   5.610   2.221   0.401
 5177TIP3   OH215473   3.870   5.662   4.827
 5177TIP3    H115474   3.785   5.698   4.852
 5177TIP3    H215475   3.933   5.721   4.868
 5178TIP3   OH215476   0.741   4.297   0.943
 5178TIP3    H115477   0.817   4.302   1.000
 5178TIP3    H215478   0.667   4.326   0.997
 5179TIP3   OH215479   3.115   2.511   5.734
 5179TIP3    H115480   3.162   2.435   5.700
 5179TIP3    H215481   3.174   2.584   5.719
 5180TIP3   OH215482   8.217   1.704   2.117
 5180TIP3    H115483   8.245   1.674   2.030
 5180TIP3    H215484   8.209   1.799   2.107
 5181TIP3   OH215485   5.860   6.395   3.408
 5181TIP3    H115486   5.917   6.426   3.338
 5181TIP3    H215487   5.920   6.374   3.480
 5182TIP3   OH215488   7.302   4.776   2.212
 5182TIP3    H115489   7.221   4.806   2.254
 5182TIP3    H215490   7.292   4.802   2.121
 5183TIP3   OH215491   1.129   3.166   3.661
 5183TIP3    H115492   1.087   3.144   3.578
 5183TIP3    H215493   1.061   3.210   3.711
 5184TIP3   OH215494   0.871   3.664   6.339
 5184TIP3    H115495   0.942   3.708   6.293
 5184TIP3    H215496   0.812   3.735   6.367
 5185TIP3   OH215497   4.844   3.045   4.879
 5185TIP3    H115498   4.869   2.952   4.879
 5185TIP3    H215499   4.839   3.069   4.971
 5186TIP3   OH215500   5.975   7.106   2.979
 5186TIP3    H115501   6.000   7.087   2.889
 5186TIP3    H215502   6.040   7.061   3.033
 5187TIP3   OH215503   4.399   3.413   0.201
 5187TIP3    H115504   4.314   3.369   0.206
 5187TIP3    H215505   4.379   3.501   0.167
 5188TIP3   OH215506   1.921   7.676   3.121
 5188TIP3    H115507   1.921   7.651   3.213
 5188TIP3    H215508   1.904   7.594   3.074
 5189TIP3   OH215509   7.466   2.702   0.160
 5189TIP3    H115510   7.386   2.654   0.139
 5189TIP3    H215511   7.530   2.634   0.182
 5190TIP3   OH215512   0.401   4.901   1.143
 5190TIP3    H115513   0.322   4.955   1.149
 5190TIP3    H215514   0.447   4.918   1.225
 5191TIP3   OH215515   0.945   7.401   6.266
 5191TIP3    H115516   1.033   7.391   6.303
 5191TIP3    H215517   0.887   7.401   6.342
 5192TIP3   OH215518   2.853   1.698   3.630
 5192TIP3    H115519   2.908   1.630   3.590
 5192TIP3    H215520   2.824   1.659   3.713
 5193TIP3   OH215521   7.239   0.991   6.282
 5193TIP3    H115522   7.248   0.992   6.377
 5193TIP3    H215523   7.234   0.898   6.259
 5194TIP3   OH215524   1.732   4.633   2.321
 5194TIP3    H115525   1.699   4.566   2.262
 5194TIP3    H215526   1.677   4.626   2.399
 5195TIP3   OH215527   3.799   6.869   0.934
 5195TIP3    H115528   3.892   6.848   0.932
 5195TIP3    H215529   3.780   6.899   0.845
 5196TIP3   OH215530   0.148   3.703   0.597
 5196TIP3    H115531   0.197   3.678   0.676
 5196TIP3    H215532   0.072   3.750   0.629
 5197TIP3   OH215533   5.953   5.192   1.462
 5197TIP3    H115534   6.014   5.119   1.474
 5197TIP3    H215535   5.979   5.231   1.379
 5198TIP3   OH215536   6.169   4.837   0.535
 5198TIP3    H115537   6.158   4.919   0.583
 5198TIP3    H215538   6.203   4.864   0.449
 5199TIP3   OH215539   3.131   1.800   1.209
 5199TIP3    H115540   3.095   1.888   1.218
 5199TIP3    H215541   3.076   1.758   1.142
 5200TIP3   OH215542   5.920   6.098   3.364
 5200TIP3    H115543   5.958   6.011   3.355
 5200TIP3    H215544   5.995   6.155   3.382
 5201TIP3   OH215545   7.615   6.045   3.474
 5201TIP3    H115546   7.537   6.006   3.514
 5201TIP3    H215547   7.673   6.062   3.548
 5202TIP3   OH215548   1.334   0.077   1.525
 5202TIP3    H115549   1.359   0.156   1.478
 5202TIP3    H215550   1.240   0.068   1.509
 5203TIP3   OH215551   6.215   5.542   0.208
 5203TIP3    H115552   6.159   5.560   0.284
 5203TIP3    H215553   6.304   5.542   0.244
 5204TIP3   OH215554   6.005   4.819   3.763
 5204TIP3    H115555   6.030   4.911   3.754
 5204TIP3    H215556   6.075   4.779   3.815
 5205TIP3   OH215557   0.587   3.086   1.114
 5205TIP3    H115558   0.667   3.103   1.163
 5205TIP3    H215559   0.609   3.110   1.024
 5206TIP3   OH215560   6.603   4.583   4.007
 5206TIP3    H115561   6.663   4.514   3.980
 5206TIP3    H215562   6.519   4.540   4.018
 5207TIP3   OH215563   8.277   4.863   0.345
 5207TIP3    H115564   8.323   4.914   0.412
 5207TIP3    H215565   8.206   4.821   0.393
 5208TIP3   OH215566   6.950   2.147   3.531
 5208TIP3    H115567   6.974   2.195   3.610
 5208TIP3    H215568   7.018   2.081   3.521
 5209TIP3   OH215569   1.916   1.492   1.162
 5209TIP3    H115570   1.976   1.527   1.227
 5209TIP3    H215571   1.940   1.537   1.081
 5210TIP3   OH215572   3.793   6.607   4.872
 5210TIP3    H115573   3.762   6.639   4.956
 5210TIP3    H215574   3.821   6.686   4.825
 5211TIP3   OH215575   2.408   3.228   6.622
 5211TIP3    H115576   2.423   3.172   6.546
 5211TIP3    H215577   2.357   3.173   6.682
 5212TIP3   OH215578   5.994   5.636   5.775
 5212TIP3    H115579   6.020   5.660   5.864
 5212TIP3    H215580   6.031   5.704   5.720
 5213TIP3   OH215581   2.315   2.736   3.368
 5213TIP3    H115582   2.367   2.737   3.449
 5213TIP3    H215583   2.363   2.791   3.308
 5214TIP3   OH215584   1.013   3.724   3.811
 5214TIP3    H115585   1.011   3.640   3.765
 5214TIP3    H215586   1.089   3.770   3.774
 5215TIP3   OH215587   7.132   4.038   6.471
 5215TIP3    H115588   7.205   4.070   6.523
 5215TIP3    H215589   7.117   3.948   6.502
 5216TIP3   OH215590   4.573   4.584   3.617
 5216TIP3    H115591   4.617   4.606   3.699
 5216TIP3    H215592   4.614   4.502   3.589
 5217TIP3   OH215593   1.061   1.006   4.339
 5217TIP3    H115594   1.035   1.086   4.384
 5217TIP3    H215595   1.098   1.036   4.256
 5218TIP3   OH215596   4.625   5.417   3.599
 5218TIP3    H115597   4.622   5.513   3.591
 5218TIP3    H215598   4.533   5.391   3.609
 5219TIP3   OH215599   1.573   4.712   3.367
 5219TIP3    H115600   1.587   4.806   3.378
 5219TIP3    H215601   1.489   4.705   3.323
 5220TIP3   OH215602   3.350   0.526   2.249
 5220TIP3    H115603   3.400   0.605   2.229
 5220TIP3    H215604   3.401   0.455   2.210
 5221TIP3   OH215605   6.261   4.041   2.894
 5221TIP3    H115606   6.245   3.951   2.924
 5221TIP3    H215607   6.212   4.048   2.813
 5222TIP3   OH215608   0.316   4.645   3.118
 5222TIP3    H115609   0.317   4.717   3.182
 5222TIP3    H215610   0.403   4.607   3.123
 5223TIP3   OH215611   5.133   0.842   6.505
 5223TIP3    H115612   5.146   0.904   6.577
 5223TIP3    H215613   5.189   0.768   6.525
 5224TIP3   OH215614   3.018   4.052   3.761
 5224TIP3    H115615   3.085   4.115   3.734
 5224TIP3    H215616   2.937   4.103   3.764
 5225TIP3   OH215617   6.765   1.165   5.806
 5225TIP3    H115618   6.839   1.159   5.746
 5225TIP3    H215619   6.688   1.149   5.751
 5226TIP3   OH215620   4.692   7.152   2.181
 5226TIP3    H115621   4.677   7.085   2.248
 5226TIP3    H215622   4.768   7.121   2.132
 5227TIP3   OH215623   4.708   2.038   4.025
 5227TIP3    H115624   4.752   2.108   3.976
 5227TIP3    H215625   4.696   1.968   3.961
 5228TIP3   OH215626   3.555   2.080   2.319
 5228TIP3    H115627   3.542   2.174   2.332
 5228TIP3    H215628   3.494   2.039   2.380
 5229TIP3   OH215629   5.857   1.573   5.304
 5229TIP3    H115630   5.787   1.515   5.274
 5229TIP3    H215631   5.858   1.564   5.399
 5230TIP3   OH215632   3.229   1.318   2.373
 5230TIP3    H115633   3.218   1.294   2.281
 5230TIP3    H215634   3.273   1.243   2.413
 5231TIP3   OH215635   7.671   6.780   0.281
 5231TIP3    H115636   7.625   6.707   0.241
 5231TIP3    H215637   7.622   6.857   0.255
 5232TIP3   OH215638   6.569   4.215   5.224
 5232TIP3    H115639   6.511   4.266   5.169
 5232TIP3    H215640   6.577   4.130   5.180
 5233TIP3   OH215641   4.396   5.657   5.479
 5233TIP3    H115642   4.489   5.651   5.458
 5233TIP3    H215643   4.387   5.739   5.529
 5234TIP3   OH215644   7.459   4.631   0.605
 5234TIP3    H115645   7.488   4.542   0.584
 5234TIP3    H215646   7.458   4.677   0.521
 5235TIP3   OH215647   5.972   4.557   0.143
 5235TIP3    H115648   5.969   4.462   0.137
 5235TIP3    H215649   5.987   4.586   0.053
 5236TIP3   OH215650   1.444   1.533   0.205
 5236TIP3    H115651   1.534   1.504   0.219
 5236TIP3    H215652   1.398   1.454   0.177
 5237TIP3   OH215653   2.821   3.477   3.915
 5237TIP3    H115654   2.749   3.537   3.935
 5237TIP3    H215655   2.807   3.402   3.972
 5238TIP3   OH215656   3.790   4.137   5.326
 5238TIP3    H115657   3.795   4.229   5.354
 5238TIP3    H215658   3.747   4.140   5.241
 5239TIP3   OH215659   3.072   5.136   5.330
 5239TIP3    H115660   3.121   5.154   5.250
 5239TIP3    H215661   3.086   5.214   5.385
 5240TIP3   OH215662   6.284   6.608   5.325
 5240TIP3    H115663   6.308   6.530   5.374
 5240TIP3    H215664   6.241   6.665   5.388
 5241TIP3   OH215665   5.168   5.722   5.336
 5241TIP3    H115666   5.125   5.778   5.271
 5241TIP3    H215667   5.173   5.777   5.414
 5242TIP3   OH215668   7.883   1.596   2.332
 5242TIP3    H115669   7.794   1.566   2.308
 5242TIP3    H215670   7.935   1.579   2.253
 5243TIP3   OH215671   2.882   5.047   3.656
 5243TIP3    H115672   2.921   5.107   3.720
 5243TIP3    H215673   2.791   5.039   3.682
 5244TIP3   OH215674   3.798   3.344   0.736
 5244TIP3    H115675   3.817   3.278   0.669
 5244TIP3    H215676   3.839   3.424   0.704
 5245TIP3   OH215677   2.542   3.879   1.682
 5245TIP3    H115678   2.616   3.828   1.715
 5245TIP3    H215679   2.470   3.858   1.741
 5246TIP3   OH215680   1.500   6.539   4.791
 5246TIP3    H115681   1.471   6.570   4.705
 5246TIP3    H215682   1.578   6.487   4.772
 5247TIP3   OH215683   0.280   0.405   1.772
 5247TIP3    H115684   0.372   0.381   1.772
 5247TIP3    H215685   0.247   0.376   1.857
 5248TIP3   OH215686   4.202   6.579   4.164
 5248TIP3    H115687   4.243   6.654   4.208
 5248TIP3    H215688   4.276   6.521   4.143
 5249TIP3   OH215689   2.050   1.898   4.203
 5249TIP3    H115690   2.040   1.803   4.200
 5249TIP3    H215691   1.990   1.926   4.273
 5250TIP3   OH215692   5.331   1.558   1.364
 5250TIP3    H115693   5.325   1.653   1.368
 5250TIP3    H215694   5.417   1.538   1.403
 5251TIP3   OH215695   3.266   0.647   1.288
 5251TIP3    H115696   3.300   0.572   1.335
 5251TIP3    H215697   3.303   0.640   1.200
 5252TIP3   OH215698   2.727   2.461   5.649
 5252TIP3    H115699   2.804   2.486   5.599
 5252TIP3    H215700   2.682   2.396   5.594
 5253TIP3   OH215701   4.842   0.833   4.517
 5253TIP3    H115702   4.919   0.884   4.540
 5253TIP3    H215703   4.793   0.890   4.457
 5254TIP3   OH215704   2.657   2.676   0.443
 5254TIP3    H115705   2.634   2.636   0.527
 5254TIP3    H215706   2.575   2.713   0.411
 5255TIP3   OH215707   6.575   5.806   2.560
 5255TIP3    H115708   6.621   5.890   2.566
 5255TIP3    H215709   6.484   5.828   2.577
 5256TIP3   OH215710   0.983   1.824   3.195
 5256TIP3    H115711   0.989   1.846   3.288
 5256TIP3    H215712   1.045   1.884   3.153
 5257TIP3   OH215713   4.555   3.025   6.369
 5257TIP3    H115714   4.593   2.938   6.363
 5257TIP3    H215715   4.501   3.022   6.448
 5258TIP3   OH215716   3.007   0.683   2.704
 5258TIP3    H115717   2.930   0.740   2.704
 5258TIP3    H215718   2.996   0.629   2.782
 5259TIP3   OH215719   3.595   0.873   5.780
 5259TIP3    H115720   3.646   0.797   5.810
 5259TIP3    H215721   3.636   0.948   5.825
 5260TIP3   OH215722   6.262   2.296   6.426
 5260TIP3    H115723   6.301   2.289   6.339
 5260TIP3    H215724   6.187   2.354   6.415
 5261TIP3   OH215725   4.031   2.591   6.029
 5261TIP3    H115726   3.988   2.624   5.950
 5261TIP3    H215727   3.996   2.646   6.099
 5262TIP3   OH215728   8.106   0.603   4.649
 5262TIP3    H115729   8.163   0.617   4.574
 5262TIP3    H215730   8.140   0.523   4.690
 5263TIP3   OH215731   5.214   0.316   5.720
 5263TIP3    H115732   5.230   0.232   5.679
 5263TIP3    H215733   5.218   0.379   5.648
 5264TIP3   OH215734   8.323   5.024   4.912
 5264TIP3    H115735   8.262   5.018   4.839
 5264TIP3    H215736   8.267   5.022   4.990
 5265TIP3   OH215737   4.115   0.343   4.527
 5265TIP3    H115738   4.050   0.317   4.593
 5265TIP3    H215739   4.124   0.438   4.539
 5266TIP3   OH215740   5.975   1.337   6.683
 5266TIP3    H115741   6.008   1.254   6.647
 5266TIP3    H215742   6.004   1.337   6.774
 5267TIP3   OH215743   8.313   6.395   6.618
 5267TIP3    H115744   8.349   6.325   6.672
 5267TIP3    H215745   8.229   6.360   6.587
 5268TIP3   OH215746   3.878   1.198   6.340
 5268TIP3    H115747   3.837   1.167   6.421
 5268TIP3    H215748   3.971   1.205   6.362
 5269TIP3   OH215749   3.597   7.158   0.280
 5269TIP3    H115750   3.669   7.114   0.235
 5269TIP3    H215751   3.539   7.087   0.308
 5270TIP3   OH215752   0.351   2.157   2.081
 5270TIP3    H115753   0.429   2.127   2.127
 5270TIP3    H215754   0.345   2.251   2.102
 5271TIP3   OH215755   2.416   6.491   4.642
 5271TIP3    H115756   2.398   6.451   4.557
 5271TIP3    H215757   2.512   6.492   4.648
 5272TIP3   OH215758   4.014   2.353   2.199
 5272TIP3    H115759   4.059   2.287   2.146
 5272TIP3    H215760   4.069   2.363   2.277
 5273TIP3   OH215761   1.497   1.830  -0.040
 5273TIP3    H115762   1.412   1.869  -0.021
 5273TIP3    H215763   1.516   1.775   0.037
 5274TIP3   OH215764   1.604   7.342   4.573
 5274TIP3    H115765   1.682   7.389   4.603
 5274TIP3    H215766   1.550   7.331   4.652
 5275TIP3   OH215767   6.486   5.585   0.848
 5275TIP3    H115768   6.426   5.657   0.829
 5275TIP3    H215769   6.471   5.566   0.940
 5276TIP3   OH215770   0.383   4.554   1.832
 5276TIP3    H115771   0.294   4.582   1.811
 5276TIP3    H215772   0.375   4.511   1.917
 5277TIP3   OH215773   5.408   7.345   4.442
 5277TIP3    H115774   5.458   7.341   4.360
 5277TIP3    H215775   5.355   7.424   4.433
 5278TIP3   OH215776   4.460   4.843   1.714
 5278TIP3    H115777   4.409   4.763   1.729
 5278TIP3    H215778   4.397   4.905   1.677
 5279TIP3   OH215779   3.240   6.444   6.157
 5279TIP3    H115780   3.151   6.410   6.155
 5279TIP3    H215781   3.286   6.395   6.089
 5280TIP3   OH215782   6.023   2.372   0.656
 5280TIP3    H115783   6.065   2.458   0.645
 5280TIP3    H215784   5.939   2.392   0.696
 5281TIP3   OH215785   4.792   0.014   2.016
 5281TIP3    H115786   4.740   0.040   1.940
 5281TIP3    H215787   4.835  -0.067   1.990
 5282TIP3   OH215788   7.666   6.717   6.224
 5282TIP3    H115789   7.643   6.742   6.313
 5282TIP3    H215790   7.638   6.626   6.216
 5283TIP3   OH215791   6.726   2.847   2.705
 5283TIP3    H115792   6.655   2.800   2.661
 5283TIP3    H215793   6.707   2.838   2.799
 5284TIP3   OH215794   1.672   0.263   6.455
 5284TIP3    H115795   1.724   0.183   6.448
 5284TIP3    H215796   1.719   0.327   6.402
 5285TIP3   OH215797   0.678   6.563   0.564
 5285TIP3    H115798   0.726   6.622   0.622
 5285TIP3    H215799   0.707   6.475   0.589
 5286TIP3   OH215800   4.738   0.636   3.058
 5286TIP3    H115801   4.760   0.549   3.026
 5286TIP3    H215802   4.822   0.674   3.085
 5287TIP3   OH215803   4.181   0.702   3.840
 5287TIP3    H115804   4.110   0.656   3.884
 5287TIP3    H215805   4.195   0.654   3.759
 5288TIP3   OH215806   7.487   2.782   2.695
 5288TIP3    H115807   7.513   2.727   2.768
 5288TIP3    H215808   7.471   2.868   2.734
 5289TIP3   OH215809   1.776   7.127   2.598
 5289TIP3    H115810   1.840   7.160   2.661
 5289TIP3    H215811   1.692   7.158   2.630
 5290TIP3   OH215812   1.234   3.319   1.501
 5290TIP3    H115813   1.279   3.373   1.565
 5290TIP3    H215814   1.149   3.362   1.489
 5291TIP3   OH215815   3.760   2.435   3.466
 5291TIP3    H115816   3.712   2.352   3.474
 5291TIP3    H215817   3.770   2.465   3.556
 5292TIP3   OH215818   3.058   6.569   4.864
 5292TIP3    H115819   3.143   6.561   4.907
 5292TIP3    H215820   3.002   6.609   4.931
 5293TIP3   OH215821   6.794   1.561   2.740
 5293TIP3    H115822   6.771   1.622   2.811
 5293TIP3    H215823   6.716   1.507   2.728
 5294TIP3   OH215824   2.317   2.787   4.590
 5294TIP3    H115825   2.329   2.814   4.499
 5294TIP3    H215826   2.404   2.760   4.618
 5295TIP3   OH215827   6.693   3.843   0.980
 5295TIP3    H115828   6.602   3.815   0.996
 5295TIP3    H215829   6.736   3.764   0.946
 5296TIP3   OH215830   2.177   1.469   6.657
 5296TIP3    H115831   2.249   1.510   6.609
 5296TIP3    H215832   2.172   1.380   6.622
 5297TIP3   OH215833   8.185   2.174   0.974
 5297TIP3    H115834   8.236   2.172   0.894
 5297TIP3    H215835   8.203   2.089   1.016
 5298TIP3   OH215836   6.709   4.690   5.105
 5298TIP3    H115837   6.708   4.730   5.018
 5298TIP3    H215838   6.721   4.764   5.165
 5299TIP3   OH215839   5.990   0.380   4.221
 5299TIP3    H115840   6.057   0.322   4.184
 5299TIP3    H215841   5.944   0.415   4.145
 5300TIP3   OH215842   7.850   6.154   6.453
 5300TIP3    H115843   7.892   6.100   6.386
 5300TIP3    H215844   7.817   6.230   6.406
 5301TIP3   OH215845   7.958   0.468   1.567
 5301TIP3    H115846   8.011   0.449   1.645
 5301TIP3    H215847   8.021   0.468   1.495
 5302TIP3   OH215848   0.356   4.185   5.812
 5302TIP3    H115849   0.311   4.108   5.848
 5302TIP3    H215850   0.373   4.241   5.887
 5303TIP3   OH215851   3.169   6.926   1.380
 5303TIP3    H115852   3.211   7.010   1.400
 5303TIP3    H215853   3.086   6.930   1.426
 5304TIP3   OH215854   0.742   3.836   5.639
 5304TIP3    H115855   0.781   3.749   5.648
 5304TIP3    H215856   0.796   3.892   5.695
 5305TIP3   OH215857   6.118   5.889   3.691
 5305TIP3    H115858   6.097   5.960   3.752
 5305TIP3    H215859   6.104   5.809   3.742
 5306TIP3   OH215860   6.115   5.335   6.100
 5306TIP3    H115861   6.196   5.364   6.142
 5306TIP3    H215862   6.103   5.245   6.130
 5307TIP3   OH215863   2.346   5.201   4.859
 5307TIP3    H115864   2.400   5.279   4.871
 5307TIP3    H215865   2.405   5.128   4.875
 5308TIP3   OH215866   0.255   2.732   2.733
 5308TIP3    H115867   0.295   2.722   2.819
 5308TIP3    H215868   0.313   2.792   2.686
 5309TIP3   OH215869   2.213   1.433   4.548
 5309TIP3    H115870   2.215   1.529   4.554
 5309TIP3    H215871   2.157   1.406   4.621
 5310TIP3   OH215872   1.741   0.073   5.127
 5310TIP3    H115873   1.750   0.017   5.204
 5310TIP3    H215874   1.705   0.155   5.161
 5311TIP3   OH215875   6.138   0.289   2.647
 5311TIP3    H115876   6.140   0.371   2.697
 5311TIP3    H215877   6.063   0.300   2.587
 5312TIP3   OH215878   4.757   4.528   5.105
 5312TIP3    H115879   4.762   4.440   5.066
 5312TIP3    H215880   4.838   4.570   5.079
 5313TIP3   OH215881   3.831   2.561   1.685
 5313TIP3    H115882   3.753   2.580   1.634
 5313TIP3    H215883   3.904   2.579   1.625
 5314TIP3   OH215884   6.213   6.937   2.383
 5314TIP3    H115885   6.204   7.004   2.315
 5314TIP3    H215886   6.124   6.923   2.414
 5315TIP3   OH215887   2.740   4.364   2.583
 5315TIP3    H115888   2.739   4.380   2.489
 5315TIP3    H215889   2.804   4.426   2.618
 5316TIP3   OH215890   7.782   1.002   2.420
 5316TIP3    H115891   7.837   0.952   2.360
 5316TIP3    H215892   7.753   1.078   2.368
 5317TIP3   OH215893   4.053   6.325   3.411
 5317TIP3    H115894   3.958   6.336   3.423
 5317TIP3    H215895   4.063   6.302   3.319
 5318TIP3   OH215896   7.930   2.444   6.610
 5318TIP3    H115897   7.896   2.354   6.615
 5318TIP3    H215898   8.003   2.438   6.549
 5319TIP3   OH215899   3.065   3.410   4.153
 5319TIP3    H115900   3.103   3.448   4.232
 5319TIP3    H215901   3.011   3.480   4.116
 5320TIP3   OH215902   8.268   6.815   2.229
 5320TIP3    H115903   8.186   6.831   2.276
 5320TIP3    H215904   8.265   6.876   2.155
 5321TIP3   OH215905   1.505   0.919   6.440
 5321TIP3    H115906   1.479   0.848   6.380
 5321TIP3    H215907   1.600   0.925   6.429
 5322TIP3   OH215908   3.769   2.241   6.734
 5322TIP3    H115909   3.696   2.220   6.676
 5322TIP3    H215910   3.736   2.311   6.790
 5323TIP3   OH215911   2.360   2.002   2.430
 5323TIP3    H115912   2.412   1.966   2.357
 5323TIP3    H215913   2.323   1.925   2.473
 5324TIP3   OH215914   0.276   2.549   1.017
 5324TIP3    H115915   0.250   2.484   1.083
 5324TIP3    H215916   0.365   2.574   1.041
 5325TIP3   OH215917   0.311   5.851   5.052
 5325TIP3    H115918   0.329   5.870   4.960
 5325TIP3    H215919   0.291   5.757   5.053
 5326TIP3   OH215920   2.792   5.795   3.800
 5326TIP3    H115921   2.868   5.853   3.808
 5326TIP3    H215922   2.815   5.736   3.728
 5327TIP3   OH215923   3.779   7.185   2.648
 5327TIP3    H115924   3.716   7.154   2.713
 5327TIP3    H215925   3.725   7.209   2.573
 5328TIP3   OH215926   0.576   0.320   1.719
 5328TIP3    H115927   0.666   0.288   1.718
 5328TIP3    H215928   0.574   0.391   1.655
 5329TIP3   OH215929   1.636   6.121   2.741
 5329TIP3    H115930   1.726   6.144   2.763
 5329TIP3    H215931   1.611   6.183   2.672
 5330TIP3   OH215932   0.893   2.991   1.558
 5330TIP3    H115933   0.880   2.897   1.550
 5330TIP3    H215934   0.859   3.013   1.645
 5331TIP3   OH215935   2.933   7.140   5.116
 5331TIP3    H115936   3.015   7.141   5.166
 5331TIP3    H215937   2.864   7.144   5.183
 5332TIP3   OH215938   2.451   6.970   4.654
 5332TIP3    H115939   2.474   6.917   4.730
 5332TIP3    H215940   2.536   6.992   4.614
 5333TIP3   OH215941   0.936   2.168   0.429
 5333TIP3    H115942   0.990   2.094   0.403
 5333TIP3    H215943   0.849   2.131   0.445
 5334TIP3   OH215944   8.039   3.608   5.517
 5334TIP3    H115945   8.128   3.574   5.509
 5334TIP3    H215946   8.038   3.685   5.461
 5335TIP3   OH215947   4.815   4.480   5.697
 5335TIP3    H115948   4.850   4.397   5.731
 5335TIP3    H215949   4.886   4.543   5.712
 5336TIP3   OH215950   2.688   2.335   0.978
 5336TIP3    H115951   2.768   2.384   0.995
 5336TIP3    H215952   2.706   2.289   0.896
 5337TIP3   OH215953   0.839   6.662   2.979
 5337TIP3    H115954   0.783   6.612   2.919
 5337TIP3    H215955   0.811   6.634   3.066
 5338TIP3   OH215956   3.991   1.814   1.894
 5338TIP3    H115957   4.019   1.801   1.804
 5338TIP3    H215958   4.072   1.817   1.945
 5339TIP3   OH215959   6.719   4.485   2.046
 5339TIP3    H115960   6.674   4.421   2.102
 5339TIP3    H215961   6.708   4.452   1.957
 5340TIP3   OH215962   3.875   0.580   0.326
 5340TIP3    H115963   3.908   0.619   0.408
 5340TIP3    H215964   3.827   0.503   0.354
 5341TIP3   OH215965   1.231   1.078   4.845
 5341TIP3    H115966   1.306   1.019   4.856
 5341TIP3    H215967   1.187   1.076   4.930
 5342TIP3   OH215968   5.036   5.596   2.137
 5342TIP3    H115969   5.108   5.538   2.161
 5342TIP3    H215970   4.964   5.569   2.194
 5343TIP3   OH215971   8.415   4.366   3.124
 5343TIP3    H115972   8.475   4.439   3.142
 5343TIP3    H215973   8.379   4.342   3.210
 5344TIP3   OH215974   3.055   4.212   4.693
 5344TIP3    H115975   3.060   4.307   4.700
 5344TIP3    H215976   3.046   4.196   4.599
 5345TIP3   OH215977   6.566   0.696   5.464
 5345TIP3    H115978   6.544   0.610   5.427
 5345TIP3    H215979   6.652   0.717   5.427
 5346TIP3   OH215980   3.108   3.808   1.036
 5346TIP3    H115981   3.086   3.716   1.022
 5346TIP3    H215982   3.145   3.811   1.124
 5347TIP3   OH215983   5.417   3.112   4.436
 5347TIP3    H115984   5.389   3.033   4.482
 5347TIP3    H215985   5.511   3.119   4.454
 5348TIP3   OH215986   6.085   7.273   6.301
 5348TIP3    H115987   6.019   7.322   6.252
 5348TIP3    H215988   6.159   7.264   6.241
 5349TIP3   OH215989   3.879   3.473   2.918
 5349TIP3    H115990   3.975   3.463   2.917
 5349TIP3    H215991   3.862   3.516   3.002
 5350TIP3   OH215992   5.919   7.326   5.440
 5350TIP3    H115993   5.903   7.374   5.522
 5350TIP3    H215994   5.915   7.393   5.372
 5351TIP3   OH215995   7.636   0.063   2.824
 5351TIP3    H115996   7.618   0.118   2.900
 5351TIP3    H215997   7.671  -0.018   2.862
 5352TIP3   OH215998   5.995   2.160   0.492
 5352TIP3    H115999   5.901   2.156   0.511
 5352TIP3    H216000   6.020   2.250   0.512
 5353TIP3   OH216001   5.208   4.691   2.146
 5353TIP3    H116002   5.241   4.710   2.234
 5353TIP3    H216003   5.189   4.597   2.148
 5354TIP3   OH216004   5.288   7.240   6.069
 5354TIP3    H116005   5.366   7.192   6.040
 5354TIP3    H216006   5.322   7.326   6.095
 5355TIP3   OH216007   3.453   3.964   3.712
 5355TIP3    H116008   3.368   3.992   3.747
 5355TIP3    H216009   3.498   4.046   3.691
 5356TIP3   OH216010   4.789   2.547   6.439
 5356TIP3    H116011   4.854   2.581   6.500
 5356TIP3    H216012   4.838   2.484   6.386
 5357TIP3   OH216013   1.264   2.620   0.337
 5357TIP3    H116014   1.257   2.619   0.432
 5357TIP3    H216015   1.220   2.540   0.308
 5358TIP3   OH216016   1.955   6.906   1.985
 5358TIP3    H116017   1.860   6.897   1.980
 5358TIP3    H216018   1.976   6.882   2.075
 5359TIP3   OH216019   7.324   0.627   4.520
 5359TIP3    H116020   7.378   0.557   4.484
 5359TIP3    H216021   7.235   0.603   4.497
 5360TIP3   OH216022   6.931   7.370   2.859
 5360TIP3    H116023   6.891   7.306   2.917
 5360TIP3    H216024   6.933   7.451   2.911
 5361TIP3   OH216025   5.256   2.651   1.962
 5361TIP3    H116026   5.170   2.688   1.942
 5361TIP3    H216027   5.318   2.707   1.915
 5362TIP3   OH216028   6.462   3.852   4.883
 5362TIP3    H116029   6.370   3.874   4.895
 5362TIP3    H216030   6.496   3.920   4.826
 5363TIP3   OH216031   4.682   3.741   3.173
 5363TIP3    H116032   4.655   3.689   3.248
 5363TIP3    H216033   4.706   3.676   3.106
 5364TIP3   OH216034   4.535   1.707   2.293
 5364TIP3    H116035   4.472   1.764   2.338
 5364TIP3    H216036   4.571   1.652   2.363
 5365TIP3   OH216037   3.166   2.045   6.313
 5365TIP3    H116038   3.124   1.959   6.320
 5365TIP3    H216039   3.205   2.059   6.400
 5366TIP3   OH216040   7.288   5.424   3.123
 5366TIP3    H116041   7.252   5.507   3.154
 5366TIP3    H216042   7.243   5.357   3.175
 5367TIP3   OH216043   0.527   2.631   0.925
 5367TIP3    H116044   0.546   2.641   0.832
 5367TIP3    H216045   0.590   2.565   0.955
 5368TIP3   OH216046   0.934   6.947   5.022
 5368TIP3    H116047   0.987   6.890   4.965
 5368TIP3    H216048   0.957   7.036   4.995
 5369TIP3   OH216049   5.937   7.364   1.595
 5369TIP3    H116050   5.864   7.328   1.545
 5369TIP3    H216051   5.978   7.427   1.536
 5370TIP3   OH216052   2.804   2.982   1.354
 5370TIP3    H116053   2.894   2.951   1.364
 5370TIP3    H216054   2.778   3.014   1.441
 5371TIP3   OH216055   6.031   4.585   4.179
 5371TIP3    H116056   5.944   4.595   4.138
 5371TIP3    H216057   6.078   4.525   4.121
 5372TIP3   OH216058   3.490   0.020   6.242
 5372TIP3    H116059   3.493  -0.053   6.181
 5372TIP3    H216060   3.442   0.089   6.195
 5373TIP3   OH216061   0.171   0.619   5.609
 5373TIP3    H116062   0.161   0.556   5.538
 5373TIP3    H216063   0.157   0.569   5.689
 5374TIP3   OH216064   2.149   3.672   3.307
 5374TIP3    H116065   2.087   3.638   3.242
 5374TIP3    H216066   2.212   3.724   3.255
 5375TIP3   OH216067   4.937   6.102   5.647
 5375TIP3    H116068   4.970   6.071   5.731
 5375TIP3    H216069   4.851   6.062   5.639
 5376TIP3   OH216070   6.768   2.217   5.555
 5376TIP3    H116071   6.702   2.171   5.503
 5376TIP3    H216072   6.718   2.280   5.607
 5377TIP3   OH216073   0.538   5.662   4.617
 5377TIP3    H116074   0.455   5.623   4.591
 5377TIP3    H216075   0.601   5.590   4.611
 5378TIP3   OH216076   3.568   1.899   6.031
 5378TIP3    H116077   3.593   1.825   6.085
 5378TIP3    H216078   3.626   1.970   6.059
 5379TIP3   OH216079   7.194   6.003   0.659
 5379TIP3    H116080   7.281   6.026   0.625
 5379TIP3    H216081   7.211   5.949   0.736
 5380TIP3   OH216082   6.821   2.601   4.125
 5380TIP3    H116083   6.838   2.629   4.215
 5380TIP3    H216084   6.780   2.676   4.083
 5381TIP3   OH216085   4.003   0.906   1.019
 5381TIP3    H116086   4.048   0.916   0.935
 5381TIP3    H216087   3.920   0.951   1.007
 5382TIP3   OH216088   2.348   6.852   0.448
 5382TIP3    H116089   2.374   6.894   0.531
 5382TIP3    H216090   2.275   6.795   0.473
 5383TIP3   OH216091   0.643   4.590   6.525
 5383TIP3    H116092   0.654   4.496   6.512
 5383TIP3    H216093   0.714   4.629   6.474
 5384TIP3   OH216094   3.076   4.398   6.141
 5384TIP3    H116095   3.130   4.452   6.198
 5384TIP3    H216096   3.023   4.345   6.200
 5385TIP3   OH216097   2.596   2.420   5.132
 5385TIP3    H116098   2.685   2.454   5.119
 5385TIP3    H216099   2.609   2.333   5.171
 5386TIP3   OH216100   0.743   1.527   2.616
 5386TIP3    H116101   0.660   1.567   2.640
 5386TIP3    H216102   0.738   1.517   2.521
 5387TIP3   OH216103   4.817   7.233   0.788
 5387TIP3    H116104   4.750   7.270   0.731
 5387TIP3    H216105   4.894   7.288   0.773
 5388TIP3   OH216106   1.121   4.692   3.544
 5388TIP3    H116107   1.194   4.633   3.526
 5388TIP3    H216108   1.158   4.758   3.604
 5389TIP3   OH216109   3.786   4.835   4.777
 5389TIP3    H116110   3.699   4.821   4.813
 5389TIP3    H216111   3.819   4.747   4.758
 5390TIP3   OH216112   4.877   6.503   5.034
 5390TIP3    H116113   4.810   6.530   5.097
 5390TIP3    H216114   4.828   6.456   4.966
 5391TIP3   OH216115   4.472   5.386   5.576
 5391TIP3    H116116   4.429   5.464   5.542
 5391TIP3    H216117   4.401   5.327   5.600
 5392TIP3   OH216118   5.078   5.688   0.556
 5392TIP3    H116119   5.003   5.748   0.550
 5392TIP3    H216120   5.104   5.673   0.465
 5393TIP3   OH216121   2.023   2.105   1.186
 5393TIP3    H116122   2.085   2.174   1.163
 5393TIP3    H216123   1.975   2.140   1.261
 5394TIP3   OH216124   3.305   5.405   4.633
 5394TIP3    H116125   3.295   5.368   4.545
 5394TIP3    H216126   3.398   5.392   4.654
 5395TIP3   OH216127   2.269   6.177   5.893
 5395TIP3    H116128   2.328   6.187   5.818
 5395TIP3    H216129   2.227   6.092   5.879
 5396TIP3   OH216130   1.222   5.773   4.446
 5396TIP3    H116131   1.209   5.858   4.405
 5396TIP3    H216132   1.164   5.772   4.522
 5397TIP3   OH216133   1.512   0.314   1.937
 5397TIP3    H116134   1.597   0.356   1.943
 5397TIP3    H216135   1.474   0.346   1.855
 5398TIP3   OH216136   7.284   4.865   0.228
 5398TIP3    H116137   7.288   4.802   0.155
 5398TIP3    H216138   7.358   4.842   0.284
 5399TIP3   OH216139   8.317   3.129   5.463
 5399TIP3    H116140   8.378   3.168   5.526
 5399TIP3    H216141   8.232   3.130   5.508
 5400TIP3   OH216142   2.876   2.869   6.269
 5400TIP3    H116143   2.929   2.836   6.342
 5400TIP3    H216144   2.927   2.941   6.234
 5401TIP3   OH216145   5.889   2.634   6.252
 5401TIP3    H116146   5.878   2.727   6.273
 5401TIP3    H216147   5.825   2.617   6.183
 5402TIP3   OH216148   8.202   5.847   3.200
 5402TIP3    H116149   8.242   5.761   3.208
 5402TIP3    H216150   8.108   5.831   3.207
 5403TIP3   OH216151   7.263   1.998   0.786
 5403TIP3    H116152   7.328   1.956   0.842
 5403TIP3    H216153   7.292   1.976   0.697
 5404TIP3   OH216154   3.886   3.008   2.615
 5404TIP3    H116155   3.808   3.064   2.612
 5404TIP3    H216156   3.868   2.938   2.552
 5405TIP3   OH216157   7.079   2.221   1.353
 5405TIP3    H116158   7.046   2.283   1.289
 5405TIP3    H216159   7.035   2.139   1.332
 5406TIP3   OH216160   6.160   7.734   6.261
 5406TIP3    H116161   6.071   7.758   6.233
 5406TIP3    H216162   6.217   7.765   6.191
 5407TIP3   OH216163   5.707   3.103   2.400
 5407TIP3    H116164   5.784   3.141   2.358
 5407TIP3    H216165   5.656   3.065   2.328
 5408TIP3   OH216166   5.459   5.234   4.582
 5408TIP3    H116167   5.537   5.216   4.635
 5408TIP3    H216168   5.390   5.253   4.646
 5409TIP3   OH216169   7.452   0.090   0.594
 5409TIP3    H116170   7.515   0.080   0.664
 5409TIP3    H216171   7.451   0.184   0.575
 5410TIP3   OH216172   4.105   0.843   1.649
 5410TIP3    H116173   4.122   0.927   1.692
 5410TIP3    H216174   4.010   0.842   1.634
 5411TIP3   OH216175   7.544   4.463   2.603
 5411TIP3    H116176   7.489   4.541   2.598
 5411TIP3    H216177   7.539   4.435   2.694
 5412TIP3   OH216178   7.867   0.731   1.840
 5412TIP3    H116179   7.882   0.695   1.927
 5412TIP3    H216180   7.926   0.806   1.835
 5413TIP3   OH216181   8.155   0.479   0.368
 5413TIP3    H116182   8.166   0.476   0.463
 5413TIP3    H216183   8.086   0.416   0.350
 5414TIP3   OH216184   3.345   3.074   4.436
 5414TIP3    H116185   3.435   3.106   4.435
 5414TIP3    H216186   3.352   2.984   4.468
 5415TIP3   OH216187   5.811   0.712   6.668
 5415TIP3    H116188   5.888   0.672   6.708
 5415TIP3    H216189   5.742   0.702   6.734
 5416TIP3   OH216190   7.786   2.017   4.788
 5416TIP3    H116191   7.802   2.085   4.723
 5416TIP3    H216192   7.853   1.951   4.770
 5417TIP3   OH216193   0.762   3.959   0.936
 5417TIP3    H116194   0.787   3.996   0.851
 5417TIP3    H216195   0.741   4.035   0.990
 5418TIP3   OH216196   3.790   0.472   2.465
 5418TIP3    H116197   3.700   0.503   2.475
 5418TIP3    H216198   3.832   0.492   2.548
 5419TIP3   OH216199   7.924   7.637   4.591
 5419TIP3    H116200   7.868   7.712   4.611
 5419TIP3    H216201   7.911   7.622   4.497
 5420TIP3   OH216202   2.503   1.874   2.729
 5420TIP3    H116203   2.479   1.966   2.718
 5420TIP3    H216204   2.545   1.850   2.646
 5421TIP3   OH216205   6.621   4.948   0.282
 5421TIP3    H116206   6.567   4.951   0.361
 5421TIP3    H216207   6.587   5.019   0.227
 5422TIP3   OH216208   5.818   0.965   0.247
 5422TIP3    H116209   5.788   1.056   0.238
 5422TIP3    H216210   5.826   0.953   0.342
 5423TIP3   OH216211   3.352   3.232   0.059
 5423TIP3    H116212   3.304   3.156   0.026
 5423TIP3    H216213   3.299   3.263   0.133
 5424TIP3   OH216214   0.816   7.382   1.217
 5424TIP3    H116215   0.854   7.436   1.286
 5424TIP3    H216216   0.859   7.296   1.228
 5425TIP3   OH216217   3.348   5.455   3.068
 5425TIP3    H116218   3.322   5.548   3.067
 5425TIP3    H216219   3.410   5.449   3.140
 5426TIP3   OH216220   5.825   3.954   0.550
 5426TIP3    H116221   5.808   3.879   0.606
 5426TIP3    H216222   5.772   4.024   0.587
 5427TIP3   OH216223   2.807   5.102   3.337
 5427TIP3    H116224   2.845   5.114   3.424
 5427TIP3    H216225   2.761   5.184   3.320
 5428TIP3   OH216226   6.808   6.252   5.410
 5428TIP3    H116227   6.778   6.165   5.381
 5428TIP3    H216228   6.820   6.301   5.330
 5429TIP3   OH216229   1.722   5.645   0.588
 5429TIP3    H116230   1.663   5.588   0.538
 5429TIP3    H216231   1.708   5.619   0.679
 5430TIP3   OH216232   8.131   2.596   1.654
 5430TIP3    H116233   8.097   2.613   1.567
 5430TIP3    H216234   8.140   2.501   1.658
 5431TIP3   OH216235   1.996   6.188   6.202
 5431TIP3    H116236   1.987   6.213   6.294
 5431TIP3    H216237   2.010   6.271   6.157
 5432TIP3   OH216238   3.777   5.997   2.791
 5432TIP3    H116239   3.796   6.045   2.710
 5432TIP3    H216240   3.735   5.916   2.761
 5433TIP3   OH216241   4.107   7.632   3.540
 5433TIP3    H116242   4.121   7.634   3.635
 5433TIP3    H216243   4.012   7.629   3.530
 5434TIP3   OH216244   4.163   6.732   5.047
 5434TIP3    H116245   4.126   6.689   5.124
 5434TIP3    H216246   4.115   6.814   5.040
 5435TIP3   OH216247   6.847   0.551   1.746
 5435TIP3    H116248   6.842   0.462   1.712
 5435TIP3    H216249   6.940   0.572   1.744
 5436TIP3   OH216250   1.828  -0.016   3.606
 5436TIP3    H116251   1.846   0.076   3.625
 5436TIP3    H216252   1.785  -0.049   3.684
 5437TIP3   OH216253   5.108   0.135   2.347
 5437TIP3    H116254   5.047   0.161   2.277
 5437TIP3    H216255   5.182   0.096   2.301
 5438TIP3   OH216256   1.122   7.240   5.192
 5438TIP3    H116257   1.100   7.153   5.159
 5438TIP3    H216258   1.114   7.233   5.287
 5439TIP3   OH216259   3.337   3.554   0.844
 5439TIP3    H116260   3.322   3.464   0.873
 5439TIP3    H216261   3.410   3.548   0.783
 5440TIP3   OH216262   4.125   7.388   5.427
 5440TIP3    H116263   4.084   7.441   5.496
 5440TIP3    H216264   4.199   7.346   5.470
 5441TIP3   OH216265   4.943   1.628   1.537
 5441TIP3    H116266   5.000   1.566   1.582
 5441TIP3    H216267   4.857   1.618   1.578
 5442TIP3   OH216268   5.317   2.186   1.708
 5442TIP3    H116269   5.301   2.279   1.719
 5442TIP3    H216270   5.262   2.160   1.633
 5443TIP3   OH216271   4.209   0.163   3.167
 5443TIP3    H116272   4.272   0.093   3.181
 5443TIP3    H216273   4.141   0.148   3.232
 5444TIP3   OH216274   6.299   1.800   2.926
 5444TIP3    H116275   6.358   1.754   2.987
 5444TIP3    H216276   6.332   1.776   2.839
 5445TIP3   OH216277   6.847   5.019   1.990
 5445TIP3    H116278   6.869   4.981   2.075
 5445TIP3    H216279   6.811   4.947   1.939
 5446TIP3   OH216280   2.048   5.292   5.512
 5446TIP3    H116281   2.139   5.273   5.534
 5446TIP3    H216282   2.027   5.371   5.563
 5447TIP3   OH216283   0.848   1.437   5.471
 5447TIP3    H116284   0.823   1.346   5.485
 5447TIP3    H216285   0.766   1.481   5.448
 5448TIP3   OH216286   3.037   6.621   1.273
 5448TIP3    H116287   3.081   6.705   1.257
 5448TIP3    H216288   3.053   6.604   1.366
 5449TIP3   OH216289   4.139   1.460   1.032
 5449TIP3    H116290   4.063   1.488   1.083
 5449TIP3    H216291   4.106   1.449   0.943
 5450TIP3   OH216292   0.680   1.738   2.843
 5450TIP3    H116293   0.711   1.711   2.929
 5450TIP3    H216294   0.677   1.834   2.847
 5451TIP3   OH216295   6.585   2.429   0.041
 5451TIP3    H116296   6.669   2.386   0.024
 5451TIP3    H216297   6.520   2.360   0.026
 5452TIP3   OH216298   2.531   5.683   1.207
 5452TIP3    H116299   2.599   5.655   1.270
 5452TIP3    H216300   2.465   5.726   1.261
 5453TIP3   OH216301   8.236   0.071   1.074
 5453TIP3    H116302   8.316   0.103   1.115
 5453TIP3    H216303   8.174   0.060   1.147
 5454TIP3   OH216304   1.076   0.574   0.181
 5454TIP3    H116305   1.046   0.651   0.132
 5454TIP3    H216306   1.043   0.588   0.270
 5455TIP3   OH216307   0.356   5.086   4.275
 5455TIP3    H116308   0.275   5.116   4.317
 5455TIP3    H216309   0.394   5.024   4.337
 5456TIP3   OH216310   6.004   4.498   6.683
 5456TIP3    H116311   6.027   4.559   6.753
 5456TIP3    H216312   6.088   4.466   6.649
 5457TIP3   OH216313   4.570   0.272   6.624
 5457TIP3    H116314   4.578   0.243   6.715
 5457TIP3    H216315   4.598   0.364   6.626
 5458TIP3   OH216316   3.915   3.522   6.521
 5458TIP3    H116317   3.854   3.449   6.523
 5458TIP3    H216318   3.929   3.538   6.427
 5459TIP3   OH216319   3.727   6.760   6.456
 5459TIP3    H116320   3.712   6.705   6.532
 5459TIP3    H216321   3.819   6.785   6.463
 5460TIP3   OH216322   4.791   3.641   6.592
 5460TIP3    H116323   4.816   3.555   6.625
 5460TIP3    H216324   4.725   3.623   6.524
 5461TIP3   OH216325   4.525   3.878   5.996
 5461TIP3    H116326   4.560   3.958   5.956
 5461TIP3    H216327   4.533   3.812   5.927
 5462TIP3   OH216328   8.204   1.749   6.236
 5462TIP3    H116329   8.123   1.714   6.271
 5462TIP3    H216330   8.234   1.813   6.301
 5463TIP3   OH216331   7.333   5.796   6.654
 5463TIP3    H116332   7.242   5.815   6.633
 5463TIP3    H216333   7.345   5.833   6.741
 5464TIP3   OH216334   7.426   6.126   1.913
 5464TIP3    H116335   7.403   6.136   1.821
 5464TIP3    H216336   7.434   6.215   1.946
 5465TIP3   OH216337   3.688   2.168   3.183
 5465TIP3    H116338   3.626   2.219   3.236
 5465TIP3    H216339   3.672   2.196   3.093
 5466TIP3   OH216340   1.156   7.594   4.197
 5466TIP3    H116341   1.170   7.543   4.277
 5466TIP3    H216342   1.243   7.620   4.168
 5467TIP3   OH216343   1.424   2.833   1.833
 5467TIP3    H116344   1.420   2.926   1.811
 5467TIP3    H216345   1.493   2.826   1.898
 5468TIP3   OH216346   3.145   3.748   5.848
 5468TIP3    H116347   3.164   3.777   5.937
 5468TIP3    H216348   3.056   3.712   5.853
 5469TIP3   OH216349   3.184   1.088   1.856
 5469TIP3    H116350   3.179   1.116   1.948
 5469TIP3    H216351   3.100   1.044   1.840
 5470TIP3   OH216352   7.097   1.255   5.317
 5470TIP3    H116353   7.102   1.326   5.381
 5470TIP3    H216354   7.147   1.287   5.242
 5471TIP3   OH216355   2.336   6.228   0.131
 5471TIP3    H116356   2.333   6.193   0.042
 5471TIP3    H216357   2.396   6.170   0.178
 5472TIP3   OH216358   4.602   1.072   5.530
 5472TIP3    H116359   4.555   1.054   5.448
 5472TIP3    H216360   4.609   1.168   5.532
 5473TIP3   OH216361   6.640   5.815   3.320
 5473TIP3    H116362   6.691   5.772   3.389
 5473TIP3    H216363   6.706   5.847   3.258
 5474TIP3   OH216364   6.870   6.514   6.303
 5474TIP3    H116365   6.804   6.467   6.253
 5474TIP3    H216366   6.950   6.506   6.250
 5475TIP3   OH216367   6.802   4.964   6.438
 5475TIP3    H116368   6.853   4.890   6.471
 5475TIP3    H216369   6.803   4.954   6.343
 5476TIP3   OH216370   0.885   3.692   0.977
 5476TIP3    H116371   0.795   3.678   0.948
 5476TIP3    H216372   0.885   3.780   1.014
 5477TIP3   OH216373   4.615   5.643   4.735
 5477TIP3    H116374   4.528   5.602   4.731
 5477TIP3    H216375   4.640   5.638   4.827
 5478TIP3   OH216376   0.922   2.758   2.428
 5478TIP3    H116377   0.898   2.666   2.414
 5478TIP3    H216378   1.000   2.753   2.484
 5479TIP3   OH216379   7.862   0.224   6.254
 5479TIP3    H116380   7.957   0.238   6.252
 5479TIP3    H216381   7.851   0.130   6.248
 5480TIP3   OH216382   4.337   5.987   2.954
 5480TIP3    H116383   4.299   6.007   2.868
 5480TIP3    H216384   4.272   5.932   2.998
 5481TIP3   OH216385   4.406   3.627   2.653
 5481TIP3    H116386   4.324   3.657   2.614
 5481TIP3    H216387   4.454   3.587   2.580
 5482TIP3   OH216388   1.986   4.049   0.408
 5482TIP3    H116389   2.036   3.976   0.369
 5482TIP3    H216390   1.926   4.006   0.470
 5483TIP3   OH216391   7.244   4.686   3.538
 5483TIP3    H116392   7.231   4.751   3.469
 5483TIP3    H216393   7.233   4.737   3.619
 5484TIP3   OH216394   5.377   6.305   1.661
 5484TIP3    H116395   5.330   6.226   1.634
 5484TIP3    H216396   5.389   6.354   1.579
 5485TIP3   OH216397   6.275   1.049   1.853
 5485TIP3    H116398   6.187   1.018   1.832
 5485TIP3    H216399   6.334   0.986   1.810
 5486TIP3   OH216400   5.407   3.011   5.210
 5486TIP3    H116401   5.392   2.971   5.125
 5486TIP3    H216402   5.320   3.020   5.248
 5487TIP3   OH216403   0.615   2.024   5.097
 5487TIP3    H116404   0.653   2.089   5.156
 5487TIP3    H216405   0.629   1.940   5.141
 5488TIP3   OH216406   4.823   6.083   4.705
 5488TIP3    H116407   4.795   6.172   4.685
 5488TIP3    H216408   4.913   6.093   4.736
 5489TIP3   OH216409   2.264   3.811   5.627
 5489TIP3    H116410   2.259   3.765   5.543
 5489TIP3    H216411   2.239   3.901   5.607
 5490TIP3   OH216412   5.537   2.838   3.539
 5490TIP3    H116413   5.448   2.821   3.568
 5490TIP3    H216414   5.588   2.762   3.568
 5491TIP3   OH216415   4.668   7.578   3.729
 5491TIP3    H116416   4.596   7.639   3.717
 5491TIP3    H216417   4.747   7.631   3.722
 5492TIP3   OH216418   5.868   6.693   2.885
 5492TIP3    H116419   5.834   6.738   2.807
 5492TIP3    H216420   5.851   6.755   2.956
 5493TIP3   OH216421   1.039   2.352   2.397
 5493TIP3    H116422   0.949   2.354   2.365
 5493TIP3    H216423   1.043   2.274   2.452
 5494TIP3   OH216424   7.259   3.393   4.070
 5494TIP3    H116425   7.225   3.438   3.993
 5494TIP3    H216426   7.324   3.331   4.036
 5495TIP3   OH216427   5.579   2.938   2.225
 5495TIP3    H116428   5.493   2.902   2.205
 5495TIP3    H216429   5.636   2.902   2.157
 5496TIP3   OH216430   0.342   4.902   6.380
 5496TIP3    H116431   0.308   4.992   6.372
 5496TIP3    H216432   0.414   4.909   6.443
 5497TIP3   OH216433   4.939   4.303   6.118
 5497TIP3    H116434   4.977   4.352   6.045
 5497TIP3    H216435   4.894   4.370   6.170
 5498TIP3   OH216436   5.837   0.205   1.301
 5498TIP3    H116437   5.828   0.246   1.215
 5498TIP3    H216438   5.837   0.279   1.363
 5499TIP3   OH216439   1.047   5.267   1.596
 5499TIP3    H116440   0.993   5.256   1.674
 5499TIP3    H216441   1.039   5.184   1.549
 5500TIP3   OH216442   0.242   6.313   4.571
 5500TIP3    H116443   0.181   6.385   4.556
 5500TIP3    H216444   0.189   6.234   4.563
 5501TIP3   OH216445   2.674   5.554   6.612
 5501TIP3    H116446   2.736   5.522   6.546
 5501TIP3    H216447   2.607   5.601   6.562
 5502TIP3   OH216448   6.913   1.815   3.616
 5502TIP3    H116449   6.854   1.743   3.595
 5502TIP3    H216450   6.961   1.832   3.535
 5503TIP3   OH216451   1.712   2.518   4.418
 5503TIP3    H116452   1.807   2.525   4.431
 5503TIP3    H216453   1.698   2.551   4.330
 5504TIP3   OH216454   7.211   7.203   2.775
 5504TIP3    H116455   7.177   7.263   2.709
 5504TIP3    H216456   7.205   7.116   2.734
 5505TIP3   OH216457   2.548   1.770   4.886
 5505TIP3    H116458   2.515   1.684   4.861
 5505TIP3    H216459   2.563   1.815   4.803
 5506TIP3   OH216460   4.026   3.205   2.812
 5506TIP3    H116461   4.099   3.163   2.857
 5506TIP3    H216462   3.976   3.132   2.775
 5507TIP3   OH216463   3.579   5.037   1.816
 5507TIP3    H116464   3.624   5.003   1.893
 5507TIP3    H216465   3.545   5.122   1.842
 5508TIP3   OH216466   5.672   0.747   1.640
 5508TIP3    H116467   5.622   0.772   1.717
 5508TIP3    H216468   5.702   0.657   1.658
 5509TIP3   OH216469   5.589   2.588   3.695
 5509TIP3    H116470   5.526   2.615   3.762
 5509TIP3    H216471   5.609   2.497   3.716
 5510TIP3   OH216472   1.352   2.250   5.163
 5510TIP3    H116473   1.408   2.173   5.158
 5510TIP3    H216474   1.273   2.220   5.206
 5511TIP3   OH216475   0.201   1.896   4.781
 5511TIP3    H116476   0.262   1.888   4.707
 5511TIP3    H216477   0.175   1.988   4.780
 5512TIP3   OH216478   1.990   1.676   4.362
 5512TIP3    H116479   1.926   1.739   4.394
 5512TIP3    H216480   2.054   1.669   4.433
 5513TIP3   OH216481   6.669   7.367   0.701
 5513TIP3    H116482   6.682   7.384   0.607
 5513TIP3    H216483   6.655   7.454   0.738
 5514TIP3   OH216484   3.023   1.171   6.562
 5514TIP3    H116485   3.107   1.128   6.581
 5514TIP3    H216486   3.038   1.263   6.585
 5515TIP3   OH216487   2.353   1.953   5.779
 5515TIP3    H116488   2.336   1.869   5.820
 5515TIP3    H216489   2.413   1.998   5.838
 5516TIP3   OH216490   7.727   3.653   0.593
 5516TIP3    H116491   7.704   3.630   0.503
 5516TIP3    H216492   7.751   3.746   0.588
 5517TIP3   OH216493   1.175   5.435   3.584
 5517TIP3    H116494   1.194   5.507   3.643
 5517TIP3    H216495   1.079   5.430   3.582
 5518TIP3   OH216496   2.008   3.213   6.202
 5518TIP3    H116497   2.087   3.265   6.185
 5518TIP3    H216498   2.000   3.213   6.298
 5519TIP3   OH216499   6.122   3.172   5.099
 5519TIP3    H116500   6.029   3.152   5.104
 5519TIP3    H216501   6.132   3.252   5.152
 5520TIP3   OH216502   2.229   1.566   5.299
 5520TIP3    H116503   2.256   1.562   5.208
 5520TIP3    H216504   2.192   1.654   5.310
 5521TIP3   OH216505   4.777   6.020   1.570
 5521TIP3    H116506   4.761   5.930   1.599
 5521TIP3    H216507   4.847   6.011   1.504
 5522TIP3   OH216508   6.029   5.977   0.062
 5522TIP3    H116509   5.990   5.901   0.104
 5522TIP3    H216510   6.013   6.049   0.123
 5523TIP3   OH216511   3.461   5.114   2.307
 5523TIP3    H116512   3.415   5.071   2.236
 5523TIP3    H216513   3.420   5.200   2.315
 5524TIP3   OH216514   4.672   3.985   2.748
 5524TIP3    H116515   4.742   3.960   2.808
 5524TIP3    H216516   4.620   4.048   2.798
 5525TIP3   OH216517   5.760   6.318   2.091
 5525TIP3    H116518   5.775   6.224   2.082
 5525TIP3    H216519   5.742   6.347   2.002
 5526TIP3   OH216520   2.169   0.888   5.084
 5526TIP3    H116521   2.104   0.879   5.153
 5526TIP3    H216522   2.242   0.834   5.114
 5527TIP3   OH216523   0.277   0.724   1.257
 5527TIP3    H116524   0.292   0.661   1.327
 5527TIP3    H216525   0.306   0.808   1.293
 5528TIP3   OH216526   4.459   2.940   5.780
 5528TIP3    H116527   4.456   2.980   5.867
 5528TIP3    H216528   4.546   2.961   5.747
 5529TIP3   OH216529   4.893   0.366   0.346
 5529TIP3    H116530   4.798   0.370   0.335
 5529TIP3    H216531   4.905   0.329   0.434
 5530TIP3   OH216532   2.870   3.337   1.843
 5530TIP3    H116533   2.891   3.254   1.886
 5530TIP3    H216534   2.776   3.349   1.857
 5531TIP3   OH216535   8.060   1.825   0.717
 5531TIP3    H116536   8.080   1.804   0.808
 5531TIP3    H216537   8.104   1.757   0.666
 5532TIP3   OH216538   2.733   1.725   4.586
 5532TIP3    H116539   2.717   1.654   4.524
 5532TIP3    H216540   2.710   1.804   4.537
 5533TIP3   OH216541   3.633   3.343   2.235
 5533TIP3    H116542   3.553   3.383   2.201
 5533TIP3    H216543   3.662   3.401   2.305
 5534TIP3   OH216544   7.547   4.310   1.351
 5534TIP3    H116545   7.629   4.266   1.330
 5534TIP3    H216546   7.535   4.294   1.445
 5535TIP3   OH216547   7.204   6.959   2.660
 5535TIP3    H116548   7.172   6.886   2.712
 5535TIP3    H216549   7.193   6.931   2.569
 5536TIP3   OH216550   4.367   7.716   0.575
 5536TIP3    H116551   4.370   7.679   0.487
 5536TIP3    H216552   4.281   7.756   0.582
 5537TIP3   OH216553   6.056   5.803   2.701
 5537TIP3    H116554   6.069   5.862   2.776
 5537TIP3    H216555   6.071   5.716   2.737
 5538TIP3   OH216556   7.907   5.806   0.125
 5538TIP3    H116557   8.001   5.814   0.139
 5538TIP3    H216558   7.883   5.724   0.168
 5539TIP3   OH216559   1.421   5.353   6.408
 5539TIP3    H116560   1.485   5.379   6.341
 5539TIP3    H216561   1.349   5.415   6.397
 5540TIP3   OH216562   6.362   1.091   2.404
 5540TIP3    H116563   6.380   1.042   2.324
 5540TIP3    H216564   6.369   1.025   2.474
 5541TIP3   OH216565   1.353   1.285   0.143
 5541TIP3    H116566   1.290   1.218   0.169
 5541TIP3    H216567   1.334   1.299   0.050
 5542TIP3   OH216568   1.024   2.316   6.110
 5542TIP3    H116569   0.991   2.403   6.088
 5542TIP3    H216570   1.115   2.316   6.081
 5543TIP3   OH216571   6.801   1.226   1.221
 5543TIP3    H116572   6.734   1.231   1.154
 5543TIP3    H216573   6.852   1.307   1.211
 5544TIP3   OH216574   7.250   0.488   0.463
 5544TIP3    H116575   7.268   0.395   0.479
 5544TIP3    H216576   7.330   0.533   0.490
 5545TIP3   OH216577   4.317   6.284   5.871
 5545TIP3    H116578   4.276   6.321   5.793
 5545TIP3    H216579   4.306   6.351   5.938
 5546TIP3   OH216580   3.220   0.787   0.409
 5546TIP3    H116581   3.299   0.808   0.458
 5546TIP3    H216582   3.188   0.706   0.449
 5547TIP3   OH216583   2.312   3.446   5.531
 5547TIP3    H116584   2.364   3.397   5.595
 5547TIP3    H216585   2.371   3.457   5.456
 5548TIP3   OH216586   4.435   1.380   1.788
 5548TIP3    H116587   4.430   1.297   1.740
 5548TIP3    H216588   4.350   1.389   1.830
 5549TIP3   OH216589   0.480   6.298   2.564
 5549TIP3    H116590   0.428   6.323   2.488
 5549TIP3    H216591   0.462   6.367   2.629
 5550TIP3   OH216592   4.137   6.906   1.100
 5550TIP3    H116593   4.161   6.829   1.152
 5550TIP3    H216594   4.205   6.970   1.121
 5551TIP3   OH216595   7.465   1.065   1.406
 5551TIP3    H116596   7.451   0.979   1.365
 5551TIP3    H216597   7.417   1.126   1.350
 5552TIP3   OH216598   2.116   1.473   3.338
 5552TIP3    H116599   2.050   1.501   3.275
 5552TIP3    H216600   2.170   1.410   3.290
 5553TIP3   OH216601   0.542   3.994   3.905
 5553TIP3    H116602   0.629   3.987   3.865
 5553TIP3    H216603   0.547   3.941   3.984
 5554TIP3   OH216604   2.845   3.696   5.133
 5554TIP3    H116605   2.846   3.693   5.228
 5554TIP3    H216606   2.773   3.754   5.111
 5555TIP3   OH216607   1.348   5.023   3.012
 5555TIP3    H116608   1.416   4.955   3.003
 5555TIP3    H216609   1.266   4.974   3.017
 5556TIP3   OH216610   7.325   2.623   0.624
 5556TIP3    H116611   7.356   2.714   0.628
 5556TIP3    H216612   7.328   2.593   0.715
 5557TIP3   OH216613   0.302   1.155   3.325
 5557TIP3    H116614   0.274   1.161   3.417
 5557TIP3    H216615   0.299   1.246   3.293
 5558TIP3   OH216616   1.625   6.498   3.842
 5558TIP3    H116617   1.659   6.447   3.769
 5558TIP3    H216618   1.605   6.433   3.910
 5559TIP3   OH216619   7.517   5.193   4.245
 5559TIP3    H116620   7.571   5.120   4.275
 5559TIP3    H216621   7.427   5.164   4.261
 5560TIP3   OH216622   0.992   0.753   4.047
 5560TIP3    H116623   1.017   0.768   4.138
 5560TIP3    H216624   1.040   0.675   4.021
 5561TIP3   OH216625   5.859   2.313   4.750
 5561TIP3    H116626   5.827   2.370   4.820
 5561TIP3    H216627   5.784   2.256   4.730
 5562TIP3   OH216628   2.167   4.508   5.402
 5562TIP3    H116629   2.178   4.565   5.326
 5562TIP3    H216630   2.073   4.509   5.419
 5563TIP3   OH216631   8.058   6.878   1.475
 5563TIP3    H116632   8.021   6.812   1.534
 5563TIP3    H216633   8.099   6.941   1.533
 5564TIP3   OH216634   4.041   4.976   3.029
 5564TIP3    H116635   4.108   4.908   3.027
 5564TIP3    H216636   3.982   4.950   3.100
 5565TIP3   OH216637   4.052   4.744   6.593
 5565TIP3    H116638   4.082   4.694   6.669
 5565TIP3    H216639   3.992   4.809   6.629
 5566TIP3   OH216640   2.112   3.665   4.261
 5566TIP3    H116641   2.063   3.706   4.332
 5566TIP3    H216642   2.091   3.572   4.269
 5567TIP3   OH216643   5.575   0.107   1.287
 5567TIP3    H116644   5.547   0.104   1.378
 5567TIP3    H216645   5.660   0.151   1.289
 5568TIP3   OH216646   2.782   0.064   1.862
 5568TIP3    H116647   2.857   0.122   1.853
 5568TIP3    H216648   2.810  -0.019   1.821
 5569TIP3   OH216649   3.223   2.375   3.753
 5569TIP3    H116650   3.298   2.434   3.758
 5569TIP3    H216651   3.261   2.288   3.748
 5570TIP3   OH216652   7.831   7.231   4.995
 5570TIP3    H116653   7.759   7.176   5.025
 5570TIP3    H216654   7.905   7.208   5.052
 5571TIP3   OH216655   1.786   5.413   0.035
 5571TIP3    H116656   1.862   5.463   0.008
 5571TIP3    H216657   1.748   5.381  -0.047
 5572TIP3   OH216658   1.905   3.331   4.765
 5572TIP3    H116659   1.905   3.391   4.840
 5572TIP3    H216660   1.984   3.279   4.776
 5573TIP3   OH216661   6.352   4.295   5.070
 5573TIP3    H116662   6.277   4.324   5.121
 5573TIP3    H216663   6.322   4.216   5.026
 5574TIP3   OH216664   3.690   6.131   1.965
 5574TIP3    H116665   3.681   6.039   1.993
 5574TIP3    H216666   3.708   6.126   1.872
 5575TIP3   OH216667   6.830   7.418   5.871
 5575TIP3    H116668   6.801   7.347   5.928
 5575TIP3    H216669   6.845   7.492   5.931
 5576TIP3   OH216670   3.599   5.726   0.663
 5576TIP3    H116671   3.540   5.800   0.672
 5576TIP3    H216672   3.667   5.756   0.603
 5577TIP3   OH216673   3.423   4.709   1.132
 5577TIP3    H116674   3.497   4.769   1.146
 5577TIP3    H216675   3.365   4.725   1.206
 5578TIP3   OH216676   5.736   5.073   2.459
 5578TIP3    H116677   5.813   5.053   2.513
 5578TIP3    H216678   5.751   5.027   2.377
 5579TIP3   OH216679   3.319   3.769   2.030
 5579TIP3    H116680   3.378   3.747   2.102
 5579TIP3    H216681   3.244   3.711   2.041
 5580TIP3   OH216682   6.655   7.617   0.753
 5580TIP3    H116683   6.650   7.691   0.813
 5580TIP3    H216684   6.581   7.628   0.694
 5581TIP3   OH216685   7.336   4.142   6.240
 5581TIP3    H116686   7.365   4.202   6.171
 5581TIP3    H216687   7.341   4.193   6.321
 5582TIP3   OH216688   1.139   5.129   6.476
 5582TIP3    H116689   1.159   5.107   6.567
 5582TIP3    H216690   1.178   5.215   6.463
 5583TIP3   OH216691   7.155   4.546   4.679
 5583TIP3    H116692   7.204   4.499   4.747
 5583TIP3    H216693   7.219   4.603   4.638
 5584TIP3   OH216694   4.374   1.351   5.285
 5584TIP3    H116695   4.296   1.317   5.330
 5584TIP3    H216696   4.355   1.337   5.192
 5585TIP3   OH216697   1.730   6.169   3.414
 5585TIP3    H116698   1.715   6.234   3.482
 5585TIP3    H216699   1.653   6.111   3.418
 5586TIP3   OH216700   4.911   5.089   4.831
 5586TIP3    H116701   4.874   5.034   4.901
 5586TIP3    H216702   4.848   5.160   4.821
 5587TIP3   OH216703   3.218   4.835   3.855
 5587TIP3    H116704   3.270   4.767   3.813
 5587TIP3    H216705   3.252   4.838   3.945
 5588TIP3   OH216706   2.681   0.223   6.150
 5588TIP3    H116707   2.732   0.235   6.070
 5588TIP3    H216708   2.642   0.135   6.141
 5589TIP3   OH216709   4.212   2.782   4.027
 5589TIP3    H116710   4.169   2.866   4.041
 5589TIP3    H216711   4.269   2.771   4.103
 5590TIP3   OH216712   1.305   6.792   3.466
 5590TIP3    H116713   1.361   6.817   3.393
 5590TIP3    H216714   1.349   6.828   3.543
 5591TIP3   OH216715   0.094   4.008   1.404
 5591TIP3    H116716   0.128   3.966   1.325
 5591TIP3    H216717   0.048   3.938   1.451
 5592TIP3   OH216718   6.753   4.805   1.797
 5592TIP3    H116719   6.827   4.744   1.796
 5592TIP3    H216720   6.735   4.822   1.705
 5593TIP3   OH216721   0.261   0.433   4.399
 5593TIP3    H116722   0.350   0.460   4.421
 5593TIP3    H216723   0.250   0.459   4.307
 5594TIP3   OH216724   4.060   6.684   4.594
 5594TIP3    H116725   4.107   6.679   4.677
 5594TIP3    H216726   4.092   6.764   4.553
 5595TIP3   OH216727   4.860   7.641   2.651
 5595TIP3    H116728   4.781   7.624   2.701
 5595TIP3    H216729   4.868   7.736   2.649
 5596TIP3   OH216730   6.608   3.953   5.120
 5596TIP3    H116731   6.545   3.935   5.050
 5596TIP3    H216732   6.693   3.932   5.082
 5597TIP3   OH216733   6.839   7.506   0.999
 5597TIP3    H116734   6.772   7.529   1.064
 5597TIP3    H216735   6.805   7.539   0.916
 5598TIP3   OH216736   3.888   6.125   3.012
 5598TIP3    H116737   3.882   6.057   2.945
 5598TIP3    H216738   3.825   6.099   3.079
 5599TIP3   OH216739   0.087   1.649   2.343
 5599TIP3    H116740   0.150   1.716   2.316
 5599TIP3    H216741   0.030   1.639   2.267
 5600TIP3   OH216742   7.137   7.283   0.336
 5600TIP3    H116743   7.153   7.274   0.430
 5600TIP3    H216744   7.059   7.338   0.330
 5601TIP3   OH216745   2.162   3.304   3.159
 5601TIP3    H116746   2.113   3.305   3.241
 5601TIP3    H216747   2.250   3.277   3.185
 5602TIP3   OH216748   7.514   3.089   6.174
 5602TIP3    H116749   7.527   2.995   6.161
 5602TIP3    H216750   7.552   3.107   6.259
 5603TIP3   OH216751   6.748   1.241   0.818
 5603TIP3    H116752   6.734   1.188   0.897
 5603TIP3    H216753   6.689   1.202   0.753
 5604TIP3   OH216754   4.741   5.020   0.559
 5604TIP3    H116755   4.814   5.068   0.597
 5604TIP3    H216756   4.739   4.937   0.608
 5605TIP3   OH216757   3.480   5.739   1.758
 5605TIP3    H116758   3.429   5.770   1.683
 5605TIP3    H216759   3.571   5.753   1.733
 5606TIP3   OH216760   7.213   0.599   4.150
 5606TIP3    H116761   7.309   0.593   4.149
 5606TIP3    H216762   7.185   0.527   4.206
 5607TIP3   OH216763   6.160   5.110   0.673
 5607TIP3    H116764   6.085   5.151   0.629
 5607TIP3    H216765   6.237   5.149   0.631
 5608TIP3   OH216766   7.489   0.977   0.200
 5608TIP3    H116767   7.523   1.008   0.284
 5608TIP3    H216768   7.504   0.883   0.201
 5609TIP3   OH216769   2.377   4.132   4.764
 5609TIP3    H116770   2.407   4.214   4.724
 5609TIP3    H216771   2.434   4.119   4.839
 5610TIP3   OH216772   0.580   1.248   0.986
 5610TIP3    H116773   0.671   1.260   1.014
 5610TIP3    H216774   0.585   1.233   0.892
 5611TIP3   OH216775   6.894   7.290   1.324
 5611TIP3    H116776   6.862   7.366   1.373
 5611TIP3    H216777   6.936   7.235   1.389
 5612TIP3   OH216778   1.664   6.431   2.864
 5612TIP3    H116779   1.707   6.360   2.815
 5612TIP3    H216780   1.643   6.497   2.797
 5613TIP3   OH216781   4.384   1.941   5.360
 5613TIP3    H116782   4.384   1.851   5.327
 5613TIP3    H216783   4.466   1.978   5.327
 5614TIP3   OH216784   5.251   7.318   4.086
 5614TIP3    H116785   5.170   7.337   4.133
 5614TIP3    H216786   5.306   7.395   4.101
 5615TIP3   OH216787   4.435   4.317   3.502
 5615TIP3    H116788   4.376   4.369   3.447
 5615TIP3    H216789   4.516   4.311   3.451
 5616TIP3   OH216790   5.069   0.790   2.774
 5616TIP3    H116791   5.043   0.705   2.808
 5616TIP3    H216792   5.111   0.833   2.848
 5617TIP3   OH216793   5.401   0.198   4.331
 5617TIP3    H116794   5.334   0.188   4.399
 5617TIP3    H216795   5.441   0.283   4.348
 5618TIP3   OH216796   0.517   2.644   1.320
 5618TIP3    H116797   0.613   2.639   1.320
 5618TIP3    H216798   0.497   2.717   1.263
 5619TIP3   OH216799   3.284   0.373   2.607
 5619TIP3    H116800   3.199   0.335   2.628
 5619TIP3    H216801   3.347   0.303   2.622
 5620TIP3   OH216802   6.702   0.309   1.539
 5620TIP3    H116803   6.671   0.285   1.626
 5620TIP3    H216804   6.672   0.237   1.483
 5621TIP3   OH216805   2.278   3.903   3.876
 5621TIP3    H116806   2.301   3.954   3.798
 5621TIP3    H216807   2.357   3.907   3.931
 5622TIP3   OH216808   4.400   1.149   2.785
 5622TIP3    H116809   4.405   1.206   2.862
 5622TIP3    H216810   4.487   1.155   2.745
 5623TIP3   OH216811   0.214   4.600   6.236
 5623TIP3    H116812   0.218   4.507   6.257
 5623TIP3    H216813   0.304   4.625   6.217
 5624TIP3   OH216814   3.630   5.349   6.692
 5624TIP3    H116815   3.545   5.380   6.663
 5624TIP3    H216816   3.688   5.367   6.618
 5625TIP3   OH216817   0.357   1.455   6.819
 5625TIP3    H116818   0.286   1.398   6.789
 5625TIP3    H216819   0.407   1.474   6.740
 5626TIP3   OH216820   0.604   1.505   4.636
 5626TIP3    H116821   0.674   1.518   4.572
 5626TIP3    H216822   0.645   1.456   4.708
 5627TIP3   OH216823   6.497   2.625   1.910
 5627TIP3    H116824   6.491   2.549   1.968
 5627TIP3    H216825   6.460   2.697   1.960
 5628TIP3   OH216826   6.985   2.459   2.325
 5628TIP3    H116827   7.017   2.397   2.390
 5628TIP3    H216828   7.060   2.474   2.267
 5629TIP3   OH216829   4.894   7.242   3.755
 5629TIP3    H116830   4.956   7.315   3.760
 5629TIP3    H216831   4.922   7.192   3.679
 5630TIP3   OH216832   0.126   4.039   3.257
 5630TIP3    H116833   0.109   4.021   3.165
 5630TIP3    H216834   0.217   4.013   3.271
 5631TIP3   OH216835   6.955   0.348   5.596
 5631TIP3    H116836   6.917   0.407   5.661
 5631TIP3    H216837   6.891   0.277   5.587
 5632TIP3   OH216838   5.677   0.450   5.477
 5632TIP3    H116839   5.712   0.425   5.391
 5632TIP3    H216840   5.632   0.371   5.508
 5633TIP3   OH216841   8.195   6.611   1.947
 5633TIP3    H116842   8.211   6.705   1.961
 5633TIP3    H216843   8.194   6.601   1.852
 5634TIP3   OH216844   8.081   5.885   6.569
 5634TIP3    H116845   8.052   5.883   6.477
 5634TIP3    H216846   8.174   5.905   6.564
 5635TIP3   OH216847   5.542   7.144   6.381
 5635TIP3    H116848   5.606   7.198   6.429
 5635TIP3    H216849   5.588   7.120   6.300
 5636TIP3   OH216850   5.331   6.495   4.949
 5636TIP3    H116851   5.340   6.570   5.008
 5636TIP3    H216852   5.260   6.443   4.987
 5637TIP3   OH216853   1.404   4.793   1.077
 5637TIP3    H116854   1.470   4.725   1.089
 5637TIP3    H216855   1.338   4.774   1.143
 5638TIP3   OH216856   4.603   2.062   0.090
 5638TIP3    H116857   4.660   2.091   0.019
 5638TIP3    H216858   4.636   2.109   0.167
 5639TIP3   OH216859   7.115   5.031   3.942
 5639TIP3    H116860   7.076   5.118   3.950
 5639TIP3    H216861   7.046   4.978   3.902
 5640TIP3   OH216862   0.045   4.405   3.467
 5640TIP3    H116863   0.136   4.398   3.440
 5640TIP3    H216864   0.018   4.316   3.487
 5641TIP3   OH216865   7.262   3.182   6.152
 5641TIP3    H116866   7.210   3.150   6.226
 5641TIP3    H216867   7.353   3.160   6.175
 5642TIP3   OH216868   4.061   1.236   3.161
 5642TIP3    H116869   4.129   1.198   3.216
 5642TIP3    H216870   3.991   1.258   3.222
 5643TIP3   OH216871   3.202   7.699   0.634
 5643TIP3    H116872   3.178   7.609   0.654
 5643TIP3    H216873   3.165   7.751   0.705
 5644TIP3   OH216874   3.873   5.441   4.029
 5644TIP3    H116875   3.805   5.375   4.039
 5644TIP3    H216876   3.882   5.479   4.117
 5645TIP3   OH216877   2.821   0.768   0.296
 5645TIP3    H116878   2.729   0.786   0.276
 5645TIP3    H216879   2.857   0.852   0.323
 5646TIP3   OH216880   7.957   0.046   5.665
 5646TIP3    H116881   7.962  -0.040   5.622
 5646TIP3    H216882   8.045   0.083   5.654
 5647TIP3   OH216883   5.981   6.758   4.618
 5647TIP3    H116884   6.026   6.750   4.702
 5647TIP3    H216885   5.945   6.846   4.618
 5648TIP3   OH216886   7.439   4.096   2.103
 5648TIP3    H116887   7.484   4.126   2.181
 5648TIP3    H216888   7.370   4.161   2.087
 5649TIP3   OH216889   5.101   4.001   5.038
 5649TIP3    H116890   5.144   3.924   5.001
 5649TIP3    H216891   5.015   3.968   5.067
 5650TIP3   OH216892   8.230   0.632   3.910
 5650TIP3    H116893   8.293   0.678   3.966
 5650TIP3    H216894   8.191   0.700   3.856
 5651TIP3   OH216895   7.377   2.323   3.125
 5651TIP3    H116896   7.288   2.289   3.116
 5651TIP3    H216897   7.410   2.327   3.036
 5652TIP3   OH216898   2.489   4.547   6.161
 5652TIP3    H116899   2.537   4.630   6.161
 5652TIP3    H216900   2.548   4.486   6.115
 5653TIP3   OH216901   3.232   1.689   4.379
 5653TIP3    H116902   3.221   1.605   4.334
 5653TIP3    H216903   3.144   1.711   4.410
 5654TIP3   OH216904   3.853   6.508   2.065
 5654TIP3    H116905   3.774   6.499   2.012
 5654TIP3    H216906   3.855   6.600   2.092
 5655TIP3   OH216907   5.760   6.359   6.444
 5655TIP3    H116908   5.682   6.388   6.491
 5655TIP3    H216909   5.786   6.278   6.489
 5656TIP3   OH216910   1.645   0.430   0.757
 5656TIP3    H116911   1.570   0.442   0.699
 5656TIP3    H216912   1.684   0.347   0.730
 5657TIP3   OH216913   0.755   6.053   1.680
 5657TIP3    H116914   0.834   6.107   1.688
 5657TIP3    H216915   0.701   6.099   1.615
 5658TIP3   OH216916   8.281   3.432   4.563
 5658TIP3    H116917   8.269   3.511   4.510
 5658TIP3    H216918   8.330   3.373   4.505
 5659TIP3   OH216919   6.462   6.891   6.764
 5659TIP3    H116920   6.395   6.873   6.698
 5659TIP3    H216921   6.416   6.886   6.847
 5660TIP3   OH216922   4.746   5.205   1.529
 5660TIP3    H116923   4.710   5.158   1.605
 5660TIP3    H216924   4.683   5.189   1.459
 5661TIP3   OH216925   0.743   3.351   2.491
 5661TIP3    H116926   0.684   3.411   2.445
 5661TIP3    H216927   0.686   3.281   2.522
 5662TIP3   OH216928   6.059   7.357   3.547
 5662TIP3    H116929   5.993   7.424   3.563
 5662TIP3    H216930   6.138   7.389   3.591
 5663TIP3   OH216931   6.707   5.374   5.019
 5663TIP3    H116932   6.801   5.357   5.014
 5663TIP3    H216933   6.688   5.427   4.941
 5664TIP3   OH216934   1.014   4.728   0.671
 5664TIP3    H116935   1.084   4.670   0.640
 5664TIP3    H216936   0.963   4.748   0.592
 5665TIP3   OH216937   3.459   6.718   2.071
 5665TIP3    H116938   3.365   6.726   2.087
 5665TIP3    H216939   3.499   6.729   2.157
 5666TIP3   OH216940   7.394   1.805   3.651
 5666TIP3    H116941   7.445   1.868   3.701
 5666TIP3    H216942   7.358   1.745   3.716
 5667TIP3   OH216943   7.178   5.324   0.732
 5667TIP3    H116944   7.261   5.354   0.695
 5667TIP3    H216945   7.193   5.231   0.751
 5668TIP3   OH216946   2.469   5.733   4.677
 5668TIP3    H116947   2.520   5.678   4.617
 5668TIP3    H216948   2.388   5.685   4.692
 5669TIP3   OH216949   5.387   3.386   1.545
 5669TIP3    H116950   5.352   3.473   1.525
 5669TIP3    H216951   5.330   3.326   1.496
 5670TIP3   OH216952   1.674   1.578   6.443
 5670TIP3    H116953   1.741   1.513   6.420
 5670TIP3    H216954   1.719   1.662   6.433
 5671TIP3   OH216955   4.470   7.611   0.805
 5671TIP3    H116956   4.412   7.535   0.803
 5671TIP3    H216957   4.469   7.644   0.716
 5672TIP3   OH216958   0.169   1.631   6.581
 5672TIP3    H116959   0.236   1.564   6.568
 5672TIP3    H216960   0.207   1.692   6.644
 5673TIP3   OH216961   8.241   2.389   2.935
 5673TIP3    H116962   8.168   2.406   2.875
 5673TIP3    H216963   8.316   2.432   2.894
 5674TIP3   OH216964   7.824   3.380   1.416
 5674TIP3    H116965   7.910   3.399   1.453
 5674TIP3    H216966   7.831   3.406   1.324
 5675TIP3   OH216967   5.370   4.260   1.036
 5675TIP3    H116968   5.319   4.238   1.114
 5675TIP3    H216969   5.383   4.355   1.043
 5676TIP3   OH216970   0.830   3.776   3.180
 5676TIP3    H116971   0.892   3.708   3.152
 5676TIP3    H216972   0.853   3.792   3.272
 5677TIP3   OH216973   6.806   2.955   4.459
 5677TIP3    H116974   6.824   3.034   4.510
 5677TIP3    H216975   6.739   2.981   4.397
 5678TIP3   OH216976   0.576   5.592   1.212
 5678TIP3    H116977   0.615   5.601   1.124
 5678TIP3    H216978   0.651   5.599   1.271
 5679TIP3   OH216979   7.432   3.685   1.662
 5679TIP3    H116980   7.452   3.763   1.714
 5679TIP3    H216981   7.407   3.719   1.576
 5680TIP3   OH216982   6.100   7.648   4.141
 5680TIP3    H116983   6.180   7.700   4.139
 5680TIP3    H216984   6.082   7.635   4.234
 5681TIP3   OH216985   6.505   4.649   1.669
 5681TIP3    H116986   6.477   4.676   1.581
 5681TIP3    H216987   6.542   4.729   1.707
 5682TIP3   OH216988   4.608   1.603   1.184
 5682TIP3    H116989   4.636   1.691   1.212
 5682TIP3    H216990   4.654   1.588   1.102
 5683TIP3   OH216991   2.920   1.249   3.710
 5683TIP3    H116992   2.942   1.156   3.711
 5683TIP3    H216993   2.982   1.289   3.771
 5684TIP3   OH216994   5.824   5.491   3.141
 5684TIP3    H116995   5.829   5.581   3.108
 5684TIP3    H216996   5.911   5.455   3.127
 5685TIP3   OH216997   6.056   6.777   4.873
 5685TIP3    H116998   5.996   6.836   4.919
 5685TIP3    H216999   6.119   6.750   4.940
 5686TIP3   OH217000   6.893   7.102   3.818
 5686TIP3    H117001   6.888   7.007   3.806
 5686TIP3    H217002   6.916   7.113   3.911
 5687TIP3   OH217003   4.861   1.124   4.957
 5687TIP3    H117004   4.855   1.103   5.050
 5687TIP3    H217005   4.938   1.077   4.927
 5688TIP3   OH217006   0.269   6.366   0.830
 5688TIP3    H117007   0.323   6.345   0.753
 5688TIP3    H217008   0.332   6.378   0.901
 5689TIP3   OH217009   0.532   3.344   1.321
 5689TIP3    H117010   0.544   3.416   1.259
 5689TIP3    H217011   0.620   3.320   1.348
 5690TIP3   OH217012   5.156   4.184   0.550
 5690TIP3    H117013   5.126   4.192   0.641
 5690TIP3    H217014   5.076   4.189   0.498
 5691TIP3   OH217015   1.522   7.573   5.858
 5691TIP3    H117016   1.540   7.659   5.895
 5691TIP3    H217017   1.451   7.538   5.912
 5692TIP3   OH217018   6.596   4.096   1.268
 5692TIP3    H117019   6.642   4.180   1.270
 5692TIP3    H217020   6.553   4.089   1.353
 5693TIP3   OH217021   6.689   0.726   0.331
 5693TIP3    H117022   6.782   0.712   0.311
 5693TIP3    H217023   6.653   0.769   0.254
 5694TIP3   OH217024   7.325   4.025   2.469
 5694TIP3    H117025   7.392   4.093   2.477
 5694TIP3    H217026   7.251   4.058   2.520
 5695TIP3   OH217027   4.326   5.194   3.338
 5695TIP3    H117028   4.330   5.277   3.291
 5695TIP3    H217029   4.338   5.217   3.430
 5696TIP3   OH217030   3.913   6.076   5.611
 5696TIP3    H117031   3.890   6.169   5.609
 5696TIP3    H217032   3.904   6.047   5.520
 5697TIP3   OH217033   4.284   5.653   1.165
 5697TIP3    H117034   4.288   5.749   1.162
 5697TIP3    H217035   4.310   5.631   1.255
 5698TIP3   OH217036   0.362   7.131   2.428
 5698TIP3    H117037   0.323   7.043   2.430
 5698TIP3    H217038   0.421   7.133   2.504
 5699TIP3   OH217039   4.012   3.241   1.827
 5699TIP3    H117040   4.005   3.331   1.796
 5699TIP3    H217041   4.084   3.242   1.890
 5700TIP3   OH217042   3.401   4.957   3.375
 5700TIP3    H117043   3.406   4.966   3.470
 5700TIP3    H217044   3.458   4.883   3.355
 5701TIP3   OH217045   5.857   7.501   5.641
 5701TIP3    H117046   5.904   7.580   5.615
 5701TIP3    H217047   5.765   7.521   5.626
 5702TIP3   OH217048   5.387   2.207   0.696
 5702TIP3    H117049   5.338   2.134   0.657
 5702TIP3    H217050   5.441   2.240   0.625
 5703TIP3   OH217051   3.402   0.599   3.599
 5703TIP3    H117052   3.485   0.578   3.641
 5703TIP3    H217053   3.410   0.562   3.511
 5704TIP3   OH217054   0.385   5.233   0.882
 5704TIP3    H117055   0.416   5.217   0.972
 5704TIP3    H217056   0.425   5.163   0.831
 5705TIP3   OH217057   7.686   5.505   3.269
 5705TIP3    H117058   7.744   5.456   3.210
 5705TIP3    H217059   7.661   5.583   3.219
 5706TIP3   OH217060   7.916   4.935   3.861
 5706TIP3    H117061   7.974   4.954   3.934
 5706TIP3    H217062   7.938   5.001   3.795
 5707TIP3   OH217063   1.397   5.440   3.954
 5707TIP3    H117064   1.319   5.384   3.953
 5707TIP3    H217065   1.449   5.406   4.027
 5708TIP3   OH217066   5.206   1.590   0.500
 5708TIP3    H117067   5.126   1.640   0.519
 5708TIP3    H217068   5.175   1.511   0.456
 5709TIP3   OH217069   4.029   1.646   4.503
 5709TIP3    H117070   3.975   1.630   4.581
 5709TIP3    H217071   4.045   1.559   4.467
 5710TIP3   OH217072   6.591   4.024   0.190
 5710TIP3    H117073   6.533   4.001   0.118
 5710TIP3    H217074   6.544   3.997   0.269
 5711TIP3   OH217075   0.230   1.852   4.478
 5711TIP3    H117076   0.305   1.803   4.512
 5711TIP3    H217077   0.206   1.804   4.398
 5712TIP3   OH217078   2.944   0.869   1.205
 5712TIP3    H117079   2.971   0.807   1.138
 5712TIP3    H217080   2.885   0.819   1.261
 5713TIP3   OH217081   7.067   2.605   4.456
 5713TIP3    H117082   7.065   2.510   4.451
 5713TIP3    H217083   6.978   2.632   4.431
 5714TIP3   OH217084   5.447   4.001   2.966
 5714TIP3    H117085   5.428   4.067   2.898
 5714TIP3    H217086   5.500   3.936   2.921
 5715TIP3   OH217087   5.958   2.995   1.615
 5715TIP3    H117088   5.865   3.019   1.614
 5715TIP3    H217089   5.993   3.037   1.693
 5716TIP3   OH217090   0.927   2.040   4.407
 5716TIP3    H117091   0.926   2.107   4.475
 5716TIP3    H217092   0.996   2.069   4.347
 5717TIP3   OH217093   2.034   7.334   4.309
 5717TIP3    H117094   2.089   7.265   4.272
 5717TIP3    H217095   1.984   7.368   4.235
 5718TIP3   OH217096   6.657   6.974   6.494
 5718TIP3    H117097   6.688   6.918   6.565
 5718TIP3    H217098   6.583   6.927   6.456
 5719TIP3   OH217099   8.272   4.864   6.031
 5719TIP3    H117100   8.247   4.772   6.039
 5719TIP3    H217101   8.348   4.864   5.972
 5720TIP3   OH217102   5.209   7.365   1.351
 5720TIP3    H117103   5.145   7.313   1.303
 5720TIP3    H217104   5.240   7.307   1.421
 5721TIP3   OH217105   5.849   0.730   0.046
 5721TIP3    H117106   5.888   0.768   0.125
 5721TIP3    H217107   5.827   0.805  -0.009
 5722TIP3   OH217108   2.763   5.230   5.233
 5722TIP3    H117109   2.820   5.207   5.307
 5722TIP3    H217110   2.823   5.263   5.166
 5723TIP3   OH217111   2.668   1.324   3.695
 5723TIP3    H117112   2.760   1.298   3.685
 5723TIP3    H217113   2.670   1.397   3.757
 5724TIP3   OH217114   1.735   3.994   5.901
 5724TIP3    H117115   1.769   3.910   5.869
 5724TIP3    H217116   1.752   3.992   5.995
 5725TIP3   OH217117   6.912   2.342   0.714
 5725TIP3    H117118   6.890   2.382   0.629
 5725TIP3    H217119   6.873   2.401   0.779
 5726TIP3   OH217120   7.133   3.954   6.150
 5726TIP3    H117121   7.149   4.010   6.226
 5726TIP3    H217122   7.147   3.865   6.182
 5727TIP3   OH217123   4.796   0.903   4.079
 5727TIP3    H117124   4.726   0.923   4.017
 5727TIP3    H217125   4.753   0.900   4.164
 5728TIP3   OH217126   2.358   2.690   1.416
 5728TIP3    H117127   2.315   2.765   1.375
 5728TIP3    H217128   2.301   2.616   1.398
 5729TIP3   OH217129   7.129   6.388   2.308
 5729TIP3    H117130   7.196   6.406   2.374
 5729TIP3    H217131   7.175   6.396   2.224
 5730TIP3   OH217132   5.752   2.853   0.497
 5730TIP3    H117133   5.703   2.914   0.442
 5730TIP3    H217134   5.837   2.845   0.454
 5731TIP3   OH217135   7.811   6.738   5.031
 5731TIP3    H117136   7.761   6.733   5.113
 5731TIP3    H217137   7.894   6.694   5.050
 5732TIP3   OH217138   5.370   2.941   1.844
 5732TIP3    H117139   5.329   2.906   1.765
 5732TIP3    H217140   5.431   3.007   1.812
 5733TIP3   OH217141   0.179   3.976   4.132
 5733TIP3    H117142   0.102   3.999   4.080
 5733TIP3    H217143   0.227   4.059   4.141
 5734TIP3   OH217144   7.766   1.101   5.373
 5734TIP3    H117145   7.762   1.008   5.353
 5734TIP3    H217146   7.739   1.144   5.292
 5735TIP3   OH217147   7.506   4.090   5.588
 5735TIP3    H117148   7.537   4.016   5.640
 5735TIP3    H217149   7.494   4.161   5.651
 5736TIP3   OH217150   7.047   1.896   0.043
 5736TIP3    H117151   6.993   1.912   0.121
 5736TIP3    H217152   6.987   1.857  -0.020
 5737TIP3   OH217153   3.825   5.327   2.500
 5737TIP3    H117154   3.834   5.268   2.425
 5737TIP3    H217155   3.850   5.413   2.466
 5738TIP3   OH217156   8.082   6.899   6.066
 5738TIP3    H117157   8.022   6.827   6.085
 5738TIP3    H217158   8.154   6.887   6.128
 5739TIP3   OH217159   7.679   3.539   3.983
 5739TIP3    H117160   7.588   3.564   3.999
 5739TIP3    H217161   7.730   3.614   4.011
 5740TIP3   OH217162   1.856   2.048   3.616
 5740TIP3    H117163   1.824   2.050   3.706
 5740TIP3    H217164   1.793   2.100   3.567
 5741TIP3   OH217165   0.083   3.332   3.590
 5741TIP3    H117166   0.076   3.383   3.510
 5741TIP3    H217167   0.158   3.369   3.637
 5742TIP3   OH217168   0.329   1.541   4.427
 5742TIP3    H117169   0.389   1.616   4.431
 5742TIP3    H217170   0.382   1.467   4.459
 5743TIP3   OH217171   5.635   1.916   1.191
 5743TIP3    H117172   5.604   1.860   1.120
 5743TIP3    H217173   5.652   2.000   1.149
 5744TIP3   OH217174   5.424   2.977   1.496
 5744TIP3    H117175   5.465   2.915   1.436
 5744TIP3    H217176   5.495   3.035   1.523
 5745TIP3   OH217177   1.257   3.328   0.853
 5745TIP3    H117178   1.256   3.422   0.870
 5745TIP3    H217179   1.174   3.296   0.891
 5746TIP3   OH217180   5.796   4.044   4.827
 5746TIP3    H117181   5.845   3.964   4.807
 5746TIP3    H217182   5.716   4.014   4.870
 5747TIP3   OH217183   0.483   2.267   1.072
 5747TIP3    H117184   0.478   2.175   1.100
 5747TIP3    H217185   0.504   2.262   0.979
 5748TIP3   OH217186   1.288   0.342   5.131
 5748TIP3    H117187   1.221   0.295   5.180
 5748TIP3    H217188   1.345   0.274   5.097
 5749TIP3   OH217189   7.064   4.531   0.862
 5749TIP3    H117190   7.123   4.602   0.836
 5749TIP3    H217191   7.088   4.457   0.807
 5750TIP3   OH217192   5.854   2.066   4.381
 5750TIP3    H117193   5.825   2.073   4.290
 5750TIP3    H217194   5.796   1.999   4.420
 5751TIP3   OH217195   6.876   1.107   4.282
 5751TIP3    H117196   6.781   1.112   4.269
 5751TIP3    H217197   6.906   1.046   4.215
 5752TIP3   OH217198   3.952   4.779   1.258
 5752TIP3    H117199   3.946   4.683   1.262
 5752TIP3    H217200   3.875   4.806   1.208
 5753TIP3   OH217201   3.204   6.485   1.874
 5753TIP3    H117202   3.110   6.504   1.884
 5753TIP3    H217203   3.214   6.465   1.781
 5754TIP3   OH217204   0.682   0.917   0.301
 5754TIP3    H117205   0.595   0.958   0.297
 5754TIP3    H217206   0.668   0.828   0.268
 5755TIP3   OH217207   2.816   7.426   1.049
 5755TIP3    H117208   2.835   7.435   1.142
 5755TIP3    H217209   2.800   7.332   1.037
 5756TIP3   OH217210   1.377   7.080   5.291
 5756TIP3    H117211   1.323   7.102   5.367
 5756TIP3    H217212   1.462   7.120   5.310
 5757TIP3   OH217213   4.837   6.505   1.175
 5757TIP3    H117214   4.882   6.577   1.131
 5757TIP3    H217215   4.745   6.530   1.173
 5758TIP3   OH217216   2.575   6.230   2.419
 5758TIP3    H117217   2.626   6.304   2.450
 5758TIP3    H217218   2.600   6.220   2.327
 5759TIP3   OH217219   5.780   3.658   2.045
 5759TIP3    H117220   5.685   3.649   2.050
 5759TIP3    H217221   5.796   3.752   2.037
 5760TIP3   OH217222   7.760   3.557   6.308
 5760TIP3    H117223   7.761   3.553   6.212
 5760TIP3    H217224   7.774   3.649   6.329
 5761TIP3   OH217225   6.106   4.612   4.451
 5761TIP3    H117226   6.066   4.620   4.364
 5761TIP3    H217227   6.044   4.557   4.500
 5762TIP3   OH217228   7.381   0.476   2.114
 5762TIP3    H117229   7.380   0.381   2.126
 5762TIP3    H217230   7.394   0.511   2.203
 5763TIP3   OH217231   4.795   6.861   1.539
 5763TIP3    H117232   4.836   6.916   1.473
 5763TIP3    H217233   4.839   6.885   1.621
 5764TIP3   OH217234   2.301   3.388   2.542
 5764TIP3    H117235   2.300   3.470   2.592
 5764TIP3    H217236   2.295   3.320   2.609
 5765TIP3   OH217237   4.464   6.931   2.095
 5765TIP3    H117238   4.493   6.997   2.033
 5765TIP3    H217239   4.391   6.887   2.051
 5766TIP3   OH217240   6.729   2.514   0.879
 5766TIP3    H117241   6.694   2.446   0.936
 5766TIP3    H217242   6.666   2.520   0.807
 5767TIP3   OH217243   7.995   5.429   6.295
 5767TIP3    H117244   8.033   5.496   6.353
 5767TIP3    H217245   8.057   5.356   6.300
 5768TIP3   OH217246   3.778   6.209   0.742
 5768TIP3    H117247   3.801   6.241   0.829
 5768TIP3    H217248   3.766   6.287   0.689
 5769TIP3   OH217249   0.413   3.250   5.520
 5769TIP3    H117250   0.405   3.218   5.430
 5769TIP3    H217251   0.439   3.174   5.571
 5770TIP3   OH217252   6.206   3.678   5.243
 5770TIP3    H117253   6.122   3.724   5.243
 5770TIP3    H217254   6.261   3.729   5.302
 5771TIP3   OH217255   0.133   4.792   2.703
 5771TIP3    H117256   0.041   4.800   2.679
 5771TIP3    H217257   0.136   4.820   2.795
 5772TIP3   OH217258   3.225   2.325   5.576
 5772TIP3    H117259   3.257   2.240   5.606
 5772TIP3    H217260   3.149   2.305   5.521
 5773TIP3   OH217261   6.349   4.056   0.648
 5773TIP3    H117262   6.351   3.994   0.576
 5773TIP3    H217263   6.419   4.026   0.707
 5774TIP3   OH217264   3.603   6.522   1.956
 5774TIP3    H117265   3.543   6.449   1.970
 5774TIP3    H217266   3.553   6.599   1.985
 5775TIP3   OH217267   0.611   3.502   0.896
 5775TIP3    H117268   0.584   3.515   0.987
 5775TIP3    H217269   0.609   3.590   0.857
 5776TIP3   OH217270   7.467   7.532   2.543
 5776TIP3    H117271   7.466   7.453   2.489
 5776TIP3    H217272   7.416   7.596   2.493
 5777TIP3   OH217273   6.703   0.094   3.100
 5777TIP3    H117274   6.735   0.156   3.165
 5777TIP3    H217275   6.609   0.109   3.096
 5778TIP3   OH217276   6.342   1.869   4.967
 5778TIP3    H117277   6.340   1.955   4.926
 5778TIP3    H217278   6.263   1.825   4.936
 5779TIP3   OH217279   6.507   3.946   1.488
 5779TIP3    H117280   6.515   4.017   1.551
 5779TIP3    H217281   6.444   3.886   1.526
 5780TIP3   OH217282   4.663   0.718   5.921
 5780TIP3    H117283   4.740   0.661   5.925
 5780TIP3    H217284   4.629   0.705   5.832
 5781TIP3   OH217285   7.607   5.731   6.643
 5781TIP3    H117286   7.638   5.702   6.556
 5781TIP3    H217287   7.515   5.753   6.629
 5782TIP3   OH217288   0.925   1.203   4.619
 5782TIP3    H117289   0.991   1.222   4.552
 5782TIP3    H217290   0.941   1.112   4.643
 5783TIP3   OH217291   2.032   3.605   3.650
 5783TIP3    H117292   1.941   3.632   3.643
 5783TIP3    H217293   2.059   3.585   3.560
 5784TIP3   OH217294   7.419   6.419   3.641
 5784TIP3    H117295   7.348   6.376   3.689
 5784TIP3    H217296   7.379   6.500   3.608
 5785TIP3   OH217297   3.750   3.831   2.131
 5785TIP3    H117298   3.663   3.816   2.166
 5785TIP3    H217299   3.805   3.765   2.173
 5786TIP3   OH217300   6.093   3.423   5.225
 5786TIP3    H117301   6.003   3.420   5.257
 5786TIP3    H217302   6.114   3.516   5.220
 5787TIP3   OH217303   3.184   0.634   5.149
 5787TIP3    H117304   3.122   0.567   5.178
 5787TIP3    H217305   3.258   0.584   5.113
 5788TIP3   OH217306   0.489   0.543   5.766
 5788TIP3    H117307   0.463   0.633   5.787
 5788TIP3    H217308   0.561   0.524   5.826
 5789TIP3   OH217309   6.772   0.475   3.531
 5789TIP3    H117310   6.740   0.542   3.471
 5789TIP3    H217311   6.726   0.396   3.505
 5790TIP3   OH217312   5.255   6.412   0.578
 5790TIP3    H117313   5.278   6.381   0.491
 5790TIP3    H217314   5.329   6.386   0.634
 5791TIP3   OH217315   8.351   5.668   4.443
 5791TIP3    H117316   8.330   5.747   4.493
 5791TIP3    H217317   8.266   5.630   4.421
 5792TIP3   OH217318   0.427   5.358   3.359
 5792TIP3    H117319   0.475   5.276   3.360
 5792TIP3    H217320   0.415   5.378   3.266
 5793TIP3   OH217321   0.935   1.234   3.622
 5793TIP3    H117322   0.920   1.315   3.573
 5793TIP3    H217323   0.968   1.263   3.708
 5794TIP3   OH217324   6.504   4.942   0.560
 5794TIP3    H117325   6.478   4.859   0.522
 5794TIP3    H217326   6.544   4.919   0.643
 5795TIP3   OH217327   2.367   1.093   0.856
 5795TIP3    H117328   2.451   1.136   0.876
 5795TIP3    H217329   2.386   1.000   0.860
 5796TIP3   OH217330   1.402   0.890   3.831
 5796TIP3    H117331   1.377   0.901   3.739
 5796TIP3    H217332   1.324   0.917   3.880
 5797TIP3   OH217333   0.060   4.082   5.512
 5797TIP3    H117334   0.051   4.006   5.569
 5797TIP3    H217335   0.149   4.076   5.478
 5798TIP3   OH217336   6.830   5.046   0.744
 5798TIP3    H117337   6.874   4.979   0.796
 5798TIP3    H217338   6.821   5.007   0.657
 5799TIP3   OH217339   2.687   0.992   0.689
 5799TIP3    H117340   2.666   1.029   0.774
 5799TIP3    H217341   2.776   1.021   0.671
 5800TIP3   OH217342   2.721   4.803   2.762
 5800TIP3    H117343   2.709   4.861   2.837
 5800TIP3    H217344   2.689   4.853   2.687
 5801TIP3   OH217345   7.326   6.189   3.214
 5801TIP3    H117346   7.300   6.183   3.306
 5801TIP3    H217347   7.421   6.188   3.216
 5802TIP3   OH217348   7.925   1.900   6.196
 5802TIP3    H117349   7.878   1.823   6.226
 5802TIP3    H217350   7.954   1.943   6.277
 5803TIP3   OH217351   1.001   6.046   3.943
 5803TIP3    H117352   0.935   6.113   3.958
 5803TIP3    H217353   0.953   5.973   3.905
 5804TIP3   OH217354   2.981   2.244   1.117
 5804TIP3    H117355   3.050   2.211   1.175
 5804TIP3    H217356   2.991   2.193   1.037
 5805TIP3   OH217357   0.569   0.644   3.075
 5805TIP3    H117358   0.599   0.703   3.007
 5805TIP3    H217359   0.514   0.580   3.029
 5806TIP3   OH217360   5.013   7.433   3.485
 5806TIP3    H117361   5.017   7.412   3.578
 5806TIP3    H217362   5.097   7.404   3.450
 5807TIP3   OH217363   1.890   3.770   5.845
 5807TIP3    H117364   1.887   3.675   5.847
 5807TIP3    H217365   1.983   3.792   5.847
 5808TIP3   OH217366   5.869   1.665   3.698
 5808TIP3    H117367   5.950   1.614   3.691
 5808TIP3    H217368   5.894   1.744   3.745
 5809TIP3   OH217369   1.350   0.517   0.626
 5809TIP3    H117370   1.333   0.473   0.543
 5809TIP3    H217371   1.326   0.453   0.693
 5810TIP3   OH217372   3.248   5.953   2.919
 5810TIP3    H117373   3.296   6.028   2.953
 5810TIP3    H217374   3.285   5.939   2.832
 5811TIP3   OH217375   6.543   2.183   6.170
 5811TIP3    H117376   6.578   2.223   6.091
 5811TIP3    H217377   6.452   2.212   6.174
 5812TIP3   OH217378   2.364   0.711   6.056
 5812TIP3    H117379   2.434   0.704   6.121
 5812TIP3    H217380   2.355   0.805   6.040
 5813TIP3   OH217381   3.500   3.151   1.306
 5813TIP3    H117382   3.444   3.221   1.338
 5813TIP3    H217383   3.463   3.071   1.343
 5814TIP3   OH217384   6.632   6.688   1.371
 5814TIP3    H117385   6.544   6.724   1.382
 5814TIP3    H217386   6.663   6.674   1.460
 5815TIP3   OH217387   3.405   0.547   5.916
 5815TIP3    H117388   3.432   0.511   5.831
 5815TIP3    H217389   3.478   0.527   5.975
 5816TIP3   OH217390   0.911   3.731   2.706
 5816TIP3    H117391   0.994   3.709   2.663
 5816TIP3    H217392   0.895   3.658   2.765
 5817TIP3   OH217393   7.302   3.865   4.186
 5817TIP3    H117394   7.359   3.898   4.255
 5817TIP3    H217395   7.356   3.869   4.107
 5818TIP3   OH217396   1.005   0.355   6.653
 5818TIP3    H117397   0.975   0.265   6.667
 5818TIP3    H217398   1.014   0.391   6.742
 5819TIP3   OH217399   1.354   4.548   3.536
 5819TIP3    H117400   1.432   4.583   3.579
 5819TIP3    H217401   1.378   4.458   3.512
 5820TIP3   OH217402   5.993   2.184   3.070
 5820TIP3    H117403   5.920   2.123   3.060
 5820TIP3    H217404   6.049   2.166   2.994
 5821TIP3   OH217405   6.413   3.300   4.788
 5821TIP3    H117406   6.419   3.334   4.877
 5821TIP3    H217407   6.349   3.229   4.794
 5822TIP3   OH217408   6.288   4.112   3.802
 5822TIP3    H117409   6.370   4.140   3.760
 5822TIP3    H217410   6.230   4.090   3.730
 5823TIP3   OH217411   2.390   0.066   2.520
 5823TIP3    H117412   2.342   0.133   2.472
 5823TIP3    H217413   2.440   0.020   2.453
 5824TIP3   OH217414   0.500   4.840   5.214
 5824TIP3    H117415   0.433   4.906   5.230
 5824TIP3    H217416   0.490   4.817   5.122
 5825TIP3   OH217417   7.234   5.877   5.525
 5825TIP3    H117418   7.272   5.872   5.612
 5825TIP3    H217419   7.283   5.814   5.473
 5826TIP3   OH217420   0.260   1.508   0.825
 5826TIP3    H117421   0.265   1.418   0.794
 5826TIP3    H217422   0.211   1.554   0.757
 5827TIP3   OH217423   5.559   3.048   2.622
 5827TIP3    H117424   5.605   3.090   2.550
 5827TIP3    H217425   5.569   3.108   2.696
 5828TIP3   OH217426   1.417   1.291   5.224
 5828TIP3    H117427   1.345   1.228   5.217
 5828TIP3    H217428   1.483   1.260   5.162
 5829TIP3   OH217429   5.748   3.667   3.197
 5829TIP3    H117430   5.683   3.642   3.131
 5829TIP3    H217431   5.818   3.709   3.147
 5830TIP3   OH217432   7.783   5.674   2.500
 5830TIP3    H117433   7.818   5.703   2.585
 5830TIP3    H217434   7.694   5.646   2.520
 5831TIP3   OH217435   5.344   0.756   1.031
 5831TIP3    H117436   5.266   0.806   1.055
 5831TIP3    H217437   5.326   0.724   0.943
 5832TIP3   OH217438   1.831   4.889   4.476
 5832TIP3    H117439   1.862   4.858   4.391
 5832TIP3    H217440   1.800   4.978   4.460
 5833TIP3   OH217441   4.598   6.072   5.044
 5833TIP3    H117442   4.602   6.107   5.133
 5833TIP3    H217443   4.519   6.111   5.006
 5834TIP3   OH217444   4.221   0.531   0.836
 5834TIP3    H117445   4.136   0.558   0.871
 5834TIP3    H217446   4.215   0.550   0.742
 5835TIP3   OH217447   7.948   5.634   3.780
 5835TIP3    H117448   7.944   5.723   3.815
 5835TIP3    H217449   8.036   5.604   3.802
 5836TIP3   OH217450   6.423   5.778   3.655
 5836TIP3    H117451   6.461   5.855   3.614
 5836TIP3    H217452   6.409   5.803   3.746
 5837TIP3   OH217453   5.389   2.060   4.671
 5837TIP3    H117454   5.400   1.971   4.703
 5837TIP3    H217455   5.317   2.096   4.723
 5838TIP3   OH217456   3.060   3.233   3.447
 5838TIP3    H117457   3.066   3.284   3.366
 5838TIP3    H217458   2.977   3.259   3.486
 5839TIP3   OH217459   5.545   5.880   0.471
 5839TIP3    H117460   5.612   5.885   0.402
 5839TIP3    H217461   5.506   5.967   0.472
 5840TIP3   OH217462   1.102   6.339   4.081
 5840TIP3    H117463   1.179   6.319   4.028
 5840TIP3    H217464   1.137   6.353   4.169
 5841TIP3   OH217465   4.937   1.353   3.326
 5841TIP3    H117466   4.909   1.316   3.409
 5841TIP3    H217467   4.861   1.345   3.269
 5842TIP3   OH217468   7.477   6.916   5.711
 5842TIP3    H117469   7.435   6.882   5.790
 5842TIP3    H217470   7.556   6.864   5.700
 5843TIP3   OH217471   0.758   3.208   1.441
 5843TIP3    H117472   0.780   3.127   1.487
 5843TIP3    H217473   0.781   3.190   1.349
 5844TIP3   OH217474   7.459   6.448   1.589
 5844TIP3    H117475   7.381   6.414   1.633
 5844TIP3    H217476   7.476   6.385   1.519
 5845TIP3   OH217477   2.415   7.516   4.196
 5845TIP3    H117478   2.335   7.521   4.144
 5845TIP3    H217479   2.478   7.473   4.138
 5846TIP3   OH217480   0.523   5.820   6.412
 5846TIP3    H117481   0.551   5.744   6.361
 5846TIP3    H217482   0.427   5.815   6.412
 5847TIP3   OH217483   7.076   1.906   0.486
 5847TIP3    H117484   7.168   1.931   0.488
 5847TIP3    H217485   7.071   1.837   0.419
 5848TIP3   OH217486   3.854   6.806   2.160
 5848TIP3    H117487   3.848   6.872   2.092
 5848TIP3    H217488   3.836   6.853   2.242
 5849TIP3   OH217489   1.511   5.608   0.906
 5849TIP3    H117490   1.466   5.598   0.990
 5849TIP3    H217491   1.589   5.552   0.914
 5850TIP3   OH217492   2.047   1.727   5.831
 5850TIP3    H117493   2.055   1.819   5.805
 5850TIP3    H217494   1.996   1.686   5.761
 5851TIP3   OH217495   7.512   5.274   1.135
 5851TIP3    H117496   7.450   5.338   1.101
 5851TIP3    H217497   7.460   5.221   1.196
 5852TIP3   OH217498   1.959   4.704   3.004
 5852TIP3    H117499   1.945   4.786   2.958
 5852TIP3    H217500   1.900   4.707   3.079
 5853TIP3   OH217501   6.994   5.301   2.385
 5853TIP3    H117502   6.980   5.389   2.421
 5853TIP3    H217503   7.084   5.302   2.353
 5854TIP3   OH217504   8.182   6.322   6.325
 5854TIP3    H117505   8.117   6.367   6.380
 5854TIP3    H217506   8.234   6.393   6.288
 5855TIP3   OH217507   3.413   1.143   2.466
 5855TIP3    H117508   3.403   1.068   2.525
 5855TIP3    H217509   3.507   1.148   2.450
 5856TIP3   OH217510   6.534   6.566   6.324
 5856TIP3    H117511   6.445   6.564   6.287
 5856TIP3    H217512   6.586   6.512   6.264
 5857TIP3   OH217513   2.338   6.016   2.732
 5857TIP3    H117514   2.347   5.936   2.783
 5857TIP3    H217515   2.398   6.003   2.658
 5858TIP3   OH217516   1.350   1.865   2.493
 5858TIP3    H117517   1.357   1.877   2.587
 5858TIP3    H217518   1.440   1.849   2.464
 5859TIP3   OH217519   6.147   7.783   5.920
 5859TIP3    H117520   6.127   7.689   5.928
 5859TIP3    H217521   6.067   7.827   5.948
 5860TIP3   OH217522   6.297   6.820   1.644
 5860TIP3    H117523   6.202   6.815   1.639
 5860TIP3    H217524   6.325   6.837   1.554
 5861TIP3   OH217525   5.453   6.983   3.311
 5861TIP3    H117526   5.538   7.021   3.290
 5861TIP3    H217527   5.463   6.890   3.291
 5862TIP3   OH217528   1.099   4.402   1.012
 5862TIP3    H117529   1.039   4.472   0.984
 5862TIP3    H217530   1.166   4.448   1.062
 5863TIP3   OH217531   4.227   6.209   3.939
 5863TIP3    H117532   4.226   6.206   3.843
 5863TIP3    H217533   4.285   6.137   3.964
 5864TIP3   OH217534   1.157   6.561   1.772
 5864TIP3    H117535   1.133   6.483   1.821
 5864TIP3    H217536   1.089   6.571   1.705
 5865TIP3   OH217537   0.504   1.321   5.028
 5865TIP3    H117538   0.483   1.297   4.938
 5865TIP3    H217539   0.423   1.306   5.077
 5866TIP3   OH217540   6.101   6.051   5.412
 5866TIP3    H117541   6.117   6.051   5.318
 5866TIP3    H217542   6.158   5.981   5.446
 5867TIP3   OH217543   6.815   6.522   3.570
 5867TIP3    H117544   6.831   6.617   3.567
 5867TIP3    H217545   6.834   6.492   3.481
 5868TIP3   OH217546   3.408   1.682   6.712
 5868TIP3    H117547   3.410   1.665   6.806
 5868TIP3    H217548   3.492   1.649   6.680
 5869TIP3   OH217549   3.397   6.778   1.470
 5869TIP3    H117550   3.321   6.826   1.438
 5869TIP3    H217551   3.381   6.767   1.564
 5870TIP3   OH217552   4.187   3.980   6.370
 5870TIP3    H117553   4.246   4.002   6.442
 5870TIP3    H217554   4.122   3.921   6.410
 5871TIP3   OH217555   6.278   4.378   5.433
 5871TIP3    H117556   6.310   4.460   5.396
 5871TIP3    H217557   6.230   4.336   5.362
 5872TIP3   OH217558   4.878   2.091   2.651
 5872TIP3    H117559   4.951   2.121   2.596
 5872TIP3    H217560   4.921   2.049   2.726
 5873TIP3   OH217561   3.879   3.124   5.986
 5873TIP3    H117562   3.826   3.079   5.920
 5873TIP3    H217563   3.938   3.056   6.020
 5874TIP3   OH217564   3.644   6.964   3.875
 5874TIP3    H117565   3.632   6.879   3.832
 5874TIP3    H217566   3.667   7.024   3.804
 5875TIP3   OH217567   3.669   2.980   1.158
 5875TIP3    H117568   3.609   3.021   1.220
 5875TIP3    H217569   3.616   2.964   1.080
 5876TIP3   OH217570   0.448   4.154   3.163
 5876TIP3    H117571   0.527   4.105   3.186
 5876TIP3    H217572   0.474   4.246   3.170
 5877TIP3   OH217573   4.249   7.439   6.565
 5877TIP3    H117574   4.197   7.367   6.529
 5877TIP3    H217575   4.323   7.447   6.504
 5878TIP3   OH217576   4.298   4.620   1.768
 5878TIP3    H117577   4.313   4.581   1.854
 5878TIP3    H217578   4.329   4.555   1.706
 5879TIP3   OH217579   3.602   7.287   2.887
 5879TIP3    H117580   3.531   7.313   2.946
 5879TIP3    H217581   3.590   7.193   2.875
 5880TIP3   OH217582   1.798   7.349   5.894
 5880TIP3    H117583   1.843   7.275   5.851
 5880TIP3    H217584   1.711   7.314   5.915
 5881TIP3   OH217585   7.036   2.472   6.272
 5881TIP3    H117586   7.055   2.387   6.232
 5881TIP3    H217587   6.986   2.450   6.351
 5882TIP3   OH217588   2.134   4.398   2.263
 5882TIP3    H117589   2.223   4.368   2.281
 5882TIP3    H217590   2.098   4.420   2.349
 5883TIP3   OH217591   1.067   0.459   5.800
 5883TIP3    H117592   1.155   0.422   5.790
 5883TIP3    H217593   1.033   0.465   5.711
 5884TIP3   OH217594   2.474   5.291   5.999
 5884TIP3    H117595   2.463   5.386   6.007
 5884TIP3    H217596   2.390   5.254   6.025
 5885TIP3   OH217597   4.031   2.077   2.668
 5885TIP3    H117598   4.105   2.134   2.650
 5885TIP3    H217599   4.023   2.022   2.590
 5886TIP3   OH217600   5.649   7.817   3.844
 5886TIP3    H117601   5.614   7.754   3.781
 5886TIP3    H217602   5.713   7.767   3.895
 5887TIP3   OH217603   3.835   5.630   0.151
 5887TIP3    H117604   3.929   5.615   0.143
 5887TIP3    H217605   3.826   5.691   0.224
 5888TIP3   OH217606   7.929   4.949   0.429
 5888TIP3    H117607   7.934   4.855   0.410
 5888TIP3    H217608   7.938   4.954   0.524
 5889TIP3   OH217609   7.825   0.227   1.835
 5889TIP3    H117610   7.753   0.284   1.811
 5889TIP3    H217611   7.786   0.140   1.843
 5890TIP3   OH217612   3.797   1.691   0.384
 5890TIP3    H117613   3.724   1.728   0.333
 5890TIP3    H217614   3.857   1.657   0.318
 5891TIP3   OH217615   7.727   4.661   4.303
 5891TIP3    H117616   7.702   4.663   4.211
 5891TIP3    H217617   7.821   4.681   4.304
 5892TIP3   OH217618   7.325   7.692   5.314
 5892TIP3    H117619   7.415   7.685   5.344
 5892TIP3    H217620   7.275   7.634   5.373
 5893TIP3   OH217621   7.214   2.242   6.436
 5893TIP3    H117622   7.254   2.169   6.483
 5893TIP3    H217623   7.133   2.206   6.401
 5894TIP3   OH217624   3.456   4.714   0.064
 5894TIP3    H117625   3.367   4.719   0.100
 5894TIP3    H217626   3.513   4.709   0.140
 5895TIP3   OH217627   6.471   6.553   5.753
 5895TIP3    H117628   6.465   6.461   5.777
 5895TIP3    H217629   6.505   6.597   5.831
 5896TIP3   OH217630   0.802   5.531   5.626
 5896TIP3    H117631   0.791   5.555   5.534
 5896TIP3    H217632   0.896   5.539   5.642
 5897TIP3   OH217633   1.615   4.816   6.394
 5897TIP3    H117634   1.612   4.879   6.322
 5897TIP3    H217635   1.706   4.819   6.425
 5898TIP3   OH217636   8.249   2.594   6.493
 5898TIP3    H117637   8.295   2.655   6.435
 5898TIP3    H217638   8.173   2.565   6.442
 5899TIP3   OH217639  -0.016   2.249   0.609
 5899TIP3    H117640  -0.104   2.223   0.635
 5899TIP3    H217641   0.041   2.180   0.643
 5900TIP3   OH217642   3.623   1.823   4.749
 5900TIP3    H117643   3.625   1.914   4.718
 5900TIP3    H217644   3.538   1.814   4.791
 5901TIP3   OH217645   7.940   7.014   4.593
 5901TIP3    H117646   7.878   6.971   4.651
 5901TIP3    H217647   7.971   7.090   4.642
 5902TIP3   OH217648   1.985   4.729   1.569
 5902TIP3    H117649   2.075   4.748   1.544
 5902TIP3    H217650   1.991   4.693   1.657
 5903TIP3   OH217651   2.006   5.019   5.513
 5903TIP3    H117652   2.020   4.996   5.421
 5903TIP3    H217653   1.990   5.113   5.512
 5904TIP3   OH217654   1.379   3.254   3.281
 5904TIP3    H117655   1.308   3.196   3.256
 5904TIP3    H217656   1.446   3.242   3.214
 5905TIP3   OH217657   3.107   4.793   5.187
 5905TIP3    H117658   3.063   4.876   5.169
 5905TIP3    H217659   3.060   4.757   5.263
 5906TIP3   OH217660   0.140   2.963   1.854
 5906TIP3    H117661   0.172   2.983   1.942
 5906TIP3    H217662   0.218   2.937   1.805
 5907TIP3   OH217663   2.987   5.527   3.954
 5907TIP3    H117664   2.895   5.541   3.976
 5907TIP3    H217665   3.029   5.612   3.968
 5908TIP3   OH217666   4.516   1.704   4.856
 5908TIP3    H117667   4.447   1.672   4.799
 5908TIP3    H217668   4.479   1.781   4.898
 5909TIP3   OH217669   7.778   0.628   3.050
 5909TIP3    H117670   7.831   0.562   3.094
 5909TIP3    H217671   7.767   0.595   2.961
 5910TIP3   OH217672   4.016   4.261   0.639
 5910TIP3    H117673   4.095   4.207   0.634
 5910TIP3    H217674   4.000   4.271   0.733
 5911TIP3   OH217675   2.304   1.927   4.124
 5911TIP3    H117676   2.218   1.944   4.163
 5911TIP3    H217677   2.317   1.832   4.133
 5912TIP3   OH217678   4.348   5.421   2.799
 5912TIP3    H117679   4.327   5.338   2.843
 5912TIP3    H217680   4.264   5.458   2.775
 5913TIP3   OH217681   3.312   4.432   2.256
 5913TIP3    H117682   3.230   4.414   2.211
 5913TIP3    H217683   3.332   4.523   2.236
 5914TIP3   OH217684   1.029   7.398   4.090
 5914TIP3    H117685   1.035   7.446   4.008
 5914TIP3    H217686   1.045   7.464   4.158
 5915TIP3   OH217687   6.254   7.323   4.648
 5915TIP3    H117688   6.303   7.299   4.570
 5915TIP3    H217689   6.316   7.311   4.720
 5916TIP3   OH217690   4.734   6.783   0.696
 5916TIP3    H117691   4.724   6.716   0.764
 5916TIP3    H217692   4.828   6.780   0.674
 5917TIP3   OH217693   3.202   2.845   5.388
 5917TIP3    H117694   3.107   2.844   5.405
 5917TIP3    H217695   3.224   2.753   5.374
 5918TIP3   OH217696   2.072   5.202   4.560
 5918TIP3    H117697   2.126   5.272   4.523
 5918TIP3    H217698   2.002   5.189   4.496
 5919TIP3   OH217699   3.939   4.148   6.160
 5919TIP3    H117700   3.963   4.118   6.248
 5919TIP3    H217701   3.848   4.178   6.169
 5920TIP3   OH217702   5.161   6.689   6.236
 5920TIP3    H117703   5.135   6.751   6.168
 5920TIP3    H217704   5.242   6.726   6.273
 5921TIP3   OH217705   5.506   0.609   2.606
 5921TIP3    H117706   5.544   0.589   2.692
 5921TIP3    H217707   5.469   0.696   2.616
 5922TIP3   OH217708   4.239   7.670   6.712
 5922TIP3    H117709   4.239   7.620   6.631
 5922TIP3    H217710   4.319   7.723   6.708
 5923TIP3   OH217711   5.365   5.072   0.936
 5923TIP3    H117712   5.414   5.095   0.857
 5923TIP3    H217713   5.274   5.088   0.914
 5924TIP3   OH217714   4.839   4.660   0.164
 5924TIP3    H117715   4.788   4.735   0.133
 5924TIP3    H217716   4.774   4.604   0.207
 5925TIP3   OH217717   0.392   1.337   5.347
 5925TIP3    H117718   0.336   1.295   5.413
 5925TIP3    H217719   0.356   1.307   5.264
 5926TIP3   OH217720   2.066   4.323   4.385
 5926TIP3    H117721   2.144   4.367   4.419
 5926TIP3    H217722   2.096   4.279   4.306
 5927TIP3   OH217723   5.306   7.630   1.397
 5927TIP3    H117724   5.258   7.547   1.389
 5927TIP3    H217725   5.388   7.606   1.439
 5928TIP3   OH217726   5.393   2.304   0.240
 5928TIP3    H117727   5.470   2.357   0.221
 5928TIP3    H217728   5.409   2.222   0.193
 5929TIP3   OH217729   4.923   2.041   4.692
 5929TIP3    H117730   4.853   1.988   4.729
 5929TIP3    H217731   4.997   1.981   4.684
 5930TIP3   OH217732   2.356   1.789   1.033
 5930TIP3    H117733   2.408   1.826   1.104
 5930TIP3    H217734   2.331   1.702   1.064
 5931TIP3   OH217735   2.950   1.395   1.233
 5931TIP3    H117736   2.906   1.425   1.153
 5931TIP3    H217737   2.957   1.301   1.222
 5932TIP3   OH217738   5.852   2.659   3.737
 5932TIP3    H117739   5.840   2.747   3.700
 5932TIP3    H217740   5.769   2.615   3.721
 5933TIP3   OH217741   5.062   1.840   2.644
 5933TIP3    H117742   4.998   1.840   2.572
 5933TIP3    H217743   5.014   1.802   2.718
 5934TIP3   OH217744   0.595   7.092   6.458
 5934TIP3    H117745   0.584   7.176   6.502
 5934TIP3    H217746   0.662   7.108   6.392
 5935TIP3   OH217747   4.464   0.096   2.476
 5935TIP3    H117748   4.391   0.099   2.538
 5935TIP3    H217749   4.432   0.143   2.399
 5936TIP3   OH217750   6.290   0.886   0.986
 5936TIP3    H117751   6.283   0.869   0.892
 5936TIP3    H217752   6.339   0.811   1.020
 5937TIP3   OH217753   4.322   2.111   0.049
 5937TIP3    H117754   4.350   2.160   0.126
 5937TIP3    H217755   4.396   2.118  -0.012
 5938TIP3   OH217756   2.344   7.092   5.501
 5938TIP3    H117757   2.411   7.030   5.473
 5938TIP3    H217758   2.262   7.052   5.475
 5939TIP3   OH217759   6.873   2.955   3.035
 5939TIP3    H117760   6.929   2.884   3.003
 5939TIP3    H217761   6.929   3.003   3.097
 5940TIP3   OH217762   3.183   4.476   5.513
 5940TIP3    H117763   3.126   4.502   5.441
 5940TIP3    H217764   3.213   4.558   5.551
 5941TIP3   OH217765   5.883   7.447   6.174
 5941TIP3    H117766   5.882   7.537   6.206
 5941TIP3    H217767   5.792   7.419   6.176
 5942TIP3   OH217768   5.028   6.036   6.540
 5942TIP3    H117769   4.944   6.070   6.572
 5942TIP3    H217770   5.077   6.114   6.515
 5943TIP3   OH217771   3.192   3.506   3.628
 5943TIP3    H117772   3.236   3.591   3.630
 5943TIP3    H217773   3.262   3.442   3.638
 5944TIP3   OH217774   7.387   2.371   4.949
 5944TIP3    H117775   7.482   2.364   4.962
 5944TIP3    H217776   7.355   2.410   5.030
 5945TIP3   OH217777   2.375   4.434   6.756
 5945TIP3    H117778   2.320   4.511   6.771
 5945TIP3    H217779   2.330   4.363   6.802
 5946TIP3   OH217780   7.054   7.184   2.262
 5946TIP3    H117781   7.001   7.249   2.308
 5946TIP3    H217782   6.992   7.117   2.234
 5947TIP3   OH217783   4.587   1.466   3.746
 5947TIP3    H117784   4.507   1.434   3.705
 5947TIP3    H217785   4.591   1.422   3.830
 5948TIP3   OH217786   7.654   3.993   4.534
 5948TIP3    H117787   7.632   3.956   4.449
 5948TIP3    H217788   7.570   4.004   4.578
 5949TIP3   OH217789   6.385   3.249   4.261
 5949TIP3    H117790   6.384   3.213   4.349
 5949TIP3    H217791   6.294   3.275   4.245
 5950TIP3   OH217792   8.100   7.761  -0.059
 5950TIP3    H117793   8.170   7.819  -0.028
 5950TIP3    H217794   8.031   7.771   0.006
 5951TIP3   OH217795   6.279   4.802   2.436
 5951TIP3    H117796   6.360   4.849   2.416
 5951TIP3    H217797   6.242   4.848   2.511
 5952TIP3   OH217798   0.733   4.348   5.272
 5952TIP3    H117799   0.717   4.402   5.194
 5952TIP3    H217800   0.654   4.296   5.281
 5953TIP3   OH217801   1.541   7.309   3.316
 5953TIP3    H117802   1.588   7.269   3.242
 5953TIP3    H217803   1.477   7.243   3.341
 5954TIP3   OH217804   7.380   5.171   2.661
 5954TIP3    H117805   7.363   5.164   2.567
 5954TIP3    H217806   7.430   5.092   2.683
 5955TIP3   OH217807   0.161   3.291   5.652
 5955TIP3    H117808   0.244   3.262   5.615
 5955TIP3    H217809   0.181   3.376   5.692
 5956TIP3   OH217810   2.323   3.178   0.349
 5956TIP3    H117811   2.331   3.243   0.419
 5956TIP3    H217812   2.389   3.112   0.370
 5957TIP3   OH217813   0.776   7.489   0.527
 5957TIP3    H117814   0.756   7.538   0.607
 5957TIP3    H217815   0.814   7.407   0.558
 5958TIP3   OH217816   4.902   3.274   3.146
 5958TIP3    H117817   4.881   3.210   3.214
 5958TIP3    H217818   4.948   3.224   3.079
 5959TIP3   OH217819   3.035   1.917   3.796
 5959TIP3    H117820   3.119   1.871   3.783
 5959TIP3    H217821   2.981   1.854   3.844
 5960TIP3   OH217822   4.639   6.866   5.143
 5960TIP3    H117823   4.553   6.908   5.139
 5960TIP3    H217824   4.668   6.864   5.051
 5961TIP3   OH217825   1.483   5.497   5.395
 5961TIP3    H117826   1.444   5.417   5.359
 5961TIP3    H217827   1.535   5.532   5.323
 5962TIP3   OH217828   5.815   6.199   5.336
 5962TIP3    H117829   5.858   6.133   5.391
 5962TIP3    H217830   5.885   6.238   5.285
 5963TIP3   OH217831   4.525   7.474   1.076
 5963TIP3    H117832   4.615   7.488   1.104
 5963TIP3    H217833   4.472   7.510   1.148
 5964TIP3   OH217834   2.768   7.165   0.972
 5964TIP3    H117835   2.805   7.152   0.884
 5964TIP3    H217836   2.687   7.114   0.972
 5965TIP3   OH217837   4.211   7.400   3.412
 5965TIP3    H117838   4.199   7.485   3.455
 5965TIP3    H217839   4.157   7.406   3.333
 5966TIP3   OH217840   2.825   5.249   4.625
 5966TIP3    H117841   2.908   5.279   4.660
 5966TIP3    H217842   2.847   5.210   4.541
 5967TIP3   OH217843   7.950   5.939   6.318
 5967TIP3    H117844   8.022   5.994   6.287
 5967TIP3    H217845   7.916   5.896   6.239
 5968TIP3   OH217846   7.700   2.164   3.042
 5968TIP3    H117847   7.778   2.214   3.063
 5968TIP3    H217848   7.687   2.106   3.117
 5969TIP3   OH217849   2.635   7.373   4.611
 5969TIP3    H117850   2.594   7.443   4.559
 5969TIP3    H217851   2.562   7.334   4.659
 5970TIP3   OH217852   6.340   6.490   1.088
 5970TIP3    H117853   6.400   6.562   1.072
 5970TIP3    H217854   6.319   6.497   1.181
 5971TIP3   OH217855   4.220   5.469   2.101
 5971TIP3    H117856   4.163   5.447   2.175
 5971TIP3    H217857   4.216   5.391   2.045
 5972TIP3   OH217858   6.581   1.259   4.884
 5972TIP3    H117859   6.601   1.281   4.793
 5972TIP3    H217860   6.660   1.284   4.933
 5973TIP3   OH217861   7.146  -0.050   4.245
 5973TIP3    H117862   7.229  -0.032   4.290
 5973TIP3    H217863   7.087   0.020   4.274
 5974TIP3   OH217864   7.184   1.861   2.170
 5974TIP3    H117865   7.123   1.860   2.244
 5974TIP3    H217866   7.221   1.949   2.172
 5975TIP3   OH217867   6.007   2.795   0.405
 5975TIP3    H117868   6.063   2.719   0.389
 5975TIP3    H217869   6.043   2.836   0.483
 5976TIP3   OH217870   3.509   6.682   2.367
 5976TIP3    H117871   3.589   6.729   2.391
 5976TIP3    H217872   3.527   6.591   2.390
 5977TIP3   OH217873   7.516   2.815   3.277
 5977TIP3    H117874   7.474   2.743   3.325
 5977TIP3    H217875   7.518   2.887   3.339
 5978TIP3   OH217876   7.220   6.997   1.987
 5978TIP3    H117877   7.246   6.931   1.923
 5978TIP3    H217878   7.191   6.946   2.063
 5979TIP3   OH217879   5.014   2.196   6.600
 5979TIP3    H117880   5.043   2.109   6.573
 5979TIP3    H217881   5.002   2.189   6.695
 5980TIP3   OH217882   4.504   1.595   2.578
 5980TIP3    H117883   4.559   1.562   2.649
 5980TIP3    H217884   4.498   1.689   2.593
 5981TIP3   OH217885   3.169   6.600   2.812
 5981TIP3    H117886   3.102   6.545   2.853
 5981TIP3    H217887   3.187   6.668   2.877
 5982TIP3   OH217888   1.359   3.330   6.023
 5982TIP3    H117889   1.293   3.356   5.960
 5982TIP3    H217890   1.421   3.403   6.024
 5983TIP3   OH217891   1.322   3.664   0.433
 5983TIP3    H117892   1.282   3.733   0.486
 5983TIP3    H217893   1.401   3.703   0.397
 5984TIP3   OH217894   4.446   0.972   1.974
 5984TIP3    H117895   4.450   1.033   1.900
 5984TIP3    H217896   4.476   1.023   2.049
 5985TIP3   OH217897   1.636   5.651   5.231
 5985TIP3    H117898   1.726   5.618   5.230
 5985TIP3    H217899   1.621   5.684   5.143
 5986TIP3   OH217900   6.808   3.078   0.248
 5986TIP3    H117901   6.786   3.052   0.158
 5986TIP3    H217902   6.902   3.063   0.255
 5987TIP3   OH217903   3.997   3.615   0.127
 5987TIP3    H117904   4.055   3.541   0.110
 5987TIP3    H217905   3.979   3.610   0.221
 5988TIP3   OH217906   7.242   4.159   4.712
 5988TIP3    H117907   7.262   4.244   4.751
 5988TIP3    H217908   7.147   4.148   4.725
 5989TIP3   OH217909   3.692   7.532   6.036
 5989TIP3    H117910   3.615   7.483   6.065
 5989TIP3    H217911   3.763   7.500   6.092
 5990TIP3   OH217912   5.348   3.746   4.609
 5990TIP3    H117913   5.311   3.673   4.659
 5990TIP3    H217914   5.281   3.815   4.615
 5991TIP3   OH217915   2.265   0.360   3.068
 5991TIP3    H117916   2.233   0.433   3.122
 5991TIP3    H217917   2.348   0.392   3.033
 5992TIP3   OH217918   0.976   0.975   3.667
 5992TIP3    H117919   1.057   0.970   3.615
 5992TIP3    H217920   0.958   1.069   3.674
 5993TIP3   OH217921   2.842   4.602   5.811
 5993TIP3    H117922   2.757   4.640   5.791
 5993TIP3    H217923   2.905   4.672   5.793
 5994TIP3   OH217924   0.336   6.168   3.811
 5994TIP3    H117925   0.309   6.253   3.777
 5994TIP3    H217926   0.326   6.175   3.906
 5995TIP3   OH217927   3.016   1.487   5.082
 5995TIP3    H117928   2.930   1.528   5.070
 5995TIP3    H217929   3.053   1.531   5.158
 5996TIP3   OH217930   4.946   5.264   0.154
 5996TIP3    H117931   4.899   5.193   0.110
 5996TIP3    H217932   4.989   5.312   0.084
 5997TIP3   OH217933   6.137   3.916   2.669
 5997TIP3    H117934   6.095   3.842   2.712
 5997TIP3    H217935   6.184   3.877   2.595
 5998TIP3   OH217936   1.582   3.136   0.134
 5998TIP3    H117937   1.552   3.126   0.224
 5998TIP3    H217938   1.651   3.202   0.139
 5999TIP3   OH217939   7.908   7.629   3.182
 5999TIP3    H117940   7.904   7.604   3.274
 5999TIP3    H217941   7.884   7.721   3.181
 6000TIP3   OH217942   6.767   4.376   0.101
 6000TIP3    H117943   6.772   4.432   0.023
 6000TIP3    H217944   6.824   4.418   0.165
 6001TIP3   OH217945   4.480   7.003   0.107
 6001TIP3    H117946   4.479   6.952   0.188
 6001TIP3    H217947   4.569   7.036   0.100
 6002TIP3   OH217948   3.510   6.412   2.867
 6002TIP3    H117949   3.595   6.389   2.831
 6002TIP3    H217950   3.484   6.491   2.819
 6003TIP3   OH217951   5.708   6.441   5.484
 6003TIP3    H117952   5.791   6.488   5.480
 6003TIP3    H217953   5.732   6.349   5.476
 6004TIP3   OH217954   7.502   5.370   0.805
 6004TIP3    H117955   7.574   5.430   0.819
 6004TIP3    H217956   7.471   5.347   0.893
 6005TIP3   OH217957   2.527   1.353   6.728
 6005TIP3    H117958   2.542   1.304   6.647
 6005TIP3    H217959   2.572   1.302   6.796
 6006TIP3   OH217960   0.983   1.708   0.481
 6006TIP3    H117961   1.075   1.703   0.505
 6006TIP3    H217962   0.979   1.674   0.392
 6007TIP3   OH217963   4.786   1.608   6.768
 6007TIP3    H117964   4.722   1.591   6.700
 6007TIP3    H217965   4.813   1.698   6.754
 6008TIP3   OH217966   7.403   3.851   5.093
 6008TIP3    H117967   7.489   3.811   5.086
 6008TIP3    H217968   7.356   3.823   5.014
 6009TIP3   OH217969   4.442   0.596   3.450
 6009TIP3    H117970   4.446   0.674   3.395
 6009TIP3    H217971   4.418   0.628   3.537
 6010TIP3   OH217972   7.715   5.526   3.735
 6010TIP3    H117973   7.804   5.551   3.758
 6010TIP3    H217974   7.715   5.430   3.742
 6011TIP3   OH217975   7.793   4.863   4.856
 6011TIP3    H117976   7.729   4.883   4.925
 6011TIP3    H217977   7.824   4.949   4.827
 6012TIP3   OH217978   5.482   2.525   1.157
 6012TIP3    H117979   5.564   2.509   1.111
 6012TIP3    H217980   5.418   2.541   1.088
 6013TIP3   OH217981   4.254   0.258   5.410
 6013TIP3    H117982   4.197   0.207   5.468
 6013TIP3    H217983   4.312   0.194   5.370
 6014TIP3   OH217984   2.011   2.915   6.093
 6014TIP3    H117985   2.038   2.894   6.182
 6014TIP3    H217986   1.998   3.010   6.094
 6015TIP3   OH217987   0.042   6.991   3.945
 6015TIP3    H117988   0.079   6.980   4.033
 6015TIP3    H217989  -0.052   6.988   3.958
 6016TIP3   OH217990   3.291   3.129   6.252
 6016TIP3    H117991   3.292   3.223   6.234
 6016TIP3    H217992   3.348   3.092   6.185
 6017TIP3   OH217993   7.966   6.275   3.200
 6017TIP3    H117994   7.940   6.189   3.167
 6017TIP3    H217995   8.047   6.295   3.153
 6018TIP3   OH217996   4.096   6.962   4.062
 6018TIP3    H117997   4.014   7.005   4.087
 6018TIP3    H217998   4.070   6.876   4.032
 6019TIP3   OH217999   7.396   4.706   5.820
 6019TIP3    H118000   7.385   4.783   5.765
 6019TIP3    H218001   7.370   4.633   5.765
 6020TIP3   OH218002   4.973   2.447   4.094
 6020TIP3    H118003   4.995   2.407   4.179
 6020TIP3    H218004   4.948   2.536   4.116
 6021TIP3   OH218005   7.451   4.508   3.460
 6021TIP3    H118006   7.394   4.578   3.495
 6021TIP3    H218007   7.465   4.450   3.535
 6022TIP3   OH218008   7.115   2.375   4.107
 6022TIP3    H118009   7.108   2.397   4.014
 6022TIP3    H218010   7.025   2.373   4.138
 6023TIP3   OH218011   4.156   0.508   2.037
 6023TIP3    H118012   4.100   0.498   2.114
 6023TIP3    H218013   4.176   0.602   2.035
 6024TIP3   OH218014   4.474   3.491   6.583
 6024TIP3    H118015   4.522   3.520   6.505
 6024TIP3    H218016   4.400   3.551   6.589
 6025TIP3   OH218017   6.558   4.273   3.981
 6025TIP3    H118018   6.578   4.270   3.888
 6025TIP3    H218019   6.470   4.311   3.985
 6026TIP3   OH218020   8.204   5.903   0.134
 6026TIP3    H118021   8.218   5.976   0.195
 6026TIP3    H218022   8.249   5.929   0.054
 6027TIP3   OH218023   4.660   0.740   2.787
 6027TIP3    H118024   4.568   0.732   2.812
 6027TIP3    H218025   4.707   0.692   2.854
 6028TIP3   OH218026   5.853   3.132   2.964
 6028TIP3    H118027   5.917   3.133   3.035
 6028TIP3    H218028   5.768   3.134   3.008
 6029TIP3   OH218029   7.842   2.148   1.923
 6029TIP3    H118030   7.830   2.065   1.968
 6029TIP3    H218031   7.810   2.132   1.834
 6030TIP3   OH218032   6.606   1.219   6.237
 6030TIP3    H118033   6.658   1.198   6.315
 6030TIP3    H218034   6.519   1.184   6.255
 6031TIP3   OH218035   0.594   4.424   5.023
 6031TIP3    H118036   0.526   4.359   5.043
 6031TIP3    H218037   0.546   4.496   4.980
 6032TIP3   OH218038   2.175   4.113   6.577
 6032TIP3    H118039   2.176   4.146   6.667
 6032TIP3    H218040   2.235   4.170   6.530
 6033TIP3   OH218041   4.532   4.327   5.656
 6033TIP3    H118042   4.611   4.379   5.639
 6033TIP3    H218043   4.482   4.379   5.719
 6034TIP3   OH218044   4.173   0.451   5.735
 6034TIP3    H118045   4.256   0.403   5.738
 6034TIP3    H218046   4.137   0.443   5.823
 6035TIP3   OH218047   2.475   5.475   1.543
 6035TIP3    H118048   2.567   5.458   1.524
 6035TIP3    H218049   2.468   5.468   1.638
 6036TIP3   OH218050   3.670   3.100   3.546
 6036TIP3    H118051   3.660   3.028   3.483
 6036TIP3    H218052   3.581   3.119   3.575
 6037TIP3   OH218053   6.719   6.735   0.232
 6037TIP3    H118054   6.635   6.750   0.190
 6037TIP3    H218055   6.698   6.696   0.317
 6038TIP3   OH218056   6.739   1.647   6.186
 6038TIP3    H118057   6.834   1.660   6.188
 6038TIP3    H218058   6.703   1.732   6.211
 6039TIP3   OH218059   5.208   0.884   1.913
 6039TIP3    H118060   5.254   0.846   1.837
 6039TIP3    H218061   5.171   0.808   1.959
 6040TIP3   OH218062   4.971   2.547   0.954
 6040TIP3    H118063   4.972   2.639   0.981
 6040TIP3    H218064   4.912   2.545   0.878
 6041TIP3   OH218065   7.075   7.701   4.863
 6041TIP3    H118066   7.142   7.769   4.854
 6041TIP3    H218067   7.122   7.619   4.850
 6042TIP3   OH218068   0.128   6.363   4.907
 6042TIP3    H118069   0.140   6.423   4.834
 6042TIP3    H218070   0.067   6.297   4.874
 6043TIP3   OH218071   1.857   2.180   6.700
 6043TIP3    H118072   1.909   2.194   6.620
 6043TIP3    H218073   1.857   2.264   6.744
 6044TIP3   OH218074   1.845   4.622   5.839
 6044TIP3    H118075   1.924   4.654   5.796
 6044TIP3    H218076   1.774   4.673   5.800
 6045TIP3   OH218077   5.760   4.445   4.377
 6045TIP3    H118078   5.684   4.426   4.432
 6045TIP3    H218079   5.835   4.437   4.436
 6046TIP3   OH218080   2.774   7.492   0.114
 6046TIP3    H118081   2.865   7.507   0.090
 6046TIP3    H218082   2.736   7.450   0.037
 6047TIP3   OH218083   8.220   3.384   1.156
 6047TIP3    H118084   8.204   3.298   1.195
 6047TIP3    H218085   8.308   3.407   1.184
 6048TIP3   OH218086   4.925   1.994   1.875
 6048TIP3    H118087   4.883   1.998   1.788
 6048TIP3    H218088   4.933   1.901   1.893
 6049TIP3   OH218089   3.061   3.791   2.287
 6049TIP3    H118090   3.097   3.826   2.368
 6049TIP3    H218091   3.132   3.736   2.252
 6050TIP3   OH218092   2.911   0.933   4.718
 6050TIP3    H118093   2.877   0.866   4.658
 6050TIP3    H218094   3.001   0.948   4.689
 6051TIP3   OH218095   1.647   6.203   1.856
 6051TIP3    H118096   1.726   6.197   1.803
 6051TIP3    H218097   1.622   6.296   1.850
 6052TIP3   OH218098   7.723   7.238   2.131
 6052TIP3    H118099   7.637   7.206   2.156
 6052TIP3    H218100   7.782   7.208   2.200
 6053TIP3   OH218101   6.529   3.633   2.209
 6053TIP3    H118102   6.546   3.722   2.177
 6053TIP3    H218103   6.590   3.578   2.160
 6054TIP3   OH218104   1.096   0.401   1.328
 6054TIP3    H118105   1.063   0.441   1.247
 6054TIP3    H218106   1.139   0.321   1.298
 6055TIP3   OH218107   2.603   1.677   4.080
 6055TIP3    H118108   2.525   1.730   4.067
 6055TIP3    H218109   2.574   1.587   4.062
 6056TIP3   OH218110   0.317   2.215   5.671
 6056TIP3    H118111   0.347   2.181   5.587
 6056TIP3    H218112   0.398   2.237   5.717
 6057TIP3   OH218113   5.098   7.036   5.787
 6057TIP3    H118114   5.176   6.982   5.796
 6057TIP3    H218115   5.029   6.975   5.761
 6058TIP3   OH218116   3.331   5.177   3.010
 6058TIP3    H118117   3.342   5.271   3.023
 6058TIP3    H218118   3.402   5.153   2.950
 6059TIP3   OH218119   1.797   3.703   3.520
 6059TIP3    H118120   1.714   3.719   3.564
 6059TIP3    H218121   1.773   3.666   3.435
 6060TIP3   OH218122   2.191   2.777   3.809
 6060TIP3    H118123   2.185   2.734   3.893
 6060TIP3    H218124   2.242   2.718   3.754
 6061TIP3   OH218125   1.182   5.240   3.980
 6061TIP3    H118126   1.088   5.221   3.984
 6061TIP3    H218127   1.224   5.160   4.012
 6062TIP3   OH218128   0.324   3.767   1.068
 6062TIP3    H118129   0.232   3.743   1.079
 6062TIP3    H218130   0.351   3.726   0.986
 6063TIP3   OH218131   0.326   0.649   3.283
 6063TIP3    H118132   0.415   0.621   3.262
 6063TIP3    H218133   0.309   0.723   3.225
 6064TIP3   OH218134   0.240   3.007   3.754
 6064TIP3    H118135   0.236   3.100   3.729
 6064TIP3    H218136   0.332   2.992   3.774
 6065TIP3   OH218137   6.459   0.461   3.889
 6065TIP3    H118138   6.376   0.504   3.867
 6065TIP3    H218139   6.461   0.461   3.984
 6066TIP3   OH218140   8.112   0.731   1.205
 6066TIP3    H118141   8.034   0.740   1.150
 6066TIP3    H218142   8.096   0.790   1.278
 6067TIP3   OH218143   4.672   6.485   4.370
 6067TIP3    H118144   4.725   6.531   4.305
 6067TIP3    H218145   4.695   6.393   4.358
 6068TIP3   OH218146   6.276   7.363   1.760
 6068TIP3    H118147   6.345   7.349   1.824
 6068TIP3    H218148   6.217   7.426   1.802
 6069TIP3   OH218149   4.264   2.274   0.757
 6069TIP3    H118150   4.304   2.196   0.796
 6069TIP3    H218151   4.311   2.286   0.674
 6070TIP3   OH218152   2.401   6.582   0.690
 6070TIP3    H118153   2.419   6.669   0.725
 6070TIP3    H218154   2.433   6.584   0.600
 6071TIP3   OH218155   6.071   3.472   6.566
 6071TIP3    H118156   6.088   3.562   6.537
 6071TIP3    H218157   6.060   3.480   6.661
 6072TIP3   OH218158   7.200   3.846   0.066
 6072TIP3    H118159   7.258   3.852   0.142
 6072TIP3    H218160   7.249   3.793   0.003
 6073TIP3   OH218161   0.347   6.189   2.189
 6073TIP3    H118162   0.276   6.126   2.202
 6073TIP3    H218163   0.421   6.152   2.237
 6074TIP3   OH218164   7.332   3.751   4.792
 6074TIP3    H118165   7.248   3.705   4.784
 6074TIP3    H218166   7.391   3.686   4.830
 6075TIP3   OH218167   5.883   2.527   5.278
 6075TIP3    H118168   5.965   2.570   5.304
 6075TIP3    H218169   5.867   2.463   5.348
 6076TIP3   OH218170   4.749   7.603   4.788
 6076TIP3    H118171   4.655   7.619   4.799
 6076TIP3    H218172   4.779   7.677   4.736
 6077TIP3   OH218173   7.726   7.413   1.364
 6077TIP3    H118174   7.688   7.483   1.310
 6077TIP3    H218175   7.786   7.368   1.305
 6078TIP3   OH218176   6.616   3.358   1.648
 6078TIP3    H118177   6.587   3.273   1.682
 6078TIP3    H218178   6.543   3.388   1.592
 6079TIP3   OH218179   4.961   0.103   0.232
 6079TIP3    H118180   5.026   0.073   0.295
 6079TIP3    H218181   4.933   0.188   0.264
 6080TIP3   OH218182   3.009   3.676   4.068
 6080TIP3    H118183   2.914   3.689   4.060
 6080TIP3    H218184   3.047   3.755   4.030
 6081TIP3   OH218185   1.466   0.155   5.009
 6081TIP3    H118186   1.498   0.068   4.984
 6081TIP3    H218187   1.390   0.168   4.952
 6082TIP3   OH218188   4.563   0.678   5.552
 6082TIP3    H118189   4.517   0.664   5.635
 6082TIP3    H218190   4.548   0.597   5.503
 6083TIP3   OH218191   0.667   0.771   4.987
 6083TIP3    H118192   0.714   0.689   4.992
 6083TIP3    H218193   0.714   0.830   5.047
 6084TIP3   OH218194   7.675   2.123   0.872
 6084TIP3    H118195   7.759   2.151   0.909
 6084TIP3    H218196   7.698   2.085   0.787
 6085TIP3   OH218197   5.449   6.747   4.792
 6085TIP3    H118198   5.445   6.652   4.783
 6085TIP3    H218199   5.446   6.780   4.702
 6086TIP3   OH218200   0.798   5.754   5.966
 6086TIP3    H118201   0.725   5.812   5.988
 6086TIP3    H218202   0.764   5.699   5.895
 6087TIP3   OH218203   4.359   4.607   5.430
 6087TIP3    H118204   4.293   4.670   5.401
 6087TIP3    H218205   4.430   4.614   5.366
 6088TIP3   OH218206   2.794   6.400   1.557
 6088TIP3    H118207   2.804   6.448   1.474
 6088TIP3    H218208   2.834   6.314   1.540
 6089TIP3   OH218209   3.998   6.663   3.845
 6089TIP3    H118210   3.972   6.725   3.777
 6089TIP3    H218211   4.069   6.613   3.805
 6090TIP3   OH218212   0.979   1.848   6.690
 6090TIP3    H118213   0.997   1.784   6.758
 6090TIP3    H218214   0.885   1.842   6.675
 6091TIP3   OH218215   6.260   6.686   6.694
 6091TIP3    H118216   6.176   6.640   6.699
 6091TIP3    H218217   6.306   6.659   6.774
 6092TIP3   OH218218   1.941   1.079   6.322
 6092TIP3    H118219   2.021   1.060   6.372
 6092TIP3    H218220   1.953   1.031   6.240
 6093TIP3   OH218221   4.633   4.809   0.745
 6093TIP3    H118222   4.564   4.751   0.713
 6093TIP3    H218223   4.614   4.821   0.838
 6094TIP3   OH218224   6.032   1.891   4.183
 6094TIP3    H118225   6.054   1.977   4.220
 6094TIP3    H218226   6.101   1.875   4.118
 6095TIP3   OH218227   7.775   4.245   4.558
 6095TIP3    H118228   7.762   4.151   4.545
 6095TIP3    H218229   7.758   4.258   4.651
 6096TIP3   OH218230   6.398   2.018   5.763
 6096TIP3    H118231   6.342   2.043   5.689
 6096TIP3    H218232   6.358   2.061   5.838
 6097TIP3   OH218233   4.840   6.476   6.320
 6097TIP3    H118234   4.816   6.563   6.288
 6097TIP3    H218235   4.912   6.492   6.381
 6098TIP3   OH218236   0.883   6.088   5.870
 6098TIP3    H118237   0.826   6.108   5.944
 6098TIP3    H218238   0.937   6.015   5.900
 6099TIP3   OH218239   5.538   3.249   3.383
 6099TIP3    H118240   5.548   3.343   3.398
 6099TIP3    H218241   5.443   3.234   3.391
 6100TIP3   OH218242   0.929   6.080   6.440
 6100TIP3    H118243   0.856   6.142   6.428
 6100TIP3    H218244   1.007   6.135   6.439
 6101TIP3   OH218245   0.829   5.896   4.341
 6101TIP3    H118246   0.738   5.925   4.345
 6101TIP3    H218247   0.876   5.957   4.398
 6102TIP3   OH218248   5.897   4.418   5.273
 6102TIP3    H118249   5.919   4.492   5.329
 6102TIP3    H218250   5.840   4.364   5.327
 6103TIP3   OH218251   3.160   3.564   1.434
 6103TIP3    H118252   3.251   3.573   1.464
 6103TIP3    H218253   3.119   3.508   1.500
 6104TIP3   OH218254   7.562   0.062   1.849
 6104TIP3    H118255   7.512   0.011   1.785
 6104TIP3    H218256   7.544   0.153   1.826
 6105TIP3   OH218257   3.166   7.375   2.765
 6105TIP3    H118258   3.146   7.468   2.775
 6105TIP3    H218259   3.130   7.334   2.844
 6106TIP3   OH218260   2.798   0.285   5.497
 6106TIP3    H118261   2.795   0.355   5.433
 6106TIP3    H218262   2.886   0.248   5.489
 6107TIP3   OH218263   5.253   7.072   2.200
 6107TIP3    H118264   5.202   7.088   2.279
 6107TIP3    H218265   5.270   7.159   2.164
 6108TIP3   OH218266   6.620   2.024   3.716
 6108TIP3    H118267   6.686   2.019   3.785
 6108TIP3    H218268   6.606   2.117   3.702
 6109TIP3   OH218269   1.639   3.924   5.206
 6109TIP3    H118270   1.586   3.987   5.158
 6109TIP3    H218271   1.585   3.898   5.280
 6110TIP3   OH218272   3.965   1.808   1.247
 6110TIP3    H118273   3.929   1.891   1.216
 6110TIP3    H218274   4.005   1.828   1.331
 6111TIP3   OH218275   5.780   6.684   3.619
 6111TIP3    H118276   5.765   6.778   3.623
 6111TIP3    H218277   5.753   6.660   3.530
 6112TIP3   OH218278   0.794   5.697   2.280
 6112TIP3    H118279   0.887   5.719   2.287
 6112TIP3    H218280   0.748   5.768   2.325
 6113TIP3   OH218281   6.953   2.127   1.635
 6113TIP3    H118282   6.933   2.049   1.584
 6113TIP3    H218283   7.048   2.125   1.646
 6114TIP3   OH218284   1.535   5.669   4.937
 6114TIP3    H118285   1.506   5.669   4.846
 6114TIP3    H218286   1.466   5.623   4.985
 6115TIP3   OH218287   1.204   6.124   4.647
 6115TIP3    H118288   1.146   6.200   4.657
 6115TIP3    H218289   1.208   6.109   4.552
 6116TIP3   OH218290   6.655   4.503   4.320
 6116TIP3    H118291   6.704   4.564   4.374
 6116TIP3    H218292   6.648   4.546   4.235
 6117TIP3   OH218293   0.995   7.260   2.163
 6117TIP3    H118294   1.024   7.286   2.075
 6117TIP3    H218295   1.063   7.201   2.194
 6118TIP3   OH218296   7.969   2.827   2.722
 6118TIP3    H118297   8.038   2.819   2.788
 6118TIP3    H218298   7.973   2.744   2.674
 6119TIP3   OH218299   5.202   0.104   4.788
 6119TIP3    H118300   5.242   0.023   4.758
 6119TIP3    H218301   5.231   0.115   4.878
 6120TIP3   OH218302   2.981   6.680   3.907
 6120TIP3    H118303   2.971   6.773   3.926
 6120TIP3    H218304   2.901   6.639   3.940
 6121TIP3   OH218305   1.119   7.561   2.037
 6121TIP3    H118306   1.033   7.555   2.078
 6121TIP3    H218307   1.165   7.482   2.066
 6122TIP3   OH218308   6.569   1.607   1.677
 6122TIP3    H118309   6.659   1.577   1.687
 6122TIP3    H218310   6.536   1.617   1.767
 6123TIP3   OH218311   7.799   0.972   1.404
 6123TIP3    H118312   7.858   0.902   1.430
 6123TIP3    H218313   7.760   1.003   1.486
 6124TIP3   OH218314   2.664   3.169   4.812
 6124TIP3    H118315   2.670   3.093   4.869
 6124TIP3    H218316   2.723   3.149   4.739
 6125TIP3   OH218317   4.967   2.888   0.367
 6125TIP3    H118318   4.885   2.879   0.317
 6125TIP3    H218319   5.013   2.960   0.324
 6126TIP3   OH218320   1.778   3.849   2.816
 6126TIP3    H118321   1.791   3.754   2.824
 6126TIP3    H218322   1.685   3.859   2.797
 6127TIP3   OH218323   3.163   4.892   0.524
 6127TIP3    H118324   3.229   4.960   0.534
 6127TIP3    H218325   3.109   4.900   0.602
 6128TIP3   OH218326   3.351   1.925   0.652
 6128TIP3    H118327   3.325   1.899   0.564
 6128TIP3    H218328   3.362   2.020   0.647
 6129TIP3   OH218329   6.103   0.486   4.473
 6129TIP3    H118330   6.036   0.424   4.443
 6129TIP3    H218331   6.066   0.524   4.552
 6130TIP3   OH218332   3.252   3.504   6.691
 6130TIP3    H118333   3.299   3.436   6.740
 6130TIP3    H218334   3.164   3.505   6.729
 6131TIP3   OH218335   5.308   5.641   6.654
 6131TIP3    H118336   5.346   5.618   6.739
 6131TIP3    H218337   5.219   5.671   6.675
 6132TIP3   OH218338   2.259   4.060   1.333
 6132TIP3    H118339   2.351   4.037   1.347
 6132TIP3    H218340   2.215   4.028   1.411
 6133TIP3   OH218341   5.668   7.747   3.529
 6133TIP3    H118342   5.684   7.689   3.455
 6133TIP3    H218343   5.748   7.800   3.535
 6134TIP3   OH218344   7.882   4.876   0.155
 6134TIP3    H118345   7.912   4.896   0.244
 6134TIP3    H218346   7.905   4.784   0.143
 6135TIP3   OH218347   4.389   2.965   5.419
 6135TIP3    H118348   4.372   2.893   5.358
 6135TIP3    H218349   4.421   3.037   5.364
 6136TIP3   OH218350   0.957   6.773   0.110
 6136TIP3    H118351   0.897   6.838   0.073
 6136TIP3    H218352   0.928   6.763   0.201
 6137TIP3   OH218353   2.856   0.971   1.985
 6137TIP3    H118354   2.893   1.023   2.056
 6137TIP3    H218355   2.810   1.035   1.930
 6138TIP3   OH218356   2.975   4.074   3.132
 6138TIP3    H118357   3.031   4.025   3.071
 6138TIP3    H218358   2.978   4.023   3.213
 6139TIP3   OH218359   1.359   4.651   4.717
 6139TIP3    H118360   1.311   4.605   4.648
 6139TIP3    H218361   1.394   4.582   4.773
 6140TIP3   OH218362   5.234   6.669   3.129
 6140TIP3    H118363   5.272   6.671   3.041
 6140TIP3    H218364   5.206   6.759   3.145
 6141TIP3   OH218365   4.692   4.669   1.216
 6141TIP3    H118366   4.721   4.644   1.128
 6141TIP3    H218367   4.758   4.732   1.245
 6142TIP3   OH218368   4.970   3.922   3.926
 6142TIP3    H118369   4.921   3.841   3.916
 6142TIP3    H218370   4.937   3.979   3.856
 6143TIP3   OH218371   5.542   3.236   6.440
 6143TIP3    H118372   5.626   3.191   6.452
 6143TIP3    H218373   5.486   3.171   6.398
 6144TIP3   OH218374   4.143   5.979   4.386
 6144TIP3    H118375   4.232   5.952   4.361
 6144TIP3    H218376   4.123   5.926   4.463
 6145TIP3   OH218377   1.118   4.078   4.280
 6145TIP3    H118378   1.033   4.076   4.236
 6145TIP3    H218379   1.181   4.059   4.212
 6146TIP3   OH218380   5.963   6.402   3.855
 6146TIP3    H118381   5.947   6.353   3.936
 6146TIP3    H218382   5.996   6.487   3.884
 6147TIP3   OH218383   3.068   2.991   1.384
 6147TIP3    H118384   3.120   2.988   1.464
 6147TIP3    H218385   3.119   2.939   1.321
 6148TIP3   OH218386   1.861   4.487   0.829
 6148TIP3    H118387   1.858   4.414   0.890
 6148TIP3    H218388   1.859   4.446   0.742
 6149TIP3   OH218389   7.148   2.984   0.788
 6149TIP3    H118390   7.053   2.980   0.795
 6149TIP3    H218391   7.166   3.047   0.718
 6150TIP3   OH218392   3.213   5.703   3.047
 6150TIP3    H118393   3.124   5.669   3.036
 6150TIP3    H218394   3.222   5.771   2.981
 6151TIP3   OH218395   3.973   6.791   0.502
 6151TIP3    H118396   3.896   6.794   0.445
 6151TIP3    H218397   4.028   6.723   0.463
 6152TIP3   OH218398   3.039   6.259   6.459
 6152TIP3    H118399   3.125   6.301   6.455
 6152TIP3    H218400   2.978   6.332   6.474
 6153TIP3   OH218401   7.452   3.418   1.758
 6153TIP3    H118402   7.420   3.507   1.743
 6153TIP3    H218403   7.536   3.429   1.801
 6154TIP3   OH218404   0.566   2.019   2.799
 6154TIP3    H118405   0.480   1.978   2.813
 6154TIP3    H218406   0.552   2.078   2.725
 6155TIP3   OH218407   2.612   2.283   5.455
 6155TIP3    H118408   2.562   2.202   5.460
 6155TIP3    H218409   2.681   2.265   5.390
 6156TIP3   OH218410   7.443   4.226   5.808
 6156TIP3    H118411   7.414   4.317   5.813
 6156TIP3    H218412   7.366   4.175   5.834
 6157TIP3   OH218413   2.455   3.036   6.454
 6157TIP3    H118414   2.492   3.046   6.367
 6157TIP3    H218415   2.430   2.944   6.459
 6158TIP3   OH218416   2.771   1.146   3.443
 6158TIP3    H118417   2.692   1.195   3.422
 6158TIP3    H218418   2.748   1.097   3.522
 6159TIP3   OH218419   5.040   7.291   2.425
 6159TIP3    H118420   4.975   7.252   2.484
 6159TIP3    H218421   5.084   7.358   2.479
 6160TIP3   OH218422   5.428   7.149   3.947
 6160TIP3    H118423   5.395   7.236   3.969
 6160TIP3    H218424   5.477   7.121   4.024
 6161TIP3   OH218425   2.823   5.149   5.493
 6161TIP3    H118426   2.897   5.090   5.509
 6161TIP3    H218427   2.841   5.226   5.546
 6162TIP3   OH218428   6.564   7.372   3.915
 6162TIP3    H118429   6.518   7.291   3.934
 6162TIP3    H218430   6.541   7.431   3.987
 6163TIP3   OH218431   7.106   4.128   3.016
 6163TIP3    H118432   7.149   4.210   3.040
 6163TIP3    H218433   7.134   4.111   2.926
 6164TIP3   OH218434   0.652   0.762   3.299
 6164TIP3    H118435   0.625   0.685   3.349
 6164TIP3    H218436   0.649   0.734   3.208
 6165TIP3   OH218437   3.458   2.320   3.287
 6165TIP3    H118438   3.424   2.392   3.340
 6165TIP3    H218439   3.410   2.243   3.317
 6166TIP3   OH218440   8.295   0.081   2.094
 6166TIP3    H118441   8.268   0.149   2.033
 6166TIP3    H218442   8.368   0.037   2.050
 6167TIP3   OH218443   5.567   0.007   5.243
 6167TIP3    H118444   5.531   0.092   5.219
 6167TIP3    H218445   5.492  -0.043   5.274
 6168TIP3   OH218446   0.016   2.604   5.754
 6168TIP3    H118447  -0.024   2.656   5.685
 6168TIP3    H218448   0.048   2.526   5.709
 6169TIP3   OH218449   4.085   3.141   2.426
 6169TIP3    H118450   4.020   3.109   2.488
 6169TIP3    H218451   4.093   3.071   2.362
 6170TIP3   OH218452   2.192   1.354   3.984
 6170TIP3    H118453   2.159   1.426   4.038
 6170TIP3    H218454   2.214   1.395   3.901
 6171TIP3   OH218455   6.496   4.264   4.675
 6171TIP3    H118456   6.478   4.357   4.690
 6171TIP3    H218457   6.437   4.240   4.603
 6172TIP3   OH218458   4.294   1.941   2.268
 6172TIP3    H118459   4.338   2.009   2.217
 6172TIP3    H218460   4.352   1.924   2.341
 6173TIP3   OH218461   6.119   1.706   4.957
 6173TIP3    H118462   6.037   1.726   4.911
 6173TIP3    H218463   6.098   1.629   5.009
 6174TIP3   OH218464   1.617   7.142   5.560
 6174TIP3    H118465   1.532   7.181   5.539
 6174TIP3    H218466   1.595   7.054   5.592
 6175TIP3   OH218467   4.988   1.750   5.693
 6175TIP3    H118468   4.994   1.824   5.632
 6175TIP3    H218469   4.920   1.776   5.755
 6176TIP3   OH218470   4.224   3.713   3.197
 6176TIP3    H118471   4.278   3.724   3.275
 6176TIP3    H218472   4.135   3.730   3.227
 6177TIP3   OH218473   2.969   2.409   6.735
 6177TIP3    H118474   3.045   2.457   6.767
 6177TIP3    H218475   2.989   2.389   6.643
 6178TIP3   OH218476   0.064   1.371   4.580
 6178TIP3    H118477  -0.026   1.352   4.554
 6178TIP3    H218478   0.114   1.296   4.549
 6179TIP3   OH218479   7.670   3.180   0.965
 6179TIP3    H118480   7.578   3.193   0.988
 6179TIP3    H218481   7.700   3.111   1.024
 6180TIP3   OH218482   5.223   2.115   1.474
 6180TIP3    H118483   5.166   2.043   1.505
 6180TIP3    H218484   5.216   2.111   1.379
 6181TIP3   OH218485   4.046   2.667   4.803
 6181TIP3    H118486   4.122   2.658   4.745
 6181TIP3    H218487   4.059   2.599   4.869
 6182TIP3   OH218488   7.386   2.915   3.733
 6182TIP3    H118489   7.346   2.828   3.741
 6182TIP3    H218490   7.411   2.938   3.823
 6183TIP3   OH218491   2.419   0.559   1.270
 6183TIP3    H118492   2.417   0.484   1.330
 6183TIP3    H218493   2.329   0.590   1.267
 6184TIP3   OH218494   0.963   0.440   1.039
 6184TIP3    H118495   1.004   0.527   1.045
 6184TIP3    H218496   0.891   0.451   0.978
 6185TIP3   OH218497   7.018   4.420   1.890
 6185TIP3    H118498   7.010   4.500   1.837
 6185TIP3    H218499   6.967   4.354   1.842
 6186TIP3   OH218500   3.153   6.713   2.061
 6186TIP3    H118501   3.171   6.631   2.014
 6186TIP3    H218502   3.165   6.691   2.153
 6187TIP3   OH218503   6.986   0.828   5.942
 6187TIP3    H118504   6.982   0.886   6.017
 6187TIP3    H218505   6.899   0.788   5.937
 6188TIP3   OH218506   5.007   6.785   0.654
 6188TIP3    H118507   4.993   6.880   0.653
 6188TIP3    H218508   5.074   6.771   0.588
 6189TIP3   OH218509   6.120   2.749   6.009
 6189TIP3    H118510   6.140   2.800   5.930
 6189TIP3    H218511   6.066   2.808   6.062
 6190TIP3   OH218512   6.835   2.101   4.960
 6190TIP3    H118513   6.912   2.142   4.920
 6190TIP3    H218514   6.826   2.144   5.045
 6191TIP3   OH218515   7.071   2.457   6.547
 6191TIP3    H118516   7.121   2.533   6.576
 6191TIP3    H218517   7.136   2.390   6.528
 6192TIP3   OH218518   1.845   4.301   2.657
 6192TIP3    H118519   1.874   4.376   2.709
 6192TIP3    H218520   1.778   4.259   2.711
 6193TIP3   OH218521   1.944   6.869   3.307
 6193TIP3    H118522   1.927   6.939   3.370
 6193TIP3    H218523   1.866   6.814   3.311
 6194TIP3   OH218524   7.450   6.683   2.935
 6194TIP3    H118525   7.490   6.767   2.913
 6194TIP3    H218526   7.395   6.701   3.011
 6195TIP3   OH218527   0.957   4.282   5.923
 6195TIP3    H118528   0.892   4.336   5.879
 6195TIP3    H218529   1.015   4.344   5.966
 6196TIP3   OH218530   3.595   7.085   4.835
 6196TIP3    H118531   3.522   7.144   4.817
 6196TIP3    H218532   3.612   7.042   4.751
 6197TIP3   OH218533   2.522   5.955   5.932
 6197TIP3    H118534   2.428   5.971   5.937
 6197TIP3    H218535   2.551   5.953   6.023
 6198TIP3   OH218536   7.051   3.334   2.617
 6198TIP3    H118537   7.015   3.315   2.530
 6198TIP3    H218538   6.975   3.340   2.674
 6199TIP3   OH218539   3.049   2.308   6.206
 6199TIP3    H118540   2.969   2.302   6.155
 6199TIP3    H218541   3.050   2.229   6.260
 6200TIP3   OH218542   4.024   5.241   0.601
 6200TIP3    H118543   3.982   5.155   0.599
 6200TIP3    H218544   3.952   5.302   0.619
 6201TIP3   OH218545   3.663   0.393   4.051
 6201TIP3    H118546   3.651   0.485   4.072
 6201TIP3    H218547   3.590   0.372   3.993
 6202TIP3   OH218548   1.461   5.697   2.096
 6202TIP3    H118549   1.467   5.620   2.152
 6202TIP3    H218550   1.444   5.662   2.008
 6203TIP3   OH218551   3.959   4.117   4.233
 6203TIP3    H118552   3.894   4.081   4.172
 6203TIP3    H218553   3.986   4.200   4.193
 6204TIP3   OH218554   2.655   0.263   4.951
 6204TIP3    H118555   2.738   0.253   4.903
 6204TIP3    H218556   2.591   0.284   4.883
 6205TIP3   OH218557   6.814   2.059   6.079
 6205TIP3    H118558   6.736   2.021   6.119
 6205TIP3    H218559   6.783   2.136   6.032
 6206TIP3   OH218560   5.623   1.516   1.366
 6206TIP3    H118561   5.607   1.544   1.276
 6206TIP3    H218562   5.716   1.534   1.380
 6207TIP3   OH218563   2.488   0.899   3.584
 6207TIP3    H118564   2.401   0.912   3.622
 6207TIP3    H218565   2.517   0.815   3.619
 6208TIP3   OH218566   4.794   6.226   4.277
 6208TIP3    H118567   4.865   6.201   4.335
 6208TIP3    H218568   4.734   6.152   4.279
 6209TIP3   OH218569   5.872   3.738   5.662
 6209TIP3    H118570   5.911   3.800   5.723
 6209TIP3    H218571   5.946   3.699   5.616
 6210TIP3   OH218572   4.851   7.151   2.551
 6210TIP3    H118573   4.826   7.067   2.591
 6210TIP3    H218574   4.768   7.197   2.539
 6211TIP3   OH218575   5.027   7.340   4.278
 6211TIP3    H118576   4.970   7.266   4.258
 6211TIP3    H218577   5.003   7.365   4.367
 6212TIP3   OH218578   7.465   3.459   1.020
 6212TIP3    H118579   7.399   3.520   0.986
 6212TIP3    H218580   7.525   3.445   0.946
 6213TIP3   OH218581   6.831   4.541   5.952
 6213TIP3    H118582   6.924   4.546   5.931
 6213TIP3    H218583   6.792   4.614   5.905
 6214TIP3   OH218584   7.090   1.409   3.735
 6214TIP3    H118585   7.057   1.487   3.779
 6214TIP3    H218586   7.180   1.401   3.767
 6215TIP3   OH218587   6.302   3.453   4.477
 6215TIP3    H118588   6.229   3.502   4.514
 6215TIP3    H218589   6.302   3.475   4.384
 6216TIP3   OH218590   4.198   7.427   4.024
 6216TIP3    H118591   4.137   7.360   4.055
 6216TIP3    H218592   4.255   7.381   3.962
 6217TIP3   OH218593   6.255   0.472   0.270
 6217TIP3    H118594   6.286   0.475   0.179
 6217TIP3    H218595   6.181   0.533   0.271
 6218TIP3   OH218596   5.126   7.119   1.517
 6218TIP3    H118597   5.114   7.171   1.597
 6218TIP3    H218598   5.167   7.038   1.548
 6219TIP3   OH218599   2.493   7.302   5.794
 6219TIP3    H118600   2.469   7.394   5.791
 6219TIP3    H218601   2.414   7.256   5.766
 6220TIP3   OH218602   5.417   4.568   0.573
 6220TIP3    H118603   5.454   4.514   0.504
 6220TIP3    H218604   5.426   4.515   0.652
 6221TIP3   OH218605   7.976   5.408   0.723
 6221TIP3    H118606   8.047   5.347   0.742
 6221TIP3    H218607   7.899   5.370   0.764
 6222TIP3   OH218608   4.423   7.683   3.730
 6222TIP3    H118609   4.426   7.758   3.789
 6222TIP3    H218610   4.356   7.625   3.769
 6223TIP3   OH218611   5.527   1.461   2.319
 6223TIP3    H118612   5.550   1.521   2.249
 6223TIP3    H218613   5.463   1.508   2.372
 6224TIP3   OH218614   5.061   7.354   0.136
 6224TIP3    H118615   5.026   7.342   0.224
 6224TIP3    H218616   5.081   7.447   0.130
 6225TIP3   OH218617   1.205   4.457   5.352
 6225TIP3    H118618   1.226   4.525   5.415
 6225TIP3    H218619   1.117   4.427   5.376
 6226TIP3   OH218620   1.707   1.757   0.897
 6226TIP3    H118621   1.720   1.682   0.839
 6226TIP3    H218622   1.795   1.778   0.930
 6227TIP3   OH218623   6.074   0.890   3.093
 6227TIP3    H118624   6.143   0.948   3.062
 6227TIP3    H218625   6.120   0.818   3.137
 6228TIP3   OH218626   4.282   7.673   1.509
 6228TIP3    H118627   4.265   7.667   1.415
 6228TIP3    H218628   4.229   7.602   1.547
 6229TIP3   OH218629   5.003   5.229   2.460
 6229TIP3    H118630   5.044   5.311   2.434
 6229TIP3    H218631   4.921   5.227   2.411
 6230TIP3   OH218632   2.351   4.360   0.349
 6230TIP3    H118633   2.284   4.324   0.405
 6230TIP3    H218634   2.426   4.301   0.358
 6231TIP3   OH218635   2.320   5.221   2.300
 6231TIP3    H118636   2.257   5.265   2.357
 6231TIP3    H218637   2.405   5.254   2.329
 6232TIP3   OH218638   0.558   5.942   0.010
 6232TIP3    H118639   0.569   5.847   0.016
 6232TIP3    H218640   0.618   5.977   0.076
 6233TIP3   OH218641   6.917   5.483   5.974
 6233TIP3    H118642   6.954   5.436   5.899
 6233TIP3    H218643   6.891   5.414   6.035
 6234TIP3   OH218644   3.948   7.779   4.314
 6234TIP3    H118645   3.993   7.825   4.385
 6234TIP3    H218646   3.966   7.686   4.331
 6235TIP3   OH218647   0.598   3.760   6.693
 6235TIP3    H118648   0.585   3.734   6.784
 6235TIP3    H218649   0.646   3.686   6.654
 6236TIP3   OH218650   7.705   1.343   3.024
 6236TIP3    H118651   7.757   1.422   3.041
 6236TIP3    H218652   7.769   1.272   3.025
 6237TIP3   OH218653   7.476   2.887   1.433
 6237TIP3    H118654   7.545   2.821   1.438
 6237TIP3    H218655   7.419   2.868   1.508
 6238TIP3   OH218656   4.149   1.262   6.195
 6238TIP3    H118657   4.242   1.244   6.203
 6238TIP3    H218658   4.116   1.197   6.133
 6239TIP3   OH218659   2.873   5.982   0.280
 6239TIP3    H118660   2.939   6.051   0.282
 6239TIP3    H218661   2.814   6.003   0.353
 6240TIP3   OH218662   5.015   7.773   6.200
 6240TIP3    H118663   4.925   7.787   6.172
 6240TIP3    H218664   5.008   7.722   6.281
 6241TIP3   OH218665   3.286   0.336   6.614
 6241TIP3    H118666   3.330   0.269   6.561
 6241TIP3    H218667   3.194   0.330   6.589
 6242TIP3   OH218668   0.990   6.508   5.798
 6242TIP3    H118669   0.901   6.472   5.799
 6242TIP3    H218670   1.008   6.523   5.705
 6243TIP3   OH218671   5.736   5.191   0.656
 6243TIP3    H118672   5.762   5.144   0.735
 6243TIP3    H218673   5.782   5.147   0.585
 6244TIP3   OH218674   4.807   4.741   4.853
 6244TIP3    H118675   4.761   4.824   4.866
 6244TIP3    H218676   4.738   4.677   4.837
 6245TIP3   OH218677   6.743   2.408   2.503
 6245TIP3    H118678   6.801   2.439   2.573
 6245TIP3    H218679   6.764   2.465   2.429
 6246TIP3   OH218680   0.706   0.756   4.062
 6246TIP3    H118681   0.798   0.754   4.034
 6246TIP3    H218682   0.710   0.750   4.157
 6247TIP3   OH218683   4.324   6.111   0.797
 6247TIP3    H118684   4.375   6.161   0.861
 6247TIP3    H218685   4.233   6.119   0.828
 6248TIP3   OH218686   1.774   0.905   1.385
 6248TIP3    H118687   1.830   0.831   1.409
 6248TIP3    H218688   1.835   0.976   1.365
 6249TIP3   OH218689   7.577   2.485   0.542
 6249TIP3    H118690   7.626   2.526   0.613
 6249TIP3    H218691   7.487   2.515   0.555
 6250TIP3   OH218692   2.397   3.697   6.406
 6250TIP3    H118693   2.341   3.636   6.456
 6250TIP3    H218694   2.341   3.773   6.390
 6251TIP3   OH218695   7.027   3.446   0.475
 6251TIP3    H118696   6.963   3.375   0.486
 6251TIP3    H218697   7.080   3.442   0.555
 6252TIP3   OH218698   5.202   4.405   1.805
 6252TIP3    H118699   5.238   4.486   1.770
 6252TIP3    H218700   5.159   4.431   1.887
 6253TIP3   OH218701   6.360   3.768   5.734
 6253TIP3    H118702   6.434   3.777   5.794
 6253TIP3    H218703   6.386   3.698   5.675
 6254TIP3   OH218704   7.622   2.914   2.472
 6254TIP3    H118705   7.665   2.848   2.417
 6254TIP3    H218706   7.602   2.868   2.554
 6255TIP3   OH218707   2.402   1.800   0.374
 6255TIP3    H118708   2.464   1.771   0.441
 6255TIP3    H218709   2.327   1.742   0.384
 6256TIP3   OH218710   0.075   0.253   1.643
 6256TIP3    H118711   0.120   0.181   1.599
 6256TIP3    H218712   0.146   0.309   1.677
 6257TIP3   OH218713   2.466   2.951   3.778
 6257TIP3    H118714   2.484   2.882   3.714
 6257TIP3    H218715   2.411   2.909   3.844
 6258TIP3   OH218716   1.566   5.621   3.818
 6258TIP3    H118717   1.526   5.558   3.878
 6258TIP3    H218718   1.500   5.689   3.806
 6259TIP3   OH218719   5.488   7.245   2.292
 6259TIP3    H118720   5.430   7.300   2.239
 6259TIP3    H218721   5.432   7.211   2.361
 6260TIP3   OH218722   6.027   1.821   6.105
 6260TIP3    H118723   6.118   1.810   6.078
 6260TIP3    H218724   5.977   1.781   6.034
 6261TIP3   OH218725   4.775   0.913   6.253
 6261TIP3    H118726   4.828   0.935   6.176
 6261TIP3    H218727   4.686   0.943   6.230
 6262TIP3   OH218728   6.509   7.804   3.556
 6262TIP3    H118729   6.513   7.716   3.519
 6262TIP3    H218730   6.493   7.790   3.650
 6263TIP3   OH218731   2.384   1.227   2.391
 6263TIP3    H118732   2.315   1.243   2.327
 6263TIP3    H218733   2.460   1.203   2.339
 6264TIP3   OH218734   1.870   5.969   2.164
 6264TIP3    H118735   1.797   6.030   2.155
 6264TIP3    H218736   1.870   5.944   2.256
 6265TIP3   OH218737   1.783   4.234   5.427
 6265TIP3    H118738   1.784   4.323   5.461
 6265TIP3    H218739   1.799   4.244   5.333
 6266TIP3   OH218740   4.151   3.403   3.021
 6266TIP3    H118741   4.139   3.356   2.938
 6266TIP3    H218742   4.210   3.347   3.072
 6267TIP3   OH218743   6.101   4.288   5.181
 6267TIP3    H118744   6.024   4.340   5.202
 6267TIP3    H218745   6.077   4.239   5.102
 6268TIP3   OH218746   5.317   5.042   5.390
 6268TIP3    H118747   5.262   4.985   5.336
 6268TIP3    H218748   5.283   5.130   5.374
 6269TIP3   OH218749   0.785   4.083   5.446
 6269TIP3    H118750   0.856   4.046   5.499
 6269TIP3    H218751   0.773   4.021   5.374
 6270TIP3   OH218752   7.164   0.194   0.534
 6270TIP3    H118753   7.171   0.243   0.616
 6270TIP3    H218754   7.187   0.104   0.558
 6271TIP3   OH218755   2.771   1.761   0.237
 6271TIP3    H118756   2.704   1.693   0.227
 6271TIP3    H218757   2.747   1.828   0.173
 6272TIP3   OH218758   3.833   7.601   4.988
 6272TIP3    H118759   3.901   7.601   5.056
 6272TIP3    H218760   3.779   7.678   5.009
 6273TIP3   OH218761   5.528   1.370   4.003
 6273TIP3    H118762   5.452   1.324   4.037
 6273TIP3    H218763   5.559   1.423   4.076
 6274TIP3   OH218764   5.917   1.726   3.008
 6274TIP3    H118765   5.983   1.689   2.950
 6274TIP3    H218766   5.833   1.704   2.966
 6275TIP3   OH218767   5.923   4.294   0.605
 6275TIP3    H118768   6.014   4.276   0.581
 6275TIP3    H218769   5.923   4.387   0.628
 6276TIP3   OH218770   0.217   4.682   5.927
 6276TIP3    H118771   0.306   4.712   5.947
 6276TIP3    H218772   0.185   4.643   6.008
 6277TIP3   OH218773   7.177   4.535   0.360
 6277TIP3    H118774   7.227   4.535   0.279
 6277TIP3    H218775   7.222   4.471   0.416
 6278TIP3   OH218776   4.745   6.124   6.559
 6278TIP3    H118777   4.660   6.084   6.576
 6278TIP3    H218778   4.727   6.193   6.495
 6279TIP3   OH218779   2.982   3.850   3.571
 6279TIP3    H118780   2.948   3.770   3.612
 6279TIP3    H218781   2.985   3.914   3.643
 6280TIP3   OH218782   4.995   2.346   1.818
 6280TIP3    H118783   5.067   2.380   1.766
 6280TIP3    H218784   4.931   2.314   1.754
 6281TIP3   OH218785   2.025   3.427   5.561
 6281TIP3    H118786   2.119   3.436   5.548
 6281TIP3    H218787   1.987   3.501   5.512
 6282TIP3   OH218788   4.132   5.344   4.712
 6282TIP3    H118789   4.095   5.412   4.656
 6282TIP3    H218790   4.063   5.323   4.774
 6283TIP3   OH218791   0.085   1.275   1.256
 6283TIP3    H118792   0.007   1.220   1.262
 6283TIP3    H218793   0.086   1.323   1.339
 6284TIP3   OH218794   4.509   2.395   0.238
 6284TIP3    H118795   4.442   2.436   0.291
 6284TIP3    H218796   4.556   2.337   0.298
 6285TIP3   OH218797   6.420   3.941   0.399
 6285TIP3    H118798   6.379   3.858   0.425
 6285TIP3    H218799   6.357   3.982   0.340
 6286TIP3   OH218800   3.277   4.118   0.934
 6286TIP3    H118801   3.200   4.153   0.978
 6286TIP3    H218802   3.246   4.041   0.886
 6287TIP3   OH218803   4.946   6.882   2.939
 6287TIP3    H118804   4.942   6.960   2.885
 6287TIP3    H218805   4.864   6.835   2.920
 6288TIP3   OH218806   0.482   5.866   0.405
 6288TIP3    H118807   0.426   5.889   0.479
 6288TIP3    H218808   0.505   5.774   0.420
 6289TIP3   OH218809   2.038   2.963   1.198
 6289TIP3    H118810   2.133   2.951   1.208
 6289TIP3    H218811   2.001   2.878   1.218
 6290TIP3   OH218812   1.676   3.061   5.574
 6290TIP3    H118813   1.697   3.151   5.597
 6290TIP3    H218814   1.715   3.048   5.487
 6291TIP3   OH218815   7.446   7.162   2.448
 6291TIP3    H118816   7.517   7.215   2.413
 6291TIP3    H218817   7.368   7.217   2.439
 6292TIP3   OH218818   3.395   2.221   1.404
 6292TIP3    H118819   3.477   2.172   1.416
 6292TIP3    H218820   3.369   2.246   1.492
 6293TIP3   OH218821   3.517   3.805   0.601
 6293TIP3    H118822   3.496   3.716   0.627
 6293TIP3    H218823   3.603   3.799   0.560
 6294TIP3   OH218824   4.856   2.243   5.807
 6294TIP3    H118825   4.870   2.313   5.743
 6294TIP3    H218826   4.900   2.273   5.886
 6295TIP3   OH218827   7.993   3.469   3.231
 6295TIP3    H118828   7.941   3.549   3.222
 6295TIP3    H218829   8.057   3.490   3.299
 6296TIP3   OH218830   5.702   7.193   2.977
 6296TIP3    H118831   5.797   7.184   2.977
 6296TIP3    H218832   5.681   7.230   3.062
 6297TIP3   OH218833   0.671   5.872   2.490
 6297TIP3    H118834   0.605   5.835   2.549
 6297TIP3    H218835   0.754   5.857   2.534
 6298TIP3   OH218836   2.596   0.249   2.458
 6298TIP3    H118837   2.524   0.227   2.398
 6298TIP3    H218838   2.627   0.335   2.428
 6299TIP3   OH218839   0.088   4.381   6.120
 6299TIP3    H118840   0.015   4.373   6.181
 6299TIP3    H218841   0.085   4.301   6.068
 6300TIP3   OH218842   1.629   7.407   0.566
 6300TIP3    H118843   1.558   7.343   0.566
 6300TIP3    H218844   1.688   7.379   0.496
 6301TIP3   OH218845   0.686   4.008   3.164
 6301TIP3    H118846   0.719   3.924   3.130
 6301TIP3    H218847   0.699   4.001   3.259
 6302TIP3   OH218848   2.950   5.214   1.189
 6302TIP3    H118849   2.977   5.133   1.146
 6302TIP3    H218850   2.921   5.271   1.118
 6303TIP3   OH218851   7.628   4.032   6.463
 6303TIP3    H118852   7.670   4.061   6.544
 6303TIP3    H218853   7.642   4.103   6.402
 6304TIP3   OH218854   0.644   0.191   0.693
 6304TIP3    H118855   0.575   0.253   0.671
 6304TIP3    H218856   0.724   0.230   0.657
 6305TIP3   OH218857   1.261   6.901   6.751
 6305TIP3    H118858   1.209   6.853   6.687
 6305TIP3    H218859   1.352   6.880   6.729
 6306TIP3   OH218860   7.508   6.372   4.618
 6306TIP3    H118861   7.600   6.371   4.644
 6306TIP3    H218862   7.461   6.333   4.691
 6307TIP3   OH218863   2.897   0.947   1.707
 6307TIP3    H118864   2.917   0.876   1.646
 6307TIP3    H218865   2.888   0.904   1.792
 6308TIP3   OH218866   0.891   3.835   3.436
 6308TIP3    H118867   0.962   3.897   3.417
 6308TIP3    H218868   0.897   3.821   3.531
 6309TIP3   OH218869   5.156   1.393   4.213
 6309TIP3    H118870   5.235   1.339   4.219
 6309TIP3    H218871   5.107   1.356   4.139
 6310TIP3   OH218872   6.320   7.018   4.913
 6310TIP3    H118873   6.230   7.046   4.930
 6310TIP3    H218874   6.344   6.966   4.990
 6311TIP3   OH218875   3.228   5.488   2.757
 6311TIP3    H118876   3.292   5.434   2.710
 6311TIP3    H218877   3.204   5.436   2.834
 6312TIP3   OH218878   4.941   1.345   1.918
 6312TIP3    H118879   5.004   1.414   1.897
 6312TIP3    H218880   4.867   1.363   1.861
 6313TIP3   OH218881   0.086   2.596   0.022
 6313TIP3    H118882   0.103   2.528  -0.043
 6313TIP3    H218883   0.139   2.571   0.098
 6314TIP3   OH218884   2.614   7.725   0.419
 6314TIP3    H118885   2.519   7.725   0.407
 6314TIP3    H218886   2.630   7.793   0.484
 6315TIP3   OH218887   6.720   5.536   0.003
 6315TIP3    H118888   6.738   5.617  -0.044
 6315TIP3    H218889   6.675   5.481  -0.062
 6316TIP3   OH218890   4.970   4.582   6.534
 6316TIP3    H118891   5.009   4.666   6.511
 6316TIP3    H218892   5.019   4.517   6.484
 6317TIP3   OH218893   5.451   3.951   6.003
 6317TIP3    H118894   5.412   4.037   5.985
 6317TIP3    H218895   5.392   3.910   6.066
 6318TIP3   OH218896   5.512   4.712   2.445
 6318TIP3    H118897   5.507   4.635   2.501
 6318TIP3    H218898   5.601   4.710   2.410
 6319TIP3   OH218899   4.385   6.425   5.451
 6319TIP3    H118900   4.339   6.481   5.514
 6319TIP3    H218901   4.336   6.435   5.369
 6320TIP3   OH218902   6.055   6.668   3.636
 6320TIP3    H118903   6.067   6.728   3.710
 6320TIP3    H218904   5.961   6.649   3.636
 6321TIP3   OH218905   5.759   4.300   2.913
 6321TIP3    H118906   5.830   4.276   2.854
 6321TIP3    H218907   5.763   4.234   2.983
 6322TIP3   OH218908   4.458   2.062   3.403
 6322TIP3    H118909   4.372   2.063   3.443
 6322TIP3    H218910   4.518   2.044   3.475
 6323TIP3   OH218911   5.625   1.712   6.598
 6323TIP3    H118912   5.595   1.733   6.686
 6323TIP3    H218913   5.584   1.778   6.542
 6324TIP3   OH218914   0.649   4.948   3.060
 6324TIP3    H118915   0.679   4.861   3.084
 6324TIP3    H218916   0.571   4.933   3.005
 6325TIP3   OH218917   2.036   6.501   3.172
 6325TIP3    H118918   2.123   6.463   3.167
 6325TIP3    H218919   2.030   6.535   3.262
 6326TIP3   OH218920   7.816   7.548   5.231
 6326TIP3    H118921   7.751   7.499   5.181
 6326TIP3    H218922   7.777   7.634   5.244
 6327TIP3   OH218923   6.507   2.724   2.562
 6327TIP3    H118924   6.432   2.702   2.617
 6327TIP3    H218925   6.493   2.815   2.538
 6328TIP3   OH218926   5.632   0.181   1.800
 6328TIP3    H118927   5.597   0.111   1.855
 6328TIP3    H218928   5.656   0.137   1.719
 6329TIP3   OH218929   4.385   1.333   2.462
 6329TIP3    H118930   4.386   1.405   2.525
 6329TIP3    H218931   4.459   1.278   2.487
 6330TIP3   OH218932   1.757   2.828   4.784
 6330TIP3    H118933   1.817   2.755   4.774
 6330TIP3    H218934   1.750   2.866   4.696
 6331TIP3   OH218935   6.271   3.547   4.231
 6331TIP3    H118936   6.313   3.569   4.148
 6331TIP3    H218937   6.185   3.513   4.205
 6332TIP3   OH218938   2.178   1.636   0.494
 6332TIP3    H118939   2.257   1.618   0.544
 6332TIP3    H218940   2.160   1.554   0.448
 6333TIP3   OH218941   4.489   6.967   1.490
 6333TIP3    H118942   4.522   7.051   1.523
 6333TIP3    H218943   4.551   6.903   1.524
 6334TIP3   OH218944   1.770   1.931   0.675
 6334TIP3    H118945   1.805   1.877   0.746
 6334TIP3    H218946   1.758   1.870   0.602
 6335TIP3   OH218947   8.274   7.134   0.738
 6335TIP3    H118948   8.354   7.086   0.716
 6335TIP3    H218949   8.209   7.066   0.754
 6336TIP3   OH218950   2.835   3.638   3.229
 6336TIP3    H118951   2.818   3.575   3.159
 6336TIP3    H218952   2.798   3.597   3.308
 6337TIP3   OH218953   7.427   0.043   1.046
 6337TIP3    H118954   7.457  -0.035   1.000
 6337TIP3    H218955   7.371   0.088   0.983
 6338TIP3   OH218956   4.213   6.931   3.370
 6338TIP3    H118957   4.197   6.870   3.442
 6338TIP3    H218958   4.288   6.984   3.399
 6339TIP3   OH218959   0.555   4.041   6.651
 6339TIP3    H118960   0.631   4.098   6.660
 6339TIP3    H218961   0.569   3.971   6.714
 6340TIP3   OH218962   7.619   1.073   5.600
 6340TIP3    H118963   7.678   1.008   5.637
 6340TIP3    H218964   7.646   1.081   5.508
 6341TIP3   OH218965   6.446   3.933   6.040
 6341TIP3    H118966   6.512   3.893   6.098
 6341TIP3    H218967   6.370   3.876   6.048
 6342TIP3   OH218968   4.051   4.761   0.643
 6342TIP3    H118969   3.975   4.705   0.655
 6342TIP3    H218970   4.077   4.746   0.552
 6343TIP3   OH218971   8.172   5.569   6.470
 6343TIP3    H118972   8.256   5.614   6.477
 6343TIP3    H218973   8.142   5.560   6.560
 6344TIP3   OH218974   2.810   4.643   3.996
 6344TIP3    H118975   2.754   4.712   4.032
 6344TIP3    H218976   2.866   4.688   3.932
 6345TIP3   OH218977   0.281   2.035   5.870
 6345TIP3    H118978   0.283   2.076   5.783
 6345TIP3    H218979   0.254   1.945   5.853
 6346TIP3   OH218980   0.286   1.831   2.245
 6346TIP3    H118981   0.299   1.799   2.156
 6346TIP3    H218982   0.364   1.801   2.293
 6347TIP3   OH218983   2.824   6.524   2.821
 6347TIP3    H118984   2.777   6.507   2.739
 6347TIP3    H218985   2.859   6.438   2.846
 6348TIP3   OH218986   2.426   4.551   1.267
 6348TIP3    H118987   2.502   4.541   1.325
 6348TIP3    H218988   2.405   4.461   1.241
 6349TIP3   OH218989   4.155   3.811   1.365
 6349TIP3    H118990   4.072   3.801   1.318
 6349TIP3    H218991   4.137   3.780   1.454
 6350TIP3   OH218992   5.176   5.645   6.065
 6350TIP3    H118993   5.254   5.592   6.046
 6350TIP3    H218994   5.202   5.700   6.139
 6351TIP3   OH218995   0.128   5.007   5.810
 6351TIP3    H118996   0.100   5.082   5.757
 6351TIP3    H218997   0.126   4.933   5.749
 6352TIP3   OH218998   8.193   0.934   4.669
 6352TIP3    H118999   8.157   0.942   4.581
 6352TIP3    H219000   8.120   0.902   4.722
 6353TIP3   OH219001   2.650   5.058   0.175
 6353TIP3    H119002   2.644   5.028   0.266
 6353TIP3    H219003   2.680   4.981   0.127
 6354TIP3   OH219004   1.507   5.138   0.082
 6354TIP3    H119005   1.568   5.138   0.156
 6354TIP3    H219006   1.422   5.115   0.121
 6355TIP3   OH219007   0.883   2.989   2.832
 6355TIP3    H119008   0.973   2.964   2.852
 6355TIP3    H219009   0.830   2.946   2.898
 6356TIP3   OH219010   4.945   0.252   1.219
 6356TIP3    H119011   4.901   0.245   1.134
 6356TIP3    H219012   4.969   0.162   1.242
 6357TIP3   OH219013   5.018   3.802   1.584
 6357TIP3    H119014   5.031   3.814   1.490
 6357TIP3    H219015   5.003   3.708   1.594
 6358TIP3   OH219016   5.086   5.243   1.213
 6358TIP3    H119017   5.092   5.267   1.121
 6358TIP3    H219018   5.160   5.184   1.227
 6359TIP3   OH219019   7.070   3.036   1.938
 6359TIP3    H119020   7.120   3.084   2.005
 6359TIP3    H219021   7.094   2.945   1.951
 6360TIP3   OH219022   7.956   2.221   2.435
 6360TIP3    H119023   7.935   2.128   2.447
 6360TIP3    H219024   7.973   2.229   2.341
 6361TIP3   OH219025   7.216   4.399   4.059
 6361TIP3    H119026   7.236   4.309   4.036
 6361TIP3    H219027   7.227   4.404   4.154
 6362TIP3   OH219028   2.297   4.620   3.020
 6362TIP3    H119029   2.228   4.686   3.024
 6362TIP3    H219030   2.354   4.649   2.948
 6363TIP3   OH219031   6.921   4.192   2.106
 6363TIP3    H119032   6.950   4.208   2.016
 6363TIP3    H219033   7.001   4.175   2.155
 6364TIP3   OH219034   6.828   3.723   3.244
 6364TIP3    H119035   6.811   3.642   3.292
 6364TIP3    H219036   6.887   3.772   3.301
 6365TIP3   OH219037   6.323   5.334   1.577
 6365TIP3    H119038   6.321   5.409   1.518
 6365TIP3    H219039   6.242   5.286   1.559
 6366TIP3   OH219040   7.169   6.917   2.394
 6366TIP3    H119041   7.158   7.008   2.367
 6366TIP3    H219042   7.186   6.870   2.313
 6367TIP3   OH219043   4.461   3.087   4.750
 6367TIP3    H119044   4.450   3.042   4.666
 6367TIP3    H219045   4.404   3.163   4.743
 6368TIP3   OH219046   7.494   6.381   0.558
 6368TIP3    H119047   7.424   6.391   0.623
 6368TIP3    H219048   7.480   6.452   0.496
 6369TIP3   OH219049   4.414   3.300   6.759
 6369TIP3    H119050   4.427   3.369   6.694
 6369TIP3    H219051   4.396   3.222   6.708
 6370TIP3   OH219052   6.628   5.306   0.309
 6370TIP3    H119053   6.650   5.396   0.285
 6370TIP3    H219054   6.656   5.254   0.233
 6371TIP3   OH219055   8.219   4.632   6.202
 6371TIP3    H119056   8.178   4.545   6.201
 6371TIP3    H219057   8.312   4.615   6.216
 6372TIP3   OH219058   0.928   1.304   4.131
 6372TIP3    H119059   1.011   1.284   4.175
 6372TIP3    H219060   0.880   1.221   4.132
 6373TIP3   OH219061   7.037   4.141   3.289
 6373TIP3    H119062   7.004   4.226   3.318
 6373TIP3    H219063   7.038   4.148   3.193
 6374TIP3   OH219064   7.935   4.541   6.772
 6374TIP3    H119065   7.853   4.496   6.791
 6374TIP3    H219066   7.912   4.609   6.709
 6375TIP3   OH219067   0.000   3.507   5.495
 6375TIP3    H119068   0.008   3.434   5.434
 6375TIP3    H219069   0.089   3.540   5.505
 6376TIP3   OH219070   0.111   0.503   5.883
 6376TIP3    H119071   0.176   0.497   5.953
 6376TIP3    H219072   0.032   0.463   5.919
 6377TIP3   OH219073   6.957   0.262   5.058
 6377TIP3    H119074   6.865   0.237   5.053
 6377TIP3    H219075   7.005   0.181   5.040
 6378TIP3   OH219076   6.052   0.954   2.187
 6378TIP3    H119077   5.963   0.919   2.198
 6378TIP3    H219078   6.043   1.048   2.202
 6379TIP3   OH219079   6.554   2.557   0.674
 6379TIP3    H119080   6.525   2.493   0.610
 6379TIP3    H219081   6.571   2.636   0.623
 6380TIP3   OH219082   0.943   3.940   5.003
 6380TIP3    H119083   0.874   3.949   5.068
 6380TIP3    H219084   0.982   3.855   5.020
 6381TIP3   OH219085   5.649   3.950   5.630
 6381TIP3    H119086   5.716   3.882   5.644
 6381TIP3    H219087   5.624   3.940   5.538
 6382TIP3   OH219088   1.457   4.839   6.725
 6382TIP3    H119089   1.399   4.910   6.753
 6382TIP3    H219090   1.518   4.880   6.664
 6383TIP3   OH219091   6.085   3.708   2.057
 6383TIP3    H119092   6.042   3.709   1.972
 6383TIP3    H219093   6.051   3.786   2.102
 6384TIP3   OH219094   0.954   7.519   0.315
 6384TIP3    H119095   0.879   7.490   0.368
 6384TIP3    H219096   0.998   7.583   0.370
 6385TIP3   OH219097   0.185   4.584   4.755
 6385TIP3    H119098   0.144   4.529   4.687
 6385TIP3    H219099   0.267   4.613   4.716
 6386TIP3   OH219100   6.825   2.383   3.685
 6386TIP3    H119101   6.880   2.410   3.612
 6386TIP3    H219102   6.749   2.342   3.644
 6387TIP3   OH219103   0.796   2.548   1.797
 6387TIP3    H119104   0.829   2.553   1.886
 6387TIP3    H219105   0.853   2.607   1.747
 6388TIP3   OH219106   4.666   7.347   5.735
 6388TIP3    H119107   4.748   7.344   5.783
 6388TIP3    H219108   4.632   7.435   5.751
 6389TIP3   OH219109   0.977   6.486   5.453
 6389TIP3    H119110   0.891   6.514   5.422
 6389TIP3    H219111   1.038   6.552   5.421
 6390TIP3   OH219112   8.097   5.385   1.093
 6390TIP3    H119113   8.155   5.460   1.084
 6390TIP3    H219114   8.122   5.326   1.022
 6391TIP3   OH219115   8.153   0.091   0.603
 6391TIP3    H119116   8.190   0.079   0.691
 6391TIP3    H219117   8.212   0.043   0.545
 6392TIP3   OH219118   7.950   1.249   6.559
 6392TIP3    H119119   7.871   1.200   6.536
 6392TIP3    H219120   8.017   1.214   6.501
 6393TIP3   OH219121   0.672   2.611   5.867
 6393TIP3    H119122   0.672   2.637   5.775
 6393TIP3    H219123   0.591   2.562   5.878
 6394TIP3   OH219124   4.977   2.639   1.917
 6394TIP3    H119125   4.971   2.544   1.928
 6394TIP3    H219126   4.934   2.676   1.994
 6395TIP3   OH219127   3.820   6.465   0.855
 6395TIP3    H119128   3.898   6.519   0.868
 6395TIP3    H219129   3.754   6.506   0.910
 6396TIP3   OH219130   0.139   4.121   2.528
 6396TIP3    H119131   0.065   4.155   2.578
 6396TIP3    H219132   0.151   4.032   2.560
 6397TIP3   OH219133   1.385   2.073   1.695
 6397TIP3    H119134   1.343   2.119   1.768
 6397TIP3    H219135   1.348   2.113   1.617
 6398TIP3   OH219136   2.763   2.529   3.472
 6398TIP3    H119137   2.747   2.490   3.386
 6398TIP3    H219138   2.691   2.591   3.483
 6399TIP3   OH219139   6.394   0.547   2.340
 6399TIP3    H119140   6.447   0.575   2.265
 6399TIP3    H219141   6.324   0.495   2.301
 6400TIP3   OH219142   5.815   4.334   3.371
 6400TIP3    H119143   5.788   4.284   3.448
 6400TIP3    H219144   5.907   4.308   3.357
 6401TIP3   OH219145   7.177   4.944   6.572
 6401TIP3    H119146   7.237   4.869   6.571
 6401TIP3    H219147   7.201   4.994   6.494
 6402TIP3   OH219148   5.310   3.022   5.524
 6402TIP3    H119149   5.250   3.086   5.562
 6402TIP3    H219150   5.391   3.071   5.509
 6403TIP3   OH219151   0.829   5.386   3.145
 6403TIP3    H119152   0.779   5.306   3.161
 6403TIP3    H219153   0.919   5.356   3.130
 6404TIP3   OH219154   3.821   7.796   5.368
 6404TIP3    H119155   3.763   7.759   5.435
 6404TIP3    H219156   3.826   7.727   5.301
 6405TIP3   OH219157   3.109   3.604   3.251
 6405TIP3    H119158   3.109   3.520   3.206
 6405TIP3    H219159   3.022   3.612   3.289
 6406TIP3   OH219160   3.448   7.242   5.130
 6406TIP3    H119161   3.433   7.229   5.224
 6406TIP3    H219162   3.420   7.333   5.114
 6407TIP3   OH219163   7.427   0.096   2.443
 6407TIP3    H119164   7.388   0.010   2.427
 6407TIP3    H219165   7.395   0.121   2.529
 6408TIP3   OH219166   2.346   4.290   1.229
 6408TIP3    H119167   2.275   4.312   1.168
 6408TIP3    H219168   2.315   4.211   1.273
 6409TIP3   OH219169   5.403   5.659   3.808
 6409TIP3    H119170   5.427   5.739   3.856
 6409TIP3    H219171   5.486   5.613   3.794
 6410TIP3   OH219172   3.854   0.550   1.796
 6410TIP3    H119173   3.793   0.604   1.745
 6410TIP3    H219174   3.931   0.606   1.808
 6411TIP3   OH219175   5.279   1.083   2.129
 6411TIP3    H119176   5.249   1.152   2.070
 6411TIP3    H219177   5.249   1.002   2.088
 6412TIP3   OH219178   1.995   1.314   0.802
 6412TIP3    H119179   1.942   1.264   0.864
 6412TIP3    H219180   2.032   1.248   0.743
 6413TIP3   OH219181   5.625   4.298   6.218
 6413TIP3    H119182   5.585   4.357   6.282
 6413TIP3    H219183   5.593   4.211   6.243
 6414TIP3   OH219184   7.015   0.477   1.523
 6414TIP3    H119185   7.031   0.442   1.611
 6414TIP3    H219186   7.040   0.406   1.464
 6415TIP3   OH219187   7.166   3.311   3.315
 6415TIP3    H119188   7.161   3.286   3.408
 6415TIP3    H219189   7.259   3.317   3.297
 6416TIP3   OH219190   3.754   1.879   3.907
 6416TIP3    H119191   3.794   1.798   3.939
 6416TIP3    H219192   3.828   1.933   3.879
 6417TIP3   OH219193   6.512   7.091   3.983
 6417TIP3    H119194   6.578   7.029   3.953
 6417TIP3    H219195   6.549   7.128   4.063
 6418TIP3   OH219196   2.219   3.341   4.149
 6418TIP3    H119197   2.231   3.379   4.236
 6418TIP3    H219198   2.143   3.283   4.158
 6419TIP3   OH219199   3.536   1.012   1.567
 6419TIP3    H119200   3.503   0.950   1.632
 6419TIP3    H219201   3.499   1.096   1.594
 6420TIP3   OH219202   6.041   1.486   2.494
 6420TIP3    H119203   6.118   1.538   2.516
 6420TIP3    H219204   6.076   1.397   2.481
 6421TIP3   OH219205   2.406   5.277   6.650
 6421TIP3    H119206   2.444   5.364   6.647
 6421TIP3    H219207   2.474   5.219   6.615
 6422TIP3   OH219208   6.369   4.380   4.317
 6422TIP3    H119209   6.448   4.420   4.354
 6422TIP3    H219210   6.382   4.286   4.327
 6423TIP3   OH219211   4.940   7.612   2.395
 6423TIP3    H119212   4.910   7.578   2.479
 6423TIP3    H219213   5.031   7.639   2.412
 6424TIP3   OH219214   5.350   1.059   3.938
 6424TIP3    H119215   5.317   1.036   4.025
 6424TIP3    H219216   5.311   1.144   3.918
 6425TIP3   OH219217   2.667   6.155   2.082
 6425TIP3    H119218   2.727   6.113   2.021
 6425TIP3    H219219   2.607   6.085   2.108
 6426TIP3   OH219220   5.035   7.378   0.821
 6426TIP3    H119221   5.092   7.301   0.820
 6426TIP3    H219222   5.037   7.408   0.912
 6427TIP3   OH219223   3.364   3.413   2.462
 6427TIP3    H119224   3.282   3.363   2.466
 6427TIP3    H219225   3.374   3.435   2.370
 6428TIP3   OH219226   3.623   6.342   1.023
 6428TIP3    H119227   3.583   6.301   0.947
 6428TIP3    H219228   3.592   6.432   1.021
 6429TIP3   OH219229   6.950   7.085   4.086
 6429TIP3    H119230   6.890   7.076   4.160
 6429TIP3    H219231   7.006   7.159   4.110
 6430TIP3   OH219232   6.630   2.818   4.740
 6430TIP3    H119233   6.711   2.862   4.763
 6430TIP3    H219234   6.657   2.734   4.702
 6431TIP3   OH219235   1.459   1.585   2.741
 6431TIP3    H119236   1.442   1.602   2.833
 6431TIP3    H219237   1.376   1.600   2.697
 6432TIP3   OH219238   2.021   6.934   4.206
 6432TIP3    H119239   2.110   6.955   4.233
 6432TIP3    H219240   1.988   6.875   4.274
 6433TIP3   OH219241   5.459   5.523   3.198
 6433TIP3    H119242   5.369   5.529   3.166
 6433TIP3    H219243   5.489   5.613   3.204
 6434TIP3   OH219244   1.089   6.817   4.515
 6434TIP3    H119245   1.174   6.817   4.472
 6434TIP3    H219246   1.033   6.764   4.458
 6435TIP3   OH219247   3.381   1.184   4.230
 6435TIP3    H119248   3.427   1.117   4.280
 6435TIP3    H219249   3.446   1.217   4.168
 6436TIP3   OH219250   3.799   3.453   5.498
 6436TIP3    H119251   3.856   3.482   5.569
 6436TIP3    H219252   3.712   3.451   5.536
 6437TIP3   OH219253   7.711   5.984   2.889
 6437TIP3    H119254   7.757   5.900   2.881
 6437TIP3    H219255   7.751   6.026   2.965
 6438TIP3   OH219256   4.167   2.818   1.147
 6438TIP3    H119257   4.244   2.762   1.139
 6438TIP3    H219258   4.194   2.889   1.204
 6439TIP3   OH219259   6.899   0.109   1.769
 6439TIP3    H119260   6.981   0.065   1.792
 6439TIP3    H219261   6.879   0.162   1.846
 6440TIP3   OH219262   6.243   0.097   3.812
 6440TIP3    H119263   6.332   0.094   3.779
 6440TIP3    H219264   6.248   0.059   3.899
 6441TIP3   OH219265   6.612   6.830   0.817
 6441TIP3    H119266   6.656   6.890   0.878
 6441TIP3    H219267   6.524   6.820   0.852
 6442TIP3   OH219268   7.400   0.682   3.457
 6442TIP3    H119269   7.489   0.715   3.469
 6442TIP3    H219270   7.411   0.588   3.447
 6443TIP3   OH219271   6.760   7.621   1.711
 6443TIP3    H119272   6.671   7.653   1.724
 6443TIP3    H219273   6.810   7.658   1.784
 6444TIP3   OH219274   2.698   7.090   4.583
 6444TIP3    H119275   2.676   7.142   4.505
 6444TIP3    H219276   2.693   7.153   4.655
 6445TIP3   OH219277   1.808   0.449   5.993
 6445TIP3    H119278   1.745   0.521   5.980
 6445TIP3    H219279   1.893   0.492   5.996
 6446TIP3   OH219280   6.698   5.136   3.898
 6446TIP3    H119281   6.616   5.117   3.853
 6446TIP3    H219282   6.684   5.222   3.938
 6447TIP3   OH219283   7.057   1.524   2.821
 6447TIP3    H119284   6.970   1.549   2.790
 6447TIP3    H219285   7.067   1.432   2.798
 6448TIP3   OH219286   3.069   1.417   1.678
 6448TIP3    H119287   3.093   1.419   1.586
 6448TIP3    H219288   2.995   1.356   1.683
 6449TIP3   OH219289   1.497   5.107   6.381
 6449TIP3    H119290   1.559   5.090   6.452
 6449TIP3    H219291   1.472   5.199   6.392
 6450TIP3   OH219292   6.474   1.907   6.740
 6450TIP3    H119293   6.482   1.974   6.672
 6450TIP3    H219294   6.450   1.827   6.693
 6451TIP3   OH219295   5.872   5.515   5.099
 6451TIP3    H119296   5.961   5.502   5.131
 6451TIP3    H219297   5.828   5.431   5.116
 6452TIP3   OH219298   4.092   5.855   4.643
 6452TIP3    H119299   4.146   5.932   4.659
 6452TIP3    H219300   4.061   5.829   4.730
 6453TIP3   OH219301   2.711   2.087   3.760
 6453TIP3    H119302   2.644   2.041   3.810
 6453TIP3    H219303   2.667   2.165   3.726
 6454TIP3   OH219304   2.762   6.613   5.365
 6454TIP3    H119305   2.819   6.633   5.440
 6454TIP3    H219306   2.761   6.517   5.362
 6455TIP3   OH219307   5.869   1.772   3.369
 6455TIP3    H119308   5.861   1.845   3.430
 6455TIP3    H219309   5.934   1.801   3.305
 6456TIP3   OH219310   7.480   2.235   2.887
 6456TIP3    H119311   7.562   2.214   2.933
 6456TIP3    H219312   7.498   2.212   2.796
 6457TIP3   OH219313   8.181   1.705   1.312
 6457TIP3    H119314   8.092   1.724   1.281
 6457TIP3    H219315   8.170   1.631   1.372
 6458TIP3   OH219316   5.738   3.165   5.930
 6458TIP3    H119317   5.660   3.209   5.963
 6458TIP3    H219318   5.803   3.177   5.999
 6459TIP3   OH219319   5.750   0.027   5.694
 6459TIP3    H119320   5.772   0.052   5.784
 6459TIP3    H219321   5.822  -0.029   5.667
 6460TIP3   OH219322   8.020   3.737   0.365
 6460TIP3    H119323   7.963   3.776   0.298
 6460TIP3    H219324   7.983   3.651   0.381
 6461TIP3   OH219325   5.360   4.051   2.528
 6461TIP3    H119326   5.429   4.045   2.462
 6461TIP3    H219327   5.392   4.118   2.589
 6462TIP3   OH219328   2.631   4.341   2.300
 6462TIP3    H119329   2.692   4.341   2.226
 6462TIP3    H219330   2.641   4.428   2.340
 6463TIP3   OH219331   7.151   7.112   6.262
 6463TIP3    H119332   7.107   7.059   6.328
 6463TIP3    H219333   7.099   7.100   6.183
 6464TIP3   OH219334   5.569   2.278   1.876
 6464TIP3    H119335   5.573   2.185   1.857
 6464TIP3    H219336   5.618   2.289   1.957
 6465TIP3   OH219337   2.747   6.688   4.092
 6465TIP3    H119338   2.659   6.727   4.098
 6465TIP3    H219339   2.804   6.752   4.134
 6466TIP3   OH219340   7.791   2.307   6.384
 6466TIP3    H119341   7.876   2.268   6.405
 6466TIP3    H219342   7.729   2.260   6.440
 6467TIP3   OH219343   5.824   7.692   2.429
 6467TIP3    H119344   5.852   7.758   2.366
 6467TIP3    H219345   5.900   7.636   2.442
 6468TIP3   OH219346   6.904   4.569   6.235
 6468TIP3    H119347   6.968   4.637   6.214
 6468TIP3    H219348   6.861   4.550   6.152
 6469TIP3   OH219349   3.188   6.735   0.872
 6469TIP3    H119350   3.180   6.640   0.880
 6469TIP3    H219351   3.179   6.767   0.962
 6470TIP3   OH219352   7.103   5.102   3.640
 6470TIP3    H119353   7.092   5.172   3.576
 6470TIP3    H219354   7.015   5.063   3.648
 6471TIP3   OH219355   7.216   4.396   3.037
 6471TIP3    H119356   7.189   4.484   3.010
 6471TIP3    H219357   7.225   4.403   3.132
 6472TIP3   OH219358   7.289   1.585   2.564
 6472TIP3    H119359   7.232   1.659   2.584
 6472TIP3    H219360   7.259   1.552   2.480
 6473TIP3   OH219361   3.416   0.324   3.973
 6473TIP3    H119362   3.327   0.355   3.992
 6473TIP3    H219363   3.410   0.284   3.886
 6474TIP3   OH219364   3.996   5.965   0.222
 6474TIP3    H119365   4.010   6.029   0.292
 6474TIP3    H219366   3.902   5.968   0.204
 6475TIP3   OH219367   2.378   3.442   2.027
 6475TIP3    H119368   2.415   3.418   2.112
 6475TIP3    H219369   2.283   3.444   2.043
 6476TIP3   OH219370   0.455   7.472   4.377
 6476TIP3    H119371   0.367   7.454   4.411
 6476TIP3    H219372   0.502   7.509   4.452
 6477TIP3   OH219373   7.626   1.479   6.494
 6477TIP3    H119374   7.632   1.446   6.583
 6477TIP3    H219375   7.532   1.488   6.478
 6478TIP3   OH219376   1.380   1.034   4.480
 6478TIP3    H119377   1.474   1.055   4.474
 6478TIP3    H219378   1.350   1.037   4.389
 6479TIP3   OH219379   6.488   7.512   5.916
 6479TIP3    H119380   6.521   7.549   5.835
 6479TIP3    H219381   6.493   7.584   5.979
 6480TIP3   OH219382   1.968   2.626   3.137
 6480TIP3    H119383   1.968   2.720   3.151
 6480TIP3    H219384   1.880   2.606   3.106
 6481TIP3   OH219385   2.338   0.865   5.382
 6481TIP3    H119386   2.390   0.841   5.458
 6481TIP3    H219387   2.248   0.871   5.415
 6482TIP3   OH219388   2.726   3.163   5.211
 6482TIP3    H119389   2.802   3.126   5.166
 6482TIP3    H219390   2.693   3.092   5.265
 6483TIP3   OH219391   2.036   3.829   6.747
 6483TIP3    H119392   2.108   3.865   6.695
 6483TIP3    H219393   1.991   3.905   6.782
 6484TIP3   OH219394   6.089   0.486   5.621
 6484TIP3    H119395   6.105   0.456   5.532
 6484TIP3    H219396   6.167   0.536   5.644
 6485TIP3   OH219397   2.417   7.559   5.853
 6485TIP3    H119398   2.327   7.592   5.857
 6485TIP3    H219399   2.470   7.626   5.895
 6486TIP3   OH219400   0.134   2.607   4.848
 6486TIP3    H119401   0.175   2.521   4.855
 6486TIP3    H219402   0.162   2.640   4.762
 6487TIP3   OH219403   6.935   7.229   1.608
 6487TIP3    H119404   6.988   7.307   1.594
 6487TIP3    H219405   6.862   7.259   1.662
 6488TIP3   OH219406   0.946   0.953   0.276
 6488TIP3    H119407   0.855   0.938   0.302
 6488TIP3    H219408   0.993   0.961   0.359
 6489TIP3   OH219409   1.482   4.232   0.112
 6489TIP3    H119410   1.417   4.229   0.042
 6489TIP3    H219411   1.517   4.321   0.108
 6490TIP3   OH219412   2.957   2.044   4.055
 6490TIP3    H119413   2.967   2.106   3.983
 6490TIP3    H219414   2.988   1.961   4.019
 6491TIP3   OH219415   3.987   5.753   1.107
 6491TIP3    H119416   3.932   5.823   1.073
 6491TIP3    H219417   4.064   5.752   1.050
 6492TIP3   OH219418   0.116   5.216   4.340
 6492TIP3    H119419   0.117   5.301   4.384
 6492TIP3    H219420   0.056   5.227   4.266
 6493TIP3   OH219421   6.811   7.105   3.471
 6493TIP3    H119422   6.899   7.141   3.477
 6493TIP3    H219423   6.754   7.175   3.503
 6494TIP3   OH219424   2.779   3.192   6.412
 6494TIP3    H119425   2.783   3.180   6.317
 6494TIP3    H219426   2.815   3.112   6.449
 6495TIP3   OH219427   1.072   6.391   3.300
 6495TIP3    H119428   1.065   6.398   3.395
 6495TIP3    H219429   1.142   6.452   3.276
 6496TIP3   OH219430   5.130   3.554   2.759
 6496TIP3    H119431   5.147   3.481   2.699
 6496TIP3    H219432   5.042   3.584   2.736
 6497TIP3   OH219433   8.137   1.443   5.558
 6497TIP3    H119434   8.049   1.475   5.534
 6497TIP3    H219435   8.126   1.349   5.568
 6498TIP3   OH219436   2.592   5.197   6.476
 6498TIP3    H119437   2.574   5.239   6.392
 6498TIP3    H219438   2.659   5.131   6.456
 6499TIP3   OH219439   7.369   0.807   0.795
 6499TIP3    H119440   7.279   0.825   0.767
 6499TIP3    H219441   7.403   0.892   0.824
 6500TIP3   OH219442   4.601   5.461   6.638
 6500TIP3    H119443   4.617   5.553   6.620
 6500TIP3    H219444   4.538   5.461   6.709
 6501TIP3   OH219445   1.604   7.543   3.997
 6501TIP3    H119446   1.697   7.546   4.020
 6501TIP3    H219447   1.567   7.622   4.037
 6502TIP3   OH219448   0.442   0.964   4.984
 6502TIP3    H119449   0.472   0.873   4.983
 6502TIP3    H219450   0.521   1.015   5.003
 6503TIP3   OH219451   7.993   2.580   3.372
 6503TIP3    H119452   7.931   2.618   3.435
 6503TIP3    H219453   8.016   2.652   3.314
 6504TIP3   OH219454   5.508   3.357   5.105
 6504TIP3    H119455   5.453   3.330   5.031
 6504TIP3    H219456   5.489   3.450   5.117
 6505TIP3   OH219457   6.278   4.130   4.824
 6505TIP3    H119458   6.292   4.069   4.752
 6505TIP3    H219459   6.341   4.201   4.808
 6506TIP3   OH219460   3.347   5.062   0.950
 6506TIP3    H119461   3.341   5.153   0.921
 6506TIP3    H219462   3.339   5.067   1.045
 6507TIP3   OH219463   0.506   1.519   1.907
 6507TIP3    H119464   0.586   1.477   1.875
 6507TIP3    H219465   0.435   1.464   1.875
 6508TIP3   OH219466   7.306   5.663   3.920
 6508TIP3    H119467   7.395   5.698   3.925
 6508TIP3    H219468   7.307   5.606   3.843
 6509TIP3   OH219469   3.584   7.534   0.480
 6509TIP3    H119470   3.525   7.528   0.555
 6509TIP3    H219471   3.619   7.623   0.484
 6510TIP3   OH219472   2.509   6.964   5.199
 6510TIP3    H119473   2.558   6.895   5.154
 6510TIP3    H219474   2.421   6.928   5.211
 6511TIP3   OH219475   0.613   6.416   5.228
 6511TIP3    H119476   0.560   6.469   5.168
 6511TIP3    H219477   0.660   6.355   5.171
 6512TIP3   OH219478   6.820   1.212   6.065
 6512TIP3    H119479   6.791   1.174   5.982
 6512TIP3    H219480   6.741   1.216   6.118
 6513TIP3   OH219481   6.819   5.708   2.372
 6513TIP3    H119482   6.889   5.770   2.393
 6513TIP3    H219483   6.859   5.645   2.313
 6514TIP3   OH219484   5.440   4.777   3.097
 6514TIP3    H119485   5.452   4.865   3.062
 6514TIP3    H219486   5.345   4.763   3.095
 6515TIP3   OH219487   4.641   0.150   1.771
 6515TIP3    H119488   4.657   0.217   1.837
 6515TIP3    H219489   4.547   0.155   1.754
 6516TIP3   OH219490   5.698   6.325   1.410
 6516TIP3    H119491   5.721   6.400   1.465
 6516TIP3    H219492   5.782   6.289   1.384
 6517TIP3   OH219493   2.843   3.428   1.301
 6517TIP3    H119494   2.917   3.374   1.331
 6517TIP3    H219495   2.790   3.441   1.380
 6518TIP3   OH219496   2.219   5.617   4.707
 6518TIP3    H119497   2.243   5.524   4.702
 6518TIP3    H219498   2.138   5.623   4.657
 6519TIP3   OH219499   5.658   6.886   3.860
 6519TIP3    H119500   5.656   6.981   3.871
 6519TIP3    H219501   5.588   6.868   3.797
 6520TIP3   OH219502   6.727   4.143   3.400
 6520TIP3    H119503   6.716   4.082   3.327
 6520TIP3    H219504   6.673   4.106   3.470
 6521TIP3   OH219505   1.247   7.204   4.554
 6521TIP3    H119506   1.297   7.169   4.480
 6521TIP3    H219507   1.313   7.221   4.621
 6522TIP3   OH219508   1.551   5.954   3.374
 6522TIP3    H119509   1.485   6.004   3.325
 6522TIP3    H219510   1.504   5.878   3.408
 6523TIP3   OH219511   3.717   5.424   4.585
 6523TIP3    H119512   3.664   5.381   4.517
 6523TIP3    H219513   3.661   5.425   4.662
 6524TIP3   OH219514   6.993   7.415   0.117
 6524TIP3    H119515   6.951   7.446   0.036
 6524TIP3    H219516   7.007   7.322   0.102
 6525TIP3   OH219517   7.838   5.074   3.282
 6525TIP3    H119518   7.828   5.144   3.347
 6525TIP3    H219519   7.762   5.084   3.225
 6526TIP3   OH219520   5.041   6.634   0.388
 6526TIP3    H119521   5.123   6.656   0.433
 6526TIP3    H219522   5.062   6.554   0.340
 6527TIP3   OH219523   0.128   1.631   4.280
 6527TIP3    H119524   0.210   1.602   4.321
 6527TIP3    H219525   0.087   1.551   4.248
 6528TIP3   OH219526   4.198   2.178   2.061
 6528TIP3    H119527   4.285   2.139   2.069
 6528TIP3    H219528   4.174   2.164   1.969
 6529TIP3   OH219529   6.271   4.141   3.193
 6529TIP3    H119530   6.302   4.061   3.234
 6529TIP3    H219531   6.299   4.134   3.102
 6530TIP3   OH219532   6.506   2.305   1.527
 6530TIP3    H119533   6.573   2.237   1.533
 6530TIP3    H219534   6.511   2.336   1.437
 6531TIP3   OH219535   6.670   7.855   0.908
 6531TIP3    H119536   6.638   7.852   0.998
 6531TIP3    H219537   6.597   7.893   0.858
 6532TIP3   OH219538   5.262   0.236   3.993
 6532TIP3    H119539   5.296   0.271   3.911
 6532TIP3    H219540   5.253   0.312   4.050
 6533TIP3   OH219541   0.711   1.876   2.566
 6533TIP3    H119542   0.782   1.822   2.602
 6533TIP3    H219543   0.686   1.933   2.638
 6534TIP3   OH219544   7.925   4.426   5.002
 6534TIP3    H119545   7.907   4.332   5.008
 6534TIP3    H219546   8.018   4.432   4.981
 6535TIP3   OH219547   7.408   0.193   6.633
 6535TIP3    H119548   7.385   0.285   6.620
 6535TIP3    H219549   7.481   0.194   6.694
 6536TIP3   OH219550   0.096   2.096   5.458
 6536TIP3    H119551   0.033   2.049   5.404
 6536TIP3    H219552   0.139   2.157   5.398
 6537TIP3   OH219553   7.340   7.704   4.101
 6537TIP3    H119554   7.259   7.710   4.151
 6537TIP3    H219555   7.377   7.792   4.106
 6538TIP3   OH219556   0.694   1.091   4.949
 6538TIP3    H119557   0.711   1.174   4.992
 6538TIP3    H219558   0.766   1.034   4.978
 6539TIP3   OH219559   1.640   7.193   6.641
 6539TIP3    H119560   1.634   7.107   6.683
 6539TIP3    H219561   1.733   7.214   6.642
 6540TIP3   OH219562   6.994  -0.038   4.001
 6540TIP3    H119563   7.027  -0.052   4.090
 6540TIP3    H219564   7.018   0.052   3.981
 6541TIP3   OH219565   7.372   4.326   0.875
 6541TIP3    H119566   7.444   4.342   0.815
 6541TIP3    H219567   7.403   4.360   0.959
 6542TIP3   OH219568   7.594   7.558   5.055
 6542TIP3    H119569   7.507   7.521   5.071
 6542TIP3    H219570   7.624   7.513   4.976
 6543TIP3   OH219571   6.359   4.237   3.434
 6543TIP3    H119572   6.361   4.235   3.339
 6543TIP3    H219573   6.409   4.160   3.461
 6544TIP3   OH219574   0.665   6.656   5.975
 6544TIP3    H119575   0.730   6.654   6.046
 6544TIP3    H219576   0.640   6.748   5.969
 6545TIP3   OH219577   1.434   4.461   2.359
 6545TIP3    H119578   1.495   4.439   2.290
 6545TIP3    H219579   1.487   4.462   2.439
 6546TIP3   OH219580   2.080   3.413   4.366
 6546TIP3    H119581   2.121   3.433   4.451
 6546TIP3    H219582   2.028   3.335   4.383
 6547TIP3   OH219583   1.975   2.714   1.219
 6547TIP3    H119584   1.888   2.679   1.238
 6547TIP3    H219585   1.984   2.707   1.123
 6548TIP3   OH219586   0.892   2.596   4.679
 6548TIP3    H119587   0.890   2.679   4.632
 6548TIP3    H219588   0.973   2.597   4.729
 6549TIP3   OH219589   2.091   0.105   5.526
 6549TIP3    H119590   2.000   0.084   5.503
 6549TIP3    H219591   2.085   0.143   5.614
 6550TIP3   OH219592   2.691   0.980   1.473
 6550TIP3    H119593   2.781   0.951   1.485
 6550TIP3    H219594   2.654   0.916   1.411
 6551TIP3   OH219595   8.086   2.246   6.469
 6551TIP3    H119596   8.170   2.260   6.513
 6551TIP3    H219597   8.108   2.239   6.376
 6552TIP3   OH219598   2.130   5.917   5.844
 6552TIP3    H119599   2.127   5.882   5.756
 6552TIP3    H219600   2.157   5.843   5.899
 6553TIP3   OH219601   2.934   3.603   3.702
 6553TIP3    H119602   2.902   3.574   3.788
 6553TIP3    H219603   3.023   3.570   3.697
 6554TIP3   OH219604   7.176   7.744   6.418
 6554TIP3    H119605   7.120   7.751   6.341
 6554TIP3    H219606   7.263   7.773   6.388
 6555TIP3   OH219607   5.039   5.934   3.396
 6555TIP3    H119608   5.119   5.905   3.353
 6555TIP3    H219609   4.982   5.963   3.325
 6556TIP3   OH219610   3.554   6.042   5.931
 6556TIP3    H119611   3.644   6.010   5.922
 6556TIP3    H219612   3.506   5.970   5.970
 6557TIP3   OH219613   3.668   5.136   0.941
 6557TIP3    H119614   3.685   5.052   0.898
 6557TIP3    H219615   3.698   5.123   1.031
 6558TIP3   OH219616   7.725   3.368   3.186
 6558TIP3    H119617   7.816   3.396   3.195
 6558TIP3    H219618   7.675   3.436   3.231
 6559TIP3   OH219619   1.366   1.564   3.612
 6559TIP3    H119620   1.292   1.556   3.672
 6559TIP3    H219621   1.416   1.483   3.624
 6560TIP3   OH219622   1.063   2.593   5.544
 6560TIP3    H119623   1.111   2.515   5.518
 6560TIP3    H219624   0.972   2.576   5.518
 6561TIP3   OH219625   2.954   6.609   3.325
 6561TIP3    H119626   3.039   6.620   3.369
 6561TIP3    H219627   2.904   6.686   3.350
 6562TIP3   OH219628   2.620   6.255   3.365
 6562TIP3    H119629   2.586   6.341   3.342
 6562TIP3    H219630   2.659   6.267   3.452
 6563TIP3   OH219631   6.680   5.249   2.077
 6563TIP3    H119632   6.591   5.215   2.072
 6563TIP3    H219633   6.735   5.178   2.043
 6564TIP3   OH219634   1.348   3.443   6.457
 6564TIP3    H119635   1.355   3.393   6.376
 6564TIP3    H219636   1.259   3.428   6.488
 6565TIP3   OH219637   6.774   1.081   1.836
 6565TIP3    H119638   6.711   1.053   1.770
 6565TIP3    H219639   6.789   1.174   1.817
 6566TIP3   OH219640   1.993   3.444   0.552
 6566TIP3    H119641   2.033   3.517   0.505
 6566TIP3    H219642   1.923   3.484   0.604
 6567TIP3   OH219643   8.204   5.535   0.345
 6567TIP3    H119644   8.256   5.457   0.366
 6567TIP3    H219645   8.150   5.508   0.271
 6568TIP3   OH219646   2.966   0.484   3.282
 6568TIP3    H119647   3.050   0.441   3.298
 6568TIP3    H219648   2.925   0.430   3.214
 6569TIP3   OH219649   3.384   5.933   3.934
 6569TIP3    H119650   3.475   5.936   3.903
 6569TIP3    H219651   3.354   5.845   3.913
 6570TIP3   OH219652   1.916   0.199   4.784
 6570TIP3    H119653   1.888   0.108   4.788
 6570TIP3    H219654   1.946   0.219   4.873
 6571TIP3   OH219655   4.579   3.267   6.248
 6571TIP3    H119656   4.576   3.172   6.257
 6571TIP3    H219657   4.489   3.296   6.265
 6572TIP3   OH219658   7.559   1.545   3.396
 6572TIP3    H119659   7.649   1.528   3.367
 6572TIP3    H219660   7.566   1.558   3.491
 6573TIP3   OH219661   1.967   2.714   6.329
 6573TIP3    H119662   1.882   2.696   6.368
 6573TIP3    H219663   2.001   2.628   6.304
 6574TIP3   OH219664   6.897   1.359   1.742
 6574TIP3    H119665   6.981   1.319   1.763
 6574TIP3    H219666   6.886   1.345   1.648
 6575TIP3   OH219667   3.954   1.124   2.311
 6575TIP3    H119668   3.980   1.098   2.222
 6575TIP3    H219669   4.036   1.137   2.357
 6576TIP3   OH219670   5.433   6.149   0.496
 6576TIP3    H119671   5.365   6.167   0.561
 6576TIP3    H219672   5.417   6.213   0.426
 6577TIP3   OH219673   8.177   1.000   2.642
 6577TIP3    H119674   8.187   0.985   2.736
 6577TIP3    H219675   8.182   1.095   2.632
 6578TIP3   OH219676   4.120   0.432   2.536
 6578TIP3    H119677   4.204   0.477   2.539
 6578TIP3    H219678   4.072   0.466   2.611
 6579TIP3   OH219679   2.607   6.327   2.878
 6579TIP3    H119680   2.570   6.269   2.945
 6579TIP3    H219681   2.590   6.415   2.912
 6580TIP3   OH219682   2.735   6.315   6.579
 6580TIP3    H119683   2.759   6.235   6.531
 6580TIP3    H219684   2.770   6.386   6.526
 6581TIP3   OH219685   5.640   5.677   5.071
 6581TIP3    H119686   5.713   5.621   5.095
 6581TIP3    H219687   5.642   5.680   4.975
 6582TIP3   OH219688   7.965   4.656   1.595
 6582TIP3    H119689   7.916   4.574   1.603
 6582TIP3    H219690   7.962   4.677   1.502
 6583TIP3   OH219691   4.852   5.237   0.813
 6583TIP3    H119692   4.762   5.210   0.798
 6583TIP3    H219693   4.882   5.268   0.728
 6584TIP3   OH219694   7.042   2.808   6.762
 6584TIP3    H119695   7.097   2.830   6.686
 6584TIP3    H219696   6.957   2.845   6.741
 6585TIP3   OH219697   2.654   3.194   4.234
 6585TIP3    H119698   2.671   3.167   4.143
 6585TIP3    H219699   2.610   3.118   4.273
 6586TIP3   OH219700   7.602   6.982   1.631
 6586TIP3    H119701   7.587   6.935   1.713
 6586TIP3    H219702   7.517   6.978   1.586
 6587TIP3   OH219703   1.993   4.930   6.262
 6587TIP3    H119704   2.063   4.897   6.206
 6587TIP3    H219705   1.912   4.901   6.219
 6588TIP3   OH219706   1.803   0.211   6.146
 6588TIP3    H119707   1.858   0.149   6.097
 6588TIP3    H219708   1.804   0.291   6.093
 6589TIP3   OH219709   5.731   2.521   2.082
 6589TIP3    H119710   5.641   2.547   2.101
 6589TIP3    H219711   5.754   2.572   2.004
 6590TIP3   OH219712   7.648   7.025   0.762
 6590TIP3    H119713   7.724   7.023   0.821
 6590TIP3    H219714   7.676   7.078   0.688
 6591TIP3   OH219715   1.646   0.518   4.720
 6591TIP3    H119716   1.717   0.557   4.770
 6591TIP3    H219717   1.675   0.429   4.702
 6592TIP3   OH219718   1.861   3.657   4.662
 6592TIP3    H119719   1.912   3.628   4.738
 6592TIP3    H219720   1.782   3.696   4.700
 6593TIP3   OH219721   6.017   1.034   4.490
 6593TIP3    H119722   5.923   1.043   4.505
 6593TIP3    H219723   6.053   1.120   4.509
 6594TIP3   OH219724   2.500   7.656   4.686
 6594TIP3    H119725   2.503   7.644   4.591
 6594TIP3    H219726   2.421   7.609   4.713
 6595TIP3   OH219727   0.712   2.611   6.383
 6595TIP3    H119728   0.640   2.548   6.397
 6595TIP3    H219729   0.778   2.586   6.447
 6596TIP3   OH219730   2.140   2.539   1.349
 6596TIP3    H119731   2.122   2.533   1.443
 6596TIP3    H219732   2.070   2.596   1.316
 6597TIP3   OH219733   6.117   3.133   0.378
 6597TIP3    H119734   6.198   3.132   0.326
 6597TIP3    H219735   6.047   3.132   0.313
 6598TIP3   OH219736   1.777   5.764   3.540
 6598TIP3    H119737   1.729   5.830   3.491
 6598TIP3    H219738   1.712   5.696   3.559
 6599TIP3   OH219739   4.896   6.908   5.206
 6599TIP3    H119740   4.811   6.901   5.163
 6599TIP3    H219741   4.953   6.848   5.157
 6600TIP3   OH219742   3.400   2.179   3.783
 6600TIP3    H119743   3.464   2.122   3.741
 6600TIP3    H219744   3.427   2.181   3.875
 6601TIP3   OH219745   2.150   6.669   5.843
 6601TIP3    H119746   2.187   6.581   5.839
 6601TIP3    H219747   2.056   6.655   5.828
 6602TIP3   OH219748   3.826   0.433   0.946
 6602TIP3    H119749   3.891   0.364   0.930
 6602TIP3    H219750   3.742   0.388   0.940
 6603TIP3   OH219751   5.264   6.153   5.847
 6603TIP3    H119752   5.266   6.170   5.941
 6603TIP3    H219753   5.225   6.232   5.809
 6604TIP3   OH219754   1.698   7.234   6.132
 6604TIP3    H119755   1.783   7.191   6.122
 6604TIP3    H219756   1.684   7.238   6.227
 6605TIP3   OH219757   5.592   5.053   3.302
 6605TIP3    H119758   5.529   5.123   3.288
 6605TIP3    H219759   5.606   5.051   3.397
 6606TIP3   OH219760   6.598   1.070   4.632
 6606TIP3    H119761   6.604   1.165   4.625
 6606TIP3    H219762   6.505   1.054   4.653
 6607TIP3   OH219763   2.007   2.689   2.801
 6607TIP3    H119764   2.026   2.606   2.844
 6607TIP3    H219765   2.056   2.754   2.850
 6608TIP3   OH219766   2.473   1.869   0.664
 6608TIP3    H119767   2.517   1.945   0.703
 6608TIP3    H219768   2.391   1.903   0.629
 6609TIP3   OH219769   7.724   5.279   5.588
 6609TIP3    H119770   7.794   5.331   5.549
 6609TIP3    H219771   7.768   5.200   5.619
 6610TIP3   OH219772   3.105   0.595   2.071
 6610TIP3    H119773   3.197   0.603   2.043
 6610TIP3    H219774   3.104   0.516   2.125
 6611TIP3   OH219775   0.411   1.827   0.624
 6611TIP3    H119776   0.347   1.895   0.646
 6611TIP3    H219777   0.493   1.860   0.661
 6612TIP3   OH219778   1.605   6.825   1.516
 6612TIP3    H119779   1.514   6.799   1.499
 6612TIP3    H219780   1.658   6.759   1.472
 6613TIP3   OH219781   6.788   1.770   0.741
 6613TIP3    H119782   6.712   1.713   0.749
 6613TIP3    H219783   6.863   1.711   0.734
 6614TIP3   OH219784   4.377   5.294   3.696
 6614TIP3    H119785   4.394   5.200   3.708
 6614TIP3    H219786   4.285   5.304   3.718
 6615TIP3   OH219787   1.896   4.266   3.266
 6615TIP3    H119788   1.844   4.307   3.196
 6615TIP3    H219789   1.926   4.340   3.319
 6616TIP3   OH219790   6.231   0.687   4.838
 6616TIP3    H119791   6.146   0.728   4.820
 6616TIP3    H219792   6.215   0.594   4.826
 6617TIP3   OH219793   7.923   6.991   5.418
 6617TIP3    H119794   8.004   6.941   5.402
 6617TIP3    H219795   7.920   7.001   5.513
 6618TIP3   OH219796   3.647   0.799   6.459
 6618TIP3    H119797   3.713   0.731   6.448
 6618TIP3    H219798   3.667   0.839   6.544
 6619TIP3   OH219799   5.458   5.946   2.375
 6619TIP3    H119800   5.382   6.004   2.368
 6619TIP3    H219801   5.529   6.002   2.404
 6620TIP3   OH219802   7.655   5.662   5.044
 6620TIP3    H119803   7.718   5.709   4.990
 6620TIP3    H219804   7.627   5.726   5.109
 6621TIP3   OH219805   6.290   7.499   2.642
 6621TIP3    H119806   6.338   7.578   2.619
 6621TIP3    H219807   6.318   7.479   2.732
 6622TIP3   OH219808   3.155   3.897   2.820
 6622TIP3    H119809   3.249   3.911   2.819
 6622TIP3    H219810   3.139   3.847   2.900
 6623TIP3   OH219811   6.018   5.149   6.485
 6623TIP3    H119812   5.984   5.082   6.545
 6623TIP3    H219813   5.966   5.139   6.406
 6624TIP3   OH219814   6.381   6.307   3.197
 6624TIP3    H119815   6.363   6.401   3.209
 6624TIP3    H219816   6.388   6.273   3.287
 6625TIP3   OH219817   5.804   7.524   3.291
 6625TIP3    H119818   5.829   7.616   3.298
 6625TIP3    H219819   5.788   7.510   3.198
 6626TIP3   OH219820   7.681   6.161   6.146
 6626TIP3    H119821   7.651   6.226   6.083
 6626TIP3    H219822   7.773   6.148   6.127
 6627TIP3   OH219823   7.199   0.885   4.075
 6627TIP3    H119824   7.175   0.795   4.098
 6627TIP3    H219825   7.211   0.883   3.980
 6628TIP3   OH219826   6.397   2.883   3.404
 6628TIP3    H119827   6.466   2.949   3.397
 6628TIP3    H219828   6.366   2.872   3.314
 6629TIP3   OH219829   0.361   2.861   1.734
 6629TIP3    H119830   0.378   2.928   1.668
 6629TIP3    H219831   0.429   2.795   1.719
 6630TIP3   OH219832   4.594   0.586   1.408
 6630TIP3    H119833   4.654   0.547   1.472
 6630TIP3    H219834   4.649   0.603   1.331
 6631TIP3   OH219835   3.132   7.801   2.372
 6631TIP3    H119836   3.223   7.774   2.369
 6631TIP3    H219837   3.082   7.720   2.356
 6632TIP3   OH219838   7.509   5.812   2.553
 6632TIP3    H119839   7.535   5.852   2.470
 6632TIP3    H219840   7.519   5.882   2.618
 6633TIP3   OH219841   3.453   1.856   4.360
 6633TIP3    H119842   3.528   1.798   4.378
 6633TIP3    H219843   3.377   1.799   4.367
 6634TIP3   OH219844   1.904   0.816   5.765
 6634TIP3    H119845   1.887   0.910   5.772
 6634TIP3    H219846   1.970   0.800   5.833
 6635TIP3   OH219847   5.132   5.481   4.646
 6635TIP3    H119848   5.046   5.522   4.636
 6635TIP3    H219849   5.113   5.394   4.682
 6636TIP3   OH219850   1.785   5.669   4.330
 6636TIP3    H119851   1.746   5.757   4.331
 6636TIP3    H219852   1.836   5.666   4.249
 6637TIP3   OH219853   5.558   6.468   0.423
 6637TIP3    H119854   5.503   6.481   0.345
 6637TIP3    H219855   5.625   6.405   0.396
 6638TIP3   OH219856   5.058   0.501   2.096
 6638TIP3    H119857   5.003   0.423   2.096
 6638TIP3    H219858   5.144   0.469   2.125
 6639TIP3   OH219859   7.901   5.807   3.313
 6639TIP3    H119860   7.884   5.830   3.404
 6639TIP3    H219861   7.821   5.765   3.283
 6640TIP3   OH219862   1.661   1.179   0.346
 6640TIP3    H119863   1.632   1.093   0.319
 6640TIP3    H219864   1.716   1.163   0.423
 6641TIP3   OH219865   3.717   5.438   1.320
 6641TIP3    H119866   3.777   5.427   1.247
 6641TIP3    H219867   3.689   5.349   1.342
 6642TIP3   OH219868   8.227   5.015   3.737
 6642TIP3    H119869   8.267   4.931   3.762
 6642TIP3    H219870   8.249   5.074   3.809
 6643TIP3   OH219871   1.710   3.831   6.642
 6643TIP3    H119872   1.711   3.763   6.709
 6643TIP3    H219873   1.654   3.899   6.678
 6644TIP3   OH219874   0.766   3.253   3.596
 6644TIP3    H119875   0.786   3.251   3.690
 6644TIP3    H219876   0.817   3.181   3.560
 6645TIP3   OH219877   1.692   1.407   0.806
 6645TIP3    H119878   1.615   1.354   0.824
 6645TIP3    H219879   1.708   1.456   0.887
 6646TIP3   OH219880   2.988   4.130   4.438
 6646TIP3    H119881   2.974   4.036   4.428
 6646TIP3    H219882   3.023   4.158   4.353
 6647TIP3   OH219883   5.574   0.620   5.743
 6647TIP3    H119884   5.598   0.549   5.682
 6647TIP3    H219885   5.659   0.655   5.771
 6648TIP3   OH219886   7.704   0.397   1.485
 6648TIP3    H119887   7.657   0.480   1.490
 6648TIP3    H219888   7.794   0.419   1.508
 6649TIP3   OH219889   2.980   6.240   0.487
 6649TIP3    H119890   2.901   6.294   0.489
 6649TIP3    H219891   3.003   6.233   0.395
 6650TIP3   OH219892   1.226   5.558   3.003
 6650TIP3    H119893   1.270   5.555   2.918
 6650TIP3    H219894   1.163   5.629   2.995
 6651TIP3   OH219895   6.280   1.964   3.699
 6651TIP3    H119896   6.285   2.042   3.644
 6651TIP3    H219897   6.272   1.891   3.638
 6652TIP3   OH219898   3.963   4.677   0.175
 6652TIP3    H119899   3.890   4.648   0.230
 6652TIP3    H219900   4.029   4.707   0.237
 6653TIP3   OH219901   0.941   5.952   0.837
 6653TIP3    H119902   0.942   5.930   0.744
 6653TIP3    H219903   1.024   5.919   0.871
 6654TIP3   OH219904   4.553   2.893   2.437
 6654TIP3    H119905   4.489   2.912   2.367
 6654TIP3    H219906   4.604   2.820   2.402
 6655TIP3   OH219907   5.781   4.805   3.033
 6655TIP3    H119908   5.757   4.790   2.941
 6655TIP3    H219909   5.875   4.823   3.030
 6656TIP3   OH219910   4.402   1.299   0.693
 6656TIP3    H119911   4.340   1.366   0.721
 6656TIP3    H219912   4.347   1.224   0.669
 6657TIP3   OH219913   5.942   4.973   4.442
 6657TIP3    H119914   5.974   4.952   4.354
 6657TIP3    H219915   6.002   4.929   4.501
 6658TIP3   OH219916   4.353   3.642   1.604
 6658TIP3    H119917   4.306   3.655   1.686
 6658TIP3    H219918   4.421   3.709   1.605
 6659TIP3   OH219919   3.344   7.792   5.078
 6659TIP3    H119920   3.410   7.855   5.106
 6659TIP3    H219921   3.263   7.844   5.070
 6660TIP3   OH219922   7.493   1.449   1.948
 6660TIP3    H119923   7.533   1.372   1.988
 6660TIP3    H219924   7.401   1.445   1.973
 6661TIP3   OH219925   2.037   7.655   2.384
 6661TIP3    H119926   2.074   7.598   2.451
 6661TIP3    H219927   2.060   7.614   2.301
 6662TIP3   OH219928   5.308   4.832   4.261
 6662TIP3    H119929   5.314   4.926   4.245
 6662TIP3    H219930   5.235   4.822   4.322
 6663TIP3   OH219931   4.959   6.709   4.731
 6663TIP3    H119932   5.041   6.662   4.714
 6663TIP3    H219933   4.894   6.664   4.678
 6664TIP3   OH219934   3.506   7.334   6.101
 6664TIP3    H119935   3.443   7.293   6.160
 6664TIP3    H219936   3.493   7.290   6.017
 6665TIP3   OH219937   2.916   1.090   0.617
 6665TIP3    H119938   2.916   1.088   0.521
 6665TIP3    H219939   2.981   1.157   0.640
 6666TIP3   OH219940   5.015   1.548   5.497
 6666TIP3    H119941   4.983   1.596   5.574
 6666TIP3    H219942   4.936   1.515   5.455
 6667TIP3   OH219943   4.489   0.569   5.056
 6667TIP3    H119944   4.517   0.660   5.049
 6667TIP3    H219945   4.418   0.570   5.119
 6668TIP3   OH219946   5.313   4.691   6.433
 6668TIP3    H119947   5.321   4.747   6.356
 6668TIP3    H219948   5.268   4.746   6.498
 6669TIP3   OH219949   5.313   0.944   3.294
 6669TIP3    H119950   5.392   0.988   3.327
 6669TIP3    H219951   5.254   1.016   3.272
 6670TIP3   OH219952   7.669   1.726   0.944
 6670TIP3    H119953   7.686   1.645   0.992
 6670TIP3    H219954   7.729   1.790   0.984
 6671TIP3   OH219955   0.112   3.494   5.864
 6671TIP3    H119956   0.119   3.581   5.825
 6671TIP3    H219957   0.182   3.490   5.929
 6672TIP3   OH219958   3.319   1.740   6.308
 6672TIP3    H119959   3.234   1.762   6.270
 6672TIP3    H219960   3.318   1.780   6.395
 6673TIP3   OH219961   3.733   5.289   5.032
 6673TIP3    H119962   3.742   5.379   5.064
 6673TIP3    H219963   3.811   5.276   4.977
 6674TIP3   OH219964   1.994   4.716   4.810
 6674TIP3    H119965   1.924   4.707   4.746
 6674TIP3    H219966   1.949   4.726   4.894
 6675TIP3   OH219967   0.195   6.537   5.964
 6675TIP3    H119968   0.279   6.531   5.919
 6675TIP3    H219969   0.201   6.474   6.035
 6676TIP3   OH219970   7.831   0.104   0.599
 6676TIP3    H119971   7.791   0.038   0.656
 6676TIP3    H219972   7.915   0.065   0.574
 6677TIP3   OH219973   4.954   5.135   5.129
 6677TIP3    H119974   4.862   5.159   5.118
 6677TIP3    H219975   5.003   5.208   5.093
 6678TIP3   OH219976   7.721   0.142   0.326
 6678TIP3    H119977   7.739   0.112   0.415
 6678TIP3    H219978   7.706   0.236   0.335
 6679TIP3   OH219979   3.685   6.097   5.150
 6679TIP3    H119980   3.607   6.152   5.142
 6679TIP3    H219981   3.652   6.007   5.144
 6680TIP3   OH219982   7.332   4.469   0.133
 6680TIP3    H119983   7.410   4.413   0.137
 6680TIP3    H219984   7.352   4.534   0.065
 6681TIP3   OH219985   3.438   4.661   0.848
 6681TIP3    H119986   3.426   4.695   0.937
 6681TIP3    H219987   3.392   4.577   0.848
 6682TIP3   OH219988   1.825   6.075   0.604
 6682TIP3    H119989   1.917   6.099   0.611
 6682TIP3    H219990   1.825   5.986   0.570
 6683TIP3   OH219991   7.438   6.382   2.012
 6683TIP3    H119992   7.418   6.426   2.095
 6683TIP3    H219993   7.524   6.415   1.988
 6684TIP3   OH219994   1.705   2.840   3.476
 6684TIP3    H119995   1.702   2.935   3.460
 6684TIP3    H219996   1.631   2.805   3.427
 6685TIP3   OH219997   7.167   0.390   6.526
 6685TIP3    H119998   7.215   0.437   6.594
 6685TIP3    H219999   7.080   0.376   6.564
 6686TIP3   OH220000   8.155   1.800   3.615
 6686TIP3    H120001   8.167   1.871   3.678
 6686TIP3    H220002   8.210   1.824   3.540
 6687TIP3   OH220003   3.678   0.681   4.030
 6687TIP3    H120004   3.605   0.699   3.971
 6687TIP3    H220005   3.756   0.700   3.977
 6688TIP3   OH220006   7.766   0.307   5.082
 6688TIP3    H120007   7.847   0.348   5.112
 6688TIP3    H220008   7.789   0.215   5.068
 6689TIP3   OH220009   7.274   3.130   0.277
 6689TIP3    H120010   7.243   3.214   0.243
 6689TIP3    H220011   7.237   3.065   0.218
 6690TIP3   OH220012   6.921   6.133   6.475
 6690TIP3    H120013   6.903   6.225   6.456
 6690TIP3    H220014   6.902   6.124   6.568
 6691TIP3   OH220015   4.552   3.461   4.999
 6691TIP3    H120016   4.616   3.448   5.069
 6691TIP3    H220017   4.569   3.391   4.937
 6692TIP3   OH220018   6.463   3.669   3.569
 6692TIP3    H120019   6.477   3.743   3.509
 6692TIP3    H220020   6.450   3.594   3.512
 6693TIP3   OH220021   0.761   5.551   5.212
 6693TIP3    H120022   0.703   5.578   5.283
 6693TIP3    H220023   0.750   5.618   5.145
 6694TIP3   OH220024   6.074   7.135   2.732
 6694TIP3    H120025   6.133   7.077   2.683
 6694TIP3    H220026   6.062   7.211   2.675
 6695TIP3   OH220027   6.370   4.115   5.408
 6695TIP3    H120028   6.461   4.098   5.432
 6695TIP3    H220029   6.358   4.208   5.423
 6696TIP3   OH220030   5.738   1.087   5.906
 6696TIP3    H120031   5.644   1.077   5.923
 6696TIP3    H220032   5.777   1.096   5.993
 6697TIP3   OH220033   1.775   1.312   5.759
 6697TIP3    H120034   1.709   1.289   5.694
 6697TIP3    H220035   1.838   1.366   5.711
 6698TIP3   OH220036   4.636   3.364   1.343
 6698TIP3    H120037   4.605   3.275   1.360
 6698TIP3    H220038   4.705   3.353   1.278
 6699TIP3   OH220039   8.086   6.476   4.208
 6699TIP3    H120040   8.138   6.528   4.269
 6699TIP3    H220041   8.054   6.539   4.144
 6700TIP3   OH220042   6.232   5.334   6.481
 6700TIP3    H120043   6.293   5.263   6.462
 6700TIP3    H220044   6.151   5.290   6.506
 6701TIP3   OH220045   6.861   4.060   1.014
 6701TIP3    H120046   6.842   4.084   0.923
 6701TIP3    H220047   6.796   3.993   1.035
 6702TIP3   OH220048   3.289   7.595   0.201
 6702TIP3    H120049   3.335   7.665   0.248
 6702TIP3    H220050   3.342   7.517   0.216
 6703TIP3   OH220051   1.649   4.131   4.694
 6703TIP3    H120052   1.618   4.133   4.784
 6703TIP3    H220053   1.593   4.193   4.647
 6704TIP3   OH220054   0.039   3.072   5.825
 6704TIP3    H120055   0.121   3.036   5.859
 6704TIP3    H220056   0.065   3.152   5.780
 6705TIP3   OH220057   5.439   7.024   2.582
 6705TIP3    H120058   5.493   7.103   2.582
 6705TIP3    H220059   5.407   7.017   2.672
 6706TIP3   OH220060   0.047   6.223   0.249
 6706TIP3    H120061  -0.048   6.228   0.262
 6706TIP3    H220062   0.076   6.160   0.315
 6707TIP3   OH220063   6.391   3.304   1.319
 6707TIP3    H120064   6.339   3.269   1.392
 6707TIP3    H220065   6.403   3.230   1.260
 6708TIP3   OH220066   2.282   3.001   4.770
 6708TIP3    H120067   2.339   2.999   4.847
 6708TIP3    H220068   2.254   2.910   4.759
 6709TIP3   OH220069   0.695   0.664   0.540
 6709TIP3    H120070   0.675   0.660   0.446
 6709TIP3    H220071   0.715   0.756   0.556
 6710TIP3   OH220072   0.737   5.832   1.520
 6710TIP3    H120073   0.757   5.900   1.584
 6710TIP3    H220074   0.753   5.750   1.567
 6711TIP3   OH220075   3.133   1.271   2.952
 6711TIP3    H120076   3.144   1.176   2.953
 6711TIP3    H220077   3.152   1.297   2.862
 6712TIP3   OH220078   0.481   1.126   5.673
 6712TIP3    H120079   0.468   1.118   5.767
 6712TIP3    H220080   0.442   1.211   5.650
 6713TIP3   OH220081   1.186   5.530   1.066
 6713TIP3    H120082   1.217   5.538   1.156
 6713TIP3    H220083   1.133   5.450   1.067
 6714TIP3   OH220084   2.226   4.519   4.574
 6714TIP3    H120085   2.306   4.564   4.599
 6714TIP3    H220086   2.184   4.497   4.658
 6715TIP3   OH220087   7.814   5.304   3.426
 6715TIP3    H120088   7.781   5.387   3.390
 6715TIP3    H220089   7.889   5.330   3.480
 6716TIP3   OH220090   1.855   7.042   5.481
 6716TIP3    H120091   1.817   7.025   5.395
 6716TIP3    H220092   1.792   7.101   5.524
 6717TIP3   OH220093   2.342   1.137   4.717
 6717TIP3    H120094   2.380   1.191   4.647
 6717TIP3    H220095   2.345   1.048   4.684
 6718TIP3   OH220096   7.465   4.638   5.158
 6718TIP3    H120097   7.554   4.672   5.168
 6718TIP3    H220098   7.452   4.634   5.063
 6719TIP3   OH220099   7.864   5.921   2.185
 6719TIP3    H120100   7.877   5.995   2.244
 6719TIP3    H220101   7.831   5.851   2.241
 6720TIP3   OH220102   2.987   2.232   3.863
 6720TIP3    H120103   2.925   2.284   3.913
 6720TIP3    H220104   3.042   2.297   3.819
 6721TIP3   OH220105   7.657   6.836   4.103
 6721TIP3    H120106   7.720   6.907   4.091
 6721TIP3    H220107   7.667   6.781   4.025
 6722TIP3   OH220108   4.858   6.857   3.540
 6722TIP3    H120109   4.847   6.814   3.455
 6722TIP3    H220110   4.926   6.922   3.525
 6723TIP3   OH220111   3.486   1.986   1.771
 6723TIP3    H120112   3.517   1.943   1.851
 6723TIP3    H220113   3.457   1.914   1.715
 6724TIP3   OH220114   6.400   4.987   4.525
 6724TIP3    H120115   6.399   4.909   4.581
 6724TIP3    H220116   6.480   4.977   4.473
 6725TIP3   OH220117   3.281   7.236   4.555
 6725TIP3    H120118   3.301   7.249   4.647
 6725TIP3    H220119   3.306   7.145   4.538
 6726TIP3   OH220120   2.955   3.726   6.669
 6726TIP3    H120121   2.993   3.700   6.752
 6726TIP3    H220122   2.979   3.819   6.659
 6727TIP3   OH220123   1.686   6.339   0.972
 6727TIP3    H120124   1.701   6.245   0.978
 6727TIP3    H220125   1.592   6.349   0.962
 6728TIP3   OH220126   2.484   1.475   4.785
 6728TIP3    H120127   2.530   1.394   4.805
 6728TIP3    H220128   2.398   1.464   4.826
 6729TIP3   OH220129   7.890   2.579   5.454
 6729TIP3    H120130   7.929   2.495   5.479
 6729TIP3    H220131   7.944   2.609   5.381
 6730TIP3   OH220132   5.989   2.789   1.433
 6730TIP3    H120133   6.003   2.877   1.470
 6730TIP3    H220134   6.043   2.732   1.488
 6731TIP3   OH220135   6.810   2.778   1.579
 6731TIP3    H120136   6.859   2.802   1.658
 6731TIP3    H220137   6.740   2.720   1.610
 6732TIP3   OH220138   2.019   1.157   3.965
 6732TIP3    H120139   2.063   1.235   3.999
 6732TIP3    H220140   1.976   1.187   3.885
 6733TIP3   OH220141   3.803   0.079   0.647
 6733TIP3    H120142   3.785   0.003   0.703
 6733TIP3    H220143   3.831   0.147   0.708
 6734TIP3   OH220144   0.833   0.198   2.710
 6734TIP3    H120145   0.859   0.247   2.788
 6734TIP3    H220146   0.911   0.197   2.655
 6735TIP3   OH220147   3.885   7.408   6.572
 6735TIP3    H120148   3.810   7.376   6.622
 6735TIP3    H220149   3.952   7.425   6.638
 6736TIP3   OH220150   3.915   5.103   3.964
 6736TIP3    H120151   3.844   5.074   3.906
 6736TIP3    H220152   3.871   5.152   4.033
 6737TIP3   OH220153   5.698   0.665   0.423
 6737TIP3    H120154   5.793   0.668   0.410
 6737TIP3    H220155   5.665   0.614   0.350
 6738TIP3   OH220156   7.218   5.685   3.513
 6738TIP3    H120157   7.176   5.699   3.428
 6738TIP3    H220158   7.299   5.638   3.492
 6739TIP3   OH220159   2.839   7.072   2.436
 6739TIP3    H120160   2.853   7.145   2.495
 6739TIP3    H220161   2.744   7.057   2.438
 6740TIP3   OH220162   8.108   7.370   1.049
 6740TIP3    H120163   8.181   7.318   1.014
 6740TIP3    H220164   8.151   7.443   1.095
 6741TIP3   OH220165   7.568   4.206   3.908
 6741TIP3    H120166   7.480   4.204   3.945
 6741TIP3    H220167   7.570   4.131   3.847
 6742TIP3   OH220168   3.039   2.731   0.598
 6742TIP3    H120169   3.042   2.731   0.694
 6742TIP3    H220170   3.064   2.642   0.573
 6743TIP3   OH220171   2.085   5.864   4.378
 6743TIP3    H120172   2.132   5.928   4.432
 6743TIP3    H220173   2.022   5.916   4.329
 6744TIP3   OH220174   6.454   0.589   3.246
 6744TIP3    H120175   6.443   0.496   3.226
 6744TIP3    H220176   6.448   0.593   3.342
 6745TIP3   OH220177   3.126   4.691   4.915
 6745TIP3    H120178   3.125   4.735   5.000
 6745TIP3    H220179   3.176   4.750   4.858
 6746TIP3   OH220180   6.501   0.061   3.757
 6746TIP3    H120181   6.578   0.090   3.708
 6746TIP3    H220182   6.529  -0.017   3.803
 6747TIP3   OH220183   6.403   3.421   3.457
 6747TIP3    H120184   6.388   3.370   3.536
 6747TIP3    H220185   6.464   3.369   3.405
 6748TIP3   OH220186   7.819   7.759   4.911
 6748TIP3    H120187   7.791   7.716   4.992
 6748TIP3    H220188   7.750   7.741   4.848
 6749TIP3   OH220189   6.544   2.118   1.904
 6749TIP3    H120190   6.494   2.179   1.850
 6749TIP3    H220191   6.579   2.054   1.843
 6750TIP3   OH220192   2.319   1.563   2.038
 6750TIP3    H120193   2.251   1.535   1.976
 6750TIP3    H220194   2.294   1.522   2.121
 6751TIP3   OH220195   3.107   5.016   0.076
 6751TIP3    H120196   3.196   4.996   0.103
 6751TIP3    H220197   3.056   4.938   0.098
 6752TIP3   OH220198   4.117   4.396   5.779
 6752TIP3    H120199   4.116   4.349   5.695
 6752TIP3    H220200   4.154   4.333   5.841
 6753TIP3   OH220201   3.650   0.705   1.695
 6753TIP3    H120202   3.597   0.737   1.767
 6753TIP3    H220203   3.591   0.651   1.643
 6754TIP3   OH220204   4.528   6.329   6.751
 6754TIP3    H120205   4.509   6.420   6.774
 6754TIP3    H220206   4.619   6.316   6.778
 6755TIP3   OH220207   7.317   4.876   1.943
 6755TIP3    H120208   7.373   4.862   1.866
 6755TIP3    H220209   7.283   4.964   1.933
 6756TIP3   OH220210   8.236   5.388   4.973
 6756TIP3    H120211   8.267   5.308   5.014
 6756TIP3    H220212   8.270   5.459   5.028
 6757TIP3   OH220213   6.255   1.814   4.055
 6757TIP3    H120214   6.315   1.797   3.983
 6757TIP3    H220215   6.201   1.736   4.061
 6758TIP3   OH220216   0.272   4.682   0.428
 6758TIP3    H120217   0.207   4.647   0.490
 6758TIP3    H220218   0.282   4.612   0.363
 6759TIP3   OH220219   2.091   6.551   5.350
 6759TIP3    H120220   2.160   6.493   5.317
 6759TIP3    H220221   2.010   6.515   5.314
 6760TIP3   OH220222   7.072   6.133   0.912
 6760TIP3    H120223   7.079   6.111   1.005
 6760TIP3    H220224   7.152   6.099   0.873
 6761TIP3   OH220225   1.357   6.150   2.592
 6761TIP3    H120226   1.282   6.112   2.545
 6761TIP3    H220227   1.432   6.129   2.537
 6762TIP3   OH220228   1.842   4.788   6.597
 6762TIP3    H120229   1.910   4.728   6.567
 6762TIP3    H220230   1.881   4.875   6.593
 6763TIP3   OH220231   4.190   3.854   4.800
 6763TIP3    H120232   4.222   3.807   4.877
 6763TIP3    H220233   4.130   3.793   4.757
 6764TIP3   OH220234   6.115   1.682   5.566
 6764TIP3    H120235   6.149   1.608   5.515
 6764TIP3    H220236   6.191   1.715   5.614
 6765TIP3   OH220237   0.461   5.346   2.445
 6765TIP3    H120238   0.446   5.362   2.538
 6765TIP3    H220239   0.556   5.336   2.437
 6766TIP3   OH220240   5.743   0.387   2.274
 6766TIP3    H120241   5.692   0.371   2.195
 6766TIP3    H220242   5.707   0.468   2.309
 6767TIP3   OH220243   6.914   7.582   5.499
 6767TIP3    H120244   6.835   7.536   5.471
 6767TIP3    H220245   6.963   7.517   5.550
 6768TIP3   OH220246   2.097   3.292   1.481
 6768TIP3    H120247   2.165   3.317   1.417
 6768TIP3    H220248   2.094   3.365   1.543
 6769TIP3   OH220249   2.345   0.661   5.173
 6769TIP3    H120250   2.434   0.627   5.181
 6769TIP3    H220251   2.338   0.726   5.243
 6770TIP3   OH220252   2.613   3.655   4.012
 6770TIP3    H120253   2.634   3.606   4.091
 6770TIP3    H220254   2.658   3.738   4.022
 6771TIP3   OH220255   4.303   5.925   1.129
 6771TIP3    H120256   4.385   5.974   1.123
 6771TIP3    H220257   4.257   5.965   1.203
 6772TIP3   OH220258   5.552   4.771   1.966
 6772TIP3    H120259   5.458   4.773   1.947
 6772TIP3    H220260   5.557   4.781   2.061
 6773TIP3   OH220261   4.378   3.918   2.838
 6773TIP3    H120262   4.284   3.908   2.850
 6773TIP3    H220263   4.417   3.847   2.889
 6774TIP3   OH220264   6.428   0.853   4.400
 6774TIP3    H120265   6.396   0.916   4.335
 6774TIP3    H220266   6.393   0.885   4.483
 6775TIP3   OH220267   1.968   6.774   4.890
 6775TIP3    H120268   1.918   6.753   4.969
 6775TIP3    H220269   2.059   6.756   4.913
 6776TIP3   OH220270   4.659  -0.005   5.926
 6776TIP3    H120271   4.613  -0.085   5.951
 6776TIP3    H220272   4.601   0.038   5.864
 6777TIP3   OH220273   8.123   4.182   3.811
 6777TIP3    H120274   8.049   4.139   3.768
 6777TIP3    H220275   8.090   4.268   3.836
 6778TIP3   OH220276   7.538   0.177   1.483
 6778TIP3    H120277   7.581   0.095   1.506
 6778TIP3    H220278   7.606   0.243   1.490
 6779TIP3   OH220279   4.953   6.608   4.324
 6779TIP3    H120280   4.879   6.647   4.277
 6779TIP3    H220281   5.025   6.670   4.310
 6780TIP3   OH220282   4.655   6.361   2.822
 6780TIP3    H120283   4.730   6.321   2.866
 6780TIP3    H220284   4.678   6.454   2.814
 6781TIP3   OH220285   6.676   7.025   2.406
 6781TIP3    H120286   6.654   7.047   2.496
 6781TIP3    H220287   6.679   6.929   2.405
 6782TIP3   OH220288   3.401   2.337   2.115
 6782TIP3    H120289   3.378   2.421   2.076
 6782TIP3    H220290   3.405   2.355   2.209
 6783TIP3   OH220291   5.624   1.785   2.560
 6783TIP3    H120292   5.594   1.875   2.542
 6783TIP3    H220293   5.645   1.785   2.653
 6784TIP3   OH220294   7.187   3.072   4.154
 6784TIP3    H120295   7.147   3.114   4.078
 6784TIP3    H220296   7.114   3.036   4.204
 6785TIP3   OH220297   2.347   1.868   5.083
 6785TIP3    H120298   2.412   1.811   5.042
 6785TIP3    H220299   2.391   1.902   5.161
 6786TIP3   OH220300   2.875   7.028   4.254
 6786TIP3    H120301   2.834   7.080   4.186
 6786TIP3    H220302   2.947   7.083   4.286
 6787TIP3   OH220303   7.694   0.977   4.285
 6787TIP3    H120304   7.653   0.934   4.360
 6787TIP3    H220305   7.621   0.993   4.224
 6788TIP3   OH220306   0.126   7.528   4.180
 6788TIP3    H120307   0.167   7.540   4.094
 6788TIP3    H220308   0.044   7.484   4.161
 6789TIP3   OH220309   2.354   5.069   5.173
 6789TIP3    H120310   2.394   5.103   5.253
 6789TIP3    H220311   2.268   5.111   5.169
 6790TIP3   OH220312   1.334   2.041   1.404
 6790TIP3    H120313   1.405   1.990   1.365
 6790TIP3    H220314   1.329   2.120   1.350
 6791TIP3   OH220315   6.964   2.113   2.233
 6791TIP3    H120316   6.961   2.065   2.150
 6791TIP3    H220317   6.873   2.117   2.262
 6792TIP3   OH220318   6.120   2.568   5.620
 6792TIP3    H120319   6.066   2.491   5.601
 6792TIP3    H220320   6.210   2.535   5.620
 6793TIP3   OH220321   8.173   4.939   1.481
 6793TIP3    H120322   8.246   4.999   1.468
 6793TIP3    H220323   8.185   4.872   1.413
 6794TIP3   OH220324   6.125   3.925   0.964
 6794TIP3    H120325   6.161   3.858   0.907
 6794TIP3    H220326   6.170   4.006   0.939
 6795TIP3   OH220327   6.132   2.248   3.300
 6795TIP3    H120328   6.202   2.309   3.278
 6795TIP3    H220329   6.090   2.228   3.216
 6796TIP3   OH220330   1.433   4.835   1.725
 6796TIP3    H120331   1.488   4.809   1.651
 6796TIP3    H220332   1.373   4.899   1.689
 6797TIP3   OH220333   3.366   6.697   0.654
 6797TIP3    H120334   3.329   6.612   0.630
 6797TIP3    H220335   3.308   6.730   0.723
 6798TIP3   OH220336  -0.082   5.782   3.830
 6798TIP3    H120337  -0.012   5.847   3.841
 6798TIP3    H220338  -0.069   5.721   3.902
 6799TIP3   OH220339   0.695   7.777   0.074
 6799TIP3    H120340   0.675   7.779   0.168
 6799TIP3    H220341   0.790   7.773   0.070
 6800TIP3   OH220342   3.567   1.428   3.431
 6800TIP3    H120343   3.639   1.448   3.490
 6800TIP3    H220344   3.542   1.338   3.452
 6801TIP3   OH220345   7.767   2.267   6.081
 6801TIP3    H120346   7.779   2.294   6.172
 6801TIP3    H220347   7.690   2.315   6.052
 6802TIP3   OH220348   2.770   3.922   1.092
 6802TIP3    H120349   2.680   3.922   1.060
 6802TIP3    H220350   2.788   3.831   1.115
 6803TIP3   OH220351   2.272   2.232   6.396
 6803TIP3    H120352   2.239   2.201   6.312
 6803TIP3    H220353   2.322   2.158   6.431
 6804TIP3   OH220354   0.651   4.413   3.493
 6804TIP3    H120355   0.722   4.443   3.550
 6804TIP3    H220356   0.633   4.323   3.521
 6805TIP3   OH220357   1.404   3.909   6.215
 6805TIP3    H120358   1.310   3.927   6.216
 6805TIP3    H220359   1.431   3.927   6.125
 6806TIP3   OH220360   7.134   0.062   2.772
 6806TIP3    H120361   7.165  -0.006   2.712
 6806TIP3    H220362   7.096   0.013   2.845
 6807TIP3   OH220363   3.682   5.997   0.060
 6807TIP3    H120364   3.695   5.916   0.011
 6807TIP3    H220365   3.717   6.065   0.002
 6808TIP3   OH220366   1.678   0.472   4.296
 6808TIP3    H120367   1.646   0.387   4.327
 6808TIP3    H220368   1.765   0.453   4.260
 6809TIP3   OH220369   6.712   1.462   5.854
 6809TIP3    H120370   6.762   1.383   5.875
 6809TIP3    H220371   6.777   1.532   5.852
 6810TIP3   OH220372   1.259   6.299   1.235
 6810TIP3    H120373   1.348   6.268   1.254
 6810TIP3    H220374   1.247   6.281   1.142
 6811TIP3   OH220375   7.788   1.674   3.857
 6811TIP3    H120376   7.852   1.611   3.824
 6811TIP3    H220377   7.837   1.755   3.868
 6812TIP3   OH220378   7.945   0.801   5.164
 6812TIP3    H120379   7.970   0.841   5.248
 6812TIP3    H220380   7.874   0.856   5.132
 6813TIP3   OH220381   3.888   2.796   2.438
 6813TIP3    H120382   3.934   2.832   2.362
 6813TIP3    H220383   3.831   2.729   2.402
 6814TIP3   OH220384   1.627   1.675   2.556
 6814TIP3    H120385   1.560   1.660   2.622
 6814TIP3    H220386   1.686   1.600   2.565
 6815TIP3   OH220387   1.803   6.386   0.260
 6815TIP3    H120388   1.856   6.450   0.308
 6815TIP3    H220389   1.821   6.303   0.304
 6816TIP3   OH220390   3.519   7.703   1.202
 6816TIP3    H120391   3.562   7.676   1.122
 6816TIP3    H220392   3.553   7.644   1.269
 6817TIP3   OH220393   1.560   0.198   0.161
 6817TIP3    H120394   1.647   0.195   0.122
 6817TIP3    H220395   1.514   0.123   0.123
 6818TIP3   OH220396   7.524   6.312   3.426
 6818TIP3    H120397   7.498   6.346   3.512
 6818TIP3    H220398   7.562   6.226   3.445
 6819TIP3   OH220399   6.221   5.102   6.203
 6819TIP3    H120400   6.138   5.064   6.232
 6819TIP3    H220401   6.284   5.078   6.271
 6820TIP3   OH220402   4.197   0.940   4.476
 6820TIP3    H120403   4.186   0.975   4.565
 6820TIP3    H220404   4.107   0.928   4.444
 6821TIP3   OH220405   5.597   5.154   4.858
 6821TIP3    H120406   5.526   5.093   4.838
 6821TIP3    H220407   5.559   5.215   4.921
 6822TIP3   OH220408   4.867   7.654   4.394
 6822TIP3    H120409   4.928   7.619   4.329
 6822TIP3    H220410   4.921   7.669   4.472
 6823TIP3   OH220411   0.577   7.786   1.797
 6823TIP3    H120412   0.661   7.824   1.772
 6823TIP3    H220413   0.565   7.810   1.888
 6824TIP3   OH220414   0.714   1.936   4.809
 6824TIP3    H120415   0.653   1.908   4.877
 6824TIP3    H220416   0.662   1.993   4.753
 6825TIP3   OH220417   6.911   2.530   0.499
 6825TIP3    H120418   6.861   2.478   0.437
 6825TIP3    H220419   6.876   2.619   0.489
 6826TIP3   OH220420   2.393   3.660   4.789
 6826TIP3    H120421   2.485   3.682   4.772
 6826TIP3    H220422   2.383   3.670   4.884
 6827TIP3   OH220423   7.249   5.447   1.719
 6827TIP3    H120424   7.250   5.351   1.719
 6827TIP3    H220425   7.201   5.470   1.639
 6828TIP3   OH220426   6.977   1.902   1.962
 6828TIP3    H120427   6.953   1.813   1.937
 6828TIP3    H220428   7.040   1.891   2.033
 6829TIP3   OH220429   2.939   1.069   0.346
 6829TIP3    H120430   3.021   1.114   0.327
 6829TIP3    H220431   2.875   1.110   0.289
 6830TIP3   OH220432   1.213   5.787   5.073
 6830TIP3    H120433   1.197   5.846   5.147
 6830TIP3    H220434   1.234   5.845   5.000
 6831TIP3   OH220435   8.270   4.114   3.473
 6831TIP3    H120436   8.329   4.101   3.399
 6831TIP3    H220437   8.294   4.045   3.535
 6832TIP3   OH220438   3.091   6.122   6.186
 6832TIP3    H120439   3.148   6.046   6.179
 6832TIP3    H220440   3.104   6.154   6.275
 6833TIP3   OH220441   3.689   4.543   5.279
 6833TIP3    H120442   3.637   4.561   5.358
 6833TIP3    H220443   3.749   4.474   5.305
 6834TIP3   OH220444   7.172   7.328   6.428
 6834TIP3    H120445   7.092   7.351   6.475
 6834TIP3    H220446   7.144   7.267   6.360
 6835TIP3   OH220447   6.325   6.577   1.360
 6835TIP3    H120448   6.283   6.536   1.435
 6835TIP3    H220449   6.287   6.665   1.356
 6836TIP3   OH220450   6.640   3.103   0.954
 6836TIP3    H120451   6.574   3.056   0.904
 6836TIP3    H220452   6.701   3.036   0.983
 6837TIP3   OH220453   7.729   3.220   2.953
 6837TIP3    H120454   7.818   3.186   2.965
 6837TIP3    H220455   7.711   3.270   3.032
 6838TIP3   OH220456   1.555   5.921   5.329
 6838TIP3    H120457   1.522   5.833   5.312
 6838TIP3    H220458   1.541   5.967   5.246
 6839TIP3   OH220459   7.871   1.208   4.317
 6839TIP3    H120460   7.901   1.265   4.247
 6839TIP3    H220461   7.805   1.152   4.277
 6840TIP3   OH220462   5.956   3.741   0.778
 6840TIP3    H120463   6.050   3.724   0.784
 6840TIP3    H220464   5.950   3.835   0.764
 6841TIP3   OH220465   1.192   3.439   0.360
 6841TIP3    H120466   1.234   3.403   0.438
 6841TIP3    H220467   1.212   3.533   0.364
 6842TIP3   OH220468   7.374   3.002   4.941
 6842TIP3    H120469   7.376   3.019   4.846
 6842TIP3    H220470   7.461   2.969   4.961
 6843TIP3   OH220471   5.465   5.601   0.324
 6843TIP3    H120472   5.531   5.657   0.365
 6843TIP3    H220473   5.510   5.564   0.248
 6844TIP3   OH220474   5.260   6.085   1.511
 6844TIP3    H120475   5.191   6.148   1.491
 6844TIP3    H220476   5.219   6.000   1.499
 6845TIP3   OH220477   6.125   2.375   1.092
 6845TIP3    H120478   6.190   2.403   1.027
 6845TIP3    H220479   6.109   2.453   1.145
 6846TIP3   OH220480   0.092   0.137   4.349
 6846TIP3    H120481   0.143   0.182   4.416
 6846TIP3    H220482   0.151   0.127   4.275
 6847TIP3   OH220483   8.002   2.771   3.918
 6847TIP3    H120484   7.953   2.853   3.910
 6847TIP3    H220485   7.997   2.731   3.831
 6848TIP3   OH220486   4.948   1.365   4.877
 6848TIP3    H120487   4.872   1.417   4.853
 6848TIP3    H220488   4.912   1.278   4.896
 6849TIP3   OH220489   6.460   6.288   5.866
 6849TIP3    H120490   6.549   6.270   5.836
 6849TIP3    H220491   6.424   6.202   5.886
 6850TIP3   OH220492   5.446   5.631   6.428
 6850TIP3    H120493   5.511   5.578   6.475
 6850TIP3    H220494   5.377   5.646   6.492
 6851TIP3   OH220495   6.669   6.426   6.133
 6851TIP3    H120496   6.643   6.496   6.073
 6851TIP3    H220497   6.753   6.396   6.100
 6852TIP3   OH220498   2.825   2.289   1.765
 6852TIP3    H120499   2.809   2.383   1.752
 6852TIP3    H220500   2.881   2.264   1.692
 6853TIP3   OH220501   2.949   3.226   2.603
 6853TIP3    H120502   2.877   3.287   2.617
 6853TIP3    H220503   2.909   3.149   2.564
 6854TIP3   OH220504   1.190   5.795   1.758
 6854TIP3    H120505   1.250   5.730   1.795
 6854TIP3    H220506   1.152   5.752   1.681
 6855TIP3   OH220507   1.732   1.956   2.040
 6855TIP3    H120508   1.761   1.910   1.961
 6855TIP3    H220509   1.662   2.014   2.009
 6856TIP3   OH220510   4.859   6.928   1.209
 6856TIP3    H120511   4.939   6.903   1.257
 6856TIP3    H220512   4.890   6.953   1.122
 6857TIP3   OH220513   6.261   0.777   6.610
 6857TIP3    H120514   6.261   0.683   6.628
 6857TIP3    H220515   6.197   0.788   6.540
 6858TIP3   OH220516   8.250   3.134   6.130
 6858TIP3    H120517   8.275   3.051   6.089
 6858TIP3    H220518   8.267   3.120   6.223
 6859TIP3   OH220519   0.777   6.396   4.539
 6859TIP3    H120520   0.707   6.363   4.595
 6859TIP3    H220521   0.737   6.469   4.491
 6860TIP3   OH220522   5.946   1.729   5.851
 6860TIP3    H120523   5.865   1.696   5.892
 6860TIP3    H220524   6.010   1.660   5.868
 6861TIP3   OH220525   8.027   7.472   3.385
 6861TIP3    H120526   8.121   7.455   3.378
 6861TIP3    H220527   7.986   7.408   3.327
 6862TIP3   OH220528   3.016   2.462   4.234
 6862TIP3    H120529   2.951   2.472   4.164
 6862TIP3    H220530   3.094   2.427   4.190
 6863TIP3   OH220531   2.713   4.497   3.348
 6863TIP3    H120532   2.651   4.553   3.302
 6863TIP3    H220533   2.696   4.409   3.315
 6864TIP3   OH220534   0.066   6.576   3.492
 6864TIP3    H120535   0.115   6.648   3.454
 6864TIP3    H220536   0.017   6.615   3.565
 6865TIP3   OH220537   8.056   0.623   6.259
 6865TIP3    H120538   8.024   0.698   6.211
 6865TIP3    H220539   8.001   0.619   6.337
 6866TIP3   OH220540   2.325   2.241   1.580
 6866TIP3    H120541   2.328   2.171   1.515
 6866TIP3    H220542   2.393   2.302   1.553
 6867TIP3   OH220543   3.970   4.898   2.757
 6867TIP3    H120544   3.996   4.921   2.847
 6867TIP3    H220545   3.919   4.973   2.727
 6868TIP3   OH220546   2.329   4.723   1.919
 6868TIP3    H120547   2.285   4.756   1.997
 6868TIP3    H220548   2.408   4.681   1.952
 6869TIP3   OH220549   2.579   3.386   6.469
 6869TIP3    H120550   2.525   3.356   6.543
 6869TIP3    H220551   2.642   3.315   6.456
 6870TIP3   OH220552   5.978   5.895   4.605
 6870TIP3    H120553   5.949   5.918   4.517
 6870TIP3    H220554   5.968   5.976   4.656
 6871TIP3   OH220555   5.547   1.444   1.074
 6871TIP3    H120556   5.529   1.359   1.113
 6871TIP3    H220557   5.525   1.434   0.982
 6872TIP3   OH220558   2.123   6.930   5.874
 6872TIP3    H120559   2.125   6.834   5.867
 6872TIP3    H220560   2.048   6.948   5.930
 6873TIP3   OH220561   2.042   2.431   2.902
 6873TIP3    H120562   2.097   2.353   2.890
 6873TIP3    H220563   1.994   2.413   2.983
 6874TIP3   OH220564   2.035   2.853   3.605
 6874TIP3    H120565   2.082   2.821   3.683
 6874TIP3    H220566   2.104   2.886   3.547
 6875TIP3   OH220567   3.154   5.111   3.327
 6875TIP3    H120568   3.227   5.071   3.280
 6875TIP3    H220569   3.120   5.042   3.384
 6876TIP3   OH220570   8.077   1.889   1.821
 6876TIP3    H120571   7.990   1.857   1.845
 6876TIP3    H220572   8.097   1.844   1.738
 6877TIP3   OH220573   1.291   4.637   6.625
 6877TIP3    H120574   1.330   4.723   6.638
 6877TIP3    H220575   1.253   4.641   6.537
 6878TIP3   OH220576   7.571   4.595   5.999
 6878TIP3    H120577   7.515   4.649   5.943
 6878TIP3    H220578   7.660   4.623   5.978
 6879TIP3   OH220579   4.923   2.770   1.345
 6879TIP3    H120580   4.972   2.834   1.292
 6879TIP3    H220581   4.974   2.763   1.426
 6880TIP3   OH220582   2.394   3.773   4.287
 6880TIP3    H120583   2.311   3.729   4.307
 6880TIP3    H220584   2.450   3.754   4.362
 6881TIP3   OH220585   4.972   0.668   3.187
 6881TIP3    H120586   4.932   0.697   3.269
 6881TIP3    H220587   4.951   0.575   3.182
 6882TIP3   OH220588   4.258   5.787   2.069
 6882TIP3    H120589   4.290   5.727   2.001
 6882TIP3    H220590   4.163   5.778   2.068
 6883TIP3   OH220591   5.027   4.238   4.895
 6883TIP3    H120592   5.079   4.161   4.920
 6883TIP3    H220593   5.091   4.309   4.891
 6884TIP3   OH220594   6.534   4.098   2.802
 6884TIP3    H120595   6.457   4.057   2.843
 6884TIP3    H220596   6.609   4.055   2.843
 6885TIP3   OH220597   6.809   7.662   4.953
 6885TIP3    H120598   6.757   7.691   4.878
 6885TIP3    H220599   6.900   7.667   4.923
 6886TIP3   OH220600   5.093   1.603   0.836
 6886TIP3    H120601   5.132   1.528   0.792
 6886TIP3    H220602   5.030   1.566   0.898
 6887TIP3   OH220603   0.597   4.835   2.394
 6887TIP3    H120604   0.545   4.906   2.358
 6887TIP3    H220605   0.540   4.758   2.392
 6888TIP3   OH220606   6.219   1.453   2.048
 6888TIP3    H120607   6.304   1.471   2.088
 6888TIP3    H220608   6.238   1.394   1.975
 6889TIP3   OH220609   6.680   5.514   6.231
 6889TIP3    H120610   6.710   5.579   6.295
 6889TIP3    H220611   6.585   5.515   6.238
 6890TIP3   OH220612   7.753   1.099   0.767
 6890TIP3    H120613   7.755   1.014   0.723
 6890TIP3    H220614   7.788   1.081   0.854
 6891TIP3   OH220615   1.290   1.931   0.940
 6891TIP3    H120616   1.199   1.916   0.964
 6891TIP3    H220617   1.337   1.856   0.976
 6892TIP3   OH220618   1.051   2.314   4.131
 6892TIP3    H120619   1.108   2.390   4.119
 6892TIP3    H220620   0.962   2.349   4.126
 6893TIP3   OH220621   1.361   5.355   4.883
 6893TIP3    H120622   1.448   5.340   4.846
 6893TIP3    H220623   1.377   5.405   4.963
 6894TIP3   OH220624   1.671   4.078   0.259
 6894TIP3    H120625   1.606   4.137   0.221
 6894TIP3    H220626   1.695   4.119   0.342
 6895TIP3   OH220627   5.392   0.015   3.858
 6895TIP3    H120628   5.405   0.013   3.952
 6895TIP3    H220629   5.359   0.103   3.839
 6896TIP3   OH220630   1.080   0.646   6.527
 6896TIP3    H120631   1.019   0.717   6.512
 6896TIP3    H220632   1.038   0.592   6.594
 6897TIP3   OH220633   5.762   4.273   5.491
 6897TIP3    H120634   5.831   4.298   5.552
 6897TIP3    H220635   5.786   4.185   5.461
 6898TIP3   OH220636   6.971   1.274   0.298
 6898TIP3    H120637   7.046   1.293   0.355
 6898TIP3    H220638   6.916   1.215   0.350
 6899TIP3   OH220639   8.085   3.550   2.622
 6899TIP3    H120640   8.097   3.496   2.544
 6899TIP3    H220641   8.004   3.598   2.606
 6900TIP3   OH220642   7.661   5.758   3.138
 6900TIP3    H120643   7.702   5.738   3.053
 6900TIP3    H220644   7.581   5.806   3.115
 6901TIP3   OH220645   5.057   1.436   2.920
 6901TIP3    H120646   5.044   1.450   2.826
 6901TIP3    H220647   5.134   1.488   2.942
 6902TIP3   OH220648   7.002   3.096   3.263
 6902TIP3    H120649   6.987   3.189   3.281
 6902TIP3    H220650   7.097   3.085   3.271
 6903TIP3   OH220651   5.541   2.409   0.508
 6903TIP3    H120652   5.485   2.474   0.550
 6903TIP3    H220653   5.611   2.460   0.467
 6904TIP3   OH220654   6.279   5.987   4.673
 6904TIP3    H120655   6.222   5.930   4.620
 6904TIP3    H220656   6.351   6.009   4.615
 6905TIP3   OH220657   6.931   4.552   4.497
 6905TIP3    H120658   7.013   4.562   4.545
 6905TIP3    H220659   6.863   4.576   4.561
 6906TIP3   OH220660   1.442   4.562   1.864
 6906TIP3    H120661   1.413   4.648   1.833
 6906TIP3    H220662   1.537   4.563   1.851
 6907TIP3   OH220663   5.888   5.094   4.884
 6907TIP3    H120664   5.831   5.031   4.929
 6907TIP3    H220665   5.828   5.158   4.847
 6908TIP3   OH220666   5.516   2.079   0.080
 6908TIP3    H120667   5.545   2.106  -0.007
 6908TIP3    H220668   5.512   1.983   0.076
 6909TIP3   OH220669   6.798   0.575   2.021
 6909TIP3    H120670   6.772   0.548   1.933
 6909TIP3    H220671   6.883   0.617   2.010
 6910TIP3   OH220672   8.161   4.011   4.397
 6910TIP3    H120673   8.249   4.038   4.425
 6910TIP3    H220674   8.117   3.985   4.478
 6911TIP3   OH220675   3.572   6.498   5.999
 6911TIP3    H120676   3.478   6.483   5.989
 6911TIP3    H220677   3.577   6.578   6.052
 6912TIP3   OH220678   6.711   4.866   3.378
 6912TIP3    H120679   6.626   4.878   3.335
 6912TIP3    H220680   6.695   4.796   3.442
 6913TIP3   OH220681   2.520   5.318   1.062
 6913TIP3    H120682   2.549   5.369   0.986
 6913TIP3    H220683   2.441   5.273   1.032
 6914TIP3   OH220684   3.049   7.369   3.013
 6914TIP3    H120685   3.015   7.306   3.076
 6914TIP3    H220686   3.112   7.421   3.063
 6915TIP3   OH220687   8.006   5.171   3.713
 6915TIP3    H120688   8.065   5.102   3.683
 6915TIP3    H220689   8.061   5.249   3.719
 6916TIP3   OH220690   7.360   5.215   2.957
 6916TIP3    H120691   7.331   5.218   2.866
 6916TIP3    H220692   7.330   5.297   2.995
 6917TIP3   OH220693   6.767   0.362   3.808
 6917TIP3    H120694   6.773   0.419   3.731
 6917TIP3    H220695   6.689   0.309   3.792
 6918TIP3   OH220696   7.117   5.896   2.080
 6918TIP3    H120697   7.168   5.972   2.110
 6918TIP3    H220698   7.057   5.933   2.015
 6919TIP3   OH220699   8.092   6.390   4.934
 6919TIP3    H120700   8.158   6.407   5.001
 6919TIP3    H220701   8.029   6.332   4.977
 6920TIP3   OH220702   6.707   7.120   0.867
 6920TIP3    H120703   6.710   7.194   0.806
 6920TIP3    H220704   6.786   7.070   0.848
 6921TIP3   OH220705   7.620   6.894   1.122
 6921TIP3    H120706   7.527   6.916   1.128
 6921TIP3    H220707   7.648   6.879   1.212
 6922TIP3   OH220708   5.118   3.110   6.187
 6922TIP3    H120709   5.045   3.051   6.205
 6922TIP3    H220710   5.123   3.114   6.091
 6923TIP3   OH220711   2.446   7.055   4.091
 6923TIP3    H120712   2.382   7.123   4.073
 6923TIP3    H220713   2.473   7.024   4.004
 6924TIP3   OH220714   4.717   1.774   6.276
 6924TIP3    H120715   4.694   1.867   6.273
 6924TIP3    H220716   4.788   1.765   6.212
 6925TIP3   OH220717   7.738   6.632   5.454
 6925TIP3    H120718   7.687   6.560   5.492
 6925TIP3    H220719   7.737   6.700   5.522
 6926TIP3   OH220720   5.007   6.892   3.225
 6926TIP3    H120721   4.989   6.869   3.133
 6926TIP3    H220722   4.920   6.904   3.264
 6927TIP3   OH220723   6.675   6.435   5.564
 6927TIP3    H120724   6.726   6.377   5.507
 6927TIP3    H220725   6.688   6.400   5.652
 6928TIP3   OH220726   7.873   4.627   0.086
 6928TIP3    H120727   7.808   4.618   0.155
 6928TIP3    H220728   7.844   4.567   0.017
 6929TIP3   OH220729   6.350   0.422   2.884
 6929TIP3    H120730   6.285   0.434   2.953
 6929TIP3    H220731   6.336   0.495   2.824
 6930TIP3   OH220732   0.421   3.195   1.863
 6930TIP3    H120733   0.377   3.200   1.778
 6930TIP3    H220734   0.474   3.274   1.866
 6931TIP3   OH220735   6.006   0.533   6.735
 6931TIP3    H120736   6.080   0.492   6.691
 6931TIP3    H220737   5.960   0.461   6.779
 6932TIP3   OH220738   3.106   1.657   6.713
 6932TIP3    H120739   3.192   1.696   6.727
 6932TIP3    H220740   3.106   1.632   6.621
 6933TIP3   OH220741   7.718   2.462   1.155
 6933TIP3    H120742   7.653   2.529   1.174
 6933TIP3    H220743   7.696   2.431   1.067
 6934TIP3   OH220744   6.490   6.108   1.364
 6934TIP3    H120745   6.405   6.151   1.372
 6934TIP3    H220746   6.501   6.093   1.270
 6935TIP3   OH220747   1.075   6.929   3.898
 6935TIP3    H120748   1.142   6.920   3.830
 6935TIP3    H220749   1.101   7.005   3.949
 6936TIP3   OH220750   5.495   2.639   2.820
 6936TIP3    H120751   5.518   2.687   2.739
 6936TIP3    H220752   5.401   2.652   2.829
 6937TIP3   OH220753   7.948   2.754   1.812
 6937TIP3    H120754   7.988   2.803   1.885
 6937TIP3    H220755   8.004   2.677   1.801
 6938TIP3   OH220756   1.559   4.940   5.079
 6938TIP3    H120757   1.481   4.919   5.028
 6938TIP3    H220758   1.626   4.959   5.014
 6939TIP3   OH220759   2.193   1.357   5.461
 6939TIP3    H120760   2.280   1.318   5.469
 6939TIP3    H220761   2.199   1.413   5.384
 6940TIP3   OH220762   5.828   5.753   3.048
 6940TIP3    H120763   5.907   5.791   3.086
 6940TIP3    H220764   5.779   5.828   3.014
 6941TIP3   OH220765   1.355   5.835   5.568
 6941TIP3    H120766   1.429   5.846   5.509
 6941TIP3    H220767   1.353   5.742   5.588
 6942TIP3   OH220768   6.534   5.218   1.167
 6942TIP3    H120769   6.621   5.209   1.206
 6942TIP3    H220770   6.540   5.171   1.084
 6943TIP3   OH220771   5.550   7.760   0.145
 6943TIP3    H120772   5.557   7.690   0.080
 6943TIP3    H220773   5.456   7.775   0.155
 6944TIP3   OH220774   3.308   0.180   1.177
 6944TIP3    H120775   3.237   0.116   1.173
 6944TIP3    H220776   3.313   0.217   1.089
 6945TIP3   OH220777   3.597   6.970   5.366
 6945TIP3    H120778   3.665   6.915   5.405
 6945TIP3    H220779   3.630   6.989   5.278
 6946TIP3   OH220780   3.795   2.976   4.189
 6946TIP3    H120781   3.730   2.929   4.138
 6946TIP3    H220782   3.761   3.065   4.196
 6947TIP3   OH220783   7.245   5.689   2.570
 6947TIP3    H120784   7.178   5.751   2.545
 6947TIP3    H220785   7.328   5.735   2.556
 6948TIP3   OH220786   1.949   0.811   3.386
 6948TIP3    H120787   1.962   0.901   3.355
 6948TIP3    H220788   1.986   0.756   3.318
 6949TIP3   OH220789   1.109   3.857   0.528
 6949TIP3    H120790   1.133   3.814   0.610
 6949TIP3    H220791   1.042   3.920   0.553
 6950TIP3   OH220792   1.805   6.932   2.404
 6950TIP3    H120793   1.712   6.926   2.384
 6950TIP3    H220794   1.811   6.997   2.474
 6951TIP3   OH220795   6.811   2.478   1.658
 6951TIP3    H120796   6.732   2.524   1.631
 6951TIP3    H220797   6.786   2.386   1.659
 6952TIP3   OH220798   4.024   2.837   0.885
 6952TIP3    H120799   4.070   2.819   0.967
 6952TIP3    H220800   3.961   2.765   0.877
 6953TIP3   OH220801   4.929   5.106   6.625
 6953TIP3    H120802   4.988   5.182   6.623
 6953TIP3    H220803   4.847   5.139   6.587
 6954TIP3   OH220804   5.526   2.780   4.264
 6954TIP3    H120805   5.431   2.796   4.264
 6954TIP3    H220806   5.564   2.863   4.237
 6955TIP3   OH220807   5.758   6.702   4.012
 6955TIP3    H120808   5.832   6.752   4.045
 6955TIP3    H220809   5.715   6.761   3.950
 6956TIP3   OH220810   1.525   6.948   3.610
 6956TIP3    H120811   1.587   6.900   3.666
 6956TIP3    H220812   1.553   7.039   3.617
 6957TIP3   OH220813   0.096   1.121   4.807
 6957TIP3    H120814   0.182   1.084   4.789
 6957TIP3    H220815   0.041   1.093   4.734
 6958TIP3   OH220816   5.186   3.497   3.026
 6958TIP3    H120817   5.170   3.551   2.949
 6958TIP3    H220818   5.187   3.558   3.100
 6959TIP3   OH220819   3.157   1.063   4.128
 6959TIP3    H120820   3.235   1.096   4.173
 6959TIP3    H220821   3.102   1.026   4.198
 6960TIP3   OH220822   5.657   1.259   2.741
 6960TIP3    H120823   5.692   1.348   2.740
 6960TIP3    H220824   5.601   1.255   2.664
 6961TIP3   OH220825   6.346   5.175   0.279
 6961TIP3    H120826   6.327   5.156   0.371
 6961TIP3    H220827   6.416   5.240   0.282
 6962TIP3   OH220828   6.067   1.311   3.534
 6962TIP3    H120829   6.150   1.343   3.499
 6962TIP3    H220830   6.010   1.303   3.458
 6963TIP3   OH220831   2.355   0.218   5.170
 6963TIP3    H120832   2.297   0.294   5.173
 6963TIP3    H220833   2.346   0.185   5.080
 6964TIP3   OH220834   2.736   2.895   4.563
 6964TIP3    H120835   2.796   2.927   4.496
 6964TIP3    H220836   2.652   2.935   4.541
 6965TIP3   OH220837   4.744   0.624   5.346
 6965TIP3    H120838   4.695   0.689   5.397
 6965TIP3    H220839   4.782   0.565   5.411
 6966TIP3   OH220840   2.307   1.784   1.418
 6966TIP3    H120841   2.396   1.816   1.403
 6966TIP3    H220842   2.316   1.690   1.433
 6967TIP3   OH220843   7.367   1.227   1.187
 6967TIP3    H120844   7.337   1.316   1.208
 6967TIP3    H220845   7.462   1.237   1.175
 6968TIP3   OH220846   5.451   5.602   6.142
 6968TIP3    H120847   5.440   5.638   6.230
 6968TIP3    H220848   5.473   5.510   6.155
 6969TIP3   OH220849   2.297   2.066   1.364
 6969TIP3    H120850   2.359   2.015   1.311
 6969TIP3    H220851   2.215   2.017   1.359
 6970TIP3   OH220852   7.894   7.449   0.872
 6970TIP3    H120853   7.942   7.391   0.932
 6970TIP3    H220854   7.959   7.513   0.843
 6971TIP3   OH220855   4.584   3.554   3.643
 6971TIP3    H120856   4.583   3.648   3.659
 6971TIP3    H220857   4.586   3.515   3.730
 6972TIP3   OH220858   2.662   0.957   6.498
 6972TIP3    H120859   2.709   0.901   6.436
 6972TIP3    H220860   2.725   0.972   6.568
 6973TIP3   OH220861   7.874   5.410   3.065
 6973TIP3    H120862   7.820   5.419   2.986
 6973TIP3    H220863   7.923   5.329   3.051
 6974TIP3   OH220864   1.125   6.639   5.300
 6974TIP3    H120865   1.127   6.649   5.205
 6974TIP3    H220866   1.214   6.660   5.328
 6975TIP3   OH220867   0.880   6.868   2.101
 6975TIP3    H120868   0.787   6.877   2.120
 6975TIP3    H220869   0.890   6.778   2.070
 6976TIP3   OH220870   1.081   6.743   5.895
 6976TIP3    H120871   1.068   6.789   5.811
 6976TIP3    H220872   1.040   6.658   5.882
 6977TIP3   OH220873   7.569   7.645   3.555
 6977TIP3    H120874   7.562   7.630   3.460
 6977TIP3    H220875   7.483   7.680   3.579
 6978TIP3   OH220876   2.240   0.962   2.885
 6978TIP3    H120877   2.322   0.948   2.838
 6978TIP3    H220878   2.176   0.907   2.838
 6979TIP3   OH220879   2.623   7.621   1.036
 6979TIP3    H120880   2.578   7.570   0.969
 6979TIP3    H220881   2.700   7.568   1.058
 6980TIP3   OH220882   2.392   6.843   5.799
 6980TIP3    H120883   2.298   6.854   5.815
 6980TIP3    H220884   2.401   6.752   5.769
 6981TIP3   OH220885   1.564   1.308   2.282
 6981TIP3    H120886   1.611   1.276   2.205
 6981TIP3    H220887   1.477   1.268   2.275
 6982TIP3   OH220888   3.893   6.002   6.624
 6982TIP3    H120889   3.931   6.089   6.634
 6982TIP3    H220890   3.897   5.964   6.712
 6983TIP3   OH220891   5.311   5.253   5.938
 6983TIP3    H120892   5.268   5.241   5.853
 6983TIP3    H220893   5.345   5.342   5.935
 6984TIP3   OH220894   4.865   6.235   1.246
 6984TIP3    H120895   4.865   6.171   1.175
 6984TIP3    H220896   4.840   6.317   1.204
 6985TIP3   OH220897   0.890   4.737   0.421
 6985TIP3    H120898   0.960   4.789   0.380
 6985TIP3    H220899   0.818   4.741   0.358
 6986TIP3   OH220900   0.594   0.329   2.436
 6986TIP3    H120901   0.539   0.400   2.404
 6986TIP3    H220902   0.649   0.369   2.503
 6987TIP3   OH220903   5.479   6.019   1.642
 6987TIP3    H120904   5.406   6.047   1.588
 6987TIP3    H220905   5.442   5.956   1.702
 6988TIP3   OH220906   5.630   1.909   3.581
 6988TIP3    H120907   5.598   1.894   3.492
 6988TIP3    H220908   5.694   1.980   3.571
 6989TIP3   OH220909   1.432   0.583   4.205
 6989TIP3    H120910   1.445   0.588   4.110
 6989TIP3    H220911   1.513   0.544   4.238
 6990TIP3   OH220912   0.155   0.419   3.859
 6990TIP3    H120913   0.107   0.501   3.852
 6990TIP3    H220914   0.119   0.364   3.790
 6991TIP3   OH220915   6.744   3.429   4.312
 6991TIP3    H120916   6.819   3.420   4.253
 6991TIP3    H220917   6.681   3.482   4.263
 6992TIP3   OH220918   4.465   7.536   4.614
 6992TIP3    H120919   4.425   7.461   4.657
 6992TIP3    H220920   4.504   7.501   4.535
 6993TIP3   OH220921   6.616   1.068   3.290
 6993TIP3    H120922   6.595   1.137   3.227
 6993TIP3    H220923   6.655   1.115   3.364
 6994TIP3   OH220924   4.048   0.853   5.828
 6994TIP3    H120925   4.015   0.812   5.908
 6994TIP3    H220926   4.134   0.812   5.814
 6995TIP3   OH220927   6.110   0.801   2.454
 6995TIP3    H120928   6.067   0.716   2.466
 6995TIP3    H220929   6.099   0.820   2.361
 6996TIP3   OH220930   0.580   6.916   2.375
 6996TIP3    H120931   0.529   6.836   2.363
 6996TIP3    H220932   0.520   6.987   2.353
 6997TIP3   OH220933   2.658   5.936   6.626
 6997TIP3    H120934   2.565   5.924   6.606
 6997TIP3    H220935   2.689   5.997   6.559
 6998TIP3   OH220936   4.160   2.081   4.156
 6998TIP3    H120937   4.176   2.053   4.066
 6998TIP3    H220938   4.211   2.161   4.166
 6999TIP3   OH220939   5.677   3.517   2.328
 6999TIP3    H120940   5.675   3.586   2.262
 6999TIP3    H220941   5.586   3.488   2.336
 7000TIP3   OH220942   2.639   3.486   4.222
 7000TIP3    H120943   2.568   3.497   4.286
 7000TIP3    H220944   2.650   3.391   4.215
 7001TIP3   OH220945   5.254   1.873   5.822
 7001TIP3    H120946   5.323   1.816   5.856
 7001TIP3    H220947   5.187   1.875   5.890
 7002TIP3   OH220948   8.079   7.103   3.957
 7002TIP3    H120949   8.062   7.136   3.868
 7002TIP3    H220950   8.030   7.021   3.961
 7003TIP3   OH220951   2.533   0.854   4.340
 7003TIP3    H120952   2.536   0.764   4.310
 7003TIP3    H220953   2.582   0.903   4.275
 7004TIP3   OH220954   1.383   4.509   0.945
 7004TIP3    H120955   1.307   4.496   0.888
 7004TIP3    H220956   1.429   4.584   0.906
 7005TIP3   OH220957   1.753   3.739   3.851
 7005TIP3    H120958   1.658   3.732   3.860
 7005TIP3    H220959   1.766   3.822   3.804
 7006TIP3   OH220960   1.144   3.399   5.318
 7006TIP3    H120961   1.237   3.416   5.333
 7006TIP3    H220962   1.117   3.467   5.257
 7007TIP3   OH220963   5.452   4.207   0.549
 7007TIP3    H120964   5.477   4.246   0.466
 7007TIP3    H220965   5.450   4.113   0.532
 7008TIP3   OH220966   3.735   0.361   0.434
 7008TIP3    H120967   3.666   0.296   0.424
 7008TIP3    H220968   3.737   0.381   0.528
 7009TIP3   OH220969   4.967   1.984   5.446
 7009TIP3    H120970   4.917   2.015   5.522
 7009TIP3    H220971   5.053   1.960   5.482
 7010TIP3   OH220972   3.868   2.665   3.302
 7010TIP3    H120973   3.822   2.588   3.336
 7010TIP3    H220974   3.873   2.725   3.377
 7011TIP3   OH220975   4.799   2.942   1.810
 7011TIP3    H120976   4.801   2.923   1.904
 7011TIP3    H220977   4.707   2.929   1.785
 7012TIP3   OH220978   1.315   5.357   5.950
 7012TIP3    H120979   1.274   5.434   5.910
 7012TIP3    H220980   1.329   5.382   6.041
 7013TIP3   OH220981   5.401   3.488   1.889
 7013TIP3    H120982   5.309   3.461   1.891
 7013TIP3    H220983   5.446   3.418   1.841
 7014TIP3   OH220984   7.738   4.904   2.515
 7014TIP3    H120985   7.656   4.867   2.483
 7014TIP3    H220986   7.783   4.831   2.558
 7015TIP3   OH220987   2.443   0.993   0.444
 7015TIP3    H120988   2.499   0.944   0.505
 7015TIP3    H220989   2.354   0.979   0.478
 7016TIP3   OH220990   2.895   1.203   1.601
 7016TIP3    H120991   2.863   1.126   1.649
 7016TIP3    H220992   2.815   1.245   1.569
 7017TIP3   OH220993   7.476   6.917   2.600
 7017TIP3    H120994   7.399   6.888   2.648
 7017TIP3    H220995   7.441   6.968   2.527
 7018TIP3   OH220996   7.808   4.623   6.212
 7018TIP3    H120997   7.764   4.582   6.137
 7018TIP3    H220998   7.846   4.703   6.177
 7019TIP3   OH220999   8.005   3.261   6.093
 7019TIP3    H121000   8.092   3.223   6.078
 7019TIP3    H221001   7.944   3.189   6.077
 7020TIP3   OH221002   7.124   7.133   4.985
 7020TIP3    H121003   7.205   7.169   4.951
 7020TIP3    H221004   7.148   7.095   5.070
 7021TIP3   OH221005   7.833   5.601   0.280
 7021TIP3    H121006   7.844   5.665   0.350
 7021TIP3    H221007   7.742   5.573   0.287
 7022TIP3   OH221008  -0.046   0.495   5.045
 7022TIP3    H121009  -0.034   0.402   5.061
 7022TIP3    H221010   0.043   0.531   5.045
 7023TIP3   OH221011   3.980   5.131   6.167
 7023TIP3    H121012   3.920   5.076   6.217
 7023TIP3    H221013   3.997   5.206   6.223
 7024TIP3   OH221014   7.245   2.092   0.091
 7024TIP3    H121015   7.305   2.027   0.127
 7024TIP3    H221016   7.166   2.042   0.070
 7025TIP3   OH221017   6.999   4.991   5.510
 7025TIP3    H121018   7.012   5.072   5.460
 7025TIP3    H221019   6.959   5.018   5.592
 7026TIP3   OH221020   8.049   1.771   2.486
 7026TIP3    H121021   8.022   1.684   2.456
 7026TIP3    H221022   8.122   1.754   2.545
 7027TIP3   OH221023   3.494   6.289   6.507
 7027TIP3    H121024   3.407   6.314   6.478
 7027TIP3    H221025   3.532   6.369   6.542
 7028TIP3   OH221026   4.093   4.641   4.830
 7028TIP3    H121027   3.999   4.627   4.844
 7028TIP3    H221028   4.135   4.580   4.890
 7029TIP3   OH221029   5.275   1.168   2.809
 7029TIP3    H121030   5.294   1.262   2.810
 7029TIP3    H221031   5.348   1.128   2.857
 7030TIP3   OH221032   1.008   2.845   1.950
 7030TIP3    H121033   0.948   2.866   1.878
 7030TIP3    H221034   0.965   2.880   2.028
 7031TIP3   OH221035   5.902   5.796   0.541
 7031TIP3    H121036   5.864   5.813   0.627
 7031TIP3    H221037   5.879   5.873   0.489
 7032TIP3   OH221038   6.664   0.606   1.531
 7032TIP3    H121039   6.663   0.615   1.626
 7032TIP3    H221040   6.694   0.516   1.515
 7033TIP3   OH221041   3.747   3.632   3.115
 7033TIP3    H121042   3.733   3.552   3.165
 7033TIP3    H221043   3.701   3.700   3.165
 7034TIP3   OH221044   8.086   6.510   5.735
 7034TIP3    H121045   8.174   6.476   5.717
 7034TIP3    H221046   8.100   6.602   5.757
 7035TIP3   OH221047   2.077   5.674   1.011
 7035TIP3    H121048   1.989   5.704   0.990
 7035TIP3    H221049   2.064   5.597   1.067
 7036TIP3   OH221050   5.745   5.057   1.576
 7036TIP3    H121051   5.792   4.979   1.603
 7036TIP3    H221052   5.812   5.117   1.543
 7037TIP3   OH221053   0.133   2.064   2.534
 7037TIP3    H121054   0.077   2.134   2.501
 7037TIP3    H221055   0.167   2.021   2.456
 7038TIP3   OH221056   3.216   1.471   0.208
 7038TIP3    H121057   3.308   1.484   0.232
 7038TIP3    H221058   3.219   1.446   0.116
 7039TIP3   OH221059   4.495   5.551   2.632
 7039TIP3    H121060   4.460   5.498   2.703
 7039TIP3    H221061   4.508   5.489   2.560
 7040TIP3   OH221062   6.950   7.330   4.953
 7040TIP3    H121063   6.987   7.244   4.974
 7040TIP3    H221064   6.935   7.327   4.858
 7041TIP3   OH221065   2.850   5.403   0.980
 7041TIP3    H121066   2.809   5.488   0.993
 7041TIP3    H221067   2.792   5.357   0.919
 7042TIP3   OH221068   5.347   5.194   0.360
 7042TIP3    H121069   5.254   5.195   0.384
 7042TIP3    H221070   5.376   5.285   0.374
 7043TIP3   OH221071   2.795   5.608   0.525
 7043TIP3    H121072   2.850   5.686   0.537
 7043TIP3    H221073   2.840   5.558   0.457
 7044TIP3   OH221074   1.391   6.310   5.910
 7044TIP3    H121075   1.365   6.386   5.857
 7044TIP3    H221076   1.334   6.239   5.879
 7045TIP3   OH221077   0.477   5.363   5.359
 7045TIP3    H121078   0.512   5.452   5.357
 7045TIP3    H221079   0.437   5.350   5.273
 7046TIP3   OH221080   0.467   0.590   4.324
 7046TIP3    H121081   0.508   0.641   4.393
 7046TIP3    H221082   0.427   0.656   4.267
 7047TIP3   OH221083   6.571   3.392   0.034
 7047TIP3    H121084   6.563   3.477   0.077
 7047TIP3    H221085   6.579   3.330   0.107
 7048TIP3   OH221086   2.746   0.437   6.558
 7048TIP3    H121087   2.769   0.529   6.566
 7048TIP3    H221088   2.791   0.394   6.631
 7049TIP3   OH221089   7.689   0.215   2.429
 7049TIP3    H121090   7.713   0.203   2.337
 7049TIP3    H221091   7.604   0.172   2.437
 7050TIP3   OH221092   3.719   7.472   0.177
 7050TIP3    H121093   3.692   7.562   0.157
 7050TIP3    H221094   3.657   7.443   0.244
 7051TIP3   OH221095   3.926   0.547   3.830
 7051TIP3    H121096   3.835   0.522   3.812
 7051TIP3    H221097   3.965   0.469   3.867
 7052TIP3   OH221098   0.286   1.072   1.265
 7052TIP3    H121099   0.316   1.057   1.355
 7052TIP3    H221100   0.231   1.150   1.271
 7053TIP3   OH221101   1.804   5.432   1.585
 7053TIP3    H121102   1.773   5.358   1.636
 7053TIP3    H221103   1.759   5.508   1.622
 7054TIP3   OH221104   2.292   1.550   2.716
 7054TIP3    H121105   2.211   1.589   2.751
 7054TIP3    H221106   2.268   1.460   2.694
 7055TIP3   OH221107   5.372   5.247   2.463
 7055TIP3    H121108   5.391   5.164   2.419
 7055TIP3    H221109   5.429   5.310   2.419
 7056TIP3   OH221110   7.914   2.226   0.956
 7056TIP3    H121111   7.891   2.316   0.934
 7056TIP3    H221112   8.010   2.226   0.965
 7057TIP3   OH221113   0.904   5.272   4.022
 7057TIP3    H121114   0.884   5.216   4.097
 7057TIP3    H221115   0.875   5.359   4.049
 7058TIP3   OH221116   7.856   5.810   3.574
 7058TIP3    H121117   7.855   5.728   3.625
 7058TIP3    H221118   7.944   5.845   3.589
 7059TIP3   OH221119   0.417   5.138   4.592
 7059TIP3    H121120   0.396   5.057   4.545
 7059TIP3    H221121   0.365   5.134   4.672
 7060TIP3   OH221122   2.569   2.058   5.933
 7060TIP3    H121123   2.596   2.147   5.953
 7060TIP3    H221124   2.641   2.003   5.963
 7061TIP3   OH221125   6.353   2.915   0.101
 7061TIP3    H121126   6.298   2.902   0.024
 7061TIP3    H221127   6.338   2.837   0.154
 7062TIP3   OH221128   1.974   4.370   4.087
 7062TIP3    H121129   1.969   4.440   4.022
 7062TIP3    H221130   1.889   4.327   4.083
 7063TIP3   OH221131   5.625   0.493   5.154
 7063TIP3    H121132   5.677   0.486   5.074
 7063TIP3    H221133   5.553   0.552   5.131
 7064TIP3   OH221134   0.571   1.692   3.402
 7064TIP3    H121135   0.626   1.770   3.407
 7064TIP3    H221136   0.626   1.626   3.360
 7065TIP3   OH221137   3.563   3.084   2.166
 7065TIP3    H121138   3.586   3.166   2.209
 7065TIP3    H221139   3.578   3.101   2.073
 7066TIP3   OH221140   1.122   3.944   6.680
 7066TIP3    H121141   1.158   4.016   6.627
 7066TIP3    H221142   1.146   3.865   6.633
 7067TIP3   OH221143   1.026   7.381   4.839
 7067TIP3    H121144   1.074   7.298   4.839
 7067TIP3    H221145   1.072   7.435   4.903
 7068TIP3   OH221146   3.563   5.059   6.437
 7068TIP3    H121147   3.647   5.091   6.403
 7068TIP3    H221148   3.497   5.114   6.394
 7069TIP3   OH221149   7.238   6.255   6.743
 7069TIP3    H121150   7.310   6.220   6.693
 7069TIP3    H221151   7.276   6.275   6.829
 7070TIP3   OH221152   2.302   7.317   1.956
 7070TIP3    H121153   2.317   7.237   1.905
 7070TIP3    H221154   2.210   7.312   1.982
 7071TIP3   OH221155   0.094   4.545   0.623
 7071TIP3    H121156   0.150   4.554   0.699
 7071TIP3    H221157   0.007   4.572   0.653
 7072TIP3   OH221158   4.621   4.154   4.645
 7072TIP3    H121159   4.671   4.190   4.719
 7072TIP3    H221160   4.548   4.108   4.686
 7073TIP3   OH221161   2.172   7.328   0.679
 7073TIP3    H121162   2.246   7.369   0.633
 7073TIP3    H221163   2.114   7.401   0.700
 7074TIP3   OH221164   6.554   6.018   4.440
 7074TIP3    H121165   6.637   6.064   4.437
 7074TIP3    H221166   6.563   5.947   4.376
 7075TIP3   OH221167   3.447   7.702   6.201
 7075TIP3    H121168   3.426   7.637   6.134
 7075TIP3    H221169   3.369   7.757   6.206
 7076TIP3   OH221170   4.855   2.262   2.965
 7076TIP3    H121171   4.816   2.283   3.049
 7076TIP3    H221172   4.948   2.251   2.983
 7077TIP3   OH221173   2.501   4.241   1.565
 7077TIP3    H121174   2.519   4.161   1.516
 7077TIP3    H221175   2.508   4.215   1.657
 7078TIP3   OH221176   7.569   4.733   4.739
 7078TIP3    H121177   7.583   4.668   4.670
 7078TIP3    H221178   7.657   4.753   4.771
 7079TIP3   OH221179   7.508   7.515   4.574
 7079TIP3    H121180   7.552   7.467   4.644
 7079TIP3    H221181   7.527   7.465   4.495
 7080TIP3   OH221182   4.241   2.752   3.116
 7080TIP3    H121183   4.245   2.808   3.039
 7080TIP3    H221184   4.170   2.691   3.098
 7081TIP3   OH221185   2.884   1.774   2.736
 7081TIP3    H121186   2.903   1.868   2.733
 7081TIP3    H221187   2.934   1.737   2.663
 7082TIP3   OH221188   7.450   0.361   0.540
 7082TIP3    H121189   7.441   0.428   0.607
 7082TIP3    H221190   7.493   0.406   0.467
 7083TIP3   OH221191   2.324   2.361   4.810
 7083TIP3    H121192   2.385   2.383   4.740
 7083TIP3    H221193   2.375   2.307   4.870
 7084TIP3   OH221194   2.184   2.728   0.769
 7084TIP3    H121195   2.173   2.633   0.767
 7084TIP3    H221196   2.277   2.742   0.783
 7085TIP3   OH221197   0.017   4.696   4.542
 7085TIP3    H121198   0.091   4.637   4.530
 7085TIP3    H221199  -0.011   4.719   4.453
 7086TIP3   OH221200   5.579   6.353   3.438
 7086TIP3    H121201   5.551   6.373   3.527
 7086TIP3    H221202   5.673   6.370   3.438
 7087TIP3   OH221203   8.224   2.701   2.994
 7087TIP3    H121204   8.229   2.765   2.924
 7087TIP3    H221205   8.163   2.634   2.962
 7088TIP3   OH221206   0.326   7.436   0.432
 7088TIP3    H121207   0.413   7.437   0.392
 7088TIP3    H221208   0.314   7.346   0.462
 7089TIP3   OH221209   0.177   6.964   4.260
 7089TIP3    H121210   0.256   7.009   4.230
 7089TIP3    H221211   0.206   6.913   4.335
 7090TIP3   OH221212   2.610   3.718   6.564
 7090TIP3    H121213   2.526   3.692   6.525
 7090TIP3    H221214   2.612   3.675   6.649
 7091TIP3   OH221215   2.246   1.452   2.277
 7091TIP3    H121216   2.157   1.474   2.304
 7091TIP3    H221217   2.288   1.421   2.358
 7092TIP3   OH221218   7.694   1.923   2.784
 7092TIP3    H121219   7.697   1.937   2.689
 7092TIP3    H221220   7.608   1.957   2.810
 7093TIP3   OH221221   4.452   0.715   3.727
 7093TIP3    H121222   4.384   0.697   3.791
 7093TIP3    H221223   4.416   0.786   3.673
 7094TIP3   OH221224   1.151   6.232   6.434
 7094TIP3    H121225   1.124   6.314   6.393
 7094TIP3    H221226   1.213   6.194   6.372
 7095TIP3   OH221227   1.754   3.527   6.355
 7095TIP3    H121228   1.745   3.537   6.450
 7095TIP3    H221229   1.702   3.450   6.334
 7096TIP3   OH221230   2.124   1.339   2.706
 7096TIP3    H121231   2.036   1.328   2.742
 7096TIP3    H221232   2.124   1.287   2.626
 7097TIP3   OH221233   5.154   2.385   0.082
 7097TIP3    H121234   5.210   2.311   0.060
 7097TIP3    H221235   5.108   2.358   0.161
 7098TIP3   OH221236   5.697   1.011   4.876
 7098TIP3    H121237   5.645   0.968   4.944
 7098TIP3    H221238   5.701   0.947   4.805
 7099TIP3   OH221239   0.479   7.620   5.499
 7099TIP3    H121240   0.434   7.536   5.495
 7099TIP3    H221241   0.492   7.636   5.593
 7100TIP3   OH221242   6.062   7.495   1.396
 7100TIP3    H121243   6.056   7.531   1.307
 7100TIP3    H221244   6.122   7.553   1.442
 7101TIP3   OH221245   6.231   0.058   0.185
 7101TIP3    H121246   6.248   0.117   0.111
 7101TIP3    H221247   6.239   0.114   0.262
 7102TIP3   OH221248   8.134   2.872   2.006
 7102TIP3    H121249   8.183   2.947   1.974
 7102TIP3    H221250   8.194   2.798   1.998
 7103TIP3   OH221251   2.215   5.632   4.999
 7103TIP3    H121252   2.255   5.711   5.034
 7103TIP3    H221253   2.217   5.645   4.904
 7104TIP3   OH221254   4.246   7.152   6.663
 7104TIP3    H121255   4.153   7.160   6.682
 7104TIP3    H221256   4.286   7.132   6.748
 7105TIP3   OH221257   7.529   3.076   2.832
 7105TIP3    H121258   7.475   3.144   2.791
 7105TIP3    H221259   7.589   3.123   2.889
 7106TIP3   OH221260   6.563   2.204   5.338
 7106TIP3    H121261   6.640   2.176   5.289
 7106TIP3    H221262   6.548   2.295   5.309
 7107TIP3   OH221263   3.672   5.605   5.754
 7107TIP3    H121264   3.709   5.688   5.785
 7107TIP3    H221265   3.673   5.548   5.830
 7108TIP3   OH221266   0.734   4.313   2.704
 7108TIP3    H121267   0.660   4.272   2.748
 7108TIP3    H221268   0.782   4.240   2.665
 7109TIP3   OH221269   2.396   1.991   6.168
 7109TIP3    H121270   2.327   1.940   6.127
 7109TIP3    H221271   2.461   2.003   6.099
 7110TIP3   OH221272   7.049   1.109   1.316
 7110TIP3    H121273   7.071   1.080   1.227
 7110TIP3    H221274   6.965   1.153   1.306
 7111TIP3   OH221275   6.575   4.738   6.542
 7111TIP3    H121276   6.520   4.792   6.598
 7111TIP3    H221277   6.661   4.738   6.585
 7112TIP3   OH221278   3.951   2.102   3.529
 7112TIP3    H121279   3.872   2.139   3.489
 7112TIP3    H221280   3.932   2.102   3.623
 7113TIP3   OH221281   3.823   5.168   1.971
 7113TIP3    H121282   3.870   5.091   2.002
 7113TIP3    H221283   3.853   5.181   1.882
 7114TIP3   OH221284   2.904   0.232   2.162
 7114TIP3    H121285   2.940   0.240   2.074
 7114TIP3    H221286   2.967   0.279   2.218
 7115TIP3   OH221287   6.547   1.681   0.990
 7115TIP3    H121288   6.498   1.633   1.056
 7115TIP3    H221289   6.480   1.718   0.932
 7116TIP3   OH221290   1.337   6.273   6.766
 7116TIP3    H121291   1.355   6.367   6.765
 7116TIP3    H221292   1.414   6.234   6.808
 7117TIP3   OH221293   4.253   2.696   2.697
 7117TIP3    H121294   4.309   2.670   2.770
 7117TIP3    H221295   4.307   2.757   2.646
 7118TIP3   OH221296   6.919   0.956   3.508
 7118TIP3    H121297   6.982   0.901   3.462
 7118TIP3    H221298   6.856   0.895   3.546
 7119TIP3   OH221299   3.057   5.435   1.607
 7119TIP3    H121300   3.082   5.386   1.686
 7119TIP3    H221301   3.124   5.503   1.599
 7120TIP3   OH221302   1.162   6.042   3.534
 7120TIP3    H121303   1.202   5.960   3.504
 7120TIP3    H221304   1.072   6.037   3.504
 7121TIP3   OH221305   3.838   3.476   1.234
 7121TIP3    H121306   3.910   3.480   1.171
 7121TIP3    H221307   3.776   3.414   1.196
 7122TIP3   OH221308   3.101   0.218   0.454
 7122TIP3    H121309   3.042   0.238   0.526
 7122TIP3    H221310   3.144   0.301   0.435
 7123TIP3   OH221311   5.974   2.792   2.234
 7123TIP3    H121312   6.069   2.786   2.226
 7123TIP3    H221313   5.944   2.818   2.147
 7124TIP3   OH221314   5.737   1.519   2.761
 7124TIP3    H121315   5.755   1.592   2.703
 7124TIP3    H221316   5.719   1.559   2.846
 7125TIP3   OH221317   1.982   1.850   0.200
 7125TIP3    H121318   1.906   1.875   0.148
 7125TIP3    H221319   2.014   1.769   0.159
 7126TIP3   OH221320   2.484   7.225   4.795
 7126TIP3    H121321   2.416   7.224   4.862
 7126TIP3    H221322   2.504   7.133   4.778
 7127TIP3   OH221323   3.771   4.803   3.828
 7127TIP3    H121324   3.696   4.744   3.833
 7127TIP3    H221325   3.842   4.749   3.793
 7128TIP3   OH221326   4.741   5.326   4.756
 7128TIP3    H121327   4.818   5.383   4.751
 7128TIP3    H221328   4.711   5.318   4.665
 7129TIP3   OH221329   5.507   0.274   2.693
 7129TIP3    H121330   5.414   0.255   2.681
 7129TIP3    H221331   5.514   0.302   2.785
 7130TIP3   OH221332   6.815   4.691   1.494
 7130TIP3    H121333   6.890   4.714   1.441
 7130TIP3    H221334   6.770   4.774   1.511
 7131TIP3   OH221335   2.450   5.184   3.250
 7131TIP3    H121336   2.405   5.263   3.219
 7131TIP3    H221337   2.525   5.176   3.192
 7132TIP3   OH221338   4.676   3.501   0.529
 7132TIP3    H121339   4.677   3.502   0.434
 7132TIP3    H221340   4.697   3.591   0.555
 7133TIP3   OH221341   8.236   3.180   2.031
 7133TIP3    H121342   8.154   3.206   2.071
 7133TIP3    H221343   8.216   3.170   1.938
 7134TIP3   OH221344   6.437   1.477   3.004
 7134TIP3    H121345   6.474   1.553   3.049
 7134TIP3    H221346   6.342   1.485   3.018
 7135TIP3   OH221347   1.723   1.395   1.555
 7135TIP3    H121348   1.679   1.439   1.482
 7135TIP3    H221349   1.807   1.367   1.518
 7136TIP3   OH221350   7.938   3.695   5.020
 7136TIP3    H121351   8.012   3.663   5.072
 7136TIP3    H221352   7.872   3.721   5.085
 7137TIP3   OH221353   7.606   3.960   4.212
 7137TIP3    H121354   7.683   4.014   4.192
 7137TIP3    H221355   7.638   3.870   4.209
 7138TIP3   OH221356   7.749   4.189   5.758
 7138TIP3    H121357   7.784   4.159   5.674
 7138TIP3    H221358   7.734   4.283   5.745
 7139TIP3   OH221359   0.708   4.175   3.609
 7139TIP3    H121360   0.765   4.173   3.532
 7139TIP3    H221361   0.747   4.111   3.669
 7140TIP3   OH221362   5.823   5.290   3.372
 7140TIP3    H121363   5.857   5.201   3.377
 7140TIP3    H221364   5.840   5.317   3.282
 7141TIP3   OH221365   5.863   5.440   6.065
 7141TIP3    H121366   5.919   5.394   6.002
 7141TIP3    H221367   5.788   5.469   6.013
 7142TIP3   OH221368   4.320   4.169   1.548
 7142TIP3    H121369   4.252   4.125   1.599
 7142TIP3    H221370   4.381   4.203   1.613
 7143TIP3   OH221371   1.733   0.665   5.583
 7143TIP3    H121372   1.646   0.680   5.620
 7143TIP3    H221373   1.793   0.707   5.645
 7144TIP3   OH221374   2.403   4.704   4.303
 7144TIP3    H121375   2.460   4.750   4.365
 7144TIP3    H221376   2.450   4.623   4.283
 7145TIP3   OH221377   6.079   5.374   3.232
 7145TIP3    H121378   6.100   5.350   3.322
 7145TIP3    H221379   6.161   5.410   3.197
 7146TIP3   OH221380   1.967   6.700   1.270
 7146TIP3    H121381   1.916   6.654   1.204
 7146TIP3    H221382   1.969   6.791   1.239
 7147TIP3   OH221383   1.364   2.975   4.143
 7147TIP3    H121384   1.400   2.983   4.055
 7147TIP3    H221385   1.337   3.064   4.166
 7148TIP3   OH221386   0.913   0.648   2.341
 7148TIP3    H121387   0.923   0.723   2.401
 7148TIP3    H221388   0.837   0.671   2.288
 7149TIP3   OH221389   6.677   2.604   3.300
 7149TIP3    H121390   6.610   2.537   3.314
 7149TIP3    H221391   6.645   2.680   3.349
 7150TIP3   OH221392   2.502   0.990   5.602
 7150TIP3    H121393   2.485   0.917   5.662
 7150TIP3    H221394   2.595   0.982   5.581
 7151TIP3   OH221395   2.597   5.469   0.337
 7151TIP3    H121396   2.656   5.542   0.321
 7151TIP3    H221397   2.510   5.503   0.316
 7152TIP3   OH221398   5.048   5.896   2.153
 7152TIP3    H121399   5.067   5.933   2.067
 7152TIP3    H221400   5.059   5.802   2.142
 7153TIP3   OH221401   6.603   6.576   5.168
 7153TIP3    H121402   6.649   6.494   5.150
 7153TIP3    H221403   6.566   6.603   5.084
 7154TIP3   OH221404   7.845   5.338   4.426
 7154TIP3    H121405   7.790   5.347   4.349
 7154TIP3    H221406   7.814   5.258   4.469
 7155TIP3   OH221407   3.373   6.310   2.500
 7155TIP3    H121408   3.368   6.381   2.565
 7155TIP3    H221409   3.455   6.326   2.454
 7156TIP3   OH221410   0.490   7.753   2.741
 7156TIP3    H121411   0.406   7.742   2.697
 7156TIP3    H221412   0.468   7.762   2.833
 7157TIP3   OH221413   1.324   6.228   1.682
 7157TIP3    H121414   1.363   6.146   1.712
 7157TIP3    H221415   1.282   6.205   1.599
 7158TIP3   OH221416   4.779   2.227   5.382
 7158TIP3    H121417   4.763   2.145   5.429
 7158TIP3    H221418   4.870   2.249   5.404
 7159TIP3   OH221419   5.476   5.026   3.032
 7159TIP3    H121420   5.425   5.105   3.014
 7159TIP3    H221421   5.518   5.044   3.116
 7160TIP3   OH221422   1.790   2.198   5.025
 7160TIP3    H121423   1.701   2.195   5.059
 7160TIP3    H221424   1.808   2.109   4.995
 7161TIP3   OH221425   6.027   2.252   5.242
 7161TIP3    H121426   5.966   2.315   5.202
 7161TIP3    H221427   6.092   2.307   5.287
 7162TIP3   OH221428   1.130   1.384   5.139
 7162TIP3    H121429   1.109   1.443   5.211
 7162TIP3    H221430   1.193   1.432   5.085
 7163TIP3   OH221431   1.462   1.117   1.673
 7163TIP3    H121432   1.463   1.051   1.603
 7163TIP3    H221433   1.398   1.084   1.735
 7164TIP3   OH221434   6.673   1.678   3.500
 7164TIP3    H121435   6.617   1.695   3.577
 7164TIP3    H221436   6.632   1.729   3.430
 7165TIP3   OH221437   1.975   2.083   3.361
 7165TIP3    H121438   2.010   2.026   3.429
 7165TIP3    H221439   1.907   2.134   3.406
 7166TIP3   OH221440   5.365   1.208   0.111
 7166TIP3    H121441   5.406   1.155   0.179
 7166TIP3    H221442   5.288   1.246   0.153
 7167TIP3   OH221443   6.814   5.439   2.711
 7167TIP3    H121444   6.754   5.510   2.734
 7167TIP3    H221445   6.876   5.479   2.649
 7168TIP3   OH221446   2.517   6.459   1.698
 7168TIP3    H121447   2.609   6.458   1.672
 7168TIP3    H221448   2.511   6.394   1.769
 7169TIP3   OH221449   1.756   1.624   0.126
 7169TIP3    H121450   1.706   1.680   0.185
 7169TIP3    H221451   1.786   1.552   0.181
 7170TIP3   OH221452   1.860   5.201   6.540
 7170TIP3    H121453   1.862   5.284   6.587
 7170TIP3    H221454   1.944   5.160   6.561
 7171TIP3   OH221455   1.512   3.073   2.030
 7171TIP3    H121456   1.598   3.033   2.042
 7171TIP3    H221457   1.502   3.081   1.935
 7172TIP3   OH221458   6.666   0.100   4.734
 7172TIP3    H121459   6.688   0.046   4.658
 7172TIP3    H221460   6.700   0.187   4.713
 7173TIP3   OH221461   4.410   5.334   1.219
 7173TIP3    H121462   4.403   5.407   1.280
 7173TIP3    H221463   4.321   5.299   1.212
 7174TIP3   OH221464   2.975   0.867   2.239
 7174TIP3    H121465   2.984   0.850   2.146
 7174TIP3    H221466   2.975   0.963   2.246
 7175TIP3   OH221467   6.684   0.062   1.371
 7175TIP3    H121468   6.695  -0.006   1.305
 7175TIP3    H221469   6.772   0.076   1.406
 7176TIP3   OH221470   1.927   3.014   0.087
 7176TIP3    H121471   1.947   3.092   0.138
 7176TIP3    H221472   1.886   2.954   0.150
 7177TIP3   OH221473   7.165   2.918   5.431
 7177TIP3    H121474   7.219   2.883   5.501
 7177TIP3    H221475   7.099   2.971   5.476
 7178TIP3   OH221476   7.649   3.188   5.770
 7178TIP3    H121477   7.587   3.243   5.722
 7178TIP3    H221478   7.622   3.197   5.862
 7179TIP3   OH221479   3.938   3.483   1.695
 7179TIP3    H121480   3.900   3.549   1.754
 7179TIP3    H221481   3.973   3.534   1.622
 7180TIP3   OH221482   7.271   2.444   5.488
 7180TIP3    H121483   7.363   2.468   5.477
 7180TIP3    H221484   7.223   2.509   5.437
 7181TIP3   OH221485   7.341   7.748   4.609
 7181TIP3    H121486   7.334   7.721   4.700
 7181TIP3    H221487   7.354   7.666   4.561
 7182TIP3   OH221488   6.778   0.068   6.063
 7182TIP3    H121489   6.732   0.065   6.147
 7182TIP3    H221490   6.786  -0.024   6.037
 7183TIP3   OH221491   6.958   1.766   3.327
 7183TIP3    H121492   6.942   1.672   3.323
 7183TIP3    H221493   7.044   1.778   3.286
 7184TIP3   OH221494   0.714   6.215   5.666
 7184TIP3    H121495   0.739   6.167   5.587
 7184TIP3    H221496   0.772   6.181   5.734
 7185TIP3   OH221497   1.385   1.825   3.315
 7185TIP3    H121498   1.401   1.809   3.222
 7185TIP3    H221499   1.471   1.825   3.355
 7186TIP3   OH221500   7.091   2.115   4.009
 7186TIP3    H121501   7.113   2.196   4.055
 7186TIP3    H221502   7.108   2.134   3.917
 7187TIP3   OH221503   1.205   7.394   5.676
 7187TIP3    H121504   1.148   7.375   5.601
 7187TIP3    H221505   1.163   7.468   5.720
 7188TIP3   OH221506   4.665   3.194   2.988
 7188TIP3    H121507   4.672   3.267   2.926
 7188TIP3    H221508   4.725   3.218   3.059
 7189TIP3   OH221509   6.070   4.011   5.621
 7189TIP3    H121510   6.158   4.046   5.625
 7189TIP3    H221511   6.048   3.991   5.712
 7190TIP3   OH221512   4.494   1.269   4.318
 7190TIP3    H121513   4.462   1.227   4.238
 7190TIP3    H221514   4.575   1.222   4.339
 7191TIP3   OH221515   3.702   5.693   1.382
 7191TIP3    H121516   3.647   5.738   1.318
 7191TIP3    H221517   3.707   5.603   1.350
 7192TIP3   OH221518   0.401   1.730   4.681
 7192TIP3    H121519   0.359   1.736   4.767
 7192TIP3    H221520   0.457   1.652   4.687
 7193TIP3   OH221521   2.872   2.974   2.915
 7193TIP3    H121522   2.870   2.932   3.001
 7193TIP3    H221523   2.835   3.061   2.930
 7194TIP3   OH221524   5.468   7.467  -0.015
 7194TIP3    H121525   5.438   7.378   0.005
 7194TIP3    H221526   5.562   7.458  -0.030
 7195TIP3   OH221527   3.536   2.919   0.921
 7195TIP3    H121528   3.452   2.951   0.888
 7195TIP3    H221529   3.600   2.952   0.859
 7196TIP3   OH221530   5.302   6.682   1.303
 7196TIP3    H121531   5.217   6.639   1.311
 7196TIP3    H221532   5.362   6.626   1.352
 7197TIP3   OH221533   3.745   0.173   6.215
 7197TIP3    H121534   3.662   0.145   6.254
 7197TIP3    H221535   3.773   0.097   6.163
 7198TIP3   OH221536   1.928   1.143   3.088
 7198TIP3    H121537   2.004   1.180   3.043
 7198TIP3    H221538   1.894   1.078   3.028
 7199TIP3   OH221539   4.761   5.768   1.674
 7199TIP3    H121540   4.822   5.768   1.747
 7199TIP3    H221541   4.675   5.780   1.715
 7200TIP3   OH221542   5.936   5.436   1.563
 7200TIP3    H121543   5.847   5.453   1.594
 7200TIP3    H221544   5.927   5.360   1.507
 7201TIP3   OH221545   4.482   0.111   2.039
 7201TIP3    H121546   4.404   0.061   2.017
 7201TIP3    H221547   4.453   0.202   2.038
 7202TIP3   OH221548   0.385   0.736   2.149
 7202TIP3    H121549   0.366   0.796   2.221
 7202TIP3    H221550   0.374   0.788   2.070
 7203TIP3   OH221551   3.172   1.735   4.065
 7203TIP3    H121552   3.204   1.697   3.983
 7203TIP3    H221553   3.180   1.664   4.129
 7204TIP3   OH221554   1.774   5.279   2.257
 7204TIP3    H121555   1.725   5.277   2.175
 7204TIP3    H221556   1.714   5.320   2.320
 7205TIP3   OH221557   1.567   6.462   2.256
 7205TIP3    H121558   1.472   6.465   2.244
 7205TIP3    H221559   1.583   6.513   2.336
 7206TIP3   OH221560   1.248   5.418   2.613
 7206TIP3    H121561   1.247   5.513   2.625
 7206TIP3    H221562   1.264   5.407   2.519
 7207TIP3   OH221563   0.224   7.711   1.487
 7207TIP3    H121564   0.187   7.652   1.553
 7207TIP3    H221565   0.149   7.736   1.433
 7208TIP3   OH221566   0.276   4.954   3.842
 7208TIP3    H121567   0.327   4.926   3.918
 7208TIP3    H221568   0.214   5.019   3.877
 7209TIP3   OH221569   0.429   1.048   0.260
 7209TIP3    H121570   0.434   1.141   0.237
 7209TIP3    H221571   0.402   1.004   0.180
 7210TIP3   OH221572   5.231   0.614   3.258
 7210TIP3    H121573   5.228   0.667   3.338
 7210TIP3    H221574   5.143   0.622   3.221
 7211TIP3   OH221575   3.796   1.385   3.990
 7211TIP3    H121576   3.829   1.355   3.905
 7211TIP3    H221577   3.874   1.393   4.045
 7212TIP3   OH221578   4.578   6.429   1.113
 7212TIP3    H121579   4.596   6.403   1.203
 7212TIP3    H221580   4.534   6.353   1.075
 7213TIP3   OH221581   2.597   2.506   6.417
 7213TIP3    H121582   2.658   2.433   6.426
 7213TIP3    H221583   2.615   2.562   6.492
 7214TIP3   OH221584   7.382   2.289   6.215
 7214TIP3    H121585   7.340   2.277   6.300
 7214TIP3    H221586   7.351   2.217   6.161
 7215TIP3   OH221587   0.844   4.536   3.646
 7215TIP3    H121588   0.900   4.612   3.631
 7215TIP3    H221589   0.779   4.567   3.710
 7216TIP3   OH221590   4.653   0.921   4.318
 7216TIP3    H121591   4.603   0.947   4.395
 7216TIP3    H221592   4.590   0.876   4.262
 7217TIP3   OH221593   2.028   2.516   0.349
 7217TIP3    H121594   2.070   2.434   0.375
 7217TIP3    H221595   2.006   2.504   0.257
 7218TIP3   OH221596   0.061   5.851   1.068
 7218TIP3    H121597   0.021   5.883   1.149
 7218TIP3    H221598   0.154   5.872   1.078
 7219TIP3   OH221599   4.339   7.474   5.740
 7219TIP3    H121600   4.426   7.512   5.755
 7219TIP3    H221601   4.323   7.489   5.647
 7220TIP3   OH221602   2.644   5.730   6.108
 7220TIP3    H121603   2.739   5.729   6.095
 7220TIP3    H221604   2.632   5.776   6.191
 7221TIP3   OH221605   5.873   5.442   2.011
 7221TIP3    H121606   5.781   5.465   2.026
 7221TIP3    H221607   5.888   5.366   2.068
 7222TIP3   OH221608   1.329   2.652   5.311
 7222TIP3    H121609   1.310   2.746   5.317
 7222TIP3    H221610   1.309   2.630   5.221
 7223TIP3   OH221611   6.168   7.168   2.246
 7223TIP3    H121612   6.105   7.236   2.269
 7223TIP3    H221613   6.174   7.173   2.151
 7224TIP3   OH221614   3.826   0.166   4.136
 7224TIP3    H121615   3.751   0.115   4.166
 7224TIP3    H221616   3.786   0.244   4.096
 7225TIP3   OH221617   2.403   1.587   0.672
 7225TIP3    H121618   2.441   1.669   0.704
 7225TIP3    H221619   2.370   1.544   0.750
 7226TIP3   OH221620   1.255   6.616   3.858
 7226TIP3    H121621   1.300   6.540   3.822
 7226TIP3    H221622   1.167   6.585   3.878
 7227TIP3   OH221623   2.223   5.260   5.755
 7227TIP3    H121624   2.184   5.326   5.812
 7227TIP3    H221625   2.299   5.303   5.717
 7228TIP3   OH221626   5.051   6.855   6.033
 7228TIP3    H121627   5.051   6.848   5.938
 7228TIP3    H221628   5.060   6.949   6.051
 7229TIP3   OH221629   5.630   6.288   5.799
 7229TIP3    H121630   5.588   6.202   5.792
 7229TIP3    H221631   5.724   6.269   5.792
 7230TIP3   OH221632   2.862   2.794   3.126
 7230TIP3    H121633   2.922   2.798   3.201
 7230TIP3    H221634   2.776   2.779   3.166
 7231TIP3   OH221635   6.849   1.149   4.610
 7231TIP3    H121636   6.767   1.104   4.631
 7231TIP3    H221637   6.881   1.183   4.694
 7232TIP3   OH221638   5.357   6.426   4.137
 7232TIP3    H121639   5.284   6.388   4.186
 7232TIP3    H221640   5.422   6.355   4.133
 7233TIP3   OH221641   7.492   4.105   2.691
 7233TIP3    H121642   7.455   4.035   2.745
 7233TIP3    H221643   7.448   4.184   2.721
 7234TIP3   OH221644   3.488   0.874   0.540
 7234TIP3    H121645   3.571   0.866   0.587
 7234TIP3    H221646   3.448   0.953   0.575
 7235TIP3   OH221647   8.353   2.677   3.613
 7235TIP3    H121648   8.305   2.601   3.646
 7235TIP3    H221649   8.288   2.747   3.612
 7236TIP3   OH221650   5.716   5.999   2.932
 7236TIP3    H121651   5.773   6.037   2.999
 7236TIP3    H221652   5.635   6.050   2.937
 7237TIP3   OH221653   5.264   6.192   3.307
 7237TIP3    H121654   5.340   6.196   3.248
 7237TIP3    H221655   5.191   6.224   3.255
 7238TIP3   OH221656   0.175   6.874   0.111
 7238TIP3    H121657   0.222   6.850   0.191
 7238TIP3    H221658   0.130   6.955   0.132
 7239TIP3   OH221659   0.412   2.405   1.281
 7239TIP3    H121660   0.465   2.484   1.291
 7239TIP3    H221661   0.450   2.360   1.206
 7240TIP3   OH221662   6.050   3.673   3.888
 7240TIP3    H121663   5.970   3.620   3.891
 7240TIP3    H221664   6.081   3.664   3.798
 7241TIP3   OH221665   0.402   0.869   2.438
 7241TIP3    H121666   0.340   0.914   2.495
 7241TIP3    H221667   0.425   0.789   2.485
 7242TIP3   OH221668   7.284   5.107   0.017
 7242TIP3    H121669   7.220   5.041   0.043
 7242TIP3    H221670   7.367   5.073   0.048
 7243TIP3   OH221671   0.234   1.728   5.083
 7243TIP3    H121672   0.167   1.660   5.080
 7243TIP3    H221673   0.184   1.810   5.090
 7244TIP3   OH221674   4.041   0.115   3.350
 7244TIP3    H121675   3.961   0.098   3.399
 7244TIP3    H221676   4.111   0.079   3.404
 7245TIP3   OH221677   5.211   5.785   4.908
 7245TIP3    H121678   5.136   5.755   4.959
 7245TIP3    H221679   5.244   5.861   4.955
 7246TIP3   OH221680   1.107   0.707   5.467
 7246TIP3    H121681   1.035   0.649   5.491
 7246TIP3    H221682   1.175   0.650   5.432
 7247TIP3   OH221683   0.553   4.620   5.731
 7247TIP3    H121684   0.619   4.614   5.662
 7247TIP3    H221685   0.524   4.711   5.729
 7248TIP3   OH221686   2.648   5.887   4.844
 7248TIP3    H121687   2.652   5.972   4.800
 7248TIP3    H221688   2.586   5.836   4.792
 7249TIP3   OH221689   3.552   2.841   4.081
 7249TIP3    H121690   3.538   2.789   4.160
 7249TIP3    H221691   3.536   2.931   4.108
 7250TIP3   OH221692   5.111   4.970   1.467
 7250TIP3    H121693   5.127   4.885   1.426
 7250TIP3    H221694   5.145   5.034   1.404
 7251TIP3   OH221695   1.953   6.521   3.433
 7251TIP3    H121696   1.906   6.465   3.494
 7251TIP3    H221697   1.988   6.592   3.486
 7252TIP3   OH221698   0.686   7.492   4.571
 7252TIP3    H121699   0.673   7.442   4.652
 7252TIP3    H221700   0.729   7.430   4.512
 7253TIP3   OH221701   0.428   7.692   1.191
 7253TIP3    H121702   0.348   7.740   1.212
 7253TIP3    H221703   0.452   7.650   1.274
 7254TIP3   OH221704   7.611   1.699   4.061
 7254TIP3    H121705   7.684   1.677   4.003
 7254TIP3    H221706   7.619   1.793   4.075
 7255TIP3   OH221707   3.322   2.299   5.140
 7255TIP3    H121708   3.319   2.315   5.046
 7255TIP3    H221709   3.243   2.249   5.158
 7256TIP3   OH221710   5.193   3.572   3.346
 7256TIP3    H121711   5.235   3.486   3.345
 7256TIP3    H221712   5.175   3.590   3.438
 7257TIP3   OH221713   6.466   7.254   6.696
 7257TIP3    H121714   6.503   7.189   6.756
 7257TIP3    H221715   6.424   7.203   6.627
 7258TIP3   OH221716   5.543   5.500   5.270
 7258TIP3    H121717   5.528   5.564   5.200
 7258TIP3    H221718   5.596   5.547   5.334
 7259TIP3   OH221719   5.394   1.238   4.236
 7259TIP3    H121720   5.340   1.159   4.232
 7259TIP3    H221721   5.443   1.230   4.317
 7260TIP3   OH221722   3.108   6.834   5.209
 7260TIP3    H121723   3.126   6.842   5.115
 7260TIP3    H221724   3.130   6.919   5.246
 7261TIP3   OH221725   5.178   2.819   3.306
 7261TIP3    H121726   5.119   2.828   3.231
 7261TIP3    H221727   5.185   2.725   3.321
 7262TIP3   OH221728   2.461   3.822   2.918
 7262TIP3    H121729   2.480   3.899   2.972
 7262TIP3    H221730   2.412   3.857   2.843
 7263TIP3   OH221731   5.206   5.397   3.408
 7263TIP3    H121732   5.217   5.428   3.498
 7263TIP3    H221733   5.215   5.475   3.354
 7264TIP3   OH221734   3.831   3.778   2.869
 7264TIP3    H121735   3.757   3.793   2.811
 7264TIP3    H221736   3.803   3.706   2.926
 7265TIP3   OH221737   0.727   5.627   3.219
 7265TIP3    H121738   0.821   5.629   3.202
 7265TIP3    H221739   0.706   5.534   3.224
 7266TIP3   OH221740   1.264   2.209   4.912
 7266TIP3    H121741   1.300   2.220   5.000
 7266TIP3    H221742   1.174   2.240   4.918
 7267TIP3   OH221743   6.350   2.940   2.047
 7267TIP3    H121744   6.341   3.033   2.065
 7267TIP3    H221745   6.335   2.932   1.953
 7268TIP3   OH221746   4.300   6.465   2.587
 7268TIP3    H121747   4.243   6.527   2.631
 7268TIP3    H221748   4.276   6.471   2.494
 7269TIP3   OH221749   5.161   7.703   3.731
 7269TIP3    H121750   5.165   7.711   3.827
 7269TIP3    H221751   5.174   7.610   3.714
 7270TIP3   OH221752   8.073   0.685   4.961
 7270TIP3    H121753   8.143   0.623   4.983
 7270TIP3    H221754   8.025   0.698   5.042
 7271TIP3   OH221755   6.284   7.406   2.359
 7271TIP3    H121756   6.275   7.311   2.370
 7271TIP3    H221757   6.309   7.438   2.446
 7272TIP3   OH221758   4.455   5.258   0.054
 7272TIP3    H121759   4.534   5.225   0.012
 7272TIP3    H221760   4.444   5.202   0.131
 7273TIP3   OH221761   7.556   5.539   0.274
 7273TIP3    H121762   7.542   5.528   0.180
 7273TIP3    H221763   7.496   5.609   0.298
 7274TIP3   OH221764   3.846   3.397   6.087
 7274TIP3    H121765   3.870   3.315   6.044
 7274TIP3    H221766   3.750   3.394   6.093
 7275TIP3   OH221767   3.566   0.007   2.289
 7275TIP3    H121768   3.622   0.082   2.306
 7275TIP3    H221769   3.496   0.015   2.354
 7276TIP3   OH221770   3.824   2.749   3.969
 7276TIP3    H121771   3.866   2.670   4.003
 7276TIP3    H221772   3.744   2.758   4.021
 7277TIP3   OH221773   1.438   4.622   6.124
 7277TIP3    H121774   1.457   4.540   6.078
 7277TIP3    H221775   1.463   4.691   6.062
 7278TIP3   OH221776   1.132   1.151   2.502
 7278TIP3    H121777   1.200   1.189   2.558
 7278TIP3    H221778   1.116   1.217   2.436
 7279TIP3   OH221779   6.333   5.777   6.337
 7279TIP3    H121780   6.422   5.795   6.305
 7279TIP3    H221781   6.277   5.826   6.277
 7280TIP3   OH221782   6.288   1.786   6.051
 7280TIP3    H121783   6.365   1.817   6.099
 7280TIP3    H221784   6.321   1.714   5.997
 7281TIP3   OH221785   3.723   5.932   6.423
 7281TIP3    H121786   3.708   6.006   6.364
 7281TIP3    H221787   3.795   5.959   6.479
 7282TIP3   OH221788   1.145   2.610   4.819
 7282TIP3    H121789   1.140   2.706   4.818
 7282TIP3    H221790   1.232   2.591   4.852
 7283TIP3   OH221791   8.022   1.514   2.061
 7283TIP3    H121792   8.047   1.438   2.114
 7283TIP3    H221793   8.079   1.584   2.092
 7284TIP3   OH221794   2.290   5.019   5.871
 7284TIP3    H121795   2.266   5.087   5.808
 7284TIP3    H221796   2.269   5.057   5.956
 7285TIP3   OH221797   5.718   3.876   3.431
 7285TIP3    H121798   5.774   3.827   3.372
 7285TIP3    H221799   5.629   3.863   3.396
 7286TIP3   OH221800   6.358   2.287   5.479
 7286TIP3    H121801   6.443   2.248   5.460
 7286TIP3    H221802   6.305   2.214   5.512
 7287TIP3   OH221803   4.551   6.439   6.165
 7287TIP3    H121804   4.596   6.355   6.174
 7287TIP3    H221805   4.619   6.505   6.181
 7288TIP3   OH221806   4.923   6.645   2.468
 7288TIP3    H121807   5.002   6.694   2.492
 7288TIP3    H221808   4.903   6.674   2.379
 7289TIP3   OH221809   6.281   5.668   2.088
 7289TIP3    H121810   6.313   5.756   2.070
 7289TIP3    H221811   6.359   5.618   2.111
 7290TIP3   OH221812   0.624   4.586   0.153
 7290TIP3    H121813   0.708   4.544   0.136
 7290TIP3    H221814   0.566   4.550   0.086
 7291TIP3   OH221815   7.592   6.099   3.183
 7291TIP3    H121816   7.588   6.008   3.154
 7291TIP3    H221817   7.636   6.096   3.268
 7292TIP3   OH221818   8.230   5.273   3.515
 7292TIP3    H121819   8.323   5.296   3.515
 7292TIP3    H221820   8.229   5.179   3.498
 7293TIP3   OH221821   5.902   3.244   3.913
 7293TIP3    H121822   5.942   3.174   3.860
 7293TIP3    H221823   5.823   3.269   3.865
 7294TIP3   OH221824   4.176   6.688   1.261
 7294TIP3    H121825   4.137   6.631   1.327
 7294TIP3    H221826   4.270   6.673   1.269
 7295TIP3   OH221827   5.324   0.534   6.180
 7295TIP3    H121828   5.229   0.535   6.174
 7295TIP3    H221829   5.354   0.545   6.089
 7296TIP3   OH221830   6.986   2.876   5.831
 7296TIP3    H121831   6.901   2.881   5.876
 7296TIP3    H221832   7.041   2.940   5.876
 7297TIP3   OH221833   6.377   5.556   6.672
 7297TIP3    H121834   6.327   5.474   6.667
 7297TIP3    H221835   6.468   5.529   6.657
 7298TIP3   OH221836   6.571   6.453   2.766
 7298TIP3    H121837   6.615   6.402   2.698
 7298TIP3    H221838   6.479   6.452   2.740
 7299TIP3   OH221839   0.515   4.666   3.433
 7299TIP3    H121840   0.454   4.651   3.506
 7299TIP3    H221841   0.544   4.578   3.407
 7300TIP3   OH221842   5.411   2.509   5.343
 7300TIP3    H121843   5.348   2.555   5.287
 7300TIP3    H221844   5.495   2.551   5.324
 7301TIP3   OH221845   0.680   1.948   4.035
 7301TIP3    H121846   0.654   1.859   4.061
 7301TIP3    H221847   0.606   2.003   4.061
 7302TIP3   OH221848   2.200   5.603   1.427
 7302TIP3    H121849   2.233   5.514   1.439
 7302TIP3    H221850   2.279   5.658   1.428
 7303TIP3   OH221851   6.421   5.328   6.114
 7303TIP3    H121852   6.380   5.245   6.140
 7303TIP3    H221853   6.408   5.385   6.190
 7304TIP3   OH221854   7.443   3.615   4.088
 7304TIP3    H121855   7.455   3.639   4.180
 7304TIP3    H221856   7.365   3.561   4.087
 7305TIP3   OH221857   7.095   0.281   0.208
 7305TIP3    H121858   7.069   0.367   0.175
 7305TIP3    H221859   7.082   0.286   0.302
 7306TIP3   OH221860   5.872   2.747   4.426
 7306TIP3    H121861   5.934   2.679   4.400
 7306TIP3    H221862   5.926   2.825   4.440
 7307TIP3   OH221863   6.733   6.255   1.821
 7307TIP3    H121864   6.717   6.173   1.868
 7307TIP3    H221865   6.737   6.229   1.729
 7308TIP3   OH221866   0.540   4.091   1.197
 7308TIP3    H121867   0.457   4.131   1.173
 7308TIP3    H221868   0.547   4.103   1.292
 7309TIP3   OH221869   3.630   4.923   6.131
 7309TIP3    H121870   3.575   4.856   6.172
 7309TIP3    H221871   3.717   4.906   6.166
 7310TIP3   OH221872   2.220   4.078   5.783
 7310TIP3    H121873   2.147   4.084   5.844
 7310TIP3    H221874   2.188   4.119   5.703
 7311TIP3   OH221875   3.823   4.246   0.455
 7311TIP3    H121876   3.890   4.234   0.522
 7311TIP3    H221877   3.871   4.248   0.373
 7312TIP3   OH221878   4.048   0.096   5.489
 7312TIP3    H121879   3.977   0.048   5.447
 7312TIP3    H221880   4.009   0.181   5.512
 7313TIP3   OH221881   8.248   1.126   2.047
 7313TIP3    H121882   8.218   1.176   1.970
 7313TIP3    H221883   8.195   1.159   2.119
 7314TIP3   OH221884   5.824   2.594   2.353
 7314TIP3    H121885   5.879   2.671   2.338
 7314TIP3    H221886   5.789   2.573   2.266
 7315TIP3   OH221887   7.223   5.728   4.614
 7315TIP3    H121888   7.219   5.784   4.537
 7315TIP3    H221889   7.311   5.742   4.650
 7316TIP3   OH221890   7.427   1.738   2.147
 7316TIP3    H121891   7.334   1.720   2.159
 7316TIP3    H221892   7.445   1.811   2.206
 7317TIP3   OH221893   1.128   7.557   2.395
 7317TIP3    H121894   1.070   7.549   2.318
 7317TIP3    H221895   1.069   7.547   2.470
 7318TIP3   OH221896   3.265   2.551   2.034
 7318TIP3    H121897   3.191   2.513   2.081
 7318TIP3    H221898   3.227   2.623   1.984
 7319TIP3   OH221899   3.425   0.111   5.441
 7319TIP3    H121900   3.372   0.166   5.383
 7319TIP3    H221901   3.428   0.026   5.396
 7320TIP3   OH221902   8.093   3.221   4.683
 7320TIP3    H121903   8.023   3.268   4.638
 7320TIP3    H221904   8.172   3.270   4.663
 7321TIP3   OH221905   0.009   6.478   3.847
 7321TIP3    H121906  -0.032   6.392   3.845
 7321TIP3    H221907  -0.064   6.539   3.857
 7322TIP3   OH221908   6.558   5.511   5.763
 7322TIP3    H121909   6.629   5.508   5.698
 7322TIP3    H221910   6.595   5.562   5.836
 7323TIP3   OH221911   7.746   3.073   3.247
 7323TIP3    H121912   7.811   3.114   3.189
 7323TIP3    H221913   7.663   3.115   3.223
 7324TIP3   OH221914   8.016   4.448   2.694
 7324TIP3    H121915   8.025   4.357   2.719
 7324TIP3    H221916   8.093   4.466   2.640
 7325TIP3   OH221917   0.351   6.303   6.173
 7325TIP3    H121918   0.442   6.288   6.145
 7325TIP3    H221919   0.307   6.220   6.157
 7326TIP3   OH221920   4.436   6.739   5.901
 7326TIP3    H121921   4.432   6.832   5.879
 7326TIP3    H221922   4.359   6.725   5.956
 7327TIP3   OH221923   8.149   4.182   5.753
 7327TIP3    H121924   8.150   4.117   5.683
 7327TIP3    H221925   8.105   4.258   5.715
 7328TIP3   OH221926   5.428   0.003   6.272
 7328TIP3    H121927   5.355   0.064   6.259
 7328TIP3    H221928   5.475   0.039   6.348
 7329TIP3   OH221929   8.082   4.118   0.020
 7329TIP3    H121930   8.177   4.107   0.014
 7329TIP3    H221931   8.068   4.211   0.003
 7330TIP3   OH221932   4.093   3.864   0.048
 7330TIP3    H121933   4.111   3.869  -0.046
 7330TIP3    H221934   4.071   3.772   0.063
 7331TIP3   OH221935   0.998   3.410   1.122
 7331TIP3    H121936   0.951   3.493   1.121
 7331TIP3    H221937   1.084   3.431   1.158
 7332TIP3   OH221938   1.917   6.473   4.209
 7332TIP3    H121939   1.990   6.530   4.186
 7332TIP3    H221940   1.871   6.519   4.279
 7333TIP3   OH221941   5.220   4.159   0.108
 7333TIP3    H121942   5.215   4.131   0.199
 7333TIP3    H221943   5.268   4.089   0.064
 7334TIP3   OH221944   4.826   6.769   3.821
 7334TIP3    H121945   4.809   6.836   3.754
 7334TIP3    H221946   4.797   6.687   3.781
 7335TIP3   OH221947   7.795   0.828   0.181
 7335TIP3    H121948   7.705   0.797   0.189
 7335TIP3    H221949   7.790   0.920   0.206
 7336TIP3   OH221950   0.613   2.420   5.529
 7336TIP3    H121951   0.603   2.405   5.623
 7336TIP3    H221952   0.565   2.348   5.488
 7337TIP3   OH221953   0.857   4.116   2.550
 7337TIP3    H121954   0.782   4.077   2.506
 7337TIP3    H221955   0.929   4.105   2.488
 7338TIP3   OH221956   3.763   3.376   3.543
 7338TIP3    H121957   3.820   3.407   3.473
 7338TIP3    H221958   3.719   3.299   3.506
 7339TIP3   OH221959   1.174   0.499   2.992
 7339TIP3    H121960   1.264   0.479   3.017
 7339TIP3    H221961   1.173   0.594   2.978
 7340TIP3   OH221962   4.442   0.947   0.987
 7340TIP3    H121963   4.461   0.861   1.025
 7340TIP3    H221964   4.368   0.931   0.928
 7341TIP3   OH221965   5.270   4.111   1.806
 7341TIP3    H121966   5.264   4.204   1.828
 7341TIP3    H221967   5.275   4.066   1.890
 7342TIP3   OH221968   1.941   3.104   3.672
 7342TIP3    H121969   1.976   3.017   3.654
 7342TIP3    H221970   2.002   3.164   3.629
 7343TIP3   OH221971   2.165   4.894   4.190
 7343TIP3    H121972   2.205   4.979   4.171
 7343TIP3    H221973   2.234   4.844   4.232
 7344TIP3   OH221974   2.869   0.149   0.632
 7344TIP3    H121975   2.790   0.172   0.680
 7344TIP3    H221976   2.837   0.114   0.548
 7345TIP3   OH221977   5.648   4.310   1.228
 7345TIP3    H121978   5.712   4.362   1.276
 7345TIP3    H221979   5.618   4.245   1.292
 7346TIP3   OH221980   2.192   7.577   4.649
 7346TIP3    H121981   2.207   7.483   4.642
 7346TIP3    H221982   2.149   7.600   4.566
 7347TIP3   OH221983   0.784   7.032   5.247
 7347TIP3    H121984   0.810   7.003   5.159
 7347TIP3    H221985   0.825   6.969   5.306
 7348TIP3   OH221986   0.284   2.147   2.762
 7348TIP3    H121987   0.357   2.198   2.727
 7348TIP3    H221988   0.232   2.126   2.685
 7349TIP3   OH221989   2.814   6.934   5.489
 7349TIP3    H121990   2.746   6.976   5.543
 7349TIP3    H221991   2.783   6.947   5.399
 7350TIP3   OH221992   7.455   1.288   5.508
 7350TIP3    H121993   7.367   1.253   5.521
 7350TIP3    H221994   7.513   1.228   5.556
 7351TIP3   OH221995   6.592   3.317   2.515
 7351TIP3    H121996   6.499   3.310   2.536
 7351TIP3    H221997   6.621   3.397   2.558
 7352TIP3   OH221998   2.623   4.750   1.033
 7352TIP3    H121999   2.652   4.703   1.111
 7352TIP3    H222000   2.582   4.829   1.067
 7353TIP3   OH222001   1.821   6.358   0.559
 7353TIP3    H122002   1.802   6.270   0.592
 7353TIP3    H222003   1.735   6.398   0.548
 7354TIP3   OH222004   6.341   2.458   5.895
 7354TIP3    H122005   6.389   2.481   5.816
 7354TIP3    H222006   6.287   2.535   5.914
 7355TIP3   OH222007   5.030   0.223   4.128
 7355TIP3    H122008   5.072   0.253   4.048
 7355TIP3    H222009   5.055   0.131   4.136
 7356TIP3   OH222010   5.755   1.580   5.942
 7356TIP3    H122011   5.773   1.574   6.035
 7356TIP3    H222012   5.728   1.492   5.917
 7357TIP3   OH222013   7.073   6.516   2.988
 7357TIP3    H122014   6.983   6.484   2.995
 7357TIP3    H222015   7.102   6.526   3.079
 7358TIP3   OH222016   4.499   6.097   1.527
 7358TIP3    H122017   4.577   6.041   1.529
 7358TIP3    H222018   4.524   6.170   1.471
 7359TIP3   OH222019   3.017   6.364   3.735
 7359TIP3    H122020   2.985   6.413   3.659
 7359TIP3    H222021   2.938   6.329   3.775
 7360TIP3   OH222022   6.046   2.966   4.422
 7360TIP3    H122023   6.061   3.059   4.440
 7360TIP3    H222024   6.121   2.939   4.369
 7361TIP3   OH222025   3.569   4.160   0.297
 7361TIP3    H122026   3.569   4.066   0.276
 7361TIP3    H222027   3.603   4.165   0.386
 7362TIP3   OH222028   0.361   7.764   3.695
 7362TIP3    H122029   0.341   7.701   3.764
 7362TIP3    H222030   0.297   7.834   3.707
 7363TIP3   OH222031   1.359   7.348   3.567
 7363TIP3    H122032   1.327   7.343   3.656
 7363TIP3    H222033   1.387   7.259   3.546
 7364TIP3   OH222034   0.385   1.638   1.185
 7364TIP3    H122035   0.361   1.547   1.167
 7364TIP3    H222036   0.481   1.638   1.188
 7365TIP3   OH222037   4.218   0.545   1.779
 7365TIP3    H122038   4.198   0.531   1.871
 7365TIP3    H222039   4.270   0.625   1.777
 7366TIP3   OH222040   7.841   5.085   0.880
 7366TIP3    H122041   7.902   5.025   0.837
 7366TIP3    H222042   7.885   5.108   0.962
 7367TIP3   OH222043   0.890   7.498   0.992
 7367TIP3    H122044   0.977   7.503   1.032
 7367TIP3    H222045   0.837   7.452   1.057
 7368TIP3   OH222046   5.099   5.973   1.892
 7368TIP3    H122047   5.120   5.926   1.811
 7368TIP3    H222048   5.093   6.065   1.865
 7369TIP3   OH222049   8.110   2.099   4.651
 7369TIP3    H122050   8.150   2.064   4.731
 7369TIP3    H222051   8.063   2.026   4.613
 7370TIP3   OH222052   7.325   3.873   1.468
 7370TIP3    H122053   7.263   3.942   1.490
 7370TIP3    H222054   7.360   3.898   1.382
 7371TIP3   OH222055   4.473   5.954   4.545
 7371TIP3    H122056   4.519   5.940   4.628
 7371TIP3    H222057   4.384   5.978   4.571
 7372TIP3   OH222058   1.757   1.849   2.861
 7372TIP3    H122059   1.748   1.864   2.767
 7372TIP3    H222060   1.830   1.905   2.888
 7373TIP3   OH222061   4.385   4.485   3.255
 7373TIP3    H122062   4.446   4.420   3.220
 7373TIP3    H222063   4.432   4.568   3.249
 7374TIP3   OH222064   2.611   2.129   1.821
 7374TIP3    H122065   2.565   2.188   1.880
 7374TIP3    H222066   2.682   2.182   1.784
 7375TIP3   OH222067   1.785   4.702   0.282
 7375TIP3    H122068   1.717   4.767   0.300
 7375TIP3    H222069   1.811   4.671   0.369
 7376TIP3   OH222070   6.301   6.618   2.381
 7376TIP3    H122071   6.274   6.706   2.408
 7376TIP3    H222072   6.329   6.575   2.462
 7377TIP3   OH222073   7.732   6.256   0.513
 7377TIP3    H122074   7.643   6.283   0.491
 7377TIP3    H222075   7.762   6.322   0.576
 7378TIP3   OH222076   1.369   5.204   3.236
 7378TIP3    H122077   1.463   5.216   3.249
 7378TIP3    H222078   1.362   5.150   3.157
 7379TIP3   OH222079   1.208   2.238   3.022
 7379TIP3    H122080   1.294   2.224   2.983
 7379TIP3    H222081   1.218   2.317   3.075
 7380TIP3   OH222082   4.298   1.110   3.325
 7380TIP3    H122083   4.309   1.205   3.329
 7380TIP3    H222084   4.342   1.077   3.403
 7381TIP3   OH222085   7.959   0.887   4.805
 7381TIP3    H122086   7.883   0.839   4.772
 7381TIP3    H222087   8.004   0.825   4.861
 7382TIP3   OH222088   2.061   3.702   1.749
 7382TIP3    H122089   2.018   3.779   1.711
 7382TIP3    H222090   1.990   3.640   1.765
 7383TIP3   OH222091   4.727   2.927   4.598
 7383TIP3    H122092   4.814   2.888   4.609
 7383TIP3    H222093   4.712   2.975   4.679
 7384TIP3   OH222094   0.868   6.455   4.084
 7384TIP3    H122095   0.880   6.534   4.032
 7384TIP3    H222096   0.952   6.409   4.077
 7385TIP3   OH222097   6.229   2.789   2.264
 7385TIP3    H122098   6.211   2.859   2.326
 7385TIP3    H222099   6.277   2.832   2.193
 7386TIP3   OH222100   2.455   4.919   6.712
 7386TIP3    H122101   2.491   4.832   6.731
 7386TIP3    H222102   2.531   4.971   6.684
 7387TIP3   OH222103   3.932   5.386   0.328
 7387TIP3    H122104   3.983   5.420   0.401
 7387TIP3    H222105   3.841   5.389   0.359
 7388TIP3   OH222106   6.822   5.419   2.206
 7388TIP3    H122107   6.774   5.358   2.150
 7388TIP3    H222108   6.863   5.364   2.273
 7389TIP3   OH222109   0.593   3.658   6.180
 7389TIP3    H122110   0.546   3.586   6.222
 7389TIP3    H222111   0.646   3.697   6.250
 7390TIP3   OH222112   8.008   4.647   2.876
 7390TIP3    H122113   7.913   4.648   2.861
 7390TIP3    H222114   8.041   4.578   2.819
 7391TIP3   OH222115   4.774   2.480   4.612
 7391TIP3    H122116   4.715   2.504   4.684
 7391TIP3    H222117   4.853   2.447   4.656
 7392TIP3   OH222118   0.996   3.124   6.238
 7392TIP3    H122119   1.016   3.188   6.306
 7392TIP3    H222120   0.944   3.057   6.283
 7393TIP3   OH222121   3.155   2.825   1.167
 7393TIP3    H122122   3.206   2.745   1.155
 7393TIP3    H222123   3.064   2.796   1.160
 7394TIP3   OH222124   6.277   3.726   0.518
 7394TIP3    H122125   6.232   3.646   0.491
 7394TIP3    H222126   6.210   3.794   0.514
 7395TIP3   OH222127   7.129   2.110   4.418
 7395TIP3    H122128   7.040   2.146   4.416
 7395TIP3    H222129   7.122   2.033   4.474
 7396TIP3   OH222130   6.456   0.467   4.348
 7396TIP3    H122131   6.465   0.488   4.441
 7396TIP3    H222132   6.458   0.372   4.344
 7397TIP3   OH222133   8.233   6.658   6.463
 7397TIP3    H122134   8.280   6.596   6.518
 7397TIP3    H222135   8.158   6.608   6.430
 7398TIP3   OH222136   7.511   0.842   4.479
 7398TIP3    H122137   7.565   0.764   4.490
 7398TIP3    H222138   7.426   0.818   4.515
 7399TIP3   OH222139   1.275   1.753   0.585
 7399TIP3    H122140   1.302   1.719   0.670
 7399TIP3    H222141   1.285   1.848   0.593
 7400TIP3   OH222142   8.064   2.910   6.243
 7400TIP3    H122143   8.009   2.938   6.169
 7400TIP3    H222144   8.003   2.904   6.316
 7401TIP3   OH222145   3.611   2.684   1.572
 7401TIP3    H122146   3.519   2.706   1.565
 7401TIP3    H222147   3.652   2.762   1.611
 7402TIP3   OH222148   3.934   5.838   4.198
 7402TIP3    H122149   4.013   5.885   4.222
 7402TIP3    H222150   3.941   5.825   4.104
 7403TIP3   OH222151   3.748   1.070   5.900
 7403TIP3    H122152   3.805   1.146   5.885
 7403TIP3    H222153   3.746   1.061   5.995
 7404TIP3   OH222154   0.498   3.602   2.936
 7404TIP3    H122155   0.407   3.627   2.921
 7404TIP3    H222156   0.498   3.507   2.930
 7405TIP3   OH222157   1.823   7.431   4.787
 7405TIP3    H122158   1.868   7.412   4.869
 7405TIP3    H222159   1.882   7.398   4.719
 7406TIP3   OH222160   5.858   3.317   2.768
 7406TIP3    H122161   5.857   3.263   2.847
 7406TIP3    H222162   5.910   3.394   2.792
 7407TIP3   OH222163   3.933   7.128   6.224
 7407TIP3    H122164   3.878   7.124   6.302
 7407TIP3    H222165   4.002   7.064   6.240
 7408TIP3   OH222166   1.476   0.375   1.036
 7408TIP3    H122167   1.462   0.375   0.942
 7408TIP3    H222168   1.447   0.462   1.065
 7409TIP3   OH222169   5.862   5.920   6.521
 7409TIP3    H122170   5.778   5.889   6.555
 7409TIP3    H222171   5.857   5.904   6.427
 7410TIP3   OH222172   5.820   7.455   5.215
 7410TIP3    H122173   5.819   7.445   5.120
 7410TIP3    H222174   5.808   7.549   5.229
 7411TIP3   OH222175   6.088   5.633   6.077
 7411TIP3    H122176   6.037   5.552   6.068
 7411TIP3    H222177   6.169   5.615   6.028
 7412TIP3   OH222178   2.492   5.311   3.770
 7412TIP3    H122179   2.416   5.264   3.735
 7412TIP3    H222180   2.512   5.377   3.704
 7413TIP3   OH222181   3.907   4.318   4.745
 7413TIP3    H122182   3.916   4.266   4.665
 7413TIP3    H222183   3.849   4.266   4.801
 7414TIP3   OH222184   4.071   5.315   6.657
 7414TIP3    H122185   4.008   5.386   6.645
 7414TIP3    H222186   4.144   5.338   6.601
 7415TIP3   OH222187   5.772   0.411   2.629
 7415TIP3    H122188   5.690   0.366   2.606
 7415TIP3    H222189   5.762   0.432   2.722
 7416TIP3   OH222190   3.500   3.638   0.314
 7416TIP3    H122191   3.548   3.718   0.293
 7416TIP3    H222192   3.497   3.590   0.232
 7417TIP3   OH222193   6.180   2.973   4.038
 7417TIP3    H122194   6.113   2.907   4.057
 7417TIP3    H222195   6.224   2.987   4.121
 7418TIP3   OH222196   6.373   4.064   6.292
 7418TIP3    H122197   6.356   4.018   6.210
 7418TIP3    H222198   6.394   4.154   6.266
 7419TIP3   OH222199   2.999   5.062   3.970
 7419TIP3    H122200   2.978   5.006   4.044
 7419TIP3    H222201   3.058   5.008   3.916
 7420TIP3   OH222202   1.259   6.394   2.644
 7420TIP3    H122203   1.294   6.305   2.634
 7420TIP3    H222204   1.248   6.405   2.738
 7421TIP3   OH222205   4.128   4.181   6.565
 7421TIP3    H122206   4.081   4.163   6.483
 7421TIP3    H222207   4.201   4.236   6.538
 7422TIP3   OH222208   4.916   6.136   5.043
 7422TIP3    H122209   4.836   6.088   5.022
 7422TIP3    H222210   4.983   6.099   4.986
 7423TIP3   OH222211   4.402   1.633   5.527
 7423TIP3    H122212   4.318   1.614   5.570
 7423TIP3    H222213   4.378   1.651   5.436
 7424TIP3   OH222214   7.676   7.077   5.494
 7424TIP3    H122215   7.755   7.046   5.449
 7424TIP3    H222216   7.648   7.003   5.547
 7425TIP3   OH222217   5.356   3.500   6.593
 7425TIP3    H122218   5.312   3.418   6.571
 7425TIP3    H222219   5.434   3.502   6.538
 7426TIP3   OH222220   7.270   1.931   4.822
 7426TIP3    H122221   7.365   1.930   4.810
 7426TIP3    H222222   7.236   1.896   4.740
 7427TIP3   OH222223   0.320   7.782   5.359
 7427TIP3    H122224   0.319   7.865   5.405
 7427TIP3    H222225   0.347   7.718   5.424
 7428TIP3   OH222226   4.479   6.548   0.502
 7428TIP3    H122227   4.441   6.460   0.503
 7428TIP3    H222228   4.535   6.549   0.424
 7429TIP3   OH222229   6.213   1.851   0.418
 7429TIP3    H122230   6.268   1.927   0.436
 7429TIP3    H222231   6.187   1.819   0.504
 7430TIP3   OH222232   6.481   4.958   2.335
 7430TIP3    H122233   6.541   4.920   2.272
 7430TIP3    H222234   6.459   5.044   2.298
 7431TIP3   OH222235   0.623   4.819   4.129
 7431TIP3    H122236   0.701   4.789   4.084
 7431TIP3    H222237   0.587   4.740   4.169
 7432TIP3   OH222238   4.235   7.223   2.136
 7432TIP3    H122239   4.210   7.173   2.059
 7432TIP3    H222240   4.291   7.293   2.102
 7433TIP3   OH222241   0.521   3.037   0.348
 7433TIP3    H122242   0.460   3.099   0.388
 7433TIP3    H222243   0.598   3.040   0.405
 7434TIP3   OH222244   3.937   6.124   5.278
 7434TIP3    H122245   3.857   6.094   5.234
 7434TIP3    H222246   3.924   6.219   5.289
 7435TIP3   OH222247   7.696   0.354   4.759
 7435TIP3    H122248   7.710   0.367   4.853
 7435TIP3    H222249   7.604   0.377   4.745
 7436TIP3   OH222250   4.405   1.276   3.016
 7436TIP3    H122251   4.467   1.333   3.060
 7436TIP3    H222252   4.322   1.290   3.062
 7437TIP3   OH222253   4.854   3.277   3.654
 7437TIP3    H122254   4.762   3.271   3.628
 7437TIP3    H222255   4.892   3.193   3.627
 7438TIP3   OH222256   4.685   5.406   4.396
 7438TIP3    H122257   4.642   5.491   4.410
 7438TIP3    H222258   4.628   5.343   4.440
 7439TIP3   OH222259   1.195   3.062   3.268
 7439TIP3    H122260   1.163   3.021   3.348
 7439TIP3    H222261   1.122   3.116   3.238
 7440TIP3   OH222262   1.375   4.240   5.421
 7440TIP3    H122263   1.427   4.253   5.500
 7440TIP3    H222264   1.323   4.320   5.413
 7441TIP3   OH222265   7.505   1.360   5.251
 7441TIP3    H122266   7.511   1.330   5.341
 7441TIP3    H222267   7.535   1.451   5.254
 7442TIP3   OH222268   4.572   5.239   6.010
 7442TIP3    H122269   4.561   5.195   6.094
 7442TIP3    H222270   4.661   5.216   5.983
 7443TIP3   OH222271   5.541   0.890   5.069
 7443TIP3    H122272   5.491   0.812   5.092
 7443TIP3    H222273   5.475   0.959   5.059
 7444TIP3   OH222274   6.271   4.519   1.718
 7444TIP3    H122275   6.284   4.505   1.812
 7444TIP3    H222276   6.349   4.565   1.689
 7445TIP3   OH222277   5.470   4.795   4.626
 7445TIP3    H122278   5.481   4.740   4.703
 7445TIP3    H222279   5.550   4.848   4.623
 7446TIP3   OH222280   1.930   2.938   4.405
 7446TIP3    H122281   2.009   2.977   4.442
 7446TIP3    H222282   1.858   2.973   4.459
 7447TIP3   OH222283   1.499   7.161   2.984
 7447TIP3    H122284   1.449   7.224   3.036
 7447TIP3    H222285   1.454   7.077   2.998
 7448TIP3   OH222286   4.935   6.542   3.459
 7448TIP3    H122287   4.927   6.487   3.536
 7448TIP3    H222288   4.995   6.612   3.485
 7449TIP3   OH222289   6.645   0.051   0.795
 7449TIP3    H122290   6.727   0.015   0.829
 7449TIP3    H222291   6.669   0.088   0.710
 7450TIP3   OH222292   3.747   5.932   5.415
 7450TIP3    H122293   3.656   5.944   5.386
 7450TIP3    H222294   3.752   5.841   5.443
 7451TIP3   OH222295   6.315   6.611   3.709
 7451TIP3    H122296   6.371   6.688   3.707
 7451TIP3    H222297   6.231   6.642   3.675
 7452TIP3   OH222298   4.096   6.251   4.631
 7452TIP3    H122299   4.036   6.299   4.574
 7452TIP3    H222300   4.171   6.310   4.641
 7453TIP3   OH222301   1.946   3.209   4.144
 7453TIP3    H122302   1.851   3.213   4.132
 7453TIP3    H222303   1.972   3.125   4.107
 7454TIP3   OH222304   7.536   2.559   4.261
 7454TIP3    H122305   7.493   2.485   4.219
 7454TIP3    H222306   7.600   2.519   4.321
 7455TIP3   OH222307  -0.015   7.474   1.246
 7455TIP3    H122308   0.076   7.501   1.258
 7455TIP3    H222309  -0.011   7.379   1.233
 7456TIP3   OH222310   1.296   6.972   2.135
 7456TIP3    H122311   1.286   6.896   2.078
 7456TIP3    H222312   1.271   6.941   2.222
 7457TIP3   OH222313   1.523   7.475   1.156
 7457TIP3    H122314   1.608   7.515   1.139
 7457TIP3    H222315   1.533   7.432   1.241
 7458TIP3   OH222316   8.085   6.141   0.270
 7458TIP3    H122317   8.016   6.078   0.287
 7458TIP3    H222318   8.068   6.213   0.331
 7459TIP3   OH222319   4.656   6.084   2.455
 7459TIP3    H122320   4.656   6.178   2.472
 7459TIP3    H222321   4.662   6.044   2.542
 7460TIP3   OH222322   0.886   2.042   1.052
 7460TIP3    H122323   0.932   1.962   1.075
 7460TIP3    H222324   0.931   2.074   0.974
 7461TIP3   OH222325   5.094   0.520   0.536
 7461TIP3    H122326   5.039   0.481   0.469
 7461TIP3    H222327   5.173   0.548   0.489
 7462TIP3   OH222328   4.908   0.055   3.186
 7462TIP3    H122329   4.868  -0.023   3.149
 7462TIP3    H222330   4.836   0.102   3.229
 7463TIP3   OH222331   6.772   5.108   2.798
 7463TIP3    H122332   6.700   5.087   2.739
 7463TIP3    H222333   6.845   5.131   2.740
 7464TIP3   OH222334   0.438   6.318   4.016
 7464TIP3    H122335   0.368   6.382   4.030
 7464TIP3    H222336   0.512   6.370   3.984
 7465TIP3   OH222337   5.005   3.944   4.409
 7465TIP3    H122338   5.021   3.878   4.476
 7465TIP3    H222339   4.919   3.980   4.431
 7466TIP3   OH222340   6.691   3.440   5.081
 7466TIP3    H122341   6.669   3.519   5.030
 7466TIP3    H222342   6.786   3.442   5.087
 7467TIP3   OH222343   0.246   5.925   1.903
 7467TIP3    H122344   0.262   5.985   1.830
 7467TIP3    H222345   0.151   5.913   1.904
 7468TIP3   OH222346   1.992   1.371   1.468
 7468TIP3    H122347   2.076   1.324   1.467
 7468TIP3    H222348   2.013   1.458   1.433
 7469TIP3   OH222349   2.617   1.277   1.571
 7469TIP3    H122350   2.605   1.183   1.563
 7469TIP3    H222351   2.557   1.303   1.641
 7470TIP3   OH222352   7.591   3.480   2.861
 7470TIP3    H122353   7.529   3.510   2.926
 7470TIP3    H222354   7.593   3.385   2.871
 7471TIP3   OH222355   4.846   5.566   0.891
 7471TIP3    H122356   4.877   5.482   0.924
 7471TIP3    H222357   4.831   5.551   0.798
 7472TIP3   OH222358   1.497   3.300   1.098
 7472TIP3    H122359   1.510   3.291   1.004
 7472TIP3    H222360   1.561   3.241   1.137
 7473TIP3   OH222361   2.866   7.138   3.654
 7473TIP3    H122362   2.782   7.183   3.644
 7473TIP3    H222363   2.929   7.209   3.663
 7474TIP3   OH222364   1.969   7.038   1.737
 7474TIP3    H122365   2.031   7.111   1.738
 7474TIP3    H222366   1.973   7.003   1.826
 7475TIP3   OH222367  -0.026   4.536   2.650
 7475TIP3    H122368   0.007   4.545   2.739
 7475TIP3    H222369  -0.009   4.621   2.610
 7476TIP3   OH222370   8.220   2.299   6.231
 7476TIP3    H122371   8.231   2.361   6.159
 7476TIP3    H222372   8.307   2.291   6.270
 7477TIP3   OH222373   7.412   3.221   3.911
 7477TIP3    H122374   7.497   3.239   3.870
 7477TIP3    H222375   7.423   3.137   3.955
 7478TIP3   OH222376   3.249   3.131   1.144
 7478TIP3    H122377   3.323   3.096   1.193
 7478TIP3    H222378   3.197   3.055   1.120
 7479TIP3   OH222379   3.831   0.191   1.152
 7479TIP3    H122380   3.894   0.206   1.222
 7479TIP3    H222381   3.884   0.180   1.073
 7480TIP3   OH222382   4.795   5.982   0.769
 7480TIP3    H122383   4.882   5.945   0.758
 7480TIP3    H222384   4.760   5.989   0.680
 7481TIP3   OH222385   3.176   4.646   1.294
 7481TIP3    H122386   3.110   4.641   1.363
 7481TIP3    H222387   3.129   4.623   1.214
 7482TIP3   OH222388   4.885   4.216   5.757
 7482TIP3    H122389   4.822   4.145   5.747
 7482TIP3    H222390   4.951   4.199   5.690
 7483TIP3   OH222391   1.201   4.646   6.291
 7483TIP3    H122392   1.263   4.610   6.227
 7483TIP3    H222393   1.256   4.699   6.350
 7484TIP3   OH222394   6.848   6.348   0.415
 7484TIP3    H122395   6.936   6.316   0.394
 7484TIP3    H222396   6.801   6.271   0.447
 7485TIP3   OH222397   4.840   0.769   1.288
 7485TIP3    H122398   4.928   0.734   1.306
 7485TIP3    H222399   4.805   0.711   1.220
 7486TIP3   OH222400   4.070   4.535   5.480
 7486TIP3    H122401   4.085   4.603   5.414
 7486TIP3    H222402   4.156   4.498   5.497
 7487TIP3   OH222403   6.454   6.751   0.140
 7487TIP3    H122404   6.412   6.667   0.155
 7487TIP3    H222405   6.395   6.798   0.081
 7488TIP3   OH222406   3.635   6.309   4.493
 7488TIP3    H122407   3.709   6.361   4.523
 7488TIP3    H222408   3.654   6.220   4.521
 7489TIP3   OH222409   3.298   2.637   2.395
 7489TIP3    H122410   3.214   2.616   2.353
 7489TIP3    H222411   3.275   2.699   2.464
 7490TIP3   OH222412   6.917   6.233   2.084
 7490TIP3    H122413   6.954   6.304   2.031
 7490TIP3    H222414   6.831   6.216   2.045
 7491TIP3   OH222415   7.369   3.626   0.534
 7491TIP3    H122416   7.450   3.582   0.509
 7491TIP3    H222417   7.333   3.573   0.604
 7492TIP3   OH222418   7.019   7.501   1.578
 7492TIP3    H122419   6.936   7.544   1.599
 7492TIP3    H222420   7.044   7.539   1.494
 7493TIP3   OH222421   7.437   3.394   2.116
 7493TIP3    H122422   7.400   3.306   2.117
 7493TIP3    H222423   7.479   3.404   2.201
 7494TIP3   OH222424   0.002  -0.001   0.802
 7494TIP3    H122425  -0.015  -0.008   0.896
 7494TIP3    H222426   0.078  -0.056   0.786
 7495TIP3   OH222427   1.670   5.501   3.311
 7495TIP3    H122428   1.764   5.519   3.307
 7495TIP3    H222429   1.651   5.495   3.405
 7496TIP3   OH222430   3.423   1.685   2.663
 7496TIP3    H122431   3.361   1.696   2.736
 7496TIP3    H222432   3.423   1.591   2.644
 7497TIP3   OH222433   6.012   2.294   0.177
 7497TIP3    H122434   6.006   2.231   0.248
 7497TIP3    H222435   5.931   2.283   0.127
 7498TIP3   OH222436   6.230   2.324   0.363
 7498TIP3    H122437   6.204   2.234   0.343
 7498TIP3    H222438   6.174   2.378   0.308
 7499TIP3   OH222439   7.780   1.530   1.106
 7499TIP3    H122440   7.826   1.602   1.148
 7499TIP3    H222441   7.848   1.484   1.057
 7500TIP3   OH222442   1.969   2.690   0.115
 7500TIP3    H122443   2.036   2.757   0.104
 7500TIP3    H222444   1.899   2.734   0.164
 7501TIP3   OH222445   3.607   2.976   5.207
 7501TIP3    H122446   3.584   3.042   5.142
 7501TIP3    H222447   3.692   3.003   5.240
 7502TIP3   OH222448   5.194   1.338   0.708
 7502TIP3    H122449   5.153   1.267   0.757
 7502TIP3    H222450   5.135   1.352   0.634
 7503TIP3   OH222451   7.068   2.912   3.860
 7503TIP3    H122452   7.012   2.872   3.928
 7503TIP3    H222453   7.021   2.896   3.778
 7504TIP3   OH222454   2.398   6.157   2.996
 7504TIP3    H122455   2.393   6.114   2.911
 7504TIP3    H222456   2.415   6.086   3.058
 7505TIP3   OH222457   5.326   0.583   0.229
 7505TIP3    H122458   5.267   0.594   0.155
 7505TIP3    H222459   5.375   0.502   0.209
 7506TIP3   OH222460   7.909   0.620   2.081
 7506TIP3    H122461   7.834   0.571   2.116
 7506TIP3    H222462   7.979   0.556   2.076
 7507TIP3   OH222463   7.770   0.572   5.775
 7507TIP3    H122464   7.812   0.580   5.861
 7507TIP3    H222465   7.823   0.508   5.728
 7508TIP3   OH222466   5.123   1.346   0.176
 7508TIP3    H122467   5.030   1.334   0.197
 7508TIP3    H222468   5.130   1.438   0.153
 7509TIP3   OH222469   6.824   5.807   5.105
 7509TIP3    H122470   6.872   5.732   5.140
 7509TIP3    H222471   6.876   5.883   5.131
 7510TIP3   OH222472   5.511   7.602   2.863
 7510TIP3    H122473   5.461   7.525   2.889
 7510TIP3    H222474   5.508   7.601   2.767
 7511TIP3   OH222475   1.729   2.312   2.118
 7511TIP3    H122476   1.664   2.260   2.070
 7511TIP3    H222477   1.797   2.249   2.141
 7512TIP3   OH222478   1.221   5.989   1.169
 7512TIP3    H122479   1.273   6.044   1.110
 7512TIP3    H222480   1.171   5.931   1.110
 7513TIP3   OH222481   8.033  -0.020   6.121
 7513TIP3    H122482   8.033   0.013   6.210
 7513TIP3    H222483   7.962   0.027   6.077
 7514TIP3   OH222484   0.986   0.279   2.994
 7514TIP3    H122485   1.058   0.341   2.984
 7514TIP3    H222486   1.027   0.199   3.024
 7515TIP3   OH222487   3.685   2.033   2.811
 7515TIP3    H122488   3.621   2.088   2.766
 7515TIP3    H222489   3.758   2.091   2.831
 7516TIP3   OH222490   1.459   0.145   1.167
 7516TIP3    H122491   1.461   0.222   1.110
 7516TIP3    H222492   1.366   0.134   1.188
 7517TIP3   OH222493   7.603   3.305   6.023
 7517TIP3    H122494   7.555   3.238   6.072
 7517TIP3    H222495   7.534   3.365   5.993
 7518TIP3   OH222496   7.054   3.260   4.890
 7518TIP3    H122497   7.064   3.165   4.895
 7518TIP3    H222498   7.140   3.295   4.911
 7519TIP3   OH222499   6.227   0.115   2.812
 7519TIP3    H122500   6.222   0.028   2.772
 7519TIP3    H222501   6.188   0.174   2.747
 7520TIP3   OH222502   0.679   4.272   1.887
 7520TIP3    H122503   0.772   4.283   1.906
 7520TIP3    H222504   0.634   4.323   1.954
 7521TIP3   OH222505   0.428   7.426   4.852
 7521TIP3    H122506   0.466   7.397   4.935
 7521TIP3    H222507   0.477   7.378   4.785
 7522TIP3   OH222508   0.534   4.410   1.069
 7522TIP3    H122509   0.553   4.388   1.160
 7522TIP3    H222510   0.463   4.474   1.073
 7523TIP3   OH222511   3.043   6.356   4.675
 7523TIP3    H122512   3.020   6.400   4.593
 7523TIP3    H222513   3.036   6.424   4.742
 7524TIP3   OH222514   8.089   1.363   6.262
 7524TIP3    H122515   8.099   1.383   6.169
 7524TIP3    H222516   7.995   1.371   6.278
 7525TIP3   OH222517   5.713   1.995   2.182
 7525TIP3    H122518   5.738   2.053   2.110
 7525TIP3    H222519   5.782   1.929   2.184
 7526TIP3   OH222520   3.309   4.816   4.754
 7526TIP3    H122521   3.392   4.834   4.798
 7526TIP3    H222522   3.326   4.737   4.703
 7527TIP3   OH222523   6.672   3.687   4.951
 7527TIP3    H122524   6.592   3.737   4.937
 7527TIP3    H222525   6.739   3.753   4.969
 7528TIP3   OH222526   7.766   1.699   4.633
 7528TIP3    H122527   7.701   1.639   4.668
 7528TIP3    H222528   7.804   1.653   4.558
 7529TIP3   OH222529   0.550   7.410   6.358
 7529TIP3    H122530   0.522   7.495   6.323
 7529TIP3    H222531   0.509   7.346   6.301
 7530TIP3   OH222532   7.934   4.643   5.549
 7530TIP3    H122533   7.843   4.670   5.562
 7530TIP3    H222534   7.951   4.660   5.456
 7531TIP3   OH222535   0.165   7.282   6.369
 7531TIP3    H122536   0.222   7.310   6.441
 7531TIP3    H222537   0.080   7.322   6.389
 7532TIP3   OH222538   2.587   2.203   0.283
 7532TIP3    H122539   2.634   2.169   0.360
 7532TIP3    H222540   2.521   2.262   0.319
 7533TIP3   OH222541   3.028   3.146   0.736
 7533TIP3    H122542   3.093   3.204   0.775
 7533TIP3    H222543   3.036   3.161   0.641
 7534TIP3   OH222544   1.182   4.315   1.411
 7534TIP3    H122545   1.150   4.369   1.339
 7534TIP3    H222546   1.241   4.372   1.460
 7535TIP3   OH222547   2.609   4.948   3.800
 7535TIP3    H122548   2.630   4.857   3.781
 7535TIP3    H222549   2.516   4.946   3.825
 7536TIP3   OH222550   5.623   0.090   3.464
 7536TIP3    H122551   5.547   0.146   3.444
 7536TIP3    H222552   5.641   0.044   3.382
 7537TIP3   OH222553   7.035   6.660   2.525
 7537TIP3    H122554   6.983   6.728   2.483
 7537TIP3    H222555   7.120   6.664   2.482
 7538TIP3   OH222556   6.308   3.846   3.882
 7538TIP3    H122557   6.278   3.933   3.857
 7538TIP3    H222558   6.239   3.787   3.850
 7539TIP3   OH222559   4.225   1.315   0.109
 7539TIP3    H122560   4.270   1.384   0.158
 7539TIP3    H222561   4.285   1.293   0.038
 7540TIP3   OH222562   1.636   6.727   4.980
 7540TIP3    H122563   1.604   6.806   5.023
 7540TIP3    H222564   1.564   6.699   4.924
 7541TIP3   OH222565   0.607   6.858   4.786
 7541TIP3    H122566   0.570   6.925   4.845
 7541TIP3    H222567   0.663   6.908   4.727
 7542TIP3   OH222568   6.545   0.652   2.134
 7542TIP3    H122569   6.549   0.742   2.104
 7542TIP3    H222570   6.616   0.607   2.088
 7543TIP3   OH222571   0.139   6.343   4.174
 7543TIP3    H122572   0.151   6.415   4.113
 7543TIP3    H222573   0.093   6.382   4.249
 7544TIP3   OH222574   6.337   0.058   1.918
 7544TIP3    H122575   6.388   0.078   1.996
 7544TIP3    H222576   6.249   0.037   1.950
 7545TIP3   OH222577   7.932   7.269   2.984
 7545TIP3    H122578   8.017   7.244   3.018
 7545TIP3    H222579   7.879   7.189   2.989
 7546TIP3   OH222580   3.448   0.593   0.628
 7546TIP3    H122581   3.437   0.675   0.580
 7546TIP3    H222582   3.534   0.600   0.668
 7547TIP3   OH222583   7.503   2.187   1.085
 7547TIP3    H122584   7.545   2.161   1.003
 7547TIP3    H222585   7.540   2.127   1.151
 7548TIP3   OH222586   0.959   3.650   0.283
 7548TIP3    H122587   0.984   3.703   0.359
 7548TIP3    H222588   1.017   3.574   0.287
 7549TIP3   OH222589   2.012   0.289   2.103
 7549TIP3    H122590   2.068   0.292   2.025
 7549TIP3    H222591   2.018   0.198   2.134
 7550TIP3   OH222592   0.409   2.400   6.655
 7550TIP3    H122593   0.331   2.369   6.609
 7550TIP3    H222594   0.378   2.433   6.739
 7551TIP3   OH222595   5.820   3.427   5.237
 7551TIP3    H122596   5.788   3.405   5.149
 7551TIP3    H222597   5.745   3.413   5.294
 7552TIP3   OH222598   5.174   7.188   2.696
 7552TIP3    H122599   5.232   7.250   2.652
 7552TIP3    H222600   5.110   7.242   2.742
 7553TIP3   OH222601   4.071   6.364   2.214
 7553TIP3    H122602   4.062   6.339   2.122
 7553TIP3    H222603   4.012   6.439   2.224
 7554TIP3   OH222604   3.955   3.233   6.318
 7554TIP3    H122605   3.913   3.303   6.267
 7554TIP3    H222606   3.975   3.165   6.254
 7555TIP3   OH222607   0.578   2.788   3.416
 7555TIP3    H122608   0.500   2.737   3.438
 7555TIP3    H222609   0.544   2.868   3.375
 7556TIP3   OH222610   2.796   5.526   3.207
 7556TIP3    H122611   2.876   5.474   3.203
 7556TIP3    H222612   2.739   5.476   3.265
 7557TIP3   OH222613   5.227   0.266   0.426
 7557TIP3    H122614   5.260   0.286   0.339
 7557TIP3    H222615   5.206   0.351   0.464
 7558TIP3   OH222616   5.547   7.181   3.710
 7558TIP3    H122617   5.495   7.167   3.789
 7558TIP3    H222618   5.624   7.230   3.741
 7559TIP3   OH222619   4.275   4.453   0.351
 7559TIP3    H122620   4.326   4.533   0.338
 7559TIP3    H222621   4.234   4.437   0.265
 7560TIP3   OH222622   2.687   4.653   2.994
 7560TIP3    H122623   2.707   4.694   2.909
 7560TIP3    H222624   2.719   4.716   3.059
 7561TIP3   OH222625   1.907   5.860   2.855
 7561TIP3    H122626   2.000   5.836   2.849
 7561TIP3    H222627   1.906   5.955   2.847
 7562TIP3   OH222628   4.514   4.719   3.204
 7562TIP3    H122629   4.589   4.687   3.153
 7562TIP3    H222630   4.530   4.813   3.214
 7563TIP3   OH222631   1.338   1.404   3.067
 7563TIP3    H122632   1.388   1.373   3.143
 7563TIP3    H222633   1.364   1.495   3.057
 7564TIP3   OH222634   1.009   2.972   3.918
 7564TIP3    H122635   1.080   2.911   3.938
 7564TIP3    H222636   0.931   2.917   3.914
 7565TIP3   OH222637   8.093   3.290   4.950
 7565TIP3    H122638   8.178   3.331   4.964
 7565TIP3    H222639   8.093   3.263   4.858
 7566TIP3   OH222640   5.878   7.556   3.643
 7566TIP3    H122641   5.913   7.631   3.691
 7566TIP3    H222642   5.823   7.594   3.575
 7567TIP3   OH222643   5.098   5.568   1.171
 7567TIP3    H122644   5.155   5.606   1.237
 7567TIP3    H222645   5.101   5.474   1.188
 7568TIP3   OH222646   1.642   0.881   0.491
 7568TIP3    H122647   1.594   0.902   0.571
 7568TIP3    H222648   1.728   0.922   0.503
 7569TIP3   OH222649   8.062   1.736   5.922
 7569TIP3    H122650   8.063   1.713   6.014
 7569TIP3    H222651   8.124   1.676   5.881
 7570TIP3   OH222652   6.828   3.691   1.487
 7570TIP3    H122653   6.788   3.769   1.450
 7570TIP3    H222654   6.917   3.718   1.509
 7571TIP3   OH222655   0.354   2.210   6.046
 7571TIP3    H122656   0.415   2.167   6.105
 7571TIP3    H222657   0.327   2.141   5.985
 7572TIP3   OH222658   1.921   7.690   6.337
 7572TIP3    H122659   1.982   7.627   6.298
 7572TIP3    H222660   1.892   7.744   6.263
 7573TIP3   OH222661   3.648   1.775   0.169
 7573TIP3    H122662   3.668   1.852   0.116
 7573TIP3    H222663   3.654   1.702   0.107
 7574TIP3   OH222664   3.475   3.369   4.638
 7574TIP3    H122665   3.439   3.454   4.665
 7574TIP3    H222666   3.398   3.314   4.624
 7575TIP3   OH222667   0.675   2.343   0.512
 7575TIP3    H122668   0.638   2.261   0.480
 7575TIP3    H222669   0.600   2.401   0.523
 7576TIP3   OH222670   0.092   0.182   3.074
 7576TIP3    H122671  -0.001   0.166   3.092
 7576TIP3    H222672   0.108   0.270   3.107
 7577TIP3   OH222673   1.195   4.514   4.542
 7577TIP3    H122674   1.135   4.587   4.527
 7577TIP3    H222675   1.227   4.491   4.455
 7578TIP3   OH222676   5.881   0.558   6.433
 7578TIP3    H122677   5.880   0.610   6.514
 7578TIP3    H222678   5.912   0.471   6.461
 7579TIP3   OH222679   5.948   5.016   6.236
 7579TIP3    H122680   5.916   4.951   6.298
 7579TIP3    H222681   5.882   5.018   6.166
 7580TIP3   OH222682   5.030   5.308   1.464
 7580TIP3    H122683   5.057   5.305   1.373
 7580TIP3    H222684   4.937   5.287   1.462
 7581TIP3   OH222685   1.113   7.715   4.982
 7581TIP3    H122686   1.042   7.778   4.970
 7581TIP3    H222687   1.093   7.671   5.064
 7582TIP3   OH222688   4.970   0.534   2.875
 7582TIP3    H122689   4.940   0.450   2.839
 7582TIP3    H222690   4.999   0.512   2.964
 7583TIP3   OH222691   5.088   1.597   5.887
 7583TIP3    H122692   5.071   1.665   5.821
 7583TIP3    H222693   5.017   1.534   5.875
 7584TIP3   OH222694   1.525   1.912   1.248
 7584TIP3    H122695   1.508   1.863   1.167
 7584TIP3    H222696   1.509   1.848   1.318
 7585TIP3   OH222697   2.789   6.435   0.515
 7585TIP3    H122698   2.811   6.501   0.581
 7585TIP3    H222699   2.694   6.437   0.510
 7586TIP3   OH222700   3.524   2.790   3.781
 7586TIP3    H122701   3.543   2.725   3.849
 7586TIP3    H222702   3.523   2.874   3.827
 7587TIP3   OH222703   7.418   4.177   3.650
 7587TIP3    H122704   7.332   4.198   3.687
 7587TIP3    H222705   7.404   4.179   3.556
 7588TIP3   OH222706   0.999   0.008   1.928
 7588TIP3    H122707   0.980   0.078   1.990
 7588TIP3    H222708   1.074   0.039   1.878
 7589TIP3   OH222709   7.467   3.959   0.782
 7589TIP3    H122710   7.392   3.938   0.838
 7589TIP3    H222711   7.436   3.944   0.693
 7590TIP3   OH222712   4.715   4.464   1.703
 7590TIP3    H122713   4.791   4.407   1.693
 7590TIP3    H222714   4.685   4.481   1.613
 7591TIP3   OH222715   3.573   4.615   0.602
 7591TIP3    H122716   3.495   4.593   0.552
 7591TIP3    H222717   3.540   4.635   0.690
 7592TIP3   OH222718   1.978   5.430   1.110
 7592TIP3    H122719   1.907   5.464   1.164
 7592TIP3    H222720   2.028   5.372   1.168
 7593TIP3   OH222721   3.697   1.409   2.850
 7593TIP3    H122722   3.727   1.430   2.762
 7593TIP3    H222723   3.740   1.326   2.871
 7594TIP3   OH222724   8.116   0.609   5.701
 7594TIP3    H122725   8.122   0.607   5.796
 7594TIP3    H222726   8.151   0.525   5.673
 7595TIP3   OH222727   0.092   1.206   2.841
 7595TIP3    H122728   0.172   1.218   2.893
 7595TIP3    H222729   0.068   1.115   2.855
 7596TIP3   OH222730   5.313   6.220   1.233
 7596TIP3    H122731   5.275   6.248   1.150
 7596TIP3    H222732   5.240   6.183   1.282
 7597TIP3   OH222733   5.863   4.427   6.282
 7597TIP3    H122734   5.851   4.406   6.374
 7597TIP3    H222735   5.792   4.383   6.237
 7598TIP3   OH222736   0.408   7.263   1.860
 7598TIP3    H122737   0.467   7.338   1.868
 7598TIP3    H222738   0.344   7.276   1.930
 7599TIP3   OH222739   7.479   1.102   5.890
 7599TIP3    H122740   7.390   1.137   5.882
 7599TIP3    H222741   7.518   1.115   5.803
 7600TIP3   OH222742   1.409   0.343   2.356
 7600TIP3    H122743   1.423   0.424   2.405
 7600TIP3    H222744   1.493   0.326   2.313
 7601TIP3   OH222745   7.171   3.404   1.631
 7601TIP3    H122746   7.080   3.376   1.625
 7601TIP3    H222747   7.219   3.324   1.654
 7602TIP3   OH222748   3.754   1.001   4.047
 7602TIP3    H122749   3.726   0.935   4.110
 7602TIP3    H222750   3.769   0.953   3.966
 7603TIP3   OH222751   2.436   4.750   0.185
 7603TIP3    H122752   2.447   4.703   0.267
 7603TIP3    H222753   2.392   4.832   0.210
 7604TIP3   OH222754   6.114   1.511   3.734
 7604TIP3    H122755   6.160   1.470   3.808
 7604TIP3    H222756   6.085   1.438   3.679
 7605TIP3   OH222757   1.596   3.403   0.469
 7605TIP3    H122758   1.520   3.446   0.430
 7605TIP3    H222759   1.668   3.423   0.410
 7606TIP3   OH222760   3.559   3.104   5.596
 7606TIP3    H122761   3.496   3.176   5.592
 7606TIP3    H222762   3.508   3.026   5.574
 7607TIP3   OH222763   5.468   0.414   0.576
 7607TIP3    H122764   5.481   0.371   0.660
 7607TIP3    H222765   5.446   0.342   0.516
 7608TIP3   OH222766   6.884   1.492   1.279
 7608TIP3    H122767   6.845   1.498   1.367
 7608TIP3    H222768   6.820   1.535   1.222
 7609TIP3   OH222769   5.279   4.248   1.392
 7609TIP3    H122770   5.211   4.227   1.456
 7609TIP3    H222771   5.245   4.324   1.345
 7610TIP3   OH222772   2.904   4.595   2.638
 7610TIP3    H122773   2.858   4.659   2.693
 7610TIP3    H222774   2.993   4.628   2.633
 7611TIP3   OH222775   2.342   6.796   4.424
 7611TIP3    H122776   2.297   6.871   4.384
 7611TIP3    H222777   2.369   6.828   4.511
 7612TIP3   OH222778   7.672   1.029   5.079
 7612TIP3    H122779   7.586   0.998   5.106
 7612TIP3    H222780   7.661   1.123   5.066
 7613TIP3   OH222781   5.982   3.920   5.879
 7613TIP3    H122782   5.916   3.983   5.905
 7613TIP3    H222783   6.053   3.932   5.942
 7614TIP3   OH222784   1.240   7.013   1.645
 7614TIP3    H122785   1.197   7.095   1.620
 7614TIP3    H222786   1.198   6.990   1.729
 7615TIP3   OH222787   4.299   5.447   0.355
 7615TIP3    H122788   4.372   5.509   0.358
 7615TIP3    H222789   4.232   5.491   0.302
 7616TIP3   OH222790   7.926   7.420   6.099
 7616TIP3    H122791   7.980   7.342   6.090
 7616TIP3    H222792   7.836   7.388   6.091
 7617TIP3   OH222793   5.055   2.202   2.466
 7617TIP3    H122794   5.081   2.294   2.458
 7617TIP3    H222795   5.050   2.171   2.376
 7618TIP3   OH222796   2.701   1.953   1.027
 7618TIP3    H122797   2.715   2.003   1.108
 7618TIP3    H222798   2.740   1.867   1.044
 7619TIP3   OH222799   7.700   4.084   2.535
 7619TIP3    H122800   7.757   4.158   2.513
 7619TIP3    H222801   7.647   4.116   2.608
 7620TIP3   OH222802   0.956   0.217   0.780
 7620TIP3    H122803   0.875   0.185   0.820
 7620TIP3    H222804   0.933   0.302   0.742
 7621TIP3   OH222805   0.504   7.670   5.768
 7621TIP3    H122806   0.532   7.745   5.820
 7621TIP3    H222807   0.413   7.655   5.794
 7622TIP3   OH222808   4.731   1.313   3.144
 7622TIP3    H122809   4.669   1.383   3.122
 7622TIP3    H222810   4.749   1.270   3.060
 7623TIP3   OH222811   0.713   5.824   4.785
 7623TIP3    H122812   0.662   5.778   4.718
 7623TIP3    H222813   0.655   5.894   4.816
 7624TIP3   OH222814   5.411   4.556   6.679
 7624TIP3    H122815   5.495   4.559   6.724
 7624TIP3    H222816   5.431   4.522   6.592
 7625TIP3   OH222817   4.983   1.930   3.755
 7625TIP3    H122818   4.965   1.865   3.823
 7625TIP3    H222819   4.945   2.011   3.789
 7626TIP3   OH222820   4.116   3.896   4.275
 7626TIP3    H122821   4.061   3.974   4.283
 7626TIP3    H222822   4.055   3.823   4.280
 7627TIP3   OH222823   7.544   5.099   0.471
 7627TIP3    H122824   7.605   5.111   0.544
 7627TIP3    H222825   7.458   5.093   0.512
 7628TIP3   OH222826   2.851   5.925   1.967
 7628TIP3    H122827   2.848   5.897   2.059
 7628TIP3    H222828   2.783   5.872   1.924
 7629TIP3   OH222829   3.072   6.229   2.401
 7629TIP3    H122830   3.028   6.144   2.400
 7629TIP3    H222831   3.007   6.290   2.435
 7630TIP3   OH222832   2.628   3.292   3.199
 7630TIP3    H122833   2.717   3.256   3.193
 7630TIP3    H222834   2.573   3.228   3.154
 7631TIP3   OH222835   2.530   5.557   5.103
 7631TIP3    H122836   2.586   5.523   5.172
 7631TIP3    H222837   2.442   5.525   5.124
 7632TIP3   OH222838   1.250   7.025   6.063
 7632TIP3    H122839   1.315   7.095   6.072
 7632TIP3    H222840   1.262   6.993   5.974
 7633TIP3   OH222841   0.791   5.851   6.293
 7633TIP3    H122842   0.712   5.824   6.341
 7633TIP3    H222843   0.831   5.918   6.349
 7634TIP3   OH222844   1.253   4.172   3.176
 7634TIP3    H122845   1.227   4.257   3.211
 7634TIP3    H222846   1.333   4.149   3.223
 7635TIP3   OH222847   3.463   5.260   5.110
 7635TIP3    H122848   3.558   5.271   5.113
 7635TIP3    H222849   3.443   5.252   5.017
 7636TIP3   OH222850   5.616   4.426   3.593
 7636TIP3    H122851   5.577   4.509   3.619
 7636TIP3    H222852   5.700   4.424   3.639
 7637TIP3   OH222853   2.687   4.035   5.846
 7637TIP3    H122854   2.603   4.061   5.885
 7637TIP3    H222855   2.664   3.994   5.763
 7638TIP3   OH222856   3.906   7.315   3.442
 7638TIP3    H122857   3.980   7.349   3.392
 7638TIP3    H222858   3.875   7.241   3.391
 7639TIP3   OH222859   4.068   3.430   3.309
 7639TIP3    H122860   4.118   3.437   3.227
 7639TIP3    H222861   4.111   3.358   3.357
 7640TIP3   OH222862   0.994   7.795   2.875
 7640TIP3    H122863   1.089   7.796   2.888
 7640TIP3    H222864   0.969   7.887   2.867
 7641TIP3   OH222865   6.292   2.281   6.748
 7641TIP3    H122866   6.319   2.363   6.790
 7641TIP3    H222867   6.295   2.216   6.817
 7642TIP3   OH222868   7.111   4.936   2.785
 7642TIP3    H122869   7.081   4.998   2.718
 7642TIP3    H222870   7.038   4.874   2.794
 7643TIP3   OH222871   1.777   6.731   6.694
 7643TIP3    H122872   1.803   6.660   6.636
 7643TIP3    H222873   1.815   6.708   6.779
 7644TIP3   OH222874   0.411   4.569   4.643
 7644TIP3    H122875   0.495   4.565   4.598
 7644TIP3    H222876   0.386   4.478   4.656
 7645TIP3   OH222877   0.670   0.818   6.114
 7645TIP3    H122878   0.673   0.893   6.173
 7645TIP3    H222879   0.753   0.772   6.129
 7646TIP3   OH222880   4.145   1.375   4.411
 7646TIP3    H122881   4.240   1.388   4.411
 7646TIP3    H222882   4.130   1.304   4.349
 7647TIP3   OH222883   7.540   6.038   2.690
 7647TIP3    H122884   7.599   6.004   2.757
 7647TIP3    H222885   7.472   6.085   2.738
 7648TIP3   OH222886   4.862   5.450   0.345
 7648TIP3    H122887   4.772   5.466   0.317
 7648TIP3    H222888   4.902   5.405   0.270
 7649TIP3   OH222889   5.497   4.165   2.721
 7649TIP3    H122890   5.586   4.130   2.715
 7649TIP3    H222891   5.509   4.260   2.713
 7650TIP3   OH222892   6.488   6.421   0.853
 7650TIP3    H122893   6.473   6.328   0.870
 7650TIP3    H222894   6.493   6.461   0.940
 7651TIP3   OH222895   7.967   0.682   0.650
 7651TIP3    H122896   8.011   0.682   0.565
 7651TIP3    H222897   7.982   0.594   0.685
 7652TIP3   OH222898   1.363   2.485   5.774
 7652TIP3    H122899   1.430   2.522   5.831
 7652TIP3    H222900   1.359   2.545   5.699
 7653TIP3   OH222901   0.436   6.011   3.628
 7653TIP3    H122902   0.395   6.056   3.702
 7653TIP3    H222903   0.454   5.923   3.660
 7654TIP3   OH222904   7.706   2.906   4.586
 7654TIP3    H122905   7.788   2.864   4.562
 7654TIP3    H222906   7.642   2.871   4.524
 7655TIP3   OH222907   3.322   4.851   5.801
 7655TIP3    H122908   3.352   4.786   5.863
 7655TIP3    H222909   3.400   4.874   5.750
 7656TIP3   OH222910   1.132   2.490   2.009
 7656TIP3    H122911   1.037   2.503   2.012
 7656TIP3    H222912   1.160   2.490   2.100
 7657TIP3   OH222913   2.070   4.081   3.941
 7657TIP3    H122914   2.010   4.043   4.005
 7657TIP3    H222915   2.119   4.007   3.906
 7658TIP3   OH222916   1.231   2.570   4.469
 7658TIP3    H122917   1.317   2.569   4.511
 7658TIP3    H222918   1.204   2.479   4.467
 7659TIP3   OH222919   0.256   2.169   3.288
 7659TIP3    H122920   0.206   2.190   3.209
 7659TIP3    H222921   0.284   2.254   3.322
 7660TIP3   OH222922   4.901   1.953   3.163
 7660TIP3    H122923   4.919   1.889   3.231
 7660TIP3    H222924   4.947   2.032   3.192
 7661TIP3   OH222925   2.907   1.531   2.866
 7661TIP3    H122926   2.999   1.536   2.893
 7661TIP3    H222927   2.896   1.603   2.804
 7662TIP3   OH222928   0.286   6.449   3.744
 7662TIP3    H122929   0.286   6.434   3.650
 7662TIP3    H222930   0.194   6.456   3.768
 7663TIP3   OH222931   6.357   2.260   5.030
 7663TIP3    H122932   6.304   2.312   5.091
 7663TIP3    H222933   6.300   2.189   5.004
 7664TIP3   OH222934   6.753   4.145   2.577
 7664TIP3    H122935   6.703   4.064   2.591
 7664TIP3    H222936   6.689   4.207   2.542
 7665TIP3   OH222937   6.731   4.936   6.165
 7665TIP3    H122938   6.700   4.988   6.091
 7665TIP3    H222939   6.651   4.906   6.209
 7666TIP3   OH222940   1.222   1.883   1.866
 7666TIP3    H122941   1.283   1.924   1.927
 7666TIP3    H222942   1.136   1.894   1.906
 7667TIP3   OH222943   5.620   0.739   4.410
 7667TIP3    H122944   5.627   0.762   4.503
 7667TIP3    H222945   5.710   0.715   4.384
 7668TIP3   OH222946   5.891   1.775   2.181
 7668TIP3    H122947   5.886   1.685   2.212
 7668TIP3    H222948   5.963   1.774   2.117
 7669TIP3   OH222949   7.571   2.215   1.989
 7669TIP3    H122950   7.546   2.218   1.896
 7669TIP3    H222951   7.666   2.207   1.988
 7670TIP3   OH222952   7.513   5.310   6.603
 7670TIP3    H122953   7.462   5.386   6.628
 7670TIP3    H222954   7.509   5.308   6.507
 7671TIP3   OH222955   5.783   7.210   0.847
 7671TIP3    H122956   5.811   7.165   0.767
 7671TIP3    H222957   5.853   7.272   0.866
 7672TIP3   OH222958   4.109   7.365   1.808
 7672TIP3    H122959   4.144   7.451   1.831
 7672TIP3    H222960   4.187   7.313   1.784
 7673TIP3   OH222961   3.671   2.714   5.453
 7673TIP3    H122962   3.594   2.770   5.461
 7673TIP3    H222963   3.744   2.776   5.444
 7674TIP3   OH222964   3.732   6.301   4.086
 7674TIP3    H122965   3.702   6.339   4.003
 7674TIP3    H222966   3.654   6.258   4.123
 7675TIP3   OH222967   2.999   0.581   1.278
 7675TIP3    H122968   2.998   0.485   1.271
 7675TIP3    H222969   3.092   0.604   1.280
 7676TIP3   OH222970   7.886   5.301   1.237
 7676TIP3    H122971   7.949   5.357   1.192
 7676TIP3    H222972   7.901   5.213   1.201
 7677TIP3   OH222973   1.803   2.428   6.791
 7677TIP3    H122974   1.733   2.440   6.726
 7677TIP3    H222975   1.788   2.497   6.855
 7678TIP3   OH222976   2.429   1.351   3.537
 7678TIP3    H122977   2.500   1.334   3.599
 7678TIP3    H222978   2.470   1.342   3.451
 7679TIP3   OH222979   4.276   3.973   3.424
 7679TIP3    H122980   4.311   3.885   3.409
 7679TIP3    H222981   4.262   3.978   3.519
 7680TIP3   OH222982   3.450   5.914   6.192
 7680TIP3    H122983   3.362   5.886   6.215
 7680TIP3    H222984   3.448   6.009   6.202
 7681TIP3   OH222985   7.820   0.394   0.637
 7681TIP3    H122986   7.815   0.299   0.632
 7681TIP3    H222987   7.749   0.418   0.697
 7682TIP3   OH222988   8.084   3.418   1.453
 7682TIP3    H122989   8.137   3.347   1.416
 7682TIP3    H222990   8.110   3.495   1.404
 7683TIP3   OH222991   6.913   6.549   0.111
 7683TIP3    H122992   6.998   6.550   0.155
 7683TIP3    H222993   6.854   6.594   0.171
 7684TIP3   OH222994   3.038   6.752   4.282
 7684TIP3    H122995   2.966   6.815   4.287
 7684TIP3    H222996   3.090   6.781   4.208
 7685TIP3   OH222997   3.747   3.490   2.438
 7685TIP3    H122998   3.674   3.543   2.470
 7685TIP3    H222999   3.801   3.551   2.389
 7686TIP3   OH223000   4.920   5.612   6.092
 7686TIP3    H123001   5.014   5.610   6.077
 7686TIP3    H223002   4.884   5.556   6.024
 7687TIP3   OH223003   2.397   4.826   5.702
 7687TIP3    H123004   2.333   4.797   5.637
 7687TIP3    H223005   2.357   4.903   5.742
 7688TIP3   OH223006   4.755   2.387   6.210
 7688TIP3    H123007   4.662   2.384   6.190
 7688TIP3    H223008   4.771   2.310   6.265
 7689TIP3   OH223009   7.212   1.098   5.918
 7689TIP3    H123010   7.162   1.161   5.971
 7689TIP3    H223011   7.146   1.037   5.885
 7690TIP3   OH223012   3.778   1.488   6.343
 7690TIP3    H123013   3.801   1.424   6.276
 7690TIP3    H223014   3.862   1.515   6.380
 7691TIP3   OH223015   5.396   4.042   5.664
 7691TIP3    H123016   5.478   3.995   5.678
 7691TIP3    H223017   5.421   4.134   5.666
 7692TIP3   OH223018   3.073   5.153   2.926
 7692TIP3    H123019   3.044   5.065   2.952
 7692TIP3    H223020   3.159   5.163   2.965
 7693TIP3   OH223021   4.633   5.286   1.057
 7693TIP3    H123022   4.712   5.328   1.091
 7693TIP3    H223023   4.564   5.311   1.119
 7694TIP3   OH223024   1.188   5.679   3.731
 7694TIP3    H123025   1.254   5.747   3.742
 7694TIP3    H223026   1.169   5.649   3.820
 7695TIP3   OH223027   4.571   1.581   5.102
 7695TIP3    H123028   4.603   1.491   5.100
 7695TIP3    H223029   4.571   1.608   5.010
 7696TIP3   OH223030   0.545   0.905   3.556
 7696TIP3    H123031   0.614   0.952   3.510
 7696TIP3    H223032   0.506   0.970   3.614
 7697TIP3   OH223033   1.683   5.586   2.638
 7697TIP3    H123034   1.693   5.608   2.730
 7697TIP3    H223035   1.624   5.653   2.603
 7698TIP3   OH223036   1.895   4.002   1.947
 7698TIP3    H123037   1.980   4.035   1.917
 7698TIP3    H223038   1.907   3.987   2.041
 7699TIP3   OH223039   3.725   6.219   3.435
 7699TIP3    H123040   3.744   6.266   3.517
 7699TIP3    H223041   3.717   6.288   3.370
 7700TIP3   OH223042   5.302   3.253   2.955
 7700TIP3    H123043   5.263   3.331   2.994
 7700TIP3    H223044   5.390   3.279   2.930
 7701TIP3   OH223045   1.031   1.668   0.762
 7701TIP3    H123046   1.046   1.759   0.738
 7701TIP3    H223047   0.962   1.638   0.702
 7702TIP3   OH223048   6.717   1.760   1.301
 7702TIP3    H123049   6.678   1.725   1.221
 7702TIP3    H223050   6.781   1.825   1.271
 7703TIP3   OH223051   7.586   6.110   4.716
 7703TIP3    H123052   7.543   6.025   4.719
 7703TIP3    H223053   7.634   6.109   4.633
 7704TIP3   OH223054   1.163   5.153   0.829
 7704TIP3    H123055   1.209   5.234   0.848
 7704TIP3    H223056   1.206   5.088   0.885
 7705TIP3   OH223057   2.283   4.277   2.762
 7705TIP3    H123058   2.227   4.335   2.813
 7705TIP3    H223059   2.223   4.229   2.705
 7706TIP3   OH223060   7.037   5.943   5.320
 7706TIP3    H123061   7.034   6.032   5.284
 7706TIP3    H223062   7.095   5.950   5.396
 7707TIP3   OH223063   2.809   3.292   5.894
 7707TIP3    H123064   2.900   3.319   5.881
 7707TIP3    H223065   2.787   3.242   5.815
 7708TIP3   OH223066   5.679   6.888   0.310
 7708TIP3    H123067   5.614   6.903   0.379
 7708TIP3    H223068   5.760   6.922   0.346
 7709TIP3   OH223069   5.240   5.901   0.433
 7709TIP3    H123070   5.301   5.905   0.507
 7709TIP3    H223071   5.226   5.807   0.419
 7710TIP3   OH223072   5.361   0.483   3.553
 7710TIP3    H123073   5.453   0.498   3.576
 7710TIP3    H223074   5.330   0.567   3.520
 7711TIP3   OH223075   6.818   7.294   2.430
 7711TIP3    H123076   6.774   7.267   2.350
 7711TIP3    H223077   6.771   7.249   2.501
 7712TIP3   OH223078   5.879   4.493   5.992
 7712TIP3    H123079   5.871   4.580   5.954
 7712TIP3    H223080   5.880   4.508   6.087
 7713TIP3   OH223081   2.592   2.554   0.685
 7713TIP3    H123082   2.528   2.599   0.740
 7713TIP3    H223083   2.584   2.462   0.708
 7714TIP3   OH223084   4.537   3.569   1.166
 7714TIP3    H123085   4.621   3.529   1.189
 7714TIP3    H223086   4.558   3.627   1.093
 7715TIP3   OH223087   5.523   5.465   0.054
 7715TIP3    H123088   5.478   5.381   0.062
 7715TIP3    H223089   5.545   5.472  -0.038
 7716TIP3   OH223090   1.545   3.497   3.591
 7716TIP3    H123091   1.625   3.447   3.575
 7716TIP3    H223092   1.476   3.432   3.591
 7717TIP3   OH223093   1.883   5.407   6.700
 7717TIP3    H123094   1.843   5.478   6.750
 7717TIP3    H223095   1.972   5.438   6.681
 7718TIP3   OH223096   1.632   3.568   0.152
 7718TIP3    H123097   1.603   3.657   0.131
 7718TIP3    H223098   1.676   3.577   0.236
 7719TIP3   OH223099   3.401   4.074   3.220
 7719TIP3    H123100   3.305   4.072   3.228
 7719TIP3    H223101   3.418   4.143   3.156
 7720TIP3   OH223102   7.575   0.739   6.478
 7720TIP3    H123103   7.481   0.754   6.462
 7720TIP3    H223104   7.577   0.676   6.550
 7721TIP3   OH223105   1.045   3.998   3.109
 7721TIP3    H123106   0.972   3.999   3.047
 7721TIP3    H223107   1.092   4.079   3.091
 7722TIP3   OH223108   5.137   4.734   5.407
 7722TIP3    H123109   5.095   4.820   5.411
 7722TIP3    H223110   5.110   4.698   5.322
 7723TIP3   OH223111   6.349   1.374   4.528
 7723TIP3    H123112   6.402   1.426   4.589
 7723TIP3    H223113   6.352   1.423   4.446
 7724TIP3   OH223114   6.673   3.594   1.931
 7724TIP3    H123115   6.666   3.606   1.836
 7724TIP3    H223116   6.764   3.570   1.945
 7725TIP3   OH223117   1.163   6.168   5.788
 7725TIP3    H123118   1.069   6.183   5.797
 7725TIP3    H223119   1.170   6.081   5.748
 7726TIP3   OH223120   4.558   5.918   6.145
 7726TIP3    H123121   4.617   5.957   6.209
 7726TIP3    H223122   4.611   5.908   6.066
 7727TIP3   OH223123   7.109   6.009   1.163
 7727TIP3    H123124   7.159   6.032   1.241
 7727TIP3    H223125   7.018   6.002   1.193
 7728TIP3   OH223126   4.338   4.111   3.958
 7728TIP3    H123127   4.353   4.149   4.044
 7728TIP3    H223128   4.382   4.171   3.897
 7729TIP3   OH223129   0.331   0.132   4.161
 7729TIP3    H123130   0.405   0.192   4.154
 7729TIP3    H223131   0.264   0.169   4.104
 7730TIP3   OH223132   3.019   4.450   4.490
 7730TIP3    H123133   3.059   4.521   4.441
 7730TIP3    H223134   2.997   4.489   4.575
 7731TIP3   OH223135   6.867   0.691   4.312
 7731TIP3    H123136   6.860   0.639   4.232
 7731TIP3    H223137   6.798   0.756   4.305
 7732TIP3   OH223138   4.986   2.382   2.166
 7732TIP3    H123139   4.946   2.315   2.111
 7732TIP3    H223140   5.064   2.339   2.203
 7733TIP3   OH223141   2.308   0.683   4.462
 7733TIP3    H123142   2.289   0.726   4.546
 7733TIP3    H223143   2.380   0.734   4.425
 7734TIP3   OH223144   6.821   1.086   6.383
 7734TIP3    H123145   6.825   1.072   6.477
 7734TIP3    H223146   6.871   1.166   6.368
 7735TIP3   OH223147   4.353   7.697   0.144
 7735TIP3    H123148   4.335   7.660   0.231
 7735TIP3    H223149   4.273   7.683   0.095
 7736TIP3   OH223150   0.501   5.065   2.275
 7736TIP3    H123151   0.565   5.105   2.216
 7736TIP3    H223152   0.438   5.135   2.293
 7737TIP3   OH223153   5.045   3.381   5.408
 7737TIP3    H123154   5.090   3.430   5.340
 7737TIP3    H223155   5.115   3.345   5.463
 7738TIP3   OH223156   0.235   7.145   4.535
 7738TIP3    H123157   0.316   7.130   4.488
 7738TIP3    H223158   0.195   7.220   4.491
 7739TIP3   OH223159   7.371   6.119   2.937
 7739TIP3    H123160   7.388   6.190   2.999
 7739TIP3    H223161   7.408   6.041   2.979
 7740TIP3   OH223162   2.172   3.773   2.262
 7740TIP3    H123163   2.141   3.682   2.264
 7740TIP3    H223164   2.093   3.825   2.247
 7741TIP3   OH223165   3.903   4.564   4.328
 7741TIP3    H123166   3.859   4.481   4.311
 7741TIP3    H223167   3.873   4.622   4.258
 7742TIP3   OH223168   7.167   6.527   5.443
 7742TIP3    H123169   7.225   6.524   5.519
 7742TIP3    H223170   7.079   6.516   5.480
 7743TIP3   OH223171   5.238   3.978   3.873
 7743TIP3    H123172   5.152   3.948   3.900
 7743TIP3    H223173   5.263   4.043   3.939
 7744TIP3   OH223174  -0.022   1.165   4.064
 7744TIP3    H123175  -0.030   1.163   4.159
 7744TIP3    H223176   0.058   1.115   4.046
 7745TIP3   OH223177   3.189   1.600   2.321
 7745TIP3    H123178   3.187   1.505   2.324
 7745TIP3    H223179   3.283   1.622   2.321
 7746TIP3   OH223180   6.460   4.616   1.073
 7746TIP3    H123181   6.414   4.698   1.058
 7746TIP3    H223182   6.547   4.641   1.102
 7747TIP3   OH223183   4.439   2.031   1.418
 7747TIP3    H123184   4.492   1.977   1.477
 7747TIP3    H223185   4.378   1.969   1.377
 7748TIP3   OH223186   2.447   7.805   3.009
 7748TIP3    H123187   2.389   7.737   3.041
 7748TIP3    H223188   2.389   7.878   2.986
 7749TIP3   OH223189   6.118   6.656   2.795
 7749TIP3    H123190   6.053   6.630   2.861
 7749TIP3    H223191   6.081   6.626   2.712
 7750TIP3   OH223192   6.897   5.265   2.993
 7750TIP3    H123193   6.872   5.355   2.973
 7750TIP3    H223194   6.850   5.212   2.928
 7751TIP3   OH223195   7.296   0.471   6.741
 7751TIP3    H123196   7.358   0.544   6.730
 7751TIP3    H223197   7.233   0.503   6.806
 7752TIP3   OH223198   2.602   2.554   1.335
 7752TIP3    H123199   2.528   2.609   1.360
 7752TIP3    H223200   2.562   2.480   1.288
 7753TIP3   OH223201   0.365   0.700   0.407
 7753TIP3    H123202   0.278   0.718   0.442
 7753TIP3    H223203   0.425   0.749   0.463
 7754TIP3   OH223204   3.430   1.430   2.538
 7754TIP3    H123205   3.502   1.462   2.484
 7754TIP3    H223206   3.368   1.392   2.475
 7755TIP3   OH223207   6.975   2.042   6.670
 7755TIP3    H123208   6.984   2.126   6.713
 7755TIP3    H223209   7.029   1.982   6.722
 7756TIP3   OH223210   7.881   0.722   1.554
 7756TIP3    H123211   7.878   0.718   1.650
 7756TIP3    H223212   7.920   0.639   1.528
 7757TIP3   OH223213   3.705   3.816   5.600
 7757TIP3    H123214   3.687   3.909   5.613
 7757TIP3    H223215   3.800   3.808   5.613
 7758TIP3   OH223216   2.986   4.634   3.120
 7758TIP3    H123217   2.981   4.578   3.043
 7758TIP3    H223218   2.966   4.576   3.194
 7759TIP3   OH223219   2.443   6.566   5.734
 7759TIP3    H123220   2.471   6.500   5.798
 7759TIP3    H223221   2.383   6.519   5.676
 7760TIP3   OH223222   0.808   5.200   1.329
 7760TIP3    H123223   0.843   5.289   1.323
 7760TIP3    H223224   0.871   5.147   1.280
 7761TIP3   OH223225   4.595   5.602   3.962
 7761TIP3    H123226   4.509   5.640   3.979
 7761TIP3    H223227   4.620   5.561   4.044
 7762TIP3   OH223228   2.859   5.995   6.070
 7762TIP3    H123229   2.937   6.038   6.102
 7762TIP3    H223230   2.870   5.903   6.094
 7763TIP3   OH223231   7.791   2.248   5.381
 7763TIP3    H123232   7.874   2.276   5.419
 7763TIP3    H223233   7.746   2.202   5.452
 7764TIP3   OH223234   0.543   1.818   5.924
 7764TIP3    H123235   0.620   1.800   5.978
 7764TIP3    H223236   0.472   1.769   5.966
 7765TIP3   OH223237   7.861   3.811   3.276
 7765TIP3    H123238   7.899   3.817   3.364
 7765TIP3    H223239   7.936   3.819   3.217
 7766TIP3   OH223240   4.770   4.077   6.180
 7766TIP3    H123241   4.743   4.084   6.088
 7766TIP3    H223242   4.862   4.104   6.180
 7767TIP3   OH223243   7.452   5.237   6.310
 7767TIP3    H123244   7.527   5.181   6.288
 7767TIP3    H223245   7.458   5.310   6.249
 7768TIP3   OH223246   3.608   7.570   5.295
 7768TIP3    H123247   3.606   7.499   5.359
 7768TIP3    H223248   3.548   7.541   5.225
 7769TIP3   OH223249   3.032   5.927   3.835
 7769TIP3    H123250   3.064   6.008   3.876
 7769TIP3    H223251   3.052   5.939   3.742
 7770TIP3   OH223252   3.834   0.509   4.285
 7770TIP3    H123253   3.748   0.507   4.243
 7770TIP3    H223254   3.865   0.418   4.279
 7771TIP3   OH223255   3.446   5.449   3.320
 7771TIP3    H123256   3.359   5.441   3.360
 7771TIP3    H223257   3.501   5.389   3.371
 7772TIP3   OH223258   4.267   5.582   5.987
 7772TIP3    H123259   4.252   5.490   6.009
 7772TIP3    H223260   4.336   5.580   5.921
 7773TIP3   OH223261   0.943   6.297   3.073
 7773TIP3    H123262   0.989   6.271   3.153
 7773TIP3    H223263   0.993   6.371   3.040
 7774TIP3   OH223264   8.216   5.093   2.889
 7774TIP3    H123265   8.160   5.018   2.870
 7774TIP3    H223266   8.194   5.157   2.821
 7775TIP3   OH223267   6.481   7.126   2.996
 7775TIP3    H123268   6.397   7.133   3.042
 7775TIP3    H223269   6.463   7.154   2.907
 7776TIP3   OH223270   1.276   5.986   4.887
 7776TIP3    H123271   1.327   5.979   4.806
 7776TIP3    H223272   1.205   6.047   4.865
 7777TIP3   OH223273   3.798   4.845   1.047
 7777TIP3    H123274   3.729   4.883   1.102
 7777TIP3    H223275   3.776   4.875   0.958
 7778TIP3   OH223276   4.661   2.431   3.846
 7778TIP3    H123277   4.639   2.483   3.768
 7778TIP3    H223278   4.689   2.346   3.811
 7779TIP3   OH223279   5.645   5.532   1.182
 7779TIP3    H123280   5.577   5.475   1.217
 7779TIP3    H223281   5.726   5.481   1.190
 7780TIP3   OH223282   0.245   2.681   4.602
 7780TIP3    H123283   0.231   2.776   4.598
 7780TIP3    H223284   0.340   2.671   4.601
 7781TIP3   OH223285   3.013   6.871   2.581
 7781TIP3    H123286   2.967   6.934   2.526
 7781TIP3    H223287   3.051   6.924   2.651
 7782TIP3   OH223288   2.072   3.944   0.793
 7782TIP3    H123289   2.089   3.890   0.716
 7782TIP3    H223290   2.138   4.013   0.788
 7783TIP3   OH223291   2.726   2.436   2.202
 7783TIP3    H123292   2.660   2.456   2.135
 7783TIP3    H223293   2.741   2.342   2.194
 7784TIP3   OH223294   5.119   2.354   4.324
 7784TIP3    H123295   5.205   2.357   4.367
 7784TIP3    H223296   5.068   2.292   4.377
 7785TIP3   OH223297   0.152   2.637   2.267
 7785TIP3    H123298   0.234   2.687   2.265
 7785TIP3    H223299   0.105   2.667   2.189
 7786TIP3   OH223300   6.440   3.865   1.158
 7786TIP3    H123301   6.503   3.893   1.224
 7786TIP3    H223302   6.426   3.943   1.104
 7787TIP3   OH223303   2.500   0.290   1.382
 7787TIP3    H123304   2.572   0.263   1.440
 7787TIP3    H223305   2.520   0.247   1.298
 7788TIP3   OH223306   6.562   5.867   6.177
 7788TIP3    H123307   6.531   5.861   6.086
 7788TIP3    H223308   6.592   5.958   6.186
 7789TIP3   OH223309   5.605   3.318   2.724
 7789TIP3    H123310   5.699   3.322   2.740
 7789TIP3    H223311   5.569   3.389   2.778
 7790TIP3   OH223312   1.254   3.896   4.703
 7790TIP3    H123313   1.255   3.966   4.637
 7790TIP3    H223314   1.204   3.933   4.776
 7791TIP3   OH223315   2.740   4.304   2.048
 7791TIP3    H123316   2.694   4.311   1.965
 7791TIP3    H223317   2.779   4.216   2.046
 7792TIP3   OH223318   5.826   0.985   3.608
 7792TIP3    H123319   5.839   0.967   3.515
 7792TIP3    H223320   5.808   0.899   3.647
 7793TIP3   OH223321   1.406   6.106   1.920
 7793TIP3    H123322   1.498   6.119   1.894
 7793TIP3    H223323   1.364   6.191   1.906
 7794TIP3   OH223324   0.820   2.516   6.614
 7794TIP3    H123325   0.885   2.446   6.604
 7794TIP3    H223326   0.744   2.472   6.651
 7795TIP3   OH223327   1.125   4.467   0.021
 7795TIP3    H123328   1.086   4.519  -0.050
 7795TIP3    H223329   1.145   4.532   0.089
 7796TIP3   OH223330   6.735   2.920   3.307
 7796TIP3    H123331   6.815   2.894   3.262
 7796TIP3    H223332   6.731   3.015   3.297
 7797TIP3   OH223333   7.246   6.883   4.386
 7797TIP3    H123334   7.261   6.855   4.296
 7797TIP3    H223335   7.185   6.957   4.379
 7798TIP3   OH223336   4.890   1.607   2.779
 7798TIP3    H123337   4.840   1.655   2.844
 7798TIP3    H223338   4.836   1.530   2.759
 7799TIP3   OH223339   1.892   1.425   3.179
 7799TIP3    H123340   1.903   1.346   3.127
 7799TIP3    H223341   1.880   1.495   3.115
 7800TIP3   OH223342   6.032   3.869   5.182
 7800TIP3    H123343   6.070   3.947   5.222
 7800TIP3    H223344   6.036   3.886   5.087
 7801TIP3   OH223345   6.681   0.051   3.552
 7801TIP3    H123346   6.630  -0.027   3.532
 7801TIP3    H223347   6.749   0.054   3.486
 7802TIP3   OH223348   1.394   5.637   6.351
 7802TIP3    H123349   1.396   5.608   6.260
 7802TIP3    H223350   1.452   5.713   6.354
 7803TIP3   OH223351   5.189   3.535   4.687
 7803TIP3    H123352   5.240   3.511   4.764
 7803TIP3    H223353   5.218   3.474   4.619
 7804TIP3   OH223354   4.055   7.680   3.089
 7804TIP3    H123355   4.139   7.727   3.090
 7804TIP3    H223356   3.989   7.749   3.090
 7805TIP3   OH223357   1.172   0.635   0.993
 7805TIP3    H123358   1.223   0.634   1.074
 7805TIP3    H223359   1.195   0.719   0.952
 7806TIP3   OH223360   2.770   4.227   4.616
 7806TIP3    H123361   2.834   4.228   4.545
 7806TIP3    H223362   2.698   4.281   4.584
 7807TIP3   OH223363   3.290   7.140   1.133
 7807TIP3    H123364   3.313   7.160   1.223
 7807TIP3    H223365   3.195   7.126   1.134
 7808TIP3   OH223366   2.636   6.114   3.623
 7808TIP3    H123367   2.698   6.156   3.682
 7808TIP3    H223368   2.691   6.079   3.552
 7809TIP3   OH223369   3.478   6.554   6.637
 7809TIP3    H123370   3.513   6.591   6.718
 7809TIP3    H223371   3.425   6.625   6.600
 7810TIP3   OH223372   4.995   6.757   5.449
 7810TIP3    H123373   5.073   6.788   5.401
 7810TIP3    H223374   4.924   6.811   5.415
 7811TIP3   OH223375   5.342   3.623   0.134
 7811TIP3    H123376   5.274   3.669   0.185
 7811TIP3    H223377   5.299   3.599   0.053
 7812TIP3   OH223378   7.821   5.647   1.746
 7812TIP3    H123379   7.850   5.574   1.691
 7812TIP3    H223380   7.735   5.670   1.712
 7813TIP3   OH223381   6.421   5.785   2.888
 7813TIP3    H123382   6.356   5.851   2.865
 7813TIP3    H223383   6.459   5.759   2.803
 7814TIP3   OH223384   4.937   7.647   4.984
 7814TIP3    H123385   4.895   7.605   5.059
 7814TIP3    H223386   4.883   7.622   4.909
 7815TIP3   OH223387   0.858   5.959   1.275
 7815TIP3    H123388   0.832   5.937   1.364
 7815TIP3    H223389   0.907   5.883   1.244
 7816TIP3   OH223390  -0.019   4.172   6.569
 7816TIP3    H123391   0.048   4.223   6.615
 7816TIP3    H223392  -0.101   4.214   6.591
 7817TIP3   OH223393   1.827   1.037   0.084
 7817TIP3    H123394   1.773   1.115   0.101
 7817TIP3    H223395   1.787   0.969   0.137
 7818TIP3   OH223396   5.714   5.752   4.799
 7818TIP3    H123397   5.806   5.725   4.793
 7818TIP3    H223398   5.665   5.671   4.788
 7819TIP3   OH223399   4.351   0.922   3.915
 7819TIP3    H123400   4.279   0.871   3.877
 7819TIP3    H223401   4.399   0.955   3.839
 7820TIP3   OH223402   0.085   3.698   4.244
 7820TIP3    H123403   0.165   3.653   4.216
 7820TIP3    H223404   0.102   3.790   4.225
 7821TIP3   OH223405   1.105   4.784   1.154
 7821TIP3    H123406   1.090   4.769   1.061
 7821TIP3    H223407   1.022   4.817   1.187
 7822TIP3   OH223408   1.835   6.284   5.774
 7822TIP3    H123409   1.794   6.216   5.827
 7822TIP3    H223410   1.884   6.338   5.836
 7823TIP3   OH223411   3.564   4.190   3.407
 7823TIP3    H123412   3.519   4.128   3.349
 7823TIP3    H223413   3.634   4.139   3.447
 7824TIP3   OH223414   5.193   3.058   3.741
 7824TIP3    H123415   5.185   3.030   3.832
 7824TIP3    H223416   5.243   2.989   3.698
 7825TIP3   OH223417   2.371   5.748   4.006
 7825TIP3    H123418   2.451   5.699   3.987
 7825TIP3    H223419   2.398   5.815   4.069
 7826TIP3   OH223420   1.514   5.276   4.154
 7826TIP3    H123421   1.500   5.307   4.244
 7826TIP3    H223422   1.497   5.182   4.158
 7827TIP3   OH223423   5.997   4.374   5.580
 7827TIP3    H123424   6.086   4.342   5.570
 7827TIP3    H223425   6.006   4.458   5.626
 7828TIP3   OH223426   2.787   1.668   5.036
 7828TIP3    H123427   2.748   1.595   5.085
 7828TIP3    H223428   2.712   1.709   4.993
 7829TIP3   OH223429   3.411   2.543   3.902
 7829TIP3    H123430   3.460   2.495   3.969
 7829TIP3    H223431   3.379   2.621   3.947
 7830TIP3   OH223432   7.319   2.595   3.078
 7830TIP3    H123433   7.396   2.640   3.045
 7830TIP3    H223434   7.350   2.507   3.100
 7831TIP3   OH223435   1.347   0.009   5.977
 7831TIP3    H123436   1.423   0.048   5.935
 7831TIP3    H223437   1.272   0.047   5.932
 7832TIP3   OH223438   3.893   5.807   3.057
 7832TIP3    H123439   3.853   5.762   3.131
 7832TIP3    H223440   3.819   5.828   2.999
 7833TIP3   OH223441   2.169   2.451   0.707
 7833TIP3    H123442   2.123   2.400   0.640
 7833TIP3    H223443   2.197   2.387   0.772
 7834TIP3   OH223444   5.259   2.664   6.493
 7834TIP3    H123445   5.167   2.690   6.488
 7834TIP3    H223446   5.264   2.609   6.572
 7835TIP3   OH223447   1.404   2.660   5.568
 7835TIP3    H123448   1.348   2.646   5.492
 7835TIP3    H223449   1.358   2.724   5.621
 7836TIP3   OH223450   2.878   0.222   3.487
 7836TIP3    H123451   2.854   0.148   3.543
 7836TIP3    H223452   2.973   0.216   3.480
 7837TIP3   OH223453   4.147   5.247   1.970
 7837TIP3    H123454   4.108   5.278   1.888
 7837TIP3    H223455   4.157   5.152   1.957
 7838TIP3   OH223456   0.312   5.547   0.484
 7838TIP3    H123457   0.227   5.591   0.482
 7838TIP3    H223458   0.324   5.523   0.576
 7839TIP3   OH223459   4.140   6.283   1.961
 7839TIP3    H123460   4.064   6.228   1.939
 7839TIP3    H223461   4.213   6.222   1.963
 7840TIP3   OH223462   5.595   1.016   3.136
 7840TIP3    H123463   5.603   1.081   3.205
 7840TIP3    H223464   5.685   0.997   3.111
 7841TIP3   OH223465   3.031   1.622   2.563
 7841TIP3    H123466   3.073   1.654   2.484
 7841TIP3    H223467   2.971   1.553   2.533
 7842TIP3   OH223468   4.600   1.165   0.443
 7842TIP3    H123469   4.616   1.187   0.351
 7842TIP3    H223470   4.647   1.232   0.492
 7843TIP3   OH223471   1.060   4.699   5.427
 7843TIP3    H123472   1.015   4.717   5.345
 7843TIP3    H223473   1.024   4.762   5.489
 7844TIP3   OH223474   8.090   0.359   3.743
 7844TIP3    H123475   8.033   0.322   3.675
 7844TIP3    H223476   8.088   0.453   3.726
 7845TIP3   OH223477   3.405   0.410   2.966
 7845TIP3    H123478   3.452   0.392   2.884
 7845TIP3    H223479   3.332   0.349   2.965
 7846TIP3   OH223480   5.926   7.461   2.850
 7846TIP3    H123481   5.917   7.549   2.814
 7846TIP3    H223482   5.978   7.414   2.784
 7847TIP3   OH223483   3.157   5.903   3.234
 7847TIP3    H123484   3.208   5.850   3.172
 7847TIP3    H223485   3.189   5.876   3.320
 7848TIP3   OH223486   8.242   6.796   6.690
 7848TIP3    H123487   8.247   6.743   6.611
 7848TIP3    H223488   8.237   6.887   6.659
 7849TIP3   OH223489   4.322   6.396   4.658
 7849TIP3    H123490   4.338   6.469   4.719
 7849TIP3    H223491   4.333   6.435   4.571
 7850TIP3   OH223492   4.307   3.974   0.155
 7850TIP3    H123493   4.323   4.034   0.083
 7850TIP3    H223494   4.225   3.930   0.132
 7851TIP3   OH223495   2.136   7.070   2.378
 7851TIP3    H123496   2.169   7.014   2.308
 7851TIP3    H223497   2.196   7.144   2.381
 7852TIP3   OH223498   3.235   3.062   5.232
 7852TIP3    H123499   3.248   2.990   5.294
 7852TIP3    H223500   3.280   3.136   5.271
 7853TIP3   OH223501   1.347   0.420   3.279
 7853TIP3    H123502   1.258   0.386   3.271
 7853TIP3    H223503   1.385   0.370   3.351
 7854TIP3   OH223504   7.882   6.326   5.691
 7854TIP3    H123505   7.943   6.259   5.659
 7854TIP3    H223506   7.936   6.404   5.702
 7855TIP3   OH223507   1.169   7.776   4.612
 7855TIP3    H123508   1.081   7.813   4.618
 7855TIP3    H223509   1.195   7.792   4.521
 7856TIP3   OH223510   4.592   6.002   2.008
 7856TIP3    H123511   4.659   6.063   1.976
 7856TIP3    H223512   4.582   5.939   1.938
 7857TIP3   OH223513   2.688   4.233   0.139
 7857TIP3    H123514   2.754   4.212   0.073
 7857TIP3    H223515   2.606   4.239   0.089
 7858TIP3   OH223516   0.187   4.857   4.685
 7858TIP3    H123517   0.120   4.790   4.676
 7858TIP3    H223518   0.153   4.932   4.636
 7859TIP3   OH223519   2.300   6.948   2.044
 7859TIP3    H123520   2.293   6.854   2.061
 7859TIP3    H223521   2.354   6.981   2.116
 7860TIP3   OH223522   1.257   4.148   6.533
 7860TIP3    H123523   1.341   4.105   6.527
 7860TIP3    H223524   1.274   4.239   6.509
 7861TIP3   OH223525   3.344   5.482   1.845
 7861TIP3    H123526   3.378   5.570   1.829
 7861TIP3    H223527   3.252   5.496   1.869
 7862TIP3   OH223528   1.099   0.497   2.125
 7862TIP3    H123529   1.021   0.551   2.113
 7862TIP3    H223530   1.133   0.484   2.036
 7863TIP3   OH223531   8.337   0.718   4.802
 7863TIP3    H123532   8.263   0.660   4.818
 7863TIP3    H223533   8.305   0.781   4.738
 7864TIP3   OH223534   6.731   4.577   1.235
 7864TIP3    H123535   6.802   4.589   1.173
 7864TIP3    H223536   6.747   4.643   1.303
 7865TIP3   OH223537   5.224   6.356   0.965
 7865TIP3    H123538   5.193   6.432   0.915
 7865TIP3    H223539   5.145   6.304   0.981
 7866TIP3   OH223540   3.311   5.301   0.797
 7866TIP3    H123541   3.306   5.291   0.702
 7866TIP3    H223542   3.281   5.391   0.812
 7867TIP3   OH223543   5.555   3.508   3.426
 7867TIP3    H123544   5.634   3.503   3.481
 7867TIP3    H223545   5.503   3.578   3.464
 7868TIP3   OH223546   2.350   4.237   4.379
 7868TIP3    H123547   2.385   4.161   4.424
 7868TIP3    H223548   2.324   4.205   4.293
 7869TIP3   OH223549   4.717   6.730   2.865
 7869TIP3    H123550   4.732   6.659   2.803
 7869TIP3    H223551   4.632   6.710   2.905
 7870TIP3   OH223552   2.508   5.121   5.436
 7870TIP3    H123553   2.482   5.076   5.517
 7870TIP3    H223554   2.603   5.126   5.441
 7871TIP3   OH223555   3.048   4.391   1.434
 7871TIP3    H123556   3.075   4.300   1.430
 7871TIP3    H223557   3.108   4.432   1.496
 7872TIP3   OH223558   0.761   7.793   5.817
 7872TIP3    H123559   0.726   7.723   5.763
 7872TIP3    H223560   0.688   7.818   5.873
 7873TIP3   OH223561   1.392   6.686   1.882
 7873TIP3    H123562   1.316   6.640   1.846
 7873TIP3    H223563   1.467   6.636   1.850
 7874TIP3   OH223564   2.843   0.259   1.312
 7874TIP3    H123565   2.785   0.310   1.369
 7874TIP3    H223566   2.931   0.288   1.335
 7875TIP3   OH223567   6.073   5.017   0.258
 7875TIP3    H123568   6.064   4.926   0.230
 7875TIP3    H223569   6.160   5.043   0.228
 7876TIP3   OH223570   3.179   5.901   4.212
 7876TIP3    H123571   3.217   5.847   4.281
 7876TIP3    H223572   3.166   5.987   4.253
 7877TIP3   OH223573   7.305   4.651   2.999
 7877TIP3    H123574   7.322   4.736   3.040
 7877TIP3    H223575   7.364   4.591   3.045
 7878TIP3   OH223576   2.212   0.552   3.713
 7878TIP3    H123577   2.148   0.618   3.685
 7878TIP3    H223578   2.268   0.539   3.637
 7879TIP3   OH223579   5.363   6.161   4.377
 7879TIP3    H123580   5.322   6.247   4.388
 7879TIP3    H223581   5.417   6.171   4.298
 7880TIP3   OH223582   8.001   2.812   0.577
 7880TIP3    H123583   8.035   2.892   0.537
 7880TIP3    H223584   7.933   2.843   0.637
 7881TIP3   OH223585   1.347   5.739   0.182
 7881TIP3    H123586   1.319   5.700   0.265
 7881TIP3    H223587   1.299   5.822   0.177
 7882TIP3   OH223588   8.051   7.589   1.327
 7882TIP3    H123589   7.991   7.515   1.316
 7882TIP3    H223590   8.137   7.552   1.307
 7883TIP3   OH223591   7.230   0.912   5.133
 7883TIP3    H123592   7.262   0.823   5.145
 7883TIP3    H223593   7.307   0.967   5.150
 7884TIP3   OH223594   1.216   0.077   4.385
 7884TIP3    H123595   1.135   0.115   4.352
 7884TIP3    H223596   1.277   0.151   4.389
 7885TIP3   OH223597   3.972   1.659   2.773
 7885TIP3    H123598   4.002   1.728   2.832
 7885TIP3    H223599   3.878   1.675   2.763
 7886TIP3   OH223600   5.324   6.025   2.983
 7886TIP3    H123601   5.402   6.080   2.979
 7886TIP3    H223602   5.253   6.086   3.002
 7887TIP3   OH223603   5.276   5.046   3.574
 7887TIP3    H123604   5.257   4.959   3.539
 7887TIP3    H223605   5.200   5.099   3.548
 7888TIP3   OH223606   1.064   2.457   5.804
 7888TIP3    H123607   1.031   2.493   5.722
 7888TIP3    H223608   1.157   2.480   5.805
 7889TIP3   OH223609   7.662   2.012   3.276
 7889TIP3    H123610   7.619   1.931   3.305
 7889TIP3    H223611   7.701   2.048   3.356
 7890TIP3   OH223612   4.890   7.241   4.504
 7890TIP3    H123613   4.805   7.278   4.529
 7890TIP3    H223614   4.893   7.156   4.547
 7891TIP3   OH223615   3.121   3.080   5.644
 7891TIP3    H123616   3.036   3.113   5.617
 7891TIP3    H223617   3.184   3.145   5.613
 7892TIP3   OH223618   0.929   5.138   2.611
 7892TIP3    H123619   0.916   5.073   2.543
 7892TIP3    H223620   0.875   5.108   2.684
 7893TIP3   OH223621   6.339   0.261   4.541
 7893TIP3    H123622   6.245   0.265   4.523
 7893TIP3    H223623   6.356   0.167   4.554
 7894TIP3   OH223624   2.438   7.018   1.406
 7894TIP3    H123625   2.350   7.051   1.387
 7894TIP3    H223626   2.422   6.938   1.456
 7895TIP3   OH223627   1.126   7.542   1.185
 7895TIP3    H123628   1.087   7.533   1.271
 7895TIP3    H223629   1.144   7.636   1.177
 7896TIP3   OH223630   0.644   1.312   3.604
 7896TIP3    H123631   0.705   1.369   3.650
 7896TIP3    H223632   0.641   1.346   3.515
 7897TIP3   OH223633   4.679   5.639   5.749
 7897TIP3    H123634   4.646   5.686   5.673
 7897TIP3    H223635   4.604   5.588   5.780
 7898TIP3   OH223636   0.489   1.668   2.621
 7898TIP3    H123637   0.418   1.726   2.592
 7898TIP3    H223638   0.514   1.703   2.707
 7899TIP3   OH223639   6.034   2.351   3.715
 7899TIP3    H123640   6.022   2.428   3.771
 7899TIP3    H223641   5.948   2.338   3.674
 7900TIP3   OH223642   1.141   0.931   3.890
 7900TIP3    H123643   1.105   0.865   3.949
 7900TIP3    H223644   1.074   0.942   3.822
 7901TIP3   OH223645   7.511   7.448   5.697
 7901TIP3    H123646   7.443   7.396   5.741
 7901TIP3    H223647   7.466   7.528   5.669
 7902TIP3   OH223648   7.161   4.172   2.249
 7902TIP3    H123649   7.165   4.199   2.340
 7902TIP3    H223650   7.223   4.099   2.242
 7903TIP3   OH223651   5.240   0.935   0.697
 7903TIP3    H123652   5.322   0.978   0.720
 7903TIP3    H223653   5.174   1.004   0.704
 7904TIP3   OH223654   5.916   3.201   2.231
 7904TIP3    H123655   5.961   3.261   2.290
 7904TIP3    H223656   5.952   3.221   2.145
 7905TIP3   OH223657   4.255   7.820   3.412
 7905TIP3    H123658   4.211   7.765   3.478
 7905TIP3    H223659   4.345   7.789   3.412
 7906TIP3   OH223660   2.066   2.722   4.305
 7906TIP3    H123661   2.024   2.796   4.348
 7906TIP3    H223662   2.045   2.647   4.360
 7907TIP3   OH223663   1.028   6.205   4.864
 7907TIP3    H123664   1.012   6.125   4.814
 7907TIP3    H223665   1.050   6.271   4.799
 7908TIP3   OH223666   2.657   0.088   3.828
 7908TIP3    H123667   2.599   0.083   3.752
 7908TIP3    H223668   2.651   0.001   3.867
 7909TIP3   OH223669   7.906   2.045   4.161
 7909TIP3    H123670   7.912   2.136   4.191
 7909TIP3    H223671   7.869   1.998   4.236
 7910TIP3   OH223672   1.660   0.781   6.084
 7910TIP3    H123673   1.619   0.740   6.160
 7910TIP3    H223674   1.663   0.874   6.105
 7911TIP3   OH223675   4.724   0.375   1.900
 7911TIP3    H123676   4.687   0.450   1.946
 7911TIP3    H223677   4.786   0.337   1.962
 7912TIP3   OH223678   5.556   7.587   4.931
 7912TIP3    H123679   5.640   7.571   4.889
 7912TIP3    H223680   5.576   7.642   5.007
 7913TIP3   OH223681   2.264   3.078   3.634
 7913TIP3    H123682   2.278   3.172   3.621
 7913TIP3    H223683   2.340   3.050   3.685
 7914TIP3   OH223684   3.486   0.390   4.947
 7914TIP3    H123685   3.393   0.405   4.930
 7914TIP3    H223686   3.507   0.310   4.899
 7915TIP3   OH223687   6.810   7.619   4.236
 7915TIP3    H123688   6.812   7.566   4.316
 7915TIP3    H223689   6.787   7.707   4.266
 7916TIP3   OH223690   5.994   3.480   4.293
 7916TIP3    H123691   6.002   3.503   4.386
 7916TIP3    H223692   5.923   3.536   4.261
 7917TIP3   OH223693   3.315   2.148   5.767
 7917TIP3    H123694   3.276   2.126   5.852
 7917TIP3    H223695   3.401   2.185   5.789
 7918TIP3   OH223696   3.648   1.917   3.054
 7918TIP3    H123697   3.663   1.949   2.965
 7918TIP3    H223698   3.730   1.937   3.100
 7919TIP3   OH223699   5.967   3.688   2.684
 7919TIP3    H123700   5.998   3.636   2.758
 7919TIP3    H223701   6.026   3.664   2.612
 7920TIP3   OH223702   5.699   1.944   3.853
 7920TIP3    H123703   5.661   1.922   3.767
 7920TIP3    H223704   5.793   1.951   3.836
 7921TIP3   OH223705   5.941   6.317   4.134
 7921TIP3    H123706   5.851   6.335   4.162
 7921TIP3    H223707   5.992   6.390   4.166
 7922TIP3   OH223708   6.333   7.766   4.246
 7922TIP3    H123709   6.274   7.745   4.318
 7922TIP3    H223710   6.346   7.861   4.251
 7923TIP3   OH223711   6.427   5.127   6.421
 7923TIP3    H123712   6.459   5.047   6.379
 7923TIP3    H223713   6.468   5.126   6.508
 7924TIP3   OH223714   6.476   3.438   2.977
 7924TIP3    H123715   6.408   3.380   3.011
 7924TIP3    H223716   6.555   3.385   2.979
 7925TIP3   OH223717   2.535   0.102   6.476
 7925TIP3    H123718   2.544   0.197   6.479
 7925TIP3    H223719   2.440   0.087   6.476
 7926TIP3   OH223720   2.077   1.143   2.516
 7926TIP3    H123721   2.082   1.144   2.421
 7926TIP3    H223722   2.065   1.051   2.539
 7927TIP3   OH223723   4.454   4.936   5.982
 7927TIP3    H123724   4.497   4.878   6.045
 7927TIP3    H223725   4.370   4.957   6.023
 7928TIP3   OH223726   2.264   1.456   3.748
 7928TIP3    H123727   2.175   1.475   3.719
 7928TIP3    H223728   2.310   1.428   3.669
 7929TIP3   OH223729   5.676   4.154   0.706
 7929TIP3    H123730   5.587   4.186   0.691
 7929TIP3    H223731   5.732   4.221   0.666
 7930TIP3   OH223732   2.632   7.070   1.773
 7930TIP3    H123733   2.720   7.066   1.737
 7930TIP3    H223734   2.592   7.146   1.732
 7931TIP3   OH223735   1.639   6.374   5.589
 7931TIP3    H123736   1.572   6.310   5.563
 7931TIP3    H223737   1.697   6.326   5.648
 7932TIP3   OH223738   8.044   4.687   3.879
 7932TIP3    H123739   8.008   4.772   3.855
 7932TIP3    H223740   8.136   4.706   3.901
 7933TIP3   OH223741   2.574   5.628   3.858
 7933TIP3    H123742   2.625   5.564   3.907
 7933TIP3    H223743   2.637   5.696   3.834
 7934TIP3   OH223744   0.140   5.974   0.376
 7934TIP3    H123745   0.134   5.881   0.397
 7934TIP3    H223746   0.195   5.978   0.297
 7935TIP3   OH223747   7.287   4.505   1.456
 7935TIP3    H123748   7.316   4.543   1.539
 7935TIP3    H223749   7.360   4.449   1.429
 7936TIP3   OH223750   7.875   4.540   0.614
 7936TIP3    H123751   7.843   4.629   0.628
 7936TIP3    H223752   7.800   4.484   0.635
 7937TIP3   OH223753   3.014   2.124   0.866
 7937TIP3    H123754   2.980   2.108   0.778
 7937TIP3    H223755   3.103   2.156   0.852
 7938TIP3   OH223756   2.765   7.214   4.082
 7938TIP3    H123757   2.800   7.285   4.135
 7938TIP3    H223758   2.684   7.250   4.045
 7939TIP3   OH223759   2.411   6.909   6.667
 7939TIP3    H123760   2.339   6.937   6.611
 7939TIP3    H223761   2.375   6.837   6.718
 7940TIP3   OH223762   5.538   5.802   4.253
 7940TIP3    H123763   5.508   5.712   4.266
 7940TIP3    H223764   5.505   5.850   4.328
 7941TIP3   OH223765   8.206   1.569   6.598
 7941TIP3    H123766   8.174   1.611   6.678
 7941TIP3    H223767   8.291   1.609   6.582
 7942TIP3   OH223768   3.502  -0.021   1.153
 7942TIP3    H123769   3.431   0.044   1.161
 7942TIP3    H223770   3.551  -0.012   1.235
 7943TIP3   OH223771   3.106   4.212   0.088
 7943TIP3    H123772   3.172   4.151   0.121
 7943TIP3    H223773   3.117   4.291   0.140
 7944TIP3   OH223774   1.982   7.049   6.112
 7944TIP3    H123775   2.035   7.116   6.071
 7944TIP3    H223776   2.044   6.979   6.133
 7945TIP3   OH223777   4.218   7.497   0.852
 7945TIP3    H123778   4.250   7.478   0.940
 7945TIP3    H223779   4.178   7.415   0.823
 7946TIP3   OH223780   1.458   0.279   6.064
 7946TIP3    H123781   1.414   0.239   5.989
 7946TIP3    H223782   1.551   0.276   6.042
 7947TIP3   OH223783   0.750   0.352   1.386
 7947TIP3    H123784   0.825   0.381   1.333
 7947TIP3    H223785   0.720   0.431   1.430
 7948TIP3   OH223786   2.272   0.525   4.169
 7948TIP3    H123787   2.291   0.602   4.222
 7948TIP3    H223788   2.239   0.461   4.232
 7949TIP3   OH223789   0.791   2.023   2.962
 7949TIP3    H123790   0.712   2.009   2.909
 7949TIP3    H223791   0.863   2.017   2.900
 7950TIP3   OH223792   4.404   1.402   3.314
 7950TIP3    H123793   4.339   1.448   3.367
 7950TIP3    H223794   4.412   1.454   3.234
 7951TIP3   OH223795   2.196   1.637   6.214
 7951TIP3    H123796   2.175   1.556   6.262
 7951TIP3    H223797   2.289   1.651   6.231
 7952TIP3   OH223798   5.619   0.702   6.316
 7952TIP3    H123799   5.694   0.728   6.370
 7952TIP3    H223800   5.657   0.681   6.231
 7953TIP3   OH223801   0.608   0.555   1.228
 7953TIP3    H123802   0.571   0.612   1.296
 7953TIP3    H223803   0.667   0.612   1.179
 7954TIP3   OH223804   0.511   3.977   5.607
 7954TIP3    H123805   0.581   3.920   5.637
 7954TIP3    H223806   0.489   4.031   5.683
 7955TIP3   OH223807   0.710   4.486   5.913
 7955TIP3    H123808   0.661   4.562   5.883
 7955TIP3    H223809   0.686   4.416   5.853
 7956TIP3   OH223810   2.501   7.379   0.235
 7956TIP3    H123811   2.571   7.391   0.171
 7956TIP3    H223812   2.484   7.468   0.268
 7957TIP3   OH223813   5.715   1.231   5.469
 7957TIP3    H123814   5.734   1.186   5.387
 7957TIP3    H223815   5.632   1.276   5.454
 7958TIP3   OH223816   7.676   7.501   2.151
 7958TIP3    H123817   7.627   7.545   2.081
 7958TIP3    H223818   7.713   7.423   2.110
 7959TIP3   OH223819   4.861   2.003   1.139
 7959TIP3    H123820   4.941   1.950   1.137
 7959TIP3    H223821   4.824   1.994   1.051
 7960TIP3   OH223822   6.355   7.265   0.673
 7960TIP3    H123823   6.379   7.234   0.586
 7960TIP3    H223824   6.381   7.194   0.732
 7961TIP3   OH223825   2.622   0.963   5.965
 7961TIP3    H123826   2.644   1.009   6.046
 7961TIP3    H223827   2.621   1.031   5.898
 7962TIP3   OH223828   1.667   6.760   0.253
 7962TIP3    H123829   1.759   6.775   0.230
 7962TIP3    H223830   1.622   6.754   0.169
 7963TIP3   OH223831   3.218   7.038   2.678
 7963TIP3    H123832   3.221   7.049   2.773
 7963TIP3    H223833   3.270   7.110   2.643
 7964TIP3   OH223834   5.900   7.680   3.939
 7964TIP3    H123835   5.892   7.599   3.889
 7964TIP3    H223836   5.951   7.655   4.016
 7965TIP3   OH223837   2.537   3.832   5.406
 7965TIP3    H123838   2.523   3.828   5.501
 7965TIP3    H223839   2.570   3.920   5.390
 7966TIP3   OH223840   0.220   6.295   2.926
 7966TIP3    H123841   0.265   6.290   3.011
 7966TIP3    H223842   0.235   6.209   2.887
 7967TIP3   OH223843   4.163   1.158   2.106
 7967TIP3    H123844   4.119   1.195   2.030
 7967TIP3    H223845   4.232   1.220   2.127
 7968TIP3   OH223846   0.088   3.997   2.984
 7968TIP3    H123847   0.171   4.034   2.954
 7968TIP3    H223848   0.021   4.051   2.942
 7969TIP3   OH223849   3.998   7.808   2.389
 7969TIP3    H123850   3.958   7.875   2.334
 7969TIP3    H223851   3.928   7.779   2.447
 7970TIP3   OH223852   1.170   3.626   1.382
 7970TIP3    H123853   1.100   3.675   1.337
 7970TIP3    H223854   1.123   3.567   1.441
 7971TIP3   OH223855   6.317   6.171   4.385
 7971TIP3    H123856   6.331   6.255   4.341
 7971TIP3    H223857   6.405   6.139   4.404
 7972TIP3   OH223858   4.877   0.547   5.843
 7972TIP3    H123859   4.915   0.587   5.764
 7972TIP3    H223860   4.919   0.462   5.849
 7973TIP3   OH223861   3.880   1.019   0.351
 7973TIP3    H123862   3.941   1.031   0.278
 7973TIP3    H223863   3.800   0.986   0.310
 7974TIP3   OH223864   8.024   1.934   6.515
 7974TIP3    H123865   8.016   1.886   6.597
 7974TIP3    H223866   8.118   1.928   6.493
 7975TIP3   OH223867   6.811   7.091   0.031
 7975TIP3    H123868   6.871   7.086   0.105
 7975TIP3    H223869   6.774   7.003   0.024
 7976TIP3   OH223870   1.695   1.164   4.065
 7976TIP3    H123871   1.753   1.122   4.130
 7976TIP3    H223872   1.705   1.110   3.986
 7977TIP3   OH223873   7.095   5.244   5.424
 7977TIP3    H123874   7.027   5.303   5.456
 7977TIP3    H223875   7.174   5.298   5.421
 7978TIP3   OH223876   6.433   6.140   2.544
 7978TIP3    H123877   6.429   6.229   2.507
 7978TIP3    H223878   6.510   6.101   2.502
 7979TIP3   OH223879   3.773   1.354   4.687
 7979TIP3    H123880   3.753   1.273   4.641
 7979TIP3    H223881   3.691   1.403   4.687
 7980TIP3   OH223882   0.427   1.706   3.091
 7980TIP3    H123883   0.362   1.757   3.140
 7980TIP3    H223884   0.508   1.718   3.140
 7981TIP3   OH223885   0.165   5.049   1.210
 7981TIP3    H123886   0.103   4.984   1.174
 7981TIP3    H223887   0.109   5.114   1.252
 7982TIP3   OH223888   6.947   6.837   3.746
 7982TIP3    H123889   7.017   6.781   3.781
 7982TIP3    H223890   6.989   6.886   3.675
 7983TIP3   OH223891   4.278   6.502   2.320
 7983TIP3    H123892   4.204   6.464   2.273
 7983TIP3    H223893   4.266   6.596   2.312
 7984TIP3   OH223894   4.116   2.916   2.813
 7984TIP3    H123895   4.189   2.864   2.779
 7984TIP3    H223896   4.043   2.894   2.755
 7985TIP3   OH223897   1.704   2.239   0.751
 7985TIP3    H123898   1.766   2.170   0.772
 7985TIP3    H223899   1.627   2.193   0.718
 7986TIP3   OH223900   5.580   4.973   3.596
 7986TIP3    H123901   5.549   5.057   3.631
 7986TIP3    H223902   5.501   4.920   3.589
 7987TIP3   OH223903   5.595   5.402   0.780
 7987TIP3    H123904   5.637   5.318   0.760
 7987TIP3    H223905   5.537   5.383   0.853
 7988TIP3   OH223906   6.291   2.360   4.355
 7988TIP3    H123907   6.273   2.400   4.440
 7988TIP3    H223908   6.380   2.387   4.335
 7989TIP3   OH223909   2.956   6.539   6.518
 7989TIP3    H123910   3.031   6.554   6.576
 7989TIP3    H223911   2.976   6.588   6.439
 7990TIP3   OH223912   3.005   4.369   2.331
 7990TIP3    H123913   2.965   4.452   2.356
 7990TIP3    H223914   3.080   4.360   2.389
 7991TIP3   OH223915   4.502   0.290   6.358
 7991TIP3    H123916   4.412   0.275   6.385
 7991TIP3    H223917   4.552   0.290   6.439
 7992TIP3   OH223918   5.994   4.755   2.608
 7992TIP3    H123919   5.985   4.831   2.665
 7992TIP3    H223920   6.036   4.689   2.662
 7993TIP3   OH223921   2.403   0.824   0.848
 7993TIP3    H123922   2.475   0.809   0.787
 7993TIP3    H223923   2.359   0.739   0.854
 7994TIP3   OH223924  -0.005   2.318   4.434
 7994TIP3    H123925  -0.041   2.396   4.392
 7994TIP3    H223926   0.085   2.342   4.456
 7995TIP3   OH223927   6.000   0.955   1.022
 7995TIP3    H123928   5.966   1.012   1.091
 7995TIP3    H223929   6.095   0.961   1.030
 7996TIP3   OH223930   4.581   0.021   5.005
 7996TIP3    H123931   4.517   0.090   5.019
 7996TIP3    H223932   4.663   0.067   4.989
 7997TIP3   OH223933   2.554   7.269   1.592
 7997TIP3    H123934   2.493   7.255   1.519
 7997TIP3    H223935   2.603   7.347   1.566
 7998TIP3   OH223936   1.726   4.826   3.741
 7998TIP3    H123937   1.804   4.782   3.707
 7998TIP3    H223938   1.757   4.876   3.816
 7999TIP3   OH223939   4.867   3.884   6.705
 7999TIP3    H123940   4.827   3.800   6.684
 7999TIP3    H223941   4.931   3.898   6.635
 8000TIP3   OH223942   1.937   7.139   5.745
 8000TIP3    H123943   2.001   7.204   5.716
 8000TIP3    H223944   1.961   7.059   5.700
 8001TIP3   OH223945   4.638   7.101   1.127
 8001TIP3    H123946   4.703   7.045   1.170
 8001TIP3    H223947   4.686   7.181   1.104
 8002TIP3   OH223948   7.334   1.301   0.562
 8002TIP3    H123949   7.405   1.247   0.530
 8002TIP3    H223950   7.309   1.355   0.486
 8003TIP3   OH223951   3.930   5.762   5.221
 8003TIP3    H123952   4.026   5.755   5.227
 8003TIP3    H223953   3.899   5.738   5.308
 8004TIP3   OH223954   2.572   5.342   2.243
 8004TIP3    H123955   2.539   5.431   2.230
 8004TIP3    H223956   2.579   5.306   2.155
 8005TIP3   OH223957   5.487   5.826   5.642
 8005TIP3    H123958   5.443   5.826   5.727
 8005TIP3    H223959   5.577   5.853   5.662
 8006TIP3   OH223960   7.630   0.411   1.216
 8006TIP3    H123961   7.537   0.432   1.219
 8006TIP3    H223962   7.652   0.386   1.306
 8007TIP3   OH223963   0.293   4.030   3.753
 8007TIP3    H123964   0.227   4.000   3.816
 8007TIP3    H223965   0.377   4.014   3.795
 8008TIP3   OH223966   2.847   0.324   2.701
 8008TIP3    H123967   2.768   0.271   2.690
 8008TIP3    H223968   2.824   0.408   2.662
 8009TIP3   OH223969   4.167   6.099   1.290
 8009TIP3    H123970   4.094   6.126   1.346
 8009TIP3    H223971   4.239   6.157   1.314
 8010TIP3   OH223972   3.803   6.830   4.187
 8010TIP3    H123973   3.734   6.783   4.140
 8010TIP3    H223974   3.883   6.783   4.166
 8011TIP3   OH223975   5.915   5.876   2.299
 8011TIP3    H123976   5.887   5.832   2.379
 8011TIP3    H223977   5.979   5.816   2.261
 8012TIP3   OH223978   3.059   1.693   0.446
 8012TIP3    H123979   3.126   1.665   0.508
 8012TIP3    H223980   3.107   1.738   0.377
 8013TIP3   OH223981   0.158   7.159   5.189
 8013TIP3    H123982   0.243   7.138   5.225
 8013TIP3    H223983   0.158   7.255   5.181
 8014TIP3   OH223984   7.363   4.485   5.379
 8014TIP3    H123985   7.415   4.560   5.351
 8014TIP3    H223986   7.274   4.520   5.386
 8015TIP3   OH223987   3.652   7.632   2.390
 8015TIP3    H123988   3.685   7.705   2.443
 8015TIP3    H223989   3.705   7.634   2.311
 8016TIP3   OH223990   2.921   1.766   0.737
 8016TIP3    H123991   2.904   1.708   0.663
 8016TIP3    H223992   2.904   1.854   0.704
 8017TIP3   OH223993   0.271   0.091   1.102
 8017TIP3    H123994   0.287   0.115   1.011
 8017TIP3    H223995   0.281  -0.005   1.104
 8018TIP3   OH223996   6.104   1.574   4.039
 8018TIP3    H123997   6.147   1.490   4.022
 8018TIP3    H223998   6.015   1.563   4.004
 8019TIP3   OH223999   2.056   7.334   5.496
 8019TIP3    H124000   1.998   7.388   5.442
 8019TIP3    H224001   2.061   7.250   5.450
 8020TIP3   OH224002   7.398   2.970   4.017
 8020TIP3    H124003   7.425   2.879   4.030
 8020TIP3    H224004   7.307   2.972   4.048
 8021TIP3   OH224005   1.253   6.540   0.144
 8021TIP3    H124006   1.333   6.488   0.152
 8021TIP3    H224007   1.189   6.493   0.198
 8022TIP3   OH224008   7.680   2.409   4.071
 8022TIP3    H124009   7.691   2.412   3.976
 8022TIP3    H224010   7.587   2.390   4.084
 8023TIP3   OH224011   3.595   6.727   3.726
 8023TIP3    H124012   3.520   6.667   3.734
 8023TIP3    H224013   3.602   6.744   3.632
 8024TIP3   OH224014   2.132   6.936   1.161
 8024TIP3    H124015   2.056   6.957   1.215
 8024TIP3    H224016   2.097   6.887   1.086
 8025TIP3   OH224017   5.997   2.269   4.066
 8025TIP3    H124018   6.056   2.233   4.001
 8025TIP3    H224019   6.035   2.245   4.150
 8026TIP3   OH224020   2.401   5.354   4.032
 8026TIP3    H124021   2.316   5.397   4.020
 8026TIP3    H224022   2.434   5.342   3.943
 8027TIP3   OH224023   3.872   2.196   4.095
 8027TIP3    H124024   3.811   2.163   4.162
 8027TIP3    H224025   3.922   2.263   4.141
 8028TIP3   OH224026   2.480   2.053   5.541
 8028TIP3    H124027   2.557   1.998   5.550
 8028TIP3    H224028   2.433   2.042   5.624
 8029TIP3   OH224029   2.393   5.800   2.911
 8029TIP3    H124030   2.302   5.772   2.914
 8029TIP3    H224031   2.429   5.775   2.996
 8030TIP3   OH224032   4.065   2.940   6.072
 8030TIP3    H124033   4.112   2.891   6.004
 8030TIP3    H224034   4.008   2.874   6.113
 8031TIP3   OH224035   8.345   1.380   3.763
 8031TIP3    H124036   8.349   1.446   3.833
 8031TIP3    H224037   8.307   1.427   3.689
 8032TIP3   OH224038   1.844   4.778   5.546
 8032TIP3    H124039   1.802   4.830   5.478
 8032TIP3    H224040   1.814   4.816   5.628
 8033TIP3   OH224041   1.302   7.783   0.783
 8033TIP3    H124042   1.275   7.746   0.699
 8033TIP3    H224043   1.342   7.711   0.830
 8034TIP3   OH224044   4.926   1.993   0.097
 8034TIP3    H124045   4.893   1.942   0.023
 8034TIP3    H224046   4.996   2.047   0.060
 8035TIP3   OH224047   0.330   5.334   5.899
 8035TIP3    H124048   0.354   5.309   5.810
 8035TIP3    H224049   0.245   5.378   5.890
 8036TIP3   OH224050   3.377   1.695   1.249
 8036TIP3    H124051   3.415   1.771   1.204
 8036TIP3    H224052   3.283   1.701   1.233
 8037TIP3   OH224053   4.761   1.826   5.841
 8037TIP3    H124054   4.713   1.902   5.809
 8037TIP3    H224055   4.693   1.760   5.858
 8038TIP3   OH224056   5.228   1.249   6.585
 8038TIP3    H124057   5.258   1.167   6.624
 8038TIP3    H224058   5.278   1.317   6.632
 8039TIP3   OH224059   3.076   5.044   1.023
 8039TIP3    H124060   3.017   5.050   0.948
 8039TIP3    H224061   3.164   5.039   0.984
 8040TIP3   OH224062   4.027   4.734   1.745
 8040TIP3    H124063   4.120   4.714   1.757
 8040TIP3    H224064   3.981   4.662   1.789
 8041TIP3   OH224065   0.110   0.135   2.348
 8041TIP3    H124066   0.033   0.179   2.385
 8041TIP3    H224067   0.081   0.101   2.264
 8042TIP3   OH224068   5.235   3.477   2.252
 8042TIP3    H124069   5.191   3.400   2.289
 8042TIP3    H224070   5.304   3.440   2.196
 8043TIP3   OH224071   3.691   4.597   3.511
 8043TIP3    H124072   3.754   4.548   3.457
 8043TIP3    H224073   3.745   4.643   3.575
 8044TIP3   OH224074   2.924   0.653   2.967
 8044TIP3    H124075   2.902   0.562   2.989
 8044TIP3    H224076   3.018   0.659   2.982
 8045TIP3   OH224077   3.196   5.301   0.548
 8045TIP3    H124078   3.110   5.325   0.582
 8045TIP3    H224079   3.179   5.265   0.461
 8046TIP3   OH224080   3.636   3.858   5.103
 8046TIP3    H124081   3.663   3.792   5.167
 8046TIP3    H224082   3.589   3.923   5.155
 8047TIP3   OH224083   5.701   7.567   5.866
 8047TIP3    H124084   5.649   7.626   5.922
 8047TIP3    H224085   5.786   7.610   5.859
 8048TIP3   OH224086   7.829   5.776   1.179
 8048TIP3    H124087   7.905   5.746   1.230
 8048TIP3    H224088   7.801   5.856   1.223
 8049TIP3   OH224089   2.107   1.871   6.417
 8049TIP3    H124090   2.169   1.820   6.366
 8049TIP3    H224091   2.150   1.956   6.429
 8050TIP3   OH224092   3.840   5.775   0.426
 8050TIP3    H124093   3.758   5.752   0.383
 8050TIP3    H224094   3.823   5.860   0.466
 8051TIP3   OH224095   4.595   2.093   3.154
 8051TIP3    H124096   4.531   2.089   3.225
 8051TIP3    H224097   4.663   2.152   3.186
 8052TIP3   OH224098   7.871   2.936   6.442
 8052TIP3    H124099   7.919   2.871   6.494
 8052TIP3    H224100   7.892   3.020   6.484
 8053TIP3   OH224101   6.942   3.503   5.442
 8053TIP3    H124102   6.984   3.513   5.527
 8053TIP3    H224103   7.001   3.446   5.392
 8054TIP3   OH224104   1.223   1.530   1.459
 8054TIP3    H124105   1.207   1.458   1.398
 8054TIP3    H224106   1.224   1.489   1.545
 8055TIP3   OH224107   5.854   7.406   4.926
 8055TIP3    H124108   5.801   7.330   4.900
 8055TIP3    H224109   5.849   7.464   4.850
 8056TIP3   OH224110   6.307   0.199   4.190
 8056TIP3    H124111   6.298   0.128   4.254
 8056TIP3    H224112   6.358   0.159   4.118
 8057TIP3   OH224113   2.074   2.775   4.974
 8057TIP3    H124114   2.146   2.822   5.015
 8057TIP3    H224115   2.116   2.712   4.916
 8058TIP3   OH224116   3.273   0.405   1.847
 8058TIP3    H124117   3.328   0.482   1.856
 8058TIP3    H224118   3.320   0.335   1.893
 8059TIP3   OH224119   4.591   4.819   3.863
 8059TIP3    H124120   4.611   4.864   3.945
 8059TIP3    H224121   4.674   4.777   3.838
 8060TIP3   OH224122   6.102   3.183   2.593
 8060TIP3    H124123   6.086   3.096   2.629
 8060TIP3    H224124   6.035   3.238   2.633
 8061TIP3   OH224125   0.112   7.752   6.131
 8061TIP3    H124126   0.098   7.782   6.041
 8061TIP3    H224127   0.036   7.696   6.150
 8062TIP3   OH224128   0.683   4.421   0.723
 8062TIP3    H124129   0.598   4.412   0.680
 8062TIP3    H224130   0.682   4.353   0.791
 8063TIP3   OH224131   0.791   0.092   3.950
 8063TIP3    H124132   0.754   0.177   3.927
 8063TIP3    H224133   0.798   0.094   4.046
 8064TIP3   OH224134   0.845   6.440   0.122
 8064TIP3    H124135   0.794   6.521   0.115
 8064TIP3    H224136   0.794   6.383   0.179
 8065TIP3   OH224137   7.205   3.124   3.070
 8065TIP3    H124138   7.136   3.068   3.034
 8065TIP3    H224139   7.182   3.213   3.041
 8066TIP3   OH224140   4.286   3.593   2.278
 8066TIP3    H124141   4.378   3.590   2.304
 8066TIP3    H224142   4.246   3.653   2.341
 8067TIP3   OH224143   4.293   2.730   0.786
 8067TIP3    H124144   4.309   2.817   0.751
 8067TIP3    H224145   4.335   2.730   0.872
 8068TIP3   OH224146   1.717   1.828   0.325
 8068TIP3    H124147   1.704   1.919   0.354
 8068TIP3    H224148   1.800   1.802   0.364
 8069TIP3   OH224149   8.067   6.922   2.939
 8069TIP3    H124150   8.095   6.993   2.996
 8069TIP3    H224151   8.027   6.965   2.864
 8070TIP3   OH224152   4.297   1.220   5.647
 8070TIP3    H124153   4.277   1.150   5.584
 8070TIP3    H224154   4.258   1.298   5.608
 8071TIP3   OH224155   7.602   0.993   1.650
 8071TIP3    H124156   7.543   1.017   1.579
 8071TIP3    H224157   7.549   0.937   1.707
 8072TIP3   OH224158   3.868   5.532   2.311
 8072TIP3    H124159   3.845   5.624   2.298
 8072TIP3    H224160   3.916   5.509   2.231
 8073TIP3   OH224161   1.798   1.119   4.846
 8073TIP3    H124162   1.864   1.180   4.879
 8073TIP3    H224163   1.771   1.155   4.762
 8074TIP3   OH224164   2.052   6.620   4.576
 8074TIP3    H124165   2.092   6.698   4.540
 8074TIP3    H224166   1.959   6.627   4.551
 8075TIP3   OH224167   1.601   0.816   0.122
 8075TIP3    H124168   1.577   0.863   0.042
 8075TIP3    H224169   1.533   0.749   0.131
 8076TIP3   OH224170   2.897   5.757   4.121
 8076TIP3    H124171   2.875   5.851   4.125
 8076TIP3    H224172   2.977   5.753   4.069
 8077TIP3   OH224173   1.475   1.436   4.758
 8077TIP3    H124174   1.535   1.483   4.700
 8077TIP3    H224175   1.426   1.378   4.700
 8078TIP3   OH224176   5.204   0.994   2.603
 8078TIP3    H124177   5.225   1.049   2.679
 8078TIP3    H224178   5.133   0.937   2.634
 8079TIP3   OH224179   1.601   1.131   1.093
 8079TIP3    H124180   1.651   1.207   1.122
 8079TIP3    H224181   1.537   1.166   1.031
 8080TIP3   OH224182   2.853   6.899   0.343
 8080TIP3    H124183   2.761   6.912   0.321
 8080TIP3    H224184   2.894   6.983   0.321
 8081TIP3   OH224185   6.129   3.638   5.794
 8081TIP3    H124186   6.188   3.563   5.784
 8081TIP3    H224187   6.162   3.703   5.732
 8082TIP3   OH224188   7.747   3.958   1.677
 8082TIP3    H124189   7.774   4.049   1.666
 8082TIP3    H224190   7.705   3.936   1.593
 8083TIP3   OH224191   1.325   6.875   1.421
 8083TIP3    H124192   1.310   6.937   1.349
 8083TIP3    H224193   1.289   6.918   1.498
 8084TIP3   OH224194   1.165   7.276   0.508
 8084TIP3    H124195   1.153   7.313   0.421
 8084TIP3    H224196   1.076   7.257   0.539
 8085TIP3   OH224197   4.245   3.654   5.024
 8085TIP3    H124198   4.152   3.648   5.000
 8085TIP3    H224199   4.290   3.615   4.949
 8086TIP3   OH224200   2.313   0.227   4.873
 8086TIP3    H124201   2.308   0.131   4.870
 8086TIP3    H224202   2.250   0.257   4.808
 8087TIP3   OH224203   3.441   3.343   4.260
 8087TIP3    H124204   3.452   3.425   4.308
 8087TIP3    H224205   3.530   3.318   4.233
 8088TIP3   OH224206   6.406   6.962   2.140
 8088TIP3    H124207   6.318   6.947   2.174
 8088TIP3    H224208   6.438   6.876   2.115
 8089TIP3   OH224209   5.633   5.611   0.612
 8089TIP3    H124210   5.626   5.706   0.604
 8089TIP3    H224211   5.579   5.589   0.688
 8090TIP3   OH224212   2.267   5.732   0.396
 8090TIP3    H124213   2.311   5.784   0.330
 8090TIP3    H224214   2.185   5.705   0.355
 8091TIP3   OH224215   7.075   3.879   1.199
 8091TIP3    H124216   7.080   3.972   1.221
 8091TIP3    H224217   6.986   3.867   1.166
 8092TIP3   OH224218   4.003   4.969   0.832
 8092TIP3    H124219   4.030   4.886   0.793
 8092TIP3    H224220   3.909   4.974   0.814
 8093TIP3   OH224221   5.203   2.045   1.082
 8093TIP3    H124222   5.277   2.051   1.022
 8093TIP3    H224223   5.146   2.118   1.057
 8094TIP3   OH224224   2.181   0.362   3.393
 8094TIP3    H124225   2.272   0.354   3.419
 8094TIP3    H224226   2.147   0.273   3.394
 8095TIP3   OH224227   6.278   2.791   0.473
 8095TIP3    H124228   6.328   2.755   0.400
 8095TIP3    H224229   6.321   2.874   0.493
 8096TIP3   OH224230   0.364   7.244   1.586
 8096TIP3    H124231   0.344   7.151   1.597
 8096TIP3    H224232   0.381   7.276   1.675
 8097TIP3   OH224233   1.605   1.155   4.436
 8097TIP3    H124234   1.673   1.140   4.370
 8097TIP3    H224235   1.650   1.201   4.507
 8098TIP3   OH224236   5.777   7.206   0.240
 8098TIP3    H124237   5.772   7.264   0.164
 8098TIP3    H224238   5.689   7.206   0.276
 8099TIP3   OH224239   6.087   2.664   1.650
 8099TIP3    H124240   6.128   2.585   1.686
 8099TIP3    H224241   6.006   2.673   1.700
 8100TIP3   OH224242   6.822   0.891   3.888
 8100TIP3    H124243   6.756   0.909   3.821
 8100TIP3    H224244   6.867   0.812   3.857
 8101TIP3   OH224245   0.527   2.822   6.038
 8101TIP3    H124246   0.476   2.902   6.021
 8101TIP3    H224247   0.463   2.760   6.074
 8102TIP3   OH224248   7.944   3.787   4.278
 8102TIP3    H124249   8.004   3.853   4.312
 8102TIP3    H224250   7.935   3.724   4.350
 8103TIP3   OH224251   2.038   1.246   4.398
 8103TIP3    H124252   2.101   1.301   4.445
 8103TIP3    H224253   2.081   1.227   4.314
 8104TIP3   OH224254   7.979   4.094   6.434
 8104TIP3    H124255   8.036   4.064   6.364
 8104TIP3    H224256   7.906   4.137   6.389
 8105TIP3   OH224257   2.971   3.618   1.890
 8105TIP3    H124258   2.966   3.657   1.978
 8105TIP3    H224259   2.934   3.531   1.900
 8106TIP3   OH224260   8.013   0.334   3.220
 8106TIP3    H124261   8.049   0.391   3.153
 8106TIP3    H224262   7.946   0.283   3.175
 8107TIP3   OH224263   7.447   6.066   2.442
 8107TIP3    H124264   7.480   6.141   2.392
 8107TIP3    H224265   7.477   6.081   2.531
 8108TIP3   OH224266   3.128   1.892   1.702
 8108TIP3    H124267   3.170   1.833   1.639
 8108TIP3    H224268   3.108   1.971   1.651
 8109TIP3   OH224269   8.240   6.982   4.405
 8109TIP3    H124270   8.245   7.077   4.420
 8109TIP3    H224271   8.323   6.961   4.361
 8110TIP3   OH224272   3.769   2.041   0.115
 8110TIP3    H124273   3.860   2.024   0.136
 8110TIP3    H224274   3.735   2.092   0.189
 8111TIP3   OH224275   5.422   0.875   6.270
 8111TIP3    H124276   5.479   0.799   6.256
 8111TIP3    H224277   5.444   0.905   6.358
 8112TIP3   OH224278   4.099   7.225   4.195
 8112TIP3    H124279   4.045   7.246   4.271
 8112TIP3    H224280   4.121   7.132   4.206
 8113TIP3   OH224281   6.283   4.835   4.100
 8113TIP3    H124282   6.276   4.801   4.010
 8113TIP3    H224283   6.300   4.929   4.088
 8114TIP3   OH224284   6.214   3.235   3.042
 8114TIP3    H124285   6.132   3.186   3.039
 8114TIP3    H224286   6.271   3.191   2.980
 8115TIP3   OH224287   1.638   2.526   4.925
 8115TIP3    H124288   1.649   2.588   4.852
 8115TIP3    H224289   1.606   2.446   4.884
 8116TIP3   OH224290   2.451   2.396   0.412
 8116TIP3    H124291   2.425   2.484   0.439
 8116TIP3    H224292   2.518   2.371   0.476
 8117TIP3   OH224293   0.079   3.680   1.164
 8117TIP3    H124294   0.003   3.707   1.214
 8117TIP3    H224295   0.066   3.586   1.151
 8118TIP3   OH224296   2.479   6.613   3.928
 8118TIP3    H124297   2.542   6.552   3.966
 8118TIP3    H224298   2.454   6.670   4.001
 8119TIP3   OH224299   7.053   5.723   3.727
 8119TIP3    H124300   7.120   5.688   3.669
 8119TIP3    H224301   6.994   5.772   3.670
 8120TIP3   OH224302   1.190   1.519   4.619
 8120TIP3    H124303   1.213   1.426   4.619
 8120TIP3    H224304   1.104   1.522   4.577
 8121TIP3   OH224305   7.017   1.292   6.367
 8121TIP3    H124306   6.981   1.381   6.364
 8121TIP3    H224307   7.063   1.288   6.451
 8122TIP3   OH224308   3.650   3.171   6.294
 8122TIP3    H124309   3.675   3.082   6.317
 8122TIP3    H224310   3.594   3.161   6.217
 8123TIP3   OH224311   0.570   6.087   2.316
 8123TIP3    H124312   0.607   6.016   2.368
 8123TIP3    H224313   0.644   6.122   2.266
 8124TIP3   OH224314   5.730   4.826   5.655
 8124TIP3    H124315   5.679   4.886   5.601
 8124TIP3    H224316   5.669   4.754   5.675
 8125TIP3   OH224317   7.884   1.074   5.724
 8125TIP3    H124318   7.819   1.058   5.792
 8125TIP3    H224319   7.949   1.004   5.735
 8126TIP3   OH224320   0.928   2.207   3.751
 8126TIP3    H124321   0.936   2.170   3.839
 8126TIP3    H224322   0.835   2.229   3.743
 8127TIP3   OH224323   1.883   0.919   1.920
 8127TIP3    H124324   1.906   0.855   1.852
 8127TIP3    H224325   1.789   0.930   1.912
 8128TIP3   OH224326   0.317   0.888   4.382
 8128TIP3    H124327   0.341   0.854   4.296
 8128TIP3    H224328   0.267   0.818   4.423
 8129TIP3   OH224329   7.821   4.691   3.241
 8129TIP3    H124330   7.777   4.686   3.326
 8129TIP3    H224331   7.903   4.738   3.259
 8130TIP3   OH224332   3.067   0.839   0.650
 8130TIP3    H124333   3.081   0.795   0.566
 8130TIP3    H224334   3.019   0.918   0.627
 8131TIP3   OH224335   6.800   3.918   0.521
 8131TIP3    H124336   6.832   3.828   0.512
 8131TIP3    H224337   6.725   3.911   0.579
 8132TIP3   OH224338   2.899   3.633   0.611
 8132TIP3    H124339   2.816   3.586   0.607
 8132TIP3    H224340   2.884   3.714   0.561
 8133TIP3   OH224341   2.206   4.336   1.523
 8133TIP3    H124342   2.294   4.299   1.519
 8133TIP3    H224343   2.219   4.430   1.531
 8134TIP3   OH224344   2.898   1.848   6.764
 8134TIP3    H124345   2.812   1.815   6.736
 8134TIP3    H224346   2.959   1.778   6.741
 8135TIP3   OH224347   4.753   2.559   0.242
 8135TIP3    H124348   4.723   2.470   0.221
 8135TIP3    H224349   4.706   2.582   0.322
 8136TIP3   OH224350   5.066   1.098   5.845
 8136TIP3    H124351   5.141   1.040   5.840
 8136TIP3    H224352   5.082   1.166   5.780
 8137TIP3   OH224353   5.685   0.349   3.272
 8137TIP3    H124354   5.603   0.391   3.248
 8137TIP3    H224355   5.672   0.256   3.252
 8138TIP3   OH224356   1.943   4.277   5.201
 8138TIP3    H124357   1.941   4.283   5.105
 8138TIP3    H224358   1.943   4.368   5.230
 8139TIP3   OH224359   7.934   0.595   3.690
 8139TIP3    H124360   7.869   0.556   3.749
 8139TIP3    H224361   7.893   0.676   3.660
 8140TIP3   OH224362   0.407   6.059   4.090
 8140TIP3    H124363   0.479   6.011   4.050
 8140TIP3    H224364   0.441   6.148   4.102
 8141TIP3   OH224365   2.586   2.341   1.545
 8141TIP3    H124366   2.617   2.259   1.584
 8141TIP3    H224367   2.646   2.358   1.473
 8142TIP3   OH224368   4.367   2.445   3.107
 8142TIP3    H124369   4.306   2.391   3.056
 8142TIP3    H224370   4.311   2.507   3.154
 8143TIP3   OH224371   4.982   3.620   2.185
 8143TIP3    H124372   4.925   3.545   2.204
 8143TIP3    H224373   5.069   3.582   2.174
 8144TIP3   OH224374   5.979   7.118   3.877
 8144TIP3    H124375   5.954   7.077   3.794
 8144TIP3    H224376   6.061   7.075   3.901
 8145TIP3   OH224377   5.814   5.543   0.904
 8145TIP3    H124378   5.783   5.623   0.946
 8145TIP3    H224379   5.737   5.506   0.863
 8146TIP3   OH224380   3.184   5.438   6.023
 8146TIP3    H124381   3.225   5.428   5.937
 8146TIP3    H224382   3.161   5.531   6.027
 8147TIP3   OH224383   4.400   6.548   0.874
 8147TIP3    H124384   4.401   6.626   0.929
 8147TIP3    H224385   4.386   6.476   0.935
 8148TIP3   OH224386   7.334   6.843   1.769
 8148TIP3    H124387   7.285   6.791   1.706
 8148TIP3    H224388   7.405   6.785   1.798
 8149TIP3   OH224389   1.091   3.586   0.864
 8149TIP3    H124390   1.029   3.644   0.907
 8149TIP3    H224391   1.038   3.533   0.805
 8150TIP3   OH224392   1.423   3.032   5.775
 8150TIP3    H124393   1.423   3.127   5.779
 8150TIP3    H224394   1.507   3.009   5.735
 8151TIP3   OH224395   4.538   1.623   1.856
 8151TIP3    H124396   4.518   1.534   1.827
 8151TIP3    H224397   4.547   1.616   1.951
 8152TIP3   OH224398   7.323   0.207   5.964
 8152TIP3    H124399   7.324   0.171   5.875
 8152TIP3    H224400   7.231   0.225   5.981
 8153TIP3   OH224401   0.900   7.509   5.384
 8153TIP3    H124402   0.895   7.525   5.478
 8153TIP3    H224403   0.858   7.424   5.371
 8154TIP3   OH224404   6.540   6.189   6.477
 8154TIP3    H124405   6.572   6.099   6.483
 8154TIP3    H224406   6.565   6.229   6.560
 8155TIP3   OH224407   4.913   2.790   5.396
 8155TIP3    H124408   4.942   2.750   5.314
 8155TIP3    H224409   4.941   2.729   5.464
 8156TIP3   OH224410   2.787   7.697   2.683
 8156TIP3    H124411   2.842   7.769   2.654
 8156TIP3    H224412   2.807   7.625   2.623
 8157TIP3   OH224413   4.265   1.381   1.474
 8157TIP3    H124414   4.245   1.309   1.534
 8157TIP3    H224415   4.193   1.379   1.410
 8158TIP3   OH224416   3.497   7.511   6.620
 8158TIP3    H124417   3.511   7.483   6.530
 8158TIP3    H224418   3.580   7.552   6.646
 8159TIP3   OH224419   2.595   4.310   3.552
 8159TIP3    H124420   2.673   4.308   3.608
 8159TIP3    H224421   2.569   4.402   3.551
 8160TIP3   OH224422   3.793   6.968   1.936
 8160TIP3    H124423   3.710   6.930   1.907
 8160TIP3    H224424   3.813   7.036   1.871
 8161TIP3   OH224425   4.172   1.709   5.689
 8161TIP3    H124426   4.188   1.786   5.634
 8161TIP3    H224427   4.150   1.745   5.775
 8162TIP3   OH224428   5.031   1.224   1.040
 8162TIP3    H124429   5.012   1.208   1.132
 8162TIP3    H224430   5.126   1.224   1.035
 8163TIP3   OH224431   6.397   5.843   1.761
 8163TIP3    H124432   6.313   5.846   1.808
 8163TIP3    H224433   6.445   5.771   1.801
 8164TIP3   OH224434   5.800   4.744   5.912
 8164TIP3    H124435   5.756   4.776   5.834
 8164TIP3    H224436   5.739   4.762   5.983
 8165TIP3   OH224437   0.870   5.041   6.520
 8165TIP3    H124438   0.846   4.988   6.443
 8165TIP3    H224439   0.958   5.071   6.501
 8166TIP3   OH224440   4.936   2.670   5.157
 8166TIP3    H124441   4.921   2.661   5.063
 8166TIP3    H224442   4.868   2.615   5.197
 8167TIP3   OH224443   4.042   6.475   5.431
 8167TIP3    H124444   4.066   6.512   5.346
 8167TIP3    H224445   3.956   6.436   5.417
 8168TIP3   OH224446   6.650   0.252   2.328
 8168TIP3    H124447   6.605   0.303   2.395
 8168TIP3    H224448   6.743   0.267   2.344
 8169TIP3   OH224449   8.130   4.347   6.253
 8169TIP3    H124450   8.201   4.283   6.259
 8169TIP3    H224451   8.053   4.294   6.229
 8170TIP3   OH224452   8.247   0.267   3.358
 8170TIP3    H124453   8.294   0.330   3.304
 8170TIP3    H224454   8.156   0.272   3.327
 8171TIP3   OH224455   8.063   3.246   0.944
 8171TIP3    H124456   8.104   3.265   1.029
 8171TIP3    H224457   8.059   3.150   0.941
 8172TIP3   OH224458   7.166   5.578   6.075
 8172TIP3    H124459   7.100   5.520   6.037
 8172TIP3    H224460   7.115   5.641   6.127
 8173TIP3   OH224461   1.485   5.895   4.555
 8173TIP3    H124462   1.397   5.868   4.583
 8173TIP3    H224463   1.528   5.814   4.530
 8174TIP3   OH224464   7.456   6.973   3.824
 8174TIP3    H124465   7.415   7.020   3.897
 8174TIP3    H224466   7.548   6.965   3.850
 8175TIP3   OH224467   7.135   2.742   5.026
 8175TIP3    H124468   7.171   2.734   4.937
 8175TIP3    H224469   7.211   2.766   5.080
 8176TIP3   OH224470   5.764   2.552   5.916
 8176TIP3    H124471   5.774   2.589   5.828
 8176TIP3    H224472   5.774   2.626   5.975
 8177TIP3   OH224473   1.723   5.161   3.971
 8177TIP3    H124474   1.664   5.213   4.026
 8177TIP3    H224475   1.760   5.096   4.031
 8178TIP3   OH224476   0.838   1.205   2.211
 8178TIP3    H124477   0.923   1.164   2.195
 8178TIP3    H224478   0.786   1.185   2.133
 8179TIP3   OH224479   7.474   5.227   4.673
 8179TIP3    H124480   7.475   5.291   4.601
 8179TIP3    H224481   7.467   5.142   4.629
 8180TIP3   OH224482   7.139   1.258   6.612
 8180TIP3    H124483   7.137   1.268   6.707
 8180TIP3    H224484   7.125   1.165   6.597
 8181TIP3   OH224485   4.893   3.595   1.838
 8181TIP3    H124486   4.944   3.663   1.882
 8181TIP3    H224487   4.959   3.542   1.793
 8182TIP3   OH224488   5.950   4.481   4.962
 8182TIP3    H124489   5.981   4.393   4.983
 8182TIP3    H224490   5.999   4.538   5.021
 8183TIP3   OH224491   1.342   7.407   2.140
 8183TIP3    H124492   1.338   7.328   2.087
 8183TIP3    H224493   1.393   7.468   2.088
 8184TIP3   OH224494   4.092   5.129   5.158
 8184TIP3    H124495   4.146   5.102   5.233
 8184TIP3    H224496   4.088   5.051   5.103
 8185TIP3   OH224497   5.982   2.540   4.977
 8185TIP3    H124498   5.937   2.529   5.061
 8185TIP3    H224499   6.035   2.619   4.989
 8186TIP3   OH224500   1.681   5.392   1.185
 8186TIP3    H124501   1.732   5.319   1.220
 8186TIP3    H224502   1.620   5.352   1.124
 8187TIP3   OH224503   0.874   7.661   6.582
 8187TIP3    H124504   0.859   7.620   6.667
 8187TIP3    H224505   0.951   7.616   6.547
 8188TIP3   OH224506   1.618   6.139   4.401
 8188TIP3    H124507   1.560   6.095   4.464
 8188TIP3    H224508   1.706   6.125   4.436
 8189TIP3   OH224509   1.668   4.191   2.147
 8189TIP3    H124510   1.727   4.195   2.223
 8189TIP3    H224511   1.682   4.103   2.111
 8190TIP3   OH224512   7.295   4.481   6.593
 8190TIP3    H124513   7.216   4.477   6.538
 8190TIP3    H224514   7.365   4.447   6.536
 8191TIP3   OH224515   5.231   0.229   6.213
 8191TIP3    H124516   5.275   0.298   6.263
 8191TIP3    H224517   5.288   0.214   6.138
 8192TIP3   OH224518   6.167   0.704   4.310
 8192TIP3    H124519   6.259   0.724   4.326
 8192TIP3    H224520   6.154   0.618   4.350
 8193TIP3   OH224521   7.759   1.479   1.727
 8193TIP3    H124522   7.677   1.456   1.683
 8193TIP3    H224523   7.771   1.572   1.708
 8194TIP3   OH224524   0.363   4.199   4.640
 8194TIP3    H124525   0.291   4.227   4.697
 8194TIP3    H224526   0.399   4.122   4.683
 8195TIP3   OH224527   2.480   3.106   2.050
 8195TIP3    H124528   2.440   3.182   2.093
 8195TIP3    H224529   2.510   3.051   2.123
 8196TIP3   OH224530   0.381   2.585   5.165
 8196TIP3    H124531   0.310   2.545   5.214
 8196TIP3    H224532   0.439   2.512   5.142
 8197TIP3   OH224533   4.425   1.271   5.879
 8197TIP3    H124534   4.367   1.251   5.806
 8197TIP3    H224535   4.371   1.322   5.940
 8198TIP3   OH224536   0.241   5.760   2.708
 8198TIP3    H124537   0.324   5.723   2.681
 8198TIP3    H224538   0.182   5.685   2.716
 8199TIP3   OH224539   0.908   4.673   2.347
 8199TIP3    H124540   0.905   4.698   2.255
 8199TIP3    H224541   0.871   4.748   2.393
 8200TIP3   OH224542   5.815   0.817   4.209
 8200TIP3    H124543   5.863   0.898   4.225
 8200TIP3    H224544   5.851   0.754   4.271
 8201TIP3   OH224545   2.851   6.898   1.548
 8201TIP3    H124546   2.888   6.859   1.627
 8201TIP3    H224547   2.765   6.858   1.539
 8202TIP3   OH224548   7.213   0.257   5.199
 8202TIP3    H124549   7.277   0.315   5.241
 8202TIP3    H224550   7.148   0.317   5.161
 8203TIP3   OH224551   6.519   4.037   3.541
 8203TIP3    H124552   6.505   3.990   3.459
 8203TIP3    H224553   6.531   3.968   3.607
 8204TIP3   OH224554   3.714   6.037   3.209
 8204TIP3    H124555   3.714   6.082   3.293
 8204TIP3    H224556   3.718   5.944   3.232
 8205TIP3   OH224557   1.075   1.548   4.333
 8205TIP3    H124558   1.103   1.558   4.242
 8205TIP3    H224559   1.056   1.638   4.362
 8206TIP3   OH224560   4.097   4.710   2.427
 8206TIP3    H124561   4.038   4.693   2.353
 8206TIP3    H224562   4.053   4.671   2.502
 8207TIP3   OH224563   1.364   1.725   4.696
 8207TIP3    H124564   1.318   1.789   4.642
 8207TIP3    H224565   1.330   1.641   4.668
 8208TIP3   OH224566   3.026   4.851   0.789
 8208TIP3    H124567   2.960   4.916   0.765
 8208TIP3    H224568   3.000   4.823   0.877
 8209TIP3   OH224569   0.822   5.241   6.726
 8209TIP3    H124570   0.796   5.215   6.814
 8209TIP3    H224571   0.829   5.159   6.678
 8210TIP3   OH224572   4.180   6.991   5.885
 8210TIP3    H124573   4.207   7.080   5.906
 8210TIP3    H224574   4.139   6.958   5.965
 8211TIP3   OH224575   3.850   7.190   4.033
 8211TIP3    H124576   3.911   7.254   4.070
 8211TIP3    H224577   3.769   7.203   4.083
 8212TIP3   OH224578   4.375   2.675   6.324
 8212TIP3    H124579   4.298   2.698   6.375
 8212TIP3    H224580   4.341   2.626   6.249
 8213TIP3   OH224581   3.770   5.395   5.396
 8213TIP3    H124582   3.810   5.329   5.453
 8213TIP3    H224583   3.826   5.396   5.318
 8214TIP3   OH224584   6.849   3.209   4.588
 8214TIP3    H124585   6.827   3.198   4.681
 8214TIP3    H224586   6.865   3.303   4.578
 8215TIP3   OH224587   2.421   5.598   2.088
 8215TIP3    H124588   2.350   5.596   2.023
 8215TIP3    H224589   2.377   5.579   2.171
 8216TIP3   OH224590   3.237   1.326   2.694
 8216TIP3    H124591   3.326   1.332   2.659
 8216TIP3    H224592   3.181   1.346   2.619
 8217TIP3   OH224593   2.575   7.570   5.106
 8217TIP3    H124594   2.593   7.479   5.080
 8217TIP3    H224595   2.615   7.623   5.037
 8218TIP3   OH224596   3.262   4.549   5.128
 8218TIP3    H124597   3.350   4.581   5.109
 8218TIP3    H224598   3.207   4.628   5.128
 8219TIP3   OH224599   5.298   2.561   4.109
 8219TIP3    H124600   5.275   2.526   4.195
 8219TIP3    H224601   5.292   2.656   4.119
 8220TIP3   OH224602   2.969   5.413   0.623
 8220TIP3    H124603   2.941   5.473   0.692
 8220TIP3    H224604   2.888   5.371   0.593
 8221TIP3   OH224605   2.237   7.528   3.044
 8221TIP3    H124606   2.296   7.453   3.032
 8221TIP3    H224607   2.226   7.534   3.138
 8222TIP3   OH224608   4.747   5.895   2.678
 8222TIP3    H124609   4.840   5.872   2.683
 8222TIP3    H224610   4.713   5.841   2.607
 8223TIP3   OH224611   5.377   6.094   6.267
 8223TIP3    H124612   5.319   6.126   6.199
 8223TIP3    H224613   5.464   6.125   6.241
 8224TIP3   OH224614   3.855   2.797   6.165
 8224TIP3    H124615   3.784   2.773   6.105
 8224TIP3    H224616   3.843   2.739   6.240
 8225TIP3   OH224617   2.834   1.233   5.350
 8225TIP3    H124618   2.812   1.325   5.365
 8225TIP3    H224619   2.930   1.231   5.354
 8226TIP3   OH224620   7.456   7.163   3.219
 8226TIP3    H124621   7.501   7.224   3.161
 8226TIP3    H224622   7.394   7.218   3.268
 8227TIP3   OH224623   6.603   6.204   3.047
 8227TIP3    H124624   6.531   6.186   3.106
 8227TIP3    H224625   6.596   6.298   3.029
 8228TIP3   OH224626   8.178   4.766   0.099
 8228TIP3    H124627   8.213   4.829   0.162
 8228TIP3    H224628   8.231   4.687   0.112
 8229TIP3   OH224629   4.187   2.747   6.500
 8229TIP3    H124630   4.193   2.710   6.588
 8229TIP3    H224631   4.104   2.714   6.466
 8230TIP3   OH224632   0.086   0.317   6.674
 8230TIP3    H124633   0.070   0.259   6.599
 8230TIP3    H224634   0.181   0.323   6.679
 8231TIP3   OH224635   8.074   7.336   1.889
 8231TIP3    H124636   8.034   7.318   1.805
 8231TIP3    H224637   8.166   7.312   1.877
 8232TIP3   OH224638   1.146   7.056   3.273
 8232TIP3    H124639   1.071   7.066   3.214
 8232TIP3    H224640   1.121   6.987   3.334
 8233TIP3   OH224641   6.280   2.882   1.781
 8233TIP3    H124642   6.326   2.896   1.699
 8233TIP3    H224643   6.198   2.840   1.756
 8234TIP3   OH224644   4.627   4.743   2.427
 8234TIP3    H124645   4.641   4.660   2.473
 8234TIP3    H224646   4.533   4.757   2.431
 8235TIP3   OH224647   3.841   6.154   6.217
 8235TIP3    H124648   3.926   6.165   6.259
 8235TIP3    H224649   3.814   6.243   6.194
 8236TIP3   OH224650   7.035   2.521   5.913
 8236TIP3    H124651   7.102   2.583   5.943
 8236TIP3    H224652   6.955   2.550   5.957
 8237TIP3   OH224653   6.164   6.021   0.446
 8237TIP3    H124654   6.215   5.948   0.481
 8237TIP3    H224655   6.119   6.057   0.523
 8238TIP3   OH224656   6.627   3.676   1.662
 8238TIP3    H124657   6.703   3.703   1.612
 8238TIP3    H224658   6.591   3.601   1.613
 8239TIP3   OH224659   2.805   7.376   5.250
 8239TIP3    H124660   2.885   7.408   5.292
 8239TIP3    H224661   2.756   7.456   5.228
 8240TIP3   OH224662   3.391   0.551   1.057
 8240TIP3    H124663   3.389   0.605   0.978
 8240TIP3    H224664   3.352   0.468   1.030
 8241TIP3   OH224665   2.236   2.291   0.278
 8241TIP3    H124666   2.206   2.204   0.305
 8241TIP3    H224667   2.306   2.312   0.340
 8242TIP3   OH224668   3.869   2.469   4.132
 8242TIP3    H124669   3.944   2.509   4.088
 8242TIP3    H224670   3.904   2.438   4.215
 8243TIP3   OH224671   4.235   5.759   1.458
 8243TIP3    H124672   4.156   5.749   1.405
 8243TIP3    H224673   4.220   5.838   1.511
 8244TIP3   OH224674   3.624   6.400   4.994
 8244TIP3    H124675   3.658   6.436   4.913
 8244TIP3    H224676   3.564   6.466   5.028
 8245TIP3   OH224677   2.584   0.357   3.694
 8245TIP3    H124678   2.679   0.362   3.685
 8245TIP3    H224679   2.554   0.322   3.610
 8246TIP3   OH224680   5.555   4.988   5.506
 8246TIP3    H124681   5.472   4.995   5.459
 8246TIP3    H224682   5.569   5.075   5.544
 8247TIP3   OH224683   0.065   2.352   1.125
 8247TIP3    H124684  -0.027   2.329   1.125
 8247TIP3    H224685   0.082   2.387   1.212
 8248TIP3   OH224686   6.396   0.005   4.739
 8248TIP3    H124687   6.491  -0.001   4.751
 8248TIP3    H224688   6.377  -0.056   4.667
 8249TIP3   OH224689   6.802   2.702   4.398
 8249TIP3    H124690   6.741   2.667   4.463
 8249TIP3    H224691   6.823   2.790   4.430
 8250TIP3   OH224692   8.172   3.466   5.756
 8250TIP3    H124693   8.195   3.464   5.663
 8250TIP3    H224694   8.256   3.464   5.802
 8251TIP3   OH224695   2.304   3.648   4.520
 8251TIP3    H124696   2.350   3.660   4.603
 8251TIP3    H224697   2.213   3.669   4.540
 8252TIP3   OH224698   2.057   2.040   1.876
 8252TIP3    H124699   1.993   1.986   1.830
 8252TIP3    H224700   2.073   2.114   1.817
 8253TIP3   OH224701   1.441   6.910   4.502
 8253TIP3    H124702   1.414   6.936   4.414
 8253TIP3    H224703   1.527   6.951   4.513
 8254TIP3   OH224704   1.779   0.093   2.670
 8254TIP3    H124705   1.773   0.152   2.594
 8254TIP3    H224706   1.864   0.050   2.661
 8255TIP3   OH224707   1.478   2.060   0.816
 8255TIP3    H124708   1.432   2.051   0.733
 8255TIP3    H224709   1.437   1.995   0.873
 8256TIP3   OH224710   0.673   6.892   2.710
 8256TIP3    H124711   0.656   6.816   2.654
 8256TIP3    H224712   0.642   6.866   2.797
 8257TIP3   OH224713   4.428   6.050   0.158
 8257TIP3    H124714   4.376   5.979   0.120
 8257TIP3    H224715   4.511   6.047   0.111
 8258TIP3   OH224716   5.608   1.132   1.066
 8258TIP3    H124717   5.585   1.043   1.095
 8258TIP3    H224718   5.613   1.183   1.147
 8259TIP3   OH224719   1.638   1.016   3.843
 8259TIP3    H124720   1.663   1.028   3.752
 8259TIP3    H224721   1.543   1.003   3.840
 8260TIP3   OH224722   7.161  -0.031   5.803
 8260TIP3    H124723   7.069  -0.043   5.780
 8260TIP3    H224724   7.192   0.039   5.745
 8261TIP3   OH224725   4.536   7.322   0.333
 8261TIP3    H124726   4.489   7.405   0.326
 8261TIP3    H224727   4.472   7.260   0.366
 8262TIP3   OH224728   5.911   5.284   0.007
 8262TIP3    H124729   5.849   5.273   0.079
 8262TIP3    H224730   5.912   5.378  -0.010
 8263TIP3   OH224731   7.253   0.396   5.760
 8263TIP3    H124732   7.340   0.435   5.757
 8263TIP3    H224733   7.195   0.469   5.785
 8264TIP3   OH224734   7.864   4.307   3.660
 8264TIP3    H124735   7.833   4.227   3.617
 8264TIP3    H224736   7.889   4.364   3.587
 8265TIP3   OH224737   4.336   3.328   4.691
 8265TIP3    H124738   4.340   3.413   4.734
 8265TIP3    H224739   4.265   3.336   4.627
 8266TIP3   OH224740   6.249   2.142   1.241
 8266TIP3    H124741   6.205   2.059   1.222
 8266TIP3    H224742   6.191   2.209   1.204
 8267TIP3   OH224743   6.550   1.694   1.991
 8267TIP3    H124744   6.645   1.687   2.000
 8267TIP3    H224745   6.516   1.618   2.037
 8268TIP3   OH224746   5.176   7.717   1.726
 8268TIP3    H124747   5.110   7.724   1.794
 8268TIP3    H224748   5.253   7.680   1.770
 8269TIP3   OH224749   6.823   2.675   6.342
 8269TIP3    H124750   6.801   2.684   6.434
 8269TIP3    H224751   6.918   2.688   6.339
 8270TIP3   OH224752   4.440   7.683   3.184
 8270TIP3    H124753   4.448   7.682   3.280
 8270TIP3    H224754   4.494   7.610   3.155
 8271TIP3   OH224755   0.981   6.954   6.402
 8271TIP3    H124756   0.953   7.000   6.323
 8271TIP3    H224757   1.013   7.024   6.459
 8272TIP3   OH224758   2.258   7.262   4.066
 8272TIP3    H124759   2.267   7.355   4.046
 8272TIP3    H224760   2.165   7.244   4.058
 8273TIP3   OH224761   0.224   1.019   3.984
 8273TIP3    H124762   0.205   0.972   3.903
 8273TIP3    H224763   0.249   1.107   3.956
 8274TIP3   OH224764   6.587   3.804   5.389
 8274TIP3    H124765   6.624   3.720   5.362
 8274TIP3    H224766   6.569   3.849   5.306
 8275TIP3   OH224767   2.062   1.543   4.154
 8275TIP3    H124768   1.984   1.548   4.099
 8275TIP3    H224769   2.037   1.586   4.236
 8276TIP3   OH224770   0.803   4.135   6.747
 8276TIP3    H124771   0.876   4.154   6.688
 8276TIP3    H224772   0.787   4.218   6.792
 8277TIP3   OH224773   8.048   1.249   2.730
 8277TIP3    H124774   7.971   1.230   2.676
 8277TIP3    H224775   8.066   1.341   2.713
 8278TIP3   OH224776   1.138   5.967   1.419
 8278TIP3    H124777   1.181   5.965   1.334
 8278TIP3    H224778   1.135   6.060   1.442
 8279TIP3   OH224779   3.116   5.209   0.279
 8279TIP3    H124780   3.123   5.283   0.219
 8279TIP3    H224781   3.126   5.132   0.223
 8280TIP3   OH224782   6.226   6.380   2.946
 8280TIP3    H124783   6.280   6.329   2.885
 8280TIP3    H224784   6.287   6.406   3.015
 8281TIP3   OH224785   3.446   7.605   1.717
 8281TIP3    H124786   3.388   7.584   1.644
 8281TIP3    H224787   3.523   7.645   1.676
 8282TIP3   OH224788   6.077   5.948   5.755
 8282TIP3    H124789   6.042   5.910   5.675
 8282TIP3    H224790   6.170   5.962   5.737
 8283TIP3   OH224791   5.892   3.538   5.885
 8283TIP3    H124792   5.834   3.580   5.821
 8283TIP3    H224793   5.979   3.571   5.865
 8284TIP3   OH224794   6.300   2.360   0.855
 8284TIP3    H124795   6.371   2.299   0.876
 8284TIP3    H224796   6.305   2.370   0.760
 8285TIP3   OH224797   6.411   4.628   6.205
 8285TIP3    H124798   6.426   4.620   6.111
 8285TIP3    H224799   6.319   4.655   6.212
 8286TIP3   OH224800   1.381   0.785   1.911
 8286TIP3    H124801   1.324   0.823   1.843
 8286TIP3    H224802   1.469   0.809   1.884
 8287TIP3   OH224803   1.986   3.246   5.279
 8287TIP3    H124804   2.001   3.336   5.250
 8287TIP3    H224805   1.895   3.228   5.255
 8288TIP3   OH224806   7.931   4.074   0.960
 8288TIP3    H124807   7.856   4.029   0.921
 8288TIP3    H224808   7.908   4.167   0.957
 8289TIP3   OH224809   2.376   5.828   1.353
 8289TIP3    H124810   2.365   5.899   1.415
 8289TIP3    H224811   2.313   5.847   1.283
 8290TIP3   OH224812   6.848   3.248   2.430
 8290TIP3    H124813   6.850   3.157   2.461
 8290TIP3    H224814   6.759   3.278   2.447
 8291TIP3   OH224815   0.882   7.323   4.462
 8291TIP3    H124816   0.901   7.259   4.531
 8291TIP3    H224817   0.958   7.381   4.461
 8292TIP3   OH224818   3.033   2.525   2.215
 8292TIP3    H124819   2.991   2.463   2.155
 8292TIP3    H224820   2.961   2.578   2.249
 8293TIP3   OH224821   6.962   4.121   1.785
 8293TIP3    H124822   7.056   4.104   1.780
 8293TIP3    H224823   6.924   4.071   1.712
 8294TIP3   OH224824   1.147   1.807   2.900
 8294TIP3    H124825   1.240   1.793   2.921
 8294TIP3    H224826   1.112   1.719   2.885
 8295TIP3   OH224827   5.288   3.156   3.253
 8295TIP3    H124828   5.315   3.065   3.262
 8295TIP3    H224829   5.304   3.177   3.161
 8296TIP3   OH224830   1.892   2.200   6.348
 8296TIP3    H124831   1.951   2.158   6.411
 8296TIP3    H224832   1.831   2.131   6.322
 8297TIP3   OH224833   3.104   2.938   4.052
 8297TIP3    H124834   3.149   3.008   4.100
 8297TIP3    H224835   3.134   2.857   4.094
 8298TIP3   OH224836   3.272   6.264   2.864
 8298TIP3    H124837   3.360   6.229   2.854
 8298TIP3    H224838   3.279   6.324   2.938
 8299TIP3   OH224839   6.590   5.038   5.959
 8299TIP3    H124840   6.573   4.982   5.882
 8299TIP3    H224841   6.559   5.124   5.932
 8300TIP3   OH224842   1.688   6.353   5.007
 8300TIP3    H124843   1.691   6.368   4.913
 8300TIP3    H224844   1.765   6.298   5.025
 8301TIP3   OH224845   5.321   4.847   5.094
 8301TIP3    H124846   5.254   4.915   5.088
 8301TIP3    H224847   5.272   4.766   5.106
 8302TIP3   OH224848   5.506   3.180   5.718
 8302TIP3    H124849   5.575   3.226   5.764
 8302TIP3    H224850   5.505   3.093   5.756
 8303TIP3   OH224851   7.209   0.668   6.187
 8303TIP3    H124852   7.132   0.624   6.222
 8303TIP3    H224853   7.175   0.719   6.113
 8304TIP3   OH224854   4.569   6.181   0.365
 8304TIP3    H124855   4.498   6.212   0.421
 8304TIP3    H224856   4.525   6.129   0.298
 8305TIP3   OH224857   6.534  -0.009   2.592
 8305TIP3    H124858   6.587   0.006   2.670
 8305TIP3    H224859   6.483   0.071   2.581
 8306TIP3   OH224860   1.880   0.009   6.316
 8306TIP3    H124861   1.837   0.080   6.268
 8306TIP3    H224862   1.954  -0.015   6.261
 8307TIP3   OH224863   0.263   5.924   2.475
 8307TIP3    H124864   0.243   5.892   2.563
 8307TIP3    H224865   0.357   5.945   2.477
 8308TIP3   OH224866   1.979   4.558   5.161
 8308TIP3    H124867   2.062   4.595   5.130
 8308TIP3    H224868   1.916   4.577   5.091
 8309TIP3   OH224869   7.866   3.356   2.004
 8309TIP3    H124870   7.907   3.294   2.065
 8309TIP3    H224871   7.813   3.301   1.947
 8310TIP3   OH224872   3.120   3.433   1.714
 8310TIP3    H124873   3.103   3.347   1.752
 8310TIP3    H224874   3.048   3.488   1.747
 8311TIP3   OH224875   2.956   3.381   5.310
 8311TIP3    H124876   3.012   3.429   5.370
 8311TIP3    H224877   2.978   3.414   5.223
 8312TIP3   OH224878   5.765   0.031   2.611
 8312TIP3    H124879   5.765   0.123   2.636
 8312TIP3    H224880   5.824   0.026   2.536
 8313TIP3   OH224881   4.223   6.015   5.100
 8313TIP3    H124882   4.142   5.990   5.055
 8313TIP3    H224883   4.209   5.989   5.191
 8314TIP3   OH224884   4.408   7.283   3.920
 8314TIP3    H124885   4.489   7.332   3.927
 8314TIP3    H224886   4.428   7.210   3.862
 8315TIP3   OH224887   0.183   3.021   4.869
 8315TIP3    H124888   0.103   2.969   4.870
 8315TIP3    H224889   0.248   2.964   4.912
 8316TIP3   OH224890   7.747   6.703   0.543
 8316TIP3    H124891   7.716   6.705   0.452
 8316TIP3    H224892   7.838   6.731   0.538
 8317TIP3   OH224893   1.293   1.255   4.635
 8317TIP3    H124894   1.322   1.191   4.570
 8317TIP3    H224895   1.276   1.204   4.714
 8318TIP3   OH224896   2.837   3.135   2.124
 8318TIP3    H124897   2.889   3.119   2.045
 8318TIP3    H224898   2.794   3.052   2.141
 8319TIP3   OH224899   3.425   1.610   5.692
 8319TIP3    H124900   3.460   1.591   5.605
 8319TIP3    H224901   3.370   1.534   5.713
 8320TIP3   OH224902   3.343   0.332   0.674
 8320TIP3    H124903   3.360   0.421   0.642
 8320TIP3    H224904   3.307   0.286   0.598
 8321TIP3   OH224905   4.915   2.722   4.528
 8321TIP3    H124906   4.939   2.714   4.620
 8321TIP3    H224907   4.878   2.637   4.506
 8322TIP3   OH224908   5.223   2.364   3.919
 8322TIP3    H124909   5.224   2.277   3.960
 8322TIP3    H224910   5.221   2.424   3.993
 8323TIP3   OH224911   8.009   2.166   3.896
 8323TIP3    H124912   7.968   2.178   3.982
 8323TIP3    H224913   8.036   2.254   3.870
 8324TIP3   OH224914   6.014   4.793   1.056
 8324TIP3    H124915   5.935   4.740   1.053
 8324TIP3    H224916   6.013   4.842   0.974
 8325TIP3   OH224917   6.455   5.294   0.858
 8325TIP3    H124918   6.482   5.362   0.798
 8325TIP3    H224919   6.531   5.236   0.866
 8326TIP3   OH224920   7.113   4.337   0.033
 8326TIP3    H124921   7.186   4.378   0.079
 8326TIP3    H224922   7.058   4.300   0.102
 8327TIP3   OH224923   3.515   4.826   2.511
 8327TIP3    H124924   3.589   4.847   2.454
 8327TIP3    H224925   3.440   4.870   2.470
 8328TIP3   OH224926   5.365   4.491   3.047
 8328TIP3    H124927   5.444   4.497   2.994
 8328TIP3    H224928   5.300   4.543   3.000
 8329TIP3   OH224929   5.617   2.173   3.226
 8329TIP3    H124930   5.548   2.219   3.275
 8329TIP3    H224931   5.693   2.230   3.234
 8330TIP3   OH224932   1.094   5.921   5.671
 8330TIP3    H124933   1.055   5.954   5.590
 8330TIP3    H224934   1.182   5.892   5.645
 8331TIP3   OH224935   3.591   3.412   0.446
 8331TIP3    H124936   3.572   3.336   0.391
 8331TIP3    H224937   3.573   3.487   0.391
 8332TIP3   OH224938   0.395   1.809   0.342
 8332TIP3    H124939   0.378   1.715   0.343
 8332TIP3    H224940   0.389   1.835   0.434
 8333TIP3   OH224941   1.065   7.698   6.069
 8333TIP3    H124942   1.123   7.683   6.144
 8333TIP3    H224943   0.979   7.667   6.099
 8334TIP3   OH224944   3.494   4.370   2.457
 8334TIP3    H124945   3.441   4.380   2.537
 8334TIP3    H224946   3.438   4.403   2.387
 8335TIP3   OH224947   6.734   1.695   3.888
 8335TIP3    H124948   6.735   1.762   3.956
 8335TIP3    H224949   6.823   1.695   3.853
 8336TIP3   OH224950   5.505   1.000   0.238
 8336TIP3    H124951   5.570   0.936   0.266
 8336TIP3    H224952   5.444   0.950   0.185
 8337TIP3   OH224953   5.219   1.310   3.900
 8337TIP3    H124954   5.157   1.360   3.846
 8337TIP3    H224955   5.301   1.312   3.851
 8338TIP3   OH224956   3.066   3.303   1.396
 8338TIP3    H124957   3.063   3.207   1.403
 8338TIP3    H224958   3.159   3.324   1.396
 8339TIP3   OH224959   5.833   4.449   1.402
 8339TIP3    H124960   5.796   4.532   1.431
 8339TIP3    H224961   5.918   4.444   1.445
 8340TIP3   OH224962   5.612   1.690   4.002
 8340TIP3    H124963   5.605   1.643   3.919
 8340TIP3    H224964   5.633   1.622   4.066
 8341TIP3   OH224965   1.582   3.514   2.956
 8341TIP3    H124966   1.607   3.574   3.026
 8341TIP3    H224967   1.488   3.531   2.943
 8342TIP3   OH224968   7.526   0.339   5.284
 8342TIP3    H124969   7.604   0.341   5.229
 8342TIP3    H224970   7.490   0.427   5.278
 8343TIP3   OH224971   1.460   4.833   2.127
 8343TIP3    H124972   1.549   4.802   2.113
 8343TIP3    H224973   1.453   4.849   2.221
 8344TIP3   OH224974   0.515   4.464   6.272
 8344TIP3    H124975   0.526   4.559   6.269
 8344TIP3    H224976   0.458   4.449   6.348
 8345TIP3   OH224977   3.366   5.055   1.635
 8345TIP3    H124978   3.364   4.998   1.558
 8345TIP3    H224979   3.451   5.037   1.676
 8346TIP3   OH224980   0.296   6.038   1.425
 8346TIP3    H124981   0.332   6.125   1.437
 8346TIP3    H224982   0.373   5.981   1.417
 8347TIP3   OH224983   2.884   4.594   3.562
 8347TIP3    H124984   2.825   4.531   3.522
 8347TIP3    H224985   2.945   4.620   3.492
 8348TIP3   OH224986   5.721   1.186   3.368
 8348TIP3    H124987   5.735   1.272   3.407
 8348TIP3    H224988   5.803   1.138   3.383
 8349TIP3   OH224989   0.079   3.520   3.213
 8349TIP3    H124990   0.123   3.549   3.293
 8349TIP3    H224991   0.073   3.598   3.159
 8350TIP3   OH224992   2.212   3.936   0.266
 8350TIP3    H124993   2.293   3.888   0.250
 8350TIP3    H224994   2.238   4.006   0.327
 8351TIP3   OH224995   4.474   2.097   2.087
 8351TIP3    H124996   4.543   2.129   2.145
 8351TIP3    H224997   4.511   2.019   2.047
 8352TIP3   OH224998   5.307   5.035   6.478
 8352TIP3    H124999   5.366   4.994   6.415
 8352TIP3    H225000   5.362   5.100   6.523
 8353TIP3   OH225001   7.699   6.258   2.153
 8353TIP3    H125002   7.682   6.265   2.059
 8353TIP3    H225003   7.795   6.259   2.160
 8354TIP3   OH225004   0.047   5.273   0.499
 8354TIP3    H125005   0.010   5.185   0.508
 8354TIP3    H225006   0.089   5.272   0.413
 8355TIP3   OH225007   4.025   7.371   5.887
 8355TIP3    H125008   4.101   7.323   5.854
 8355TIP3    H225009   4.020   7.449   5.833
 8356TIP3   OH225010   1.432   6.078   2.940
 8356TIP3    H125011   1.513   6.077   2.990
 8356TIP3    H225012   1.455   6.118   2.856
 8357TIP3   OH225013   7.969   2.836   5.864
 8357TIP3    H125014   8.060   2.857   5.883
 8357TIP3    H225015   7.962   2.842   5.769
 8358TIP3   OH225016   2.818   6.135   3.096
 8358TIP3    H125017   2.799   6.220   3.058
 8358TIP3    H225018   2.900   6.108   3.055
 8359TIP3   OH225019   5.102   2.633   6.206
 8359TIP3    H125020   5.029   2.591   6.251
 8359TIP3    H225021   5.175   2.571   6.215
 8360TIP3   OH225022   0.448   5.946   0.932
 8360TIP3    H125023   0.397   5.935   1.012
 8360TIP3    H225024   0.540   5.940   0.960
 8361TIP3   OH225025   6.973   6.886   4.928
 8361TIP3    H125026   7.031   6.962   4.924
 8361TIP3    H225027   6.935   6.881   4.841
 8362TIP3   OH225028   7.506   2.597   1.287
 8362TIP3    H125029   7.443   2.668   1.296
 8362TIP3    H225030   7.580   2.623   1.343
 8363TIP3   OH225031   0.392   6.630   0.565
 8363TIP3    H125032   0.451   6.608   0.638
 8363TIP3    H225033   0.397   6.553   0.508
 8364TIP3   OH225034   3.847   7.110   4.977
 8364TIP3    H125035   3.780   7.098   4.910
 8364TIP3    H225036   3.811   7.178   5.034
 8365TIP3   OH225037   7.526   3.599   5.241
 8365TIP3    H125038   7.592   3.658   5.204
 8365TIP3    H225039   7.569   3.514   5.243
 8366TIP3   OH225040   5.332   1.894   0.606
 8366TIP3    H125041   5.340   1.922   0.515
 8366TIP3    H225042   5.251   1.842   0.609
 8367TIP3   OH225043   5.306   5.179   4.367
 8367TIP3    H125044   5.281   5.268   4.343
 8367TIP3    H225045   5.344   5.187   4.454
 8368TIP3   OH225046   8.003   5.803   2.656
 8368TIP3    H125047   8.019   5.710   2.637
 8368TIP3    H225048   8.084   5.832   2.699
 8369TIP3   OH225049   8.003   3.454   1.781
 8369TIP3    H125050   7.972   3.430   1.869
 8369TIP3    H225051   7.934   3.423   1.722
 8370TIP3   OH225052   0.146   4.128   5.108
 8370TIP3    H125053   0.073   4.155   5.164
 8370TIP3    H225054   0.105   4.099   5.027
 8371TIP3   OH225055   6.114   5.903   1.352
 8371TIP3    H125056   6.025   5.885   1.322
 8371TIP3    H225057   6.170   5.866   1.283
 8372TIP3   OH225058   6.262   1.713   3.594
 8372TIP3    H125059   6.347   1.704   3.638
 8372TIP3    H225060   6.214   1.634   3.619
 8373TIP3   OH225061   6.879   2.961   0.830
 8373TIP3    H125062   6.838   2.948   0.745
 8373TIP3    H225063   6.832   2.902   0.889
 8374TIP3   OH225064   7.757   0.556   4.279
 8374TIP3    H125065   7.834   0.589   4.325
 8374TIP3    H225066   7.788   0.477   4.234
 8375TIP3   OH225067   6.257   4.655   3.306
 8375TIP3    H125068   6.327   4.708   3.268
 8375TIP3    H225069   6.270   4.568   3.269
 8376TIP3   OH225070   7.324   0.509   2.406
 8376TIP3    H125071   7.272   0.582   2.441
 8376TIP3    H225072   7.383   0.486   2.478
 8377TIP3   OH225073   1.598   6.261   2.482
 8377TIP3    H125074   1.579   6.295   2.394
 8377TIP3    H225075   1.688   6.290   2.499
 8378TIP3   OH225076   2.275   0.567   0.873
 8378TIP3    H125077   2.224   0.518   0.939
 8378TIP3    H225078   2.211   0.627   0.834
 8379TIP3   OH225079   1.993   0.973   6.062
 8379TIP3    H125080   1.949   0.889   6.066
 8379TIP3    H225081   1.964   1.012   5.979
 8380TIP3   OH225082   7.053   1.519   5.012
 8380TIP3    H125083   6.974   1.479   5.047
 8380TIP3    H225084   7.061   1.485   4.923
 8381TIP3   OH225085   5.307  -0.037   6.020
 8381TIP3    H125086   5.296   0.055   5.996
 8381TIP3    H225087   5.398  -0.043   6.051
 8382TIP3   OH225088   4.566   7.463   3.009
 8382TIP3    H125089   4.506   7.439   2.937
 8382TIP3    H225090   4.548   7.399   3.077
 8383TIP3   OH225091   1.706   2.645   2.162
 8383TIP3    H125092   1.611   2.644   2.167
 8383TIP3    H225093   1.730   2.554   2.142
 8384TIP3   OH225094   1.828   6.151   4.582
 8384TIP3    H125095   1.905   6.206   4.564
 8384TIP3    H225096   1.864   6.075   4.627
 8385TIP3   OH225097   1.289   4.787   1.408
 8385TIP3    H125098   1.233   4.750   1.476
 8385TIP3    H225099   1.325   4.867   1.448
 8386TIP3   OH225100   4.767   3.771   4.136
 8386TIP3    H125101   4.757   3.775   4.041
 8386TIP3    H225102   4.683   3.738   4.168
 8387TIP3   OH225103   2.485   1.216   2.896
 8387TIP3    H125104   2.429   1.180   2.827
 8387TIP3    H225105   2.561   1.250   2.849
 8388TIP3   OH225106   1.618   0.835   4.119
 8388TIP3    H125107   1.586   0.771   4.055
 8388TIP3    H225108   1.659   0.904   4.067
 8389TIP3   OH225109   0.812   4.674   4.767
 8389TIP3    H125110   0.781   4.763   4.752
 8389TIP3    H225111   0.894   4.686   4.816
 8390TIP3   OH225112   2.061   3.508   5.221
 8390TIP3    H125113   2.046   3.600   5.245
 8390TIP3    H225114   2.143   3.485   5.264
 8391TIP3   OH225115   6.318   7.486   5.438
 8391TIP3    H125116   6.273   7.464   5.520
 8391TIP3    H225117   6.282   7.571   5.413
 8392TIP3   OH225118   2.447   2.239   4.513
 8392TIP3    H125119   2.368   2.246   4.459
 8392TIP3    H225120   2.511   2.293   4.467
 8393TIP3   OH225121   0.436   1.920   1.879
 8393TIP3    H125122   0.369   1.988   1.877
 8393TIP3    H225123   0.505   1.955   1.936
 8394TIP3   OH225124   1.821   1.456   2.586
 8394TIP3    H125125   1.831   1.414   2.671
 8394TIP3    H225126   1.899   1.430   2.536
 8395TIP3   OH225127   5.657   1.267   6.400
 8395TIP3    H125128   5.661   1.316   6.482
 8395TIP3    H225129   5.581   1.304   6.354
 8396TIP3   OH225130   8.103   2.382   5.848
 8396TIP3    H125131   8.188   2.342   5.827
 8396TIP3    H225132   8.126   2.464   5.893
 8397TIP3   OH225133   1.018   7.367   0.771
 8397TIP3    H125134   0.970   7.299   0.724
 8397TIP3    H225135   0.959   7.395   0.841
 8398TIP3   OH225136   7.049   0.518   4.468
 8398TIP3    H125137   6.987   0.580   4.430
 8398TIP3    H225138   7.039   0.439   4.414
 8399TIP3   OH225139   6.242   4.729   5.571
 8399TIP3    H125140   6.271   4.812   5.611
 8399TIP3    H225141   6.199   4.682   5.643
 8400TIP3   OH225142   7.690   7.419   2.822
 8400TIP3    H125143   7.720   7.335   2.786
 8400TIP3    H225144   7.714   7.483   2.754
 8401TIP3   OH225145   1.060   1.868   5.418
 8401TIP3    H125146   1.155   1.879   5.420
 8401TIP3    H225147   1.037   1.847   5.508
 8402TIP3   OH225148   6.470   1.845   0.138
 8402TIP3    H125149   6.433   1.773   0.190
 8402TIP3    H225150   6.550   1.809   0.101
 8403TIP3   OH225151   0.607   4.991   0.461
 8403TIP3    H125152   0.693   4.985   0.503
 8403TIP3    H225153   0.620   4.955   0.373
 8404TIP3   OH225154   0.268   3.730   5.730
 8404TIP3    H125155   0.354   3.705   5.762
 8404TIP3    H225156   0.267   3.702   5.638
 8405TIP3   OH225157   2.546   4.186   6.674
 8405TIP3    H125158   2.505   4.270   6.654
 8405TIP3    H225159   2.480   4.138   6.726
 8406TIP3   OH225160   4.633   6.512   0.722
 8406TIP3    H125161   4.565   6.532   0.658
 8406TIP3    H225162   4.588   6.517   0.807
 8407TIP3   OH225163   0.859   4.113   0.742
 8407TIP3    H125164   0.867   4.153   0.828
 8407TIP3    H225165   0.884   4.183   0.681
 8408TIP3   OH225166   0.815   2.833   0.984
 8408TIP3    H125167   0.748   2.886   0.941
 8408TIP3    H225168   0.897   2.865   0.948
 8409TIP3   OH225169  -0.021   6.319   0.854
 8409TIP3    H125170  -0.007   6.227   0.835
 8409TIP3    H225171   0.066   6.355   0.870
 8410TIP3   OH225172   6.654   5.187   0.077
 8410TIP3    H125173   6.719   5.206   0.010
 8410TIP3    H225174   6.576   5.236   0.050
 8411TIP3   OH225175   1.950   7.430   6.460
 8411TIP3    H125176   1.893   7.482   6.403
 8411TIP3    H225177   1.945   7.341   6.424
 8412TIP3   OH225178   6.898   4.355   3.410
 8412TIP3    H125179   6.845   4.430   3.382
 8412TIP3    H225180   6.834   4.285   3.421
 8413TIP3   OH225181   6.512   2.837   1.517
 8413TIP3    H125182   6.429   2.858   1.473
 8413TIP3    H225183   6.568   2.913   1.499
 8414TIP3   OH225184   3.696   1.733   2.785
 8414TIP3    H125185   3.606   1.701   2.775
 8414TIP3    H225186   3.689   1.828   2.785
 8415TIP3   OH225187   5.438   1.168   2.573
 8415TIP3    H125188   5.358   1.186   2.523
 8415TIP3    H225189   5.407   1.143   2.660
 8416TIP3   OH225190   7.720   2.481   3.018
 8416TIP3    H125191   7.728   2.526   3.102
 8416TIP3    H225192   7.749   2.391   3.035
 8417TIP3   OH225193   0.397   5.261   2.895
 8417TIP3    H125194   0.338   5.281   2.823
 8417TIP3    H225195   0.383   5.168   2.913
 8418TIP3   OH225196   8.067   4.992   4.787
 8418TIP3    H125197   8.051   4.976   4.880
 8418TIP3    H225198   8.028   5.079   4.771
 8419TIP3   OH225199   5.092   7.418   3.777
 8419TIP3    H125200   5.097   7.470   3.858
 8419TIP3    H225201   5.175   7.371   3.774
 8420TIP3   OH225202   7.198   4.939   3.399
 8420TIP3    H125203   7.113   4.976   3.376
 8420TIP3    H225204   7.224   4.985   3.479
 8421TIP3   OH225205   5.483   6.327   4.808
 8421TIP3    H125206   5.514   6.244   4.846
 8421TIP3    H225207   5.409   6.352   4.864
 8422TIP3   OH225208   5.197   5.242   5.281
 8422TIP3    H125209   5.147   5.288   5.213
 8422TIP3    H225210   5.169   5.283   5.363
 8423TIP3   OH225211   1.517   0.727   4.583
 8423TIP3    H125212   1.569   0.760   4.509
 8423TIP3    H225213   1.570   0.656   4.619
 8424TIP3   OH225214   6.103   0.345   1.841
 8424TIP3    H125215   6.186   0.335   1.794
 8424TIP3    H225216   6.125   0.399   1.917
 8425TIP3   OH225217   1.719   7.874   3.783
 8425TIP3    H125218   1.782   7.809   3.753
 8425TIP3    H225219   1.696   7.846   3.871
 8426TIP3   OH225220   1.644   3.039   2.506
 8426TIP3    H125221   1.569   3.000   2.462
 8426TIP3    H225222   1.670   2.976   2.573
 8427TIP3   OH225223   3.756   4.006   0.632
 8427TIP3    H125224   3.756   4.026   0.725
 8427TIP3    H225225   3.706   4.078   0.593
 8428TIP3   OH225226   0.762   6.018   0.194
 8428TIP3    H125227   0.838   5.960   0.192
 8428TIP3    H225228   0.783   6.082   0.262
 8429TIP3   OH225229   4.711   2.309   1.106
 8429TIP3    H125230   4.735   2.383   1.162
 8429TIP3    H225231   4.628   2.278   1.141
 8430TIP3   OH225232   1.612   5.921   1.304
 8430TIP3    H125233   1.665   5.863   1.250
 8430TIP3    H225234   1.657   5.922   1.389
 8431TIP3   OH225235   3.725   7.293   5.192
 8431TIP3    H125236   3.641   7.289   5.147
 8431TIP3    H225237   3.705   7.334   5.276
 8432TIP3   OH225238   7.187   5.364   2.195
 8432TIP3    H125239   7.239   5.439   2.166
 8432TIP3    H225240   7.167   5.315   2.116
 8433TIP3   OH225241   0.864   4.674   5.176
 8433TIP3    H125242   0.778   4.703   5.145
 8433TIP3    H225243   0.924   4.702   5.106
 8434TIP3   OH225244   6.514   0.240   1.812
 8434TIP3    H125245   6.456   0.175   1.851
 8434TIP3    H225246   6.595   0.235   1.862
 8435TIP3   OH225247   3.495   6.503   3.141
 8435TIP3    H125248   3.405   6.536   3.150
 8435TIP3    H225249   3.490   6.438   3.071
 8436TIP3   OH225250   6.313   6.485   2.662
 8436TIP3    H125251   6.272   6.400   2.650
 8436TIP3    H225252   6.247   6.537   2.708
 8437TIP3   OH225253   4.123   4.974   4.256
 8437TIP3    H125254   4.170   5.056   4.243
 8437TIP3    H225255   4.147   4.920   4.181
 8438TIP3   OH225256   8.113   4.081   2.105
 8438TIP3    H125257   8.098   4.056   2.196
 8438TIP3    H225258   8.038   4.046   2.057
 8439TIP3   OH225259   6.417   4.739   0.403
 8439TIP3    H125260   6.339   4.736   0.347
 8439TIP3    H225261   6.470   4.665   0.374
 8440TIP3   OH225262   5.883   4.994   1.195
 8440TIP3    H125263   5.944   5.065   1.217
 8440TIP3    H225264   5.937   4.930   1.149
 8441TIP3   OH225265   2.474   7.657   3.405
 8441TIP3    H125266   2.543   7.627   3.346
 8441TIP3    H225267   2.478   7.597   3.480
 8442TIP3   OH225268   0.422   2.873   1.176
 8442TIP3    H125269   0.363   2.853   1.103
 8442TIP3    H225270   0.472   2.949   1.145
 8443TIP3   OH225271   7.781   2.638   0.843
 8443TIP3    H125272   7.723   2.564   0.858
 8443TIP3    H225273   7.726   2.715   0.854
 8444TIP3   OH225274   3.736   2.103   1.692
 8444TIP3    H125275   3.651   2.060   1.705
 8444TIP3    H225276   3.717   2.197   1.698
 8445TIP3   OH225277   1.946   1.807   0.474
 8445TIP3    H125278   1.999   1.882   0.446
 8445TIP3    H225279   2.008   1.734   0.476
 8446TIP3   OH225280   7.195   3.048   2.709
 8446TIP3    H125281   7.275   3.099   2.703
 8446TIP3    H225282   7.126   3.112   2.726
 8447TIP3   OH225283   6.968   2.719   3.655
 8447TIP3    H125284   6.874   2.713   3.673
 8447TIP3    H225285   6.976   2.787   3.588
 8448TIP3   OH225286   4.516   5.044   5.733
 8448TIP3    H125287   4.467   4.992   5.797
 8448TIP3    H225288   4.448   5.092   5.685
 8449TIP3   OH225289   0.928   5.380   4.453
 8449TIP3    H125290   1.005   5.408   4.403
 8449TIP3    H225291   0.883   5.461   4.476
 8450TIP3   OH225292   1.526   2.489   3.494
 8450TIP3    H125293   1.516   2.556   3.426
 8450TIP3    H225294   1.565   2.414   3.448
 8451TIP3   OH225295   2.660   5.285   6.202
 8451TIP3    H125296   2.599   5.298   6.129
 8451TIP3    H225297   2.733   5.345   6.183
 8452TIP3   OH225298   7.344   5.707   0.321
 8452TIP3    H125299   7.327   5.794   0.358
 8452TIP3    H225300   7.282   5.700   0.248
 8453TIP3   OH225301   0.528   4.618   2.774
 8453TIP3    H125302   0.609   4.664   2.753
 8453TIP3    H225303   0.543   4.581   2.861
 8454TIP3   OH225304   3.069   0.881   6.301
 8454TIP3    H125305   3.147   0.833   6.273
 8454TIP3    H225306   3.085   0.972   6.274
 8455TIP3   OH225307   3.555   1.904   1.164
 8455TIP3    H125308   3.518   1.959   1.233
 8455TIP3    H225309   3.539   1.952   1.083
 8456TIP3   OH225310   0.720   3.330   3.172
 8456TIP3    H125311   0.645   3.316   3.113
 8456TIP3    H225312   0.681   3.356   3.255
 8457TIP3   OH225313   6.469   6.829   6.330
 8457TIP3    H125314   6.512   6.745   6.313
 8457TIP3    H225315   6.451   6.865   6.243
 8458TIP3   OH225316   1.364   5.228   3.725
 8458TIP3    H125317   1.279   5.268   3.707
 8458TIP3    H225318   1.399   5.278   3.799
 8459TIP3   OH225319   0.290   1.301   3.942
 8459TIP3    H125320   0.352   1.371   3.961
 8459TIP3    H225321   0.238   1.334   3.868
 8460TIP3   OH225322   6.192   1.463   5.431
 8460TIP3    H125323   6.280   1.433   5.407
 8460TIP3    H225324   6.134   1.393   5.400
 8461TIP3   OH225325   5.945   6.813   2.394
 8461TIP3    H125326   5.962   6.735   2.341
 8461TIP3    H225327   5.851   6.828   2.386
 8462TIP3   OH225328   4.797   4.156   3.151
 8462TIP3    H125329   4.869   4.218   3.139
 8462TIP3    H225330   4.796   4.104   3.070
 8463TIP3   OH225331   3.905   7.611   6.340
 8463TIP3    H125332   3.941   7.553   6.273
 8463TIP3    H225333   3.881   7.553   6.411
 8464TIP3   OH225334   6.004   0.878   6.517
 8464TIP3    H125335   5.950   0.861   6.439
 8464TIP3    H225336   5.973   0.816   6.582
 8465TIP3   OH225337   4.362   2.839   4.243
 8465TIP3    H125338   4.387   2.914   4.189
 8465TIP3    H225339   4.443   2.810   4.284
 8466TIP3   OH225340   7.238   6.027   2.743
 8466TIP3    H125341   7.177   5.968   2.788
 8466TIP3    H225342   7.303   6.049   2.809
 8467TIP3   OH225343   6.845   1.986   0.613
 8467TIP3    H125344   6.827   1.901   0.653
 8467TIP3    H225345   6.922   1.971   0.558
 8468TIP3   OH225346   1.725   4.495   3.440
 8468TIP3    H125347   1.817   4.511   3.459
 8468TIP3    H225348   1.688   4.582   3.423
 8469TIP3   OH225349   0.574   7.691   6.742
 8469TIP3    H125350   0.511   7.706   6.813
 8469TIP3    H225351   0.557   7.762   6.680
 8470TIP3   OH225352   1.311   0.713   6.659
 8470TIP3    H125353   1.237   0.693   6.602
 8470TIP3    H225354   1.274   0.773   6.725
 8471TIP3   OH225355   0.813   7.309   3.896
 8471TIP3    H125356   0.804   7.353   3.812
 8471TIP3    H225357   0.877   7.362   3.945
 8472TIP3   OH225358   5.835   1.724   1.211
 8472TIP3    H125359   5.762   1.785   1.219
 8472TIP3    H225360   5.914   1.779   1.214
 8473TIP3   OH225361   0.364   3.227   0.460
 8473TIP3    H125362   0.439   3.256   0.512
 8473TIP3    H225363   0.290   3.276   0.496
 8474TIP3   OH225364   2.159   2.221   5.495
 8474TIP3    H125365   2.222   2.250   5.429
 8474TIP3    H225366   2.174   2.279   5.570
 8475TIP3   OH225367   7.345   1.338   2.653
 8475TIP3    H125368   7.291   1.307   2.581
 8475TIP3    H225369   7.347   1.433   2.641
 8476TIP3   OH225370   5.406   7.047   5.566
 8476TIP3    H125371   5.317   7.064   5.534
 8476TIP3    H225372   5.393   6.990   5.642
 8477TIP3   OH225373   0.344   5.494   0.100
 8477TIP3    H125374   0.263   5.454   0.132
 8477TIP3    H225375   0.395   5.511   0.179
 8478TIP3   OH225376   6.765   2.251   6.356
 8478TIP3    H125377   6.731   2.265   6.267
 8478TIP3    H225378   6.704   2.300   6.412
 8479TIP3   OH225379   6.658   5.817   4.242
 8479TIP3    H125380   6.667   5.777   4.155
 8479TIP3    H225381   6.713   5.895   4.238
 8480TIP3   OH225382   3.990   1.028   5.612
 8480TIP3    H125383   4.025   1.108   5.652
 8480TIP3    H225384   4.009   0.959   5.676
 8481TIP3   OH225385   0.948   6.648   3.250
 8481TIP3    H125386   0.911   6.571   3.293
 8481TIP3    H225387   1.008   6.612   3.184
 8482TIP3   OH225388   5.865   2.126   2.544
 8482TIP3    H125389   5.837   2.053   2.489
 8482TIP3    H225390   5.945   2.158   2.503
 8483TIP3   OH225391   1.479   6.756   5.846
 8483TIP3    H125392   1.419   6.818   5.888
 8483TIP3    H225393   1.439   6.670   5.860
 8484TIP3   OH225394   3.829   7.062   0.199
 8484TIP3    H125395   3.914   7.044   0.239
 8484TIP3    H225396   3.822   6.998   0.128
 8485TIP3   OH225397   4.710   6.558   3.714
 8485TIP3    H125398   4.748   6.471   3.698
 8485TIP3    H225399   4.654   6.574   3.638
 8486TIP3   OH225400   6.356   0.529   3.509
 8486TIP3    H125401   6.345   0.609   3.560
 8486TIP3    H225402   6.276   0.523   3.457
 8487TIP3   OH225403   0.027   2.787   6.306
 8487TIP3    H125404   0.092   2.759   6.241
 8487TIP3    H225405  -0.051   2.808   6.254
 8488TIP3   OH225406   7.341   2.052   0.511
 8488TIP3    H125407   7.367   2.138   0.478
 8488TIP3    H225408   7.417   1.996   0.496
 8489TIP3   OH225409   5.914   1.109   0.776
 8489TIP3    H125410   5.841   1.166   0.799
 8489TIP3    H225411   5.932   1.059   0.856
 8490TIP3   OH225412   6.108   7.403   4.987
 8490TIP3    H125413   6.016   7.416   4.964
 8490TIP3    H225414   6.141   7.341   4.922
 8491TIP3   OH225415   3.481   5.520   0.356
 8491TIP3    H125416   3.541   5.533   0.429
 8491TIP3    H225417   3.394   5.529   0.395
 8492TIP3   OH225418   3.572   0.330   2.174
 8492TIP3    H125419   3.627   0.401   2.142
 8492TIP3    H225420   3.629   0.281   2.234
 8493TIP3   OH225421   6.236   1.377   6.441
 8493TIP3    H125422   6.292   1.388   6.518
 8493TIP3    H225423   6.206   1.286   6.446
 8494TIP3   OH225424   3.069   5.952   2.483
 8494TIP3    H125425   3.134   5.886   2.461
 8494TIP3    H225426   3.113   6.008   2.547
 8495TIP3   OH225427   8.068   3.592   6.022
 8495TIP3    H125428   8.061   3.574   5.928
 8495TIP3    H225429   7.979   3.578   6.056
 8496TIP3   OH225430   5.164   5.477   0.738
 8496TIP3    H125431   5.150   5.409   0.673
 8496TIP3    H225432   5.152   5.559   0.690
 8497TIP3   OH225433   5.515   3.279   6.019
 8497TIP3    H125434   5.531   3.372   6.033
 8497TIP3    H225435   5.425   3.276   5.985
 8498TIP3   OH225436   1.352   3.239   2.223
 8498TIP3    H125437   1.391   3.326   2.232
 8498TIP3    H225438   1.407   3.194   2.159
 8499TIP3   OH225439   5.499   6.268   3.188
 8499TIP3    H125440   5.552   6.326   3.134
 8499TIP3    H225441   5.529   6.285   3.278
 8500TIP3   OH225442   4.314   6.731   2.718
 8500TIP3    H125443   4.221   6.714   2.700
 8500TIP3    H225444   4.329   6.688   2.803
 8501TIP3   OH225445   3.962   2.499   5.383
 8501TIP3    H125446   3.869   2.493   5.360
 8501TIP3    H225447   3.985   2.410   5.413
 8502TIP3   OH225448   3.575   3.967   1.899
 8502TIP3    H125449   3.607   3.911   1.971
 8502TIP3    H225450   3.504   3.917   1.859
 8503TIP3   OH225451   7.958   6.950   3.402
 8503TIP3    H125452   7.921   6.869   3.435
 8503TIP3    H225453   8.047   6.928   3.377
 8504TIP3   OH225454   1.017   3.498   3.682
 8504TIP3    H125455   0.982   3.419   3.724
 8504TIP3    H225456   1.006   3.483   3.588
 8505TIP3   OH225457   1.995   5.278   0.270
 8505TIP3    H125458   2.003   5.223   0.348
 8505TIP3    H225459   1.951   5.223   0.206
 8506TIP3   OH225460   0.540   3.329   6.615
 8506TIP3    H125461   0.607   3.394   6.591
 8506TIP3    H225462   0.554   3.257   6.554
 8507TIP3   OH225463   0.188   2.046   3.738
 8507TIP3    H125464   0.138   2.018   3.662
 8507TIP3    H225465   0.248   1.973   3.755
 8508TIP3   OH225466   4.123   5.419   0.930
 8508TIP3    H125467   4.161   5.501   0.900
 8508TIP3    H225468   4.043   5.410   0.878
 8509TIP3   OH225469   0.691   3.026   3.073
 8509TIP3    H125470   0.746   2.979   3.136
 8509TIP3    H225471   0.688   3.116   3.107
 8510TIP3   OH225472   3.652   6.367   6.227
 8510TIP3    H125473   3.692   6.434   6.284
 8510TIP3    H225474   3.632   6.414   6.146
 8511TIP3   OH225475   0.815   5.348   0.070
 8511TIP3    H125476   0.838   5.430   0.112
 8511TIP3    H225477   0.728   5.327   0.104
 8512TIP3   OH225478   7.170   5.111   2.023
 8512TIP3    H125479   7.105   5.107   1.953
 8512TIP3    H225480   7.133   5.057   2.093
 8513TIP3   OH225481   0.494   6.623   4.958
 8513TIP3    H125482   0.455   6.709   4.944
 8513TIP3    H225483   0.588   6.641   4.968
 8514TIP3   OH225484   6.751   1.061   2.577
 8514TIP3    H125485   6.821   1.006   2.540
 8514TIP3    H225486   6.786   1.150   2.573
 8515TIP3   OH225487   0.407   6.276   0.594
 8515TIP3    H125488   0.395   6.270   0.500
 8515TIP3    H225489   0.484   6.221   0.612
 8516TIP3   OH225490   8.309   7.786   2.974
 8516TIP3    H125491   8.269   7.852   2.917
 8516TIP3    H225492   8.303   7.824   3.062
 8517TIP3   OH225493   6.600   5.088   4.905
 8517TIP3    H125494   6.589   5.150   4.976
 8517TIP3    H225495   6.587   5.139   4.825
 8518TIP3   OH225496   7.183   6.530   6.741
 8518TIP3    H125497   7.130   6.518   6.820
 8518TIP3    H225498   7.173   6.447   6.694
 8519TIP3   OH225499   3.166   3.371   4.873
 8519TIP3    H125500   3.094   3.327   4.827
 8519TIP3    H225501   3.123   3.415   4.947
 8520TIP3   OH225502   4.608   0.395   0.268
 8520TIP3    H125503   4.520   0.360   0.283
 8520TIP3    H225504   4.599   0.490   0.276
 8521TIP3   OH225505   7.140   7.745   1.086
 8521TIP3    H125506   7.229   7.773   1.065
 8521TIP3    H225507   7.092   7.826   1.101
 8522TIP3   OH225508   5.104   1.330   0.455
 8522TIP3    H125509   5.045   1.255   0.454
 8522TIP3    H225510   5.145   1.329   0.368
 8523TIP3   OH225511   6.839   2.094   4.465
 8523TIP3    H125512   6.863   2.048   4.385
 8523TIP3    H225513   6.828   2.025   4.530
 8524TIP3   OH225514   6.545   1.582   0.556
 8524TIP3    H125515   6.630   1.557   0.520
 8524TIP3    H225516   6.551   1.677   0.567
 8525TIP3   OH225517   6.466   4.112   4.378
 8525TIP3    H125518   6.556   4.146   4.369
 8525TIP3    H225519   6.455   4.056   4.302
 8526TIP3   OH225520   4.634   4.538   4.795
 8526TIP3    H125521   4.647   4.457   4.845
 8526TIP3    H225522   4.629   4.510   4.704
 8527TIP3   OH225523   5.527   4.320   4.234
 8527TIP3    H125524   5.540   4.408   4.199
 8527TIP3    H225525   5.557   4.325   4.325
 8528TIP3   OH225526   2.379   7.642   0.250
 8528TIP3    H125527   2.298   7.591   0.245
 8528TIP3    H225528   2.371   7.692   0.331
 8529TIP3   OH225529   6.303   0.843   1.618
 8529TIP3    H125530   6.352   0.764   1.642
 8529TIP3    H225531   6.211   0.819   1.633
 8530TIP3   OH225532   7.498   4.543   3.191
 8530TIP3    H125533   7.587   4.576   3.206
 8530TIP3    H225534   7.464   4.525   3.278
 8531TIP3   OH225535   2.808   0.644   4.949
 8531TIP3    H125536   2.860   0.575   4.990
 8531TIP3    H225537   2.772   0.694   5.022
 8532TIP3   OH225538   5.444   5.264   6.570
 8532TIP3    H125539   5.475   5.303   6.488
 8532TIP3    H225540   5.499   5.303   6.638
 8533TIP3   OH225541   4.583   7.766   4.425
 8533TIP3    H125542   4.561   7.728   4.510
 8533TIP3    H225543   4.663   7.722   4.399
 8534TIP3   OH225544   7.782   0.279   2.677
 8534TIP3    H125545   7.723   0.227   2.732
 8534TIP3    H225546   7.745   0.273   2.589
 8535TIP3   OH225547   2.241   1.815   4.803
 8535TIP3    H125548   2.283   1.825   4.888
 8535TIP3    H225549   2.190   1.895   4.791
 8536TIP3   OH225550   0.193   7.698   0.073
 8536TIP3    H125551   0.164   7.738  -0.008
 8536TIP3    H225552   0.260   7.757   0.107
 8537TIP3   OH225553   2.065   5.799   6.742
 8537TIP3    H125554   2.135   5.747   6.781
 8537TIP3    H225555   1.996   5.800   6.808
 8538TIP3   OH225556   2.437   7.631   1.549
 8538TIP3    H125557   2.527   7.604   1.563
 8538TIP3    H225558   2.413   7.593   1.464
 8539TIP3   OH225559   4.827   1.205   2.379
 8539TIP3    H125560   4.895   1.137   2.383
 8539TIP3    H225561   4.869   1.278   2.334
 8540TIP3   OH225562   7.657   0.264   3.946
 8540TIP3    H125563   7.674   0.234   3.857
 8540TIP3    H225564   7.641   0.183   3.996
 8541TIP3   OH225565   0.581   1.966   5.427
 8541TIP3    H125566   0.603   1.884   5.384
 8541TIP3    H225567   0.619   1.959   5.515
 8542TIP3   OH225568   4.859   4.328   1.373
 8542TIP3    H125569   4.870   4.291   1.461
 8542TIP3    H225570   4.790   4.393   1.383
 8543TIP3   OH225571   7.762   5.632   5.807
 8543TIP3    H125572   7.799   5.543   5.808
 8543TIP3    H225573   7.674   5.620   5.770
 8544TIP3   OH225574   0.693   2.703   5.607
 8544TIP3    H125575   0.658   2.736   5.524
 8544TIP3    H225576   0.680   2.608   5.603
 8545TIP3   OH225577   3.933   5.018   4.619
 8545TIP3    H125578   3.885   4.957   4.675
 8545TIP3    H225579   3.892   5.009   4.533
 8546TIP3   OH225580   4.897   7.769   3.795
 8546TIP3    H125581   4.867   7.849   3.751
 8546TIP3    H225582   4.955   7.727   3.732
 8547TIP3   OH225583   2.222   5.193   6.076
 8547TIP3    H125584   2.193   5.173   6.166
 8547TIP3    H225585   2.177   5.274   6.054
 8548TIP3   OH225586   3.508   6.725   4.480
 8548TIP3    H125587   3.461   6.650   4.517
 8548TIP3    H225588   3.465   6.741   4.396
 8549TIP3   OH225589   3.734   1.777   1.438
 8549TIP3    H125590   3.810   1.820   1.476
 8549TIP3    H225591   3.760   1.758   1.348
 8550TIP3   OH225592   6.564   7.548   6.504
 8550TIP3    H125593   6.474   7.580   6.501
 8550TIP3    H225594   6.594   7.550   6.413
 8551TIP3   OH225595   0.449   4.882   2.881
 8551TIP3    H125596   0.361   4.917   2.894
 8551TIP3    H225597   0.435   4.795   2.845
 8552TIP3   OH225598   3.562   5.441   4.804
 8552TIP3    H125599   3.605   5.472   4.883
 8552TIP3    H225600   3.478   5.485   4.802
 8553TIP3   OH225601   0.707   5.954   1.005
 8553TIP3    H125602   0.790   5.960   0.959
 8553TIP3    H225603   0.726   5.902   1.083
 8554TIP3   OH225604   2.154   7.492   2.199
 8554TIP3    H125605   2.137   7.534   2.115
 8554TIP3    H225606   2.171   7.401   2.177
 8555TIP3   OH225607   2.579   5.737   2.715
 8555TIP3    H125608   2.519   5.746   2.790
 8555TIP3    H225609   2.666   5.749   2.753
 8556TIP3   OH225610   0.870   2.487   1.012
 8556TIP3    H125611   0.915   2.549   1.069
 8556TIP3    H225612   0.835   2.421   1.072
 8557TIP3   OH225613   3.684   4.588   2.528
 8557TIP3    H125614   3.640   4.503   2.520
 8557TIP3    H225615   3.613   4.651   2.528
 8558TIP3   OH225616   3.221   1.922   5.424
 8558TIP3    H125617   3.309   1.955   5.437
 8558TIP3    H225618   3.198   1.882   5.508
 8559TIP3   OH225619   0.605   3.000  -0.070
 8559TIP3    H125620   0.595   3.076  -0.014
 8559TIP3    H225621   0.699   2.987  -0.077
 8560TIP3   OH225622   4.622   5.446   1.596
 8560TIP3    H125623   4.691   5.380   1.593
 8560TIP3    H225624   4.587   5.441   1.685
 8561TIP3   OH225625   5.517   5.855   5.227
 8561TIP3    H125626   5.559   5.790   5.171
 8561TIP3    H225627   5.561   5.846   5.312
 8562TIP3   OH225628   0.652   2.279   3.048
 8562TIP3    H125629   0.695   2.219   2.987
 8562TIP3    H225630   0.642   2.229   3.129
 8563TIP3   OH225631   7.053   3.643   3.815
 8563TIP3    H125632   7.107   3.642   3.736
 8563TIP3    H225633   6.994   3.568   3.805
 8564TIP3   OH225634   2.568   0.095   3.243
 8564TIP3    H125635   2.657   0.072   3.272
 8564TIP3    H225636   2.524   0.011   3.230
 8565TIP3   OH225637   5.663   0.355   6.031
 8565TIP3    H125638   5.740   0.393   6.072
 8565TIP3    H225639   5.668   0.382   5.940
 8566TIP3   OH225640   3.267   5.290   4.387
 8566TIP3    H125641   3.348   5.320   4.345
 8566TIP3    H225642   3.213   5.259   4.314
 8567TIP3   OH225643   1.971   1.094   3.355
 8567TIP3    H125644   1.963   1.112   3.261
 8567TIP3    H225645   2.062   1.116   3.376
 8568TIP3   OH225646   0.722   0.107   0.936
 8568TIP3    H125647   0.675   0.147   1.009
 8568TIP3    H225648   0.667   0.123   0.860
 8569TIP3   OH225649   7.673   7.330   6.071
 8569TIP3    H125650   7.673   7.280   6.153
 8569TIP3    H225651   7.610   7.284   6.015
 8570TIP3   OH225652   1.837   6.116   1.184
 8570TIP3    H125653   1.830   6.092   1.092
 8570TIP3    H225654   1.878   6.040   1.226
 8571TIP3   OH225655   6.203   0.489   2.071
 8571TIP3    H125656   6.262   0.564   2.078
 8571TIP3    H225657   6.122   0.519   2.112
 8572TIP3   OH225658   3.942   4.075   1.942
 8572TIP3    H125659   3.871   4.131   1.973
 8572TIP3    H225660   3.974   4.030   2.021
 8573TIP3   OH225661   2.964   3.364   4.598
 8573TIP3    H125662   2.931   3.287   4.643
 8573TIP3    H225663   3.042   3.334   4.551
 8574TIP3   OH225664   1.453   1.823   3.722
 8574TIP3    H125665   1.412   1.747   3.681
 8574TIP3    H225666   1.471   1.882   3.649
 8575TIP3   OH225667   4.251   5.986   1.621
 8575TIP3    H125668   4.330   6.027   1.586
 8575TIP3    H225669   4.180   6.043   1.592
 8576TIP3   OH225670   7.575   0.152   0.108
 8576TIP3    H125671   7.605   0.128   0.196
 8576TIP3    H225672   7.489   0.191   0.123
 8577TIP3   OH225673   5.648   0.571   0.159
 8577TIP3    H125674   5.611   0.542   0.076
 8577TIP3    H225675   5.716   0.634   0.133
 8578TIP3   OH225676   1.173   3.905   2.717
 8578TIP3    H125677   1.245   3.889   2.656
 8578TIP3    H225678   1.108   3.953   2.666
 8579TIP3   OH225679   5.419   6.383   6.159
 8579TIP3    H125680   5.440   6.442   6.086
 8579TIP3    H225681   5.489   6.318   6.158
 8580TIP3   OH225682   1.919   3.529   4.972
 8580TIP3    H125683   1.963   3.483   5.043
 8580TIP3    H225684   1.873   3.601   5.014
 8581TIP3   OH225685   1.350   6.244   0.255
 8581TIP3    H125686   1.268   6.281   0.288
 8581TIP3    H225687   1.355   6.157   0.295
 8582TIP3   OH225688   6.873   0.858   0.576
 8582TIP3    H125689   6.845   0.771   0.548
 8582TIP3    H225690   6.816   0.878   0.651
 8583TIP3   OH225691   1.905   0.918   0.422
 8583TIP3    H125692   1.921   0.855   0.352
 8583TIP3    H225693   1.991   0.935   0.459
 8584TIP3   OH225694   6.050   0.964   4.202
 8584TIP3    H125695   6.100   1.006   4.272
 8584TIP3    H225696   6.083   0.875   4.199
 8585TIP3   OH225697   1.364   5.610   6.076
 8585TIP3    H125698   1.399   5.676   6.017
 8585TIP3    H225699   1.269   5.623   6.075
 8586TIP3   OH225700   7.838   7.287   5.778
 8586TIP3    H125701   7.750   7.270   5.813
 8586TIP3    H225702   7.851   7.381   5.790
 8587TIP3   OH225703   3.346   4.261   4.988
 8587TIP3    H125704   3.264   4.222   5.017
 8587TIP3    H225705   3.389   4.288   5.070
 8588TIP3   OH225706   5.743   7.161   2.211
 8588TIP3    H125707   5.776   7.129   2.295
 8588TIP3    H225708   5.652   7.183   2.228
 8589TIP3   OH225709   6.753   0.606   4.065
 8589TIP3    H125710   6.710   0.569   3.988
 8589TIP3    H225711   6.682   0.644   4.117
 8590TIP3   OH225712   2.370   2.311   5.314
 8590TIP3    H125713   2.392   2.323   5.406
 8590TIP3    H225714   2.442   2.353   5.267
 8591TIP3   OH225715   4.060   6.702   3.066
 8591TIP3    H125716   3.996   6.647   3.111
 8591TIP3    H225717   4.010   6.778   3.036
 8592TIP3   OH225718   2.454   5.659   5.775
 8592TIP3    H125719   2.467   5.608   5.855
 8592TIP3    H225720   2.497   5.743   5.793
 8593TIP3   OH225721   4.583   4.526   2.845
 8593TIP3    H125722   4.661   4.530   2.790
 8593TIP3    H225723   4.597   4.594   2.911
 8594TIP3   OH225724   7.453   3.859   6.119
 8594TIP3    H125725   7.473   3.796   6.188
 8594TIP3    H225726   7.410   3.932   6.164
 8595TIP3   OH225727   6.532   4.730   1.980
 8595TIP3    H125728   6.603   4.666   1.980
 8595TIP3    H225729   6.538   4.772   1.894
 8596TIP3   OH225730   6.563   1.871   0.545
 8596TIP3    H125731   6.496   1.939   0.537
 8596TIP3    H225732   6.635   1.913   0.592
 8597TIP3   OH225733   4.128   4.440   0.124
 8597TIP3    H125734   4.058   4.501   0.146
 8597TIP3    H225735   4.175   4.482   0.052
 8598TIP3   OH225736   6.527   1.601   4.643
 8598TIP3    H125737   6.448   1.632   4.688
 8598TIP3    H225738   6.545   1.668   4.577
 8599TIP3   OH225739   7.815   2.205   0.574
 8599TIP3    H125740   7.859   2.266   0.633
 8599TIP3    H225741   7.799   2.256   0.494
 8600TIP3   OH225742   5.145   1.762   0.153
 8600TIP3    H125743   5.063   1.734   0.193
 8600TIP3    H225744   5.123   1.782   0.062
 8601TIP3   OH225745   7.284   5.846   4.864
 8601TIP3    H125746   7.221   5.918   4.859
 8601TIP3    H225747   7.245   5.776   4.811
 8602TIP3   OH225748   3.177   1.474   5.518
 8602TIP3    H125749   3.157   1.400   5.461
 8602TIP3    H225750   3.234   1.438   5.586
 8603TIP3   OH225751   7.058   1.516   3.237
 8603TIP3    H125752   6.980   1.493   3.186
 8603TIP3    H225753   7.076   1.438   3.290
 8604TIP3   OH225754   0.569   2.140   0.822
 8604TIP3    H125755   0.524   2.060   0.849
 8604TIP3    H225756   0.539   2.155   0.732
 8605TIP3   OH225757   1.880   4.074   2.937
 8605TIP3    H125758   1.855   3.996   2.889
 8605TIP3    H225759   1.935   4.042   3.009
 8606TIP3   OH225760   7.418   1.837   0.181
 8606TIP3    H125761   7.340   1.789   0.154
 8606TIP3    H225762   7.474   1.771   0.222
 8607TIP3   OH225763   1.190   5.272   1.871
 8607TIP3    H125764   1.258   5.334   1.897
 8607TIP3    H225765   1.181   5.285   1.777
 8608TIP3   OH225766   5.138   3.375   1.887
 8608TIP3    H125767   5.098   3.363   1.801
 8608TIP3    H225768   5.122   3.294   1.933
 8609TIP3   OH225769   1.900   6.581   2.409
 8609TIP3    H125770   1.884   6.555   2.319
 8609TIP3    H225771   1.948   6.664   2.402
 8610TIP3   OH225772   4.798   1.191   4.401
 8610TIP3    H125773   4.821   1.283   4.386
 8610TIP3    H225774   4.759   1.190   4.488
 8611TIP3   OH225775   1.724   1.263   2.055
 8611TIP3    H125776   1.808   1.218   2.061
 8611TIP3    H225777   1.690   1.239   1.968
 8612TIP3   OH225778   3.311   4.288   1.904
 8612TIP3    H125779   3.329   4.382   1.901
 8612TIP3    H225780   3.263   4.276   1.986
 8613TIP3   OH225781   6.771   5.886   3.833
 8613TIP3    H125782   6.697   5.840   3.873
 8613TIP3    H225783   6.847   5.831   3.851
 8614TIP3   OH225784   8.186   0.691   5.960
 8614TIP3    H125785   8.281   0.685   5.950
 8614TIP3    H225786   8.173   0.730   6.046
 8615TIP3   OH225787   2.389   2.562   5.047
 8615TIP3    H125788   2.466   2.507   5.061
 8615TIP3    H225789   2.355   2.535   4.962
 8616TIP3   OH225790   5.139   3.623   6.727
 8616TIP3    H125791   5.218   3.645   6.678
 8616TIP3    H225792   5.074   3.603   6.659
 8617TIP3   OH225793   1.773   5.885   6.225
 8617TIP3    H125794   1.752   5.978   6.215
 8617TIP3    H225795   1.842   5.882   6.291
 8618TIP3   OH225796   4.715   2.980   5.671
 8618TIP3    H125797   4.714   3.036   5.593
 8618TIP3    H225798   4.789   2.921   5.658
 8619TIP3   OH225799   0.325   6.848   4.908
 8619TIP3    H125800   0.243   6.810   4.939
 8619TIP3    H225801   0.301   6.937   4.880
 8620TIP3   OH225802   7.702   3.508   4.746
 8620TIP3    H125803   7.755   3.452   4.802
 8620TIP3    H225804   7.640   3.448   4.705
 8621TIP3   OH225805   1.205   4.539   1.256
 8621TIP3    H125806   1.288   4.568   1.293
 8621TIP3    H225807   1.156   4.619   1.239
 8622TIP3   OH225808   7.415   1.063   2.330
 8622TIP3    H125809   7.388   1.023   2.247
 8622TIP3    H225810   7.471   0.997   2.371
 8623TIP3   OH225811   5.173   4.775   3.156
 8623TIP3    H125812   5.135   4.749   3.239
 8623TIP3    H225813   5.155   4.869   3.149
 8624TIP3   OH225814   2.280   6.039   1.863
 8624TIP3    H125815   2.213   5.986   1.906
 8624TIP3    H225816   2.255   6.130   1.881
 8625TIP3   OH225817   6.280   0.498   6.604
 8625TIP3    H125818   6.277   0.451   6.520
 8625TIP3    H225819   6.340   0.446   6.658
 8626TIP3   OH225820   7.688   2.458   2.732
 8626TIP3    H125821   7.729   2.451   2.818
 8626TIP3    H225822   7.604   2.413   2.742
 8627TIP3   OH225823   1.552   4.481   0.161
 8627TIP3    H125824   1.536   4.506   0.251
 8627TIP3    H225825   1.558   4.563   0.113
 8628TIP3   OH225826   1.276   2.014   0.560
 8628TIP3    H125827   1.227   1.992   0.481
 8628TIP3    H225828   1.318   2.097   0.540
 8629TIP3   OH225829   2.792   3.651   1.136
 8629TIP3    H125830   2.811   3.628   1.046
 8629TIP3    H225831   2.810   3.571   1.186
 8630TIP3   OH225832   3.647   3.781   3.979
 8630TIP3    H125833   3.719   3.836   4.008
 8630TIP3    H225834   3.672   3.753   3.891
 8631TIP3   OH225835   2.923   6.251   2.780
 8631TIP3    H125836   2.844   6.211   2.744
 8631TIP3    H225837   2.981   6.178   2.799
 8632TIP3   OH225838   3.743   4.948   3.487
 8632TIP3    H125839   3.657   4.972   3.521
 8632TIP3    H225840   3.803   5.007   3.533
 8633TIP3   OH225841   4.354   2.316   4.601
 8633TIP3    H125842   4.433   2.311   4.546
 8633TIP3    H225843   4.337   2.410   4.609
 8634TIP3   OH225844   7.296   0.713   2.014
 8634TIP3    H125845   7.351   0.773   2.064
 8634TIP3    H225846   7.325   0.626   2.042
 8635TIP3   OH225847   5.766   2.941   4.140
 8635TIP3    H125848   5.742   2.937   4.048
 8635TIP3    H225849   5.832   2.872   4.151
 8636TIP3   OH225850   8.205   6.959   1.058
 8636TIP3    H125851   8.208   6.872   1.020
 8636TIP3    H225852   8.296   6.990   1.056
 8637TIP3   OH225853   4.627   1.211   3.424
 8637TIP3    H125854   4.565   1.157   3.472
 8637TIP3    H225855   4.573   1.270   3.372
 8638TIP3   OH225856   5.598   1.801   2.848
 8638TIP3    H125857   5.507   1.798   2.819
 8638TIP3    H225858   5.601   1.873   2.911
 8639TIP3   OH225859   2.430   2.522   3.021
 8639TIP3    H125860   2.463   2.473   3.097
 8639TIP3    H225861   2.357   2.469   2.990
 8640TIP3   OH225862   3.822   3.176   0.522
 8640TIP3    H125863   3.759   3.135   0.463
 8640TIP3    H225864   3.900   3.121   0.514
 8641TIP3   OH225865   7.633   5.854   1.730
 8641TIP3    H125866   7.715   5.851   1.682
 8641TIP3    H225867   7.656   5.892   1.815
 8642TIP3   OH225868   3.140   6.222   0.859
 8642TIP3    H125869   3.157   6.129   0.844
 8642TIP3    H225870   3.044   6.229   0.860
 8643TIP3   OH225871   1.835   6.412   2.603
 8643TIP3    H125872   1.906   6.421   2.667
 8643TIP3    H225873   1.854   6.479   2.537
 8644TIP3   OH225874   6.751   5.269   1.491
 8644TIP3    H125875   6.732   5.363   1.486
 8644TIP3    H225876   6.793   5.248   1.407
 8645TIP3   OH225877   4.589   3.650   5.807
 8645TIP3    H125878   4.574   3.555   5.810
 8645TIP3    H225879   4.550   3.678   5.725
 8646TIP3   OH225880   5.879   5.228   4.125
 8646TIP3    H125881   5.796   5.263   4.093
 8646TIP3    H225882   5.853   5.160   4.188
 8647TIP3   OH225883   3.340   0.288   3.375
 8647TIP3    H125884   3.404   0.358   3.364
 8647TIP3    H225885   3.363   0.224   3.308
 8648TIP3   OH225886   7.407   1.457   6.019
 8648TIP3    H125887   7.420   1.394   6.090
 8648TIP3    H225888   7.345   1.414   5.961
 8649TIP3   OH225889   7.002   4.183   5.817
 8649TIP3    H125890   6.978   4.230   5.737
 8649TIP3    H225891   6.971   4.240   5.888
 8650TIP3   OH225892   1.930   7.170   6.417
 8650TIP3    H125893   1.929   7.092   6.473
 8650TIP3    H225894   1.927   7.136   6.328
 8651TIP3   OH225895   4.622   1.800   3.867
 8651TIP3    H125896   4.675   1.722   3.851
 8651TIP3    H225897   4.569   1.778   3.944
 8652TIP3   OH225898   7.497   3.363   4.637
 8652TIP3    H125899   7.498   3.269   4.622
 8652TIP3    H225900   7.455   3.399   4.559
 8653TIP3   OH225901   5.995   0.173   1.622
 8653TIP3    H125902   6.047   0.215   1.554
 8653TIP3    H225903   6.007   0.228   1.699
 8654TIP3   OH225904   7.478   4.983   3.911
 8654TIP3    H125905   7.550   4.938   3.866
 8654TIP3    H225906   7.521   5.052   3.962
 8655TIP3   OH225907   0.123   4.679   6.505
 8655TIP3    H125908   0.146   4.664   6.413
 8655TIP3    H225909   0.181   4.750   6.533
 8656TIP3   OH225910   4.116   1.799   6.606
 8656TIP3    H125911   4.150   1.881   6.641
 8656TIP3    H225912   4.115   1.812   6.511
 8657TIP3   OH225913   2.550   4.661   1.700
 8657TIP3    H125914   2.535   4.675   1.606
 8657TIP3    H225915   2.522   4.743   1.741
 8658TIP3   OH225916   0.782   1.016   3.473
 8658TIP3    H125917   0.866   0.980   3.446
 8658TIP3    H225918   0.804   1.082   3.539
 8659TIP3   OH225919   1.485   7.385   0.279
 8659TIP3    H125920   1.475   7.313   0.217
 8659TIP3    H225921   1.578   7.407   0.275
 8660TIP3   OH225922   2.785   4.018   1.344
 8660TIP3    H125923   2.867   4.027   1.391
 8660TIP3    H225924   2.812   4.006   1.252
 8661TIP3   OH225925   6.044   4.232   2.863
 8661TIP3    H125926   6.131   4.196   2.877
 8661TIP3    H225927   6.044   4.315   2.910
 8662TIP3   OH225928   0.825   7.533   5.696
 8662TIP3    H125929   0.909   7.579   5.701
 8662TIP3    H225930   0.816   7.490   5.781
 8663TIP3   OH225931   5.042   6.287   0.375
 8663TIP3    H125932   4.950   6.297   0.351
 8663TIP3    H225933   5.042   6.283   0.470
 8664TIP3   OH225934   2.322   7.906   1.000
 8664TIP3    H125935   2.303   7.813   0.983
 8664TIP3    H225936   2.347   7.909   1.092
 8665TIP3   OH225937   3.545   1.307   6.398
 8665TIP3    H125938   3.549   1.243   6.469
 8665TIP3    H225939   3.623   1.361   6.409
 8666TIP3   OH225940   5.930   3.817   4.423
 8666TIP3    H125941   5.897   3.875   4.354
 8666TIP3    H225942   5.994   3.761   4.379
 8667TIP3   OH225943   4.717   0.239   4.827
 8667TIP3    H125944   4.775   0.311   4.802
 8667TIP3    H225945   4.630   0.269   4.803
 8668TIP3   OH225946   2.817   1.769   5.912
 8668TIP3    H125947   2.896   1.724   5.882
 8668TIP3    H225948   2.747   1.736   5.854
 8669TIP3   OH225949   4.618   5.760   0.923
 8669TIP3    H125950   4.619   5.836   0.865
 8669TIP3    H225951   4.701   5.716   0.906
 8670TIP3   OH225952   0.394   4.901   4.903
 8670TIP3    H125953   0.414   4.994   4.892
 8670TIP3    H225954   0.331   4.883   4.833
 8671TIP3   OH225955   8.144   0.050   2.640
 8671TIP3    H125956   8.161   0.114   2.571
 8671TIP3    H225957   8.211   0.069   2.707
 8672TIP3   OH225958   3.596   1.231   4.063
 8672TIP3    H125959   3.678   1.280   4.058
 8672TIP3    H225960   3.621   1.142   4.038
 8673TIP3   OH225961  -0.003   2.819   2.747
 8673TIP3    H125962  -0.001   2.897   2.691
 8673TIP3    H225963   0.086   2.786   2.746
 8674TIP3   OH225964   7.294   2.552   6.226
 8674TIP3    H125965   7.352   2.484   6.191
 8674TIP3    H225966   7.211   2.507   6.244
 8675TIP3   OH225967   6.176   0.168   3.241
 8675TIP3    H125968   6.165   0.101   3.309
 8675TIP3    H225969   6.135   0.131   3.163
 8676TIP3   OH225970   1.858   2.904   5.077
 8676TIP3    H125971   1.884   2.937   5.163
 8676TIP3    H225972   1.935   2.857   5.045
 8677TIP3   OH225973   1.574   0.253   6.721
 8677TIP3    H125974   1.489   0.296   6.712
 8677TIP3    H225975   1.599   0.229   6.632
 8678TIP3   OH225976   4.128   2.439   5.772
 8678TIP3    H125977   4.150   2.397   5.855
 8678TIP3    H225978   4.203   2.422   5.715
 8679TIP3   OH225979   6.594   6.532   2.078
 8679TIP3    H125980   6.506   6.551   2.045
 8679TIP3    H225981   6.581   6.510   2.170
 8680TIP3   OH225982   6.800   3.792   0.055
 8680TIP3    H125983   6.882   3.801   0.104
 8680TIP3    H225984   6.828   3.791  -0.037
 8681TIP3   OH225985   4.231   2.487   1.821
 8681TIP3    H125986   4.317   2.459   1.852
 8681TIP3    H225987   4.206   2.423   1.755
 8682TIP3   OH225988   6.947  -0.006   6.385
 8682TIP3    H125989   6.988  -0.086   6.352
 8682TIP3    H225990   6.853  -0.024   6.382
 8683TIP3   OH225991   4.718   6.205   0.906
 8683TIP3    H125992   4.753   6.134   0.853
 8683TIP3    H225993   4.644   6.238   0.856
 8684TIP3   OH225994   2.054   6.010   4.996
 8684TIP3    H125995   1.994   5.948   5.039
 8684TIP3    H225996   2.140   5.969   5.003
 8685TIP3   OH225997   8.314   3.750   5.962
 8685TIP3    H125998   8.272   3.814   6.020
 8685TIP3    H225999   8.254   3.676   5.962
 8686TIP3   OH226000   3.505   5.616   3.670
 8686TIP3    H126001   3.537   5.635   3.758
 8686TIP3    H226002   3.544   5.532   3.648
 8687TIP3   OH226003   2.486   6.362   6.700
 8687TIP3    H126004   2.426   6.291   6.722
 8687TIP3    H226005   2.551   6.322   6.642
 8688TIP3   OH226006   3.689   6.396   1.466
 8688TIP3    H126007   3.613   6.419   1.413
 8688TIP3    H226008   3.692   6.464   1.534
 8689TIP3   OH226009   5.892   4.018   5.399
 8689TIP3    H126010   5.866   3.928   5.380
 8689TIP3    H226011   5.969   4.010   5.455
 8690TIP3   OH226012   1.371   4.445   1.602
 8690TIP3    H126013   1.365   4.350   1.612
 8690TIP3    H226014   1.403   4.476   1.686
 8691TIP3   OH226015   2.297   4.100   0.453
 8691TIP3    H126016   2.309   4.086   0.547
 8691TIP3    H226017   2.385   4.103   0.417
 8692TIP3   OH226018   2.487   4.616   4.679
 8692TIP3    H126019   2.511   4.694   4.630
 8692TIP3    H226020   2.486   4.643   4.770
 8693TIP3   OH226021   5.664   6.964   4.800
 8693TIP3    H126022   5.590   6.910   4.827
 8693TIP3    H226023   5.691   6.928   4.715
 8694TIP3   OH226024   2.268   0.283   5.755
 8694TIP3    H126025   2.274   0.377   5.770
 8694TIP3    H226026   2.174   0.263   5.761
 8695TIP3   OH226027   0.999   5.301   2.066
 8695TIP3    H126028   1.068   5.292   2.000
 8695TIP3    H226029   1.005   5.392   2.095
 8696TIP3   OH226030   3.403   7.525   5.091
 8696TIP3    H126031   3.337   7.488   5.032
 8696TIP3    H226032   3.389   7.619   5.087
 8697TIP3   OH226033   4.595   5.988   2.925
 8697TIP3    H126034   4.499   5.984   2.927
 8697TIP3    H226035   4.619   5.951   2.840
 8698TIP3   OH226036   4.615   2.975   3.634
 8698TIP3    H126037   4.569   3.051   3.671
 8698TIP3    H226038   4.647   2.927   3.710
 8699TIP3   OH226039   5.209   2.777   0.441
 8699TIP3    H126040   5.132   2.790   0.386
 8699TIP3    H226041   5.256   2.703   0.401
 8700TIP3   OH226042   2.718   2.170   3.359
 8700TIP3    H126043   2.724   2.076   3.374
 8700TIP3    H226044   2.661   2.202   3.429
 8701TIP3   OH226045   4.650   6.591   5.199
 8701TIP3    H126046   4.632   6.683   5.181
 8701TIP3    H226047   4.648   6.584   5.294
 8702TIP3   OH226048   8.041   4.635   2.323
 8702TIP3    H126049   8.074   4.554   2.364
 8702TIP3    H226050   8.018   4.609   2.234
 8703TIP3   OH226051   0.769   6.739   0.334
 8703TIP3    H126052   0.766   6.685   0.413
 8703TIP3    H226053   0.733   6.824   0.361
 8704TIP3   OH226054   7.563   5.420   1.831
 8704TIP3    H126055   7.656   5.406   1.851
 8704TIP3    H226056   7.519   5.341   1.863
 8705TIP3   OH226057   5.939   0.609   1.317
 8705TIP3    H126058   5.864   0.556   1.341
 8705TIP3    H226059   5.920   0.639   1.228
 8706TIP3   OH226060   3.096   3.957   4.755
 8706TIP3    H126061   3.168   3.934   4.696
 8706TIP3    H226062   3.097   4.052   4.758
 8707TIP3   OH226063   6.109   3.959   0.450
 8707TIP3    H126064   6.014   3.967   0.453
 8707TIP3    H226065   6.141   4.043   0.485
 8708TIP3   OH226066   4.439   6.268   2.706
 8708TIP3    H126067   4.517   6.309   2.743
 8708TIP3    H226068   4.404   6.332   2.645
 8709TIP3   OH226069   1.317   2.426   1.569
 8709TIP3    H126070   1.373   2.499   1.542
 8709TIP3    H226071   1.267   2.404   1.490
 8710TIP3   OH226072   6.528   5.231   3.488
 8710TIP3    H126073   6.594   5.234   3.419
 8710TIP3    H226074   6.527   5.319   3.525
 8711TIP3   OH226075   5.418   0.603   3.893
 8711TIP3    H126076   5.474   0.547   3.838
 8711TIP3    H226077   5.424   0.564   3.980
 8712TIP3   OH226078   4.692   4.099   0.063
 8712TIP3    H126079   4.602   4.129   0.053
 8712TIP3    H226080   4.723   4.142   0.143
 8713TIP3   OH226081   2.141   3.106   4.516
 8713TIP3    H126082   2.154   3.048   4.591
 8713TIP3    H226083   2.214   3.168   4.522
 8714TIP3   OH226084   4.288   7.817   3.015
 8714TIP3    H126085   4.357   7.771   3.062
 8714TIP3    H226086   4.259   7.885   3.076
 8715TIP3   OH226087   5.172   3.536   5.217
 8715TIP3    H126088   5.217   3.513   5.136
 8715TIP3    H226089   5.232   3.596   5.262
 8716TIP3   OH226090   8.312   4.143   6.311
 8716TIP3    H126091   8.282   4.137   6.402
 8716TIP3    H226092   8.407   4.131   6.316
 8717TIP3   OH226093   3.178   6.813   1.132
 8717TIP3    H126094   3.212   6.843   1.217
 8717TIP3    H226095   3.103   6.870   1.115
 8718TIP3   OH226096   6.297   1.043   2.980
 8718TIP3    H126097   6.391   1.027   2.990
 8718TIP3    H226098   6.291   1.099   2.903
 8719TIP3   OH226099   4.668   2.171   2.237
 8719TIP3    H126100   4.699   2.120   2.312
 8719TIP3    H226101   4.748   2.200   2.193
 8720TIP3   OH226102   5.935   3.828   0.175
 8720TIP3    H126103   5.862   3.881   0.143
 8720TIP3    H226104   5.910   3.806   0.265
 8721TIP3   OH226105   7.109   3.730   2.614
 8721TIP3    H126106   7.100   3.670   2.688
 8721TIP3    H226107   7.056   3.806   2.637
 8722TIP3   OH226108   6.499   3.381   1.908
 8722TIP3    H126109   6.544   3.456   1.947
 8722TIP3    H226110   6.548   3.363   1.827
 8723TIP3   OH226111   5.923   1.184   2.722
 8723TIP3    H126112   5.928   1.137   2.638
 8723TIP3    H226113   5.830   1.198   2.736
 8724TIP3   OH226114   5.049   7.479   1.070
 8724TIP3    H126115   5.027   7.572   1.072
 8724TIP3    H226116   5.139   7.475   1.103
 8725TIP3   OH226117   2.543   0.694   6.686
 8725TIP3    H126118   2.541   0.783   6.721
 8725TIP3    H226119   2.521   0.639   6.761
 8726TIP3   OH226120   7.534   4.466   2.874
 8726TIP3    H126121   7.587   4.483   2.952
 8726TIP3    H226122   7.453   4.427   2.908
 8727TIP3   OH226123   5.858   4.645   5.486
 8727TIP3    H126124   5.846   4.585   5.559
 8727TIP3    H226125   5.804   4.721   5.508
 8728TIP3   OH226126   7.305   4.896   4.118
 8728TIP3    H126127   7.365   4.880   4.044
 8728TIP3    H226128   7.223   4.924   4.076
 8729TIP3   OH226129   0.468   2.488   6.385
 8729TIP3    H126130   0.439   2.500   6.475
 8729TIP3    H226131   0.406   2.540   6.333
 8730TIP3   OH226132   3.041   2.668   2.907
 8730TIP3    H126133   2.993   2.685   2.988
 8730TIP3    H226134   3.115   2.613   2.934
 8731TIP3   OH226135   3.950   2.122   3.173
 8731TIP3    H126136   3.863   2.162   3.172
 8731TIP3    H226137   4.001   2.179   3.231
 8732TIP3   OH226138   8.269   7.306   4.088
 8732TIP3    H126139   8.246   7.217   4.115
 8732TIP3    H226140   8.185   7.345   4.064
 8733TIP3   OH226141   0.105   0.945   2.456
 8733TIP3    H126142   0.174   1.009   2.472
 8733TIP3    H226143   0.033   0.972   2.514
 8734TIP3   OH226144   6.012   6.186   0.252
 8734TIP3    H126145   6.071   6.140   0.312
 8734TIP3    H226146   5.942   6.219   0.308
 8735TIP3   OH226147   1.027   1.045   2.744
 8735TIP3    H126148   1.075   1.059   2.663
 8735TIP3    H226149   1.071   1.099   2.809
 8736TIP3   OH226150   0.214   1.751   5.801
 8736TIP3    H126151   0.236   1.788   5.716
 8736TIP3    H226152   0.161   1.674   5.781
 8737TIP3   OH226153   8.094   4.777   5.043
 8737TIP3    H126154   8.067   4.711   5.107
 8737TIP3    H226155   8.176   4.743   5.007
 8738TIP3   OH226156   3.883   0.818   3.884
 8738TIP3    H126157   3.925   0.738   3.854
 8738TIP3    H226158   3.939   0.888   3.852
 8739TIP3   OH226159   0.518   1.688   5.560
 8739TIP3    H126160   0.445   1.748   5.543
 8739TIP3    H226161   0.583   1.741   5.606
 8740TIP3   OH226162   0.286   3.302   0.786
 8740TIP3    H126163   0.376   3.277   0.805
 8740TIP3    H226164   0.239   3.218   0.779
 8741TIP3   OH226165   0.085   7.632   6.410
 8741TIP3    H126166   0.164   7.577   6.404
 8741TIP3    H226167   0.115   7.712   6.452
 8742TIP3   OH226168   7.649   6.761   3.640
 8742TIP3    H126169   7.593   6.760   3.562
 8742TIP3    H226170   7.703   6.839   3.631
 8743TIP3   OH226171   5.131   6.568   4.592
 8743TIP3    H126172   5.208   6.605   4.550
 8743TIP3    H226173   5.068   6.558   4.521
 8744TIP3   OH226174   7.822   4.793   1.809
 8744TIP3    H126175   7.864   4.758   1.731
 8744TIP3    H226176   7.894   4.836   1.858
 8745TIP3   OH226177   8.073   1.138   5.277
 8745TIP3    H126178   8.051   1.086   5.355
 8745TIP3    H226179   8.158   1.103   5.249
 8746TIP3   OH226180   5.827   1.037   5.657
 8746TIP3    H126181   5.791   1.061   5.742
 8746TIP3    H226182   5.798   1.107   5.598
 8747TIP3   OH226183   1.441   7.842   4.984
 8747TIP3    H126184   1.459   7.917   4.927
 8747TIP3    H226185   1.490   7.770   4.945
 8748TIP3   OH226186   1.084   2.872   0.456
 8748TIP3    H126187   1.049   2.922   0.529
 8748TIP3    H226188   1.121   2.793   0.496
 8749TIP3   OH226189   6.047   2.670   6.755
 8749TIP3    H126190   6.094   2.639   6.678
 8749TIP3    H226191   6.055   2.766   6.751
 8750TIP3   OH226192   8.039   6.326   6.587
 8750TIP3    H126193   7.981   6.271   6.534
 8750TIP3    H226194   8.011   6.310   6.677
 8751TIP3   OH226195   3.479   1.178   3.457
 8751TIP3    H126196   3.385   1.179   3.439
 8751TIP3    H226197   3.504   1.086   3.449
 8752TIP3   OH226198   5.042   4.870   0.525
 8752TIP3    H126199   5.038   4.775   0.527
 8752TIP3    H226200   5.104   4.894   0.594
 8753TIP3   OH226201   3.140   1.088   1.525
 8753TIP3    H126202   3.102   1.001   1.523
 8753TIP3    H226203   3.071   1.143   1.563
 8754TIP3   OH226204   3.645   0.374   1.820
 8754TIP3    H126205   3.721   0.423   1.789
 8754TIP3    H226206   3.576   0.439   1.827
 8755TIP3   OH226207   4.827   2.528   1.244
 8755TIP3    H126208   4.840   2.511   1.337
 8755TIP3    H226209   4.895   2.592   1.221
 8756TIP3   OH226210   4.485   0.332   3.780
 8756TIP3    H126211   4.468   0.245   3.744
 8756TIP3    H226212   4.579   0.332   3.800
 8757TIP3   OH226213   1.872   3.129   2.754
 8757TIP3    H126214   1.940   3.196   2.763
 8757TIP3    H226215   1.809   3.166   2.693
 8758TIP3   OH226216   0.922   2.854   5.540
 8758TIP3    H126217   0.991   2.788   5.530
 8758TIP3    H226218   0.847   2.806   5.574
 8759TIP3   OH226219   6.835   2.905   2.144
 8759TIP3    H126220   6.845   2.843   2.216
 8759TIP3    H226221   6.878   2.985   2.173
 8760TIP3   OH226222   0.763   7.671   3.951
 8760TIP3    H126223   0.814   7.676   4.032
 8760TIP3    H226224   0.763   7.760   3.917
 8761TIP3   OH226225   1.205   2.962   4.450
 8761TIP3    H126226   1.228   3.048   4.485
 8761TIP3    H226227   1.133   2.980   4.390
 8762TIP3   OH226228   4.673   7.353   3.879
 8762TIP3    H126229   4.737   7.299   3.831
 8762TIP3    H226230   4.675   7.437   3.834
 8763TIP3   OH226231   4.910   0.219   5.056
 8763TIP3    H126232   4.939   0.307   5.081
 8763TIP3    H226233   4.869   0.230   4.971
 8764TIP3   OH226234   6.681   5.850   0.304
 8764TIP3    H126235   6.679   5.754   0.305
 8764TIP3    H226236   6.773   5.872   0.291
 8765TIP3   OH226237   6.219   0.781   5.437
 8765TIP3    H126238   6.128   0.806   5.451
 8765TIP3    H226239   6.216   0.686   5.426
 8766TIP3   OH226240   6.570   6.680   5.972
 8766TIP3    H126241   6.539   6.769   5.958
 8766TIP3    H226242   6.664   6.689   5.987
 8767TIP3   OH226243   6.385   0.438   1.644
 8767TIP3    H126244   6.435   0.377   1.699
 8767TIP3    H226245   6.345   0.382   1.577
 8768TIP3   OH226246   1.261   7.366   3.822
 8768TIP3    H126247   1.292   7.359   3.912
 8768TIP3    H226248   1.166   7.353   3.828
 8769TIP3   OH226249   0.853   0.212   4.196
 8769TIP3    H126250   0.944   0.237   4.213
 8769TIP3    H226251   0.811   0.293   4.166
 8770TIP3   OH226252   0.150   6.859   3.731
 8770TIP3    H126253   0.088   6.864   3.658
 8770TIP3    H226254   0.102   6.898   3.804
 8771TIP3   OH226255   2.452   2.791   3.013
 8771TIP3    H126256   2.465   2.817   3.104
 8771TIP3    H226257   2.449   2.695   3.015
 8772TIP3   OH226258   4.487   5.534   0.103
 8772TIP3    H126259   4.557   5.540   0.038
 8772TIP3    H226260   4.459   5.443   0.100
 8773TIP3   OH226261   0.774   1.082   4.250
 8773TIP3    H126262   0.705   1.088   4.317
 8773TIP3    H226263   0.835   1.017   4.286
 8774TIP3   OH226264   4.630   6.833   4.430
 8774TIP3    H126265   4.681   6.914   4.425
 8774TIP3    H226266   4.557   6.846   4.369
 8775TIP3   OH226267   7.925   4.142   5.113
 8775TIP3    H126268   7.980   4.092   5.052
 8775TIP3    H226269   7.840   4.098   5.110
 8776TIP3   OH226270   6.945   0.946   2.888
 8776TIP3    H126271   6.940   1.042   2.893
 8776TIP3    H226272   6.875   0.915   2.946
 8777TIP3   OH226273   1.364   5.528   5.112
 8777TIP3    H126274   1.341   5.462   5.178
 8777TIP3    H226275   1.312   5.604   5.136
 8778TIP3   OH226276   0.106   3.821   6.438
 8778TIP3    H126277   0.119   3.733   6.472
 8778TIP3    H226278   0.012   3.837   6.449
 8779TIP3   OH226279   2.510   4.652   2.386
 8779TIP3    H126280   2.423   4.661   2.348
 8779TIP3    H226281   2.506   4.702   2.468
 8780TIP3   OH226282   5.129   3.929   2.926
 8780TIP3    H126283   5.112   4.009   2.876
 8780TIP3    H226284   5.183   3.875   2.868
 8781TIP3   OH226285   2.807   6.003   2.524
 8781TIP3    H126286   2.897   5.993   2.493
 8781TIP3    H226287   2.807   6.089   2.567
 8782TIP3   OH226288   8.063   2.981   0.879
 8782TIP3    H126289   8.033   2.935   0.957
 8782TIP3    H226290   7.988   2.981   0.820
 8783TIP3   OH226291   4.149   4.187   5.997
 8783TIP3    H126292   4.196   4.119   5.949
 8783TIP3    H226293   4.068   4.144   6.026
 8784TIP3   OH226294   0.361   6.309   1.455
 8784TIP3    H126295   0.409   6.387   1.426
 8784TIP3    H226296   0.296   6.343   1.516
 8785TIP3   OH226297   5.725   4.905   5.070
 8785TIP3    H126298   5.647   4.951   5.100
 8785TIP3    H226299   5.761   4.864   5.148
 8786TIP3   OH226300   2.652   0.248   0.749
 8786TIP3    H126301   2.632   0.225   0.839
 8786TIP3    H226302   2.621   0.338   0.739
 8787TIP3   OH226303   5.030   3.160   2.943
 8787TIP3    H126304   5.118   3.197   2.931
 8787TIP3    H226305   4.995   3.155   2.854
 8788TIP3   OH226306   7.058   0.244   4.305
 8788TIP3    H126307   6.968   0.211   4.307
 8788TIP3    H226308   7.064   0.288   4.220
 8789TIP3   OH226309   2.008   2.986   0.485
 8789TIP3    H126310   1.913   2.997   0.487
 8789TIP3    H226311   2.022   2.891   0.485
 8790TIP3   OH226312   3.433   3.329   4.904
 8790TIP3    H126313   3.472   3.313   4.818
 8790TIP3    H226314   3.340   3.343   4.886
 8791TIP3   OH226315   1.477   2.785   0.679
 8791TIP3    H126316   1.559   2.769   0.727
 8791TIP3    H226317   1.482   2.876   0.653
 8792TIP3   OH226318   6.023   2.617   1.218
 8792TIP3    H126319   5.987   2.654   1.137
 8792TIP3    H226320   6.032   2.693   1.277
 8793TIP3   OH226321   1.815   3.567   1.440
 8793TIP3    H126322   1.821   3.662   1.455
 8793TIP3    H226323   1.903   3.535   1.457
 8794TIP3   OH226324   1.845   0.260   2.447
 8794TIP3    H126325   1.906   0.196   2.410
 8794TIP3    H226326   1.776   0.268   2.381
 8795TIP3   OH226327   4.764   4.425   4.047
 8795TIP3    H126328   4.835   4.391   4.102
 8795TIP3    H226329   4.739   4.350   3.992
 8796TIP3   OH226330   4.594   5.752   0.287
 8796TIP3    H126331   4.558   5.704   0.212
 8796TIP3    H226332   4.641   5.825   0.248
 8797TIP3   OH226333   4.347   5.717   3.423
 8797TIP3    H126334   4.352   5.802   3.379
 8797TIP3    H226335   4.398   5.729   3.503
 8798TIP3   OH226336   0.520   2.002   3.463
 8798TIP3    H126337   0.603   1.964   3.491
 8798TIP3    H226338   0.488   2.050   3.539
 8799TIP3   OH226339   4.535   5.500   6.226
 8799TIP3    H126340   4.537   5.449   6.145
 8799TIP3    H226341   4.625   5.499   6.258
 8800TIP3   OH226342   0.992   2.688   0.194
 8800TIP3    H126343   1.028   2.681   0.282
 8800TIP3    H226344   0.897   2.689   0.206
 8801TIP3   OH226345   6.700   2.653   3.708
 8801TIP3    H126346   6.617   2.677   3.669
 8801TIP3    H226347   6.727   2.574   3.661
 8802TIP3   OH226348   7.350   3.315   5.039
 8802TIP3    H126349   7.444   3.309   5.055
 8802TIP3    H226350   7.323   3.225   5.021
 8803TIP3   OH226351   3.333   2.067   2.869
 8803TIP3    H126352   3.243   2.076   2.901
 8803TIP3    H226353   3.383   2.134   2.915
 8804TIP3   OH226354   1.285   3.550   0.032
 8804TIP3    H126355   1.366   3.525  -0.012
 8804TIP3    H226356   1.292   3.514   0.120
 8805TIP3   OH226357   5.325   1.701   3.213
 8805TIP3    H126358   5.405   1.726   3.168
 8805TIP3    H226359   5.355   1.650   3.288
 8806TIP3   OH226360   7.777   0.180   2.173
 8806TIP3    H126361   7.742   0.253   2.123
 8806TIP3    H226362   7.759   0.103   2.119
 8807TIP3   OH226363   4.626   7.797   2.056
 8807TIP3    H126364   4.533   7.772   2.062
 8807TIP3    H226365   4.639   7.817   1.963
 8808TIP3   OH226366   5.383   1.846   0.073
 8808TIP3    H126367   5.370   1.864  -0.020
 8808TIP3    H226368   5.301   1.805   0.101
 8809TIP3   OH226369   2.491   1.146   3.960
 8809TIP3    H126370   2.482   1.142   3.864
 8809TIP3    H226371   2.427   1.083   3.993
 8810TIP3   OH226372   5.484   6.389   3.694
 8810TIP3    H126373   5.447   6.305   3.723
 8810TIP3    H226374   5.539   6.417   3.767
 8811TIP3   OH226375   3.127   5.385   1.046
 8811TIP3    H126376   3.095   5.402   1.135
 8811TIP3    H226377   3.055   5.411   0.989
 8812TIP3   OH226378   8.153   5.035   6.601
 8812TIP3    H126379   8.136   4.947   6.567
 8812TIP3    H226380   8.125   5.031   6.692
 8813TIP3   OH226381   2.832   3.063   2.425
 8813TIP3    H126382   2.843   3.078   2.331
 8813TIP3    H226383   2.820   2.969   2.433
 8814TIP3   OH226384   1.557   3.761   4.550
 8814TIP3    H126385   1.628   3.817   4.519
 8814TIP3    H226386   1.477   3.799   4.512
 8815TIP3   OH226387   4.308   4.643   2.772
 8815TIP3    H126388   4.358   4.721   2.750
 8815TIP3    H226389   4.304   4.643   2.868
 8816TIP3   OH226390   3.670   7.702   6.680
 8816TIP3    H126391   3.624   7.779   6.714
 8816TIP3    H226392   3.749   7.695   6.734
 8817TIP3   OH226393   3.756   7.099   3.565
 8817TIP3    H126394   3.713   7.051   3.494
 8817TIP3    H226395   3.840   7.126   3.529
 8818TIP3   OH226396   3.402   0.953   6.305
 8818TIP3    H126397   3.399   0.918   6.216
 8818TIP3    H226398   3.463   0.895   6.351
 8819TIP3   OH226399   3.892   1.281   6.045
 8819TIP3    H126400   3.930   1.276   6.133
 8819TIP3    H226401   3.808   1.325   6.058
 8820TIP3   OH226402   1.493   7.182   2.630
 8820TIP3    H126403   1.521   7.092   2.614
 8820TIP3    H226404   1.437   7.176   2.707
 8821TIP3   OH226405   4.902   3.282   0.055
 8821TIP3    H126406   4.817   3.266   0.096
 8821TIP3    H226407   4.925   3.199   0.014
 8822TIP3   OH226408   1.441   1.586   4.115
 8822TIP3    H126409   1.400   1.600   4.201
 8822TIP3    H226410   1.456   1.492   4.111
 8823TIP3   OH226411   6.553   7.415   2.819
 8823TIP3    H126412   6.603   7.444   2.742
 8823TIP3    H226413   6.489   7.353   2.783
 8824TIP3   OH226414   2.056   2.860   5.308
 8824TIP3    H126415   2.112   2.786   5.282
 8824TIP3    H226416   2.117   2.934   5.316
 8825TIP3   OH226417   8.259   1.300   0.795
 8825TIP3    H126418   8.206   1.319   0.717
 8825TIP3    H226419   8.197   1.263   0.857
 8826TIP3   OH226420   6.055   1.485   5.104
 8826TIP3    H126421   5.982   1.491   5.166
 8826TIP3    H226422   6.132   1.472   5.159
 8827TIP3   OH226423   7.534   3.891   0.040
 8827TIP3    H126424   7.540   3.918  -0.051
 8827TIP3    H226425   7.466   3.947   0.078
 8828TIP3   OH226426   2.124   5.138   6.614
 8828TIP3    H126427   2.211   5.162   6.644
 8828TIP3    H226428   2.119   5.043   6.627
 8829TIP3   OH226429   5.108   4.738   1.677
 8829TIP3    H126430   5.130   4.810   1.618
 8829TIP3    H226431   5.013   4.744   1.688
 8830TIP3   OH226432   3.349   0.146   4.528
 8830TIP3    H126433   3.396   0.167   4.448
 8830TIP3    H226434   3.257   0.140   4.501
 8831TIP3   OH226435   0.829   1.486   3.698
 8831TIP3    H126436   0.771   1.556   3.728
 8831TIP3    H226437   0.898   1.482   3.764
 8832TIP3   OH226438   3.819   3.199   0.133
 8832TIP3    H126439   3.787   3.198   0.223
 8832TIP3    H226440   3.805   3.109   0.101
 8833TIP3   OH226441   0.524   4.340   5.610
 8833TIP3    H126442   0.488   4.420   5.648
 8833TIP3    H226443   0.475   4.270   5.653
 8834TIP3   OH226444   7.610   1.005   3.036
 8834TIP3    H126445   7.655   1.039   3.113
 8834TIP3    H226446   7.596   0.912   3.055
 8835TIP3   OH226447   8.151   1.974   2.067
 8835TIP3    H126448   8.244   1.994   2.081
 8835TIP3    H226449   8.145   1.954   1.973
 8836TIP3   OH226450   5.513   6.083   5.539
 8836TIP3    H126451   5.495   5.989   5.539
 8836TIP3    H226452   5.590   6.092   5.483
 8837TIP3   OH226453   1.398   0.611   1.136
 8837TIP3    H126454   1.433   0.699   1.121
 8837TIP3    H226455   1.427   0.588   1.224
 8838TIP3   OH226456   3.204   4.836   4.169
 8838TIP3    H126457   3.190   4.756   4.220
 8838TIP3    H226458   3.116   4.865   4.146
 8839TIP3   OH226459   3.606   4.022   4.230
 8839TIP3    H126460   3.598   4.076   4.308
 8839TIP3    H226461   3.653   3.944   4.259
 8840TIP3   OH226462   4.420   3.519   0.817
 8840TIP3    H126463   4.407   3.499   0.724
 8840TIP3    H226464   4.335   3.551   0.847
 8841TIP3   OH226465   0.113   6.586   0.775
 8841TIP3    H126466   0.182   6.650   0.759
 8841TIP3    H226467   0.159   6.509   0.809
 8842TIP3   OH226468   1.477   3.782   0.966
 8842TIP3    H126469   1.401   3.832   0.995
 8842TIP3    H226470   1.470   3.699   1.012
 8843TIP3   OH226471   7.339   1.936   4.246
 8843TIP3    H126472   7.323   2.029   4.229
 8843TIP3    H226473   7.285   1.917   4.323
 8844TIP3   OH226474   6.840   1.621   1.690
 8844TIP3    H126475   6.880   1.535   1.705
 8844TIP3    H226476   6.864   1.673   1.766
 8845TIP3   OH226477   4.575   2.401   4.101
 8845TIP3    H126478   4.509   2.331   4.105
 8845TIP3    H226479   4.603   2.402   4.009
 8846TIP3   OH226480   4.810   3.688   5.024
 8846TIP3    H126481   4.727   3.735   5.020
 8846TIP3    H226482   4.822   3.651   4.937
 8847TIP3   OH226483   3.030   6.880   0.073
 8847TIP3    H126484   3.053   6.884  -0.020
 8847TIP3    H226485   2.999   6.968   0.094
 8848TIP3   OH226486   4.785   2.342   5.030
 8848TIP3    H126487   4.749   2.254   5.016
 8848TIP3    H226488   4.752   2.368   5.116
 8849TIP3   OH226489   1.300   1.288   3.847
 8849TIP3    H126490   1.357   1.298   3.924
 8849TIP3    H226491   1.361   1.272   3.775
 8850TIP3   OH226492   2.512   3.594   0.365
 8850TIP3    H126493   2.527   3.504   0.334
 8850TIP3    H226494   2.583   3.645   0.327
 8851TIP3   OH226495   4.954   1.394   2.201
 8851TIP3    H126496   4.957   1.379   2.106
 8851TIP3    H226497   5.038   1.437   2.220
 8852TIP3   OH226498   4.934   3.115   4.315
 8852TIP3    H126499   4.883   3.187   4.354
 8852TIP3    H226500   4.890   3.098   4.231
 8853TIP3   OH226501   5.224   2.010   5.557
 8853TIP3    H126502   5.288   1.965   5.502
 8853TIP3    H226503   5.226   1.963   5.640
 8854TIP3   OH226504   4.854   3.416   4.165
 8854TIP3    H126505   4.945   3.444   4.163
 8854TIP3    H226506   4.828   3.421   4.257
 8855TIP3   OH226507   7.997   4.863   6.172
 8855TIP3    H126508   8.066   4.836   6.233
 8855TIP3    H226509   8.041   4.921   6.110
 8856TIP3   OH226510   4.257   4.814   4.436
 8856TIP3    H126511   4.206   4.748   4.483
 8856TIP3    H226512   4.192   4.860   4.382
 8857TIP3   OH226513   8.070   7.199   6.035
 8857TIP3    H126514   7.994   7.177   5.981
 8857TIP3    H226515   8.069   7.133   6.105
 8858TIP3   OH226516   6.361   1.624   1.480
 8858TIP3    H126517   6.421   1.593   1.547
 8858TIP3    H226518   6.279   1.640   1.527
 8859TIP3   OH226519   2.983   4.549   5.351
 8859TIP3    H126520   2.953   4.532   5.262
 8859TIP3    H226521   2.903   4.565   5.401
 8860TIP3   OH226522   5.281   5.825   4.106
 8860TIP3    H126523   5.278   5.730   4.098
 8860TIP3    H226524   5.369   5.848   4.075
 8861TIP3   OH226525   3.908   2.995   1.924
 8861TIP3    H126526   3.945   2.936   1.859
 8861TIP3    H226527   3.943   3.081   1.901
 8862TIP3   OH226528   3.619   7.065   4.143
 8862TIP3    H126529   3.685   7.011   4.187
 8862TIP3    H226530   3.635   7.050   4.049
 8863TIP3   OH226531   2.396   0.869   6.403
 8863TIP3    H126532   2.469   0.904   6.455
 8863TIP3    H226533   2.420   0.778   6.387
 8864TIP3   OH226534   5.383   4.045   0.814
 8864TIP3    H126535   5.446   4.054   0.886
 8864TIP3    H226536   5.434   4.008   0.742
 8865TIP3   OH226537   0.054   4.796   5.614
 8865TIP3    H126538   0.142   4.784   5.579
 8865TIP3    H226539   0.043   4.725   5.677
 8866TIP3   OH226540   1.306   5.827   3.412
 8866TIP3    H126541   1.267   5.827   3.325
 8866TIP3    H226542   1.340   5.738   3.424
 8867TIP3   OH226543   1.790   2.184   4.119
 8867TIP3    H126544   1.819   2.167   4.208
 8867TIP3    H226545   1.770   2.278   4.117
 8868TIP3   OH226546   7.930   6.091   0.853
 8868TIP3    H126547   7.956   6.015   0.801
 8868TIP3    H226548   7.998   6.097   0.920
 8869TIP3   OH226549   1.557   2.847   5.079
 8869TIP3    H126550   1.509   2.913   5.030
 8869TIP3    H226551   1.649   2.864   5.058
 8870TIP3   OH226552   1.284   0.319   5.737
 8870TIP3    H126553   1.265   0.271   5.657
 8870TIP3    H226554   1.380   0.314   5.746
 8871TIP3   OH226555   6.366   1.760   5.648
 8871TIP3    H126556   6.394   1.704   5.720
 8871TIP3    H226557   6.382   1.849   5.679
 8872TIP3   OH226558   3.141   1.105   6.142
 8872TIP3    H126559   3.141   1.194   6.106
 8872TIP3    H226560   3.059   1.067   6.110
 8873TIP3   OH226561   3.229   5.661   1.182
 8873TIP3    H126562   3.286   5.584   1.174
 8873TIP3    H226563   3.224   5.697   1.094
 8874TIP3   OH226564   0.366   4.332   6.085
 8874TIP3    H126565   0.409   4.373   6.160
 8874TIP3    H226566   0.278   4.371   6.084
 8875TIP3   OH226567   5.157   5.021   2.551
 8875TIP3    H126568   5.088   5.087   2.557
 8875TIP3    H226569   5.236   5.071   2.530
 8876TIP3   OH226570   2.108   6.059   0.176
 8876TIP3    H126571   2.186   6.105   0.146
 8876TIP3    H226572   2.135   5.968   0.186
 8877TIP3   OH226573   0.936   4.887   3.936
 8877TIP3    H126574   1.028   4.894   3.958
 8877TIP3    H226575   0.924   4.945   3.861
 8878TIP3   OH226576   5.079   2.295   1.045
 8878TIP3    H126577   4.983   2.298   1.051
 8878TIP3    H226578   5.101   2.363   0.981
 8879TIP3   OH226579   7.565   0.280   4.529
 8879TIP3    H126580   7.622   0.258   4.455
 8879TIP3    H226581   7.624   0.318   4.594
 8880TIP3   OH226582   1.583   1.586   2.294
 8880TIP3    H126583   1.622   1.623   2.373
 8880TIP3    H226584   1.543   1.504   2.323
 8881TIP3   OH226585   4.104   7.589   2.226
 8881TIP3    H126586   4.054   7.660   2.267
 8881TIP3    H226587   4.087   7.513   2.282
 8882TIP3   OH226588   8.059   6.506   2.439
 8882TIP3    H126589   8.042   6.559   2.517
 8882TIP3    H226590   7.991   6.532   2.376
 8883TIP3   OH226591   8.284   4.038   0.473
 8883TIP3    H126592   8.206   4.078   0.436
 8883TIP3    H226593   8.260   3.946   0.487
 8884TIP3   OH226594   3.796   1.103   5.113
 8884TIP3    H126595   3.794   1.107   5.209
 8884TIP3    H226596   3.790   1.009   5.093
 8885TIP3   OH226597   7.613   3.498   0.789
 8885TIP3    H126598   7.643   3.560   0.723
 8885TIP3    H226599   7.693   3.465   0.830
 8886TIP3   OH226600   4.216   6.943   1.524
 8886TIP3    H126601   4.295   6.923   1.474
 8886TIP3    H226602   4.171   6.859   1.532
 8887TIP3   OH226603   4.259   2.534   3.412
 8887TIP3    H126604   4.219   2.621   3.419
 8887TIP3    H226605   4.201   2.477   3.464
 8888TIP3   OH226606   3.507   4.616   6.093
 8888TIP3    H126607   3.501   4.674   6.168
 8888TIP3    H226608   3.597   4.583   6.095
 8889TIP3   OH226609   1.457   0.948   0.323
 8889TIP3    H126610   1.466   0.888   0.250
 8889TIP3    H226611   1.524   0.920   0.385
 8890TIP3   OH226612   7.664   1.260   6.034
 8890TIP3    H126613   7.747   1.264   5.986
 8890TIP3    H226614   7.602   1.222   5.972
 8891TIP3   OH226615   6.843   7.035   2.179
 8891TIP3    H126616   6.794   7.060   2.257
 8891TIP3    H226617   6.804   6.952   2.152
 8892TIP3   OH226618   5.654   5.407   4.402
 8892TIP3    H126619   5.732   5.436   4.355
 8892TIP3    H226620   5.675   5.318   4.431
 8893TIP3   OH226621   1.748   2.706   6.512
 8893TIP3    H126622   1.693   2.663   6.578
 8893TIP3    H226623   1.690   2.718   6.437
 8894TIP3   OH226624   4.709   7.422   3.460
 8894TIP3    H126625   4.796   7.455   3.481
 8894TIP3    H226626   4.708   7.332   3.492
 8895TIP3   OH226627   2.914   4.822   0.172
 8895TIP3    H126628   2.839   4.805   0.115
 8895TIP3    H226629   2.895   4.770   0.251
 8896TIP3   OH226630   0.076   2.297   1.869
 8896TIP3    H126631   0.096   2.361   1.801
 8896TIP3    H226632   0.036   2.224   1.822
 8897TIP3   OH226633   7.744   0.834   5.387
 8897TIP3    H126634   7.693   0.771   5.336
 8897TIP3    H226635   7.716   0.819   5.477
 8898TIP3   OH226636   6.224   6.247   4.750
 8898TIP3    H126637   6.208   6.154   4.737
 8898TIP3    H226638   6.138   6.284   4.771
 8899TIP3   OH226639   8.130   7.855   6.744
 8899TIP3    H126640   8.140   7.882   6.653
 8899TIP3    H226641   8.083   7.772   6.740
 8900TIP3   OH226642   2.693   4.152   5.221
 8900TIP3    H126643   2.753   4.171   5.293
 8900TIP3    H226644   2.738   4.084   5.169
 8901TIP3   OH226645   2.410   6.063   3.288
 8901TIP3    H126646   2.444   6.152   3.298
 8901TIP3    H226647   2.489   6.008   3.285
 8902TIP3   OH226648   2.363   1.714   3.870
 8902TIP3    H126649   2.305   1.684   3.940
 8902TIP3    H226650   2.357   1.646   3.803
 8903TIP3   OH226651   3.593   0.679   5.530
 8903TIP3    H126652   3.530   0.607   5.528
 8903TIP3    H226653   3.631   0.675   5.618
 8904TIP3   OH226654   2.455   6.552   2.963
 8904TIP3    H126655   2.417   6.554   2.875
 8904TIP3    H226656   2.452   6.644   2.992
 8905TIP3   OH226657   7.169   6.386   1.647
 8905TIP3    H126658   7.159   6.419   1.736
 8905TIP3    H226659   7.119   6.305   1.645
 8906TIP3   OH226660   2.575   7.626   2.195
 8906TIP3    H126661   2.531   7.594   2.116
 8906TIP3    H226662   2.553   7.562   2.262
 8907TIP3   OH226663   2.487   2.519   4.646
 8907TIP3    H126664   2.573   2.490   4.615
 8907TIP3    H226665   2.507   2.586   4.711
 8908TIP3   OH226666   7.544   6.653   1.759
 8908TIP3    H126667   7.569   6.588   1.825
 8908TIP3    H226668   7.531   6.603   1.679
 8909TIP3   OH226669   0.036   3.380   0.626
 8909TIP3    H126670   0.110   3.413   0.575
 8909TIP3    H226671   0.041   3.427   0.709
 8910TIP3   OH226672   0.529   2.348   0.249
 8910TIP3    H126673   0.491   2.435   0.260
 8910TIP3    H226674   0.612   2.364   0.204
 8911TIP3   OH226675   0.221   2.847   5.622
 8911TIP3    H126676   0.293   2.902   5.651
 8911TIP3    H226677   0.204   2.788   5.696
 8912TIP3   OH226678   3.951   7.325   2.328
 8912TIP3    H126679   3.886   7.363   2.387
 8912TIP3    H226680   3.906   7.316   2.244
 8913TIP3   OH226681   6.687   2.455   5.725
 8913TIP3    H126682   6.745   2.487   5.657
 8913TIP3    H226683   6.608   2.509   5.718
 8914TIP3   OH226684   0.569   5.935   6.029
 8914TIP3    H126685   0.569   6.028   6.005
 8914TIP3    H226686   0.599   5.934   6.120
 8915TIP3   OH226687   3.570   5.057   2.917
 8915TIP3    H126688   3.541   4.984   2.862
 8915TIP3    H226689   3.632   5.104   2.862
 8916TIP3   OH226690   6.974   7.494   5.185
 8916TIP3    H126691   6.957   7.458   5.098
 8916TIP3    H226692   7.069   7.492   5.193
 8917TIP3   OH226693   4.980   3.484   0.673
 8917TIP3    H126694   5.012   3.566   0.634
 8917TIP3    H226695   4.885   3.493   0.674
 8918TIP3   OH226696   0.533   0.302   3.610
 8918TIP3    H126697   0.465   0.352   3.655
 8918TIP3    H226698   0.615   0.341   3.641
 8919TIP3   OH226699   7.554   7.660   0.157
 8919TIP3    H126700   7.479   7.604   0.138
 8919TIP3    H226701   7.556   7.723   0.084
 8920TIP3   OH226702   0.170   1.334   4.208
 8920TIP3    H126703   0.156   1.277   4.283
 8920TIP3    H226704   0.236   1.290   4.154
 8921TIP3   OH226705   7.531   3.700   3.549
 8921TIP3    H126706   7.587   3.778   3.548
 8921TIP3    H226707   7.580   3.635   3.599
 8922TIP3   OH226708   5.142   6.375   4.293
 8922TIP3    H126709   5.097   6.301   4.333
 8922TIP3    H226710   5.075   6.442   4.284
 8923TIP3   OH226711   7.289   7.340   3.333
 8923TIP3    H126712   7.341   7.414   3.301
 8923TIP3    H226713   7.274   7.359   3.425
 8924TIP3   OH226714   3.580   5.710   4.351
 8924TIP3    H126715   3.599   5.734   4.442
 8924TIP3    H226716   3.666   5.699   4.311
 8925TIP3   OH226717   2.102   1.688   3.671
 8925TIP3    H126718   2.169   1.755   3.657
 8925TIP3    H226719   2.045   1.725   3.739
 8926TIP3   OH226720   7.200   5.635   0.969
 8926TIP3    H126721   7.164   5.641   1.057
 8926TIP3    H226722   7.269   5.569   0.976
 8927TIP3   OH226723   4.240   6.825   0.228
 8927TIP3    H126724   4.320   6.795   0.184
 8927TIP3    H226725   4.249   6.795   0.318
 8928TIP3   OH226726   4.949   1.700   0.334
 8928TIP3    H126727   4.955   1.697   0.430
 8928TIP3    H226728   4.857   1.687   0.315
 8929TIP3   OH226729   3.740   1.003   0.976
 8929TIP3    H126730   3.714   1.032   1.063
 8929TIP3    H226731   3.658   0.975   0.935
 8930TIP3   OH226732   4.885   0.909   1.604
 8930TIP3    H126733   4.858   0.831   1.653
 8930TIP3    H226734   4.939   0.874   1.533
 8931TIP3   OH226735   5.630   2.558   4.462
 8931TIP3    H126736   5.661   2.645   4.485
 8931TIP3    H226737   5.690   2.529   4.393
 8932TIP3   OH226738   4.261   0.354   3.467
 8932TIP3    H126739   4.331   0.419   3.459
 8932TIP3    H226740   4.306   0.270   3.463
 8933TIP3   OH226741   7.217   5.620   0.076
 8933TIP3    H126742   7.207   5.537   0.029
 8933TIP3    H226743   7.196   5.687   0.010
 8934TIP3   OH226744   1.687   4.305   1.797
 8934TIP3    H126745   1.771   4.319   1.839
 8934TIP3    H226746   1.678   4.378   1.736
 8935TIP3   OH226747   8.116   5.809   5.373
 8935TIP3    H126748   8.031   5.781   5.405
 8935TIP3    H226749   8.175   5.737   5.395
 8936TIP3   OH226750   5.466   1.704   5.839
 8936TIP3    H126751   5.431   1.634   5.894
 8936TIP3    H226752   5.478   1.662   5.753
 8937TIP3   OH226753   0.476   4.724   6.224
 8937TIP3    H126754   0.560   4.770   6.221
 8937TIP3    H226755   0.419   4.782   6.275
 8938TIP3   OH226756   0.236   0.677   4.980
 8938TIP3    H126757   0.226   0.741   5.051
 8938TIP3    H226758   0.156   0.687   4.928
 8939TIP3   OH226759   7.455   2.858   0.643
 8939TIP3    H126760   7.522   2.840   0.708
 8939TIP3    H226761   7.498   2.915   0.579
 8940TIP3   OH226762   7.016   2.943   3.511
 8940TIP3    H126763   6.979   2.997   3.441
 8940TIP3    H226764   7.095   2.990   3.538
 8941TIP3   OH226765   6.086   4.558   0.512
 8941TIP3    H126766   6.137   4.638   0.499
 8941TIP3    H226767   6.104   4.533   0.603
 8942TIP3   OH226768   0.731   7.374   2.883
 8942TIP3    H126769   0.766   7.361   2.795
 8942TIP3    H226770   0.638   7.390   2.870
 8943TIP3   OH226771   4.941   1.170   1.308
 8943TIP3    H126772   4.964   1.165   1.401
 8943TIP3    H226773   4.850   1.201   1.308
 8944TIP3   OH226774   1.450   3.140   1.460
 8944TIP3    H126775   1.384   3.209   1.451
 8944TIP3    H226776   1.529   3.177   1.420
 8945TIP3   OH226777   1.296   7.340   6.648
 8945TIP3    H126778   1.220   7.392   6.673
 8945TIP3    H226779   1.265   7.284   6.577
 8946TIP3   OH226780   0.633   4.019   0.581
 8946TIP3    H126781   0.679   4.064   0.652
 8946TIP3    H226782   0.547   3.998   0.617
 8947TIP3   OH226783   5.036   2.915   2.701
 8947TIP3    H126784   5.032   2.831   2.657
 8947TIP3    H226785   5.104   2.964   2.654
 8948TIP3   OH226786   5.031   5.683   0.054
 8948TIP3    H126787   5.101   5.627   0.020
 8948TIP3    H226788   4.956   5.664  -0.003
 8949TIP3   OH226789   3.974   1.306   1.984
 8949TIP3    H126790   4.018   1.389   1.966
 8949TIP3    H226791   3.956   1.269   1.897
 8950TIP3   OH226792   0.289   0.900   5.191
 8950TIP3    H126793   0.327   0.936   5.111
 8950TIP3    H226794   0.360   0.905   5.256
 8951TIP3   OH226795   8.202   0.698   3.476
 8951TIP3    H126796   8.276   0.645   3.507
 8951TIP3    H226797   8.163   0.733   3.557
 8952TIP3   OH226798   7.805   6.811   5.922
 8952TIP3    H126799   7.890   6.855   5.921
 8952TIP3    H226800   7.791   6.787   6.014
 8953TIP3   OH226801   1.438   3.045   3.514
 8953TIP3    H126802   1.412   3.125   3.560
 8953TIP3    H226803   1.473   3.076   3.431
 8954TIP3   OH226804   3.733   1.002   0.585
 8954TIP3    H126805   3.780   0.996   0.502
 8954TIP3    H226806   3.725   1.096   0.602
 8955TIP3   OH226807   3.099   3.541   2.910
 8955TIP3    H126808   3.148   3.565   2.832
 8955TIP3    H226809   3.163   3.549   2.981
 8956TIP3   OH226810   4.750   5.610   4.984
 8956TIP3    H126811   4.759   5.519   5.012
 8956TIP3    H226812   4.681   5.645   5.040
 8957TIP3   OH226813   2.796   4.729   5.009
 8957TIP3    H126814   2.792   4.817   5.047
 8957TIP3    H226815   2.848   4.739   4.929
 8958TIP3   OH226816   1.125   5.913   0.140
 8958TIP3    H126817   1.062   5.850   0.103
 8958TIP3    H226818   1.135   5.979   0.072
 8959TIP3   OH226819   6.165   3.628   1.552
 8959TIP3    H126820   6.078   3.589   1.555
 8959TIP3    H226821   6.177   3.654   1.461
 8960TIP3   OH226822   5.331   3.631   6.187
 8960TIP3    H126823   5.406   3.624   6.128
 8960TIP3    H226824   5.304   3.722   6.180
 8961TIP3   OH226825   3.031   5.733   2.213
 8961TIP3    H126826   3.088   5.804   2.242
 8961TIP3    H226827   2.944   5.758   2.244
 8962TIP3   OH226828   6.066   4.768   5.973
 8962TIP3    H126829   5.971   4.777   5.976
 8962TIP3    H226830   6.083   4.711   5.898
 8963TIP3   OH226831   7.045   1.325   3.455
 8963TIP3    H126832   7.017   1.345   3.545
 8963TIP3    H226833   7.104   1.250   3.465
 8964TIP3   OH226834   4.239   0.310   4.878
 8964TIP3    H126835   4.166   0.366   4.903
 8964TIP3    H226836   4.204   0.253   4.810
 8965TIP3   OH226837   1.743   0.314   3.382
 8965TIP3    H126838   1.668   0.255   3.374
 8965TIP3    H226839   1.819   0.259   3.363
 8966TIP3   OH226840   2.374   4.990   3.451
 8966TIP3    H126841   2.339   5.044   3.521
 8966TIP3    H226842   2.370   5.045   3.373
 8967TIP3   OH226843   8.137   2.664   0.114
 8967TIP3    H126844   8.230   2.644   0.102
 8967TIP3    H226845   8.094   2.579   0.110
 8968TIP3   OH226846   2.733   0.084   5.846
 8968TIP3    H126847   2.828   0.090   5.832
 8968TIP3    H226848   2.712  -0.007   5.823
 8969TIP3   OH226849   7.756   4.150   4.097
 8969TIP3    H126850   7.673   4.174   4.057
 8969TIP3    H226851   7.775   4.222   4.158
 8970TIP3   OH226852   6.893   6.075   2.636
 8970TIP3    H126853   6.968   6.130   2.616
 8970TIP3    H226854   6.863   6.105   2.722
 8971TIP3   OH226855   2.949   5.294   2.180
 8971TIP3    H126856   2.892   5.364   2.211
 8971TIP3    H226857   3.035   5.317   2.214
 8972TIP3   OH226858   3.301   0.448   4.430
 8972TIP3    H126859   3.303   0.398   4.512
 8972TIP3    H226860   3.224   0.505   4.439
 8973TIP3   OH226861   7.708   3.837   5.123
 8973TIP3    H126862   7.730   3.859   5.032
 8973TIP3    H226863   7.689   3.921   5.164
 8974TIP3   OH226864   6.111   3.535   2.502
 8974TIP3    H126865   6.126   3.564   2.412
 8974TIP3    H226866   6.053   3.459   2.494
 8975TIP3   OH226867   4.910   2.880   2.090
 8975TIP3    H126868   4.922   2.879   2.185
 8975TIP3    H226869   4.819   2.908   2.077
 8976TIP3   OH226870   3.083   3.474   1.150
 8976TIP3    H126871   3.051   3.403   1.204
 8976TIP3    H226872   3.148   3.518   1.204
 8977TIP3   OH226873   1.703   3.257   3.571
 8977TIP3    H126874   1.772   3.191   3.584
 8977TIP3    H226875   1.624   3.216   3.606
 8978TIP3   OH226876   3.458   1.635   6.092
 8978TIP3    H126877   3.399   1.677   6.030
 8978TIP3    H226878   3.419   1.651   6.178
 8979TIP3   OH226879   5.166   6.325   4.795
 8979TIP3    H126880   5.255   6.315   4.761
 8979TIP3    H226881   5.143   6.416   4.775
 8980TIP3   OH226882   4.603   6.863   6.088
 8980TIP3    H126883   4.568   6.809   6.016
 8980TIP3    H226884   4.525   6.901   6.129
 8981TIP3   OH226885   6.092   5.254   0.436
 8981TIP3    H126886   6.150   5.215   0.371
 8981TIP3    H226887   6.122   5.344   0.445
 8982TIP3   OH226888   3.525   2.301   4.690
 8982TIP3    H126889   3.589   2.286   4.759
 8982TIP3    H226890   3.518   2.216   4.645
 8983TIP3   OH226891   5.772   7.231   3.476
 8983TIP3    H126892   5.862   7.199   3.470
 8983TIP3    H226893   5.775   7.297   3.546
 8984TIP3   OH226894   2.368   4.820   2.560
 8984TIP3    H126895   2.419   4.805   2.640
 8984TIP3    H226896   2.288   4.864   2.591
 8985TIP3   OH226897   0.914   6.707   3.919
 8985TIP3    H126898   0.932   6.665   3.835
 8985TIP3    H226899   0.941   6.798   3.907
 8986TIP3   OH226900   2.531   0.149   1.172
 8986TIP3    H126901   2.593   0.161   1.100
 8986TIP3    H226902   2.473   0.079   1.141
 8987TIP3   OH226903   3.175   5.140   4.600
 8987TIP3    H126904   3.210   5.190   4.527
 8987TIP3    H226905   3.173   5.203   4.673
 8988TIP3   OH226906   7.442   4.480   5.652
 8988TIP3    H126907   7.401   4.461   5.568
 8988TIP3    H226908   7.536   4.471   5.637
 8989TIP3   OH226909   7.923   0.741   1.018
 8989TIP3    H126910   7.873   0.661   1.002
 8989TIP3    H226911   7.938   0.778   0.931
 8990TIP3   OH226912   8.066   7.564   2.055
 8990TIP3    H126913   8.065   7.494   1.991
 8990TIP3    H226914   7.989   7.547   2.111
 8991TIP3   OH226915   6.126   1.724   2.036
 8991TIP3    H126916   6.206   1.755   1.994
 8991TIP3    H226917   6.138   1.629   2.044
 8992TIP3   OH226918   1.105   0.862   0.486
 8992TIP3    H126919   1.188   0.846   0.531
 8992TIP3    H226920   1.067   0.774   0.475
 8993TIP3   OH226921   3.224   2.549   4.896
 8993TIP3    H126922   3.317   2.573   4.904
 8993TIP3    H226923   3.224   2.454   4.894
 8994TIP3   OH226924   7.884   7.257  -0.001
 8994TIP3    H126925   7.910   7.344  -0.032
 8994TIP3    H226926   7.909   7.255   0.091
 8995TIP3   OH226927   5.462   7.680   3.690
 8995TIP3    H126928   5.509   7.705   3.610
 8995TIP3    H226929   5.369   7.690   3.668
 8996TIP3   OH226930   6.798   6.831   0.002
 8996TIP3    H126931   6.885   6.793  -0.008
 8996TIP3    H226932   6.770   6.805   0.089
 8997TIP3   OH226933   3.626   4.140   0.925
 8997TIP3    H126934   3.574   4.061   0.935
 8997TIP3    H226935   3.613   4.165   0.833
 8998TIP3   OH226936   0.235   2.500   3.910
 8998TIP3    H126937   0.277   2.469   3.990
 8998TIP3    H226938   0.174   2.431   3.886
 8999TIP3   OH226939   7.950   3.050   3.811
 8999TIP3    H126940   8.045   3.059   3.800
 8999TIP3    H226941   7.914   3.082   3.728
 9000TIP3   OH226942   3.960   3.675   4.334
 9000TIP3    H126943   4.024   3.652   4.401
 9000TIP3    H226944   3.927   3.591   4.302
 9001TIP3   OH226945   4.899   0.559   4.525
 9001TIP3    H126946   4.897   0.655   4.532
 9001TIP3    H226947   4.819   0.536   4.478
 9002TIP3   OH226948   2.674   2.065   1.546
 9002TIP3    H126949   2.769   2.057   1.543
 9002TIP3    H226950   2.643   1.980   1.577
 9003TIP3   OH226951   0.737   5.851   5.649
 9003TIP3    H126952   0.754   5.873   5.741
 9003TIP3    H226953   0.803   5.900   5.601
 9004TIP3   OH226954   2.583   0.999   3.010
 9004TIP3    H126955   2.543   1.084   2.994
 9004TIP3    H226956   2.581   0.989   3.105
 9005TIP3   OH226957   0.340   0.912   1.526
 9005TIP3    H126958   0.325   0.829   1.572
 9005TIP3    H226959   0.409   0.955   1.576
 9006TIP3   OH226960   4.507   7.687   3.451
 9006TIP3    H126961   4.587   7.635   3.457
 9006TIP3    H226962   4.473   7.688   3.541
 9007TIP3   OH226963   5.242   6.089   0.687
 9007TIP3    H126964   5.200   6.027   0.746
 9007TIP3    H226965   5.172   6.151   0.663
 9008TIP3   OH226966   7.449   4.388   6.393
 9008TIP3    H126967   7.413   4.420   6.310
 9008TIP3    H226968   7.512   4.321   6.368
 9009TIP3   OH226969   4.014   3.708   3.417
 9009TIP3    H126970   4.079   3.709   3.488
 9009TIP3    H226971   4.010   3.617   3.390
 9010TIP3   OH226972   3.384   7.714   2.683
 9010TIP3    H126973   3.423   7.627   2.687
 9010TIP3    H226974   3.389   7.737   2.590
 9011TIP3   OH226975   5.550   5.246   5.646
 9011TIP3    H126976   5.503   5.319   5.605
 9011TIP3    H226977   5.637   5.281   5.663
 9012TIP3   OH226978   5.895   5.403   4.831
 9012TIP3    H126979   5.908   5.454   4.911
 9012TIP3    H226980   5.833   5.455   4.780
 9013TIP3   OH226981   0.607   0.279   2.161
 9013TIP3    H126982   0.590   0.373   2.169
 9013TIP3    H226983   0.621   0.249   2.251
 9014TIP3   OH226984   3.835   7.614   3.494
 9014TIP3    H126985   3.858   7.526   3.527
 9014TIP3    H226986   3.741   7.620   3.506
 9015TIP3   OH226987   1.395   5.648   0.657
 9015TIP3    H126988   1.443   5.632   0.738
 9015TIP3    H226989   1.380   5.743   0.656
 9016TIP3   OH226990   3.163   4.690   2.658
 9016TIP3    H126991   3.195   4.764   2.606
 9016TIP3    H226992   3.177   4.718   2.749
 9017TIP3   OH226993   5.912   4.767   3.398
 9017TIP3    H126994   5.892   4.708   3.325
 9017TIP3    H226995   5.964   4.714   3.458
 9018TIP3   OH226996   4.319   2.884   6.762
 9018TIP3    H126997   4.407   2.889   6.798
 9018TIP3    H226998   4.315   2.955   6.698
 9019TIP3   OH226999   3.176   3.669   0.328
 9019TIP3    H127000   3.228   3.667   0.408
 9019TIP3    H227001   3.142   3.758   0.323
 9020TIP3   OH227002   7.180   6.746   6.567
 9020TIP3    H127003   7.249   6.712   6.509
 9020TIP3    H227004   7.170   6.678   6.634
 9021TIP3   OH227005   0.323   4.298   3.746
 9021TIP3    H127006   0.404   4.303   3.696
 9021TIP3    H227007   0.297   4.206   3.740
 9022TIP3   OH227008   5.499   3.764   6.408
 9022TIP3    H127009   5.498   3.668   6.406
 9022TIP3    H227010   5.556   3.789   6.335
 9023TIP3   OH227011   6.662   0.546   0.733
 9023TIP3    H127012   6.628   0.559   0.645
 9023TIP3    H227013   6.609   0.475   0.770
 9024TIP3   OH227014   3.840   1.655   4.717
 9024TIP3    H127015   3.777   1.585   4.702
 9024TIP3    H227016   3.786   1.732   4.736
 9025TIP3   OH227017   5.337   7.137   0.285
 9025TIP3    H127018   5.311   7.163   0.197
 9025TIP3    H227019   5.355   7.043   0.278
 9026TIP3   OH227020   7.973   0.214   4.462
 9026TIP3    H127021   8.027   0.237   4.386
 9026TIP3    H227022   7.886   0.196   4.425
 9027TIP3   OH227023   3.555   3.739   6.782
 9027TIP3    H127024   3.471   3.738   6.737
 9027TIP3    H227025   3.613   3.689   6.725
 9028TIP3   OH227026   6.493   3.575   5.580
 9028TIP3    H127027   6.557   3.566   5.510
 9028TIP3    H227028   6.432   3.502   5.568
 9029TIP3   OH227029   2.060   4.108   0.060
 9029TIP3    H127030   1.993   4.089   0.126
 9029TIP3    H227031   2.130   4.045   0.079
 9030TIP3   OH227032   8.073   5.517   4.381
 9030TIP3    H127033   8.032   5.459   4.445
 9030TIP3    H227034   8.109   5.458   4.315
 9031TIP3   OH227035   2.130  -0.022   1.926
 9031TIP3    H127036   2.146  -0.086   1.856
 9031TIP3    H227037   2.048   0.022   1.900
 9032TIP3   OH227038   4.446   5.184   6.548
 9032TIP3    H127039   4.537   5.184   6.520
 9032TIP3    H227040   4.402   5.243   6.486
 9033TIP3   OH227041   7.277   6.160   6.145
 9033TIP3    H127042   7.272   6.248   6.107
 9033TIP3    H227043   7.298   6.103   6.071
 9034TIP3   OH227044   5.008   0.175   2.959
 9034TIP3    H127045   4.999   0.136   3.046
 9034TIP3    H227046   4.918   0.189   2.929
 9035TIP3   OH227047   1.268   0.111   4.792
 9035TIP3    H127048   1.290   0.196   4.754
 9035TIP3    H227049   1.281   0.049   4.719
 9036TIP3   OH227050   3.905   0.831   6.056
 9036TIP3    H127051   3.880   0.920   6.082
 9036TIP3    H227052   3.824   0.790   6.027
 9037TIP3   OH227053   0.134   1.280   5.472
 9037TIP3    H127054   0.147   1.291   5.566
 9037TIP3    H227055   0.056   1.331   5.451
 9038TIP3   OH227056   5.937   5.852   1.013
 9038TIP3    H127057   5.905   5.827   1.100
 9038TIP3    H227058   5.936   5.948   1.014
 9039TIP3   OH227059   2.708   1.415   4.300
 9039TIP3    H127060   2.641   1.393   4.365
 9039TIP3    H227061   2.777   1.350   4.314
 9040TIP3   OH227062   4.272   5.034   5.354
 9040TIP3    H127063   4.240   4.946   5.373
 9040TIP3    H227064   4.349   5.044   5.410
 9041TIP3   OH227065   3.170   0.544   3.994
 9041TIP3    H127066   3.154   0.476   3.928
 9041TIP3    H227067   3.142   0.625   3.951
 9042TIP3   OH227068   6.023   1.739   2.737
 9042TIP3    H127069   6.028   1.758   2.643
 9042TIP3    H227070   6.033   1.825   2.779
 9043TIP3   OH227071   5.966   3.764   3.059
 9043TIP3    H127072   5.925   3.806   2.983
 9043TIP3    H227073   6.059   3.786   3.051
 9044TIP3   OH227074   4.146   7.642   6.023
 9044TIP3    H127075   4.195   7.666   5.944
 9044TIP3    H227076   4.214   7.635   6.090
 9045TIP3   OH227077   1.332   7.080   3.998
 9045TIP3    H127078   1.364   7.160   3.957
 9045TIP3    H227079   1.343   7.012   3.931
 9046TIP3   OH227080   7.173   0.672   5.775
 9046TIP3    H127081   7.107   0.717   5.828
 9046TIP3    H227082   7.253   0.677   5.827
 9047TIP3   OH227083   1.156   3.082   1.631
 9047TIP3    H127084   1.088   3.050   1.573
 9047TIP3    H227085   1.190   3.161   1.588
 9048TIP3   OH227086   8.024   5.461   0.153
 9048TIP3    H127087   8.019   5.366   0.165
 9048TIP3    H227088   7.936   5.492   0.175
 9049TIP3   OH227089   4.039   0.351   0.177
 9049TIP3    H127090   4.093   0.390   0.245
 9049TIP3    H227091   3.994   0.425   0.136
 9050TIP3   OH227092   8.116   4.419   6.588
 9050TIP3    H127093   8.073   4.468   6.518
 9050TIP3    H227094   8.046   4.404   6.652
 9051TIP3   OH227095   0.714   7.046   4.591
 9051TIP3    H127096   0.679   6.998   4.516
 9051TIP3    H227097   0.808   7.047   4.577
 9052TIP3   OH227098   2.394   3.613   1.472
 9052TIP3    H127099   2.462   3.580   1.531
 9052TIP3    H227100   2.429   3.696   1.440
 9053TIP3   OH227101   5.372   4.891   0.360
 9053TIP3    H127102   5.291   4.886   0.411
 9053TIP3    H227103   5.390   4.985   0.353
 9054TIP3   OH227104   5.697   6.335   4.283
 9054TIP3    H127105   5.698   6.273   4.355
 9054TIP3    H227106   5.699   6.421   4.325
 9055TIP3   OH227107   6.277   1.339   1.619
 9055TIP3    H127108   6.240   1.424   1.597
 9055TIP3    H227109   6.324   1.313   1.540
 9056TIP3   OH227110   4.397   3.830   5.654
 9056TIP3    H127111   4.384   3.908   5.708
 9056TIP3    H227112   4.309   3.800   5.633
 9057TIP3   OH227113   4.314   2.165   0.447
 9057TIP3    H127114   4.405   2.190   0.467
 9057TIP3    H227115   4.315   2.069   0.445
 9058TIP3   OH227116   5.369   6.909   5.811
 9058TIP3    H127117   5.386   6.817   5.792
 9058TIP3    H227118   5.405   6.922   5.899
 9059TIP3   OH227119   3.606   6.693   5.764
 9059TIP3    H127120   3.563   6.773   5.795
 9059TIP3    H227121   3.535   6.632   5.747
 9060TIP3   OH227122   5.959   4.120   3.671
 9060TIP3    H127123   5.968   4.201   3.620
 9060TIP3    H227124   6.013   4.056   3.623
 9061TIP3   OH227125   0.075   0.877   5.575
 9061TIP3    H127126   0.106   0.789   5.599
 9061TIP3    H227127   0.154   0.931   5.576
 9062TIP3   OH227128   4.124   4.044   1.703
 9062TIP3    H127129   4.070   4.048   1.781
 9062TIP3    H227130   4.179   3.966   1.715
 9063TIP3   OH227131   4.118   1.889   3.509
 9063TIP3    H127132   4.056   1.961   3.502
 9063TIP3    H227133   4.166   1.890   3.426
 9064TIP3   OH227134   5.453   2.711   3.924
 9064TIP3    H127135   5.529   2.678   3.971
 9064TIP3    H227136   5.378   2.681   3.975
 9065TIP3   OH227137   3.104   7.025   3.168
 9065TIP3    H127138   3.192   7.052   3.191
 9065TIP3    H227139   3.050   7.053   3.243
 9066TIP3   OH227140   4.351   0.390   5.982
 9066TIP3    H127141   4.442   0.380   6.010
 9066TIP3    H227142   4.315   0.456   6.041
 9067TIP3   OH227143   3.912   5.362   3.747
 9067TIP3    H127144   3.924   5.362   3.842
 9067TIP3    H227145   3.852   5.434   3.730
 9068TIP3   OH227146   3.873   6.124   4.956
 9068TIP3    H127147   3.814   6.141   4.882
 9068TIP3    H227148   3.818   6.136   5.034
 9069TIP3   OH227149   6.310   4.645   5.334
 9069TIP3    H127150   6.329   4.721   5.280
 9069TIP3    H227151   6.288   4.681   5.420
 9070TIP3   OH227152   1.722   7.279   1.635
 9070TIP3    H127153   1.694   7.311   1.550
 9070TIP3    H227154   1.729   7.184   1.624
 9071TIP3   OH227155   5.812   1.498   3.367
 9071TIP3    H127156   5.827   1.451   3.285
 9071TIP3    H227157   5.828   1.590   3.346
 9072TIP3   OH227158   1.888   5.635   2.340
 9072TIP3    H127159   1.797   5.608   2.326
 9072TIP3    H227160   1.920   5.659   2.253
 9073TIP3   OH227161   6.381   2.076   1.633
 9073TIP3    H127162   6.472   2.049   1.619
 9073TIP3    H227163   6.380   2.169   1.613
 9074TIP3   OH227164   0.702   3.727   0.545
 9074TIP3    H127165   0.726   3.736   0.453
 9074TIP3    H227166   0.661   3.811   0.567
 9075TIP3   OH227167   5.367   7.158   3.489
 9075TIP3    H127168   5.400   7.089   3.431
 9075TIP3    H227169   5.399   7.133   3.576
 9076TIP3   OH227170   2.523   2.573   0.149
 9076TIP3    H127171   2.480   2.607   0.227
 9076TIP3    H227172   2.468   2.500   0.120
 9077TIP3   OH227173   5.006  -0.036   5.181
 9077TIP3    H127174   4.971   0.051   5.165
 9077TIP3    H227175   5.093  -0.035   5.142
 9078TIP3   OH227176   7.600   5.124   3.033
 9078TIP3    H127177   7.599   5.029   3.044
 9078TIP3    H227178   7.512   5.145   3.000
 9079TIP3   OH227179   1.375   1.298   4.351
 9079TIP3    H127180   1.414   1.385   4.360
 9079TIP3    H227181   1.433   1.240   4.401
 9080TIP3   OH227182   2.207   0.460   0.478
 9080TIP3    H127183   2.155   0.431   0.553
 9080TIP3    H227184   2.241   0.380   0.440
 9081TIP3   OH227185   7.797   6.178   4.546
 9081TIP3    H127186   7.882   6.134   4.543
 9081TIP3    H227187   7.811   6.255   4.600
 9082TIP3   OH227188   0.982   5.679   4.225
 9082TIP3    H127189   0.911   5.727   4.268
 9082TIP3    H227190   1.052   5.744   4.217
 9083TIP3   OH227191   7.582   6.870   2.066
 9083TIP3    H127192   7.529   6.947   2.090
 9083TIP3    H227193   7.566   6.807   2.136
 9084TIP3   OH227194   2.881   7.132   0.140
 9084TIP3    H127195   2.856   7.182   0.218
 9084TIP3    H227196   2.943   7.188   0.094
 9085TIP3   OH227197   3.120   1.330   4.035
 9085TIP3    H127198   3.106   1.236   4.024
 9085TIP3    H227199   3.032   1.368   4.033
 9086TIP3   OH227200   1.623   4.987   2.767
 9086TIP3    H127201   1.534   4.978   2.733
 9086TIP3    H227202   1.679   4.947   2.700
 9087TIP3   OH227203   1.405   6.544   5.544
 9087TIP3    H127204   1.495   6.541   5.574
 9087TIP3    H227205   1.408   6.599   5.466
 9088TIP3   OH227206   6.021   0.514   2.828
 9088TIP3    H127207   6.044   0.509   2.921
 9088TIP3    H227208   5.926   0.501   2.826
 9089TIP3   OH227209   3.301   4.806   6.644
 9089TIP3    H127210   3.275   4.714   6.650
 9089TIP3    H227211   3.235   4.853   6.696
 9090TIP3   OH227212   5.016   6.510   5.343
 9090TIP3    H127213   5.002   6.599   5.374
 9090TIP3    H227214   4.928   6.473   5.333
 9091TIP3   OH227215   1.032   7.244   2.573
 9091TIP3    H127216   0.947   7.198   2.568
 9091TIP3    H227217   1.010   7.330   2.607
 9092TIP3   OH227218   4.263   4.549   0.992
 9092TIP3    H127219   4.249   4.597   0.910
 9092TIP3    H227220   4.175   4.521   1.018
 9093TIP3   OH227221   0.736   5.004   5.867
 9093TIP3    H127222   0.828   5.021   5.848
 9093TIP3    H227223   0.695   4.989   5.782
 9094TIP3   OH227224   0.934   0.487   5.548
 9094TIP3    H127225   0.952   0.445   5.463
 9094TIP3    H227226   0.839   0.486   5.556
 9095TIP3   OH227227   5.216   7.349   1.734
 9095TIP3    H127228   5.242   7.428   1.782
 9095TIP3    H227229   5.289   7.332   1.675
 9096TIP3   OH227230   3.305   1.873   6.554
 9096TIP3    H127231   3.284   1.945   6.613
 9096TIP3    H227232   3.360   1.815   6.606
 9097TIP3   OH227233   6.069   0.887   1.789
 9097TIP3    H127234   6.041   0.858   1.876
 9097TIP3    H227235   5.988   0.898   1.740
 9098TIP3   OH227236   1.764   1.918   3.230
 9098TIP3    H127237   1.816   1.840   3.211
 9098TIP3    H227238   1.815   1.965   3.297
 9099TIP3   OH227239   5.515   3.664   2.097
 9099TIP3    H127240   5.486   3.591   2.042
 9099TIP3    H227241   5.435   3.694   2.141
 9100TIP3   OH227242   4.188   5.091   2.284
 9100TIP3    H127243   4.268   5.076   2.335
 9100TIP3    H227244   4.197   5.033   2.209
 9101TIP3   OH227245   1.518   2.580   1.106
 9101TIP3    H127246   1.588   2.644   1.103
 9101TIP3    H227247   1.530   2.528   1.026
 9102TIP3   OH227248   2.845   0.566   0.716
 9102TIP3    H127249   2.900   0.638   0.747
 9102TIP3    H227250   2.884   0.488   0.755
 9103TIP3   OH227251   4.067   2.838   5.220
 9103TIP3    H127252   4.157   2.816   5.197
 9103TIP3    H227253   4.050   2.787   5.300
 9104TIP3   OH227254   6.884   6.381   4.083
 9104TIP3    H127255   6.865   6.399   3.991
 9104TIP3    H227256   6.819   6.316   4.109
 9105TIP3   OH227257   6.291   6.793   5.530
 9105TIP3    H127258   6.375   6.751   5.514
 9105TIP3    H227259   6.309   6.887   5.520
 9106TIP3   OH227260   8.147   2.661   4.774
 9106TIP3    H127261   8.083   2.593   4.795
 9106TIP3    H227262   8.216   2.649   4.838
 9107TIP3   OH227263   2.277   3.463   1.731
 9107TIP3    H127264   2.247   3.539   1.681
 9107TIP3    H227265   2.300   3.498   1.817
 9108TIP3   OH227266   0.106   5.342   4.613
 9108TIP3    H127267   0.031   5.386   4.652
 9108TIP3    H227268   0.079   5.250   4.606
 9109TIP3   OH227269   6.572   7.290   3.600
 9109TIP3    H127270   6.566   7.341   3.681
 9109TIP3    H227271   6.484   7.256   3.587
 9110TIP3   OH227272   7.384   5.779   1.912
 9110TIP3    H127273   7.461   5.735   1.947
 9110TIP3    H227274   7.397   5.871   1.932
 9111TIP3   OH227275   1.050   6.487   6.546
 9111TIP3    H127276   1.072   6.438   6.626
 9111TIP3    H227277   1.128   6.538   6.527
 9112TIP3   OH227278   1.531   2.332   4.768
 9112TIP3    H127279   1.563   2.294   4.686
 9112TIP3    H227280   1.453   2.281   4.790
 9113TIP3   OH227281   4.833   1.025   0.173
 9113TIP3    H127282   4.773   1.036   0.100
 9113TIP3    H227283   4.887   0.949   0.149
 9114TIP3   OH227284   4.055   6.805   0.857
 9114TIP3    H127285   4.100   6.861   0.920
 9114TIP3    H227286   4.126   6.766   0.806
 9115TIP3   OH227287   5.858   0.575   4.345
 9115TIP3    H127288   5.893   0.496   4.305
 9115TIP3    H227289   5.896   0.576   4.433
 9116TIP3   OH227290   8.040   0.654   3.261
 9116TIP3    H127291   8.093   0.667   3.339
 9116TIP3    H227292   8.098   0.608   3.200
 9117TIP3   OH227293   5.441   1.700   1.623
 9117TIP3    H127294   5.536   1.698   1.639
 9117TIP3    H227295   5.433   1.736   1.535
 9118TIP3   OH227296   0.685   4.312   1.623
 9118TIP3    H127297   0.775   4.291   1.596
 9118TIP3    H227298   0.683   4.290   1.716
 9119TIP3   OH227299   4.849   4.938   1.044
 9119TIP3    H127300   4.763   4.935   1.002
 9119TIP3    H227301   4.831   4.917   1.136
 9120TIP3   OH227302   4.590   2.404   1.524
 9120TIP3    H127303   4.645   2.479   1.547
 9120TIP3    H227304   4.501   2.440   1.521
 9121TIP3   OH227305   5.557   4.200   5.254
 9121TIP3    H127306   5.631   4.178   5.197
 9121TIP3    H227307   5.575   4.289   5.283
 9122TIP3   OH227308   5.455   3.614   5.189
 9122TIP3    H127309   5.500   3.665   5.122
 9122TIP3    H227310   5.491   3.645   5.272
 9123TIP3   OH227311   0.778   3.018   0.563
 9123TIP3    H127312   0.873   3.015   0.576
 9123TIP3    H227313   0.748   2.929   0.580
 9124TIP3   OH227314   1.254   1.067   5.248
 9124TIP3    H127315   1.270   0.983   5.205
 9124TIP3    H227316   1.163   1.063   5.276
 9125TIP3   OH227317   8.056   4.246   4.585
 9125TIP3    H127318   7.965   4.223   4.566
 9125TIP3    H227319   8.059   4.342   4.580
 9126TIP3   OH227320   6.145   5.930   6.228
 9126TIP3    H127321   6.075   5.864   6.230
 9126TIP3    H227322   6.114   5.999   6.288
 9127TIP3   OH227323   4.659   3.276   4.837
 9127TIP3    H127324   4.624   3.219   4.768
 9127TIP3    H227325   4.745   3.239   4.857
 9128TIP3   OH227326   1.474   1.751   1.028
 9128TIP3    H127327   1.441   1.684   0.968
 9128TIP3    H227328   1.567   1.760   1.005
 9129TIP3   OH227329   7.984   3.147   3.099
 9129TIP3    H127330   8.010   3.230   3.140
 9129TIP3    H227331   8.058   3.124   3.043
 9130TIP3   OH227332   5.444   3.516   2.804
 9130TIP3    H127333   5.363   3.555   2.771
 9130TIP3    H227334   5.449   3.544   2.895
 9131TIP3   OH227335   6.275   7.332   5.935
 9131TIP3    H127336   6.351   7.387   5.918
 9131TIP3    H227337   6.283   7.259   5.874
 9132TIP3   OH227338   3.264   1.051   6.554
 9132TIP3    H127339   3.349   1.092   6.568
 9132TIP3    H227340   3.272   1.006   6.470
 9133TIP3   OH227341   6.215   6.386   0.474
 9133TIP3    H127342   6.295   6.395   0.422
 9133TIP3    H227343   6.242   6.336   0.551
 9134TIP3   OH227344   0.083   6.111   4.807
 9134TIP3    H127345   0.175   6.131   4.827
 9134TIP3    H227346   0.088   6.029   4.757
 9135TIP3   OH227347   3.190   6.128   5.251
 9135TIP3    H127348   3.197   6.146   5.344
 9135TIP3    H227349   3.096   6.135   5.232
 9136TIP3   OH227350   0.072   5.628   3.349
 9136TIP3    H127351   0.108   5.645   3.436
 9136TIP3    H227352  -0.022   5.614   3.365
 9137TIP3   OH227353   5.540   4.608   1.250
 9137TIP3    H127354   5.513   4.672   1.184
 9137TIP3    H227355   5.513   4.524   1.214
 9138TIP3   OH227356   2.576   2.946   4.347
 9138TIP3    H127357   2.530   2.883   4.292
 9138TIP3    H227358   2.510   2.973   4.412
 9139TIP3   OH227359   2.566   6.587   4.951
 9139TIP3    H127360   2.658   6.566   4.964
 9139TIP3    H227361   2.526   6.505   4.921
 9140TIP3   OH227362   0.059   6.093   2.390
 9140TIP3    H127363   0.062   6.071   2.296
 9140TIP3    H227364   0.125   6.035   2.429
 9141TIP3   OH227365   0.886   5.557   0.762
 9141TIP3    H127366   0.906   5.465   0.778
 9141TIP3    H227367   0.961   5.591   0.713
 9142TIP3   OH227368   8.145   6.095   6.214
 9142TIP3    H127369   8.147   6.188   6.235
 9142TIP3    H227370   8.185   6.089   6.127
 9143TIP3   OH227371   1.540   3.437   2.696
 9143TIP3    H127372   1.538   3.467   2.787
 9143TIP3    H227373   1.508   3.512   2.645
 9144TIP3   OH227374   2.448   0.644   2.471
 9144TIP3    H127375   2.448   0.739   2.469
 9144TIP3    H227376   2.362   0.619   2.505
 9145TIP3   OH227377   3.401   6.337   1.977
 9145TIP3    H127378   3.329   6.376   1.927
 9145TIP3    H227379   3.361   6.312   2.061
 9146TIP3   OH227380   3.071   3.258   3.873
 9146TIP3    H127381   3.044   3.253   3.781
 9146TIP3    H227382   3.115   3.343   3.880
 9147TIP3   OH227383   4.309   1.450   5.008
 9147TIP3    H127384   4.384   1.421   4.956
 9147TIP3    H227385   4.274   1.525   4.960
 9148TIP3   OH227386   6.633   2.262   4.412
 9148TIP3    H127387   6.560   2.245   4.472
 9148TIP3    H227388   6.687   2.183   4.416
 9149TIP3   OH227389   4.637   1.801   3.336
 9149TIP3    H127390   4.574   1.862   3.374
 9149TIP3    H227391   4.719   1.822   3.381
 9150TIP3   OH227392   8.072   5.797   5.086
 9150TIP3    H127393   7.995   5.840   5.050
 9150TIP3    H227394   8.067   5.814   5.180
 9151TIP3   OH227395   6.894   3.583   0.750
 9151TIP3    H127396   6.964   3.621   0.804
 9151TIP3    H227397   6.837   3.539   0.812
 9152TIP3   OH227398   7.073   4.545   5.789
 9152TIP3    H127399   7.138   4.500   5.843
 9152TIP3    H227400   7.038   4.476   5.732
 9153TIP3   OH227401   2.608   1.801   2.496
 9153TIP3    H127402   2.660   1.878   2.474
 9153TIP3    H227403   2.600   1.753   2.414
 9154TIP3   OH227404   3.870   3.923   4.015
 9154TIP3    H127405   3.920   3.849   3.978
 9154TIP3    H227406   3.889   3.996   3.956
 9155TIP3   OH227407   1.718   2.891   1.971
 9155TIP3    H127408   1.753   2.807   2.001
 9155TIP3    H227409   1.753   2.902   1.883
 9156TIP3   OH227410   5.759   6.851   2.659
 9156TIP3    H127411   5.776   6.936   2.699
 9156TIP3    H227412   5.766   6.867   2.565
 9157TIP3   OH227413   1.953   1.937   0.979
 9157TIP3    H127414   1.976   1.965   1.068
 9157TIP3    H227415   2.027   1.884   0.950
 9158TIP3   OH227416   1.427   5.122   0.517
 9158TIP3    H127417   1.408   5.028   0.516
 9158TIP3    H227418   1.508   5.131   0.468
 9159TIP3   OH227419   4.269   5.882   6.067
 9159TIP3    H127420   4.261   5.796   6.025
 9159TIP3    H227421   4.363   5.890   6.086
 9160TIP3   OH227422   1.780   2.301   3.456
 9160TIP3    H127423   1.723   2.301   3.379
 9160TIP3    H227424   1.815   2.390   3.460
 9161TIP3   OH227425   4.947   5.581   3.355
 9161TIP3    H127426   4.982   5.637   3.425
 9161TIP3    H227427   4.995   5.607   3.277
 9162TIP3   OH227428   7.574   6.621   4.297
 9162TIP3    H127429   7.512   6.651   4.363
 9162TIP3    H227430   7.602   6.700   4.252
 9163TIP3   OH227431   6.030   6.365   5.164
 9163TIP3    H127432   6.113   6.362   5.118
 9163TIP3    H227433   5.969   6.407   5.103
 9164TIP3   OH227434   7.547   0.723   3.165
 9164TIP3    H127435   7.626   0.672   3.145
 9164TIP3    H227436   7.485   0.698   3.097
 9165TIP3   OH227437   6.136   7.106   3.445
 9165TIP3    H127438   6.172   7.075   3.362
 9165TIP3    H227439   6.095   7.189   3.424
 9166TIP3   OH227440   3.025   7.055   6.713
 9166TIP3    H127441   2.993   6.975   6.755
 9166TIP3    H227442   3.072   7.101   6.783
 9167TIP3   OH227443   6.391   3.319   3.710
 9167TIP3    H127444   6.409   3.352   3.797
 9167TIP3    H227445   6.295   3.316   3.705
 9168TIP3   OH227446   7.707   6.402   6.354
 9168TIP3    H127447   7.638   6.405   6.287
 9168TIP3    H227448   7.661   6.412   6.437
 9169TIP3   OH227449   6.393   0.084   1.410
 9169TIP3    H127450   6.469   0.123   1.367
 9169TIP3    H227451   6.367   0.011   1.353
 9170TIP3   OH227452   0.609   6.916   6.085
 9170TIP3    H127453   0.562   6.863   6.149
 9170TIP3    H227454   0.671   6.967   6.136
 9171TIP3   OH227455   2.369   3.019   1.480
 9171TIP3    H127456   2.406   3.046   1.396
 9171TIP3    H227457   2.395   3.089   1.541
 9172TIP3   OH227458   6.696   0.411   6.422
 9172TIP3    H127459   6.663   0.499   6.406
 9172TIP3    H227460   6.646   0.379   6.497
 9173TIP3   OH227461   6.716   0.857   1.488
 9173TIP3    H127462   6.681   0.769   1.504
 9173TIP3    H227463   6.698   0.905   1.569
 9174TIP3   OH227464   6.378   1.657   3.325
 9174TIP3    H127465   6.290   1.690   3.306
 9174TIP3    H227466   6.414   1.720   3.388
 9175TIP3   OH227467   3.105   2.977   4.889
 9175TIP3    H127468   3.198   2.996   4.907
 9175TIP3    H227469   3.107   2.899   4.835
 9176TIP3   OH227470   2.693   2.117   1.267
 9176TIP3    H127471   2.694   2.103   1.362
 9176TIP3    H227472   2.754   2.189   1.253
 9177TIP3   OH227473   8.204   7.338   6.340
 9177TIP3    H127474   8.137   7.271   6.328
 9177TIP3    H227475   8.175   7.386   6.418
 9178TIP3   OH227476   4.471   0.656   0.871
 9178TIP3    H127477   4.382   0.637   0.843
 9178TIP3    H227478   4.468   0.652   0.966
 9179TIP3   OH227479   0.374   4.148   2.262
 9179TIP3    H127480   0.409   4.067   2.223
 9179TIP3    H227481   0.292   4.164   2.215
 9180TIP3   OH227482   0.863   0.695   1.144
 9180TIP3    H127483   0.919   0.657   1.211
 9180TIP3    H227484   0.907   0.776   1.118
 9181TIP3   OH227485   5.431   0.467   3.142
 9181TIP3    H127486   5.342   0.460   3.178
 9181TIP3    H227487   5.448   0.561   3.139
 9182TIP3   OH227488   6.092   2.643   3.868
 9182TIP3    H127489   6.004   2.650   3.829
 9182TIP3    H227490   6.151   2.638   3.793
 9183TIP3   OH227491   5.571   4.499   1.751
 9183TIP3    H127492   5.492   4.522   1.799
 9183TIP3    H227493   5.542   4.435   1.686
 9184TIP3   OH227494   2.300   0.130   4.290
 9184TIP3    H127495   2.367   0.166   4.232
 9184TIP3    H227496   2.228   0.106   4.232
 9185TIP3   OH227497   5.255   1.424   5.543
 9185TIP3    H127498   5.195   1.498   5.532
 9185TIP3    H227499   5.321   1.456   5.605
 9186TIP3   OH227500   2.058   7.398   2.509
 9186TIP3    H127501   2.125   7.339   2.474
 9186TIP3    H227502   2.019   7.351   2.582
 9187TIP3   OH227503   2.544   7.570   4.419
 9187TIP3    H127504   2.500   7.538   4.340
 9187TIP3    H227505   2.612   7.629   4.386
 9188TIP3   OH227506   2.587   3.325   0.264
 9188TIP3    H127507   2.614   3.263   0.197
 9188TIP3    H227508   2.536   3.273   0.326
 9189TIP3   OH227509   3.221   0.021  -0.043
 9189TIP3    H127510   3.308   0.003  -0.008
 9189TIP3    H227511   3.191   0.099   0.005
 9190TIP3   OH227512   2.802   4.229   6.766
 9190TIP3    H127513   2.723   4.200   6.720
 9190TIP3    H227514   2.771   4.298   6.824
 9191TIP3   OH227515   4.146   7.016   0.541
 9191TIP3    H127516   4.118   6.925   0.535
 9191TIP3    H227517   4.110   7.047   0.624
 9192TIP3   OH227518   2.868   3.151   3.183
 9192TIP3    H127519   2.918   3.077   3.146
 9192TIP3    H227520   2.818   3.112   3.255
 9193TIP3   OH227521   4.897   3.105   2.444
 9193TIP3    H127522   4.934   3.019   2.427
 9193TIP3    H227523   4.803   3.089   2.455
 9194TIP3   OH227524   4.776   2.902   0.160
 9194TIP3    H127525   4.696   2.947   0.134
 9194TIP3    H227526   4.785   2.830   0.098
 9195TIP3   OH227527   2.804   1.513   6.556
 9195TIP3    H127528   2.772   1.427   6.527
 9195TIP3    H227529   2.892   1.519   6.518
 9196TIP3   OH227530   0.824   0.563   3.861
 9196TIP3    H127531   0.794   0.641   3.814
 9196TIP3    H227532   0.918   0.560   3.844
 9197TIP3   OH227533   3.704   5.336   0.498
 9197TIP3    H127534   3.667   5.260   0.452
 9197TIP3    H227535   3.629   5.377   0.541
 9198TIP3   OH227536   1.872   4.170   3.766
 9198TIP3    H127537   1.907   4.156   3.678
 9198TIP3    H227538   1.945   4.150   3.825
 9199TIP3   OH227539   4.093   0.177   3.726
 9199TIP3    H127540   4.155   0.204   3.659
 9199TIP3    H227541   4.118   0.086   3.746
 9200TIP3   OH227542   1.107   0.478   4.622
 9200TIP3    H127543   1.176   0.420   4.653
 9200TIP3    H227544   1.130   0.497   4.531
 9201TIP3   OH227545   3.273   5.960   2.209
 9201TIP3    H127546   3.273   6.055   2.202
 9201TIP3    H227547   3.258   5.928   2.120
 9202TIP3   OH227548   8.318   4.422   2.220
 9202TIP3    H127549   8.240   4.399   2.270
 9202TIP3    H227550   8.287   4.485   2.155
 9203TIP3   OH227551   2.021   0.502   5.688
 9203TIP3    H127552   2.025   0.561   5.763
 9203TIP3    H227553   2.007   0.416   5.726
 9204TIP3   OH227554   0.527   7.347   1.158
 9204TIP3    H127555   0.597   7.411   1.144
 9204TIP3    H227556   0.558   7.292   1.230
 9205TIP3   OH227557   2.174   1.870   6.060
 9205TIP3    H127558   2.132   1.888   5.975
 9205TIP3    H227559   2.147   1.781   6.081
 9206TIP3   OH227560   3.601   3.522   6.240
 9206TIP3    H127561   3.620   3.571   6.320
 9206TIP3    H227562   3.628   3.581   6.169
 9207TIP3   OH227563   2.041   1.768   3.050
 9207TIP3    H127564   2.073   1.769   2.960
 9207TIP3    H227565   2.089   1.839   3.093
 9208TIP3   OH227566   1.503   5.622   3.118
 9208TIP3    H127567   1.547   5.596   3.199
 9208TIP3    H227568   1.412   5.598   3.132
 9209TIP3   OH227569   3.283   7.694   6.590
 9209TIP3    H127570   3.363   7.647   6.614
 9209TIP3    H227571   3.235   7.633   6.534
 9210TIP3   OH227572   6.234   2.831   2.809
 9210TIP3    H127573   6.252   2.771   2.737
 9210TIP3    H227574   6.157   2.881   2.780
 9211TIP3   OH227575   5.969   7.105   1.765
 9211TIP3    H127576   5.967   7.199   1.748
 9211TIP3    H227577   5.878   7.077   1.752
 9212TIP3   OH227578   3.807   0.610   3.492
 9212TIP3    H127579   3.837   0.628   3.403
 9212TIP3    H227580   3.778   0.695   3.525
 9213TIP3   OH227581   0.163   7.123   5.919
 9213TIP3    H127582   0.081   7.153   5.880
 9213TIP3    H227583   0.150   7.029   5.932
 9214TIP3   OH227584   4.400   7.519   5.042
 9214TIP3    H127585   4.379   7.545   5.132
 9214TIP3    H227586   4.416   7.601   4.996
 9215TIP3   OH227587   0.670   2.272   1.911
 9215TIP3    H127588   0.622   2.353   1.930
 9215TIP3    H227589   0.719   2.292   1.831
 9216TIP3   OH227590   6.132   5.062   2.613
 9216TIP3    H127591   6.048   5.040   2.654
 9216TIP3    H227592   6.108   5.122   2.542
 9217TIP3   OH227593   4.270   6.454   6.113
 9217TIP3    H127594   4.357   6.441   6.152
 9217TIP3    H227595   4.212   6.399   6.166
 9218TIP3   OH227596   7.993   2.572   2.208
 9218TIP3    H127597   7.919   2.520   2.177
 9218TIP3    H227598   8.069   2.534   2.163
 9219TIP3   OH227599   1.993   5.141   4.119
 9219TIP3    H127600   2.084   5.158   4.145
 9219TIP3    H227601   2.000   5.109   4.029
 9220TIP3   OH227602   0.438  -0.049   5.688
 9220TIP3    H127603   0.397   0.020   5.637
 9220TIP3    H227604   0.514  -0.008   5.728
 9221TIP3   OH227605   1.458   2.223   2.921
 9221TIP3    H127606   1.511   2.179   2.988
 9221TIP3    H227607   1.515   2.291   2.885
 9222TIP3   OH227608   1.896   5.105   0.081
 9222TIP3    H127609   1.955   5.037   0.049
 9222TIP3    H227610   1.812   5.061   0.093
 9223TIP3   OH227611   4.611   3.629   5.417
 9223TIP3    H127612   4.658   3.684   5.355
 9223TIP3    H227613   4.581   3.691   5.485
 9224TIP3   OH227614   7.358   3.143   2.183
 9224TIP3    H127615   7.391   3.080   2.119
 9224TIP3    H227616   7.364   3.099   2.267
 9225TIP3   OH227617   5.234   0.820   5.722
 9225TIP3    H127618   5.256   0.901   5.677
 9225TIP3    H227619   5.138   0.821   5.727
 9226TIP3   OH227620   5.093   4.945   0.168
 9226TIP3    H127621   5.034   4.900   0.107
 9226TIP3    H227622   5.180   4.933   0.130
 9227TIP3   OH227623   0.155   2.614   3.158
 9227TIP3    H127624   0.096   2.673   3.112
 9227TIP3    H227625   0.138   2.528   3.121
 9228TIP3   OH227626   4.743   6.159   3.056
 9228TIP3    H127627   4.766   6.144   2.965
 9228TIP3    H227628   4.653   6.127   3.063
 9229TIP3   OH227629   7.231   4.153   1.309
 9229TIP3    H127630   7.321   4.152   1.277
 9229TIP3    H227631   7.190   4.227   1.264
 9230TIP3   OH227632   2.925   2.746   6.495
 9230TIP3    H127633   2.855   2.810   6.507
 9230TIP3    H227634   2.930   2.699   6.578
 9231TIP3   OH227635   4.788   2.160   1.357
 9231TIP3    H127636   4.698   2.179   1.328
 9231TIP3    H227637   4.830   2.121   1.280
 9232TIP3   OH227638   4.273   0.174   5.830
 9232TIP3    H127639   4.316   0.254   5.860
 9232TIP3    H227640   4.332   0.139   5.763
 9233TIP3   OH227641   5.904   0.260   0.403
 9233TIP3    H127642   5.848   0.323   0.447
 9233TIP3    H227643   5.991   0.274   0.440
 9234TIP3   OH227644   0.756   7.048   1.232
 9234TIP3    H127645   0.845   7.082   1.245
 9234TIP3    H227646   0.705   7.086   1.304
 9235TIP3   OH227647   6.942   4.715   6.475
 9235TIP3    H127648   6.902   4.702   6.389
 9235TIP3    H227649   7.033   4.738   6.456
 9236TIP3   OH227650   5.936   7.385   2.343
 9236TIP3    H127651   5.969   7.465   2.302
 9236TIP3    H227652   5.843   7.383   2.320
 9237TIP3   OH227653   5.510   3.732   0.336
 9237TIP3    H127654   5.469   3.699   0.256
 9237TIP3    H227655   5.530   3.824   0.317
 9238TIP3   OH227656   2.109   0.137   3.727
 9238TIP3    H127657   2.192   0.184   3.732
 9238TIP3    H227658   2.046   0.201   3.694
 9239TIP3   OH227659   2.546   5.767   0.510
 9239TIP3    H127660   2.456   5.739   0.496
 9239TIP3    H227661   2.599   5.695   0.475
 9240TIP3   OH227662   6.998   2.234   6.131
 9240TIP3    H127663   6.948   2.152   6.132
 9240TIP3    H227664   7.002   2.259   6.038
 9241TIP3   OH227665   1.757   2.738   1.509
 9241TIP3    H127666   1.809   2.674   1.459
 9241TIP3    H227667   1.732   2.803   1.444
 9242TIP3   OH227668   4.873   4.317   6.591
 9242TIP3    H127669   4.876   4.409   6.565
 9242TIP3    H227670   4.927   4.272   6.525
 9243TIP3   OH227671   4.185   0.171   2.583
 9243TIP3    H127672   4.103   0.138   2.618
 9243TIP3    H227673   4.167   0.263   2.561
 9244TIP3   OH227674   3.595   5.464   1.621
 9244TIP3    H127675   3.609   5.510   1.538
 9244TIP3    H227676   3.501   5.452   1.626
 9245TIP3   OH227677   7.132   4.846   4.910
 9245TIP3    H127678   7.128   4.929   4.862
 9245TIP3    H227679   7.146   4.873   5.001
 9246TIP3   OH227680   3.813   5.106   2.704
 9246TIP3    H127681   3.750   5.122   2.633
 9246TIP3    H227682   3.820   5.190   2.749
 9247TIP3   OH227683   7.904   2.462   0.681
 9247TIP3    H127684   7.884   2.545   0.726
 9247TIP3    H227685   7.979   2.483   0.625
 9248TIP3   OH227686   8.180   0.338   5.574
 9248TIP3    H127687   8.184   0.246   5.547
 9248TIP3    H227688   8.205   0.387   5.495
 9249TIP3   OH227689   6.650   1.202   3.748
 9249TIP3    H127690   6.738   1.187   3.715
 9249TIP3    H227691   6.612   1.266   3.688
 9250TIP3   OH227692   3.896   7.039   2.414
 9250TIP3    H127693   3.904   7.112   2.354
 9250TIP3    H227694   3.867   7.078   2.497
 9251TIP3   OH227695   4.796   5.298   6.246
 9251TIP3    H127696   4.875   5.266   6.290
 9251TIP3    H227697   4.797   5.255   6.160
 9252TIP3   OH227698   0.538   3.166   4.986
 9252TIP3    H127699   0.525   3.123   4.901
 9252TIP3    H227700   0.603   3.111   5.031
 9253TIP3   OH227701   7.011   4.595   3.975
 9253TIP3    H127702   7.061   4.520   3.942
 9253TIP3    H227703   6.982   4.568   4.062
 9254TIP3   OH227704   4.285   7.566   1.847
 9254TIP3    H127705   4.254   7.638   1.792
 9254TIP3    H227706   4.378   7.584   1.860
 9255TIP3   OH227707   7.425   2.271   3.844
 9255TIP3    H127708   7.469   2.266   3.760
 9255TIP3    H227709   7.485   2.228   3.905
 9256TIP3   OH227710   4.277   1.755   1.986
 9256TIP3    H127711   4.314   1.790   2.067
 9256TIP3    H227712   4.317   1.807   1.916
 9257TIP3   OH227713   1.938   6.771   1.581
 9257TIP3    H127714   1.972   6.750   1.494
 9257TIP3    H227715   1.946   6.866   1.588
 9258TIP3   OH227716   2.028   0.378   0.095
 9258TIP3    H127717   2.091   0.437   0.136
 9258TIP3    H227718   2.034   0.399   0.002
 9259TIP3   OH227719   0.881   2.747   4.086
 9259TIP3    H127720   0.820   2.691   4.134
 9259TIP3    H227721   0.864   2.725   3.994
 9260TIP3   OH227722   4.394   4.034   5.118
 9260TIP3    H127723   4.410   3.970   5.049
 9260TIP3    H227724   4.383   3.982   5.197
 9261TIP3   OH227725   0.417   5.741   3.689
 9261TIP3    H127726   0.489   5.708   3.634
 9261TIP3    H227727   0.443   5.720   3.778
 9262TIP3   OH227728   3.008   2.158   0.383
 9262TIP3    H127729   2.990   2.166   0.289
 9262TIP3    H227730   3.010   2.248   0.415
 9263TIP3   OH227731   3.272   3.493   3.992
 9263TIP3    H127732   3.217   3.461   4.064
 9263TIP3    H227733   3.258   3.588   3.991
 9264TIP3   OH227734   0.763   0.960   2.659
 9264TIP3    H127735   0.848   0.985   2.696
 9264TIP3    H227736   0.766   0.992   2.569
 9265TIP3   OH227737   2.197   7.012   4.717
 9265TIP3    H127738   2.287   7.007   4.683
 9265TIP3    H227739   2.194   6.947   4.787
 9266TIP3   OH227740   4.926   1.089   0.431
 9266TIP3    H127741   4.896   1.073   0.341
 9266TIP3    H227742   4.846   1.097   0.482
 9267TIP3   OH227743   2.651   2.677   5.432
 9267TIP3    H127744   2.734   2.632   5.416
 9267TIP3    H227745   2.611   2.630   5.506
 9268TIP3   OH227746   1.499   3.030   4.398
 9268TIP3    H127747   1.495   2.955   4.459
 9268TIP3    H227748   1.431   3.011   4.333
 9269TIP3   OH227749   7.754   1.748   6.493
 9269TIP3    H127750   7.758   1.663   6.449
 9269TIP3    H227751   7.845   1.769   6.514
 9270TIP3   OH227752   3.803   6.512   2.462
 9270TIP3    H127753   3.876   6.506   2.401
 9270TIP3    H227754   3.749   6.436   2.442
 9271TIP3   OH227755   0.331   7.343   2.996
 9271TIP3    H127756   0.374   7.396   2.929
 9271TIP3    H227757   0.350   7.252   2.970
 9272TIP3   OH227758   5.057   2.357   3.661
 9272TIP3    H127759   5.020   2.416   3.727
 9272TIP3    H227760   5.134   2.319   3.704
 9273TIP3   OH227761   6.471   3.697   2.887
 9273TIP3    H127762   6.465   3.612   2.931
 9273TIP3    H227763   6.454   3.677   2.795
 9274TIP3   OH227764   7.470   5.185   3.360
 9274TIP3    H127765   7.504   5.274   3.356
 9274TIP3    H227766   7.455   5.161   3.269
 9275TIP3   OH227767   2.685   4.903   0.446
 9275TIP3    H127768   2.741   4.826   0.439
 9275TIP3    H227769   2.744   4.977   0.442
 9276TIP3   OH227770   3.606   2.718   2.361
 9276TIP3    H127771   3.604   2.786   2.429
 9276TIP3    H227772   3.518   2.679   2.364
 9277TIP3   OH227773   8.210   4.190   4.830
 9277TIP3    H127774   8.200   4.215   4.738
 9277TIP3    H227775   8.154   4.113   4.840
 9278TIP3   OH227776   4.843   7.075   5.438
 9278TIP3    H127777   4.862   7.009   5.371
 9278TIP3    H227778   4.927   7.118   5.454
 9279TIP3   OH227779   0.561   1.163   6.508
 9279TIP3    H127780   0.467   1.144   6.517
 9279TIP3    H227781   0.572   1.183   6.415
 9280TIP3   OH227782   6.409   7.805   2.223
 9280TIP3    H127783   6.326   7.775   2.186
 9280TIP3    H227784   6.453   7.725   2.251
 9281TIP3   OH227785   2.710   5.461   4.017
 9281TIP3    H127786   2.685   5.430   4.105
 9281TIP3    H227787   2.701   5.384   3.961
 9282TIP3   OH227788   7.881   1.285   5.549
 9282TIP3    H127789   7.916   1.214   5.604
 9282TIP3    H227790   7.825   1.240   5.486
 9283TIP3   OH227791   6.448   2.839   6.381
 9283TIP3    H127792   6.476   2.796   6.462
 9283TIP3    H227793   6.353   2.847   6.389
 9284TIP3   OH227794   4.676   5.040   1.742
 9284TIP3    H127795   4.589   5.000   1.749
 9284TIP3    H227796   4.707   5.046   1.832
 9285TIP3   OH227797   1.854   5.948   2.437
 9285TIP3    H127798   1.873   5.866   2.483
 9285TIP3    H227799   1.763   5.967   2.458
 9286TIP3   OH227800   0.140   6.349   1.602
 9286TIP3    H127801   0.144   6.408   1.678
 9286TIP3    H227802   0.107   6.404   1.531
 9287TIP3   OH227803   3.012   7.669   5.099
 9287TIP3    H127804   2.944   7.606   5.075
 9287TIP3    H227805   2.970   7.726   5.163
 9288TIP3   OH227806   7.070   6.574   5.811
 9288TIP3    H127807   7.010   6.557   5.737
 9288TIP3    H227808   7.149   6.610   5.770
 9289TIP3   OH227809   1.109   6.059   1.852
 9289TIP3    H127810   1.126   5.971   1.816
 9289TIP3    H227811   1.110   6.116   1.776
 9290TIP3   OH227812   4.402   0.784   6.264
 9290TIP3    H127813   4.457   0.847   6.217
 9290TIP3    H227814   4.442   0.699   6.247
 9291TIP3   OH227815   6.000   2.420   1.413
 9291TIP3    H127816   6.093   2.426   1.434
 9291TIP3    H227817   5.988   2.477   1.336
 9292TIP3   OH227818   7.085   0.514   5.070
 9292TIP3    H127819   7.008   0.570   5.082
 9292TIP3    H227820   7.049   0.431   5.037
 9293TIP3   OH227821   7.429   5.477   6.119
 9293TIP3    H127822   7.349   5.514   6.083
 9293TIP3    H227823   7.450   5.534   6.193
 9294TIP3   OH227824   5.720   2.151   4.128
 9294TIP3    H127825   5.649   2.210   4.106
 9294TIP3    H227826   5.799   2.195   4.098
 9295TIP3   OH227827   1.249   0.286   0.754
 9295TIP3    H127828   1.305   0.234   0.695
 9295TIP3    H227829   1.200   0.221   0.803
 9296TIP3   OH227830   6.047   5.624   1.331
 9296TIP3    H127831   6.011   5.597   1.415
 9296TIP3    H227832   6.141   5.629   1.344
 9297TIP3   OH227833   1.259   0.936   5.569
 9297TIP3    H127834   1.202   0.869   5.532
 9297TIP3    H227835   1.207   0.978   5.637
 9298TIP3   OH227836   4.161   2.142   1.791
 9298TIP3    H127837   4.199   2.168   1.707
 9298TIP3    H227838   4.066   2.144   1.776
 9299TIP3   OH227839   1.352   7.095   4.316
 9299TIP3    H127840   1.423   7.129   4.262
 9299TIP3    H227841   1.301   7.039   4.257
 9300TIP3   OH227842   3.550   6.950   5.068
 9300TIP3    H127843   3.500   7.029   5.089
 9300TIP3    H227844   3.565   6.956   4.974
 9301TIP3   OH227845   0.363   7.248   0.092
 9301TIP3    H127846   0.410   7.329   0.075
 9301TIP3    H227847   0.274   7.275   0.112
 9302TIP3   OH227848   2.031   5.913   1.932
 9302TIP3    H127849   1.985   5.836   1.965
 9302TIP3    H227850   2.029   5.976   2.004
 9303TIP3   OH227851   7.433   0.856   4.811
 9303TIP3    H127852   7.385   0.821   4.887
 9303TIP3    H227853   7.492   0.785   4.786
 9304TIP3   OH227854   2.405   7.590   6.713
 9304TIP3    H127855   2.453   7.511   6.736
 9304TIP3    H227856   2.336   7.560   6.653
 9305TIP3   OH227857   4.244   7.517   0.351
 9305TIP3    H127858   4.178   7.548   0.290
 9305TIP3    H227859   4.194   7.480   0.424
 9306TIP3   OH227860   2.966   6.793   1.784
 9306TIP3    H127861   2.920   6.709   1.780
 9306TIP3    H227862   2.980   6.808   1.878
 9307TIP3   OH227863   1.544   2.444   0.849
 9307TIP3    H127864   1.496   2.484   0.777
 9307TIP3    H227865   1.591   2.371   0.809
 9308TIP3   OH227866   2.395   6.796   3.087
 9308TIP3    H127867   2.304   6.795   3.116
 9308TIP3    H227868   2.433   6.872   3.131
 9309TIP3   OH227869   4.511   3.199   5.291
 9309TIP3    H127870   4.464   3.151   5.223
 9309TIP3    H227871   4.484   3.290   5.280
 9310TIP3   OH227872   8.024   5.190   3.088
 9310TIP3    H127873   8.066   5.120   3.039
 9310TIP3    H227874   7.964   5.145   3.148
 9311TIP3   OH227875   2.049   2.908   1.894
 9311TIP3    H127876   2.030   3.002   1.899
 9311TIP3    H227877   2.119   2.893   1.957
 9312TIP3   OH227878   1.927   0.169   4.171
 9312TIP3    H127879   1.923   0.262   4.146
 9312TIP3    H227880   1.921   0.170   4.267
 9313TIP3   OH227881   7.332   3.723   0.274
 9313TIP3    H127882   7.377   3.656   0.222
 9313TIP3    H227883   7.289   3.675   0.344
 9314TIP3   OH227884   6.715   1.691   0.086
 9314TIP3    H127885   6.766   1.726   0.159
 9314TIP3    H227886   6.759   1.723   0.007
 9315TIP3   OH227887   3.555   7.288   6.441
 9315TIP3    H127888   3.578   7.305   6.350
 9315TIP3    H227889   3.460   7.275   6.440
 9316TIP3   OH227890   4.010   6.199   0.360
 9316TIP3    H127891   4.035   6.168   0.447
 9316TIP3    H227892   4.032   6.292   0.360
 9317TIP3   OH227893   4.557   5.644   4.469
 9317TIP3    H127894   4.579   5.669   4.559
 9317TIP3    H227895   4.494   5.710   4.441
 9318TIP3   OH227896   8.215   3.140   2.459
 9318TIP3    H127897   8.125   3.133   2.491
 9318TIP3    H227898   8.224   3.066   2.398
 9319TIP3   OH227899   1.075   2.889   4.831
 9319TIP3    H127900   1.147   2.909   4.891
 9319TIP3    H227901   1.066   2.968   4.778
 9320TIP3   OH227902   8.210   2.398   2.076
 9320TIP3    H127903   8.282   2.370   2.018
 9320TIP3    H227904   8.157   2.319   2.087
 9321TIP3   OH227905   3.671   2.508   5.647
 9321TIP3    H127906   3.676   2.593   5.604
 9321TIP3    H227907   3.605   2.460   5.598
 9322TIP3   OH227908   4.112   4.439   3.247
 9322TIP3    H127909   4.159   4.356   3.250
 9322TIP3    H227910   4.168   4.500   3.295
 9323TIP3   OH227911   4.474   0.591   3.153
 9323TIP3    H127912   4.566   0.605   3.131
 9323TIP3    H227913   4.474   0.582   3.249
 9324TIP3   OH227914   7.164   1.801   5.025
 9324TIP3    H127915   7.147   1.713   4.992
 9324TIP3    H227916   7.226   1.839   4.963
 9325TIP3   OH227917   7.156   3.408   2.999
 9325TIP3    H127918   7.102   3.478   2.963
 9325TIP3    H227919   7.243   3.447   3.010
 9326TIP3   OH227920   4.505   2.444   4.938
 9326TIP3    H127921   4.518   2.393   4.858
 9326TIP3    H227922   4.580   2.503   4.941
 9327TIP3   OH227923   4.505   2.909   0.734
 9327TIP3    H127924   4.534   2.915   0.643
 9327TIP3    H227925   4.580   2.872   0.781
 9328TIP3   OH227926   5.330   0.233   1.765
 9328TIP3    H127927   5.317   0.326   1.781
 9328TIP3    H227928   5.422   0.225   1.741
 9329TIP3   OH227929   1.555   4.917   0.278
 9329TIP3    H127930   1.486   4.905   0.343
 9329TIP3    H227931   1.536   4.850   0.211
 9330TIP3   OH227932   6.641   3.742   6.670
 9330TIP3    H127933   6.705   3.717   6.737
 9330TIP3    H227934   6.571   3.785   6.718
 9331TIP3   OH227935   5.283   1.634   6.252
 9331TIP3    H127936   5.368   1.612   6.290
 9331TIP3    H227937   5.286   1.596   6.164
 9332TIP3   OH227938   8.268   5.629   3.003
 9332TIP3    H127939   8.236   5.557   3.058
 9332TIP3    H227940   8.348   5.658   3.046
 9333TIP3   OH227941   1.246   0.996   5.855
 9333TIP3    H127942   1.162   0.985   5.901
 9333TIP3    H227943   1.307   1.024   5.923
 9334TIP3   OH227944   4.397   0.196   0.248
 9334TIP3    H127945   4.377   0.105   0.272
 9334TIP3    H227946   4.316   0.244   0.267
 9335TIP3   OH227947   2.833   7.183   6.412
 9335TIP3    H127948   2.839   7.185   6.508
 9335TIP3    H227949   2.813   7.092   6.391
 9336TIP3   OH227950   0.356   1.507   0.472
 9336TIP3    H127951   0.276   1.541   0.434
 9336TIP3    H227952   0.369   1.558   0.552
 9337TIP3   OH227953   4.962   4.383   3.095
 9337TIP3    H127954   5.052   4.378   3.127
 9337TIP3    H227955   4.970   4.423   3.009
 9338TIP3   OH227956   0.389   5.319   5.082
 9338TIP3    H127957   0.358   5.398   5.037
 9338TIP3    H227958   0.372   5.248   5.019
 9339TIP3   OH227959   6.038   3.402   6.305
 9339TIP3    H127960   6.122   3.427   6.266
 9339TIP3    H227961   6.054   3.405   6.400
 9340TIP3   OH227962   1.522   3.677   0.671
 9340TIP3    H127963   1.607   3.640   0.695
 9340TIP3    H227964   1.466   3.602   0.654
 9341TIP3   OH227965   3.684   7.304   4.603
 9341TIP3    H127966   3.696   7.381   4.659
 9341TIP3    H227967   3.734   7.235   4.646
 9342TIP3   OH227968   7.533   2.994   3.502
 9342TIP3    H127969   7.495   2.953   3.580
 9342TIP3    H227970   7.595   3.059   3.537
 9343TIP3   OH227971   3.996   7.333   5.185
 9343TIP3    H127972   3.905   7.310   5.204
 9343TIP3    H227973   4.035   7.346   5.271
 9344TIP3   OH227974   6.523   1.321   6.516
 9344TIP3    H127975   6.605   1.323   6.564
 9344TIP3    H227976   6.529   1.393   6.453
 9345TIP3   OH227977   6.674   1.475   1.462
 9345TIP3    H127978   6.591   1.434   1.438
 9345TIP3    H227979   6.653   1.568   1.474
 9346TIP3   OH227980   2.652   4.137   4.254
 9346TIP3    H127981   2.626   4.096   4.337
 9346TIP3    H227982   2.715   4.205   4.280
 9347TIP3   OH227983   8.135   0.822   3.723
 9347TIP3    H127984   8.141   0.914   3.749
 9347TIP3    H227985   8.041   0.806   3.716
 9348TIP3   OH227986   2.157   6.237   3.855
 9348TIP3    H127987   2.243   6.195   3.845
 9348TIP3    H227988   2.178   6.330   3.870
 9349TIP3   OH227989   0.806   3.075   1.807
 9349TIP3    H127990   0.728   3.056   1.858
 9349TIP3    H227991   0.794   3.164   1.775
 9350TIP3   OH227992   2.293   0.057   3.093
 9350TIP3    H127993   2.317   0.027   3.006
 9350TIP3    H227994   2.289   0.152   3.085
 9351TIP3   OH227995   5.690   0.714   3.352
 9351TIP3    H127996   5.631   0.729   3.279
 9351TIP3    H227997   5.643   0.749   3.428
 9352TIP3   OH227998   7.292   0.104   0.166
 9352TIP3    H127999   7.221   0.043   0.145
 9352TIP3    H228000   7.249   0.189   0.175
 9353TIP3   OH228001   0.292   3.520   4.161
 9353TIP3    H128002   0.362   3.542   4.223
 9353TIP3    H228003   0.331   3.453   4.104
 9354TIP3   OH228004   8.196   2.540   6.757
 9354TIP3    H128005   8.110   2.500   6.741
 9354TIP3    H228006   8.230   2.558   6.670
 9355TIP3   OH228007   6.462   7.216   4.462
 9355TIP3    H128008   6.445   7.184   4.374
 9355TIP3    H228009   6.529   7.157   4.496
 9356TIP3   OH228010   3.121   0.358   3.791
 9356TIP3    H128011   3.157   0.316   3.713
 9356TIP3    H228012   3.059   0.295   3.827
 9357TIP3   OH228013   1.682   3.465   2.330
 9357TIP3    H128014   1.690   3.375   2.361
 9357TIP3    H228015   1.729   3.517   2.395
 9358TIP3   OH228016   2.106   0.782   2.734
 9358TIP3    H128017   2.083   0.722   2.805
 9358TIP3    H228018   2.124   0.725   2.660
 9359TIP3   OH228019   7.878   5.389   5.824
 9359TIP3    H128020   7.953   5.438   5.859
 9359TIP3    H228021   7.898   5.376   5.731
 9360TIP3   OH228022   4.529   0.580   1.950
 9360TIP3    H128023   4.525   0.635   2.028
 9360TIP3    H228024   4.514   0.640   1.877
 9361TIP3   OH228025   1.215   3.399   6.727
 9361TIP3    H128026   1.286   3.384   6.790
 9361TIP3    H228027   1.213   3.493   6.715
 9362TIP3   OH228028   3.670   3.881   0.230
 9362TIP3    H128029   3.743   3.943   0.229
 9362TIP3    H228030   3.680   3.831   0.149
 9363TIP3   OH228031   2.706   6.907   6.434
 9363TIP3    H128032   2.633   6.857   6.473
 9363TIP3    H228033   2.696   6.894   6.340
 9364TIP3   OH228034   2.611   2.403   4.352
 9364TIP3    H128035   2.600   2.419   4.258
 9364TIP3    H228036   2.643   2.486   4.386
 9365TIP3   OH228037   6.807   2.513   5.484
 9365TIP3    H128038   6.866   2.455   5.436
 9365TIP3    H228039   6.862   2.585   5.513
 9366TIP3   OH228040   5.891   5.298   2.259
 9366TIP3    H128041   5.894   5.203   2.272
 9366TIP3    H228042   5.954   5.333   2.322
 9367TIP3   OH228043   6.151   3.277   0.645
 9367TIP3    H128044   6.081   3.212   0.653
 9367TIP3    H228045   6.213   3.254   0.713
 9368TIP3   OH228046   7.514   5.999   5.434
 9368TIP3    H128047   7.473   5.929   5.486
 9368TIP3    H228048   7.497   6.079   5.484
 9369TIP3   OH228049   3.438   4.114   6.077
 9369TIP3    H128050   3.433   4.020   6.058
 9369TIP3    H228051   3.372   4.152   6.019
 9370TIP3   OH228052   1.713   4.909   5.347
 9370TIP3    H128053   1.679   4.974   5.409
 9370TIP3    H228054   1.681   4.937   5.262
 9371TIP3   OH228055   5.265   3.944   3.163
 9371TIP3    H128056   5.340   3.972   3.111
 9371TIP3    H228057   5.201   3.914   3.100
 9372TIP3   OH228058   0.371   3.646   6.457
 9372TIP3    H128059   0.281   3.613   6.455
 9372TIP3    H228060   0.376   3.694   6.540
 9373TIP3   OH228061   1.341   6.660   4.993
 9373TIP3    H128062   1.246   6.660   4.982
 9373TIP3    H228063   1.374   6.610   4.918
 9374TIP3   OH228064   7.107   0.386   1.786
 9374TIP3    H128065   7.100   0.383   1.882
 9374TIP3    H228066   7.185   0.334   1.766
 9375TIP3   OH228067   6.631   5.684   3.964
 9375TIP3    H128068   6.549   5.730   3.945
 9375TIP3    H228069   6.605   5.592   3.972
 9376TIP3   OH228070   7.699   2.726   1.452
 9376TIP3    H128071   7.728   2.785   1.521
 9376TIP3    H228072   7.778   2.678   1.427
 9377TIP3   OH228073   1.296   1.649   6.733
 9377TIP3    H128074   1.225   1.608   6.683
 9377TIP3    H228075   1.376   1.606   6.701
 9378TIP3   OH228076   1.509   4.318   3.442
 9378TIP3    H128077   1.556   4.235   3.444
 9378TIP3    H228078   1.572   4.380   3.407
 9379TIP3   OH228079   7.210   5.935   1.646
 9379TIP3    H128080   7.150   5.873   1.606
 9379TIP3    H228081   7.209   5.913   1.740
 9380TIP3   OH228082   4.098   4.441   2.548
 9380TIP3    H128083   4.085   4.499   2.473
 9380TIP3    H228084   4.034   4.370   2.535
 9381TIP3   OH228085   0.214   6.340   6.403
 9381TIP3    H128086   0.240   6.331   6.311
 9381TIP3    H228087   0.120   6.362   6.399
 9382TIP3   OH228088   4.514   1.650   4.139
 9382TIP3    H128089   4.433   1.600   4.134
 9382TIP3    H228090   4.515   1.685   4.229
 9383TIP3   OH228091   7.374   2.237   5.894
 9383TIP3    H128092   7.316   2.183   5.947
 9383TIP3    H228093   7.343   2.224   5.804
 9384TIP3   OH228094   3.651   3.593   4.672
 9384TIP3    H128095   3.565   3.601   4.713
 9384TIP3    H228096   3.696   3.526   4.725
 9385TIP3   OH228097   3.885   7.018   2.949
 9385TIP3    H128098   3.918   7.087   3.007
 9385TIP3    H228099   3.791   7.034   2.943
 9386TIP3   OH228100   5.509   1.463   2.999
 9386TIP3    H128101   5.453   1.411   3.057
 9386TIP3    H228102   5.462   1.466   2.916
 9387TIP3   OH228103   8.018   3.245   2.745
 9387TIP3    H128104   7.979   3.332   2.743
 9387TIP3    H228105   7.947   3.186   2.720
 9388TIP3   OH228106   0.077   5.414   6.310
 9388TIP3    H128107   0.096   5.468   6.386
 9388TIP3    H228108   0.002   5.361   6.337
 9389TIP3   OH228109   0.233   1.455   2.032
 9389TIP3    H128110   0.294   1.445   2.105
 9389TIP3    H228111   0.247   1.545   2.002
 9390TIP3   OH228112   3.784   0.549   2.944
 9390TIP3    H128113   3.856   0.562   3.006
 9390TIP3    H228114   3.706   0.573   2.993
 9391TIP3   OH228115   2.484   1.680   5.366
 9391TIP3    H128116   2.556   1.624   5.394
 9391TIP3    H228117   2.410   1.620   5.355
 9392TIP3   OH228118   7.208   1.278   3.161
 9392TIP3    H128119   7.211   1.374   3.158
 9392TIP3    H228120   7.288   1.251   3.115
 9393TIP3   OH228121   6.158   3.483   0.469
 9393TIP3    H128122   6.230   3.440   0.422
 9393TIP3    H228123   6.152   3.435   0.551
 9394TIP3   OH228124   1.744   2.040   3.889
 9394TIP3    H128125   1.714   2.120   3.847
 9394TIP3    H228126   1.788   2.069   3.969
 9395TIP3   OH228127   6.982   5.733   4.859
 9395TIP3    H128128   6.889   5.747   4.875
 9395TIP3    H228129   7.023   5.743   4.945
 9396TIP3   OH228130   6.475   2.397   3.361
 9396TIP3    H128131   6.398   2.442   3.393
 9396TIP3    H228132   6.444   2.346   3.285
 9397TIP3   OH228133   5.376   6.638   3.577
 9397TIP3    H128134   5.281   6.633   3.591
 9397TIP3    H228135   5.410   6.556   3.614
 9398TIP3   OH228136   7.436   0.543   3.770
 9398TIP3    H128137   7.345   0.573   3.766
 9398TIP3    H228138   7.488   0.622   3.777
 9399TIP3   OH228139   4.911   3.789   6.328
 9399TIP3    H128140   4.843   3.829   6.382
 9399TIP3    H228141   4.991   3.796   6.381
 9400TIP3   OH228142   3.451   1.757   2.207
 9400TIP3    H128143   3.476   1.847   2.185
 9400TIP3    H228144   3.491   1.703   2.139
 9401TIP3   OH228145   3.652   5.623   1.092
 9401TIP3    H128146   3.610   5.546   1.056
 9401TIP3    H228147   3.740   5.594   1.116
 9402TIP3   OH228148   6.865   5.719   3.117
 9402TIP3    H128149   6.955   5.725   3.149
 9402TIP3    H228150   6.840   5.809   3.097
 9403TIP3   OH228151   3.957   5.286   3.357
 9403TIP3    H128152   3.946   5.208   3.302
 9403TIP3    H228153   3.963   5.252   3.447
 9404TIP3   OH228154   7.299   5.235   1.290
 9404TIP3    H128155   7.321   5.320   1.328
 9404TIP3    H228156   7.237   5.197   1.352
 9405TIP3   OH228157   6.391   4.032   2.246
 9405TIP3    H128158   6.321   3.988   2.198
 9405TIP3    H228159   6.463   4.038   2.183
 9406TIP3   OH228160   1.327   3.383   0.601
 9406TIP3    H128161   1.297   3.355   0.687
 9406TIP3    H228162   1.416   3.346   0.594
 9407TIP3   OH228163   1.158   1.897   3.460
 9407TIP3    H128164   1.161   1.827   3.525
 9407TIP3    H228165   1.229   1.877   3.399
 9408TIP3   OH228166   0.907   1.061   1.819
 9408TIP3    H128167   0.817   1.064   1.852
 9408TIP3    H228168   0.914   0.976   1.777
 9409TIP3   OH228169   6.324   5.446   3.168
 9409TIP3    H128170   6.355   5.358   3.146
 9409TIP3    H228171   6.401   5.502   3.154
 9410TIP3   OH228172   2.768   4.548   5.511
 9410TIP3    H128173   2.770   4.535   5.605
 9410TIP3    H228174   2.690   4.602   5.496
 9411TIP3   OH228175   4.549   1.410   5.467
 9411TIP3    H128176   4.486   1.375   5.404
 9411TIP3    H228177   4.506   1.487   5.504
 9412TIP3   OH228178   7.009   0.999   6.152
 9412TIP3    H128179   6.940   1.061   6.177
 9412TIP3    H228180   7.088   1.033   6.194
 9413TIP3   OH228181   0.467   2.885   2.629
 9413TIP3    H128182   0.544   2.852   2.583
 9413TIP3    H228183   0.495   2.890   2.721
 9414TIP3   OH228184   3.826   6.131   2.559
 9414TIP3    H128185   3.876   6.206   2.589
 9414TIP3    H228186   3.874   6.099   2.483
 9415TIP3   OH228187   7.866   6.451   1.425
 9415TIP3    H128188   7.917   6.469   1.346
 9415TIP3    H228189   7.804   6.524   1.430
 9416TIP3   OH228190   1.407   5.541   5.639
 9416TIP3    H128191   1.444   5.530   5.551
 9416TIP3    H228192   1.376   5.454   5.664
 9417TIP3   OH228193   0.576   5.631   3.497
 9417TIP3    H128194   0.561   5.544   3.536
 9417TIP3    H228195   0.590   5.614   3.404
 9418TIP3   OH228196   5.078   1.556   1.806
 9418TIP3    H128197   5.102   1.491   1.740
 9418TIP3    H228198   5.147   1.623   1.800
 9419TIP3   OH228199   1.242   3.893   1.927
 9419TIP3    H128200   1.308   3.861   1.866
 9419TIP3    H228201   1.162   3.845   1.903
 9420TIP3   OH228202   7.294   5.380   1.011
 9420TIP3    H128203   7.253   5.354   1.094
 9420TIP3    H228204   7.243   5.335   0.944
 9421TIP3   OH228205   5.807   7.388   2.090
 9421TIP3    H128206   5.726   7.425   2.055
 9421TIP3    H228207   5.781   7.302   2.124
 9422TIP3   OH228208   2.945   0.220   5.164
 9422TIP3    H128209   2.992   0.188   5.241
 9422TIP3    H228210   2.931   0.142   5.111
 9423TIP3   OH228211   4.186   3.200   3.462
 9423TIP3    H128212   4.124   3.181   3.532
 9423TIP3    H228213   4.265   3.232   3.507
 9424TIP3   OH228214   1.193   3.916   2.185
 9424TIP3    H128215   1.164   3.825   2.185
 9424TIP3    H228216   1.221   3.932   2.095
 9425TIP3   OH228217   6.370   7.515   0.592
 9425TIP3    H128218   6.319   7.569   0.652
 9425TIP3    H228219   6.358   7.426   0.622
 9426TIP3   OH228220   1.281   6.474   6.124
 9426TIP3    H128221   1.248   6.550   6.076
 9426TIP3    H228222   1.336   6.428   6.061
 9427TIP3   OH228223   0.554   3.535   1.684
 9427TIP3    H128224   0.571   3.581   1.602
 9427TIP3    H228225   0.483   3.584   1.725
 9428TIP3   OH228226   3.625   2.009   3.703
 9428TIP3    H128227   3.674   1.979   3.779
 9428TIP3    H228228   3.666   1.962   3.629
 9429TIP3   OH228229   2.670   3.125   5.660
 9429TIP3    H128230   2.674   3.032   5.683
 9429TIP3    H228231   2.750   3.140   5.610
 9430TIP3   OH228232   2.813   7.185   1.520
 9430TIP3    H128233   2.817   7.091   1.505
 9430TIP3    H228234   2.743   7.216   1.463
 9431TIP3   OH228235   0.559   0.202   1.141
 9431TIP3    H128236   0.530   0.140   1.208
 9431TIP3    H228237   0.479   0.248   1.115
 9432TIP3   OH228238   6.617   6.488   0.481
 9432TIP3    H128239   6.700   6.474   0.435
 9432TIP3    H228240   6.611   6.414   0.542
 9433TIP3   OH228241   0.859   6.924   5.946
 9433TIP3    H128242   0.917   6.848   5.943
 9433TIP3    H228243   0.792   6.900   6.010
 9434TIP3   OH228244   3.851   1.722   2.114
 9434TIP3    H128245   3.916   1.735   2.183
 9434TIP3    H228246   3.901   1.726   2.033
 9435TIP3   OH228247   0.629   0.092   2.567
 9435TIP3    H128248   0.610   0.176   2.525
 9435TIP3    H228249   0.706   0.109   2.621
 9436TIP3   OH228250   7.223   4.079   5.913
 9436TIP3    H128251   7.191   4.042   5.995
 9436TIP3    H228252   7.144   4.116   5.871
 9437TIP3   OH228253   1.376   3.233   4.741
 9437TIP3    H128254   1.301   3.214   4.685
 9437TIP3    H228255   1.434   3.288   4.687
 9438TIP3   OH228256   4.852   4.073   3.702
 9438TIP3    H128257   4.905   4.150   3.724
 9438TIP3    H228258   4.809   4.096   3.620
 9439TIP3   OH228259   2.170   4.166   3.112
 9439TIP3    H128260   2.121   4.190   3.190
 9439TIP3    H228261   2.145   4.075   3.094
 9440TIP3   OH228262   5.375   7.431   6.452
 9440TIP3    H128263   5.281   7.428   6.473
 9440TIP3    H228264   5.388   7.357   6.392
 9441TIP3   OH228265   4.550   6.536   2.343
 9441TIP3    H128266   4.455   6.523   2.352
 9441TIP3    H228267   4.588   6.479   2.410
 9442TIP3   OH228268   6.813   2.136   5.232
 9442TIP3    H128269   6.877   2.073   5.199
 9442TIP3    H228270   6.847   2.160   5.319
 9443TIP3   OH228271   5.431   1.116   4.630
 9443TIP3    H128272   5.413   1.042   4.687
 9443TIP3    H228273   5.478   1.178   4.684
 9444TIP3   OH228274   5.265   0.955   5.102
 9444TIP3    H128275   5.240   0.938   5.193
 9444TIP3    H228276   5.182   0.969   5.057
 9445TIP3   OH228277   5.439   5.988   6.518
 9445TIP3    H128278   5.397   6.028   6.443
 9445TIP3    H228279   5.407   6.037   6.594
 9446TIP3   OH228280   4.583   7.605   5.782
 9446TIP3    H128281   4.667   7.650   5.787
 9446TIP3    H228282   4.518   7.674   5.795
 9447TIP3   OH228283   8.301   3.462   4.842
 9447TIP3    H128284   8.303   3.429   4.752
 9447TIP3    H228285   8.380   3.426   4.882
 9448TIP3   OH228286   7.310   3.189   5.409
 9448TIP3    H128287   7.242   3.254   5.391
 9448TIP3    H228288   7.298   3.122   5.342
 9449TIP3   OH228289   8.047   3.452   0.080
 9449TIP3    H128290   8.067   3.458   0.173
 9449TIP3    H228291   7.961   3.409   0.076
 9450TIP3   OH228292   0.160   3.234   4.724
 9450TIP3    H128293   0.249   3.247   4.691
 9450TIP3    H228294   0.153   3.139   4.737
 9451TIP3   OH228295   2.128   3.582   1.478
 9451TIP3    H128296   2.221   3.604   1.484
 9451TIP3    H228297   2.093   3.643   1.413
 9452TIP3   OH228298   0.838   4.975   1.751
 9452TIP3    H128299   0.920   4.948   1.709
 9452TIP3    H228300   0.859   4.978   1.844
 9453TIP3   OH228301   2.084   3.198   1.849
 9453TIP3    H128302   2.107   3.250   1.927
 9453TIP3    H228303   2.152   3.218   1.786
 9454TIP3   OH228304   3.464   7.377   4.441
 9454TIP3    H128305   3.386   7.332   4.474
 9454TIP3    H228306   3.536   7.339   4.490
 9455TIP3   OH228307   3.355   2.467   0.982
 9455TIP3    H128308   3.447   2.490   0.994
 9455TIP3    H228309   3.311   2.501   1.059
 9456TIP3   OH228310   7.051   3.957   5.146
 9456TIP3    H128311   7.037   3.941   5.239
 9456TIP3    H228312   7.061   4.052   5.139
 9457TIP3   OH228313   2.172   3.915   1.565
 9457TIP3    H128314   2.218   3.886   1.643
 9457TIP3    H228315   2.133   3.835   1.530
 9458TIP3   OH228316   3.042   6.391   2.993
 9458TIP3    H128317   3.037   6.322   2.927
 9458TIP3    H228318   2.964   6.379   3.047
 9459TIP3   OH228319   7.259   0.599   4.868
 9459TIP3    H128320   7.321   0.628   4.935
 9459TIP3    H228321   7.200   0.539   4.915
 9460TIP3   OH228322   6.046   4.195   2.391
 9460TIP3    H128323   6.128   4.224   2.430
 9460TIP3    H228324   6.027   4.111   2.434
 9461TIP3   OH228325   0.763   4.859   1.469
 9461TIP3    H128326   0.772   4.793   1.538
 9461TIP3    H228327   0.715   4.931   1.511
 9462TIP3   OH228328   1.804   1.652   3.039
 9462TIP3    H128329   1.898   1.667   3.050
 9462TIP3    H228330   1.780   1.706   2.963
 9463TIP3   OH228331   6.203   2.921   5.225
 9463TIP3    H128332   6.161   3.007   5.213
 9463TIP3    H228333   6.166   2.887   5.306
 9464TIP3   OH228334   7.453   4.446   1.117
 9464TIP3    H128335   7.453   4.538   1.143
 9464TIP3    H228336   7.473   4.398   1.197
 9465TIP3   OH228337   3.337   6.481   1.619
 9465TIP3    H128338   3.332   6.401   1.566
 9465TIP3    H228339   3.418   6.523   1.592
 9466TIP3   OH228340   2.787   0.814   6.285
 9466TIP3    H128341   2.879   0.836   6.301
 9466TIP3    H228342   2.785   0.792   6.191
 9467TIP3   OH228343   7.729   6.912   1.380
 9467TIP3    H128344   7.820   6.928   1.406
 9467TIP3    H228345   7.677   6.935   1.457
 9468TIP3   OH228346   5.766   4.760   0.112
 9468TIP3    H128347   5.816   4.680   0.130
 9468TIP3    H228348   5.706   4.767   0.186
 9469TIP3   OH228349   0.430   2.178   3.707
 9469TIP3    H128350   0.335   2.166   3.701
 9469TIP3    H228351   0.446   2.187   3.801
 9470TIP3   OH228352   2.183   0.515   4.838
 9470TIP3    H128353   2.183   0.607   4.814
 9470TIP3    H228354   2.231   0.471   4.768
 9471TIP3   OH228355   0.366   3.148   5.273
 9471TIP3    H128356   0.283   3.102   5.283
 9471TIP3    H228357   0.405   3.109   5.194
 9472TIP3   OH228358   1.593   6.404   4.319
 9472TIP3    H128359   1.618   6.315   4.342
 9472TIP3    H228360   1.498   6.401   4.310
 9473TIP3   OH228361   4.978   0.835   5.770
 9473TIP3    H128362   4.896   0.826   5.720
 9473TIP3    H228363   4.963   0.912   5.826
 9474TIP3   OH228364   2.537   3.548   5.128
 9474TIP3    H128365   2.538   3.540   5.224
 9474TIP3    H228366   2.621   3.511   5.101
 9475TIP3   OH228367   7.064   4.789   1.413
 9475TIP3    H128368   7.114   4.752   1.486
 9475TIP3    H228369   7.120   4.775   1.337
 9476TIP3   OH228370   7.959   7.604   6.686
 9476TIP3    H128371   7.883   7.548   6.706
 9476TIP3    H228372   7.929   7.660   6.614
 9477TIP3   OH228373   0.055   1.946   5.095
 9477TIP3    H128374   0.004   1.955   5.175
 9477TIP3    H228375   0.109   2.024   5.092
 9478TIP3   OH228376   6.948   5.233   3.890
 9478TIP3    H128377   6.912   5.289   3.821
 9478TIP3    H228378   6.881   5.166   3.903
 9479TIP3   OH228379   7.481   1.757   1.528
 9479TIP3    H128380   7.464   1.706   1.607
 9479TIP3    H228381   7.444   1.843   1.547
 9480TIP3   OH228382   0.251   4.442   2.421
 9480TIP3    H128383   0.167   4.446   2.375
 9480TIP3    H228384   0.249   4.516   2.481
 9481TIP3   OH228385   7.962   5.540   1.978
 9481TIP3    H128386   7.920   5.581   1.902
 9481TIP3    H228387   7.906   5.565   2.052
 9482TIP3   OH228388   5.984   3.130   3.206
 9482TIP3    H128389   6.062   3.143   3.261
 9482TIP3    H228390   5.912   3.125   3.268
 9483TIP3   OH228391   4.802   5.481   5.380
 9483TIP3    H128392   4.745   5.407   5.363
 9483TIP3    H228393   4.799   5.533   5.299
 9484TIP3   OH228394   1.844   5.817   0.424
 9484TIP3    H128395   1.785   5.803   0.350
 9484TIP3    H228396   1.816   5.752   0.489
 9485TIP3   OH228397   7.780   7.005   3.659
 9485TIP3    H128398   7.864   7.033   3.623
 9485TIP3    H228399   7.717   7.067   3.623
 9486TIP3   OH228400   6.351   3.674   1.823
 9486TIP3    H128401   6.350   3.583   1.794
 9486TIP3    H228402   6.441   3.690   1.849
 9487TIP3   OH228403   2.610   1.165   2.254
 9487TIP3    H128404   2.676   1.233   2.268
 9487TIP3    H228405   2.658   1.083   2.261
 9488TIP3   OH228406   2.282   4.325   3.631
 9488TIP3    H128407   2.210   4.343   3.692
 9488TIP3    H228408   2.359   4.362   3.673
 9489TIP3   OH228409   5.075   7.456   4.627
 9489TIP3    H128410   5.137   7.389   4.654
 9489TIP3    H228411   4.998   7.408   4.597
 9490TIP3   OH228412   1.024   6.501   4.370
 9490TIP3    H128413   1.040   6.563   4.300
 9490TIP3    H228414   0.929   6.505   4.384
 9491TIP3   OH228415   3.286   5.425   4.040
 9491TIP3    H128416   3.231   5.474   3.979
 9491TIP3    H228417   3.223   5.381   4.098
 9492TIP3   OH228418   6.904   6.843   1.764
 9492TIP3    H128419   6.904   6.937   1.747
 9492TIP3    H228420   6.974   6.808   1.708
 9493TIP3   OH228421   1.949   1.431   0.508
 9493TIP3    H128422   1.986   1.420   0.596
 9493TIP3    H228423   1.981   1.355   0.459
 9494TIP3   OH228424   5.295   5.811   6.275
 9494TIP3    H128425   5.353   5.756   6.329
 9494TIP3    H228426   5.333   5.898   6.280
 9495TIP3   OH228427   8.078   7.176   3.703
 9495TIP3    H128428   8.170   7.201   3.695
 9495TIP3    H228429   8.031   7.243   3.654
 9496TIP3   OH228430   0.795   1.744   4.631
 9496TIP3    H128431   0.869   1.711   4.682
 9496TIP3    H228432   0.776   1.829   4.669
 9497TIP3   OH228433   3.800   5.817   2.356
 9497TIP3    H128434   3.722   5.872   2.353
 9497TIP3    H228435   3.874   5.878   2.353
 9498TIP3   OH228436   0.181   2.976   4.514
 9498TIP3    H128437   0.137   3.060   4.530
 9498TIP3    H228438   0.155   2.952   4.425
 9499TIP3   OH228439   0.581   4.502   3.019
 9499TIP3    H128440   0.572   4.437   3.088
 9499TIP3    H228441   0.657   4.554   3.045
 9500TIP3   OH228442   7.166   3.217   4.612
 9500TIP3    H128443   7.112   3.237   4.688
 9500TIP3    H228444   7.122   3.261   4.539
 9501TIP3   OH228445   3.364   6.734   3.952
 9501TIP3    H128446   3.294   6.799   3.954
 9501TIP3    H228447   3.327   6.660   3.905
 9502TIP3   OH228448   5.806   0.345   1.964
 9502TIP3    H128449   5.742   0.291   1.918
 9502TIP3    H228450   5.886   0.292   1.967
 9503TIP3   OH228451   1.076   2.209   0.110
 9503TIP3    H128452   0.999   2.152   0.109
 9503TIP3    H228453   1.047   2.288   0.064
 9504TIP3   OH228454   0.912   2.888   6.358
 9504TIP3    H128455   0.875   2.857   6.276
 9504TIP3    H228456   0.966   2.816   6.390
 9505TIP3   OH228457   2.658   3.145   1.845
 9505TIP3    H128458   2.605   3.127   1.923
 9505TIP3    H228459   2.746   3.120   1.870
 9506TIP3   OH228460   5.642   2.001   5.194
 9506TIP3    H128461   5.612   1.915   5.165
 9506TIP3    H228462   5.699   2.031   5.124
 9507TIP3   OH228463   2.769   3.970   0.500
 9507TIP3    H128464   2.739   3.999   0.587
 9507TIP3    H228465   2.689   3.951   0.452
 9508TIP3   OH228466   4.234   5.618   6.499
 9508TIP3    H128467   4.263   5.674   6.571
 9508TIP3    H228468   4.184   5.677   6.442
 9509TIP3   OH228469   7.005   0.618   3.926
 9509TIP3    H128470   6.914   0.616   3.958
 9509TIP3    H228471   7.057   0.601   4.005
 9510TIP3   OH228472   2.130   5.825   0.616
 9510TIP3    H128473   2.196   5.769   0.574
 9510TIP3    H228474   2.048   5.800   0.574
 9511TIP3   OH228475   2.682   0.069   2.140
 9511TIP3    H128476   2.697   0.073   2.045
 9511TIP3    H228477   2.730   0.145   2.174
 9512TIP3   OH228478   1.318   6.326   5.366
 9512TIP3    H128479   1.344   6.349   5.277
 9512TIP3    H228480   1.336   6.405   5.417
 9513TIP3   OH228481   6.910   2.011   0.279
 9513TIP3    H128482   6.904   1.921   0.311
 9513TIP3    H228483   6.829   2.052   0.308
 9514TIP3   OH228484   4.763   2.794   0.572
 9514TIP3    H128485   4.843   2.822   0.528
 9514TIP3    H228486   4.706   2.764   0.502
 9515TIP3   OH228487   1.297   0.777   0.691
 9515TIP3    H128488   1.252   0.775   0.776
 9515TIP3    H228489   1.323   0.686   0.676
 9516TIP3   OH228490   0.548   5.079   3.459
 9516TIP3    H128491   0.573   4.988   3.441
 9516TIP3    H228492   0.555   5.087   3.554
 9517TIP3   OH228493   0.877   4.149   0.150
 9517TIP3    H128494   0.853   4.114   0.064
 9517TIP3    H228495   0.910   4.073   0.198
 9518TIP3   OH228496   0.844   2.837   2.173
 9518TIP3    H128497   0.882   2.785   2.245
 9518TIP3    H228498   0.770   2.882   2.213
 9519TIP3   OH228499   3.366   7.200   5.901
 9519TIP3    H128500   3.310   7.123   5.890
 9519TIP3    H228501   3.306   7.274   5.905
 9520TIP3   OH228502   3.042   5.757   0.555
 9520TIP3    H128503   3.050   5.736   0.648
 9520TIP3    H228504   3.088   5.840   0.546
 9521TIP3   OH228505   8.023   2.788   3.175
 9521TIP3    H128506   8.106   2.779   3.128
 9521TIP3    H228507   8.009   2.882   3.182
 9522TIP3   OH228508   0.112   5.251   5.150
 9522TIP3    H128509   0.144   5.341   5.160
 9522TIP3    H228510   0.173   5.198   5.200
 9523TIP3   OH228511   3.616   3.111   0.337
 9523TIP3    H128512   3.524   3.128   0.361
 9523TIP3    H228513   3.617   3.018   0.314
 9524TIP3   OH228514   7.962   2.978   1.378
 9524TIP3    H128515   7.956   2.900   1.434
 9524TIP3    H228516   7.877   3.020   1.386
 9525TIP3   OH228517   6.985   4.287   4.563
 9525TIP3    H128518   7.075   4.284   4.530
 9525TIP3    H228519   6.950   4.369   4.528
 9526TIP3   OH228520   3.441   4.426   3.458
 9526TIP3    H128521   3.525   4.460   3.488
 9526TIP3    H228522   3.451   4.331   3.463
 9527TIP3   OH228523   2.842   4.206   6.233
 9527TIP3    H128524   2.786   4.191   6.309
 9527TIP3    H228525   2.784   4.246   6.168
 9528TIP3   OH228526   3.980   5.899   0.697
 9528TIP3    H128527   3.921   5.851   0.756
 9528TIP3    H228528   4.056   5.841   0.686
 9529TIP3   OH228529   2.029   2.582   5.760
 9529TIP3    H128530   1.975   2.562   5.684
 9529TIP3    H228531   2.104   2.523   5.752
 9530TIP3   OH228532   0.373   0.861   5.852
 9530TIP3    H128533   0.403   0.904   5.772
 9530TIP3    H228534   0.384   0.927   5.920
 9531TIP3   OH228535   1.508   6.146   6.486
 9531TIP3    H128536   1.505   6.189   6.401
 9531TIP3    H228537   1.476   6.212   6.548
 9532TIP3   OH228538   6.611   0.494   4.593
 9532TIP3    H128539   6.621   0.585   4.565
 9532TIP3    H228540   6.581   0.499   4.684
 9533TIP3   OH228541   5.755   4.656   1.858
 9533TIP3    H128542   5.693   4.598   1.814
 9533TIP3    H228543   5.701   4.711   1.914
 9534TIP3   OH228544   2.739   2.832   1.907
 9534TIP3    H128545   2.681   2.841   1.832
 9534TIP3    H228546   2.815   2.887   1.886
 9535TIP3   OH228547   5.028   2.555   5.569
 9535TIP3    H128548   5.083   2.492   5.523
 9535TIP3    H228549   5.086   2.629   5.585
 9536TIP3   OH228550   1.179   2.992   2.883
 9536TIP3    H128551   1.141   2.999   2.796
 9536TIP3    H228552   1.166   2.900   2.908
 9537TIP3   OH228553   1.085   1.041   0.714
 9537TIP3    H128554   1.112   0.988   0.639
 9537TIP3    H228555   1.070   1.128   0.677
 9538TIP3   OH228556   3.085   3.342   5.846
 9538TIP3    H128557   3.122   3.253   5.847
 9538TIP3    H228558   3.160   3.400   5.854
 9539TIP3   OH228559   5.276   3.153   1.247
 9539TIP3    H128560   5.329   3.083   1.210
 9539TIP3    H228561   5.312   3.234   1.210
 9540TIP3   OH228562   7.970   6.101   1.219
 9540TIP3    H128563   8.009   6.168   1.275
 9540TIP3    H228564   7.886   6.137   1.193
 9541TIP3   OH228565   6.398   2.644   4.941
 9541TIP3    H128566   6.314   2.631   4.897
 9541TIP3    H228567   6.441   2.559   4.938
 9542TIP3   OH228568   6.376   7.215   2.764
 9542TIP3    H128569   6.282   7.213   2.785
 9542TIP3    H228570   6.384   7.159   2.687
 9543TIP3   OH228571   1.342   0.621   5.192
 9543TIP3    H128572   1.429   0.636   5.230
 9543TIP3    H228573   1.330   0.526   5.197
 9544TIP3   OH228574   3.313   6.143   1.123
 9544TIP3    H128575   3.274   6.167   1.039
 9544TIP3    H228576   3.247   6.167   1.188
 9545TIP3   OH228577   4.904   0.417   0.887
 9545TIP3    H128578   4.833   0.472   0.853
 9545TIP3    H228579   4.869   0.328   0.885
 9546TIP3   OH228580   2.293   0.958   5.993
 9546TIP3    H128581   2.199   0.966   6.008
 9546TIP3    H228582   2.305   0.981   5.901
 9547TIP3   OH228583   1.099   7.863   2.509
 9547TIP3    H128584   1.145   7.875   2.592
 9547TIP3    H228585   1.103   7.769   2.492
 9548TIP3   OH228586   0.535   6.620   3.859
 9548TIP3    H128587   0.504   6.553   3.798
 9548TIP3    H228588   0.456   6.665   3.889
 9549TIP3   OH228589   0.385   0.802   4.119
 9549TIP3    H128590   0.338   0.867   4.067
 9549TIP3    H228591   0.470   0.793   4.075
 9550TIP3   OH228592   0.889   3.597   5.702
 9550TIP3    H128593   0.917   3.507   5.683
 9550TIP3    H228594   0.858   3.594   5.792
 9551TIP3   OH228595   6.421   7.188   5.176
 9551TIP3    H128596   6.458   7.265   5.135
 9551TIP3    H228597   6.331   7.213   5.198
 9552TIP3   OH228598   6.010   2.961   0.172
 9552TIP3    H128599   5.991   2.907   0.248
 9552TIP3    H228600   5.924   2.976   0.132
 9553TIP3   OH228601   5.776   1.793   4.496
 9553TIP3    H128602   5.745   1.718   4.547
 9553TIP3    H228603   5.868   1.773   4.477
 9554TIP3   OH228604   4.767   3.038   5.131
 9554TIP3    H128605   4.817   2.975   5.184
 9554TIP3    H228606   4.726   3.096   5.195
 9555TIP3   OH228607   0.383   1.378   2.563
 9555TIP3    H128608   0.397   1.466   2.598
 9555TIP3    H228609   0.453   1.325   2.603
 9556TIP3   OH228610   2.410   4.887   0.477
 9556TIP3    H128611   2.496   4.924   0.457
 9556TIP3    H228612   2.419   4.794   0.456
 9557TIP3   OH228613   3.764   5.390   3.072
 9557TIP3    H128614   3.774   5.302   3.108
 9557TIP3    H228615   3.793   5.382   2.981
 9558TIP3   OH228616   8.199   0.030   6.710
 9558TIP3    H128617   8.138   0.101   6.691
 9558TIP3    H228618   8.160  -0.047   6.670
 9559TIP3   OH228619   4.306   4.928   0.909
 9559TIP3    H128620   4.228   4.874   0.918
 9559TIP3    H228621   4.286   4.988   0.837
 9560TIP3   OH228622   7.754   7.688   2.331
 9560TIP3    H128623   7.735   7.615   2.271
 9560TIP3    H228624   7.850   7.692   2.333
 9561TIP3   OH228625   6.840   7.210   1.952
 9561TIP3    H128626   6.861   7.138   2.011
 9561TIP3    H228627   6.921   7.261   1.948
 9562TIP3   OH228628   2.145   3.854   0.557
 9562TIP3    H128629   2.196   3.920   0.509
 9562TIP3    H228630   2.167   3.771   0.515
 9563TIP3   OH228631   5.908   1.312   5.932
 9563TIP3    H128632   5.845   1.309   5.859
 9563TIP3    H228633   5.898   1.227   5.975
 9564TIP3   OH228634   7.902   7.356   4.624
 9564TIP3    H128635   7.877   7.329   4.535
 9564TIP3    H228636   7.930   7.447   4.614
 9565TIP3   OH228637   0.354   3.155   3.132
 9565TIP3    H128638   0.279   3.103   3.103
 9565TIP3    H228639   0.392   3.105   3.204
 9566TIP3   OH228640   6.684   5.062   2.531
 9566TIP3    H128641   6.612   5.032   2.476
 9566TIP3    H228642   6.706   5.149   2.497
 9567TIP3   OH228643   3.930   4.034   2.231
 9567TIP3    H128644   3.864   3.981   2.186
 9567TIP3    H228645   3.971   3.974   2.293
 9568TIP3   OH228646   3.655   0.092   4.632
 9568TIP3    H128647   3.575   0.115   4.680
 9568TIP3    H228648   3.657   0.152   4.558
 9569TIP3   OH228649   3.770   7.161   0.511
 9569TIP3    H128650   3.710   7.141   0.439
 9569TIP3    H228651   3.835   7.219   0.473
 9570TIP3   OH228652   1.768   0.617   5.082
 9570TIP3    H128653   1.767   0.705   5.044
 9570TIP3    H228654   1.793   0.560   5.010
 9571TIP3   OH228655   1.073   6.591   0.726
 9571TIP3    H128656   0.994   6.642   0.743
 9571TIP3    H228657   1.133   6.616   0.796
 9572TIP3   OH228658   3.378   2.807   3.556
 9572TIP3    H128659   3.381   2.900   3.577
 9572TIP3    H228660   3.420   2.764   3.631
 9573TIP3   OH228661   6.267   2.615   2.637
 9573TIP3    H128662   6.196   2.585   2.580
 9573TIP3    H228663   6.266   2.553   2.710
 9574TIP3   OH228664   2.967   3.412   6.716
 9574TIP3    H128665   2.931   3.446   6.634
 9574TIP3    H228666   2.983   3.319   6.697
 9575TIP3   OH228667   1.381   7.570   0.459
 9575TIP3    H128668   1.430   7.496   0.423
 9575TIP3    H228669   1.346   7.538   0.541
 9576TIP3   OH228670   6.216   0.138   2.258
 9576TIP3    H128671   6.187   0.053   2.288
 9576TIP3    H228672   6.143   0.173   2.206
 9577TIP3   OH228673   7.095   1.011   1.044
 9577TIP3    H128674   7.102   1.033   0.951
 9577TIP3    H228675   7.043   0.931   1.046
 9578TIP3   OH228676   7.474   1.415   1.539
 9578TIP3    H128677   7.434   1.351   1.596
 9578TIP3    H228678   7.402   1.471   1.510
 9579TIP3   OH228679   5.604   0.271   0.169
 9579TIP3    H128680   5.641   0.270   0.080
 9579TIP3    H228681   5.629   0.357   0.204
 9580TIP3   OH228682   4.973   4.350   3.619
 9580TIP3    H128683   4.975   4.421   3.684
 9580TIP3    H228684   5.064   4.327   3.606
 9581TIP3   OH228685   5.730   5.379   0.206
 9581TIP3    H128686   5.774   5.447   0.256
 9581TIP3    H228687   5.647   5.418   0.179
 9582TIP3   OH228688   2.643   5.648   2.473
 9582TIP3    H128689   2.580   5.575   2.470
 9582TIP3    H228690   2.641   5.677   2.564
 9583TIP3   OH228691   6.853   3.221   1.973
 9583TIP3    H128692   6.794   3.161   2.018
 9583TIP3    H228693   6.940   3.201   2.009
 9584TIP3   OH228694   4.204   3.166   6.111
 9584TIP3    H128695   4.254   3.158   6.029
 9584TIP3    H228696   4.150   3.087   6.114
 9585TIP3   OH228697   5.415   6.514   2.774
 9585TIP3    H128698   5.424   6.594   2.827
 9585TIP3    H228699   5.326   6.484   2.792
 9586TIP3   OH228700   2.156   1.139   0.656
 9586TIP3    H128701   2.232   1.145   0.714
 9586TIP3    H228702   2.167   1.055   0.611
 9587TIP3   OH228703   6.610   6.623   4.245
 9587TIP3    H128704   6.689   6.676   4.250
 9587TIP3    H228705   6.540   6.682   4.272
 9588TIP3   OH228706   1.508   6.671   5.301
 9588TIP3    H128707   1.594   6.632   5.314
 9588TIP3    H228708   1.508   6.697   5.208
 9589TIP3   OH228709   3.568   3.572   5.015
 9589TIP3    H128710   3.488   3.534   4.978
 9589TIP3    H228711   3.543   3.660   5.041
 9590TIP3   OH228712   0.198   2.360   6.256
 9590TIP3    H128713   0.212   2.311   6.175
 9590TIP3    H228714   0.212   2.451   6.233
 9591TIP3   OH228715   0.212   4.978   3.525
 9591TIP3    H128716   0.252   4.931   3.599
 9591TIP3    H228717   0.217   5.070   3.551
 9592TIP3   OH228718   4.828   5.433   5.880
 9592TIP3    H128719   4.794   5.509   5.833
 9592TIP3    H228720   4.786   5.358   5.838
 9593TIP3   OH228721   2.555   5.889   5.167
 9593TIP3    H128722   2.500   5.827   5.121
 9593TIP3    H228723   2.599   5.837   5.235
 9594TIP3   OH228724   4.201   1.429   5.992
 9594TIP3    H128725   4.269   1.443   6.058
 9594TIP3    H228726   4.143   1.363   6.030
 9595TIP3   OH228727   7.299   6.142   2.161
 9595TIP3    H128728   7.322   6.133   2.069
 9595TIP3    H228729   7.354   6.214   2.192
 9596TIP3   OH228730   5.056   6.831   1.395
 9596TIP3    H128731   5.119   6.842   1.323
 9596TIP3    H228732   5.100   6.772   1.456
 9597TIP3   OH228733   1.014   0.477   5.239
 9597TIP3    H128734   1.078   0.537   5.202
 9597TIP3    H228735   1.063   0.396   5.255
 9598TIP3   OH228736   1.549   7.447   5.073
 9598TIP3    H128737   1.462   7.408   5.063
 9598TIP3    H228738   1.539   7.536   5.040
 9599TIP3   OH228739   1.889   3.978   1.680
 9599TIP3    H128740   1.884   3.973   1.776
 9599TIP3    H228741   1.920   4.066   1.662
 9600TIP3   OH228742   6.931   0.531   4.760
 9600TIP3    H128743   6.950   0.611   4.809
 9600TIP3    H228744   6.950   0.554   4.669
 9601TIP3   OH228745   2.652   2.387   3.712
 9601TIP3    H128746   2.563   2.372   3.679
 9601TIP3    H228747   2.687   2.455   3.654
 9602TIP3   OH228748   0.876   2.222   1.495
 9602TIP3    H128749   0.896   2.172   1.574
 9602TIP3    H228750   0.789   2.192   1.468
 9603TIP3   OH228751   2.510   0.053   3.614
 9603TIP3    H128752   2.485   0.123   3.554
 9603TIP3    H228753   2.447  -0.018   3.596
 9604TIP3   OH228754   0.663   0.170   6.743
 9604TIP3    H128755   0.755   0.143   6.737
 9604TIP3    H228756   0.629   0.123   6.819
 9605TIP3   OH228757   4.646   4.109   5.919
 9605TIP3    H128758   4.600   4.106   5.836
 9605TIP3    H228759   4.683   4.198   5.923
 9606TIP3   OH228760   0.704   2.470   0.786
 9606TIP3    H128761   0.676   2.378   0.785
 9606TIP3    H228762   0.768   2.475   0.857
 9607TIP3   OH228763   2.437   4.062   3.113
 9607TIP3    H128764   2.345   4.066   3.089
 9607TIP3    H228765   2.437   4.053   3.208
 9608TIP3   OH228766   0.190   0.855   3.455
 9608TIP3    H128767   0.143   0.934   3.430
 9608TIP3    H228768   0.257   0.844   3.387
 9609TIP3   OH228769   4.183   2.795   3.376
 9609TIP3    H128770   4.209   2.808   3.285
 9609TIP3    H228771   4.109   2.854   3.390
 9610TIP3   OH228772   6.330   1.040   3.762
 9610TIP3    H128773   6.335   1.079   3.675
 9610TIP3    H228774   6.242   1.060   3.793
 9611TIP3   OH228775   0.562   0.359   0.246
 9611TIP3    H128776   0.471   0.357   0.217
 9611TIP3    H228777   0.608   0.303   0.184
 9612TIP3   OH228778   2.586   6.855   2.644
 9612TIP3    H128779   2.564   6.765   2.620
 9612TIP3    H228780   2.647   6.845   2.717
 9613TIP3   OH228781   0.375   0.442   1.156
 9613TIP3    H128782   0.336   0.463   1.241
 9613TIP3    H228783   0.466   0.471   1.163
 9614TIP3   OH228784   5.337   4.199   5.084
 9614TIP3    H128785   5.277   4.169   5.151
 9614TIP3    H228786   5.421   4.211   5.129
 9615TIP3   OH228787   6.812   6.753   2.856
 9615TIP3    H128788   6.750   6.778   2.788
 9615TIP3    H228789   6.780   6.798   2.935
 9616TIP3   OH228790   5.874   3.577   0.417
 9616TIP3    H128791   5.815   3.512   0.456
 9616TIP3    H228792   5.962   3.545   0.437
 9617TIP3   OH228793   3.539   7.662   3.526
 9617TIP3    H128794   3.536   7.755   3.546
 9617TIP3    H228795   3.579   7.622   3.604
 9618TIP3   OH228796   7.777   4.362   2.207
 9618TIP3    H128797   7.700   4.305   2.213
 9618TIP3    H228798   7.824   4.345   2.289
 9619TIP3   OH228799   1.390   2.814   6.488
 9619TIP3    H128800   1.427   2.902   6.495
 9619TIP3    H228801   1.380   2.785   6.579
 9620TIP3   OH228802   6.125   3.304   3.689
 9620TIP3    H128803   6.115   3.213   3.716
 9620TIP3    H228804   6.036   3.338   3.685
 9621TIP3   OH228805   4.184   2.892   1.974
 9621TIP3    H128806   4.244   2.927   1.907
 9621TIP3    H228807   4.118   2.960   1.985
 9622TIP3   OH228808   5.462   5.097   1.987
 9622TIP3    H128809   5.429   5.052   1.909
 9622TIP3    H228810   5.403   5.172   1.998
 9623TIP3   OH228811   1.696   4.364   3.738
 9623TIP3    H128812   1.761   4.298   3.762
 9623TIP3    H228813   1.723   4.394   3.651
 9624TIP3   OH228814   3.225   3.838   4.256
 9624TIP3    H128815   3.260   3.803   4.173
 9624TIP3    H228816   3.138   3.870   4.233
 9625TIP3   OH228817   2.868   4.841   5.360
 9625TIP3    H128818   2.805   4.775   5.389
 9625TIP3    H228819   2.816   4.901   5.306
 9626TIP3   OH228820   6.983   3.634   2.250
 9626TIP3    H128821   6.949   3.697   2.186
 9626TIP3    H228822   6.925   3.557   2.240
 9627TIP3   OH228823   6.845   1.963   2.679
 9627TIP3    H128824   6.810   2.048   2.653
 9627TIP3    H228825   6.909   1.983   2.747
 9628TIP3   OH228826   2.268   5.398   5.145
 9628TIP3    H128827   2.213   5.410   5.222
 9628TIP3    H228828   2.227   5.452   5.078
 9629TIP3   OH228829   1.637   0.073   0.435
 9629TIP3    H128830   1.635  -0.017   0.402
 9629TIP3    H228831   1.636   0.127   0.355
 9630TIP3   OH228832   1.506   7.447   2.974
 9630TIP3    H128833   1.553   7.518   2.931
 9630TIP3    H228834   1.523   7.370   2.919
 9631TIP3   OH228835   0.543   6.364   0.931
 9631TIP3    H128836   0.607   6.379   0.862
 9631TIP3    H228837   0.522   6.451   0.964
 9632TIP3   OH228838   4.129   7.324   2.951
 9632TIP3    H128839   4.169   7.249   2.995
 9632TIP3    H228840   4.144   7.308   2.857
 9633TIP3   OH228841   1.243   4.847   1.928
 9633TIP3    H128842   1.274   4.819   2.015
 9633TIP3    H228843   1.323   4.856   1.876
 9634TIP3   OH228844   3.543   4.218   5.465
 9634TIP3    H128845   3.619   4.172   5.498
 9634TIP3    H228846   3.504   4.259   5.542
 9635TIP3   OH228847   7.930   7.706   4.338
 9635TIP3    H128848   7.878   7.683   4.260
 9635TIP3    H228849   7.925   7.801   4.343
 9636TIP3   OH228850   1.415   3.961   3.872
 9636TIP3    H128851   1.359   3.924   3.804
 9636TIP3    H228852   1.485   4.005   3.825
 9637TIP3   OH228853   4.356   1.831   1.755
 9637TIP3    H128854   4.401   1.749   1.735
 9637TIP3    H228855   4.266   1.817   1.725
 9638TIP3   OH228856   4.287   0.897   0.760
 9638TIP3    H128857   4.318   0.877   0.672
 9638TIP3    H228858   4.193   0.913   0.749
 9639TIP3   OH228859   4.218   4.675   6.008
 9639TIP3    H128860   4.137   4.703   6.052
 9639TIP3    H228861   4.215   4.717   5.923
 9640TIP3   OH228862   6.908   5.321   0.810
 9640TIP3    H128863   6.998   5.324   0.777
 9640TIP3    H228864   6.880   5.231   0.793
 9641TIP3   OH228865   2.483   7.301   6.498
 9641TIP3    H128866   2.562   7.276   6.545
 9641TIP3    H228867   2.502   7.389   6.464
 9642TIP3   OH228868   3.548   2.551   5.891
 9642TIP3    H128869   3.606   2.553   5.814
 9642TIP3    H228870   3.543   2.458   5.914
 9643TIP3   OH228871   6.066   3.687   3.363
 9643TIP3    H128872   6.075   3.595   3.336
 9643TIP3    H228873   6.111   3.736   3.295
 9644TIP3   OH228874   0.962   6.616   2.034
 9644TIP3    H128875   0.967   6.607   1.939
 9644TIP3    H228876   0.963   6.526   2.067
 9645TIP3   OH228877   1.748   2.783   0.765
 9645TIP3    H128878   1.828   2.831   0.788
 9645TIP3    H228879   1.775   2.725   0.694
 9646TIP3   OH228880   4.876   0.008   6.105
 9646TIP3    H128881   4.794   0.005   6.056
 9646TIP3    H228882   4.882   0.098   6.136
 9647TIP3   OH228883   0.252   4.890   0.258
 9647TIP3    H128884   0.156   4.887   0.259
 9647TIP3    H228885   0.278   4.810   0.304
 9648TIP3   OH228886   4.190   0.598   4.616
 9648TIP3    H128887   4.243   0.595   4.696
 9648TIP3    H228888   4.106   0.635   4.644
 9649TIP3   OH228889   8.212   1.979   3.819
 9649TIP3    H128890   8.289   2.002   3.871
 9649TIP3    H228891   8.147   2.045   3.843
 9650TIP3   OH228892   1.414   2.068   2.080
 9650TIP3    H128893   1.363   2.109   2.150
 9650TIP3    H228894   1.424   1.976   2.108
 9651TIP3   OH228895   2.312   3.258   0.083
 9651TIP3    H128896   2.218   3.274   0.076
 9651TIP3    H228897   2.322   3.212   0.167
 9652TIP3   OH228898   1.182   1.914   4.056
 9652TIP3    H128899   1.277   1.910   4.041
 9652TIP3    H228900   1.172   1.971   4.132
 9653TIP3   OH228901   2.053   1.538   0.076
 9653TIP3    H128902   1.977   1.547   0.019
 9653TIP3    H228903   2.026   1.473   0.141
 9654TIP3   OH228904   7.710   2.872   4.137
 9654TIP3    H128905   7.655   2.855   4.214
 9654TIP3    H228906   7.688   2.801   4.076
 9655TIP3   OH228907   1.735   6.685   3.291
 9655TIP3    H128908   1.710   6.653   3.204
 9655TIP3    H228909   1.808   6.628   3.317
 9656TIP3   OH228910   2.885   2.926   4.324
 9656TIP3    H128911   2.806   2.913   4.271
 9656TIP3    H228912   2.909   3.017   4.311
 9657TIP3   OH228913   4.131   2.641   0.564
 9657TIP3    H128914   4.177   2.698   0.503
 9657TIP3    H228915   4.160   2.671   0.651
 9658TIP3   OH228916   7.939   1.904   3.834
 9658TIP3    H128917   7.934   1.994   3.865
 9658TIP3    H228918   8.032   1.889   3.818
 9659TIP3   OH228919   7.750   2.621   0.195
 9659TIP3    H128920   7.800   2.671   0.130
 9659TIP3    H228921   7.761   2.670   0.276
 9660TIP3   OH228922   1.420   1.712   1.383
 9660TIP3    H128923   1.329   1.699   1.359
 9660TIP3    H228924   1.426   1.682   1.474
 9661TIP3   OH228925   4.763   6.224   5.998
 9661TIP3    H128926   4.720   6.213   5.913
 9661TIP3    H228927   4.779   6.318   6.005
 9662TIP3   OH228928   1.974   1.156   3.678
 9662TIP3    H128929   1.977   1.247   3.650
 9662TIP3    H228930   1.957   1.107   3.597
 9663TIP3   OH228931   6.116   2.807   5.466
 9663TIP3    H128932   6.107   2.729   5.521
 9663TIP3    H228933   6.072   2.877   5.515
 9664TIP3   OH228934   1.696   2.077   0.989
 9664TIP3    H128935   1.615   2.064   0.939
 9664TIP3    H228936   1.741   1.993   0.981
 9665TIP3   OH228937   7.456   7.432   4.107
 9665TIP3    H128938   7.395   7.366   4.073
 9665TIP3    H228939   7.414   7.516   4.089
 9666TIP3   OH228940   6.894   2.399   4.548
 9666TIP3    H128941   6.825   2.334   4.534
 9666TIP3    H228942   6.890   2.418   4.641
 9667TIP3   OH228943   4.678   2.213   1.828
 9667TIP3    H128944   4.607   2.263   1.786
 9667TIP3    H228945   4.655   2.121   1.811
 9668TIP3   OH228946   0.385   0.130   5.971
 9668TIP3    H128947   0.357   0.171   5.889
 9668TIP3    H228948   0.408   0.204   6.027
 9669TIP3   OH228949   2.408   4.295   0.065
 9669TIP3    H128950   2.398   4.384   0.031
 9669TIP3    H228951   2.336   4.286   0.127
 9670TIP3   OH228952   7.547   4.033   3.268
 9670TIP3    H128953   7.454   4.047   3.284
 9670TIP3    H228954   7.550   3.982   3.187
 9671TIP3   OH228955   3.483   4.154   1.719
 9671TIP3    H128956   3.548   4.115   1.777
 9671TIP3    H228957   3.407   4.169   1.776
 9672TIP3   OH228958   1.452   2.171   2.608
 9672TIP3    H128959   1.441   2.086   2.649
 9672TIP3    H228960   1.547   2.184   2.604
 9673TIP3   OH228961   6.270   1.768   2.299
 9673TIP3    H128962   6.347   1.824   2.286
 9673TIP3    H228963   6.228   1.766   2.213
 9674TIP3   OH228964   2.675   7.075   0.567
 9674TIP3    H128965   2.725   7.102   0.644
 9674TIP3    H228966   2.681   6.979   0.566
 9675TIP3   OH228967   3.557   0.716   4.640
 9675TIP3    H128968   3.591   0.795   4.681
 9675TIP3    H228969   3.477   0.745   4.595
 9676TIP3   OH228970   1.172   1.646   4.070
 9676TIP3    H128971   1.263   1.642   4.041
 9676TIP3    H228972   1.148   1.738   4.061
 9677TIP3   OH228973   7.245   7.247   1.442
 9677TIP3    H128974   7.301   7.312   1.400
 9677TIP3    H228975   7.296   7.166   1.439
 9678TIP3   OH228976   4.717   3.413   5.537
 9678TIP3    H128977   4.681   3.492   5.497
 9678TIP3    H228978   4.787   3.446   5.594
 9679TIP3   OH228979   1.359   1.674   4.380
 9679TIP3    H128980   1.268   1.648   4.386
 9679TIP3    H228981   1.360   1.767   4.406
 9680TIP3   OH228982   8.220   6.327   3.514
 9680TIP3    H128983   8.277   6.396   3.481
 9680TIP3    H228984   8.207   6.269   3.439
 9681TIP3   OH228985   7.618   7.728   4.721
 9681TIP3    H128986   7.659   7.782   4.653
 9681TIP3    H228987   7.556   7.673   4.673
 9682TIP3   OH228988   6.390   2.270   2.887
 9682TIP3    H128989   6.445   2.316   2.824
 9682TIP3    H228990   6.366   2.188   2.842
 9683TIP3   OH228991   0.012   4.980   0.580
 9683TIP3    H128992  -0.054   4.958   0.646
 9683TIP3    H228993   0.094   4.944   0.615
 9684TIP3   OH228994   7.639   2.874   5.166
 9684TIP3    H128995   7.730   2.847   5.151
 9684TIP3    H228996   7.643   2.969   5.176
 9685TIP3   OH228997   3.632   0.139   5.614
 9685TIP3    H128998   3.616   0.081   5.689
 9685TIP3    H228999   3.566   0.113   5.549
 9686TIP3   OH229000   5.245   1.614   2.957
 9686TIP3    H129001   5.264   1.623   3.051
 9686TIP3    H229002   5.237   1.705   2.926
 9687TIP3   OH229003   1.159   6.110   4.385
 9687TIP3    H129004   1.175   6.044   4.317
 9687TIP3    H229005   1.204   6.188   4.354
 9688TIP3   OH229006   6.597   7.803   1.467
 9688TIP3    H129007   6.509   7.839   1.472
 9688TIP3    H229008   6.592   7.722   1.517
 9689TIP3   OH229009   0.857   5.796   3.815
 9689TIP3    H129010   0.836   5.703   3.814
 9689TIP3    H229011   0.851   5.823   3.723
 9690TIP3   OH229012   0.753   4.921   6.317
 9690TIP3    H129013   0.771   4.827   6.314
 9690TIP3    H229014   0.767   4.952   6.227
 9691TIP3   OH229015   4.300   1.788   3.691
 9691TIP3    H129016   4.381   1.748   3.659
 9691TIP3    H229017   4.247   1.799   3.613
 9692TIP3   OH229018   5.303   5.877   5.866
 9692TIP3    H129019   5.224   5.827   5.845
 9692TIP3    H229020   5.273   5.967   5.875
 9693TIP3   OH229021   4.050   4.738   5.713
 9693TIP3    H129022   4.073   4.649   5.738
 9693TIP3    H229023   3.959   4.732   5.684
 9694TIP3   OH229024   6.246   4.195   4.086
 9694TIP3    H129025   6.223   4.187   3.993
 9694TIP3    H229026   6.258   4.290   4.099
 9695TIP3   OH229027   6.994   0.411   3.337
 9695TIP3    H129028   6.911   0.420   3.385
 9695TIP3    H229029   6.976   0.449   3.251
 9696TIP3   OH229030   1.864   6.432   6.053
 9696TIP3    H129031   1.827   6.421   6.140
 9696TIP3    H229032   1.816   6.506   6.015
 9697TIP3   OH229033   0.945   2.293   2.962
 9697TIP3    H129034   0.912   2.238   3.033
 9697TIP3    H229035   1.034   2.315   2.988
 9698TIP3   OH229036   4.103   4.232   5.560
 9698TIP3    H129037   4.169   4.241   5.491
 9698TIP3    H229038   4.064   4.146   5.544
 9699TIP3   OH229039   4.615   6.450   3.938
 9699TIP3    H129040   4.666   6.369   3.939
 9699TIP3    H229041   4.669   6.511   3.887
 9700TIP3   OH229042   0.433   1.673   0.019
 9700TIP3    H129043   0.466   1.762   0.034
 9700TIP3    H229044   0.460   1.652  -0.070
 9701TIP3   OH229045   5.068   0.011   1.388
 9701TIP3    H129046   5.153   0.028   1.347
 9701TIP3    H229047   5.086  -0.055   1.455
 9702TIP3   OH229048   4.189   6.714   6.037
 9702TIP3    H129049   4.206   6.626   6.071
 9702TIP3    H229050   4.094   6.720   6.032
 9703TIP3   OH229051   1.783   5.251   0.760
 9703TIP3    H129052   1.824   5.202   0.831
 9703TIP3    H229053   1.813   5.206   0.680
 9704TIP3   OH229054   3.098   2.650   3.874
 9704TIP3    H129055   3.131   2.678   3.959
 9704TIP3    H229056   3.138   2.565   3.859
 9705TIP3   OH229057   4.864   4.922   3.040
 9705TIP3    H129058   4.953   4.946   3.066
 9705TIP3    H229059   4.859   4.947   2.948
 9706TIP3   OH229060   3.184   6.583   5.122
 9706TIP3    H129061   3.152   6.668   5.152
 9706TIP3    H229062   3.130   6.519   5.167
 9707TIP3   OH229063   6.671   2.142   0.047
 9707TIP3    H129064   6.753   2.190   0.048
 9707TIP3    H229065   6.667   2.102  -0.040
 9708TIP3   OH229066   2.895   6.153   1.503
 9708TIP3    H129067   2.990   6.152   1.514
 9708TIP3    H229068   2.876   6.073   1.454
 9709TIP3   OH229069   7.392   1.216   4.243
 9709TIP3    H129070   7.355   1.170   4.318
 9709TIP3    H229071   7.359   1.167   4.167
 9710TIP3   OH229072   3.932   1.578   3.234
 9710TIP3    H129073   3.848   1.574   3.188
 9710TIP3    H229074   3.950   1.672   3.242
 9711TIP3   OH229075   2.848   6.398   3.491
 9711TIP3    H129076   2.880   6.323   3.442
 9711TIP3    H229077   2.868   6.474   3.437
 9712TIP3   OH229078   0.485   0.587   0.732
 9712TIP3    H129079   0.483   0.495   0.708
 9712TIP3    H229080   0.570   0.618   0.699
 9713TIP3   OH229081   4.382   1.002   0.274
 9713TIP3    H129082   4.368   0.936   0.206
 9713TIP3    H229083   4.462   1.048   0.247
 9714TIP3   OH229084   0.342   4.850   3.300
 9714TIP3    H129085   0.278   4.898   3.353
 9714TIP3    H229086   0.407   4.820   3.362
 9715TIP3   OH229087   5.655   4.489   0.453
 9715TIP3    H129088   5.648   4.572   0.406
 9715TIP3    H229089   5.665   4.423   0.385
 9716TIP3   OH229090   3.790   6.917   0.657
 9716TIP3    H129091   3.875   6.876   0.643
 9716TIP3    H229092   3.790   6.993   0.599
 9717TIP3   OH229093   7.543   3.264   0.654
 9717TIP3    H129094   7.633   3.232   0.651
 9717TIP3    H229095   7.550   3.356   0.678
 9718TIP3   OH229096   6.590   6.872   3.038
 9718TIP3    H129097   6.524   6.824   2.987
 9718TIP3    H229098   6.568   6.964   3.025
 9719TIP3   OH229099   7.690   5.116   2.038
 9719TIP3    H129100   7.723   5.193   1.992
 9719TIP3    H229101   7.595   5.122   2.029
 9720TIP3   OH229102   6.385   3.134   5.573
 9720TIP3    H129103   6.385   3.102   5.663
 9720TIP3    H229104   6.366   3.057   5.519
 9721TIP3   OH229105   2.731   5.328   0.108
 9721TIP3    H129106   2.696   5.245   0.141
 9721TIP3    H229107   2.786   5.302   0.034
 9722TIP3   OH229108   7.908   2.480   4.830
 9722TIP3    H129109   7.851   2.470   4.907
 9722TIP3    H229110   7.862   2.434   4.760
 9723TIP3   OH229111   6.727   1.810   5.443
 9723TIP3    H129112   6.632   1.799   5.442
 9723TIP3    H229113   6.751   1.824   5.352
 9724TIP3   OH229114   3.183   4.711   1.808
 9724TIP3    H129115   3.161   4.749   1.723
 9724TIP3    H229116   3.152   4.776   1.871
 9725TIP3   OH229117   3.978   0.630   0.574
 9725TIP3    H129118   4.066   0.665   0.560
 9725TIP3    H229119   3.969   0.628   0.670
 9726TIP3   OH229120   3.027   5.823   1.050
 9726TIP3    H129121   2.984   5.908   1.053
 9726TIP3    H229122   3.043   5.801   1.142
 9727TIP3   OH229123   1.064   1.543   3.080
 9727TIP3    H129124   1.157   1.552   3.101
 9727TIP3    H229125   1.027   1.629   3.101
 9728TIP3   OH229126   6.245   7.021   3.902
 9728TIP3    H129127   6.222   6.928   3.898
 9728TIP3    H229128   6.335   7.021   3.937
 9729TIP3   OH229129   4.403   4.675   4.201
 9729TIP3    H129130   4.335   4.724   4.154
 9729TIP3    H229131   4.400   4.710   4.290
 9730TIP3   OH229132   0.063   3.264   0.320
 9730TIP3    H129133   0.094   3.191   0.375
 9730TIP3    H229134   0.119   3.337   0.346
 9731TIP3   OH229135   8.229   2.879   4.956
 9731TIP3    H129136   8.160   2.940   4.983
 9731TIP3    H229137   8.204   2.854   4.867
 9732TIP3   OH229138   5.766   4.801   0.816
 9732TIP3    H129139   5.701   4.811   0.885
 9732TIP3    H229140   5.714   4.788   0.736
 9733TIP3   OH229141   3.241   4.198   0.503
 9733TIP3    H129142   3.241   4.105   0.523
 9733TIP3    H229143   3.151   4.227   0.520
 9734TIP3   OH229144   8.176   1.748   1.623
 9734TIP3    H129145   8.168   1.661   1.583
 9734TIP3    H229146   8.234   1.734   1.698
 9735TIP3   OH229147   6.255   1.969   0.968
 9735TIP3    H129148   6.273   2.002   0.880
 9735TIP3    H229149   6.331   1.996   1.020
 9736TIP3   OH229150   0.618   3.530   5.261
 9736TIP3    H129151   0.603   3.621   5.288
 9736TIP3    H229152   0.544   3.509   5.205
 9737TIP3   OH229153   3.007   7.341   6.205
 9737TIP3    H129154   2.985   7.267   6.260
 9737TIP3    H229155   2.984   7.418   6.257
 9738TIP3   OH229156   5.042   7.721   5.277
 9738TIP3    H129157   5.052   7.628   5.255
 9738TIP3    H229158   5.098   7.767   5.215
 9739TIP3   OH229159   3.449   0.818   6.747
 9739TIP3    H129160   3.418   0.742   6.697
 9739TIP3    H229161   3.423   0.893   6.694
 9740TIP3   OH229162   6.920   2.786   4.773
 9740TIP3    H129163   6.900   2.718   4.838
 9740TIP3    H229164   7.005   2.760   4.737
 9741TIP3   OH229165   0.520   7.123   2.661
 9741TIP3    H129166   0.561   7.041   2.691
 9741TIP3    H229167   0.469   7.153   2.736
 9742TIP3   OH229168   1.212   7.063   3.664
 9742TIP3    H129169   1.246   6.982   3.701
 9742TIP3    H229170   1.250   7.068   3.576
 9743TIP3   OH229171   0.433   0.104   5.440
 9743TIP3    H129172   0.527   0.097   5.423
 9743TIP3    H229173   0.391   0.075   5.359
 9744TIP3   OH229174   3.108   0.769   3.811
 9744TIP3    H129175   3.063   0.765   3.726
 9744TIP3    H229176   3.183   0.826   3.796
 9745TIP3   OH229177   0.048   0.238   3.717
 9745TIP3    H129178   0.072   0.146   3.723
 9745TIP3    H229179  -0.042   0.242   3.747
 9746TIP3   OH229180   4.872   7.263   6.030
 9746TIP3    H129181   4.892   7.318   5.955
 9746TIP3    H229182   4.819   7.192   5.995
 9747TIP3   OH229183   0.194   0.168   0.227
 9747TIP3    H129184   0.182   0.199   0.316
 9747TIP3    H229185   0.114   0.119   0.206
 9748TIP3   OH229186   3.370   3.639   4.747
 9748TIP3    H129187   3.331   3.651   4.661
 9748TIP3    H229188   3.367   3.726   4.787
 9749TIP3   OH229189   5.796   0.154   4.293
 9749TIP3    H129190   5.735   0.180   4.224
 9749TIP3    H229191   5.878   0.138   4.247
 9750TIP3   OH229192   7.895   3.319   3.541
 9750TIP3    H129193   7.921   3.258   3.472
 9750TIP3    H229194   7.977   3.341   3.587
 9751TIP3   OH229195   0.804   6.936   3.507
 9751TIP3    H129196   0.891   6.952   3.471
 9751TIP3    H229197   0.812   6.959   3.600
 9752TIP3   OH229198   8.016   5.074   5.076
 9752TIP3    H129199   8.071   5.103   5.149
 9752TIP3    H229200   7.934   5.124   5.087
 9753TIP3   OH229201   4.677   7.345   6.194
 9753TIP3    H129202   4.748   7.344   6.129
 9753TIP3    H229203   4.656   7.252   6.207
 9754TIP3   OH229204   7.871   4.961   6.677
 9754TIP3    H129205   7.852   5.054   6.688
 9754TIP3    H229206   7.801   4.929   6.621
 9755TIP3   OH229207   5.450   7.306   1.600
 9755TIP3    H129208   5.528   7.296   1.654
 9755TIP3    H229209   5.470   7.381   1.543
 9756TIP3   OH229210   2.247   2.891   2.292
 9756TIP3    H129211   2.288   2.842   2.363
 9756TIP3    H229212   2.230   2.977   2.329
 9757TIP3   OH229213   5.182   4.794   5.873
 9757TIP3    H129214   5.211   4.817   5.785
 9757TIP3    H229215   5.101   4.744   5.860
 9758TIP3   OH229216   5.605   1.866   4.280
 9758TIP3    H129217   5.540   1.909   4.336
 9758TIP3    H229218   5.665   1.823   4.341
 9759TIP3   OH229219   3.205   5.065   4.882
 9759TIP3    H129220   3.247   4.984   4.852
 9759TIP3    H229221   3.269   5.106   4.940
 9760TIP3   OH229222   5.822   0.905   2.994
 9760TIP3    H129223   5.915   0.882   2.997
 9760TIP3    H229224   5.802   0.913   2.901
 9761TIP3   OH229225   5.714   5.564   5.854
 9761TIP3    H129226   5.669   5.647   5.873
 9761TIP3    H229227   5.792   5.589   5.805
 9762TIP3   OH229228   5.401   6.754   2.922
 9762TIP3    H129229   5.375   6.812   2.850
 9762TIP3    H229230   5.468   6.803   2.969
 9763TIP3   OH229231   3.227   6.004   0.466
 9763TIP3    H129232   3.260   5.975   0.382
 9763TIP3    H229233   3.186   6.088   0.448
 9764TIP3   OH229234   4.562   2.695   4.567
 9764TIP3    H129235   4.639   2.638   4.573
 9764TIP3    H229236   4.596   2.783   4.585
 9765TIP3   OH229237   7.503   7.275   5.175
 9765TIP3    H129238   7.496   7.284   5.270
 9765TIP3    H229239   7.571   7.209   5.162
 9766TIP3   OH229240   6.339   2.926   3.154
 9766TIP3    H129241   6.267   2.882   3.108
 9766TIP3    H229242   6.372   2.990   3.091
 9767TIP3   OH229243   5.868   4.566   3.188
 9767TIP3    H129244   5.893   4.480   3.222
 9767TIP3    H229245   5.951   4.606   3.161
 9768TIP3   OH229246   1.330   3.294   2.546
 9768TIP3    H129247   1.340   3.214   2.495
 9768TIP3    H229248   1.412   3.301   2.595
 9769TIP3   OH229249   4.668   1.127   1.038
 9769TIP3    H129250   4.754   1.086   1.049
 9769TIP3    H229251   4.608   1.054   1.026
 9770TIP3   OH229252   6.828   4.264   5.346
 9770TIP3    H129253   6.886   4.308   5.285
 9770TIP3    H229254   6.745   4.253   5.298
 9771TIP3   OH229255   1.339   4.831   4.963
 9771TIP3    H129256   1.375   4.810   4.877
 9771TIP3    H229257   1.339   4.747   5.010
 9772TIP3   OH229258   0.942   4.607   5.739
 9772TIP3    H129259   0.978   4.645   5.659
 9772TIP3    H229260   0.915   4.519   5.715
 9773TIP3   OH229261   7.409   7.448   6.701
 9773TIP3    H129262   7.477   7.516   6.706
 9773TIP3    H229263   7.444   7.384   6.640
 9774TIP3   OH229264   8.280   7.635   5.888
 9774TIP3    H129265   8.282   7.591   5.973
 9774TIP3    H229266   8.232   7.574   5.831
 9775TIP3   OH229267   6.289   2.297   6.161
 9775TIP3    H129268   6.255   2.247   6.087
 9775TIP3    H229269   6.242   2.381   6.157
 9776TIP3   OH229270   6.465   7.699   2.593
 9776TIP3    H129271   6.533   7.636   2.616
 9776TIP3    H229272   6.447   7.746   2.674
 9777TIP3   OH229273   3.654   7.453   3.243
 9777TIP3    H129274   3.717   7.485   3.179
 9777TIP3    H229275   3.703   7.390   3.296
 9778TIP3   OH229276   6.715   7.371   6.615
 9778TIP3    H129277   6.676   7.446   6.571
 9778TIP3    H229278   6.640   7.315   6.638
 9779TIP3   OH229279   5.462   0.940   1.535
 9779TIP3    H129280   5.490   0.880   1.466
 9779TIP3    H229281   5.467   0.889   1.616
 9780TIP3   OH229282   2.422   5.066   1.962
 9780TIP3    H129283   2.423   5.151   1.919
 9780TIP3    H229284   2.461   5.082   2.048
 9781TIP3   OH229285   1.259   5.087   5.058
 9781TIP3    H129286   1.295   5.019   5.002
 9781TIP3    H229287   1.254   5.165   5.002
 9782TIP3   OH229288   1.282   6.514   6.377
 9782TIP3    H129289   1.311   6.505   6.286
 9782TIP3    H229290   1.216   6.584   6.374
 9783TIP3   OH229291   5.820   1.906   1.654
 9783TIP3    H129292   5.793   1.814   1.660
 9783TIP3    H229293   5.870   1.910   1.572
 9784TIP3   OH229294   0.503   5.037   0.736
 9784TIP3    H129295   0.547   5.040   0.652
 9784TIP3    H229296   0.538   4.959   0.779
 9785TIP3   OH229297   5.260   2.848   3.562
 9785TIP3    H129298   5.234   2.864   3.472
 9785TIP3    H229299   5.214   2.767   3.586
 9786TIP3   OH229300   7.350   3.656   0.884
 9786TIP3    H129301   7.404   3.685   0.811
 9786TIP3    H229302   7.313   3.737   0.920
 9787TIP3   OH229303   1.789   2.970   1.649
 9787TIP3    H129304   1.757   2.882   1.629
 9787TIP3    H229305   1.844   2.993   1.574
 9788TIP3   OH229306   2.154   2.567   1.629
 9788TIP3    H129307   2.203   2.539   1.707
 9788TIP3    H229308   2.157   2.662   1.633
 9789TIP3   OH229309   1.031   2.698   3.676
 9789TIP3    H129310   0.944   2.716   3.712
 9789TIP3    H229311   1.020   2.616   3.628
 9790TIP3   OH229312   1.511   0.557   6.608
 9790TIP3    H129313   1.458   0.494   6.559
 9790TIP3    H229314   1.455   0.634   6.617
 9791TIP3   OH229315   2.293   4.982   0.208
 9791TIP3    H129316   2.298   5.031   0.291
 9791TIP3    H229317   2.320   5.046   0.142
 9792TIP3   OH229318   2.201   2.610   4.819
 9792TIP3    H129319   2.260   2.656   4.759
 9792TIP3    H229320   2.217   2.517   4.802
 9793TIP3   OH229321   5.697   6.960   6.576
 9793TIP3    H129322   5.765   6.959   6.509
 9793TIP3    H229323   5.623   7.005   6.535
 9794TIP3   OH229324   4.888   5.126   4.536
 9794TIP3    H129325   4.793   5.128   4.548
 9794TIP3    H229326   4.916   5.047   4.582
 9795TIP3   OH229327   1.390   4.566   3.118
 9795TIP3    H129328   1.417   4.593   3.030
 9795TIP3    H229329   1.351   4.645   3.156
 9796TIP3   OH229330   6.369   0.450   1.143
 9796TIP3    H129331   6.292   0.393   1.147
 9796TIP3    H229332   6.376   0.487   1.231
 9797TIP3   OH229333   1.202   6.069   3.105
 9797TIP3    H129334   1.179   6.001   3.168
 9797TIP3    H229335   1.273   6.031   3.053
 9798TIP3   OH229336   7.401   5.155   1.907
 9798TIP3    H129337   7.327   5.167   1.966
 9798TIP3    H229338   7.363   5.153   1.820
 9799TIP3   OH229339   7.411   0.218   2.196
 9799TIP3    H129340   7.432   0.183   2.283
 9799TIP3    H229341   7.410   0.141   2.139
 9800TIP3   OH229342   0.545   3.500   3.701
 9800TIP3    H129343   0.603   3.472   3.773
 9800TIP3    H229344   0.459   3.468   3.726
 9801TIP3   OH229345   8.264   6.109   2.683
 9801TIP3    H129346   8.307   6.094   2.768
 9801TIP3    H229347   8.319   6.062   2.620
 9802TIP3   OH229348   7.781   0.508   0.993
 9802TIP3    H129349   7.726   0.485   1.068
 9802TIP3    H229350   7.834   0.430   0.979
 9803TIP3   OH229351   8.079   0.873   5.711
 9803TIP3    H129352   8.140   0.906   5.777
 9803TIP3    H229353   8.104   0.782   5.698
 9804TIP3   OH229354   0.638   5.131   5.365
 9804TIP3    H129355   0.695   5.133   5.288
 9804TIP3    H229356   0.582   5.208   5.355
 9805TIP3   OH229357   8.261   1.423   5.186
 9805TIP3    H129358   8.226   1.353   5.242
 9805TIP3    H229359   8.291   1.377   5.107
 9806TIP3   OH229360   7.039   7.587   1.308
 9806TIP3    H129361   7.049   7.661   1.249
 9806TIP3    H229362   7.054   7.510   1.254
 9807TIP3   OH229363   1.641   7.668   4.894
 9807TIP3    H129364   1.705   7.611   4.851
 9807TIP3    H229365   1.693   7.724   4.951
 9808TIP3   OH229366   0.508   6.731   2.861
 9808TIP3    H129367   0.505   6.635   2.858
 9808TIP3    H229368   0.434   6.759   2.808
 9809TIP3   OH229369   3.707   4.191   2.067
 9809TIP3    H129370   3.629   4.161   2.019
 9809TIP3    H229371   3.689   4.167   2.158
 9810TIP3   OH229372   1.228   1.203   2.887
 9810TIP3    H129373   1.317   1.212   2.854
 9810TIP3    H229374   1.214   1.283   2.939
 9811TIP3   OH229375   1.877   5.425   2.975
 9811TIP3    H129376   1.912   5.424   3.064
 9811TIP3    H229377   1.828   5.343   2.968
 9812TIP3   OH229378   4.582   5.184   4.572
 9812TIP3    H129379   4.564   5.104   4.522
 9812TIP3    H229380   4.557   5.163   4.662
 9813TIP3   OH229381   1.220   0.679   5.910
 9813TIP3    H129382   1.211   0.754   5.852
 9813TIP3    H229383   1.169   0.610   5.869
 9814TIP3   OH229384   7.242   7.510   2.167
 9814TIP3    H129385   7.161   7.553   2.141
 9814TIP3    H229386   7.237   7.423   2.126
 9815TIP3   OH229387   0.273   5.563   4.592
 9815TIP3    H129388   0.231   5.481   4.565
 9815TIP3    H229389   0.224   5.631   4.544
 9816TIP3   OH229390   2.459   1.623   6.736
 9816TIP3    H129391   2.534   1.682   6.735
 9816TIP3    H229392   2.498   1.535   6.736
 9817TIP3   OH229393   5.842   6.556   1.452
 9817TIP3    H129394   5.769   6.615   1.468
 9817TIP3    H229395   5.855   6.558   1.357
 9818TIP3   OH229396   4.439   3.601   4.483
 9818TIP3    H129397   4.374   3.616   4.414
 9818TIP3    H229398   4.509   3.663   4.464
 9819TIP3   OH229399   0.889   1.315   5.039
 9819TIP3    H129400   0.984   1.318   5.039
 9819TIP3    H229401   0.862   1.393   5.088
 9820TIP3   OH229402   5.945   7.284   3.254
 9820TIP3    H129403   5.936   7.359   3.314
 9820TIP3    H229404   5.962   7.324   3.169
 9821TIP3   OH229405   5.301   1.319   3.157
 9821TIP3    H129406   5.211   1.290   3.169
 9821TIP3    H229407   5.345   1.297   3.239
 9822TIP3   OH229408   8.217   6.076   5.345
 9822TIP3    H129409   8.254   6.068   5.257
 9822TIP3    H229410   8.166   5.995   5.357
 9823TIP3   OH229411   2.319   4.547   5.861
 9823TIP3    H129412   2.369   4.503   5.793
 9823TIP3    H229413   2.383   4.598   5.909
 9824TIP3   OH229414   5.385   2.426   4.388
 9824TIP3    H129415   5.442   2.492   4.427
 9824TIP3    H229416   5.438   2.346   4.387
 9825TIP3   OH229417   6.020   1.171   2.974
 9825TIP3    H129418   5.987   1.169   2.884
 9825TIP3    H229419   6.036   1.080   2.996
 9826TIP3   OH229420   2.027   6.281   4.902
 9826TIP3    H129421   2.000   6.199   4.944
 9826TIP3    H229422   2.089   6.320   4.963
 9827TIP3   OH229423   2.408   6.997   6.027
 9827TIP3    H129424   2.426   6.940   5.953
 9827TIP3    H229425   2.338   7.055   5.997
 9828TIP3   OH229426   1.500   4.594   5.530
 9828TIP3    H129427   1.514   4.504   5.560
 9828TIP3    H229428   1.534   4.648   5.601
 9829TIP3   OH229429   0.424   2.547   0.009
 9829TIP3    H129430   0.390   2.457   0.007
 9829TIP3    H229431   0.508   2.542  -0.037
 9830TIP3   OH229432   3.428   7.240   6.780
 9830TIP3    H129433   3.407   7.333   6.777
 9830TIP3    H229434   3.413   7.208   6.691
 9831TIP3   OH229435   6.101   6.373   0.991
 9831TIP3    H129436   6.045   6.430   1.045
 9831TIP3    H229437   6.187   6.413   0.995
 9832TIP3   OH229438   0.991   5.615   3.332
 9832TIP3    H129439   1.044   5.538   3.312
 9832TIP3    H229440   0.907   5.579   3.361
 9833TIP3   OH229441   4.451   2.572   6.674
 9833TIP3    H129442   4.455   2.663   6.701
 9833TIP3    H229443   4.535   2.535   6.701
 9834TIP3   OH229444   1.861   6.640   5.109
 9834TIP3    H129445   1.780   6.655   5.060
 9834TIP3    H229446   1.847   6.557   5.155
 9835TIP3   OH229447   7.391   3.136   4.321
 9835TIP3    H129448   7.469   3.163   4.274
 9835TIP3    H229449   7.335   3.096   4.254
 9836TIP3   OH229450   8.033   1.188   0.916
 9836TIP3    H129451   8.041   1.138   0.997
 9836TIP3    H229452   8.010   1.124   0.849
 9837TIP3   OH229453   1.911   1.612   6.061
 9837TIP3    H129454   1.888   1.669   6.135
 9837TIP3    H229455   1.953   1.670   5.998
 9838TIP3   OH229456   3.460   6.156   3.085
 9838TIP3    H129457   3.512   6.104   3.146
 9838TIP3    H229458   3.518   6.170   3.010
 9839TIP3   OH229459   7.193   4.062   2.744
 9839TIP3    H129460   7.201   4.143   2.694
 9839TIP3    H229461   7.113   4.021   2.712
 9840TIP3   OH229462   3.168   7.612   1.094
 9840TIP3    H129463   3.219   7.647   1.021
 9840TIP3    H229464   3.190   7.519   1.096
 9841TIP3   OH229465   0.168   3.017   2.939
 9841TIP3    H129466   0.182   3.030   2.845
 9841TIP3    H229467   0.205   2.931   2.957
 9842TIP3   OH229468   2.549   3.197   0.745
 9842TIP3    H129469   2.480   3.216   0.809
 9842TIP3    H229470   2.627   3.180   0.798
 9843TIP3   OH229471   0.267   4.004   6.304
 9843TIP3    H129472   0.215   3.934   6.343
 9843TIP3    H229473   0.283   3.975   6.214
 9844TIP3   OH229474   1.514   0.447   0.206
 9844TIP3    H129475   1.512   0.352   0.198
 9844TIP3    H229476   1.583   0.464   0.271
 9845TIP3   OH229477   2.911   0.626   0.085
 9845TIP3    H129478   2.966   0.562   0.130
 9845TIP3    H229479   2.877   0.682   0.155
 9846TIP3   OH229480   4.371   5.627   0.909
 9846TIP3    H129481   4.338   5.607   0.996
 9846TIP3    H229482   4.460   5.659   0.923
 9847TIP3   OH229483   1.893   2.182   0.324
 9847TIP3    H129484   1.911   2.223   0.240
 9847TIP3    H229485   1.800   2.162   0.322
 9848TIP3   OH229486   0.432   7.455   6.038
 9848TIP3    H129487   0.419   7.543   6.071
 9848TIP3    H229488   0.350   7.409   6.056
 9849TIP3   OH229489   2.538   1.178   6.113
 9849TIP3    H129490   2.501   1.192   6.200
 9849TIP3    H229491   2.466   1.197   6.052
 9850TIP3   OH229492   1.210   3.010   0.241
 9850TIP3    H129493   1.240   3.077   0.304
 9850TIP3    H229494   1.196   2.932   0.294
 9851TIP3   OH229495   3.050   3.011   6.080
 9851TIP3    H129496   3.134   3.047   6.108
 9851TIP3    H229497   3.070   2.966   5.997
 9852TIP3   OH229498   0.831   7.049   3.783
 9852TIP3    H129499   0.825   7.129   3.836
 9852TIP3    H229500   0.901   6.998   3.825
 9853TIP3   OH229501   0.988   4.876   0.926
 9853TIP3    H129502   0.989   4.827   0.844
 9853TIP3    H229503   0.901   4.916   0.929
 9854TIP3   OH229504   1.270   0.407   0.355
 9854TIP3    H129505   1.238   0.328   0.311
 9854TIP3    H229506   1.337   0.442   0.295
 9855TIP3   OH229507   0.294   5.656   3.211
 9855TIP3    H129508   0.211   5.626   3.248
 9855TIP3    H229509   0.338   5.576   3.182
 9856TIP3   OH229510   6.810   2.100   0.863
 9856TIP3    H129511   6.844   2.034   0.802
 9856TIP3    H229512   6.846   2.183   0.831
 9857TIP3   OH229513   6.408   2.203   3.163
 9857TIP3    H129514   6.339   2.138   3.157
 9857TIP3    H229515   6.429   2.223   3.072
 9858TIP3   OH229516   4.678   3.772   1.050
 9858TIP3    H129517   4.669   3.866   1.036
 9858TIP3    H229518   4.687   3.762   1.145
 9859TIP3   OH229519   6.258   6.194   0.720
 9859TIP3    H129520   6.249   6.270   0.776
 9859TIP3    H229521   6.248   6.119   0.778
 9860TIP3   OH229522   2.736   4.029   2.967
 9860TIP3    H129523   2.800   4.026   3.038
 9860TIP3    H229524   2.780   3.989   2.892
 9861TIP3   OH229525   4.400   2.694   3.649
 9861TIP3    H129526   4.436   2.612   3.616
 9861TIP3    H229527   4.447   2.762   3.600
 9862TIP3   OH229528   7.999   5.525   5.057
 9862TIP3    H129529   8.070   5.479   5.012
 9862TIP3    H229530   8.034   5.612   5.074
 9863TIP3   OH229531   7.460   3.550   5.938
 9863TIP3    H129532   7.489   3.642   5.943
 9863TIP3    H229533   7.379   3.548   5.989
 9864TIP3   OH229534   2.232   3.356   6.157
 9864TIP3    H129535   2.272   3.413   6.222
 9864TIP3    H229536   2.302   3.297   6.129
 9865TIP3   OH229537   0.549   2.046   3.211
 9865TIP3    H129538   0.454   2.050   3.199
 9865TIP3    H229539   0.562   2.047   3.306
 9866TIP3   OH229540   4.357   1.234   6.559
 9866TIP3    H129541   4.452   1.232   6.548
 9866TIP3    H229542   4.326   1.157   6.511
 9867TIP3   OH229543   5.728   2.383   0.725
 9867TIP3    H129544   5.741   2.297   0.686
 9867TIP3    H229545   5.662   2.425   0.671
 9868TIP3   OH229546   2.236   4.641   3.722
 9868TIP3    H129547   2.267   4.660   3.633
 9868TIP3    H229548   2.309   4.663   3.779
 9869TIP3   OH229549   2.315   2.345   6.684
 9869TIP3    H129550   2.273   2.387   6.610
 9869TIP3    H229551   2.359   2.268   6.647
 9870TIP3   OH229552   3.001   7.187   1.287
 9870TIP3    H129553   2.998   7.178   1.382
 9870TIP3    H229554   2.995   7.282   1.272
 9871TIP3   OH229555   0.785   2.518   2.339
 9871TIP3    H129556   0.771   2.474   2.423
 9871TIP3    H229557   0.698   2.520   2.298
 9872TIP3   OH229558   4.724   4.352   3.476
 9872TIP3    H129559   4.728   4.261   3.445
 9872TIP3    H229560   4.793   4.358   3.542
 9873TIP3   OH229561   6.681   1.414   3.938
 9873TIP3    H129562   6.674   1.333   3.887
 9873TIP3    H229563   6.659   1.483   3.875
 9874TIP3   OH229564   5.675   1.931   4.763
 9874TIP3    H129565   5.585   1.901   4.769
 9874TIP3    H229566   5.708   1.892   4.682
 9875TIP3   OH229567   5.544   2.764   5.548
 9875TIP3    H129568   5.633   2.733   5.561
 9875TIP3    H229569   5.527   2.752   5.455
 9876TIP3   OH229570   3.777   3.313   4.600
 9876TIP3    H129571   3.719   3.351   4.666
 9876TIP3    H229572   3.844   3.267   4.651
 9877TIP3   OH229573   5.469   3.287   2.269
 9877TIP3    H129574   5.460   3.195   2.246
 9877TIP3    H229575   5.457   3.289   2.364
 9878TIP3   OH229576   7.168   1.536   2.316
 9878TIP3    H129577   7.201   1.447   2.317
 9878TIP3    H229578   7.075   1.528   2.295
 9879TIP3   OH229579   2.629   1.049   2.594
 9879TIP3    H129580   2.551   1.062   2.647
 9879TIP3    H229581   2.609   1.091   2.510
 9880TIP3   OH229582   7.448   3.318   6.726
 9880TIP3    H129583   7.515   3.308   6.795
 9880TIP3    H229584   7.497   3.314   6.644
 9881TIP3   OH229585   6.818   3.737   2.482
 9881TIP3    H129586   6.891   3.798   2.491
 9881TIP3    H229587   6.836   3.690   2.400
 9882TIP3   OH229588   6.238   6.043   0.989
 9882TIP3    H129589   6.243   5.959   1.036
 9882TIP3    H229590   6.146   6.067   0.992
 9883TIP3   OH229591   2.875   7.653   1.541
 9883TIP3    H129592   2.927   7.659   1.622
 9883TIP3    H229593   2.875   7.743   1.507
 9884TIP3   OH229594   1.362   7.224   5.526
 9884TIP3    H129595   1.336   7.303   5.479
 9884TIP3    H229596   1.339   7.241   5.617
 9885TIP3   OH229597   0.297   2.318  -0.002
 9885TIP3    H129598   0.318   2.260   0.072
 9885TIP3    H229599   0.259   2.260  -0.068
 9886TIP3   OH229600   7.436   5.395   0.516
 9886TIP3    H129601   7.484   5.401   0.599
 9886TIP3    H229602   7.388   5.478   0.509
 9887TIP3   OH229603   2.906   7.128   2.177
 9887TIP3    H129604   2.877   7.069   2.247
 9887TIP3    H229605   3.001   7.118   2.175
 9888TIP3   OH229606   2.770   4.604   1.218
 9888TIP3    H129607   2.837   4.547   1.179
 9888TIP3    H229608   2.745   4.560   1.299
 9889TIP3   OH229609   1.130   2.723   6.448
 9889TIP3    H129610   1.224   2.710   6.440
 9889TIP3    H229611   1.120   2.779   6.525
 9890TIP3   OH229612   3.190   3.504   5.420
 9890TIP3    H129613   3.202   3.520   5.513
 9890TIP3    H229614   3.245   3.428   5.401
 9891TIP3   OH229615   0.672   1.988   2.328
 9891TIP3    H129616   0.676   1.926   2.401
 9891TIP3    H229617   0.604   1.953   2.271
 9892TIP3   OH229618   5.991   7.727   0.900
 9892TIP3    H129619   5.946   7.798   0.855
 9892TIP3    H229620   6.041   7.683   0.831
 9893TIP3   OH229621   3.688   5.244   4.135
 9893TIP3    H129622   3.633   5.181   4.088
 9893TIP3    H229623   3.669   5.227   4.227
 9894TIP3   OH229624   7.710   5.539   6.189
 9894TIP3    H129625   7.712   5.460   6.243
 9894TIP3    H229626   7.647   5.519   6.120
 9895TIP3   OH229627   6.755   1.688   4.360
 9895TIP3    H129628   6.767   1.729   4.275
 9895TIP3    H229629   6.688   1.741   4.404
 9896TIP3   OH229630   4.354   2.217   5.727
 9896TIP3    H129631   4.308   2.134   5.714
 9896TIP3    H229632   4.427   2.215   5.666
 9897TIP3   OH229633   2.724   7.364   2.304
 9897TIP3    H129634   2.643   7.362   2.253
 9897TIP3    H229635   2.784   7.307   2.257
 9898TIP3   OH229636   6.556   1.282   3.164
 9898TIP3    H129637   6.602   1.363   3.186
 9898TIP3    H229638   6.510   1.301   3.083
 9899TIP3   OH229639   6.711   7.402   2.085
 9899TIP3    H129640   6.640   7.358   2.132
 9899TIP3    H229641   6.734   7.342   2.014
 9900TIP3   OH229642   5.441   1.867   1.396
 9900TIP3    H129643   5.493   1.911   1.463
 9900TIP3    H229644   5.485   1.889   1.314
 9901TIP3   OH229645   7.368   5.524   6.729
 9901TIP3    H129646   7.311   5.597   6.702
 9901TIP3    H229647   7.448   5.567   6.761
 9902TIP3   OH229648   7.671   4.234   4.810
 9902TIP3    H129649   7.632   4.319   4.827
 9902TIP3    H229650   7.618   4.172   4.860
 9903TIP3   OH229651   3.672   4.086   5.696
 9903TIP3    H129652   3.577   4.082   5.708
 9903TIP3    H229653   3.705   4.126   5.777
 9904TIP3   OH229654   2.496   1.214   4.340
 9904TIP3    H129655   2.420   1.244   4.291
 9904TIP3    H229656   2.505   1.278   4.411
 9905TIP3   OH229657   6.807   6.897   1.279
 9905TIP3    H129658   6.778   6.812   1.312
 9905TIP3    H229659   6.795   6.891   1.184
 9906TIP3   OH229660   7.622   1.125   4.023
 9906TIP3    H129661   7.573   1.184   4.080
 9906TIP3    H229662   7.572   1.043   4.026
 9907TIP3   OH229663   3.865   2.280   2.695
 9907TIP3    H129664   3.916   2.199   2.699
 9907TIP3    H229665   3.929   2.349   2.712
 9908TIP3   OH229666   6.433   4.313   0.569
 9908TIP3    H129667   6.431   4.237   0.627
 9908TIP3    H229668   6.347   4.315   0.529
 9909TIP3   OH229669   3.301   7.042   0.534
 9909TIP3    H129670   3.367   7.002   0.478
 9909TIP3    H229671   3.242   6.970   0.557
 9910TIP3   OH229672   2.831   4.520   6.728
 9910TIP3    H129673   2.758   4.489   6.782
 9910TIP3    H229674   2.892   4.560   6.789
 9911TIP3   OH229675   2.594   5.086   4.679
 9911TIP3    H129676   2.596   5.062   4.772
 9911TIP3    H229677   2.674   5.138   4.667
 9912TIP3   OH229678   6.047   6.360   3.144
 9912TIP3    H129679   6.087   6.303   3.209
 9912TIP3    H229680   6.119   6.388   3.088
 9913TIP3   OH229681   6.570   4.333   1.082
 9913TIP3    H129682   6.622   4.353   1.004
 9913TIP3    H229683   6.540   4.418   1.114
 9914TIP3   OH229684   5.914   4.481   4.620
 9914TIP3    H129685   5.892   4.542   4.690
 9914TIP3    H229686   5.893   4.395   4.654
 9915TIP3   OH229687   3.460   5.647   0.107
 9915TIP3    H129688   3.464   5.601   0.190
 9915TIP3    H229689   3.481   5.580   0.041
 9916TIP3   OH229690   2.792   0.743   6.015
 9916TIP3    H129691   2.746   0.673   5.969
 9916TIP3    H229692   2.750   0.824   5.985
 9917TIP3   OH229693   6.356   0.887   4.671
 9917TIP3    H129694   6.330   0.931   4.752
 9917TIP3    H229695   6.326   0.797   4.682
 9918TIP3   OH229696   7.372   3.787   6.369
 9918TIP3    H129697   7.387   3.857   6.433
 9918TIP3    H229698   7.382   3.706   6.419
 9919TIP3   OH229699   2.176   4.701   0.511
 9919TIP3    H129700   2.189   4.655   0.594
 9919TIP3    H229701   2.159   4.792   0.537
 9920TIP3   OH229702   2.932   1.335   5.656
 9920TIP3    H129703   2.857   1.385   5.622
 9920TIP3    H229704   2.942   1.262   5.595
 9921TIP3   OH229705   3.409   5.423   6.544
 9921TIP3    H129706   3.430   5.405   6.452
 9921TIP3    H229707   3.377   5.513   6.544
 9922TIP3   OH229708   6.220   5.255   5.755
 9922TIP3    H129709   6.148   5.251   5.818
 9922TIP3    H229710   6.290   5.204   5.795
 9923TIP3   OH229711   2.100   6.659   2.911
 9923TIP3    H129712   2.191   6.661   2.882
 9923TIP3    H229713   2.067   6.746   2.891
 9924TIP3   OH229714   0.412   1.488   1.447
 9924TIP3    H129715   0.454   1.442   1.374
 9924TIP3    H229716   0.404   1.578   1.417
 9925TIP3   OH229717   1.797   4.369   4.434
 9925TIP3    H129718   1.744   4.352   4.356
 9925TIP3    H229719   1.887   4.354   4.406
 9926TIP3   OH229720   7.824   7.080   1.143
 9926TIP3    H129721   7.882   7.020   1.189
 9926TIP3    H229722   7.746   7.027   1.124
 9927TIP3   OH229723   0.466   1.469   2.978
 9927TIP3    H129724   0.437   1.558   2.996
 9927TIP3    H229725   0.504   1.438   3.061
 9928TIP3   OH229726   5.104   2.774   1.682
 9928TIP3    H129727   5.125   2.700   1.625
 9928TIP3    H229728   5.054   2.735   1.754
 9929TIP3   OH229729   3.480   7.522   4.739
 9929TIP3    H129730   3.485   7.436   4.782
 9929TIP3    H229731   3.504   7.584   4.808
 9930TIP3   OH229732   2.532   4.687   4.943
 9930TIP3    H129733   2.626   4.696   4.953
 9930TIP3    H229734   2.506   4.626   5.012
 9931TIP3   OH229735   2.114   0.825   5.513
 9931TIP3    H129736   2.038   0.778   5.478
 9931TIP3    H229737   2.081   0.868   5.592
 9932TIP3   OH229738   7.917   4.568   6.466
 9932TIP3    H129739   7.908   4.597   6.375
 9932TIP3    H229740   7.837   4.597   6.509
 9933TIP3   OH229741   0.480   0.344   0.534
 9933TIP3    H129742   0.427   0.267   0.513
 9933TIP3    H229743   0.501   0.383   0.449
 9934TIP3   OH229744   6.544   6.107   2.218
 9934TIP3    H129745   6.500   6.182   2.258
 9934TIP3    H229746   6.609   6.080   2.283
 9935TIP3   OH229747   0.227   6.871   2.413
 9935TIP3    H129748   0.138   6.874   2.448
 9935TIP3    H229749   0.225   6.801   2.348
 9936TIP3   OH229750   4.007   1.169   2.716
 9936TIP3    H129751   3.935   1.202   2.661
 9936TIP3    H229752   4.071   1.135   2.654
 9937TIP3   OH229753   5.529   4.017   1.043
 9937TIP3    H129754   5.533   3.963   1.122
 9937TIP3    H229755   5.464   4.084   1.064
 9938TIP3   OH229756   6.480   0.717   1.066
 9938TIP3    H129757   6.430   0.641   1.097
 9938TIP3    H229758   6.561   0.716   1.117
 9939TIP3   OH229759   0.555   3.287   2.980
 9939TIP3    H129760   0.520   3.281   2.891
 9939TIP3    H229761   0.489   3.245   3.035
 9940TIP3   OH229762   2.919   6.625   6.226
 9940TIP3    H129763   2.834   6.604   6.264
 9940TIP3    H229764   2.932   6.559   6.159
 9941TIP3   OH229765   1.072   6.900   2.656
 9941TIP3    H129766   0.989   6.898   2.607
 9941TIP3    H229767   1.073   6.816   2.703
 9942TIP3   OH229768   3.852   1.013   1.952
 9942TIP3    H129769   3.800   1.092   1.967
 9942TIP3    H229770   3.809   0.969   1.879
 9943TIP3   OH229771   3.223   0.616   2.913
 9943TIP3    H129772   3.290   0.549   2.928
 9943TIP3    H229773   3.231   0.636   2.820
 9944TIP3   OH229774   7.360   6.782   4.124
 9944TIP3    H129775   7.444   6.812   4.090
 9944TIP3    H229776   7.338   6.706   4.070
 9945TIP3   OH229777   0.576   5.131   6.405
 9945TIP3    H129778   0.523   5.129   6.325
 9945TIP3    H229779   0.645   5.067   6.390
 9946TIP3   OH229780   0.789   3.701   4.339
 9946TIP3    H129781   0.795   3.707   4.243
 9946TIP3    H229782   0.876   3.676   4.367
 9947TIP3   OH229783   0.614   6.653   1.995
 9947TIP3    H129784   0.676   6.584   2.018
 9947TIP3    H229785   0.560   6.614   1.926
 9948TIP3   OH229786   0.842   3.403   4.521
 9948TIP3    H129787   0.933   3.400   4.551
 9948TIP3    H229788   0.806   3.482   4.560
 9949TIP3   OH229789   1.551   0.906   3.072
 9949TIP3    H129790   1.608   0.934   3.144
 9949TIP3    H229791   1.526   0.987   3.029
 9950TIP3   OH229792   3.286   6.246   1.444
 9950TIP3    H129793   3.223   6.259   1.374
 9950TIP3    H229794   3.238   6.195   1.510
 9951TIP3   OH229795   5.603   6.339   5.204
 9951TIP3    H129796   5.584   6.270   5.141
 9951TIP3    H229797   5.688   6.314   5.242
 9952TIP3   OH229798   5.646   3.819   0.785
 9952TIP3    H129799   5.620   3.761   0.713
 9952TIP3    H229800   5.620   3.773   0.864
 9953TIP3   OH229801   3.848   3.729   1.822
 9953TIP3    H129802   3.840   3.825   1.819
 9953TIP3    H229803   3.769   3.700   1.867
 9954TIP3   OH229804   0.454   6.039   2.661
 9954TIP3    H129805   0.468   6.122   2.615
 9954TIP3    H229806   0.381   6.057   2.721
 9955TIP3   OH229807   3.277   1.142   5.899
 9955TIP3    H129808   3.294   1.050   5.876
 9955TIP3    H229809   3.311   1.151   5.988
 9956TIP3   OH229810   1.832   0.489   3.189
 9956TIP3    H129811   1.780   0.425   3.238
 9956TIP3    H229812   1.767   0.537   3.137
 9957TIP3   OH229813   4.950   7.472   0.364
 9957TIP3    H129814   4.900   7.505   0.439
 9957TIP3    H229815   4.892   7.485   0.290
 9958TIP3   OH229816   2.753   0.812   4.518
 9958TIP3    H129817   2.687   0.843   4.455
 9958TIP3    H229818   2.810   0.754   4.467
 9959TIP3   OH229819   0.950   3.428   6.702
 9959TIP3    H129820   1.042   3.405   6.691
 9959TIP3    H229821   0.945   3.470   6.788
 9960TIP3   OH229822   3.826   0.342   5.825
 9960TIP3    H129823   3.905   0.355   5.878
 9960TIP3    H229824   3.802   0.251   5.840
 9961TIP3   OH229825   3.919   3.306   3.812
 9961TIP3    H129826   3.873   3.345   3.737
 9961TIP3    H229827   3.970   3.235   3.775
 9962TIP3   OH229828   3.709   5.053   0.059
 9962TIP3    H129829   3.788   5.073   0.010
 9962TIP3    H229830   3.638   5.089   0.006
 9963TIP3   OH229831   5.569   2.025   2.997
 9963TIP3    H129832   5.487   2.052   2.956
 9963TIP3    H229833   5.575   2.076   3.077
 9964TIP3   OH229834   5.649   1.155   3.731
 9964TIP3    H129835   5.705   1.083   3.702
 9964TIP3    H229836   5.703   1.234   3.718
 9965TIP3   OH229837   0.210   0.703   4.554
 9965TIP3    H129838   0.286   0.653   4.584
 9965TIP3    H229839   0.175   0.743   4.634
 9966TIP3   OH229840   3.881   4.533   1.867
 9966TIP3    H129841   3.807   4.582   1.903
 9966TIP3    H229842   3.845   4.450   1.839
 9967TIP3   OH229843   0.325   4.660   2.587
 9967TIP3    H129844   0.256   4.704   2.636
 9967TIP3    H229845   0.394   4.644   2.651
 9968TIP3   OH229846   3.276   7.447   2.414
 9968TIP3    H129847   3.288   7.389   2.339
 9968TIP3    H229848   3.184   7.475   2.408
 9969TIP3   OH229849   3.769   7.773   0.511
 9969TIP3    H129850   3.820   7.700   0.546
 9969TIP3    H229851   3.834   7.827   0.464
 9970TIP3   OH229852   6.913   0.383   0.384
 9970TIP3    H129853   6.940   0.474   0.371
 9970TIP3    H229854   6.921   0.369   0.479
 9971TIP3   OH229855   2.942   5.847   1.363
 9971TIP3    H129856   2.930   5.793   1.441
 9971TIP3    H229857   2.854   5.855   1.325
 9972TIP3   OH229858   4.625   7.765   0.345
 9972TIP3    H129859   4.629   7.828   0.417
 9972TIP3    H229860   4.596   7.816   0.270
 9973TIP3   OH229861   7.745   2.664   3.228
 9973TIP3    H129862   7.817   2.717   3.194
 9973TIP3    H229863   7.682   2.728   3.260
 9974TIP3   OH229864   7.425   3.415   3.595
 9974TIP3    H129865   7.474   3.383   3.519
 9974TIP3    H229866   7.357   3.349   3.610
 9975TIP3   OH229867   7.915   0.364   5.698
 9975TIP3    H129868   8.003   0.392   5.672
 9975TIP3    H229869   7.893   0.294   5.636
 9976TIP3   OH229870   5.968   2.030   3.317
 9976TIP3    H129871   6.022   2.109   3.311
 9976TIP3    H229872   5.899   2.042   3.252
 9977TIP3   OH229873   0.966   1.467   3.424
 9977TIP3    H129874   1.037   1.513   3.380
 9977TIP3    H229875   0.955   1.514   3.506
 9978TIP3   OH229876   4.123   2.278  -0.014
 9978TIP3    H129877   4.176   2.356  -0.033
 9978TIP3    H229878   4.184   2.215   0.024
 9979TIP3   OH229879   0.653   6.218   6.075
 9979TIP3    H129880   0.725   6.175   6.121
 9979TIP3    H229881   0.696   6.284   6.020
 9980TIP3   OH229882   7.542   3.575   3.262
 9980TIP3    H129883   7.568   3.659   3.224
 9980TIP3    H229884   7.521   3.595   3.353
 9981TIP3   OH229885   1.675   2.367   1.433
 9981TIP3    H129886   1.636   2.301   1.375
 9981TIP3    H229887   1.635   2.351   1.518
 9982TIP3   OH229888   8.173   5.410   3.187
 9982TIP3    H129889   8.161   5.428   3.280
 9982TIP3    H229890   8.103   5.349   3.165
 9983TIP3   OH229891   5.571   2.218   1.404
 9983TIP3    H129892   5.590   2.161   1.479
 9983TIP3    H229893   5.476   2.233   1.409
 9984TIP3   OH229894   6.609   3.806   6.212
 9984TIP3    H129895   6.571   3.772   6.293
 9984TIP3    H229896   6.667   3.736   6.182
 9985TIP3   OH229897   5.037   5.225   6.344
 9985TIP3    H129898   5.108   5.286   6.325
 9985TIP3    H229899   5.053   5.198   6.434
 9986TIP3   OH229900   1.226   2.732   3.882
 9986TIP3    H129901   1.155   2.722   3.818
 9986TIP3    H229902   1.305   2.709   3.834
 9987TIP3   OH229903   7.869   4.830   5.205
 9987TIP3    H129904   7.951   4.839   5.156
 9987TIP3    H229905   7.882   4.884   5.283
 9988TIP3   OH229906   1.965   2.392   6.036
 9988TIP3    H129907   1.879   2.360   6.064
 9988TIP3    H229908   1.971   2.370   5.943
 9989TIP3   OH229909   2.623   4.770   5.488
 9989TIP3    H129910   2.614   4.830   5.562
 9989TIP3    H229911   2.534   4.736   5.474
 9990TIP3   OH229912   7.203   6.558   4.124
 9990TIP3    H129913   7.182   6.568   4.217
 9990TIP3    H229914   7.220   6.464   4.114
 9991TIP3   OH229915   0.957   3.878   6.144
 9991TIP3    H129916   0.878   3.925   6.118
 9991TIP3    H229917   1.016   3.947   6.174
 9992TIP3   OH229918   4.320   1.569   4.718
 9992TIP3    H129919   4.244   1.618   4.687
 9992TIP3    H229920   4.350   1.519   4.642
 9993TIP3   OH229921   0.249   0.403   0.917
 9993TIP3    H129922   0.296   0.433   0.995
 9993TIP3    H229923   0.168   0.454   0.918
 9994TIP3   OH229924   1.544   4.131   1.373
 9994TIP3    H129925   1.514   4.199   1.313
 9994TIP3    H229926   1.467   4.076   1.388
 9995TIP3   OH229927   3.502   4.033   5.246
 9995TIP3    H129928   3.489   4.068   5.334
 9995TIP3    H229929   3.418   4.045   5.203
 9996TIP3   OH229930   0.285   6.810   2.725
 9996TIP3    H129931   0.247   6.785   2.640
 9996TIP3    H229932   0.217   6.863   2.766
 9997TIP3   OH229933   6.711   2.309   5.965
 9997TIP3    H129934   6.690   2.329   5.874
 9997TIP3    H229935   6.755   2.388   5.996
 9998TIP3   OH229936   7.332   2.417   1.128
 9998TIP3    H129937   7.376   2.332   1.126
 9998TIP3    H229938   7.393   2.474   1.176
 9999TIP3   OH229939   8.290   1.133   4.334
 9999TIP3    H129940   8.252   1.048   4.312
 9999TIP3    H229941   8.363   1.112   4.392
10000TIP3   OH229942   1.179   2.300   3.418
10000TIP3    H129943   1.185   2.380   3.365
10000TIP3    H229944   1.088   2.296   3.445
10001TIP3   OH229945   6.220   3.599   5.002
10001TIP3    H129946   6.230   3.642   5.087
10001TIP3    H229947   6.125   3.585   4.994
10002TIP3   OH229948   8.250   7.704   1.013
10002TIP3    H129949   8.287   7.687   1.100
10002TIP3    H229950   8.167   7.748   1.031
10003TIP3   OH229951   3.837   4.424   5.714
10003TIP3    H129952   3.933   4.430   5.717
10003TIP3    H229953   3.814   4.363   5.784
10004TIP3   OH229954   6.128   5.503   5.216
10004TIP3    H129955   6.179   5.430   5.181
10004TIP3    H229956   6.173   5.581   5.184
10005TIP3   OH229957   8.114   5.644   3.411
10005TIP3    H129958   8.037   5.698   3.394
10005TIP3    H229959   8.085   5.581   3.476
10006TIP3   OH229960   4.859   3.539   3.071
10006TIP3    H129961   4.892   3.462   3.117
10006TIP3    H229962   4.918   3.609   3.096
10007TIP3   OH229963   4.676   1.117   2.821
10007TIP3    H129964   4.656   1.048   2.884
10007TIP3    H229965   4.772   1.117   2.816
10008TIP3   OH229966   7.681   6.215   4.964
10008TIP3    H129967   7.669   6.197   4.871
10008TIP3    H229968   7.592   6.234   4.996
10009TIP3   OH229969   7.507   7.379   3.048
10009TIP3    H129970   7.430   7.429   3.021
10009TIP3    H229971   7.577   7.410   2.990
10010TIP3   OH229972   6.829   1.124   0.057
10010TIP3    H129973   6.885   1.175   0.115
10010TIP3    H229974   6.755   1.181   0.037
10011TIP3   OH229975   8.178   1.680   2.728
10011TIP3    H129976   8.099   1.634   2.758
10011TIP3    H229977   8.199   1.740   2.800
10012TIP3   OH229978   0.784   0.770   3.701
10012TIP3    H129979   0.729   0.821   3.642
10012TIP3    H229980   0.870   0.812   3.695
10013TIP3   OH229981   6.474   1.482   2.161
10013TIP3    H129982   6.509   1.393   2.166
10013TIP3    H229983   6.510   1.526   2.238
10014TIP3   OH229984   6.947   1.182   3.715
10014TIP3    H129985   7.012   1.114   3.700
10014TIP3    H229986   6.997   1.263   3.722
10015TIP3   OH229987   7.271   0.476   3.207
10015TIP3    H129988   7.185   0.457   3.245
10015TIP3    H229989   7.299   0.393   3.169
10016TIP3   OH229990   0.471   6.451   2.802
10016TIP3    H129991   0.391   6.430   2.851
10016TIP3    H229992   0.539   6.397   2.844
10017TIP3   OH229993   8.206   6.811   4.612
10017TIP3    H129994   8.215   6.874   4.541
10017TIP3    H229995   8.159   6.859   4.681
10018TIP3   OH229996   6.815   4.383   2.749
10018TIP3    H129997   6.751   4.446   2.715
10018TIP3    H229998   6.824   4.318   2.679
10019TIP3   OH229999   6.062   5.465   1.826
10019TIP3    H130000   6.020   5.472   1.740
10019TIP3    H230001   5.990   5.466   1.888
10020TIP3   OH230002   7.298   6.998   5.520
10020TIP3    H130003   7.357   7.025   5.449
10020TIP3    H230004   7.357   6.971   5.590
10021TIP3   OH230005   2.414   3.947   3.369
10021TIP3    H130006   2.494   3.895   3.380
10021TIP3    H230007   2.397   3.983   3.456
10022TIP3   OH230008   1.036   2.948   5.816
10022TIP3    H130009   0.965   2.887   5.832
10022TIP3    H230010   1.114   2.893   5.804
10023TIP3   OH230011   4.568   6.388   2.129
10023TIP3    H130012   4.493   6.340   2.165
10023TIP3    H230013   4.582   6.459   2.192
10024TIP3   OH230014   0.437   1.407   5.662
10024TIP3    H130015   0.428   1.493   5.623
10024TIP3    H230016   0.528   1.383   5.647
10025TIP3   OH230017   3.909   3.556   5.737
10025TIP3    H130018   3.909   3.644   5.776
10025TIP3    H230019   4.002   3.535   5.725
10026TIP3   OH230020   0.651   7.303   3.420
10026TIP3    H130021   0.627   7.211   3.432
10026TIP3    H230022   0.679   7.308   3.329
10027TIP3   OH230023   5.374   1.254   6.059
10027TIP3    H130024   5.388   1.159   6.067
10027TIP3    H230025   5.353   1.282   6.148
10028TIP3   OH230026   5.569   4.837   4.330
10028TIP3    H130027   5.544   4.803   4.416
10028TIP3    H230028   5.486   4.849   4.283
10029TIP3   OH230029   0.546   5.421   0.764
10029TIP3    H130030   0.621   5.378   0.722
10029TIP3    H230031   0.484   5.351   0.780
10030TIP3   OH230032   0.694   0.332   3.854
10030TIP3    H130033   0.742   0.412   3.874
10030TIP3    H230034   0.602   0.358   3.855
10031TIP3   OH230035   7.654   0.970   0.422
10031TIP3    H130036   7.677   0.911   0.494
10031TIP3    H230037   7.649   1.057   0.463
10032TIP3   OH230038   7.260   0.223   4.704
10032TIP3    H130039   7.352   0.251   4.698
10032TIP3    H230040   7.264   0.137   4.746
10033TIP3   OH230041   3.769   6.708   4.439
10033TIP3    H130042   3.675   6.717   4.455
10033TIP3    H230043   3.775   6.647   4.365
10034TIP3   OH230044   7.581   4.150   1.857
10034TIP3    H130045   7.549   4.134   1.946
10034TIP3    H230046   7.566   4.244   1.843
10035TIP3   OH230047   5.220   6.081   2.273
10035TIP3    H130048   5.145   6.024   2.260
10035TIP3    H230049   5.195   6.163   2.231
10036TIP3   OH230050   8.072   6.107   2.387
10036TIP3    H130051   8.044   6.136   2.474
10036TIP3    H230052   8.156   6.063   2.402
10037TIP3   OH230053   5.439   6.647   1.864
10037TIP3    H130054   5.446   6.602   1.948
10037TIP3    H230055   5.449   6.739   1.885
10038TIP3   OH230056   7.736   5.722   6.398
10038TIP3    H130057   7.831   5.714   6.410
10038TIP3    H230058   7.716   5.665   6.324
10039TIP3   OH230059   1.467   3.177   5.291
10039TIP3    H130060   1.433   3.156   5.204
10039TIP3    H230061   1.559   3.201   5.275
10040TIP3   OH230062   5.563   4.714   5.300
10040TIP3    H130063   5.504   4.785   5.272
10040TIP3    H230064   5.509   4.659   5.357
10041TIP3   OH230065   0.413   4.203   5.091
10041TIP3    H130066   0.431   4.219   5.183
10041TIP3    H230067   0.321   4.179   5.087
10042TIP3   OH230068   4.349   1.328   2.190
10042TIP3    H130069   4.359   1.365   2.278
10042TIP3    H230070   4.409   1.254   2.189
10043TIP3   OH230071   2.030   0.676   6.234
10043TIP3    H130072   1.960   0.631   6.282
10043TIP3    H230073   2.060   0.744   6.295
10044TIP3   OH230074   7.087   5.990   4.120
10044TIP3    H130075   7.001   6.010   4.082
10044TIP3    H230076   7.076   5.906   4.163
10045TIP3   OH230077   0.089   5.486   3.790
10045TIP3    H130078   0.151   5.547   3.831
10045TIP3    H230079   0.138   5.404   3.784
10046TIP3   OH230080   6.915   5.628   6.539
10046TIP3    H130081   6.852   5.683   6.493
10046TIP3    H230082   6.996   5.680   6.540
10047TIP3   OH230083   1.330   5.598   4.257
10047TIP3    H130084   1.291   5.650   4.327
10047TIP3    H230085   1.269   5.525   4.244
10048TIP3   OH230086   7.221   1.663   3.038
10048TIP3    H130087   7.157   1.620   3.095
10048TIP3    H230088   7.204   1.628   2.951
10049TIP3   OH230089   5.665   3.444   3.728
10049TIP3    H130090   5.570   3.430   3.725
10049TIP3    H230091   5.675   3.539   3.730
10050TIP3   OH230092   1.496   7.494   1.916
10050TIP3    H130093   1.410   7.473   1.881
10050TIP3    H230094   1.547   7.414   1.904
10051TIP3   OH230095   7.596   4.926   3.427
10051TIP3    H130096   7.597   5.018   3.402
10051TIP3    H230097   7.537   4.884   3.364
10052TIP3   OH230098   3.932   2.476   0.627
10052TIP3    H130099   3.983   2.554   0.607
10052TIP3    H230100   3.913   2.437   0.541
10053TIP3   OH230101   4.933   4.007   1.877
10053TIP3    H130102   4.971   4.039   1.795
10053TIP3    H230103   4.987   3.932   1.901
10054TIP3   OH230104   4.038   6.499   1.447
10054TIP3    H130105   3.984   6.434   1.402
10054TIP3    H230106   4.089   6.448   1.510
10055TIP3   OH230107   0.664   2.388   4.327
10055TIP3    H130108   0.622   2.470   4.301
10055TIP3    H230109   0.688   2.346   4.244
10056TIP3   OH230110   3.701   2.422   3.916
10056TIP3    H130111   3.761   2.422   3.990
10056TIP3    H230112   3.655   2.338   3.921
10057TIP3   OH230113   0.583   2.926   0.846
10057TIP3    H130114   0.547   3.013   0.830
10057TIP3    H230115   0.533   2.892   0.919
10058TIP3   OH230116   3.628   7.566   3.751
10058TIP3    H130117   3.555   7.564   3.813
10058TIP3    H230118   3.702   7.599   3.803
10059TIP3   OH230119   2.983   6.012   2.896
10059TIP3    H130120   2.939   5.932   2.868
10059TIP3    H230121   3.070   5.983   2.924
10060TIP3   OH230122   2.552   4.162   0.369
10060TIP3    H130123   2.614   4.172   0.441
10060TIP3    H230124   2.598   4.200   0.294
10061TIP3   OH230125   5.021   4.222   6.375
10061TIP3    H130126   5.109   4.258   6.391
10061TIP3    H230127   5.002   4.246   6.284
10062TIP3   OH230128   1.224   7.235   0.881
10062TIP3    H130129   1.142   7.277   0.855
10062TIP3    H230130   1.213   7.143   0.855
10063TIP3   OH230131   4.806   3.428   1.129
10063TIP3    H130132   4.895   3.438   1.094
10063TIP3    H230133   4.749   3.453   1.056
10064TIP3   OH230134   5.246   4.407   2.576
10064TIP3    H130135   5.341   4.410   2.583
10064TIP3    H230136   5.216   4.480   2.630
10065TIP3   OH230137   1.758   3.763   0.920
10065TIP3    H130138   1.793   3.837   0.970
10065TIP3    H230139   1.664   3.780   0.915
10066TIP3   OH230140   6.991   0.225   4.718
10066TIP3    H130141   6.970   0.314   4.745
10066TIP3    H230142   7.087   0.224   4.713
10067TIP3   OH230143   3.304   7.002  -0.007
10067TIP3    H130144   3.289   7.036   0.082
10067TIP3    H230145   3.308   7.080  -0.062
10068TIP3   OH230146   5.876   4.257   4.220
10068TIP3    H130147   5.883   4.297   4.133
10068TIP3    H230148   5.838   4.325   4.275
10069TIP3   OH230149   2.799   4.980   0.766
10069TIP3    H130150   2.739   4.905   0.761
10069TIP3    H230151   2.750   5.052   0.726
10070TIP3   OH230152   7.140   3.612   1.797
10070TIP3    H130153   7.172   3.533   1.753
10070TIP3    H230154   7.101   3.664   1.726
10071TIP3   OH230155   2.591   7.006   2.074
10071TIP3    H130156   2.572   6.912   2.078
10071TIP3    H230157   2.574   7.029   1.982
10072TIP3   OH230158   6.687   0.081   2.825
10072TIP3    H130159   6.691   0.172   2.795
10072TIP3    H230160   6.696   0.086   2.920
10073TIP3   OH230161   7.674  -0.003   1.257
10073TIP3    H130162   7.673   0.092   1.245
10073TIP3    H230163   7.738  -0.034   1.193
10074TIP3   OH230164   2.859   2.545   5.973
10074TIP3    H130165   2.846   2.637   5.949
10074TIP3    H230166   2.845   2.496   5.892
10075TIP3   OH230167   0.647   0.319   6.083
10075TIP3    H130168   0.673   0.289   6.170
10075TIP3    H230169   0.607   0.405   6.098
10076TIP3   OH230170   5.924   6.298   2.890
10076TIP3    H130171   6.013   6.323   2.915
10076TIP3    H230172   5.879   6.281   2.973
10077TIP3   OH230173   4.030   7.137   1.481
10077TIP3    H130174   4.092   7.210   1.478
10077TIP3    H230175   4.078   7.067   1.526
10078TIP3   OH230176   3.798   6.219   4.709
10078TIP3    H130177   3.809   6.309   4.680
10078TIP3    H230178   3.885   6.192   4.739
10079TIP3   OH230179   6.386   2.600   1.348
10079TIP3    H130180   6.366   2.630   1.437
10079TIP3    H230181   6.342   2.663   1.291
10080TIP3   OH230182   1.078   7.139   4.110
10080TIP3    H130183   1.170   7.137   4.083
10080TIP3    H230184   1.060   7.232   4.126
10081TIP3   OH230185   5.282   2.411   5.565
10081TIP3    H130186   5.322   2.459   5.493
10081TIP3    H230187   5.298   2.466   5.642
10082TIP3   OH230188   4.128   5.359   2.329
10082TIP3    H130189   4.124   5.355   2.425
10082TIP3    H230190   4.123   5.267   2.302
10083TIP3   OH230191   0.238   3.727   0.158
10083TIP3    H130192   0.157   3.745   0.207
10083TIP3    H230193   0.225   3.642   0.118
10084TIP3   OH230194   3.820   4.702   4.108
10084TIP3    H130195   3.842   4.779   4.054
10084TIP3    H230196   3.741   4.667   4.067
10085TIP3   OH230197   0.336   2.139   0.208
10085TIP3    H130198   0.415   2.186   0.234
10085TIP3    H230199   0.364   2.080   0.138
10086TIP3   OH230200   2.353   2.547   2.289
10086TIP3    H130201   2.324   2.564   2.378
10086TIP3    H230202   2.380   2.455   2.289
10087TIP3   OH230203   5.172   6.112   6.085
10087TIP3    H130204   5.105   6.141   6.023
10087TIP3    H230205   5.125   6.053   6.145
10088TIP3   OH230206   4.216   6.062   6.407
10088TIP3    H130207   4.212   6.085   6.500
10088TIP3    H230208   4.310   6.056   6.388
10089TIP3   OH230209   4.466   3.187   1.654
10089TIP3    H130210   4.523   3.262   1.635
10089TIP3    H230211   4.481   3.127   1.581
10090TIP3   OH230212   3.797   6.504   5.717
10090TIP3    H130213   3.725   6.566   5.706
10090TIP3    H230214   3.758   6.431   5.766
10091TIP3   OH230215   1.152   0.163   5.539
10091TIP3    H130216   1.126   0.161   5.447
10091TIP3    H230217   1.069   0.163   5.587
10092TIP3   OH230218   5.873   7.716   6.135
10092TIP3    H130219   5.872   7.791   6.075
10092TIP3    H230220   5.824   7.746   6.212
10093TIP3   OH230221   2.497   4.601   0.418
10093TIP3    H130222   2.443   4.524   0.398
10093TIP3    H230223   2.576   4.565   0.458
10094TIP3   OH230224   3.295   6.266   2.235
10094TIP3    H130225   3.222   6.253   2.295
10094TIP3    H230226   3.353   6.328   2.279
10095TIP3   OH230227   0.791   2.276   1.168
10095TIP3    H130228   0.845   2.197   1.157
10095TIP3    H230229   0.701   2.244   1.165
10096TIP3   OH230230   4.694   4.760   4.389
10096TIP3    H130231   4.653   4.687   4.342
10096TIP3    H230232   4.772   4.721   4.429
10097TIP3   OH230233   3.884   0.669   1.167
10097TIP3    H130234   3.792   0.693   1.179
10097TIP3    H230235   3.923   0.743   1.120
10098TIP3   OH230236   1.043   0.590   0.462
10098TIP3    H130237   1.097   0.525   0.507
10098TIP3    H230238   0.954   0.573   0.493
10099TIP3   OH230239   2.111   4.678   5.720
10099TIP3    H130240   2.170   4.626   5.776
10099TIP3    H230241   2.123   4.642   5.633
10100TIP3   OH230242   4.181   1.280   4.683
10100TIP3    H130243   4.151   1.269   4.593
10100TIP3    H230244   4.122   1.347   4.719
10101TIP3   OH230245   1.273   4.080   0.609
10101TIP3    H130246   1.361   4.117   0.609
10101TIP3    H230247   1.243   4.088   0.518
10102TIP3   OH230248   2.841   6.070   4.396
10102TIP3    H130249   2.842   6.162   4.421
10102TIP3    H230250   2.874   6.023   4.473
10103TIP3   OH230251   3.547   4.808   4.920
10103TIP3    H130252   3.508   4.868   4.983
10103TIP3    H230253   3.528   4.721   4.954
10104TIP3   OH230254   1.791   6.517   4.473
10104TIP3    H130255   1.716   6.502   4.415
10104TIP3    H230256   1.758   6.578   4.540
10105TIP3   OH230257   3.225   6.948   4.429
10105TIP3    H130258   3.266   6.896   4.360
10105TIP3    H230259   3.187   6.883   4.488
10106TIP3   OH230260   7.392   7.733   1.368
10106TIP3    H130261   7.312   7.766   1.408
10106TIP3    H230262   7.378   7.639   1.360
10107TIP3   OH230263   3.396   1.800   2.924
10107TIP3    H130264   3.366   1.891   2.922
10107TIP3    H230265   3.481   1.804   2.969
10108TIP3   OH230266   1.813   1.900   4.371
10108TIP3    H130267   1.741   1.861   4.320
10108TIP3    H230268   1.771   1.935   4.449
10109TIP3   OH230269   6.745   3.159   4.865
10109TIP3    H130270   6.680   3.107   4.913
10109TIP3    H230271   6.812   3.178   4.929
10110TIP3   OH230272   6.911   4.706   5.495
10110TIP3    H130273   6.964   4.785   5.496
10110TIP3    H230274   6.841   4.723   5.558
10111TIP3   OH230275   0.572   1.018   4.454
10111TIP3    H130276   0.486   0.976   4.460
10111TIP3    H230277   0.606   1.015   4.544
10112TIP3   OH230278   2.054   2.048   3.954
10112TIP3    H130279   2.086   1.969   3.999
10112TIP3    H230280   2.020   2.103   4.024
10113TIP3   OH230281   7.445   5.220   5.977
10113TIP3    H130282   7.459   5.252   5.888
10113TIP3    H230283   7.409   5.296   6.024
10114TIP3   OH230284   5.609   6.187   6.152
10114TIP3    H130285   5.703   6.173   6.165
10114TIP3    H230286   5.592   6.157   6.062
10115TIP3   OH230287   6.779   6.648   4.890
10115TIP3    H130288   6.725   6.721   4.860
10115TIP3    H230289   6.826   6.682   4.966
10116TIP3   OH230290   7.261   4.861   5.619
10116TIP3    H130291   7.174   4.834   5.647
10116TIP3    H230292   7.263   4.841   5.526
10117TIP3   OH230293   6.419   0.333   3.201
10117TIP3    H130294   6.434   0.273   3.128
10117TIP3    H230295   6.345   0.296   3.248
10118TIP3   OH230296   3.971   0.154   6.671
10118TIP3    H130297   3.945   0.185   6.757
10118TIP3    H230298   4.060   0.121   6.683
10119TIP3   OH230299   5.536   5.771   5.940
10119TIP3    H130300   5.526   5.699   6.003
10119TIP3    H230301   5.448   5.806   5.929
10120TIP3   OH230302   5.499   7.153   0.747
10120TIP3    H130303   5.550   7.094   0.803
10120TIP3    H230304   5.557   7.228   0.733
10121TIP3   OH230305   2.406   5.519   1.802
10121TIP3    H130306   2.398   5.613   1.793
10121TIP3    H230307   2.324   5.491   1.843
10122TIP3   OH230308   4.485   3.765   4.168
10122TIP3    H130309   4.526   3.851   4.172
10122TIP3    H230310   4.399   3.781   4.131
10123TIP3   OH230311   4.077   1.684   4.810
10123TIP3    H130312   4.110   1.757   4.758
10123TIP3    H230313   3.982   1.684   4.794
10124TIP3   OH230314   7.411   3.007   1.965
10124TIP3    H130315   7.364   3.083   1.931
10124TIP3    H230316   7.374   2.932   1.920
10125TIP3   OH230317   1.299   7.500   1.721
10125TIP3    H130318   1.227   7.551   1.759
10125TIP3    H230319   1.257   7.441   1.659
10126TIP3   OH230320   7.388   3.534   6.500
10126TIP3    H130321   7.450   3.486   6.445
10126TIP3    H230322   7.435   3.552   6.581
10127TIP3   OH230323   8.275   4.713   2.445
10127TIP3    H130324   8.346   4.743   2.388
10127TIP3    H230325   8.199   4.708   2.388
10128TIP3   OH230326   2.207   3.350   3.595
10128TIP3    H130327   2.187   3.373   3.686
10128TIP3    H230328   2.282   3.404   3.573
10129TIP3   OH230329   1.770   2.843   0.217
10129TIP3    H130330   1.770   2.866   0.310
10129TIP3    H230331   1.684   2.806   0.200
10130TIP3   OH230332   3.746   6.824   5.576
10130TIP3    H130333   3.705   6.750   5.622
10130TIP3    H230334   3.814   6.855   5.635
10131TIP3   OH230335   3.336   7.199   6.254
10131TIP3    H130336   3.266   7.136   6.235
10131TIP3    H230337   3.412   7.145   6.274
10132TIP3   OH230338   0.592   7.163   1.410
10132TIP3    H130339   0.508   7.194   1.444
10132TIP3    H230340   0.656   7.189   1.476
10133TIP3   OH230341   6.196   5.394   3.609
10133TIP3    H130342   6.235   5.455   3.548
10133TIP3    H230343   6.199   5.439   3.694
10134TIP3   OH230344   4.926   2.342   1.519
10134TIP3    H130345   4.861   2.288   1.475
10134TIP3    H230346   5.005   2.334   1.465
10135TIP3   OH230347   6.972   4.531   3.042
10135TIP3    H130348   6.944   4.442   3.060
10135TIP3    H230349   6.973   4.574   3.127
10136TIP3   OH230350   3.081   1.573   3.437
10136TIP3    H130351   3.061   1.488   3.398
10136TIP3    H230352   3.157   1.556   3.493
10137TIP3   OH230353   2.927   2.905   5.410
10137TIP3    H130354   2.834   2.883   5.400
10137TIP3    H230355   2.940   2.981   5.352
10138TIP3   OH230356   1.064   2.049   5.776
10138TIP3    H130357   1.018   2.105   5.839
10138TIP3    H230358   1.140   2.100   5.749
10139TIP3   OH230359   1.975   0.341   0.744
10139TIP3    H130360   1.987   0.257   0.699
10139TIP3    H230361   1.965   0.405   0.674
10140TIP3   OH230362   3.205   0.717   4.211
10140TIP3    H130363   3.119   0.708   4.252
10140TIP3    H230364   3.219   0.633   4.167
10141TIP3   OH230365   3.924   7.196   5.549
10141TIP3    H130366   3.907   7.279   5.504
10141TIP3    H230367   4.019   7.194   5.560
10142TIP3   OH230368   6.098   7.023   0.406
10142TIP3    H130369   6.082   6.965   0.480
10142TIP3    H230370   6.151   7.094   0.443
10143TIP3   OH230371   2.333   6.397   5.317
10143TIP3    H130372   2.413   6.446   5.297
10143TIP3    H230373   2.316   6.417   5.409
10144TIP3   OH230374   0.472   3.326   4.058
10144TIP3    H130375   0.435   3.340   3.970
10144TIP3    H230376   0.519   3.243   4.051
10145TIP3   OH230377   7.522   7.731   2.836
10145TIP3    H130378   7.571   7.791   2.781
10145TIP3    H230379   7.524   7.648   2.789
10146TIP3   OH230380   3.364   4.432   0.613
10146TIP3    H130381   3.326   4.359   0.564
10146TIP3    H230382   3.379   4.398   0.701
10147TIP3   OH230383   5.425   1.305   3.727
10147TIP3    H130384   5.489   1.237   3.746
10147TIP3    H230385   5.477   1.377   3.689
10148TIP3   OH230386   7.813   0.798   6.370
10148TIP3    H130387   7.824   0.881   6.417
10148TIP3    H230388   7.748   0.750   6.421
10149TIP3   OH230389   6.868   1.248   1.481
10149TIP3    H130390   6.807   1.271   1.411
10149TIP3    H230391   6.844   1.159   1.506
10150TIP3   OH230392   4.613   4.039   4.207
10150TIP3    H130393   4.690   4.077   4.164
10150TIP3    H230394   4.541   4.096   4.182
10151TIP3   OH230395   5.593   4.520   2.911
10151TIP3    H130396   5.674   4.470   2.926
10151TIP3    H230397   5.573   4.505   2.819
10152TIP3   OH230398   4.235   6.402   1.625
10152TIP3    H130399   4.272   6.338   1.687
10152TIP3    H230400   4.211   6.477   1.679
10153TIP3   OH230401   7.626   2.874   6.322
10153TIP3    H130402   7.663   2.799   6.276
10153TIP3    H230403   7.699   2.910   6.372
10154TIP3   OH230404   1.773   5.164   1.299
10154TIP3    H130405   1.698   5.104   1.291
10154TIP3    H230406   1.815   5.139   1.381
10155TIP3   OH230407   2.321   2.862   1.188
10155TIP3    H130408   2.416   2.863   1.179
10155TIP3    H230409   2.290   2.912   1.112
10156TIP3   OH230410   3.393   0.447   5.219
10156TIP3    H130411   3.412   0.359   5.187
10156TIP3    H230412   3.392   0.438   5.314
10157TIP3   OH230413   2.031   0.862   1.603
10157TIP3    H130414   2.054   0.773   1.577
10157TIP3    H230415   2.097   0.885   1.668
10158TIP3   OH230416   0.460   1.520   6.545
10158TIP3    H130417   0.527   1.576   6.505
10158TIP3    H230418   0.450   1.447   6.484
10159TIP3   OH230419   4.297   2.603   4.626
10159TIP3    H130420   4.289   2.618   4.532
10159TIP3    H230421   4.387   2.627   4.647
10160TIP3   OH230422   5.533   7.055   4.208
10160TIP3    H130423   5.461   6.992   4.211
10160TIP3    H230424   5.612   7.002   4.221
10161TIP3   OH230425   0.044   0.132   2.818
10161TIP3    H130426   0.062   0.161   2.908
10161TIP3    H230427   0.131   0.125   2.778
10162TIP3   OH230428   0.237   7.262   0.918
10162TIP3    H130429   0.267   7.353   0.905
10162TIP3    H230430   0.171   7.250   0.850
10163TIP3   OH230431   2.973   4.742   1.037
10163TIP3    H130432   2.887   4.752   1.079
10163TIP3    H230433   3.025   4.814   1.073
10164TIP3   OH230434   6.179   5.056   1.543
10164TIP3    H130435   6.227   5.054   1.626
10164TIP3    H230436   6.247   5.065   1.476
10165TIP3   OH230437   0.313   4.464   2.101
10165TIP3    H130438   0.280   4.415   2.176
10165TIP3    H230439   0.257   4.437   2.028
10166TIP3   OH230440   3.525   1.950   4.082
10166TIP3    H130441   3.606   1.921   4.041
10166TIP3    H230442   3.486   1.870   4.118
10167TIP3   OH230443   3.116   1.161   5.089
10167TIP3    H130444   3.116   1.067   5.071
10167TIP3    H230445   3.046   1.195   5.034
10168TIP3   OH230446   7.622   2.885   0.863
10168TIP3    H130447   7.548   2.946   0.863
10168TIP3    H230448   7.658   2.890   0.951
10169TIP3   OH230449   7.549   5.100   5.102
10169TIP3    H130450   7.543   5.195   5.104
10169TIP3    H230451   7.626   5.082   5.049
10170TIP3   OH230452   0.116   2.484   3.404
10170TIP3    H130453   0.133   2.558   3.463
10170TIP3    H230454   0.105   2.524   3.318
10171TIP3   OH230455   2.923   4.287   3.485
10171TIP3    H130456   2.999   4.341   3.505
10171TIP3    H230457   2.906   4.304   3.392
10172TIP3   OH230458   0.041   1.987   1.172
10172TIP3    H130459   0.095   2.056   1.211
10172TIP3    H230460  -0.047   2.006   1.203
10173TIP3   OH230461   4.961   3.936   0.343
10173TIP3    H130462   4.928   4.025   0.334
10173TIP3    H230463   4.911   3.898   0.415
10174TIP3   OH230464   5.833   7.581   0.145
10174TIP3    H130465   5.784   7.533   0.211
10174TIP3    H230466   5.884   7.645   0.195
10175TIP3   OH230467   4.536   1.123   2.198
10175TIP3    H130468   4.625   1.106   2.166
10175TIP3    H230469   4.517   1.048   2.255
10176TIP3   OH230470   0.808   3.967   3.770
10176TIP3    H130471   0.880   4.024   3.796
10176TIP3    H230472   0.835   3.879   3.799
10177TIP3   OH230473   5.902   2.073   3.589
10177TIP3    H130474   5.873   2.160   3.563
10177TIP3    H230475   5.921   2.029   3.506
10178TIP3   OH230476   3.548   3.604   2.578
10178TIP3    H130477   3.555   3.599   2.673
10178TIP3    H230478   3.474   3.546   2.556
10179TIP3   OH230479   1.804   1.886   2.489
10179TIP3    H130480   1.740   1.826   2.529
10179TIP3    H230481   1.815   1.853   2.400
10180TIP3   OH230482   7.675   4.661   3.492
10180TIP3    H130483   7.635   4.747   3.480
10180TIP3    H230484   7.602   4.599   3.490
10181TIP3   OH230485   4.156   1.825   5.090
10181TIP3    H130486   4.139   1.839   4.997
10181TIP3    H230487   4.073   1.795   5.126
10182TIP3   OH230488   7.644   2.717   3.947
10182TIP3    H130489   7.607   2.629   3.941
10182TIP3    H230490   7.645   2.749   3.857
10183TIP3   OH230491   7.020   2.252   5.843
10183TIP3    H130492   7.028   2.345   5.862
10183TIP3    H230493   7.063   2.241   5.758
10184TIP3   OH230494   0.557   1.265   1.563
10184TIP3    H130495   0.482   1.325   1.562
10184TIP3    H230496   0.591   1.267   1.473
10185TIP3   OH230497   3.354   1.929   2.530
10185TIP3    H130498   3.392   1.985   2.597
10185TIP3    H230499   3.384   1.841   2.552
10186TIP3   OH230500   7.360   5.238   2.380
10186TIP3    H130501   7.318   5.294   2.314
10186TIP3    H230502   7.441   5.210   2.339
10187TIP3   OH230503   3.152   0.074   2.182
10187TIP3    H130504   3.183   0.101   2.268
10187TIP3    H230505   3.224   0.023   2.145
10188TIP3   OH230506   2.971   4.331   3.221
10188TIP3    H130507   3.061   4.361   3.204
10188TIP3    H230508   2.969   4.242   3.185
10189TIP3   OH230509   5.232   5.376   6.268
10189TIP3    H130510   5.324   5.392   6.286
10189TIP3    H230511   5.208   5.443   6.204
10190TIP3   OH230512   1.827   3.593   2.849
10190TIP3    H130513   1.879   3.541   2.788
10190TIP3    H230514   1.745   3.545   2.858
10191TIP3   OH230515   1.042   6.404   6.218
10191TIP3    H130516   0.985   6.480   6.212
10191TIP3    H230517   1.129   6.438   6.199
10192TIP3   OH230518   1.708   6.655   5.599
10192TIP3    H130519   1.797   6.687   5.584
10192TIP3    H230520   1.718   6.561   5.614
10193TIP3   OH230521   7.482   4.339   6.068
10193TIP3    H130522   7.503   4.283   5.994
10193TIP3    H230523   7.524   4.423   6.048
10194TIP3   OH230524   6.406   3.671   2.609
10194TIP3    H130525   6.394   3.588   2.563
10194TIP3    H230526   6.366   3.736   2.551
10195TIP3   OH230527   0.599   6.006   6.618
10195TIP3    H130528   0.566   5.974   6.702
10195TIP3    H230529   0.578   5.936   6.556
10196TIP3   OH230530   6.630   2.762   0.521
10196TIP3    H130531   6.710   2.807   0.545
10196TIP3    H230532   6.603   2.803   0.439
10197TIP3   OH230533   7.365   7.235   4.945
10197TIP3    H130534   7.428   7.268   5.008
10197TIP3    H230535   7.401   7.150   4.916
10198TIP3   OH230536   5.971   0.552   2.495
10198TIP3    H130537   5.921   0.479   2.531
10198TIP3    H230538   6.050   0.555   2.548
10199TIP3   OH230539   0.075   1.954   3.503
10199TIP3    H130540   0.100   2.046   3.502
10199TIP3    H230541   0.094   1.922   3.415
10200TIP3   OH230542   6.568   4.364   2.491
10200TIP3    H130543   6.484   4.408   2.480
10200TIP3    H230544   6.604   4.359   2.402
10201TIP3   OH230545   4.872   3.899   0.615
10201TIP3    H130546   4.810   3.967   0.644
10201TIP3    H230547   4.855   3.825   0.673
10202TIP3   OH230548   1.646   2.247   4.494
10202TIP3    H130549   1.724   2.203   4.527
10202TIP3    H230550   1.678   2.329   4.458
10203TIP3   OH230551   6.959   4.307   2.423
10203TIP3    H130552   6.937   4.282   2.333
10203TIP3    H230553   6.893   4.264   2.476
10204TIP3   OH230554   0.480   2.505   4.889
10204TIP3    H130555   0.423   2.429   4.899
10204TIP3    H230556   0.557   2.471   4.843
10205TIP3   OH230557   1.300   4.293   6.221
10205TIP3    H130558   1.387   4.310   6.184
10205TIP3    H230559   1.309   4.312   6.314
10206TIP3   OH230560   0.952   0.883   6.416
10206TIP3    H130561   0.903   0.911   6.494
10206TIP3    H230562   1.016   0.952   6.402
10207TIP3   OH230563   5.699   6.960   3.522
10207TIP3    H130564   5.697   7.055   3.537
10207TIP3    H230565   5.754   6.950   3.444
10208TIP3   OH230566   2.845   7.500   2.489
10208TIP3    H130567   2.784   7.456   2.430
10208TIP3    H230568   2.849   7.443   2.566
10209TIP3   OH230569   6.877   6.846   5.698
10209TIP3    H130570   6.908   6.760   5.668
10209TIP3    H230571   6.791   6.856   5.657
10210TIP3   OH230572   2.185   4.349   3.900
10210TIP3    H130573   2.117   4.302   3.948
10210TIP3    H230574   2.226   4.405   3.965
10211TIP3   OH230575   0.942   2.118   4.689
10211TIP3    H130576   0.878   2.065   4.737
10211TIP3    H230577   1.021   2.065   4.689
10212TIP3   OH230578   5.011   6.255   0.682
10212TIP3    H130579   5.022   6.301   0.765
10212TIP3    H230580   4.916   6.246   0.672
10213TIP3   OH230581   0.601   1.074   2.443
10213TIP3    H130582   0.604   1.092   2.537
10213TIP3    H230583   0.555   0.990   2.436
10214TIP3   OH230584   6.429   1.043   2.114
10214TIP3    H130585   6.350   1.073   2.070
10214TIP3    H230586   6.487   1.014   2.043
10215TIP3   OH230587   1.738   4.197   5.711
10215TIP3    H130588   1.780   4.171   5.629
10215TIP3    H230589   1.745   4.120   5.767
10216TIP3   OH230590   0.656   5.816   0.737
10216TIP3    H130591   0.705   5.758   0.795
10216TIP3    H230592   0.637   5.893   0.791
10217TIP3   OH230593   4.664   1.313   5.119
10217TIP3    H130594   4.736   1.263   5.079
10217TIP3    H230595   4.587   1.258   5.106
10218TIP3   OH230596   4.701   3.047   2.658
10218TIP3    H130597   4.692   2.997   2.739
10218TIP3    H230598   4.656   2.994   2.592
10219TIP3   OH230599   0.403   1.045   2.704
10219TIP3    H130600   0.451   1.123   2.731
10219TIP3    H230601   0.413   0.984   2.778
10220TIP3   OH230602   0.737   6.501   1.481
10220TIP3    H130603   0.727   6.414   1.520
10220TIP3    H230604   0.649   6.526   1.453
10221TIP3   OH230605   3.643   1.790   5.796
10221TIP3    H130606   3.623   1.816   5.886
10221TIP3    H230607   3.569   1.734   5.771
10222TIP3   OH230608   7.252   7.526   3.040
10222TIP3    H130609   7.183   7.526   3.106
10222TIP3    H230610   7.225   7.593   2.977
10223TIP3   OH230611   7.548   4.290   5.362
10223TIP3    H130612   7.521   4.229   5.430
10223TIP3    H230613   7.482   4.360   5.364
10224TIP3   OH230614   5.473   2.749   6.037
10224TIP3    H130615   5.475   2.653   6.045
10224TIP3    H230616   5.554   2.777   6.080
10225TIP3   OH230617   0.501   0.355   4.201
10225TIP3    H130618   0.444   0.430   4.186
10225TIP3    H230619   0.588   0.385   4.173
10226TIP3   OH230620   3.308   1.052   0.646
10226TIP3    H130621   3.253   1.007   0.710
10226TIP3    H230622   3.272   1.140   0.641
10227TIP3   OH230623   0.822   6.204   4.188
10227TIP3    H130624   0.872   6.135   4.145
10227TIP3    H230625   0.849   6.285   4.145
10228TIP3   OH230626   3.608   4.939   2.099
10228TIP3    H130627   3.623   4.912   2.189
10228TIP3    H230628   3.512   4.944   2.091
10229TIP3   OH230629   4.429   6.225   4.383
10229TIP3    H130630   4.474   6.149   4.346
10229TIP3    H230631   4.389   6.268   4.307
10230TIP3   OH230632   6.567   6.223   3.714
10230TIP3    H130633   6.598   6.208   3.624
10230TIP3    H230634   6.472   6.211   3.708
10231TIP3   OH230635   4.222   4.778   5.097
10231TIP3    H130636   4.191   4.827   5.021
10231TIP3    H230637   4.244   4.692   5.062
10232TIP3   OH230638   2.283   0.099   0.902
10232TIP3    H130639   2.245   0.181   0.934
10232TIP3    H230640   2.300   0.115   0.809
10233TIP3   OH230641   5.076   5.808   3.949
10233TIP3    H130642   5.118   5.732   3.911
10233TIP3    H230643   5.127   5.826   4.028
10234TIP3   OH230644   5.206   2.761   5.666
10234TIP3    H130645   5.270   2.706   5.710
10234TIP3    H230646   5.256   2.837   5.637
10235TIP3   OH230647   1.811   5.909   1.759
10235TIP3    H130648   1.887   5.966   1.767
10235TIP3    H230649   1.757   5.929   1.835
10236TIP3   OH230650   0.756   6.221   2.505
10236TIP3    H130651   0.776   6.245   2.596
10236TIP3    H230652   0.661   6.220   2.501
10237TIP3   OH230653   1.220   1.025   6.281
10237TIP3    H130654   1.249   0.941   6.245
10237TIP3    H230655   1.219   1.012   6.375
10238TIP3   OH230656   3.090   0.231   2.763
10238TIP3    H130657   3.085   0.136   2.752
10238TIP3    H230658   3.006   0.264   2.731
10239TIP3   OH230659   1.738   3.004   5.941
10239TIP3    H130660   1.716   3.012   6.034
10239TIP3    H230661   1.786   2.922   5.934
10240TIP3   OH230662   7.438   3.716   6.713
10240TIP3    H130663   7.395   3.794   6.677
10240TIP3    H230664   7.490   3.749   6.786
10241TIP3   OH230665   5.145   0.776   4.288
10241TIP3    H130666   5.197   0.776   4.368
10241TIP3    H230667   5.107   0.688   4.283
10242TIP3   OH230668   1.813   0.574   2.850
10242TIP3    H130669   1.724   0.588   2.882
10242TIP3    H230670   1.804   0.564   2.755
10243TIP3   OH230671   2.869   2.785   2.721
10243TIP3    H130672   2.935   2.744   2.777
10243TIP3    H230673   2.829   2.852   2.776
10244TIP3   OH230674   0.343   0.539   4.735
10244TIP3    H130675   0.428   0.494   4.733
10244TIP3    H230676   0.329   0.559   4.827
10245TIP3   OH230677   0.999   5.066   5.332
10245TIP3    H130678   1.028   5.144   5.283
10245TIP3    H230679   1.073   5.006   5.326
10246TIP3   OH230680   2.358   4.031   0.723
10246TIP3    H130681   2.392   4.077   0.800
10246TIP3    H230682   2.434   3.986   0.686
10247TIP3   OH230683   8.146   1.509   1.521
10247TIP3    H130684   8.199   1.430   1.531
10247TIP3    H230685   8.055   1.477   1.519
10248TIP3   OH230686   3.954   3.779   3.742
10248TIP3    H130687   3.994   3.865   3.737
10248TIP3    H230688   4.027   3.718   3.747
10249TIP3   OH230689   2.449   0.059   5.370
10249TIP3    H130690   2.460   0.123   5.299
10249TIP3    H230691   2.499  -0.017   5.342
10250TIP3   OH230692   6.780   6.377   3.796
10250TIP3    H130693   6.801   6.423   3.715
10250TIP3    H230694   6.702   6.326   3.776
10251TIP3   OH230695   3.354   1.193   1.633
10251TIP3    H130696   3.275   1.157   1.593
10251TIP3    H230697   3.322   1.239   1.711
10252TIP3   OH230698   1.384   5.827   3.820
10252TIP3    H130699   1.394   5.917   3.789
10252TIP3    H230700   1.416   5.828   3.910
10253TIP3   OH230701   2.561   1.291   0.792
10253TIP3    H130702   2.534   1.235   0.720
10253TIP3    H230703   2.486   1.349   0.807
10254TIP3   OH230704   3.410   0.388   1.329
10254TIP3    H130705   3.376   0.319   1.272
10254TIP3    H230706   3.503   0.391   1.309
10255TIP3   OH230707   1.744   5.697   1.201
10255TIP3    H130708   1.795   5.680   1.280
10255TIP3    H230709   1.721   5.610   1.169
10256TIP3   OH230710   0.479   1.728   4.949
10256TIP3    H130711   0.532   1.654   4.980
10256TIP3    H230712   0.404   1.730   5.008
10257TIP3   OH230713   2.128   5.696   2.906
10257TIP3    H130714   2.088   5.651   2.831
10257TIP3    H230715   2.069   5.680   2.979
10258TIP3   OH230716   0.501   1.299   6.245
10258TIP3    H130717   0.569   1.311   6.178
10258TIP3    H230718   0.432   1.361   6.219
10259TIP3   OH230719   2.870   6.591   1.063
10259TIP3    H130720   2.935   6.622   1.126
10259TIP3    H230721   2.791   6.640   1.084
10260TIP3   OH230722   6.448   6.660   4.635
10260TIP3    H130723   6.454   6.675   4.730
10260TIP3    H230724   6.358   6.684   4.613
10261TIP3   OH230725   1.767   7.008   5.226
10261TIP3    H130726   1.716   6.964   5.159
10261TIP3    H230727   1.728   7.095   5.232
10262TIP3   OH230728   3.705   7.373   1.907
10262TIP3    H130729   3.674   7.348   1.820
10262TIP3    H230730   3.658   7.454   1.926
10263TIP3   OH230731   0.131   7.128   2.580
10263TIP3    H130732   0.196   7.155   2.515
10263TIP3    H230733   0.128   7.033   2.572
10264TIP3   OH230734   0.163   3.266   4.431
10264TIP3    H130735   0.247   3.255   4.476
10264TIP3    H230736   0.187   3.275   4.339
10265TIP3   OH230737   8.253   0.911   2.921
10265TIP3    H130738   8.273   0.944   3.009
10265TIP3    H230739   8.294   0.825   2.918
10266TIP3   OH230740   5.039   7.371   2.168
10266TIP3    H130741   5.001   7.459   2.160
10266TIP3    H230742   5.034   7.352   2.261
10267TIP3   OH230743   0.878   5.607   0.184
10267TIP3    H130744   0.853   5.686   0.136
10267TIP3    H230745   0.831   5.614   0.267
10268TIP3   OH230746   7.440   0.302   5.015
10268TIP3    H130747   7.363   0.304   5.072
10268TIP3    H230748   7.514   0.292   5.075
10269TIP3   OH230749   6.340   0.861   4.116
10269TIP3    H130750   6.403   0.789   4.105
10269TIP3    H230751   6.370   0.929   4.056
10270TIP3   OH230752   2.443   3.327   2.279
10270TIP3    H130753   2.399   3.329   2.364
10270TIP3    H230754   2.536   3.314   2.300
10271TIP3   OH230755   5.521   2.547   6.424
10271TIP3    H130756   5.483   2.463   6.400
10271TIP3    H230757   5.446   2.605   6.436
10272TIP3   OH230758   2.831   4.275   3.766
10272TIP3    H130759   2.914   4.311   3.735
10272TIP3    H230760   2.826   4.299   3.858
10273TIP3   OH230761   7.081   2.223   2.478
10273TIP3    H130762   7.064   2.182   2.393
10273TIP3    H230763   7.139   2.161   2.523
10274TIP3   OH230764   7.583   0.438   3.237
10274TIP3    H130765   7.639   0.497   3.288
10274TIP3    H230766   7.500   0.436   3.285
10275TIP3   OH230767   8.047   5.730   4.579
10275TIP3    H130768   8.008   5.697   4.498
10275TIP3    H230769   7.993   5.805   4.603
10276TIP3   OH230770   5.319   4.002   6.468
10276TIP3    H130771   5.391   3.950   6.430
10276TIP3    H230772   5.300   3.959   6.551
10277TIP3   OH230773   6.434   6.398   0.313
10277TIP3    H130774   6.462   6.423   0.225
10277TIP3    H230775   6.502   6.433   0.371
10278TIP3   OH230776   0.280   2.921   4.177
10278TIP3    H130777   0.241   2.846   4.221
10278TIP3    H230778   0.285   2.896   4.085
10279TIP3   OH230779   7.235   7.486   5.126
10279TIP3    H130780   7.269   7.430   5.196
10279TIP3    H230781   7.249   7.575   5.158
10280TIP3   OH230782   5.692   5.124   6.412
10280TIP3    H130783   5.748   5.145   6.486
10280TIP3    H230784   5.718   5.187   6.344
10281TIP3   OH230785   6.903   1.501   4.068
10281TIP3    H130786   6.939   1.582   4.032
10281TIP3    H230787   6.838   1.473   4.004
10282TIP3   OH230788   4.130   4.400   1.548
10282TIP3    H130789   4.041   4.368   1.564
10282TIP3    H230790   4.179   4.321   1.521
10283TIP3   OH230791   5.601   3.524   6.106
10283TIP3    H130792   5.695   3.521   6.090
10283TIP3    H230793   5.591   3.494   6.196
10284TIP3   OH230794   6.261   1.673   0.876
10284TIP3    H130795   6.197   1.668   0.805
10284TIP3    H230796   6.242   1.755   0.921
10285TIP3   OH230797   1.090   6.404   0.308
10285TIP3    H130798   1.004   6.393   0.268
10285TIP3    H230799   1.073   6.406   0.402
10286TIP3   OH230800   7.660   3.579   5.612
10286TIP3    H130801   7.733   3.607   5.667
10286TIP3    H230802   7.681   3.489   5.588
10287TIP3   OH230803   0.744   7.240   0.003
10287TIP3    H130804   0.711   7.326   0.029
10287TIP3    H230805   0.820   7.258  -0.052
10288TIP3   OH230806   3.565   5.724   6.528
10288TIP3    H130807   3.493   5.727   6.465
10288TIP3    H230808   3.628   5.787   6.494
10289TIP3   OH230809   5.179   6.244   6.444
10289TIP3    H130810   5.243   6.209   6.382
10289TIP3    H230811   5.215   6.329   6.470
10290TIP3   OH230812   7.809   6.535   2.296
10290TIP3    H130813   7.769   6.448   2.298
10290TIP3    H230814   7.848   6.541   2.209
10291TIP3   OH230815   1.952   1.385   1.806
10291TIP3    H130816   1.894   1.362   1.734
10291TIP3    H230817   1.985   1.301   1.838
10292TIP3   OH230818   6.383   1.123   1.054
10292TIP3    H130819   6.304   1.176   1.057
10292TIP3    H230820   6.352   1.035   1.030
10293TIP3   OH230821   2.733   1.533   3.105
10293TIP3    H130822   2.783   1.562   3.181
10293TIP3    H230823   2.793   1.542   3.031
10294TIP3   OH230824   1.863   2.568   3.398
10294TIP3    H130825   1.862   2.645   3.455
10294TIP3    H230826   1.941   2.579   3.344
10295TIP3   OH230827   8.009   6.541   1.190
10295TIP3    H130828   8.003   6.635   1.174
10295TIP3    H230829   8.020   6.502   1.103
10296TIP3   OH230830   3.559   2.576   4.627
10296TIP3    H130831   3.614   2.591   4.704
10296TIP3    H230832   3.517   2.491   4.643
10297TIP3   OH230833   4.544   3.589   2.403
10297TIP3    H130834   4.605   3.529   2.362
10297TIP3    H230835   4.601   3.652   2.449
10298TIP3   OH230836   1.343   4.847   6.441
10298TIP3    H130837   1.323   4.939   6.428
10298TIP3    H230838   1.439   4.844   6.449
10299TIP3   OH230839   4.644   6.725   2.029
10299TIP3    H130840   4.572   6.663   2.013
10299TIP3    H230841   4.600   6.808   2.048
10300TIP3   OH230842   2.579   1.907   3.230
10300TIP3    H130843   2.672   1.924   3.246
10300TIP3    H230844   2.576   1.877   3.139
10301TIP3   OH230845   3.467   6.901   5.614
10301TIP3    H130846   3.408   6.862   5.550
10301TIP3    H230847   3.554   6.873   5.587
10302TIP3   OH230848   5.958   3.490   2.228
10302TIP3    H130849   5.944   3.579   2.194
10302TIP3    H230850   5.882   3.441   2.196
10303TIP3   OH230851   8.141   7.717   6.280
10303TIP3    H130852   8.210   7.684   6.338
10303TIP3    H230853   8.091   7.777   6.335
10304TIP3   OH230854   7.962   3.657   2.024
10304TIP3    H130855   7.910   3.578   2.006
10304TIP3    H230856   7.909   3.729   1.989
10305TIP3   OH230857   5.063   0.191   1.798
10305TIP3    H130858   5.053   0.096   1.791
10305TIP3    H230859   5.155   0.207   1.776
10306TIP3   OH230860   2.087   6.960   0.346
10306TIP3    H130861   2.113   6.899   0.415
10306TIP3    H230862   2.166   7.009   0.326
10307TIP3   OH230863   7.287   2.031   6.082
10307TIP3    H130864   7.342   1.988   6.147
10307TIP3    H230865   7.201   1.990   6.092
10308TIP3   OH230866   2.506   0.985   3.326
10308TIP3    H130867   2.461   0.947   3.401
10308TIP3    H230868   2.507   1.079   3.343
10309TIP3   OH230869   7.884   5.283   2.657
10309TIP3    H130870   7.863   5.217   2.723
10309TIP3    H230871   7.961   5.249   2.612
10310TIP3   OH230872   2.906   5.985   3.532
10310TIP3    H130873   2.913   5.910   3.473
10310TIP3    H230874   2.940   6.059   3.481
10311TIP3   OH230875   3.861   4.527   4.918
10311TIP3    H130876   3.894   4.502   5.004
10311TIP3    H230877   3.884   4.454   4.861
10312TIP3   OH230878   3.408   4.257   4.613
10312TIP3    H130879   3.344   4.245   4.683
10312TIP3    H230880   3.360   4.304   4.544
10313TIP3   OH230881   1.922   7.281   5.026
10313TIP3    H130882   1.903   7.316   5.113
10313TIP3    H230883   1.993   7.336   4.993
10314TIP3   OH230884   3.274   5.876   4.765
10314TIP3    H130885   3.243   5.930   4.838
10314TIP3    H230886   3.344   5.928   4.726
10315TIP3   OH230887   1.649   7.249   1.922
10315TIP3    H130888   1.691   7.259   1.836
10315TIP3    H230889   1.636   7.154   1.931
10316TIP3   OH230890   0.164   3.838   2.515
10316TIP3    H130891   0.168   3.856   2.421
10316TIP3    H230892   0.196   3.748   2.523
10317TIP3   OH230893   5.156   1.421   1.572
10317TIP3    H130894   5.135   1.328   1.568
10317TIP3    H230895   5.207   1.437   1.493
10318TIP3   OH230896   3.324   3.927   5.460
10318TIP3    H130897   3.285   4.010   5.435
10318TIP3    H230898   3.339   3.881   5.377
10319TIP3   OH230899   3.742   0.671   5.265
10319TIP3    H130900   3.834   0.693   5.277
10319TIP3    H230901   3.706   0.672   5.354
10320TIP3   OH230902   1.351   7.278   5.051
10320TIP3    H130903   1.257   7.287   5.065
10320TIP3    H230904   1.374   7.193   5.091
10321TIP3   OH230905   1.424   1.067   6.067
10321TIP3    H130906   1.366   1.101   6.135
10321TIP3    H230907   1.500   1.034   6.115
10322TIP3   OH230908   3.996   3.095   3.323
10322TIP3    H130909   4.069   3.142   3.364
10322TIP3    H230910   4.022   3.087   3.231
10323TIP3   OH230911   2.172   6.968   1.490
10323TIP3    H130912   2.102   7.022   1.453
10323TIP3    H230913   2.204   7.019   1.564
10324TIP3   OH230914   6.352   4.710   4.355
10324TIP3    H130915   6.355   4.732   4.262
10324TIP3    H230916   6.259   4.697   4.374
10325TIP3   OH230917   2.254   4.335   0.763
10325TIP3    H130918   2.166   4.308   0.736
10325TIP3    H230919   2.240   4.408   0.822
10326TIP3   OH230920   7.833   2.596   6.020
10326TIP3    H130921   7.898   2.653   5.979
10326TIP3    H230922   7.771   2.577   5.950
10327TIP3   OH230923   3.422   7.345   0.186
10327TIP3    H130924   3.378   7.266   0.154
10327TIP3    H230925   3.503   7.313   0.225
10328TIP3   OH230926   0.610   3.860   2.919
10328TIP3    H130927   0.583   3.769   2.912
10328TIP3    H230928   0.574   3.889   3.003
10329TIP3   OH230929   8.038   2.388   5.076
10329TIP3    H130930   8.012   2.304   5.114
10329TIP3    H230931   7.955   2.431   5.054
10330TIP3   OH230932   4.631   7.099   6.312
10330TIP3    H130933   4.718   7.060   6.317
10330TIP3    H230934   4.571   7.026   6.322
10331TIP3   OH230935   3.931   4.273   1.289
10331TIP3    H130936   3.869   4.207   1.319
10331TIP3    H230937   4.017   4.231   1.295
10332TIP3   OH230938   2.758   7.775   4.399
10332TIP3    H130939   2.797   7.811   4.480
10332TIP3    H230940   2.743   7.852   4.344
10333TIP3   OH230941   6.175   6.426   1.526
10333TIP3    H130942   6.196   6.335   1.506
10333TIP3    H230943   6.083   6.424   1.552
10334TIP3   OH230944   8.313   4.300   3.990
10334TIP3    H130945   8.226   4.335   3.970
10334TIP3    H230946   8.306   4.207   3.968
10335TIP3   OH230947   4.559   7.184   6.568
10335TIP3    H130948   4.603   7.176   6.483
10335TIP3    H230949   4.467   7.197   6.547
10336TIP3   OH230950   3.005   1.311   3.419
10336TIP3    H130951   2.930   1.252   3.415
10336TIP3    H230952   3.026   1.319   3.512
10337TIP3   OH230953   3.593   7.168   2.238
10337TIP3    H130954   3.677   7.202   2.208
10337TIP3    H230955   3.552   7.132   2.159
10338TIP3   OH230956   4.968   6.314   0.967
10338TIP3    H130957   4.877   6.284   0.963
10338TIP3    H230958   4.961   6.408   0.988
10339TIP3   OH230959   5.007   2.232   0.266
10339TIP3    H130960   4.971   2.160   0.213
10339TIP3    H230961   5.001   2.201   0.356
10340TIP3   OH230962   0.281   2.135   1.820
10340TIP3    H130963   0.191   2.165   1.812
10340TIP3    H230964   0.313   2.178   1.900
10341TIP3   OH230965   7.023   5.549   2.503
10341TIP3    H130966   7.113   5.572   2.526
10341TIP3    H230967   6.981   5.634   2.487
10342TIP3   OH230968   3.264   1.438   1.176
10342TIP3    H130969   3.350   1.437   1.134
10342TIP3    H230970   3.203   1.462   1.106
10343TIP3   OH230971   2.220   3.504   5.873
10343TIP3    H130972   2.181   3.455   5.801
10343TIP3    H230973   2.204   3.449   5.950
10344TIP3   OH230974   4.235   1.508   3.121
10344TIP3    H130975   4.230   1.487   3.028
10344TIP3    H230976   4.144   1.505   3.151
10345TIP3   OH230977   2.452   3.445   4.426
10345TIP3    H130978   2.391   3.514   4.453
10345TIP3    H230979   2.501   3.424   4.506
10346TIP3   OH230980   4.352   6.249   2.963
10346TIP3    H130981   4.358   6.154   2.962
10346TIP3    H230982   4.395   6.277   2.883
10347TIP3   OH230983   2.077   3.358   2.903
10347TIP3    H130984   2.091   3.332   2.994
10347TIP3    H230985   2.156   3.329   2.857
10348TIP3   OH230986   6.581   2.449   6.480
10348TIP3    H130987   6.641   2.493   6.541
10348TIP3    H230988   6.502   2.436   6.531
10349TIP3   OH230989   2.844   3.092   3.989
10349TIP3    H130990   2.935   3.114   4.008
10349TIP3    H230991   2.827   3.012   4.038
10350TIP3   OH230992   1.978   6.877   4.485
10350TIP3    H130993   1.931   6.960   4.479
10350TIP3    H230994   1.980   6.857   4.578
10351TIP3   OH230995   2.614   1.338   3.323
10351TIP3    H130996   2.632   1.319   3.231
10351TIP3    H230997   2.681   1.403   3.347
10352TIP3   OH230998   6.141   6.961   6.281
10352TIP3    H130999   6.164   7.053   6.263
10352TIP3    H231000   6.201   6.935   6.350
10353TIP3   OH231001   7.877   1.098   0.170
10353TIP3    H131002   7.875   1.095   0.075
10353TIP3    H231003   7.813   1.165   0.194
10354TIP3   OH231004   1.085   4.329   4.709
10354TIP3    H131005   1.117   4.406   4.663
10354TIP3    H231006   1.036   4.363   4.784
10355TIP3   OH231007   1.963   5.145   0.506
10355TIP3    H131008   2.050   5.105   0.503
10355TIP3    H231009   1.904   5.072   0.525
10356TIP3   OH231010   8.222   5.502   1.538
10356TIP3    H131011   8.150   5.546   1.584
10356TIP3    H231012   8.273   5.574   1.501
10357TIP3   OH231013   5.567   7.600   5.640
10357TIP3    H131014   5.597   7.604   5.731
10357TIP3    H231015   5.526   7.514   5.631
10358TIP3   OH231016   4.926   1.199   2.884
10358TIP3    H131017   4.955   1.289   2.901
10358TIP3    H231018   5.007   1.151   2.867
10359TIP3   OH231019   7.326   0.844   5.552
10359TIP3    H131020   7.397   0.787   5.522
10359TIP3    H231021   7.247   0.806   5.513
10360TIP3   OH231022   6.141   0.438   3.080
10360TIP3    H131023   6.096   0.479   3.154
10360TIP3    H231024   6.125   0.345   3.091
10361TIP3   OH231025   2.002   5.562   3.548
10361TIP3    H131026   2.024   5.612   3.469
10361TIP3    H231027   1.930   5.611   3.587
10362TIP3   OH231028   0.030   4.620   2.004
10362TIP3    H131029  -0.060   4.649   1.989
10362TIP3    H231030   0.084   4.694   1.974
10363TIP3   OH231031   5.601   2.254   4.383
10363TIP3    H131032   5.675   2.313   4.369
10363TIP3    H231033   5.615   2.183   4.321
10364TIP3   OH231034   7.783   5.611   4.129
10364TIP3    H131035   7.855   5.657   4.172
10364TIP3    H231036   7.734   5.680   4.083
10365TIP3   OH231037   7.763   4.220   6.664
10365TIP3    H131038   7.854   4.198   6.684
10365TIP3    H231039   7.732   4.267   6.741
10366TIP3   OH231040   7.227   6.516   5.050
10366TIP3    H131041   7.314   6.487   5.021
10366TIP3    H231042   7.177   6.436   5.063
10367TIP3   OH231043   7.778   0.604   3.376
10367TIP3    H131044   7.744   0.693   3.382
10367TIP3    H231045   7.873   0.615   3.363
10368TIP3   OH231046   7.376   6.654   0.647
10368TIP3    H131047   7.426   6.627   0.571
10368TIP3    H231048   7.441   6.682   0.711
10369TIP3   OH231049   3.015   7.817   0.472
10369TIP3    H131050   3.088   7.782   0.522
10369TIP3    H231051   3.054   7.880   0.412
10370TIP3   OH231052   1.095   4.399   2.597
10370TIP3    H131053   1.124   4.329   2.538
10370TIP3    H231054   1.065   4.353   2.676
10371TIP3   OH231055   6.633   6.903   5.601
10371TIP3    H131056   6.599   6.839   5.539
10371TIP3    H231057   6.592   6.986   5.575
10372TIP3   OH231058   3.302   3.785   6.115
10372TIP3    H131059   3.227   3.844   6.123
10372TIP3    H231060   3.299   3.732   6.195
10373TIP3   OH231061   3.628   6.716   0.728
10373TIP3    H131062   3.555   6.688   0.673
10373TIP3    H231063   3.676   6.779   0.675
10374TIP3   OH231064   0.322   5.891   1.163
10374TIP3    H131065   0.304   5.804   1.200
10374TIP3    H231066   0.389   5.928   1.220
10375TIP3   OH231067   0.180   4.458   4.498
10375TIP3    H131068   0.252   4.426   4.446
10375TIP3    H231069   0.146   4.381   4.544
10376TIP3   OH231070   6.015   2.034   5.039
10376TIP3    H131071   6.020   2.095   5.113
10376TIP3    H231072   5.991   1.950   5.078
10377TIP3   OH231073   2.897   7.609   3.120
10377TIP3    H131074   2.960   7.580   3.054
10377TIP3    H231075   2.924   7.698   3.142
10378TIP3   OH231076   4.331   0.907   2.673
10378TIP3    H131077   4.369   0.991   2.699
10378TIP3    H231078   4.273   0.883   2.745
10379TIP3   OH231079   4.937   7.295   1.713
10379TIP3    H131080   4.904   7.356   1.778
10379TIP3    H231081   5.031   7.312   1.709
10380TIP3   OH231082   0.119   0.317   1.203
10380TIP3    H131083   0.159   0.258   1.267
10380TIP3    H231084   0.192   0.353   1.153
10381TIP3   OH231085   3.606   3.171   4.454
10381TIP3    H131086   3.641   3.250   4.495
10381TIP3    H231087   3.674   3.105   4.465
10382TIP3   OH231088   4.453   5.769   4.957
10382TIP3    H131089   4.494   5.840   4.907
10382TIP3    H231090   4.378   5.742   4.903
10383TIP3   OH231091   6.096   4.420   3.927
10383TIP3    H131092   6.053   4.368   3.859
10383TIP3    H231093   6.190   4.414   3.907
10384TIP3   OH231094   6.329   4.520   2.474
10384TIP3    H131095   6.307   4.610   2.450
10384TIP3    H231096   6.263   4.496   2.538
10385TIP3   OH231097   5.650   6.600   2.626
10385TIP3    H131098   5.662   6.687   2.663
10385TIP3    H231099   5.594   6.554   2.689
10386TIP3   OH231100   3.855   2.605   0.857
10386TIP3    H131101   3.784   2.650   0.811
10386TIP3    H231102   3.891   2.545   0.792
10387TIP3   OH231103   2.985   7.089   0.802
10387TIP3    H131104   2.958   7.142   0.727
10387TIP3    H231105   3.072   7.122   0.824
10388TIP3   OH231106   2.959   2.306   2.029
10388TIP3    H131107   3.015   2.233   2.007
10388TIP3    H231108   2.898   2.313   1.955
10389TIP3   OH231109   3.230   6.605   2.298
10389TIP3    H131110   3.171   6.581   2.370
10389TIP3    H231111   3.316   6.611   2.338
10390TIP3   OH231112   7.134   0.378   3.585
10390TIP3    H131113   7.080   0.411   3.513
10390TIP3    H231114   7.222   0.372   3.547
10391TIP3   OH231115   7.036   3.013   0.467
10391TIP3    H131116   7.115   3.063   0.489
10391TIP3    H231117   7.063   2.922   0.473
10392TIP3   OH231118   8.309   2.039   1.793
10392TIP3    H131119   8.226   1.991   1.798
10392TIP3    H231120   8.358   1.994   1.723
10393TIP3   OH231121   5.110   6.654   2.829
10393TIP3    H131122   5.167   6.725   2.800
10393TIP3    H231123   5.035   6.697   2.869
10394TIP3   OH231124   3.203   5.889   6.749
10394TIP3    H131125   3.223   5.807   6.703
10394TIP3    H231126   3.245   5.957   6.696
10395TIP3   OH231127   7.899   0.308   3.540
10395TIP3    H131128   7.930   0.227   3.499
10395TIP3    H231129   7.886   0.369   3.466
10396TIP3   OH231130   5.747   2.443   2.865
10396TIP3    H131131   5.693   2.500   2.811
10396TIP3    H231132   5.731   2.355   2.831
10397TIP3   OH231133   1.083   1.927   0.734
10397TIP3    H131134   1.046   2.005   0.774
10397TIP3    H231135   1.157   1.959   0.682
10398TIP3   OH231136   2.376   6.033   0.996
10398TIP3    H131137   2.310   5.972   0.964
10398TIP3    H231138   2.368   6.030   1.091
10399TIP3   OH231139   6.438   2.683   0.903
10399TIP3    H131140   6.484   2.765   0.885
10399TIP3    H231141   6.475   2.621   0.841
10400TIP3   OH231142   5.134   4.430   2.084
10400TIP3    H131143   5.070   4.362   2.105
10400TIP3    H231144   5.208   4.412   2.143
10401TIP3   OH231145   8.062   6.411   0.965
10401TIP3    H131146   8.003   6.337   0.950
10401TIP3    H231147   8.139   6.391   0.912
10402TIP3   OH231148   3.607   5.596   3.163
10402TIP3    H131149   3.560   5.552   3.234
10402TIP3    H231150   3.672   5.532   3.134
10403TIP3   OH231151   7.691   7.003   6.136
10403TIP3    H131152   7.704   7.065   6.208
10403TIP3    H231153   7.671   6.920   6.179
10404TIP3   OH231154   5.451   5.100   6.110
10404TIP3    H131155   5.393   5.142   6.047
10404TIP3    H231156   5.508   5.045   6.057
10405TIP3   OH231157   3.891   5.471   2.042
10405TIP3    H131158   3.910   5.378   2.052
10405TIP3    H231159   3.820   5.474   1.977
10406TIP3   OH231160   2.880   0.981   6.681
10406TIP3    H131161   2.935   1.044   6.635
10406TIP3    H231162   2.927   0.961   6.762
10407TIP3   OH231163   3.211   7.006   1.882
10407TIP3    H131164   3.166   7.071   1.827
10407TIP3    H231165   3.192   7.034   1.972
10408TIP3   OH231166   5.338   6.132   3.779
10408TIP3    H131167   5.267   6.115   3.840
10408TIP3    H231168   5.295   6.145   3.694
10409TIP3   OH231169   6.710   1.012   0.997
10409TIP3    H131170   6.722   0.933   0.944
10409TIP3    H231171   6.625   1.000   1.038
10410TIP3   OH231172   1.202   0.517   1.575
10410TIP3    H131173   1.221   0.600   1.532
10410TIP3    H231174   1.150   0.468   1.511
10411TIP3   OH231175   6.802   2.531   6.614
10411TIP3    H131176   6.839   2.606   6.661
10411TIP3    H231177   6.870   2.463   6.620
10412TIP3   OH231178   3.573   0.094   6.708
10412TIP3    H131179   3.582   0.044   6.627
10412TIP3    H231180   3.581   0.186   6.681
10413TIP3   OH231181   1.529   0.131   5.835
10413TIP3    H131182   1.496   0.112   5.747
10413TIP3    H231183   1.545   0.226   5.834
10414TIP3   OH231184   5.051   1.883   1.580
10414TIP3    H131185   5.015   1.795   1.567
10414TIP3    H231186   4.974   1.939   1.588
10415TIP3   OH231187   3.107   5.492   6.364
10415TIP3    H131188   3.049   5.551   6.317
10415TIP3    H231189   3.103   5.410   6.316
10416TIP3   OH231190   2.294  -0.047   6.501
10416TIP3    H131191   2.202  -0.031   6.521
10416TIP3    H231192   2.293  -0.084   6.412
10417TIP3   OH231193   1.131   7.740   1.012
10417TIP3    H131194   1.042   7.737   0.976
10417TIP3    H231195   1.188   7.735   0.935
10418TIP3   OH231196   2.831   0.836   2.571
10418TIP3    H131197   2.793   0.896   2.635
10418TIP3    H231198   2.914   0.877   2.546
10419TIP3   OH231199   8.232   5.601   1.934
10419TIP3    H131200   8.254   5.546   1.859
10419TIP3    H231201   8.143   5.578   1.956
10420TIP3   OH231202   3.372   0.948   5.256
10420TIP3    H131203   3.371   1.041   5.230
10420TIP3    H231204   3.350   0.949   5.349
10421TIP3   OH231205   7.545   1.873   0.686
10421TIP3    H131206   7.624   1.831   0.721
10421TIP3    H231207   7.564   1.886   0.593
10422TIP3   OH231208   0.406   5.856   4.783
10422TIP3    H131209   0.412   5.929   4.721
10422TIP3    H231210   0.456   5.785   4.743
10423TIP3   OH231211   2.165   0.830   0.225
10423TIP3    H131212   2.169   0.912   0.176
10423TIP3    H231213   2.116   0.770   0.169
10424TIP3   OH231214   4.167   1.145   2.504
10424TIP3    H131215   4.220   1.074   2.467
10424TIP3    H231216   4.219   1.224   2.490
10425TIP3   OH231217   6.931   6.931   4.658
10425TIP3    H131218   6.861   6.986   4.620
10425TIP3    H231219   6.916   6.844   4.620
10426TIP3   OH231220   5.467   1.012   0.812
10426TIP3    H131221   5.513   1.093   0.791
10426TIP3    H231222   5.519   0.943   0.770
10427TIP3   OH231223   1.108   1.144   1.491
10427TIP3    H131224   1.150   1.206   1.432
10427TIP3    H231225   1.029   1.117   1.444
10428TIP3   OH231226   5.793   1.898   0.723
10428TIP3    H131227   5.857   1.866   0.786
10428TIP3    H231228   5.709   1.868   0.757
10429TIP3   OH231229   2.581   3.166   2.467
10429TIP3    H131230   2.541   3.090   2.509
10429TIP3    H231231   2.672   3.139   2.450
10430TIP3   OH231232   3.963   5.723   2.013
10430TIP3    H131233   3.948   5.629   2.021
10430TIP3    H231234   4.011   5.733   1.931
10431TIP3   OH231235   6.628   0.058   6.290
10431TIP3    H131236   6.563   0.093   6.351
10431TIP3    H231237   6.620  -0.037   6.299
10432TIP3   OH231238   1.400   4.350   2.708
10432TIP3    H131239   1.387   4.327   2.616
10432TIP3    H231240   1.398   4.266   2.754
10433TIP3   OH231241   4.011   0.970   0.676
10433TIP3    H131242   3.916   0.959   0.676
10433TIP3    H231243   4.025   1.055   0.633
10434TIP3   OH231244   2.296   4.618   1.499
10434TIP3    H131245   2.315   4.709   1.519
10434TIP3    H231246   2.335   4.604   1.413
10435TIP3   OH231247   6.052   6.085   3.908
10435TIP3    H131248   6.086   6.073   3.997
10435TIP3    H231249   5.957   6.094   3.921
10436TIP3   OH231250   0.941   4.664   6.025
10436TIP3    H131251   0.903   4.647   5.940
10436TIP3    H231252   1.012   4.601   6.034
10437TIP3   OH231253   7.297   4.337   5.163
10437TIP3    H131254   7.207   4.304   5.157
10437TIP3    H231255   7.299   4.390   5.242
10438TIP3   OH231256   3.989   0.727   5.356
10438TIP3    H131257   4.058   0.788   5.381
10438TIP3    H231258   3.977   0.672   5.433
10439TIP3   OH231259   0.705   5.783   2.915
10439TIP3    H131260   0.662   5.789   3.001
10439TIP3    H231261   0.687   5.868   2.874
10440TIP3   OH231262   4.168   5.248   2.597
10440TIP3    H131263   4.251   5.247   2.550
10440TIP3    H231264   4.189   5.215   2.684
10441TIP3   OH231265   8.228   4.377   0.467
10441TIP3    H131266   8.277   4.435   0.525
10441TIP3    H231267   8.214   4.428   0.387
10442TIP3   OH231268   6.820   5.168   5.660
10442TIP3    H131269   6.760   5.160   5.734
10442TIP3    H231270   6.769   5.141   5.584
10443TIP3   OH231271   2.125   2.030   3.652
10443TIP3    H131272   2.032   2.030   3.629
10443TIP3    H231273   2.125   2.022   3.748
10444TIP3   OH231274   0.678   5.610   0.535
10444TIP3    H131275   0.660   5.679   0.598
10444TIP3    H231276   0.714   5.538   0.587
10445TIP3   OH231277   7.018   1.658   3.848
10445TIP3    H131278   7.017   1.707   3.765
10445TIP3    H231279   7.065   1.714   3.909
10446TIP3   OH231280   1.960   6.926   0.762
10446TIP3    H131281   1.901   6.941   0.836
10446TIP3    H231282   1.902   6.919   0.687
10447TIP3   OH231283   6.630   0.780   4.564
10447TIP3    H131284   6.594   0.795   4.476
10447TIP3    H231285   6.610   0.860   4.612
10448TIP3   OH231286   6.792   6.207   1.096
10448TIP3    H131287   6.699   6.201   1.073
10448TIP3    H231288   6.829   6.266   1.029
10449TIP3   OH231289   0.928   5.692   1.964
10449TIP3    H131290   0.932   5.649   1.879
10449TIP3    H231291   0.988   5.642   2.019
10450TIP3   OH231292   6.835   0.172   4.498
10450TIP3    H131293   6.818   0.249   4.443
10450TIP3    H231294   6.893   0.204   4.567
10451TIP3   OH231295   7.548   4.930   2.756
10451TIP3    H131296   7.589   4.894   2.834
10451TIP3    H231297   7.621   4.962   2.703
10452TIP3   OH231298   2.512   3.496   2.837
10452TIP3    H131299   2.590   3.489   2.892
10452TIP3    H231300   2.456   3.559   2.882
10453TIP3   OH231301   5.408   4.126   4.059
10453TIP3    H131302   5.436   4.188   4.126
10453TIP3    H231303   5.456   4.152   3.981
10454TIP3   OH231304   8.017   4.107   6.710
10454TIP3    H131305   8.018   4.014   6.736
10454TIP3    H231306   8.000   4.106   6.616
10455TIP3   OH231307   4.086   1.290   6.644
10455TIP3    H131308   4.114   1.382   6.643
10455TIP3    H231309   4.153   1.244   6.593
10456TIP3   OH231310   6.238   1.984   3.150
10456TIP3    H131311   6.240   1.948   3.061
10456TIP3    H231312   6.169   1.935   3.194
10457TIP3   OH231313   6.395   2.158   4.061
10457TIP3    H131314   6.473   2.165   4.005
10457TIP3    H231315   6.346   2.239   4.044
10458TIP3   OH231316   4.268   6.059   4.717
10458TIP3    H131317   4.316   6.096   4.791
10458TIP3    H231318   4.214   6.132   4.685
10459TIP3   OH231319   7.537   2.454   6.445
10459TIP3    H131320   7.540   2.396   6.368
10459TIP3    H231321   7.593   2.528   6.421
10460TIP3   OH231322   0.170   7.755   2.157
10460TIP3    H131323   0.222   7.833   2.135
10460TIP3    H231324   0.080   7.786   2.160
10461TIP3   OH231325   2.503   1.900   1.274
10461TIP3    H131326   2.561   1.827   1.254
10461TIP3    H231327   2.560   1.977   1.273
10462TIP3   OH231328   4.908   1.473   3.982
10462TIP3    H131329   4.952   1.477   3.897
10462TIP3    H231330   4.879   1.382   3.990
10463TIP3   OH231331   1.335   4.801   5.423
10463TIP3    H131332   1.250   4.764   5.402
10463TIP3    H231333   1.391   4.725   5.437
10464TIP3   OH231334   6.303   2.104   2.674
10464TIP3    H131335   6.325   2.028   2.619
10464TIP3    H231336   6.245   2.157   2.619
10465TIP3   OH231337   5.735   6.558   4.422
10465TIP3    H131338   5.816   6.603   4.447
10465TIP3    H231339   5.689   6.543   4.505
10466TIP3   OH231340   7.938   7.022   5.686
10466TIP3    H131341   8.033   7.027   5.682
10466TIP3    H231342   7.911   7.111   5.712
10467TIP3   OH231343   1.023   5.183   3.453
10467TIP3    H131344   1.104   5.233   3.453
10467TIP3    H231345   0.955   5.247   3.432
10468TIP3   OH231346   3.511   0.754   3.811
10468TIP3    H131347   3.482   0.717   3.727
10468TIP3    H231348   3.431   0.786   3.852
10469TIP3   OH231349   1.736   3.942   4.211
10469TIP3    H131350   1.738   3.922   4.305
10469TIP3    H231351   1.825   3.971   4.192
10470TIP3   OH231352   5.967   6.254   1.353
10470TIP3    H131353   5.993   6.324   1.293
10470TIP3    H231354   6.048   6.227   1.396
10471TIP3   OH231355   7.911   0.844   4.190
10471TIP3    H131356   7.843   0.909   4.208
10471TIP3    H231357   7.917   0.793   4.271
10472TIP3   OH231358   7.435   0.778   1.322
10472TIP3    H131359   7.354   0.801   1.368
10472TIP3    H231360   7.418   0.798   1.230
10473TIP3   OH231361   0.845   4.663   1.644
10473TIP3    H131362   0.866   4.648   1.736
10473TIP3    H231363   0.844   4.575   1.605
10474TIP3   OH231364   8.092   4.881   5.634
10474TIP3    H131365   8.181   4.848   5.635
10474TIP3    H231366   8.037   4.802   5.642
10475TIP3   OH231367   5.027   2.643   2.639
10475TIP3    H131368   4.967   2.596   2.698
10475TIP3    H231369   5.032   2.587   2.561
10476TIP3   OH231370   5.601   0.272   4.109
10476TIP3    H131371   5.517   0.244   4.072
10476TIP3    H231372   5.585   0.361   4.140
10477TIP3   OH231373   6.412   4.466   3.112
10477TIP3    H131374   6.440   4.375   3.103
10477TIP3    H231375   6.476   4.515   3.060
10478TIP3   OH231376   7.362   5.895   4.414
10478TIP3    H131377   7.380   5.989   4.423
10478TIP3    H231378   7.449   5.855   4.411
10479TIP3   OH231379   1.448   5.268   5.742
10479TIP3    H131380   1.386   5.282   5.814
10479TIP3    H231381   1.428   5.180   5.710
10480TIP3   OH231382   1.696   4.821   0.980
10480TIP3    H131383   1.723   4.764   1.053
10480TIP3    H231384   1.616   4.780   0.946
10481TIP3   OH231385   3.803   2.360   5.866
10481TIP3    H131386   3.878   2.417   5.880
10481TIP3    H231387   3.766   2.389   5.782
10482TIP3   OH231388   4.940   5.814   0.303
10482TIP3    H131389   4.998   5.883   0.270
10482TIP3    H231390   4.957   5.739   0.247
10483TIP3   OH231391   1.112   5.721   6.350
10483TIP3    H131392   1.105   5.748   6.442
10483TIP3    H231393   1.199   5.681   6.344
10484TIP3   OH231394   7.420   1.204   3.010
10484TIP3    H131395   7.481   1.133   3.031
10484TIP3    H231396   7.476   1.279   2.993
10485TIP3   OH231397   2.684   4.800   0.047
10485TIP3    H131398   2.604   4.772   0.091
10485TIP3    H231399   2.680   4.761  -0.040
10486TIP3   OH231400   1.931   3.076   1.438
10486TIP3    H131401   1.974   3.043   1.359
10486TIP3    H231402   1.989   3.145   1.470
10487TIP3   OH231403   6.971   6.087   5.946
10487TIP3    H131404   6.914   6.036   5.888
10487TIP3    H231405   6.957   6.049   6.033
10488TIP3   OH231406   3.710   7.480   5.685
10488TIP3    H131407   3.747   7.478   5.773
10488TIP3    H231408   3.619   7.508   5.698
10489TIP3   OH231409   2.263   7.282   6.664
10489TIP3    H131410   2.220   7.355   6.620
10489TIP3    H231411   2.345   7.270   6.617
10490TIP3   OH231412   7.595   0.784   3.759
10490TIP3    H131413   7.631   0.808   3.673
10490TIP3    H231414   7.644   0.838   3.821
10491TIP3   OH231415   8.005   6.156   1.568
10491TIP3    H131416   8.069   6.143   1.637
10491TIP3    H231417   8.056   6.188   1.493
10492TIP3   OH231418   2.632   0.650   1.405
10492TIP3    H131419   2.640   0.581   1.471
10492TIP3    H231420   2.566   0.617   1.344
10493TIP3   OH231421   2.706   5.211   3.888
10493TIP3    H131422   2.713   5.115   3.887
10493TIP3    H231423   2.636   5.231   3.826
10494TIP3   OH231424   3.276   6.319   4.887
10494TIP3    H131425   3.200   6.336   4.942
10494TIP3    H231426   3.240   6.299   4.801
10495TIP3   OH231427   7.699   4.674   6.640
10495TIP3    H131428   7.670   4.763   6.622
10495TIP3    H231429   7.621   4.629   6.672
10496TIP3   OH231430   3.220   4.417   3.144
10496TIP3    H131431   3.240   4.510   3.156
10496TIP3    H231432   3.282   4.388   3.077
10497TIP3   OH231433   4.394   5.697   0.532
10497TIP3    H131434   4.380   5.723   0.441
10497TIP3    H231435   4.439   5.772   0.571
10498TIP3   OH231436   0.078   1.599   6.048
10498TIP3    H131437   0.016   1.642   6.107
10498TIP3    H231438   0.026   1.531   6.005
10499TIP3   OH231439   2.475   0.911   2.112
10499TIP3    H131440   2.537   0.925   2.183
10499TIP3    H231441   2.513   0.841   2.059
10500TIP3   OH231442   6.339   1.028   1.389
10500TIP3    H131443   6.348   0.965   1.460
10500TIP3    H231444   6.396   0.996   1.320
10501TIP3   OH231445   4.379   1.915   5.982
10501TIP3    H131446   4.348   1.864   6.057
10501TIP3    H231447   4.389   1.851   5.912
10502TIP3   OH231448   2.529   2.148   6.631
10502TIP3    H131449   2.602   2.179   6.577
10502TIP3    H231450   2.514   2.058   6.601
10503TIP3   OH231451   7.880   2.731   4.435
10503TIP3    H131452   7.894   2.720   4.341
10503TIP3    H231453   7.964   2.765   4.468
10504TIP3   OH231454   3.325   2.673   0.753
10504TIP3    H131455   3.293   2.735   0.818
10504TIP3    H231456   3.362   2.601   0.804
10505TIP3   OH231457   8.179   1.863   2.947
10505TIP3    H131458   8.259   1.914   2.959
10505TIP3    H231459   8.162   1.825   3.033
10506TIP3   OH231460   0.385   3.923   0.026
10506TIP3    H131461   0.440   3.884  -0.042
10506TIP3    H231462   0.333   3.849   0.059
10507TIP3   OH231463   6.300   3.245   2.010
10507TIP3    H131464   6.247   3.324   2.021
10507TIP3    H231465   6.380   3.275   1.967
10508TIP3   OH231466   7.624   5.043   5.399
10508TIP3    H131467   7.578   5.064   5.318
10508TIP3    H231468   7.717   5.049   5.377
10509TIP3   OH231469   0.675   3.459   3.440
10509TIP3    H131470   0.696   3.367   3.453
10509TIP3    H231471   0.639   3.488   3.524
10510TIP3   OH231472   2.864   5.403   6.110
10510TIP3    H131473   2.910   5.487   6.115
10510TIP3    H231474   2.925   5.346   6.061
10511TIP3   OH231475   4.410   5.891   5.652
10511TIP3    H131476   4.328   5.911   5.697
10511TIP3    H231477   4.410   5.947   5.575
10512TIP3   OH231478   3.273   6.760   5.483
10512TIP3    H131479   3.205   6.811   5.526
10512TIP3    H231480   3.225   6.702   5.423
10513TIP3   OH231481   5.509   2.918   5.773
10513TIP3    H131482   5.513   2.851   5.842
10513TIP3    H231483   5.492   2.869   5.693
10514TIP3   OH231484   1.881   3.422   0.929
10514TIP3    H131485   1.947   3.465   0.983
10514TIP3    H231486   1.862   3.340   0.975
10515TIP3   OH231487   7.468   4.193   1.606
10515TIP3    H131488   7.547   4.183   1.659
10515TIP3    H231489   7.408   4.243   1.661
10516TIP3   OH231490   3.506   7.219   3.642
10516TIP3    H131491   3.488   7.288   3.579
10516TIP3    H231492   3.590   7.182   3.614
10517TIP3   OH231493   2.138   0.344   0.951
10517TIP3    H131494   2.083   0.391   1.013
10517TIP3    H231495   2.082   0.326   0.877
10518TIP3   OH231496   0.075   3.896   1.975
10518TIP3    H131497   0.014   3.825   1.953
10518TIP3    H231498   0.106   3.929   1.891
10519TIP3   OH231499   6.974   3.330   0.986
10519TIP3    H131500   7.067   3.348   0.970
10519TIP3    H231501   6.971   3.238   1.012
10520TIP3   OH231502   3.859   3.714   0.960
10520TIP3    H131503   3.918   3.787   0.977
10520TIP3    H231504   3.911   3.652   0.908
10521TIP3   OH231505   4.130   3.329   0.460
10521TIP3    H131506   4.208   3.369   0.499
10521TIP3    H231507   4.139   3.235   0.479
10522TIP3   OH231508   1.605   1.006   5.631
10522TIP3    H131509   1.576   0.951   5.703
10522TIP3    H231510   1.554   1.087   5.640
10523TIP3   OH231511   5.608   2.399   0.118
10523TIP3    H131512   5.671   2.329   0.103
10523TIP3    H231513   5.661   2.476   0.139
10524TIP3   OH231514   6.828   1.178   5.230
10524TIP3    H131515   6.921   1.191   5.252
10524TIP3    H231516   6.812   1.239   5.158
10525TIP3   OH231517   0.860  -0.013   0.476
10525TIP3    H131518   0.769   0.004   0.502
10525TIP3    H231519   0.897  -0.061   0.550
10526TIP3   OH231520   2.609   3.589   0.736
10526TIP3    H131521   2.641   3.531   0.667
10526TIP3    H231522   2.646   3.552   0.817
10527TIP3   OH231523   8.211   1.169   3.617
10527TIP3    H131524   8.158   1.128   3.685
10527TIP3    H231525   8.241   1.251   3.656
10528TIP3   OH231526   5.376   3.424   3.729
10528TIP3    H131527   5.352   3.362   3.798
10528TIP3    H231528   5.355   3.378   3.648
10529TIP3   OH231529   1.798   5.926   0.167
10529TIP3    H131530   1.893   5.925   0.172
10529TIP3    H231531   1.777   6.013   0.133
10530TIP3   OH231532   4.099   0.474   4.208
10530TIP3    H131533   4.062   0.462   4.121
10530TIP3    H231534   4.034   0.527   4.255
10531TIP3   OH231535   0.669   2.269   3.623
10531TIP3    H131536   0.636   2.358   3.637
10531TIP3    H231537   0.604   2.213   3.666
10532TIP3   OH231538   1.776   6.614   0.765
10532TIP3    H131539   1.682   6.595   0.763
10532TIP3    H231540   1.816   6.528   0.776
10533TIP3   OH231541   1.344   2.167   4.651
10533TIP3    H131542   1.275   2.214   4.605
10533TIP3    H231543   1.324   2.179   4.744
10534TIP3   OH231544   2.856   1.939   3.226
10534TIP3    H131545   2.868   1.846   3.206
10534TIP3    H231546   2.945   1.973   3.234
10535TIP3   OH231547   5.874   0.106   5.912
10535TIP3    H131548   5.965   0.120   5.936
10535TIP3    H231549   5.824   0.154   5.979
10536TIP3   OH231550   1.368   3.012   2.425
10536TIP3    H131551   1.364   2.923   2.390
10536TIP3    H231552   1.349   3.068   2.349
10537TIP3   OH231553   5.918   5.430   4.321
10537TIP3    H131554   5.964   5.508   4.288
10537TIP3    H231555   5.949   5.359   4.266
10538TIP3   OH231556   1.856   0.142   0.113
10538TIP3    H131557   1.860   0.112   0.022
10538TIP3    H231558   1.910   0.221   0.113
10539TIP3   OH231559   6.126   7.761   0.593
10539TIP3    H131560   6.186   7.740   0.665
10539TIP3    H231561   6.086   7.844   0.619
10540TIP3   OH231562   0.721   7.380   3.151
10540TIP3    H131563   0.725   7.362   3.057
10540TIP3    H231564   0.811   7.403   3.174
10541TIP3   OH231565   6.331   2.259   3.758
10541TIP3    H131566   6.296   2.316   3.826
10541TIP3    H231567   6.262   2.194   3.743
10542TIP3   OH231568   7.924   4.818   1.328
10542TIP3    H131569   7.947   4.831   1.236
10542TIP3    H231570   7.942   4.902   1.369
10543TIP3   OH231571   4.903   5.504   1.750
10543TIP3    H131572   4.950   5.564   1.809
10543TIP3    H231573   4.935   5.528   1.662
10544TIP3   OH231574   2.832   0.593   3.495
10544TIP3    H131575   2.842   0.532   3.568
10544TIP3    H231576   2.889   0.558   3.426
10545TIP3   OH231577   8.149   0.260   5.952
10545TIP3    H131578   8.205   0.212   5.891
10545TIP3    H231579   8.062   0.221   5.942
10546TIP3   OH231580   4.054   7.214   2.691
10546TIP3    H131581   3.969   7.252   2.671
10546TIP3    H231582   4.034   7.127   2.725
10547TIP3   OH231583   7.345   0.534   1.670
10547TIP3    H131584   7.405   0.603   1.699
10547TIP3    H231585   7.261   0.578   1.659
10548TIP3   OH231586   7.507   0.517   5.757
10548TIP3    H131587   7.602   0.510   5.756
10548TIP3    H231588   7.489   0.604   5.793
10549TIP3   OH231589   0.660   6.870   6.644
10549TIP3    H131590   0.638   6.953   6.600
10549TIP3    H231591   0.580   6.818   6.638
10550TIP3   OH231592   1.534   1.006   3.538
10550TIP3    H131593   1.565   1.026   3.450
10550TIP3    H231594   1.439   1.008   3.531
10551TIP3   OH231595   5.479   0.956   5.479
10551TIP3    H131596   5.528   0.899   5.420
10551TIP3    H231597   5.545   1.013   5.518
10552TIP3   OH231598   5.142   6.908   0.866
10552TIP3    H131599   5.082   6.866   0.804
10552TIP3    H231600   5.224   6.918   0.818
10553TIP3   OH231601   3.673   3.364   6.501
10553TIP3    H131602   3.638   3.302   6.565
10553TIP3    H231603   3.658   3.322   6.416
10554TIP3   OH231604   6.061   6.036   1.895
10554TIP3    H131605   6.082   5.945   1.871
10554TIP3    H231606   6.077   6.086   1.816
10555TIP3   OH231607   7.384   1.747   4.537
10555TIP3    H131608   7.302   1.786   4.506
10555TIP3    H231609   7.446   1.820   4.539
10556TIP3   OH231610   7.247   2.688   2.229
10556TIP3    H131611   7.242   2.595   2.204
10556TIP3    H231612   7.293   2.686   2.313
10557TIP3   OH231613   2.992   4.150   0.634
10557TIP3    H131614   2.940   4.130   0.557
10557TIP3    H231615   2.983   4.073   0.690
10558TIP3   OH231616   2.432   0.583   6.457
10558TIP3    H131617   2.477   0.632   6.525
10558TIP3    H231618   2.501   0.556   6.397
10559TIP3   OH231619   6.871   7.757   3.979
10559TIP3    H131620   6.792   7.784   3.931
10559TIP3    H231621   6.840   7.693   4.042
10560TIP3   OH231622   0.740   4.362   6.169
10560TIP3    H131623   0.665   4.385   6.224
10560TIP3    H231624   0.734   4.421   6.094
10561TIP3   OH231625   6.484   1.880   3.429
10561TIP3    H131626   6.553   1.938   3.397
10561TIP3    H231627   6.424   1.938   3.476
10562TIP3   OH231628   3.981   4.439   5.167
10562TIP3    H131629   3.996   4.361   5.115
10562TIP3    H231630   3.980   4.409   5.258
10563TIP3   OH231631   3.635   7.050   1.470
10563TIP3    H131632   3.628   7.071   1.377
10563TIP3    H231633   3.727   7.026   1.482
10564TIP3   OH231634   6.706   6.062   5.239
10564TIP3    H131635   6.665   5.978   5.218
10564TIP3    H231636   6.683   6.120   5.166
10565TIP3   OH231637   7.110   7.238   0.618
10565TIP3    H131638   7.114   7.320   0.667
10565TIP3    H231639   7.039   7.189   0.660
10566TIP3   OH231640   6.434   7.522   1.319
10566TIP3    H131641   6.441   7.458   1.391
10566TIP3    H231642   6.368   7.585   1.349
10567TIP3   OH231643   1.904   3.088   0.793
10567TIP3    H131644   1.976   3.025   0.799
10567TIP3    H231645   1.889   3.116   0.883
10568TIP3   OH231646   0.066   4.630   1.074
10568TIP3    H131647   0.146   4.664   1.114
10568TIP3    H231648   0.090   4.545   1.039
10569TIP3   OH231649   4.933   1.875   5.192
10569TIP3    H131650   4.846   1.843   5.216
10569TIP3    H231651   4.960   1.928   5.267
10570TIP3   OH231652   6.944   5.896   1.854
10570TIP3    H131653   6.860   5.918   1.814
10570TIP3    H231654   6.964   5.808   1.820
10571TIP3   OH231655   0.593   4.464   2.077
10571TIP3    H131656   0.505   4.462   2.116
10571TIP3    H231657   0.588   4.533   2.011
10572TIP3   OH231658   0.409   5.586   2.345
10572TIP3    H131659   0.452   5.502   2.356
10572TIP3    H231660   0.315   5.567   2.348
10573TIP3   OH231661   2.661   1.536   1.020
10573TIP3    H131662   2.633   1.531   1.111
10573TIP3    H231663   2.590   1.495   0.970
10574TIP3   OH231664   2.701   4.738   6.120
10574TIP3    H131665   2.789   4.767   6.143
10574TIP3    H231666   2.701   4.735   6.024
10575TIP3   OH231667   4.715   3.906   2.117
10575TIP3    H131668   4.741   3.869   2.032
10575TIP3    H231669   4.795   3.943   2.153
10576TIP3   OH231670   7.711   5.150   4.885
10576TIP3    H131671   7.759   5.233   4.883
10576TIP3    H231672   7.642   5.161   4.819
10577TIP3   OH231673   3.732   6.449   3.279
10577TIP3    H131674   3.773   6.536   3.275
10577TIP3    H231675   3.657   6.456   3.220
10578TIP3   OH231676   3.613   3.199   6.692
10578TIP3    H131677   3.582   3.111   6.714
10578TIP3    H231678   3.549   3.257   6.732
10579TIP3   OH231679   5.696   0.714   5.370
10579TIP3    H131680   5.676   0.694   5.279
10579TIP3    H231681   5.696   0.628   5.414
10580TIP3   OH231682   0.186   1.188   2.527
10580TIP3    H131683   0.193   1.170   2.621
10580TIP3    H231684   0.253   1.254   2.510
10581TIP3   OH231685   6.520   5.127   1.571
10581TIP3    H131686   6.611   5.156   1.569
10581TIP3    H231687   6.469   5.208   1.576
10582TIP3   OH231688   7.380   5.913   3.593
10582TIP3    H131689   7.443   5.871   3.652
10582TIP3    H231690   7.306   5.852   3.592
10583TIP3   OH231691   7.086   7.324   4.118
10583TIP3    H131692   7.137   7.308   4.038
10583TIP3    H231693   7.065   7.418   4.115
10584TIP3   OH231694   7.782   1.074   3.796
10584TIP3    H131695   7.735   1.062   3.879
10584TIP3    H231696   7.769   1.166   3.775
10585TIP3   OH231697   7.829   5.287   5.149
10585TIP3    H131698   7.742   5.303   5.113
10585TIP3    H231699   7.885   5.352   5.106
10586TIP3   OH231700   1.501   7.618   1.569
10586TIP3    H131701   1.525   7.698   1.614
10586TIP3    H231702   1.433   7.578   1.623
10587TIP3   OH231703   4.158   3.366   5.275
10587TIP3    H131704   4.247   3.391   5.297
10587TIP3    H231705   4.130   3.309   5.346
10588TIP3   OH231706   1.772   1.600   0.631
10588TIP3    H131707   1.722   1.523   0.657
10588TIP3    H231708   1.852   1.565   0.591
10589TIP3   OH231709   7.040   7.359   2.607
10589TIP3    H131710   6.998   7.368   2.692
10589TIP3    H231711   6.968   7.343   2.546
10590TIP3   OH231712   6.930   7.716   0.832
10590TIP3    H131713   6.870   7.783   0.866
10590TIP3    H231714   6.953   7.748   0.744
10591TIP3   OH231715   7.507   5.026   6.713
10591TIP3    H131716   7.515   5.119   6.694
10591TIP3    H231717   7.529   4.983   6.631
10592TIP3   OH231718   6.251   2.413   1.528
10592TIP3    H131719   6.325   2.353   1.520
10592TIP3    H231720   6.248   2.434   1.621
10593TIP3   OH231721   3.126   1.268   5.348
10593TIP3    H131722   3.197   1.213   5.382
10593TIP3    H231723   3.132   1.260   5.253
10594TIP3   OH231724   6.424   7.638   3.852
10594TIP3    H131725   6.347   7.683   3.888
10594TIP3    H231726   6.389   7.555   3.819
10595TIP3   OH231727   6.660   6.903   1.600
10595TIP3    H131728   6.632   6.831   1.656
10595TIP3    H231729   6.693   6.970   1.660
10596TIP3   OH231730   5.964   1.821   0.314
10596TIP3    H131731   5.962   1.726   0.303
10596TIP3    H231732   6.015   1.834   0.394
10597TIP3   OH231733   5.342   4.227   6.295
10597TIP3    H131734   5.323   4.307   6.345
10597TIP3    H231735   5.332   4.156   6.358
10598TIP3   OH231736   6.342   7.680   2.867
10598TIP3    H131737   6.405   7.705   2.934
10598TIP3    H231738   6.256   7.693   2.908
10599TIP3   OH231739   4.856   5.942   5.369
10599TIP3    H131740   4.930   6.003   5.369
10599TIP3    H231741   4.780   5.996   5.389
10600TIP3   OH231742   6.100   4.636   5.136
10600TIP3    H131743   6.043   4.680   5.200
10600TIP3    H231744   6.188   4.652   5.169
10601TIP3   OH231745   4.665   2.876   4.339
10601TIP3    H131746   4.696   2.914   4.421
10601TIP3    H231747   4.661   2.782   4.356
10602TIP3   OH231748   1.346   0.475   6.229
10602TIP3    H131749   1.251   0.482   6.218
10602TIP3    H231750   1.372   0.407   6.166
10603TIP3   OH231751   4.865   1.343   0.209
10603TIP3    H131752   4.806   1.268   0.209
10603TIP3    H231753   4.833   1.398   0.280
10604TIP3   OH231754   2.196   1.511   5.948
10604TIP3    H131755   2.134   1.557   5.891
10604TIP3    H231756   2.161   1.524   6.037
10605TIP3   OH231757   6.249   6.530   5.910
10605TIP3    H131758   6.301   6.579   5.846
10605TIP3    H231759   6.301   6.535   5.991
10606TIP3   OH231760   2.139   0.635   1.240
10606TIP3    H131761   2.072   0.577   1.204
10606TIP3    H231762   2.128   0.628   1.335
10607TIP3   OH231763   1.920   4.625   6.113
10607TIP3    H131764   1.998   4.681   6.113
10607TIP3    H231765   1.866   4.660   6.042
10608TIP3   OH231766   0.328   4.575   0.787
10608TIP3    H131767   0.364   4.491   0.760
10608TIP3    H231768   0.359   4.636   0.720
10609TIP3   OH231769   4.233   1.825   0.728
10609TIP3    H131770   4.293   1.880   0.779
10609TIP3    H231771   4.146   1.855   0.753
10610TIP3   OH231772   0.213   0.560   4.127
10610TIP3    H131773   0.283   0.622   4.107
10610TIP3    H231774   0.204   0.507   4.048
10611TIP3   OH231775   2.926   3.106   4.692
10611TIP3    H131776   2.957   3.053   4.619
10611TIP3    H231777   2.984   3.083   4.765
10612TIP3   OH231778   1.770   5.795   1.510
10612TIP3    H131779   1.793   5.832   1.595
10612TIP3    H231780   1.707   5.726   1.529
10613TIP3   OH231781   4.810   4.223   2.500
10613TIP3    H131782   4.905   4.226   2.512
10613TIP3    H231783   4.779   4.169   2.573
10614TIP3   OH231784   5.164   7.196   1.123
10614TIP3    H131785   5.196   7.106   1.129
10614TIP3    H231786   5.069   7.188   1.119
10615TIP3   OH231787   2.639   0.749   3.896
10615TIP3    H131788   2.722   0.703   3.910
10615TIP3    H231789   2.608   0.716   3.812
10616TIP3   OH231790   6.798   4.763   6.719
10616TIP3    H131791   6.821   4.791   6.808
10616TIP3    H231792   6.877   4.780   6.668
10617TIP3   OH231793   4.119   1.262   3.975
10617TIP3    H131794   4.191   1.218   4.021
10617TIP3    H231795   4.040   1.234   4.022
10618TIP3   OH231796   7.889   6.901   3.894
10618TIP3    H131797   7.844   6.956   3.957
10618TIP3    H231798   7.849   6.923   3.810
10619TIP3   OH231799   4.595   7.724   4.065
10619TIP3    H131800   4.584   7.765   3.979
10619TIP3    H231801   4.507   7.724   4.102
10620TIP3   OH231802   1.498   6.569   0.716
10620TIP3    H131803   1.468   6.496   0.770
10620TIP3    H231804   1.496   6.535   0.627
10621TIP3   OH231805   2.250   2.259   3.552
10621TIP3    H131806   2.212   2.176   3.581
10621TIP3    H231807   2.182   2.324   3.573
10622TIP3   OH231808   2.563   6.745   2.116
10622TIP3    H131809   2.479   6.701   2.101
10622TIP3    H231810   2.569   6.752   2.212
10623TIP3   OH231811   4.666   2.995   2.073
10623TIP3    H131812   4.596   2.939   2.106
10623TIP3    H231813   4.623   3.053   2.011
10624TIP3   OH231814   7.447   7.321   4.366
10624TIP3    H131815   7.502   7.243   4.357
10624TIP3    H231816   7.438   7.354   4.276
10625TIP3   OH231817   1.021   3.125   5.604
10625TIP3    H131818   1.031   3.080   5.688
10625TIP3    H231819   1.014   3.054   5.540
10626TIP3   OH231820   6.604   2.468   5.260
10626TIP3    H131821   6.679   2.522   5.281
10626TIP3    H231822   6.528   2.526   5.270
10627TIP3   OH231823   8.156   6.217   4.182
10627TIP3    H131824   8.247   6.233   4.156
10627TIP3    H231825   8.118   6.304   4.191
10628TIP3   OH231826   4.082   7.008   5.081
10628TIP3    H131827   4.081   7.034   5.173
10628TIP3    H231828   4.017   7.065   5.039
10629TIP3   OH231829   5.802   0.961   1.302
10629TIP3    H131830   5.897   0.954   1.287
10629TIP3    H231831   5.764   0.897   1.242
10630TIP3   OH231832   0.480   0.599   6.647
10630TIP3    H131833   0.406   0.588   6.708
10630TIP3    H231834   0.547   0.643   6.699
10631TIP3   OH231835   2.347   6.594   3.692
10631TIP3    H131836   2.381   6.614   3.779
10631TIP3    H231837   2.358   6.499   3.684
10632TIP3   OH231838   5.676   4.123   3.577
10632TIP3    H131839   5.750   4.101   3.633
10632TIP3    H231840   5.681   4.060   3.505
10633TIP3   OH231841   1.513   3.768   3.537
10633TIP3    H131842   1.508   3.673   3.540
10633TIP3    H231843   1.439   3.798   3.589
10634TIP3   OH231844   7.372   6.382   5.291
10634TIP3    H131845   7.337   6.367   5.204
10634TIP3    H231846   7.295   6.407   5.344
10635TIP3   OH231847   8.141   6.722   5.154
10635TIP3    H131848   8.211   6.657   5.156
10635TIP3    H231849   8.066   6.676   5.192
10636TIP3   OH231850   8.116   4.135   3.015
10636TIP3    H131851   8.134   4.224   3.046
10636TIP3    H231852   8.086   4.088   3.093
10637TIP3   OH231853   6.323   4.059   5.713
10637TIP3    H131854   6.408   4.103   5.715
10637TIP3    H231855   6.341   3.971   5.746
10638TIP3   OH231856   8.048   5.723   5.717
10638TIP3    H131857   8.016   5.634   5.729
10638TIP3    H231858   7.986   5.762   5.655
10639TIP3   OH231859   1.370   5.919   6.054
10639TIP3    H131860   1.404   5.907   6.143
10639TIP3    H231861   1.434   5.976   6.012
10640TIP3   OH231862   6.389   0.681   2.783
10640TIP3    H131863   6.469   0.711   2.740
10640TIP3    H231864   6.399   0.710   2.874
10641TIP3   OH231865   2.489   4.149   1.836
10641TIP3    H131866   2.530   4.235   1.832
10641TIP3    H231867   2.537   4.103   1.906
10642TIP3   OH231868   7.136   6.184   4.434
10642TIP3    H131869   7.232   6.188   4.438
10642TIP3    H231870   7.106   6.234   4.509
10643TIP3   OH231871   6.397   6.955   6.066
10643TIP3    H131872   6.468   6.979   6.007
10643TIP3    H231873   6.328   6.921   6.009
10644TIP3   OH231874   7.260   3.190   0.569
10644TIP3    H131875   7.337   3.240   0.597
10644TIP3    H231876   7.273   3.176   0.476
10645TIP3   OH231877   4.850   2.002   0.704
10645TIP3    H131878   4.864   2.065   0.633
10645TIP3    H231879   4.846   2.056   0.783
10646TIP3   OH231880   5.307   7.843   6.388
10646TIP3    H131881   5.253   7.882   6.457
10646TIP3    H231882   5.343   7.764   6.426
10647TIP3   OH231883   2.680   3.435   4.583
10647TIP3    H131884   2.661   3.420   4.676
10647TIP3    H231885   2.776   3.437   4.578
10648TIP3   OH231886   3.285   4.155   1.358
10648TIP3    H131887   3.342   4.225   1.388
10648TIP3    H231888   3.316   4.135   1.270
10649TIP3   OH231889   4.225   7.369   2.376
10649TIP3    H131890   4.158   7.319   2.329
10649TIP3    H231891   4.295   7.380   2.313
10650TIP3   OH231892   7.389   3.271   2.671
10650TIP3    H131893   7.326   3.328   2.714
10650TIP3    H231894   7.447   3.330   2.623
10651TIP3   OH231895   1.256   0.902   3.582
10651TIP3    H131896   1.236   0.965   3.513
10651TIP3    H231897   1.244   0.816   3.542
10652TIP3   OH231898   4.750   5.227   2.111
10652TIP3    H131899   4.767   5.238   2.017
10652TIP3    H231900   4.678   5.288   2.129
10653TIP3   OH231901   1.624   0.943   1.878
10653TIP3    H131902   1.658   0.981   1.797
10653TIP3    H231903   1.555   1.004   1.905
10654TIP3   OH231904   8.153   3.811   0.604
10654TIP3    H131905   8.118   3.752   0.538
10654TIP3    H231906   8.094   3.801   0.679
10655TIP3   OH231907   1.959   3.009   3.947
10655TIP3    H131908   1.905   2.945   3.901
10655TIP3    H231909   1.942   3.091   3.902
10656TIP3   OH231910   4.475   4.966   0.155
10656TIP3    H131911   4.414   4.945   0.084
10656TIP3    H231912   4.540   5.023   0.114
10657TIP3   OH231913   6.646   3.531   4.027
10657TIP3    H131914   6.618   3.506   3.939
10657TIP3    H231915   6.643   3.626   4.028
10658TIP3   OH231916   5.697   7.328   6.556
10658TIP3    H131917   5.704   7.422   6.543
10658TIP3    H231918   5.787   7.299   6.573
10659TIP3   OH231919   3.013   6.800   5.894
10659TIP3    H131920   2.917   6.798   5.891
10659TIP3    H231921   3.039   6.814   5.803
10660TIP3   OH231922   7.732   6.697   4.597
10660TIP3    H131923   7.661   6.689   4.534
10660TIP3    H231924   7.811   6.701   4.543
10661TIP3   OH231925   7.144   2.652   4.710
10661TIP3    H131926   7.229   2.691   4.692
10661TIP3    H231927   7.112   2.621   4.625
10662TIP3   OH231928   6.575   4.424   1.824
10662TIP3    H131929   6.649   4.399   1.769
10662TIP3    H231930   6.531   4.493   1.776
10663TIP3   OH231931   6.809   3.224   5.979
10663TIP3    H131932   6.833   3.205   6.070
10663TIP3    H231933   6.725   3.179   5.967
10664TIP3   OH231934   4.718   2.005   2.452
10664TIP3    H131935   4.775   1.947   2.402
10664TIP3    H231936   4.763   2.017   2.536
10665TIP3   OH231937   0.139   0.985   0.203
10665TIP3    H131938   0.053   0.957   0.171
10665TIP3    H231939   0.120   1.055   0.266
10666TIP3   OH231940   7.634   0.582   4.535
10666TIP3    H131941   7.650   0.533   4.454
10666TIP3    H231942   7.558   0.539   4.574
10667TIP3   OH231943   3.438   6.515   3.728
10667TIP3    H131944   3.344   6.532   3.740
10667TIP3    H231945   3.447   6.490   3.636
10668TIP3   OH231946   7.110   2.251   3.046
10668TIP3    H131947   7.079   2.165   3.076
10668TIP3    H231948   7.030   2.304   3.042
10669TIP3   OH231949   6.615   7.057   1.371
10669TIP3    H131950   6.628   7.000   1.446
10669TIP3    H231951   6.701   7.065   1.330
10670TIP3   OH231952   7.270   7.439   3.588
10670TIP3    H131953   7.247   7.531   3.595
10670TIP3    H231954   7.210   7.395   3.649
10671TIP3   OH231955   0.354   6.753   3.252
10671TIP3    H131956   0.415   6.806   3.201
10671TIP3    H231957   0.405   6.678   3.281
10672TIP3   OH231958   8.198   3.121   3.678
10672TIP3    H131959   8.220   3.209   3.649
10672TIP3    H231960   8.228   3.117   3.769
10673TIP3   OH231961   4.342   7.025   2.329
10673TIP3    H131962   4.411   6.985   2.276
10673TIP3    H231963   4.308   7.097   2.276
10674TIP3   OH231964   6.299   3.790   4.404
10674TIP3    H131965   6.274   3.847   4.331
10674TIP3    H231966   6.306   3.703   4.365
10675TIP3   OH231967   7.201   0.942   2.152
10675TIP3    H131968   7.130   0.879   2.166
10675TIP3    H231969   7.242   0.914   2.070
10676TIP3   OH231970   2.845   1.378   0.843
10676TIP3    H131971   2.765   1.327   0.855
10676TIP3    H231972   2.819   1.452   0.787
10677TIP3   OH231973   1.456   3.562   1.150
10677TIP3    H131974   1.479   3.471   1.130
10677TIP3    H231975   1.470   3.570   1.244
10678TIP3   OH231976   7.754   6.440   4.748
10678TIP3    H131977   7.739   6.528   4.714
10678TIP3    H231978   7.725   6.445   4.839
10679TIP3   OH231979   2.872   7.619   3.484
10679TIP3    H131980   2.883   7.714   3.493
10679TIP3    H231981   2.955   7.582   3.512
10680TIP3   OH231982   6.573   4.871   2.911
10680TIP3    H131983   6.503   4.923   2.873
10680TIP3    H231984   6.634   4.855   2.839
10681TIP3   OH231985   1.941   6.915   6.564
10681TIP3    H131986   1.961   6.942   6.653
10681TIP3    H231987   1.865   6.857   6.573
10682TIP3   OH231988   0.377   7.080   2.914
10682TIP3    H131989   0.289   7.042   2.916
10682TIP3    H231990   0.431   7.019   2.964
10683TIP3   OH231991   8.036   5.535   5.977
10683TIP3    H131992   7.990   5.550   6.060
10683TIP3    H231993   8.126   5.564   5.994
10684TIP3   OH231994   1.032   6.361   0.563
10684TIP3    H131995   1.049   6.439   0.616
10684TIP3    H231996   0.993   6.298   0.624
10685TIP3   OH231997   2.386   6.755   6.336
10685TIP3    H131998   2.331   6.807   6.394
10685TIP3    H231999   2.465   6.808   6.323
10686TIP3   OH232000   4.700   5.820   1.193
10686TIP3    H132001   4.697   5.756   1.263
10686TIP3    H232002   4.683   5.771   1.113
10687TIP3   OH232003   2.189   2.642   2.540
10687TIP3    H132004   2.185   2.686   2.625
10687TIP3    H232005   2.124   2.686   2.487
10688TIP3   OH232006   5.235   2.436   2.423
10688TIP3    H132007   5.232   2.375   2.349
10688TIP3    H232008   5.327   2.461   2.431
10689TIP3   OH232009   1.106   0.457   1.841
10689TIP3    H132010   1.152   0.489   1.763
10689TIP3    H232011   1.137   0.367   1.852
10690TIP3   OH232012   4.958   6.974   4.631
10690TIP3    H132013   4.953   6.889   4.676
10690TIP3    H232014   4.972   7.037   4.702
10691TIP3   OH232015   7.911   0.635   5.502
10691TIP3    H132016   7.939   0.716   5.457
10691TIP3    H232017   7.953   0.640   5.588
10692TIP3   OH232018   6.763   4.720   5.770
10692TIP3    H132019   6.695   4.787   5.762
10692TIP3    H232020   6.722   4.640   5.737
10693TIP3   OH232021   4.432   3.971   4.716
10693TIP3    H132022   4.340   3.945   4.727
10693TIP3    H232023   4.454   3.944   4.627
10694TIP3   OH232024   7.118   7.684   4.272
10694TIP3    H132025   7.113   7.617   4.340
10694TIP3    H232026   7.055   7.751   4.299
10695TIP3   OH232027   0.661   0.353   6.541
10695TIP3    H132028   0.676   0.432   6.592
10695TIP3    H232029   0.663   0.282   6.605
10696TIP3   OH232030   3.462   2.167   2.649
10696TIP3    H132031   3.384   2.159   2.705
10696TIP3    H232032   3.434   2.226   2.579
10697TIP3   OH232033   3.571   2.689   6.267
10697TIP3    H132034   3.481   2.691   6.235
10697TIP3    H232035   3.609   2.611   6.227
10698TIP3   OH232036   1.671   4.711   0.543
10698TIP3    H132037   1.746   4.652   0.547
10698TIP3    H232038   1.601   4.659   0.504
10699TIP3   OH232039   1.056   5.031   1.468
10699TIP3    H132040   1.077   4.957   1.525
10699TIP3    H232041   1.005   4.993   1.397
10700TIP3   OH232042   4.481   1.109   5.054
10700TIP3    H132043   4.501   1.027   5.009
10700TIP3    H232044   4.430   1.160   4.989
10701TIP3   OH232045   0.283   4.302   3.377
10701TIP3    H132046   0.255   4.241   3.309
10701TIP3    H232047   0.325   4.247   3.443
10702TIP3   OH232048   7.972   1.893   4.579
10702TIP3    H132049   8.033   1.856   4.515
10702TIP3    H232050   7.913   1.820   4.601
10703TIP3   OH232051   6.719   6.102   0.517
10703TIP3    H132052   6.679   6.085   0.603
10703TIP3    H232053   6.671   6.046   0.456
10704TIP3   OH232054   6.797   1.081   0.405
10704TIP3    H132055   6.710   1.119   0.422
10704TIP3    H232056   6.811   1.023   0.480
10705TIP3   OH232057   3.127   7.662   2.800
10705TIP3    H132058   3.081   7.745   2.801
10705TIP3    H232059   3.212   7.681   2.759
10706TIP3   OH232060   4.468   2.087   1.705
10706TIP3    H132061   4.399   2.111   1.643
10706TIP3    H232062   4.442   2.002   1.738
10707TIP3   OH232063   2.876   5.677   1.570
10707TIP3    H132064   2.867   5.590   1.610
10707TIP3    H232065   2.946   5.719   1.622
10708TIP3   OH232066   2.500   5.966   2.500
10708TIP3    H132067   2.590   5.965   2.534
10708TIP3    H232068   2.496   6.044   2.445
10709TIP3   OH232069   1.466   1.894   4.880
10709TIP3    H132070   1.423   1.827   4.826
10709TIP3    H232071   1.441   1.871   4.970
10710TIP3   OH232072   0.746   3.336   0.296
10710TIP3    H132073   0.697   3.346   0.215
10710TIP3    H232074   0.773   3.244   0.298
10711TIP3   OH232075   7.782   7.083   4.088
10711TIP3    H132076   7.737   7.167   4.076
10711TIP3    H232077   7.862   7.105   4.136
10712TIP3   OH232078   2.929   0.933   0.880
10712TIP3    H132079   2.991   0.870   0.844
10712TIP3    H232080   2.981   1.011   0.897
10713TIP3   OH232081   4.397   6.137   3.477
10713TIP3    H132082   4.446   6.059   3.501
10713TIP3    H232083   4.375   6.179   3.560
10714TIP3   OH232084   3.262   4.216   3.647
10714TIP3    H132085   3.222   4.278   3.586
10714TIP3    H232086   3.337   4.263   3.682
10715TIP3   OH232087   2.508   4.290   0.681
10715TIP3    H132088   2.551   4.375   0.678
10715TIP3    H232089   2.421   4.307   0.716
10716TIP3   OH232090   7.029   1.886   2.374
10716TIP3    H132091   7.057   1.848   2.457
10716TIP3    H232092   6.985   1.967   2.398
10717TIP3   OH232093   6.056   6.344   3.605
10717TIP3    H132094   6.016   6.327   3.690
10717TIP3    H232095   6.094   6.431   3.613
10718TIP3   OH232096   0.710   1.498   3.298
10718TIP3    H132097   0.800   1.521   3.322
10718TIP3    H232098   0.718   1.413   3.255
10719TIP3   OH232099   2.114   2.049   0.381
10719TIP3    H132100   2.030   2.092   0.367
10719TIP3    H232101   2.114   1.975   0.320
10720TIP3   OH232102   3.539   0.556   2.482
10720TIP3    H132103   3.500   0.612   2.549
10720TIP3    H232104   3.471   0.548   2.415
10721TIP3   OH232105   6.531   1.919   2.297
10721TIP3    H132106   6.467   1.989   2.304
10721TIP3    H232107   6.599   1.953   2.238
10722TIP3   OH232108   2.888   0.088   4.829
10722TIP3    H132109   2.834   0.027   4.880
10722TIP3    H232110   2.839   0.102   4.748
10723TIP3   OH232111   1.650   1.674   3.921
10723TIP3    H132112   1.598   1.694   3.998
10723TIP3    H232113   1.622   1.737   3.855
10724TIP3   OH232114   4.665   2.421   2.388
10724TIP3    H132115   4.629   2.346   2.341
10724TIP3    H232116   4.675   2.390   2.478
10725TIP3   OH232117   4.628   0.945   3.040
10725TIP3    H132118   4.649   0.855   3.016
10725TIP3    H232119   4.683   0.964   3.115
10726TIP3   OH232120   4.878   0.280   6.468
10726TIP3    H132121   4.913   0.270   6.379
10726TIP3    H232122   4.834   0.197   6.486
10727TIP3   OH232123   4.385   4.392   2.964
10727TIP3    H132124   4.444   4.458   2.927
10727TIP3    H232125   4.382   4.413   3.058
10728TIP3   OH232126   0.013   3.550   3.822
10728TIP3    H132127   0.039   3.465   3.857
10728TIP3    H232128   0.069   3.613   3.866
10729TIP3   OH232129   5.535   6.230   2.838
10729TIP3    H132130   5.542   6.228   2.742
10729TIP3    H232131   5.496   6.315   2.858
10730TIP3   OH232132   0.481   1.757   3.846
10730TIP3    H132133   0.426   1.796   3.777
10730TIP3    H232134   0.420   1.741   3.918
10731TIP3   OH232135   6.262   0.232   0.377
10731TIP3    H132136   6.249   0.226   0.471
10731TIP3    H232137   6.270   0.326   0.360
10732TIP3   OH232138   6.371   2.092   0.515
10732TIP3    H132139   6.328   2.123   0.594
10732TIP3    H232140   6.341   2.151   0.446
10733TIP3   OH232141   4.125   0.855   3.194
10733TIP3    H132142   4.142   0.856   3.288
10733TIP3    H232143   4.201   0.899   3.155
10734TIP3   OH232144   1.350   4.935   5.650
10734TIP3    H132145   1.351   4.892   5.565
10734TIP3    H232146   1.295   4.879   5.705
10735TIP3   OH232147   0.454   5.825   1.722
10735TIP3    H132148   0.376   5.781   1.688
10735TIP3    H232149   0.527   5.782   1.678
10736TIP3   OH232150   3.045   5.667   0.823
10736TIP3    H132151   3.077   5.710   0.902
10736TIP3    H232152   2.950   5.676   0.827
10737TIP3   OH232153   2.413   6.131   3.869
10737TIP3    H132154   2.472   6.058   3.851
10737TIP3    H232155   2.436   6.160   3.957
10738TIP3   OH232156   0.502   1.751   1.648
10738TIP3    H132157   0.595   1.734   1.630
10738TIP3    H232158   0.502   1.797   1.732
10739TIP3   OH232159   8.122   5.889   4.101
10739TIP3    H132160   8.166   5.972   4.082
10739TIP3    H232161   8.190   5.823   4.086
10740TIP3   OH232162   4.464   6.780   1.082
10740TIP3    H132163   4.542   6.765   1.135
10740TIP3    H232164   4.469   6.872   1.057
10741TIP3   OH232165   0.308   1.108   6.558
10741TIP3    H132166   0.321   1.106   6.653
10741TIP3    H232167   0.264   1.025   6.538
10742TIP3   OH232168   0.679   6.808   1.402
10742TIP3    H132169   0.708   6.830   1.314
10742TIP3    H232170   0.614   6.738   1.389
10743TIP3   OH232171   0.769   1.745   1.578
10743TIP3    H132172   0.852   1.700   1.593
10743TIP3    H232173   0.762   1.750   1.483
10744TIP3   OH232174   6.878   6.343   2.337
10744TIP3    H132175   6.888   6.287   2.260
10744TIP3    H232176   6.967   6.375   2.355
10745TIP3   OH232177   2.943   4.315   1.714
10745TIP3    H132178   2.901   4.234   1.686
10745TIP3    H232179   3.029   4.314   1.670
10746TIP3   OH232180   5.082   2.178   3.265
10746TIP3    H132181   5.118   2.154   3.180
10746TIP3    H232182   5.155   2.171   3.326
10747TIP3   OH232183   8.234   1.370   5.924
10747TIP3    H132184   8.257   1.354   5.833
10747TIP3    H232185   8.166   1.305   5.943
10748TIP3   OH232186   8.000   7.626   3.771
10748TIP3    H132187   8.094   7.627   3.754
10748TIP3    H232188   7.990   7.580   3.855
10749TIP3   OH232189   3.226   2.195   6.537
10749TIP3    H132190   3.140   2.178   6.576
10749TIP3    H232191   3.286   2.199   6.612
10750TIP3   OH232192   6.916   2.479   2.966
10750TIP3    H132193   6.912   2.538   2.891
10750TIP3    H232194   6.827   2.444   2.974
10751TIP3   OH232195   1.874   5.130   4.352
10751TIP3    H132196   1.858   5.224   4.364
10751TIP3    H232197   1.898   5.121   4.259
10752TIP3   OH232198   6.632   1.465   4.199
10752TIP3    H132199   6.693   1.522   4.248
10752TIP3    H232200   6.673   1.454   4.114
10753TIP3   OH232201   0.108   5.042   1.646
10753TIP3    H132202   0.128   4.951   1.627
10753TIP3    H232203   0.034   5.039   1.705
10754TIP3   OH232204   7.260   3.798   3.306
10754TIP3    H132205   7.289   3.886   3.332
10754TIP3    H232206   7.223   3.810   3.219
10755TIP3   OH232207   7.793   0.225   5.474
10755TIP3    H132208   7.700   0.201   5.472
10755TIP3    H232209   7.838   0.143   5.496
10756TIP3   OH232210   2.965   4.555   6.492
10756TIP3    H132211   2.972   4.459   6.488
10756TIP3    H232212   2.936   4.573   6.582
10757TIP3   OH232213   3.100   0.039   0.255
10757TIP3    H132214   3.116   0.118   0.307
10757TIP3    H232215   3.096  -0.032   0.319
10758TIP3   OH232216   1.262   0.842   5.061
10758TIP3    H132217   1.226   0.799   4.983
10758TIP3    H232218   1.292   0.769   5.115
10759TIP3   OH232219   1.911   0.515   0.526
10759TIP3    H132220   1.821   0.546   0.517
10759TIP3    H232221   1.956   0.551   0.450
10760TIP3   OH232222   3.033   4.464   2.907
10760TIP3    H132223   3.017   4.388   2.852
10760TIP3    H232224   3.122   4.451   2.940
10761TIP3   OH232225   6.262   1.201   3.241
10761TIP3    H132226   6.346   1.189   3.284
10761TIP3    H232227   6.267   1.146   3.163
10762TIP3   OH232228   4.053   3.243   4.291
10762TIP3    H132229   4.138   3.206   4.267
10762TIP3    H232230   4.021   3.184   4.360
10763TIP3   OH232231   3.038   7.576   0.071
10763TIP3    H132232   3.013   7.664   0.043
10763TIP3    H232233   3.113   7.590   0.129
10764TIP3   OH232234   4.515   4.171   1.281
10764TIP3    H132235   4.481   4.138   1.364
10764TIP3    H232236   4.506   4.266   1.287
10765TIP3   OH232237   4.531   2.274   0.585
10765TIP3    H132238   4.585   2.218   0.640
10765TIP3    H232239   4.520   2.355   0.636
10766TIP3   OH232240   0.859   0.942   1.363
10766TIP3    H132241   0.809   0.913   1.286
10766TIP3    H232242   0.838   1.035   1.372
10767TIP3   OH232243   3.771   6.246   2.182
10767TIP3    H132244   3.727   6.207   2.106
10767TIP3    H232245   3.807   6.328   2.149
10768TIP3   OH232246   4.011   2.718   0.104
10768TIP3    H132247   3.988   2.639   0.153
10768TIP3    H232248   3.970   2.707   0.018
10769TIP3   OH232249   6.857   1.853   4.905
10769TIP3    H132250   6.948   1.838   4.930
10769TIP3    H232251   6.840   1.944   4.929
10770TIP3   OH232252   6.865   7.380   3.873
10770TIP3    H132253   6.790   7.439   3.881
10770TIP3    H232254   6.826   7.293   3.863
10771TIP3   OH232255   6.039   4.834   4.630
10771TIP3    H132256   6.086   4.761   4.589
10771TIP3    H232257   6.008   4.798   4.713
10772TIP3   OH232258   0.742   2.608   0.372
10772TIP3    H132259   0.727   2.667   0.445
10772TIP3    H232260   0.736   2.520   0.410
10773TIP3   OH232261   8.010   4.687   0.387
10773TIP3    H132262   8.028   4.624   0.317
10773TIP3    H232263   7.973   4.634   0.458
10774TIP3   OH232264   5.736   6.511   3.099
10774TIP3    H132265   5.752   6.599   3.065
10774TIP3    H232266   5.810   6.459   3.066
10775TIP3   OH232267   4.218   7.756   5.447
10775TIP3    H132268   4.236   7.668   5.480
10775TIP3    H232269   4.293   7.776   5.390
10776TIP3   OH232270   2.432   2.986   2.618
10776TIP3    H132271   2.417   2.895   2.646
10776TIP3    H232272   2.359   3.035   2.654
10777TIP3   OH232273   2.794   4.533   1.638
10777TIP3    H132274   2.729   4.552   1.706
10777TIP3    H232275   2.856   4.473   1.681
10778TIP3   OH232276   5.896   0.909   3.344
10778TIP3    H132277   5.946   0.886   3.266
10778TIP3    H232278   5.832   0.838   3.354
10779TIP3   OH232279   5.601   4.732   6.140
10779TIP3    H132280   5.577   4.805   6.198
10779TIP3    H232281   5.525   4.674   6.143
10780TIP3   OH232282   4.380   5.779   0.070
10780TIP3    H132283   4.390   5.685   0.056
10780TIP3    H232284   4.306   5.786   0.131
10781TIP3   OH232285   3.685   5.093   3.792
10781TIP3    H132286   3.600   5.132   3.816
10781TIP3    H232287   3.666   4.999   3.787
10782TIP3   OH232288   3.001   0.511   0.480
10782TIP3    H132289   2.945   0.539   0.407
10782TIP3    H232290   2.939   0.495   0.552
10783TIP3   OH232291   4.141   1.435   5.563
10783TIP3    H132292   4.124   1.479   5.480
10783TIP3    H232293   4.120   1.500   5.630
10784TIP3   OH232294   2.214   4.246   5.227
10784TIP3    H132295   2.229   4.315   5.292
10784TIP3    H232296   2.120   4.253   5.206
10785TIP3   OH232297   2.838   5.335   6.499
10785TIP3    H132298   2.913   5.295   6.456
10785TIP3    H232299   2.762   5.298   6.455
10786TIP3   OH232300   7.023   6.168   1.648
10786TIP3    H132301   6.961   6.139   1.581
10786TIP3    H232302   7.054   6.088   1.689
10787TIP3   OH232303   6.865   7.000   5.258
10787TIP3    H132304   6.866   6.939   5.184
10787TIP3    H232305   6.899   6.949   5.331
10788TIP3   OH232306   1.498   5.213   1.486
10788TIP3    H132307   1.468   5.196   1.396
10788TIP3    H232308   1.574   5.269   1.475
10789TIP3   OH232309   3.223   7.675   5.312
10789TIP3    H132310   3.290   7.610   5.332
10789TIP3    H232311   3.240   7.700   5.221
10790TIP3   OH232312   5.855   6.995   3.262
10790TIP3    H132313   5.924   6.952   3.211
10790TIP3    H232314   5.883   7.087   3.267
10791TIP3   OH232315   0.598   7.176   4.064
10791TIP3    H132316   0.626   7.172   4.156
10791TIP3    H232317   0.671   7.217   4.019
10792TIP3   OH232318   0.218   1.174   2.006
10792TIP3    H132319   0.218   1.269   1.996
10792TIP3    H232320   0.126   1.151   2.020
10793TIP3   OH232321   0.961   6.226   1.669
10793TIP3    H132322   1.023   6.240   1.597
10793TIP3    H232323   0.963   6.307   1.719
10794TIP3   OH232324   0.897   6.806   1.731
10794TIP3    H132325   0.911   6.736   1.667
10794TIP3    H232326   0.805   6.831   1.719
10795TIP3   OH232327   2.145   5.030   2.632
10795TIP3    H132328   2.112   5.119   2.643
10795TIP3    H232329   2.145   5.016   2.538
10796TIP3   OH232330   6.149   4.361   6.199
10796TIP3    H132331   6.133   4.343   6.106
10796TIP3    H232332   6.063   4.348   6.240
10797TIP3   OH232333   3.478   5.705   2.145
10797TIP3    H132334   3.518   5.618   2.147
10797TIP3    H232335   3.384   5.689   2.135
10798TIP3   OH232336   4.797   5.553   6.325
10798TIP3    H132337   4.783   5.462   6.301
10798TIP3    H232338   4.868   5.583   6.267
10799TIP3   OH232339  -0.011   1.890   6.495
10799TIP3    H132340   0.040   1.969   6.477
10799TIP3    H232341   0.047   1.838   6.551
10800TIP3   OH232342   4.717  -0.032   0.263
10800TIP3    H132343   4.795   0.001   0.218
10800TIP3    H232344   4.707   0.026   0.338
10801TIP3   OH232345   5.214   5.551   4.046
10801TIP3    H132346   5.126   5.515   4.055
10801TIP3    H232347   5.264   5.481   4.004
10802TIP3   OH232348   2.217   6.532   4.228
10802TIP3    H132349   2.220   6.473   4.304
10802TIP3    H232350   2.210   6.619   4.266
10803TIP3   OH232351   2.876   4.291   4.903
10803TIP3    H132352   2.937   4.261   4.836
10803TIP3    H232353   2.791   4.292   4.860
10804TIP3   OH232354   7.510   2.701   6.017
10804TIP3    H132355   7.477   2.734   5.934
10804TIP3    H232356   7.439   2.718   6.079
10805TIP3   OH232357   5.878   3.043   5.210
10805TIP3    H132358   5.849   2.974   5.151
10805TIP3    H232359   5.799   3.092   5.231
10806TIP3   OH232360   5.747   7.635   6.590
10806TIP3    H132361   5.788   7.718   6.569
10806TIP3    H232362   5.776   7.614   6.679
10807TIP3   OH232363   6.832   4.993   0.478
10807TIP3    H132364   6.920   4.988   0.441
10807TIP3    H232365   6.774   4.971   0.405
10808TIP3   OH232366   7.049   3.655   2.902
10808TIP3    H132367   7.092   3.716   2.962
10808TIP3    H232368   6.959   3.649   2.934
10809TIP3   OH232369   4.020   1.651   5.442
10809TIP3    H132370   4.044   1.737   5.409
10809TIP3    H232371   4.018   1.661   5.538
10810TIP3   OH232372   2.765   3.490   3.488
10810TIP3    H132373   2.814   3.537   3.555
10810TIP3    H232374   2.785   3.398   3.504
10811TIP3   OH232375   6.673   2.192   2.366
10811TIP3    H132376   6.700   2.258   2.430
10811TIP3    H232377   6.691   2.232   2.281
10812TIP3   OH232378   0.063   0.713   1.074
10812TIP3    H132379   0.137   0.697   1.133
10812TIP3    H232380  -0.012   0.724   1.133
10813TIP3   OH232381   4.635   2.164   6.642
10813TIP3    H132382   4.552   2.172   6.595
10813TIP3    H232383   4.616   2.105   6.715
10814TIP3   OH232384   3.794   5.805   4.531
10814TIP3    H132385   3.745   5.792   4.612
10814TIP3    H232386   3.886   5.806   4.558
10815TIP3   OH232387   6.365   0.006   6.421
10815TIP3    H132388   6.333  -0.049   6.349
10815TIP3    H232389   6.386  -0.055   6.491
10816TIP3   OH232390   6.305   3.840   5.443
10816TIP3    H132391   6.323   3.933   5.429
10816TIP3    H232392   6.387   3.805   5.478
10817TIP3   OH232393   1.390   7.099   3.402
10817TIP3    H132394   1.453   7.028   3.401
10817TIP3    H232395   1.326   7.076   3.334
10818TIP3   OH232396   5.471   7.194   5.851
10818TIP3    H132397   5.415   7.247   5.795
10818TIP3    H232398   5.435   7.106   5.845
10819TIP3   OH232399   0.047   3.375   6.230
10819TIP3    H132400  -0.008   3.316   6.178
10819TIP3    H232401   0.093   3.429   6.165
10820TIP3   OH232402   4.249   1.470   0.348
10820TIP3    H132403   4.232   1.379   0.370
10820TIP3    H232404   4.340   1.471   0.316
10821TIP3   OH232405   4.629   5.740   2.477
10821TIP3    H132406   4.591   5.673   2.533
10821TIP3    H232407   4.556   5.769   2.421
10822TIP3   OH232408   7.566   6.245   0.270
10822TIP3    H132409   7.558   6.234   0.175
10822TIP3    H232410   7.479   6.222   0.303
10823TIP3   OH232411   0.411   0.270   4.929
10823TIP3    H132412   0.492   0.313   4.955
10823TIP3    H232413   0.436   0.214   4.856
10824TIP3   OH232414   0.167   0.421   5.363
10824TIP3    H132415   0.086   0.471   5.352
10824TIP3    H232416   0.164   0.356   5.292
10825TIP3   OH232417   7.503   2.248   1.725
10825TIP3    H132418   7.435   2.257   1.659
10825TIP3    H232419   7.549   2.332   1.724
10826TIP3   OH232420   7.553   2.964   0.380
10826TIP3    H132421   7.504   2.958   0.298
10826TIP3    H232422   7.629   2.907   0.366
10827TIP3   OH232423   4.309   2.444   5.469
10827TIP3    H132424   4.331   2.414   5.381
10827TIP3    H232425   4.391   2.438   5.518
10828TIP3   OH232426   3.185   3.826   2.564
10828TIP3    H132427   3.149   3.902   2.519
10828TIP3    H232428   3.187   3.850   2.656
10829TIP3   OH232429   3.816   3.921   5.998
10829TIP3    H132430   3.862   3.959   6.073
10829TIP3    H232431   3.730   3.897   6.033
10830TIP3   OH232432   3.946   2.329   1.793
10830TIP3    H132433   3.893   2.380   1.732
10830TIP3    H232434   3.947   2.381   1.874
10831TIP3   OH232435   3.712   0.805   2.541
10831TIP3    H132436   3.681   0.722   2.506
10831TIP3    H232437   3.800   0.816   2.505
10832TIP3   OH232438   6.197   4.737   0.231
10832TIP3    H132439   6.161   4.650   0.249
10832TIP3    H232440   6.203   4.742   0.136
10833TIP3   OH232441   1.702   0.493   3.581
10833TIP3    H132442   1.720   0.453   3.496
10833TIP3    H232443   1.651   0.428   3.628
10834TIP3   OH232444   3.150   5.280   1.371
10834TIP3    H132445   3.113   5.316   1.451
10834TIP3    H232446   3.074   5.258   1.317
10835TIP3   OH232447   7.200   4.742   4.500
10835TIP3    H132448   7.227   4.717   4.412
10835TIP3    H232449   7.168   4.832   4.491
10836TIP3   OH232450   3.345   6.500   4.650
10836TIP3    H132451   3.363   6.490   4.744
10836TIP3    H232452   3.267   6.556   4.647
10837TIP3   OH232453   7.734   1.391   3.993
10837TIP3    H132454   7.659   1.352   3.948
10837TIP3    H232455   7.809   1.375   3.936
10838TIP3   OH232456   1.251   3.336   1.223
10838TIP3    H132457   1.268   3.393   1.298
10838TIP3    H232458   1.336   3.322   1.183
10839TIP3   OH232459   5.787   4.192   0.382
10839TIP3    H132460   5.843   4.218   0.456
10839TIP3    H232461   5.792   4.097   0.381
10840TIP3   OH232462   6.739   2.820   5.947
10840TIP3    H132463   6.711   2.737   5.909
10840TIP3    H232464   6.688   2.829   6.027
10841TIP3   OH232465   2.322   4.950   3.827
10841TIP3    H132466   2.249   4.959   3.767
10841TIP3    H232467   2.344   4.857   3.825
10842TIP3   OH232468   5.914   3.271   4.645
10842TIP3    H132469   5.985   3.261   4.581
10842TIP3    H232470   5.925   3.197   4.705
10843TIP3   OH232471   7.566   1.272   2.427
10843TIP3    H132472   7.498   1.208   2.407
10843TIP3    H232473   7.584   1.261   2.520
10844TIP3   OH232474   0.925   6.134   4.496
10844TIP3    H132475   0.860   6.199   4.472
10844TIP3    H232476   1.006   6.164   4.456
10845TIP3   OH232477   5.078   2.419   5.049
10845TIP3    H132478   5.072   2.436   4.955
10845TIP3    H232479   4.988   2.402   5.076
10846TIP3   OH232480   4.283   1.823   1.322
10846TIP3    H132481   4.337   1.755   1.282
10846TIP3    H232482   4.214   1.775   1.368
10847TIP3   OH232483   7.068   5.870   6.535
10847TIP3    H132484   7.007   5.943   6.546
10847TIP3    H232485   7.139   5.906   6.482
10848TIP3   OH232486   5.498   6.204   4.138
10848TIP3    H132487   5.572   6.260   4.163
10848TIP3    H232488   5.528   6.161   4.057
10849TIP3   OH232489   0.035   2.883   0.960
10849TIP3    H132490   0.073   2.956   1.007
10849TIP3    H232491  -0.052   2.913   0.935
10850TIP3   OH232492   6.581   2.464   3.979
10850TIP3    H132493   6.634   2.398   3.935
10850TIP3    H232494   6.566   2.531   3.912
10851TIP3   OH232495   8.041   1.161   1.773
10851TIP3    H132496   7.953   1.153   1.738
10851TIP3    H232497   8.055   1.256   1.783
10852TIP3   OH232498   1.597   4.468   2.147
10852TIP3    H132499   1.624   4.377   2.133
10852TIP3    H232500   1.561   4.495   2.062
10853TIP3   OH232501   0.474   5.803   2.190
10853TIP3    H132502   0.457   5.725   2.243
10853TIP3    H232503   0.498   5.871   2.253
10854TIP3   OH232504   4.616   2.030   6.200
10854TIP3    H132505   4.663   2.091   6.256
10854TIP3    H232506   4.596   2.081   6.121
10855TIP3   OH232507   2.595   4.496   0.895
10855TIP3    H132508   2.588   4.540   0.979
10855TIP3    H232509   2.640   4.414   0.914
10856TIP3   OH232510   6.781   5.826   1.433
10856TIP3    H132511   6.802   5.850   1.343
10856TIP3    H232512   6.685   5.818   1.434
10857TIP3   OH232513   7.179  -0.007   5.256
10857TIP3    H132514   7.261  -0.051   5.234
10857TIP3    H232515   7.199   0.086   5.249
10858TIP3   OH232516   5.038   7.591   5.922
10858TIP3    H132517   5.037   7.616   6.015
10858TIP3    H232518   5.130   7.602   5.897
10859TIP3   OH232519   2.300   3.033   5.276
10859TIP3    H132520   2.318   3.001   5.365
10859TIP3    H232521   2.330   3.124   5.277
10860TIP3   OH232522   3.396   2.241   1.696
10860TIP3    H132523   3.441   2.307   1.749
10860TIP3    H232524   3.433   2.158   1.725
10861TIP3   OH232525   2.712   4.466   0.517
10861TIP3    H132526   2.757   4.393   0.475
10861TIP3    H232527   2.782   4.520   0.553
10862TIP3   OH232528   4.729   4.684   3.022
10862TIP3    H132529   4.775   4.768   3.027
10862TIP3    H232530   4.785   4.623   3.070
10863TIP3   OH232531   7.180   2.265   0.724
10863TIP3    H132532   7.180   2.169   0.721
10863TIP3    H232533   7.088   2.288   0.737
10864TIP3   OH232534   3.375   0.094   3.186
10864TIP3    H132535   3.306   0.129   3.129
10864TIP3    H232536   3.414   0.023   3.136
10865TIP3   OH232537   2.067   1.116   5.578
10865TIP3    H132538   2.086   1.199   5.536
10865TIP3    H232539   1.977   1.095   5.551
10866TIP3   OH232540   1.047   0.311   0.173
10866TIP3    H132541   1.071   0.397   0.207
10866TIP3    H232542   0.965   0.325   0.125
10867TIP3   OH232543   0.940   2.056   3.985
10867TIP3    H132544   1.013   2.004   4.020
10867TIP3    H232545   0.862   2.005   4.008
10868TIP3   OH232546   7.222   7.138   1.002
10868TIP3    H132547   7.280   7.149   0.926
10868TIP3    H232548   7.169   7.061   0.981
10869TIP3   OH232549   8.216   3.642   1.921
10869TIP3    H132550   8.135   3.649   1.972
10869TIP3    H232551   8.197   3.574   1.856
10870TIP3   OH232552   6.560   0.043   5.639
10870TIP3    H132553   6.604   0.115   5.594
10870TIP3    H232554   6.489   0.085   5.687
10871TIP3   OH232555   2.348   3.349   0.556
10871TIP3    H132556   2.305   3.434   0.559
10871TIP3    H232557   2.428   3.360   0.606
10872TIP3   OH232558   3.161   1.005   4.645
10872TIP3    H132559   3.201   1.047   4.721
10872TIP3    H232560   3.172   1.068   4.574
10873TIP3   OH232561   2.646   7.173   5.371
10873TIP3    H132562   2.681   7.224   5.299
10873TIP3    H232563   2.567   7.132   5.336
10874TIP3   OH232564   3.062   6.546   4.453
10874TIP3    H132565   3.054   6.628   4.403
10874TIP3    H232566   3.047   6.477   4.388
10875TIP3   OH232567   2.198   7.295   4.645
10875TIP3    H132568   2.226   7.218   4.695
10875TIP3    H232569   2.251   7.293   4.566
10876TIP3   OH232570   8.167   6.874   5.794
10876TIP3    H132571   8.255   6.903   5.815
10876TIP3    H232572   8.112   6.911   5.864
10877TIP3   OH232573   0.262   6.836   0.962
10877TIP3    H132574   0.166   6.841   0.966
10877TIP3    H232575   0.292   6.908   1.017
10878TIP3   OH232576   6.279   6.845   5.793
10878TIP3    H132577   6.183   6.847   5.799
10878TIP3    H232578   6.296   6.790   5.717
10879TIP3   OH232579   4.342   1.584   1.225
10879TIP3    H132580   4.434   1.580   1.201
10879TIP3    H232581   4.295   1.577   1.142
10880TIP3   OH232582   5.443   6.307   0.801
10880TIP3    H132583   5.476   6.217   0.801
10880TIP3    H232584   5.382   6.310   0.876
10881TIP3   OH232585   6.108   0.851   6.024
10881TIP3    H132586   6.034   0.790   6.029
10881TIP3    H232587   6.132   0.852   5.931
10882TIP3   OH232588   6.891   0.389   0.659
10882TIP3    H132589   6.806   0.403   0.701
10882TIP3    H232590   6.945   0.461   0.691
10883TIP3   OH232591   5.107   2.382   1.307
10883TIP3    H132592   5.061   2.365   1.225
10883TIP3    H232593   5.191   2.338   1.296
10884TIP3   OH232594   0.078   5.291   2.993
10884TIP3    H132595   0.024   5.217   2.964
10884TIP3    H232596   0.028   5.329   3.065
10885TIP3   OH232597   5.450   7.038   1.472
10885TIP3    H132598   5.393   6.967   1.500
10885TIP3    H232599   5.416   7.115   1.516
10886TIP3   OH232600   2.742   7.199   5.651
10886TIP3    H132601   2.684   7.220   5.724
10886TIP3    H232602   2.685   7.202   5.574
10887TIP3   OH232603   2.271   7.801   4.297
10887TIP3    H132604   2.365   7.799   4.279
10887TIP3    H232605   2.250   7.710   4.320
10888TIP3   OH232606   1.262   2.938   5.024
10888TIP3    H132607   1.327   3.002   4.997
10888TIP3    H232608   1.257   2.948   5.119
10889TIP3   OH232609   2.318   5.085   2.849
10889TIP3    H132610   2.262   5.065   2.773
10889TIP3    H232611   2.264   5.141   2.904
10890TIP3   OH232612   1.757   4.240   0.507
10890TIP3    H132613   1.816   4.230   0.432
10890TIP3    H232614   1.815   4.238   0.583
10891TIP3   OH232615   1.780   1.291   3.407
10891TIP3    H132616   1.812   1.339   3.331
10891TIP3    H232617   1.856   1.241   3.437
10892TIP3   OH232618   7.969   2.275   4.409
10892TIP3    H132619   7.971   2.305   4.317
10892TIP3    H232620   8.058   2.290   4.440
10893TIP3   OH232621   4.830   4.514   3.276
10893TIP3    H132622   4.876   4.448   3.224
10893TIP3    H232623   4.814   4.472   3.360
10894TIP3   OH232624   3.036   3.934   5.140
10894TIP3    H132625   3.046   3.859   5.198
10894TIP3    H232626   3.120   3.979   5.144
10895TIP3   OH232627   5.877   2.132   5.462
10895TIP3    H132628   5.940   2.071   5.500
10895TIP3    H232629   5.916   2.156   5.378
10896TIP3   OH232630   3.367   5.776   0.966
10896TIP3    H132631   3.446   5.772   1.020
10896TIP3    H232632   3.349   5.870   0.958
10897TIP3   OH232633   8.010   3.715   1.604
10897TIP3    H132634   7.922   3.753   1.592
10897TIP3    H232635   7.993   3.627   1.637
10898TIP3   OH232636   4.783   1.437   6.227
10898TIP3    H132637   4.823   1.387   6.156
10898TIP3    H232638   4.814   1.527   6.213
10899TIP3   OH232639   6.316   3.851   2.453
10899TIP3    H132640   6.302   3.789   2.381
10899TIP3    H232641   6.350   3.930   2.411
10900TIP3   OH232642   7.598   6.757   0.763
10900TIP3    H132643   7.649   6.735   0.684
10900TIP3    H232644   7.606   6.852   0.770
10901TIP3   OH232645   1.244   2.462   3.157
10901TIP3    H132646   1.320   2.493   3.110
10901TIP3    H232647   1.204   2.541   3.194
10902TIP3   OH232648   4.729   6.984   6.603
10902TIP3    H132649   4.711   6.952   6.692
10902TIP3    H232650   4.662   7.052   6.589
10903TIP3   OH232651   4.792   7.177   4.178
10903TIP3    H132652   4.726   7.174   4.110
10903TIP3    H232653   4.779   7.262   4.220
10904TIP3   OH232654   0.423   0.959   0.797
10904TIP3    H132655   0.392   0.903   0.869
10904TIP3    H232656   0.389   1.046   0.818
10905TIP3   OH232657   3.225   7.567   2.093
10905TIP3    H132658   3.282   7.491   2.094
10905TIP3    H232659   3.160   7.550   2.161
10906TIP3   OH232660   0.763   6.658   5.007
10906TIP3    H132661   0.830   6.590   5.018
10906TIP3    H232662   0.805   6.738   5.037
10907TIP3   OH232663   3.406   6.483   4.291
10907TIP3    H132664   3.423   6.448   4.204
10907TIP3    H232665   3.376   6.408   4.342
10908TIP3   OH232666   2.202   7.506   6.521
10908TIP3    H132667   2.235   7.544   6.440
10908TIP3    H232668   2.109   7.491   6.504
10909TIP3   OH232669   7.708   2.887   0.052
10909TIP3    H132670   7.692   2.870   0.145
10909TIP3    H232671   7.657   2.819   0.007
10910TIP3   OH232672   6.401   4.366   2.792
10910TIP3    H132673   6.470   4.300   2.802
10910TIP3    H232674   6.448   4.449   2.786
10911TIP3   OH232675   0.756   5.442   2.239
10911TIP3    H132676   0.743   5.533   2.263
10911TIP3    H232677   0.769   5.396   2.322
10912TIP3   OH232678   4.962   4.361   4.218
10912TIP3    H132679   5.042   4.360   4.165
10912TIP3    H232680   4.970   4.439   4.273
10913TIP3   OH232681   3.419   2.063   3.444
10913TIP3    H132682   3.407   2.009   3.522
10913TIP3    H232683   3.422   2.001   3.372
10914TIP3   OH232684   2.206   0.433   5.103
10914TIP3    H132685   2.183   0.463   5.015
10914TIP3    H232686   2.246   0.510   5.144
10915TIP3   OH232687   3.033   4.795   5.788
10915TIP3    H132688   3.024   4.868   5.727
10915TIP3    H232689   3.121   4.803   5.822
10916TIP3   OH232690   7.361   2.239   4.539
10916TIP3    H132691   7.325   2.310   4.592
10916TIP3    H232692   7.285   2.188   4.512
10917TIP3   OH232693   3.375   3.638   1.191
10917TIP3    H132694   3.336   3.725   1.188
10917TIP3    H232695   3.394   3.616   1.100
10918TIP3   OH232696   3.781   1.394   0.891
10918TIP3    H132697   3.761   1.397   0.985
10918TIP3    H232698   3.862   1.344   0.885
10919TIP3   OH232699   6.931   3.870   4.724
10919TIP3    H132700   6.886   3.898   4.645
10919TIP3    H232701   6.993   3.803   4.694
10920TIP3   OH232702   2.595   2.747   5.141
10920TIP3    H132703   2.646   2.694   5.203
10920TIP3    H232704   2.513   2.699   5.130
10921TIP3   OH232705   5.562   0.680   2.881
10921TIP3    H132706   5.540   0.750   2.819
10921TIP3    H232707   5.520   0.706   2.962
10922TIP3   OH232708   7.994   7.260   6.731
10922TIP3    H132709   7.932   7.330   6.712
10922TIP3    H232710   7.951   7.181   6.697
10923TIP3   OH232711   0.682   1.149   2.011
10923TIP3    H132712   0.655   1.170   1.921
10923TIP3    H232713   0.604   1.112   2.051
10924TIP3   OH232714   0.273   1.343   1.735
10924TIP3    H132715   0.207   1.298   1.787
10924TIP3    H232716   0.227   1.372   1.656
10925TIP3   OH232717   3.266   2.029   4.731
10925TIP3    H132718   3.288   1.957   4.790
10925TIP3    H232719   3.186   2.000   4.687
10926TIP3   OH232720   3.403   6.528   5.676
10926TIP3    H132721   3.332   6.504   5.736
10926TIP3    H232722   3.368   6.601   5.625
10927TIP3   OH232723   4.406   6.603   6.368
10927TIP3    H132724   4.461   6.534   6.405
10927TIP3    H232725   4.407   6.586   6.274
10928TIP3   OH232726   2.457   2.145   1.018
10928TIP3    H132727   2.488   2.058   1.043
10928TIP3    H232728   2.533   2.202   1.031
10929TIP3   OH232729   2.536   1.193   6.483
10929TIP3    H132730   2.624   1.209   6.449
10929TIP3    H232731   2.543   1.109   6.528
10930TIP3   OH232732   7.800   6.452   6.017
10930TIP3    H132733   7.714   6.455   6.059
10930TIP3    H232734   7.832   6.364   6.033
10931TIP3   OH232735   4.862   1.930   4.304
10931TIP3    H132736   4.802   1.950   4.233
10931TIP3    H232737   4.837   1.842   4.333
10932TIP3   OH232738   5.540   4.983   2.225
10932TIP3    H132739   5.567   4.993   2.134
10932TIP3    H232740   5.444   4.974   2.220
10933TIP3   OH232741   4.109   6.301   6.318
10933TIP3    H132742   4.126   6.365   6.388
10933TIP3    H232743   4.138   6.217   6.354
10934TIP3   OH232744   5.046   1.235   5.614
10934TIP3    H132745   5.091   1.156   5.584
10934TIP3    H232746   5.087   1.306   5.566
10935TIP3   OH232747   7.661   1.288   1.133
10935TIP3    H132748   7.686   1.380   1.136
10935TIP3    H232749   7.730   1.243   1.182
10936TIP3   OH232750   6.974   2.027   3.132
10936TIP3    H132751   7.059   2.001   3.169
10936TIP3    H232752   6.941   2.094   3.192
10937TIP3   OH232753   7.394   3.825   2.909
10937TIP3    H132754   7.393   3.791   2.819
10937TIP3    H232755   7.486   3.846   2.926
10938TIP3   OH232756   4.703   0.484   6.563
10938TIP3    H132757   4.770   0.430   6.520
10938TIP3    H232758   4.666   0.537   6.492
10939TIP3   OH232759   7.912   7.394   3.611
10939TIP3    H132760   7.937   7.476   3.653
10939TIP3    H232761   7.946   7.402   3.522
10940TIP3   OH232762   5.222   4.646   4.576
10940TIP3    H132763   5.295   4.701   4.604
10940TIP3    H232764   5.155   4.658   4.643
10941TIP3   OH232765   5.273   3.371   5.900
10941TIP3    H132766   5.212   3.363   5.974
10941TIP3    H232767   5.259   3.459   5.866
10942TIP3   OH232768   2.051   0.378   4.381
10942TIP3    H132769   1.959   0.357   4.369
10942TIP3    H232770   2.052   0.467   4.416
10943TIP3   OH232771   2.669   4.701   3.657
10943TIP3    H132772   2.654   4.766   3.588
10943TIP3    H232773   2.756   4.665   3.638
10944TIP3   OH232774   4.742   6.650   4.589
10944TIP3    H132775   4.751   6.572   4.535
10944TIP3    H232776   4.730   6.721   4.526
10945TIP3   OH232777   3.064   5.424   4.735
10945TIP3    H132778   3.155   5.401   4.715
10945TIP3    H232779   3.068   5.467   4.820
10946TIP3   OH232780   5.965   0.956   3.933
10946TIP3    H132781   6.004   0.946   4.020
10946TIP3    H232782   5.871   0.957   3.949
10947TIP3   OH232783   5.396   3.970   2.104
10947TIP3    H132784   5.344   3.903   2.149
10947TIP3    H232785   5.452   4.007   2.173
10948TIP3   OH232786   6.436   4.789   1.423
10948TIP3    H132787   6.487   4.815   1.345
10948TIP3    H232788   6.345   4.797   1.395
10949TIP3   OH232789   7.051   7.421   5.685
10949TIP3    H132790   6.984   7.434   5.752
10949TIP3    H232791   7.046   7.328   5.663
10950TIP3   OH232792   0.688   1.770   5.218
10950TIP3    H132793   0.781   1.787   5.203
10950TIP3    H232794   0.664   1.709   5.148
10951TIP3   OH232795   0.414   4.125   3.532
10951TIP3    H132796   0.502   4.088   3.536
10951TIP3    H232797   0.365   4.077   3.598
10952TIP3   OH232798   0.474   3.847   5.037
10952TIP3    H132799   0.428   3.787   4.978
10952TIP3    H232800   0.406   3.877   5.098
10953TIP3   OH232801   6.501   5.618   1.883
10953TIP3    H132802   6.456   5.534   1.895
10953TIP3    H232803   6.553   5.628   1.962
10954TIP3   OH232804   1.342   2.147   5.999
10954TIP3    H132805   1.420   2.181   5.956
10954TIP3    H232806   1.286   2.117   5.928
10955TIP3   OH232807   1.905   4.787   4.234
10955TIP3    H132808   1.970   4.847   4.198
10955TIP3    H232809   1.956   4.718   4.276
10956TIP3   OH232810   0.107   1.159   6.118
10956TIP3    H132811   0.114   1.094   6.188
10956TIP3    H232812   0.165   1.231   6.145
10957TIP3   OH232813   3.855   6.413   5.188
10957TIP3    H132814   3.784   6.427   5.124
10957TIP3    H232815   3.891   6.501   5.203
10958TIP3   OH232816   2.770   5.469   2.724
10958TIP3    H132817   2.754   5.429   2.638
10958TIP3    H232818   2.849   5.521   2.712
10959TIP3   OH232819   2.158   3.026   3.383
10959TIP3    H132820   2.192   3.045   3.470
10959TIP3    H232821   2.236   3.013   3.329
10960TIP3   OH232822   2.679   3.141   3.782
10960TIP3    H132823   2.602   3.086   3.767
10960TIP3    H232824   2.729   3.094   3.849
10961TIP3   OH232825   2.945   4.824   2.249
10961TIP3    H132826   2.851   4.822   2.229
10961TIP3    H232827   2.953   4.893   2.315
10962TIP3   OH232828   6.493   3.632   0.897
10962TIP3    H132829   6.498   3.608   0.990
10962TIP3    H232830   6.525   3.556   0.850
10963TIP3   OH232831   5.613   5.076   5.860
10963TIP3    H132832   5.567   4.992   5.864
10963TIP3    H232833   5.556   5.131   5.806
10964TIP3   OH232834   4.729   0.045   2.915
10964TIP3    H132835   4.707   0.002   2.833
10964TIP3    H232836   4.757  -0.026   2.973
10965TIP3   OH232837   1.173   4.359   4.023
10965TIP3    H132838   1.184   4.265   4.037
10965TIP3    H232839   1.233   4.380   3.951
10966TIP3   OH232840   2.062   0.093   1.549
10966TIP3    H132841   2.081   0.064   1.639
10966TIP3    H232842   1.994   0.032   1.519
10967TIP3   OH232843   2.397   5.132   1.626
10967TIP3    H132844   2.390   5.205   1.564
10967TIP3    H232845   2.477   5.151   1.676
10968TIP3   OH232846   2.972   2.044   2.770
10968TIP3    H132847   3.039   2.052   2.838
10968TIP3    H232848   2.964   2.132   2.734
10969TIP3   OH232849   1.095   1.346   0.621
10969TIP3    H132850   1.164   1.399   0.581
10969TIP3    H232851   1.040   1.318   0.548
10970TIP3   OH232852   2.308   5.594   6.307
10970TIP3    H132853   2.255   5.673   6.298
10970TIP3    H232854   2.245   5.527   6.335
10971TIP3   OH232855   7.266   2.787   4.374
10971TIP3    H132856   7.219   2.856   4.420
10971TIP3    H232857   7.214   2.708   4.388
10972TIP3   OH232858   5.215   5.668   3.483
10972TIP3    H132859   5.252   5.755   3.489
10972TIP3    H232860   5.155   5.662   3.558
10973TIP3   OH232861   0.682   0.564   6.340
10973TIP3    H132862   0.678   0.530   6.429
10973TIP3    H232863   0.774   0.587   6.327
10974TIP3   OH232864   4.319   1.891   2.729
10974TIP3    H132865   4.284   1.802   2.725
10974TIP3    H232866   4.251   1.942   2.774
10975TIP3   OH232867   8.048   1.819   3.192
10975TIP3    H132868   8.024   1.846   3.280
10975TIP3    H232869   7.978   1.853   3.136
10976TIP3   OH232870   4.186   7.502   2.644
10976TIP3    H132871   4.119   7.525   2.708
10976TIP3    H232872   4.138   7.469   2.568
10977TIP3   OH232873   4.454   6.146   6.308
10977TIP3    H132874   4.543   6.180   6.315
10977TIP3    H232875   4.457   6.086   6.234
10978TIP3   OH232876   5.177   3.699   6.438
10978TIP3    H132877   5.256   3.669   6.393
10978TIP3    H232878   5.207   3.772   6.493
10979TIP3   OH232879   7.030   5.866   2.520
10979TIP3    H132880   7.071   5.930   2.462
10979TIP3    H232881   6.999   5.916   2.595
10980TIP3   OH232882   1.292   7.544   5.410
10980TIP3    H132883   1.381   7.524   5.381
10980TIP3    H232884   1.238   7.531   5.332
10981TIP3   OH232885   6.497   5.656   3.121
10981TIP3    H132886   6.457   5.710   3.053
10981TIP3    H232887   6.542   5.718   3.178
10982TIP3   OH232888   3.597   3.339   1.083
10982TIP3    H132889   3.678   3.287   1.083
10982TIP3    H232890   3.540   3.295   1.146
10983TIP3   OH232891   8.109   0.362   4.012
10983TIP3    H132892   8.130   0.456   4.010
10983TIP3    H232893   8.087   0.340   3.922
10984TIP3   OH232894   7.481   1.079   0.856
10984TIP3    H132895   7.572   1.110   0.857
10984TIP3    H232896   7.434   1.144   0.804
10985TIP3   OH232897   4.258   3.853   4.053
10985TIP3    H132898   4.220   3.855   4.140
10985TIP3    H232899   4.264   3.945   4.026
10986TIP3   OH232900   8.235   6.881   1.954
10986TIP3    H132901   8.316   6.893   1.906
10986TIP3    H232902   8.170   6.933   1.906
10987TIP3   OH232903   4.496   0.945   4.535
10987TIP3    H132904   4.404   0.972   4.541
10987TIP3    H232905   4.542   1.005   4.594
10988TIP3   OH232906   5.518   4.508   6.397
10988TIP3    H132907   5.603   4.536   6.431
10988TIP3    H232908   5.463   4.585   6.403
10989TIP3   OH232909   2.911   1.728   1.754
10989TIP3    H132910   2.973   1.792   1.718
10989TIP3    H232911   2.961   1.647   1.762
10990TIP3   OH232912   3.860   1.535  -0.021
10990TIP3    H132913   3.923   1.553   0.048
10990TIP3    H232914   3.913   1.501  -0.094
10991TIP3   OH232915   0.052   4.454   6.680
10991TIP3    H132916   0.091   4.514   6.616
10991TIP3    H232917  -0.040   4.450   6.656
10992TIP3   OH232918   0.130   5.711   3.590
10992TIP3    H132919   0.108   5.650   3.660
10992TIP3    H232920   0.224   5.729   3.603
10993TIP3   OH232921   5.361   4.806   3.776
10993TIP3    H132922   5.296   4.840   3.837
10993TIP3    H232923   5.439   4.792   3.830
10994TIP3   OH232924   1.729   7.610   0.735
10994TIP3    H132925   1.683   7.575   0.812
10994TIP3    H232926   1.682   7.572   0.661
10995TIP3   OH232927   0.923   2.708   1.612
10995TIP3    H132928   0.907   2.622   1.574
10995TIP3    H232929   1.018   2.714   1.617
10996TIP3   OH232930   3.329   2.719   5.741
10996TIP3    H132931   3.376   2.670   5.809
10996TIP3    H232932   3.378   2.800   5.731
10997TIP3   OH232933   0.445   3.310   1.594
10997TIP3    H132934   0.457   3.318   1.500
10997TIP3    H232935   0.498   3.380   1.632
10998TIP3   OH232936   5.525   6.808   5.080
10998TIP3    H132937   5.590   6.764   5.026
10998TIP3    H232938   5.571   6.828   5.162
10999TIP3   OH232939   1.877   1.792   1.848
10999TIP3    H132940   1.927   1.728   1.899
10999TIP3    H232941   1.874   1.756   1.759
11000TIP3   OH232942   6.407   5.814   0.497
11000TIP3    H132943   6.405   5.722   0.470
11000TIP3    H232944   6.462   5.857   0.432
11001TIP3   OH232945   3.634   1.678   3.302
11001TIP3    H132946   3.656   1.665   3.209
11001TIP3    H232947   3.613   1.590   3.334
11002TIP3   OH232948   6.987   4.683   2.765
11002TIP3    H132949   7.046   4.625   2.717
11002TIP3    H232950   6.997   4.657   2.857
11003TIP3   OH232951   5.366   0.225   6.485
11003TIP3    H132952   5.301   0.290   6.510
11003TIP3    H232953   5.340   0.145   6.530
11004TIP3   OH232954   0.870   0.874   0.704
11004TIP3    H132955   0.817   0.935   0.653
11004TIP3    H232956   0.948   0.925   0.727
11005TIP3   OH232957   1.189   6.559   3.512
11005TIP3    H132958   1.228   6.641   3.482
11005TIP3    H232959   1.258   6.494   3.502
11006TIP3   OH232960   3.843   1.473   5.820
11006TIP3    H132961   3.770   1.516   5.774
11006TIP3    H232962   3.801   1.419   5.887
11007TIP3   OH232963   4.176   6.754   3.582
11007TIP3    H132964   4.198   6.734   3.673
11007TIP3    H232965   4.199   6.675   3.534
11008TIP3   OH232966   2.632   1.772   1.720
11008TIP3    H132967   2.724   1.771   1.746
11008TIP3    H232968   2.623   1.697   1.661
11009TIP3   OH232969   5.525   6.630   2.401
11009TIP3    H132970   5.565   6.621   2.488
11009TIP3    H232971   5.532   6.543   2.362
11010TIP3   OH232972   6.771   6.050   4.178
11010TIP3    H132973   6.777   6.088   4.090
11010TIP3    H232974   6.801   6.120   4.236
11011TIP3   OH232975   3.357   2.204   0.610
11011TIP3    H132976   3.412   2.281   0.593
11011TIP3    H232977   3.277   2.221   0.561
11012TIP3   OH232978   3.448   2.364   0.327
11012TIP3    H132979   3.389   2.312   0.272
11012TIP3    H232980   3.401   2.445   0.344
11013TIP3   OH232981   1.581   0.067   5.426
11013TIP3    H132982   1.525   0.047   5.500
11013TIP3    H232983   1.567  -0.006   5.365
11014TIP3   OH232984   3.518   2.445   0.622
11014TIP3    H132985   3.579   2.516   0.643
11014TIP3    H232986   3.510   2.447   0.527
11015TIP3   OH232987   3.153   2.958   2.832
11015TIP3    H132988   3.156   3.053   2.824
11015TIP3    H232989   3.062   2.938   2.853
11016TIP3   OH232990   5.037   5.144   2.877
11016TIP3    H132991   5.084   5.215   2.832
11016TIP3    H232992   4.945   5.171   2.873
11017TIP3   OH232993   0.468   1.128   3.717
11017TIP3    H132994   0.479   1.125   3.812
11017TIP3    H232995   0.533   1.191   3.687
11018TIP3   OH232996   6.059   1.975   0.112
11018TIP3    H132997   6.023   1.902   0.162
11018TIP3    H232998   6.114   2.022   0.174
11019TIP3   OH232999   0.544   7.103   4.945
11019TIP3    H133000   0.515   7.086   5.034
11019TIP3    H233001   0.463   7.116   4.895
11020TIP3   OH233002   1.955   2.096   2.599
11020TIP3    H133003   1.921   2.011   2.571
11020TIP3    H233004   2.007   2.127   2.525
11021TIP3   OH233005   5.963   6.885   4.131
11021TIP3    H133006   5.919   6.964   4.164
11021TIP3    H233007   6.014   6.853   4.205
11022TIP3   OH233008   3.567   4.899   5.679
11022TIP3    H133009   3.533   4.914   5.591
11022TIP3    H233010   3.618   4.978   5.699
11023TIP3   OH233011   5.126   3.000   1.496
11023TIP3    H133012   5.095   2.935   1.559
11023TIP3    H233013   5.221   2.999   1.506
11024TIP3   OH233014   6.291   4.492   1.249
11024TIP3    H133015   6.298   4.542   1.168
11024TIP3    H233016   6.227   4.540   1.302
11025TIP3   OH233017   5.189   6.787   4.118
11025TIP3    H133018   5.179   6.874   4.080
11025TIP3    H233019   5.174   6.727   4.045
11026TIP3   OH233020   3.335   0.859   4.023
11026TIP3    H133021   3.289   0.823   4.098
11026TIP3    H233022   3.277   0.928   3.991
11027TIP3   OH233023   7.579   5.615   4.327
11027TIP3    H133024   7.609   5.623   4.236
11027TIP3    H233025   7.606   5.696   4.369
11028TIP3   OH233026   3.616   0.364   3.141
11028TIP3    H133027   3.547   0.355   3.075
11028TIP3    H233028   3.585   0.433   3.199
11029TIP3   OH233029   7.525   0.109   3.473
11029TIP3    H133030   7.571   0.025   3.483
11029TIP3    H233031   7.467   0.095   3.398
11030TIP3   OH233032   0.044   4.721   4.956
11030TIP3    H133033   0.086   4.656   4.900
11030TIP3    H233034   0.052   4.803   4.907
11031TIP3   OH233035   8.061   3.893   4.649
11031TIP3    H133036   8.043   3.933   4.734
11031TIP3    H233037   8.045   3.800   4.662
11032TIP3   OH233038   0.561   5.294   0.180
11032TIP3    H133039   0.538   5.235   0.253
11032TIP3    H233040   0.560   5.381   0.219
11033TIP3   OH233041   1.199   6.075   0.711
11033TIP3    H133042   1.182   6.135   0.638
11033TIP3    H233043   1.253   6.006   0.673
11034TIP3   OH233044   7.931   1.344   3.810
11034TIP3    H133045   7.978   1.427   3.805
11034TIP3    H233046   7.995   1.282   3.844
11035TIP3   OH233047   4.382   1.269   3.776
11035TIP3    H133048   4.295   1.285   3.815
11035TIP3    H233049   4.374   1.184   3.734
11036TIP3   OH233050   2.328   6.744   1.524
11036TIP3    H133051   2.347   6.757   1.617
11036TIP3    H233052   2.259   6.807   1.504
11037TIP3   OH233053   1.743   3.453   1.209
11037TIP3    H133054   1.786   3.498   1.282
11037TIP3    H233055   1.732   3.521   1.143
11038TIP3   OH233056   1.592   0.692   5.289
11038TIP3    H133057   1.620   0.783   5.297
11038TIP3    H233058   1.635   0.661   5.209
11039TIP3   OH233059   1.735   2.271   6.116
11039TIP3    H133060   1.700   2.192   6.076
11039TIP3    H233061   1.778   2.241   6.196
11040TIP3   OH233062   2.547   6.237   0.596
11040TIP3    H133063   2.496   6.236   0.677
11040TIP3    H233064   2.484   6.263   0.528
11041TIP3   OH233065   3.538   4.560   5.046
11041TIP3    H133066   3.620   4.581   5.090
11041TIP3    H233067   3.525   4.466   5.063
11042TIP3   OH233068   4.670   4.439   4.551
11042TIP3    H133069   4.656   4.345   4.563
11042TIP3    H233070   4.660   4.453   4.457
11043TIP3   OH233071   6.920   1.214   2.996
11043TIP3    H133072   7.003   1.235   2.954
11043TIP3    H233073   6.887   1.299   3.026
11044TIP3   OH233074   4.249   7.624   1.250
11044TIP3    H133075   4.278   7.688   1.186
11044TIP3    H233076   4.161   7.600   1.222
11045TIP3   OH233077   3.256   3.028   3.800
11045TIP3    H133078   3.222   2.942   3.822
11045TIP3    H233079   3.184   3.088   3.819
11046TIP3   OH233080   3.671   3.868   6.402
11046TIP3    H133081   3.637   3.795   6.454
11046TIP3    H233082   3.634   3.854   6.315
11047TIP3   OH233083   0.778   4.422   6.789
11047TIP3    H133084   0.742   4.479   6.721
11047TIP3    H233085   0.870   4.448   6.795
11048TIP3   OH233086   7.705   1.317   0.220
11048TIP3    H133087   7.742   1.390   0.171
11048TIP3    H233088   7.660   1.358   0.294
11049TIP3   OH233089   7.584   1.369   4.490
11049TIP3    H133090   7.552   1.285   4.457
11049TIP3    H233091   7.632   1.406   4.417
11050TIP3   OH233092   1.807   6.450   5.310
11050TIP3    H133093   1.727   6.476   5.357
11050TIP3    H233094   1.795   6.357   5.292
11051TIP3   OH233095   6.597   4.421   4.920
11051TIP3    H133096   6.530   4.359   4.949
11051TIP3    H233097   6.680   4.381   4.946
11052TIP3   OH233098   7.267   5.984   0.109
11052TIP3    H133099   7.223   6.066   0.090
11052TIP3    H233100   7.201   5.917   0.091
11053TIP3   OH233101   0.351   4.632   4.970
11053TIP3    H133102   0.282   4.599   4.913
11053TIP3    H233103   0.332   4.725   4.980
11054TIP3   OH233104   7.880   0.602   0.287
11054TIP3    H133105   7.955   0.636   0.334
11054TIP3    H233106   7.851   0.674   0.231
11055TIP3   OH233107   4.104   3.098   4.974
11055TIP3    H133108   4.053   3.020   4.952
11055TIP3    H233109   4.079   3.119   5.064
11056TIP3   OH233110   4.892   7.730   5.518
11056TIP3    H133111   4.850   7.816   5.507
11056TIP3    H233112   4.945   7.720   5.439
11057TIP3   OH233113   4.900   6.035   1.078
11057TIP3    H133114   4.975   6.047   1.019
11057TIP3    H233115   4.864   5.950   1.055
11058TIP3   OH233116   7.064   7.110   5.739
11058TIP3    H133117   7.127   7.063   5.793
11058TIP3    H233118   7.004   7.042   5.708
11059TIP3   OH233119   4.020   2.553   3.108
11059TIP3    H133120   3.933   2.581   3.080
11059TIP3    H233121   4.024   2.575   3.201
11060TIP3   OH233122   0.636   2.032   2.050
11060TIP3    H133123   0.730   2.016   2.059
11060TIP3    H233124   0.631   2.124   2.022
11061TIP3   OH233125   3.691   3.520   1.491
11061TIP3    H133126   3.690   3.451   1.557
11061TIP3    H233127   3.766   3.498   1.435
11062TIP3   OH233128   1.201   0.081   6.517
11062TIP3    H133129   1.236  -0.007   6.530
11062TIP3    H233130   1.267   0.124   6.462
11063TIP3   OH233131   3.602   5.405   0.919
11063TIP3    H133132   3.618   5.311   0.912
11063TIP3    H233133   3.566   5.429   0.834
11064TIP3   OH233134   2.570   5.057   4.171
11064TIP3    H133135   2.503   5.102   4.120
11064TIP3    H233136   2.555   5.085   4.261
11065TIP3   OH233137   5.661   3.467   4.580
11065TIP3    H133138   5.683   3.536   4.643
11065TIP3    H233139   5.729   3.401   4.593
11066TIP3   OH233140   6.735   6.764   2.316
11066TIP3    H133141   6.723   6.790   2.225
11066TIP3    H233142   6.687   6.681   2.324
11067TIP3   OH233143   4.399   3.870   5.377
11067TIP3    H133144   4.327   3.811   5.401
11067TIP3    H233145   4.412   3.925   5.454
11068TIP3   OH233146   2.707   2.178   2.144
11068TIP3    H133147   2.782   2.120   2.131
11068TIP3    H233148   2.678   2.200   2.055
11069TIP3   OH233149   3.687   5.137   1.390
11069TIP3    H133150   3.622   5.186   1.441
11069TIP3    H233151   3.769   5.148   1.439
11070TIP3   OH233152   0.364   7.041   3.698
11070TIP3    H133153   0.291   6.989   3.665
11070TIP3    H233154   0.355   7.038   3.793
11071TIP3   OH233155   2.332   1.351   3.208
11071TIP3    H133156   2.302   1.317   3.124
11071TIP3    H233157   2.407   1.407   3.186
11072TIP3   OH233158   1.495   1.368   6.448
11072TIP3    H133159   1.469   1.382   6.539
11072TIP3    H233160   1.572   1.422   6.436
11073TIP3   OH233161   3.574   2.931   4.779
11073TIP3    H133162   3.500   2.968   4.827
11073TIP3    H233163   3.651   2.958   4.829
11074TIP3   OH233164   6.183   3.963   1.312
11074TIP3    H133165   6.270   3.923   1.310
11074TIP3    H233166   6.178   4.015   1.232
11075TIP3   OH233167   5.545   6.052   5.906
11075TIP3    H133168   5.455   6.021   5.918
11075TIP3    H233169   5.598   5.972   5.907
11076TIP3   OH233170   1.358   2.297   1.267
11076TIP3    H133171   1.330   2.296   1.175
11076TIP3    H233172   1.453   2.285   1.263
11077TIP3   OH233173   7.937   7.611   1.622
11077TIP3    H133174   7.972   7.644   1.539
11077TIP3    H233175   7.972   7.522   1.629
11078TIP3   OH233176   3.440   5.173   3.898
11078TIP3    H133177   3.438   5.257   3.942
11078TIP3    H233178   3.408   5.111   3.964
11079TIP3   OH233179   6.289   6.114   1.684
11079TIP3    H133180   6.306   6.026   1.718
11079TIP3    H233181   6.319   6.173   1.753
11080TIP3   OH233182   4.083   7.076   3.792
11080TIP3    H133183   4.122   7.159   3.764
11080TIP3    H233184   4.067   7.087   3.886
11081TIP3   OH233185   5.644   6.138   4.466
11081TIP3    H133186   5.653   6.094   4.550
11081TIP3    H233187   5.558   6.178   4.469
11082TIP3   OH233188   1.708   7.670   2.871
11082TIP3    H133189   1.676   7.758   2.893
11082TIP3    H233190   1.693   7.663   2.777
11083TIP3   OH233191   5.079   4.891   6.560
11083TIP3    H133192   5.153   4.948   6.539
11083TIP3    H233193   5.006   4.951   6.577
11084TIP3   OH233194   2.555   6.842   4.877
11084TIP3    H133195   2.631   6.884   4.918
11084TIP3    H233196   2.552   6.755   4.915
11085TIP3   OH233197   1.470   4.998   4.259
11085TIP3    H133198   1.398   4.940   4.236
11085TIP3    H233199   1.470   5.002   4.355
11086TIP3   OH233200   3.962   6.953   5.720
11086TIP3    H133201   3.944   7.035   5.674
11086TIP3    H233202   4.041   6.971   5.771
11087TIP3   OH233203   6.033   7.411   1.905
11087TIP3    H133204   5.966   7.390   1.970
11087TIP3    H233205   5.989   7.401   1.820
11088TIP3   OH233206   3.926   6.574   6.018
11088TIP3    H133207   3.926   6.492   5.968
11088TIP3    H233208   3.889   6.639   5.957
11089TIP3   OH233209   5.904   3.100   5.695
11089TIP3    H133210   5.899   3.183   5.646
11089TIP3    H233211   5.857   3.117   5.776
11090TIP3   OH233212   5.194   0.554   5.541
11090TIP3    H133213   5.126   0.597   5.490
11090TIP3    H233214   5.232   0.624   5.595
11091TIP3   OH233215   7.902   7.185   2.432
11091TIP3    H133216   7.974   7.219   2.484
11091TIP3    H233217   7.840   7.150   2.496
11092TIP3   OH233218   6.071   0.989   1.404
11092TIP3    H133219   6.010   1.062   1.417
11092TIP3    H233220   6.158   1.026   1.416
11093TIP3   OH233221   4.443   3.058   4.123
11093TIP3    H133222   4.368   3.108   4.090
11093TIP3    H233223   4.519   3.106   4.092
11094TIP3   OH233224   3.172   6.997   6.127
11094TIP3    H133225   3.152   6.903   6.128
11094TIP3    H233226   3.098   7.036   6.079
11095TIP3   OH233227   2.879   7.243   3.199
11095TIP3    H133228   2.882   7.199   3.284
11095TIP3    H233229   2.833   7.181   3.142
11096TIP3   OH233230   2.987   1.303   1.975
11096TIP3    H133231   2.955   1.392   1.985
11096TIP3    H233232   3.079   1.313   1.953
11097TIP3   OH233233   5.262   0.446   4.173
11097TIP3    H133234   5.293   0.462   4.262
11097TIP3    H233235   5.181   0.496   4.166
11098TIP3   OH233236   1.649   1.287   1.784
11098TIP3    H133237   1.602   1.207   1.763
11098TIP3    H233238   1.667   1.327   1.699
11099TIP3   OH233239   0.312   7.027   6.614
11099TIP3    H133240   0.292   7.104   6.666
11099TIP3    H233241   0.395   7.048   6.571
11100TIP3   OH233242   6.248   6.609   4.047
11100TIP3    H133243   6.314   6.644   4.107
11100TIP3    H233244   6.271   6.517   4.039
11101TIP3   OH233245   1.246   2.444   6.046
11101TIP3    H133246   1.227   2.535   6.072
11101TIP3    H233247   1.269   2.450   5.954
11102TIP3   OH233248  -0.016   2.640   1.984
11102TIP3    H133249   0.056   2.628   1.922
11102TIP3    H233250  -0.037   2.552   2.014
11103TIP3   OH233251   2.363   1.174   2.668
11103TIP3    H133252   2.269   1.164   2.686
11103TIP3    H233253   2.367   1.201   2.576
11104TIP3   OH233254   1.462   1.938   3.998
11104TIP3    H133255   1.554   1.961   4.000
11104TIP3    H233256   1.444   1.918   3.906
11105TIP3   OH233257   1.069   1.745   3.681
11105TIP3    H133258   1.128   1.677   3.712
11105TIP3    H233259   0.985   1.724   3.721
11106TIP3   OH233260   0.275   5.134   2.600
11106TIP3    H133261   0.363   5.117   2.632
11106TIP3    H233262   0.246   5.049   2.565
11107TIP3   OH233263   3.675   1.804   2.479
11107TIP3    H133264   3.631   1.796   2.395
11107TIP3    H233265   3.606   1.793   2.544
11108TIP3   OH233266   3.409   6.468   0.249
11108TIP3    H133267   3.451   6.409   0.186
11108TIP3    H233268   3.366   6.533   0.194
11109TIP3   OH233269   3.001   3.493   2.365
11109TIP3    H133270   3.076   3.535   2.323
11109TIP3    H233271   2.978   3.551   2.438
11110TIP3   OH233272   4.147   5.542   2.652
11110TIP3    H133273   4.125   5.454   2.620
11110TIP3    H233274   4.180   5.588   2.575
11111TIP3   OH233275   3.623   5.819   0.270
11111TIP3    H133276   3.563   5.760   0.224
11111TIP3    H233277   3.607   5.905   0.232
11112TIP3   OH233278   6.421   1.085   3.505
11112TIP3    H133279   6.487   1.049   3.446
11112TIP3    H233280   6.338   1.046   3.476
11113TIP3   OH233281   8.200   0.277   0.885
11113TIP3    H133282   8.254   0.337   0.936
11113TIP3    H233283   8.233   0.190   0.908
11114TIP3   OH233284   0.231   3.861   5.200
11114TIP3    H133285   0.172   3.915   5.148
11114TIP3    H233286   0.238   3.907   5.284
11115TIP3   OH233287   4.998   7.738   1.979
11115TIP3    H133288   4.968   7.674   2.043
11115TIP3    H233289   4.917   7.775   1.943
11116TIP3   OH233290   1.359   3.294   3.578
11116TIP3    H133291   1.341   3.274   3.486
11116TIP3    H233292   1.274   3.283   3.622
11117TIP3   OH233293   4.291   6.818   3.127
11117TIP3    H133294   4.257   6.856   3.209
11117TIP3    H233295   4.217   6.769   3.092
11118TIP3   OH233296   1.683   3.202   4.100
11118TIP3    H133297   1.616   3.269   4.099
11118TIP3    H233298   1.651   3.134   4.041
11119TIP3   OH233299   7.921   2.643   1.315
11119TIP3    H133300   7.905   2.597   1.233
11119TIP3    H233301   8.016   2.641   1.327
11120TIP3   OH233302   5.705   0.642   2.404
11120TIP3    H133303   5.622   0.612   2.441
11120TIP3    H233304   5.772   0.601   2.459
11121TIP3   OH233305   5.521   6.249   2.559
11121TIP3    H133306   5.546   6.221   2.471
11121TIP3    H233307   5.449   6.310   2.545
11122TIP3   OH233308   6.154   3.960   4.224
11122TIP3    H133309   6.074   3.926   4.185
11122TIP3    H233310   6.165   4.047   4.184
11123TIP3   OH233311   5.023   7.347   3.012
11123TIP3    H133312   4.957   7.313   3.073
11123TIP3    H233313   5.095   7.376   3.068
11124TIP3   OH233314   5.238   7.649   6.660
11124TIP3    H133315   5.227   7.583   6.728
11124TIP3    H233316   5.158   7.701   6.663
11125TIP3   OH233317   4.088   1.934   2.903
11125TIP3    H133318   4.039   1.988   2.842
11125TIP3    H233319   4.165   1.986   2.925
11126TIP3   OH233320   3.244   7.152   6.553
11126TIP3    H133321   3.170   7.109   6.595
11126TIP3    H233322   3.276   7.088   6.489
11127TIP3   OH233323   1.070   7.161   5.442
11127TIP3    H133324   0.989   7.125   5.406
11127TIP3    H233325   1.075   7.125   5.530
11128TIP3   OH233326   0.318   2.726   3.360
11128TIP3    H133327   0.337   2.638   3.328
11128TIP3    H233328   0.232   2.747   3.324
11129TIP3   OH233329   5.940   0.246   2.430
11129TIP3    H133330   5.931   0.154   2.406
11129TIP3    H233331   5.874   0.291   2.376
11130TIP3   OH233332   1.473   0.967   5.382
11130TIP3    H133333   1.379   0.982   5.389
11130TIP3    H233334   1.504   0.966   5.472
11131TIP3   OH233335   2.590   4.477   4.007
11131TIP3    H133336   2.619   4.390   4.035
11131TIP3    H233337   2.671   4.523   3.982
11132TIP3   OH233338   1.475   5.243   1.069
11132TIP3    H133339   1.407   5.185   1.103
11132TIP3    H233340   1.501   5.202   0.986
11133TIP3   OH233341   6.194   3.200   6.147
11133TIP3    H133342   6.148   3.230   6.225
11133TIP3    H233343   6.284   3.184   6.176
11134TIP3   OH233344   4.769   1.575   4.811
11134TIP3    H133345   4.681   1.613   4.811
11134TIP3    H233346   4.819   1.628   4.873
11135TIP3   OH233347   0.548   2.824   2.299
11135TIP3    H133348   0.588   2.910   2.289
11135TIP3    H233349   0.458   2.835   2.268
11136TIP3   OH233350   7.832   5.498   4.641
11136TIP3    H133351   7.789   5.584   4.633
11136TIP3    H233352   7.804   5.451   4.562
11137TIP3   OH233353   1.292   0.315   6.684
11137TIP3    H133354   1.262   0.235   6.640
11137TIP3    H233355   1.216   0.374   6.680
11138TIP3   OH233356   0.547   2.051   6.162
11138TIP3    H133357   0.529   1.973   6.108
11138TIP3    H233358   0.597   2.017   6.237
11139TIP3   OH233359   6.049   5.744   5.539
11139TIP3    H133360   6.054   5.649   5.535
11139TIP3    H233361   6.129   5.774   5.495
11140TIP3   OH233362   2.504   0.018   1.791
11140TIP3    H133363   2.479  -0.071   1.768
11140TIP3    H233364   2.588   0.009   1.835
11141TIP3   OH233365   4.112   6.193   6.616
11141TIP3    H133366   4.109   6.287   6.631
11141TIP3    H233367   4.175   6.160   6.680
11142TIP3   OH233368   7.524   4.313   2.314
11142TIP3    H133369   7.448   4.371   2.318
11142TIP3    H233370   7.564   4.321   2.401
11143TIP3   OH233371   1.112   5.396   0.239
11143TIP3    H133372   1.178   5.421   0.174
11143TIP3    H233373   1.097   5.303   0.224
11144TIP3   OH233374   6.942   4.153   1.307
11144TIP3    H133375   6.876   4.211   1.345
11144TIP3    H233376   6.906   4.129   1.221
11145TIP3   OH233377   0.629   6.631   3.595
11145TIP3    H133378   0.550   6.677   3.567
11145TIP3    H233379   0.646   6.663   3.683
11146TIP3   OH233380   7.451   6.103   1.635
11146TIP3    H133381   7.375   6.048   1.616
11146TIP3    H233382   7.511   6.046   1.683
11147TIP3   OH233383   5.898   6.080   5.572
11147TIP3    H133384   5.924   6.143   5.640
11147TIP3    H233385   5.977   6.070   5.518
11148TIP3   OH233386   0.678   0.915   4.694
11148TIP3    H133387   0.671   0.896   4.787
11148TIP3    H233388   0.772   0.924   4.678
11149TIP3   OH233389   7.857   5.890   4.702
11149TIP3    H133390   7.931   5.928   4.751
11149TIP3    H233391   7.779   5.923   4.747
11150TIP3   OH233392   7.821   4.660   5.912
11150TIP3    H133393   7.828   4.740   5.859
11150TIP3    H233394   7.902   4.612   5.893
11151TIP3   OH233395   7.121   6.655   0.524
11151TIP3    H133396   7.205   6.636   0.565
11151TIP3    H233397   7.064   6.583   0.551
11152TIP3   OH233398   0.773   3.345   5.829
11152TIP3    H133399   0.803   3.260   5.860
11152TIP3    H233400   0.754   3.332   5.736
11153TIP3   OH233401   7.608   5.834   4.147
11153TIP3    H133402   7.564   5.876   4.072
11153TIP3    H233403   7.636   5.906   4.202
11154TIP3   OH233404   0.890   7.728   4.176
11154TIP3    H133405   0.977   7.691   4.189
11154TIP3    H233406   0.852   7.732   4.263
11155TIP3   OH233407   7.895   5.774   6.067
11155TIP3    H133408   7.883   5.706   6.000
11155TIP3    H233409   7.807   5.796   6.096
11156TIP3   OH233410   0.219   2.145   6.752
11156TIP3    H133411   0.183   2.185   6.832
11156TIP3    H233412   0.165   2.182   6.681
11157TIP3   OH233413   6.190   6.141   1.448
11157TIP3    H133414   6.244   6.123   1.525
11157TIP3    H233415   6.126   6.069   1.446
11158TIP3   OH233416   4.772   3.567   4.756
11158TIP3    H133417   4.745   3.591   4.667
11158TIP3    H233418   4.739   3.478   4.768
11159TIP3   OH233419   0.448   6.050   4.578
11159TIP3    H133420   0.522   6.064   4.520
11159TIP3    H233421   0.373   6.040   4.519
11160TIP3   OH233422   4.725   4.888   2.768
11160TIP3    H133423   4.637   4.920   2.789
11160TIP3    H233424   4.744   4.925   2.681
11161TIP3   OH233425   7.764   1.535   5.628
11161TIP3    H133426   7.790   1.561   5.540
11161TIP3    H233427   7.762   1.439   5.626
11162TIP3   OH233428   4.628   6.825   5.433
11162TIP3    H133429   4.626   6.730   5.419
11162TIP3    H233430   4.662   6.860   5.350
11163TIP3   OH233431   3.582   4.379   3.199
11163TIP3    H133432   3.559   4.318   3.269
11163TIP3    H233433   3.607   4.460   3.245
11164TIP3   OH233434   1.507   3.849   5.436
11164TIP3    H133435   1.442   3.784   5.465
11164TIP3    H233436   1.579   3.839   5.498
11165TIP3   OH233437   6.739   3.126   2.874
11165TIP3    H133438   6.681   3.090   2.807
11165TIP3    H233439   6.787   3.050   2.907
11166TIP3   OH233440   3.681   5.241   2.212
11166TIP3    H133441   3.702   5.204   2.126
11166TIP3    H233442   3.627   5.174   2.254
11167TIP3   OH233443   7.349   6.350   1.008
11167TIP3    H133444   7.388   6.407   1.074
11167TIP3    H233445   7.347   6.264   1.050
11168TIP3   OH233446   8.091   5.902   3.625
11168TIP3    H133447   8.159   5.923   3.561
11168TIP3    H233448   8.137   5.857   3.695
11169TIP3   OH233449   0.808   0.157   1.758
11169TIP3    H133450   0.819   0.203   1.841
11169TIP3    H233451   0.874   0.088   1.760
11170TIP3   OH233452   7.223   2.053   1.892
11170TIP3    H133453   7.313   2.050   1.860
11170TIP3    H233454   7.184   1.972   1.860
11171TIP3   OH233455   6.277   0.469   4.120
11171TIP3    H133456   6.325   0.468   4.202
11171TIP3    H233457   6.257   0.377   4.103
11172TIP3   OH233458   5.876   2.905   1.974
11172TIP3    H133459   5.882   3.000   1.986
11172TIP3    H233460   5.816   2.894   1.899
11173TIP3   OH233461   2.683   5.585   0.055
11173TIP3    H133462   2.745   5.644   0.099
11173TIP3    H233463   2.706   5.498   0.085
11174TIP3   OH233464   5.247   6.256   5.555
11174TIP3    H133465   5.304   6.189   5.592
11174TIP3    H233466   5.300   6.336   5.555
11175TIP3   OH233467   1.055   6.359   4.620
11175TIP3    H133468   0.960   6.366   4.622
11175TIP3    H233469   1.082   6.414   4.547
11176TIP3   OH233470   0.455   3.922   1.895
11176TIP3    H133471   0.403   3.995   1.861
11176TIP3    H233472   0.449   3.931   1.990
11177TIP3   OH233473   6.714   0.886   4.183
11177TIP3    H133474   6.751   0.873   4.095
11177TIP3    H233475   6.660   0.965   4.174
11178TIP3   OH233476   4.936   6.507   4.019
11178TIP3    H133477   4.880   6.565   4.070
11178TIP3    H233478   4.877   6.439   3.986
11179TIP3   OH233479   4.918   3.218   2.703
11179TIP3    H133480   4.849   3.175   2.653
11179TIP3    H233481   4.870   3.270   2.768
11180TIP3   OH233482   1.725   6.205   0.065
11180TIP3    H133483   1.742   6.278   0.125
11180TIP3    H233484   1.798   6.207   0.004
11181TIP3   OH233485   4.572   2.088   2.894
11181TIP3    H133486   4.610   2.069   2.979
11181TIP3    H233487   4.615   2.169   2.866
11182TIP3   OH233488   4.631   7.122   5.989
11182TIP3    H133489   4.621   7.035   6.026
11182TIP3    H233490   4.583   7.118   5.906
11183TIP3   OH233491   0.018   4.136   1.031
11183TIP3    H133492  -0.008   4.072   0.965
11183TIP3    H233493   0.091   4.093   1.078
11184TIP3   OH233494   3.657   4.471   1.040
11184TIP3    H133495   3.629   4.398   1.095
11184TIP3    H233496   3.578   4.523   1.027
11185TIP3   OH233497   1.618   7.246   5.287
11185TIP3    H133498   1.673   7.279   5.357
11185TIP3    H233499   1.604   7.322   5.230
11186TIP3   OH233500   3.419   2.351   6.082
11186TIP3    H133501   3.374   2.342   6.167
11186TIP3    H233502   3.352   2.386   6.024
11187TIP3   OH233503   4.039   2.473   4.562
11187TIP3    H133504   4.091   2.536   4.513
11187TIP3    H233505   4.099   2.437   4.627
11188TIP3   OH233506   8.128   0.348   6.205
11188TIP3    H133507   8.135   0.321   6.113
11188TIP3    H233508   8.115   0.442   6.202
11189TIP3   OH233509   5.118   6.231   3.035
11189TIP3    H133510   5.109   6.278   2.953
11189TIP3    H233511   5.092   6.294   3.102
11190TIP3   OH233512   6.612   2.741   6.173
11190TIP3    H133513   6.685   2.721   6.232
11190TIP3    H233514   6.542   2.771   6.230
11191TIP3   OH233515   1.897   6.186   6.496
11191TIP3    H133516   1.810   6.146   6.503
11191TIP3    H233517   1.957   6.116   6.523
11192TIP3   OH233518   3.549   4.732   4.606
11192TIP3    H133519   3.612   4.661   4.598
11192TIP3    H233520   3.468   4.698   4.568
11193TIP3   OH233521   3.522   6.129   4.766
11193TIP3    H133522   3.474   6.188   4.825
11193TIP3    H233523   3.602   6.177   4.745
11194TIP3   OH233524   4.048   6.471   4.379
11194TIP3    H133525   4.058   6.523   4.459
11194TIP3    H233526   4.125   6.495   4.326
11195TIP3   OH233527   4.128   1.595   2.375
11195TIP3    H133528   4.117   1.670   2.317
11195TIP3    H233529   4.117   1.518   2.318
11196TIP3   OH233530   4.275   1.906   3.259
11196TIP3    H133531   4.349   1.940   3.209
11196TIP3    H233532   4.206   1.893   3.193
11197TIP3   OH233533   6.601   1.522   5.572
11197TIP3    H133534   6.552   1.459   5.519
11197TIP3    H233535   6.642   1.580   5.509
11198TIP3   OH233536   4.614   2.316   4.449
11198TIP3    H133537   4.667   2.383   4.493
11198TIP3    H233538   4.625   2.334   4.356
11199TIP3   OH233539   6.549   4.899   5.719
11199TIP3    H133540   6.474   4.953   5.694
11199TIP3    H233541   6.554   4.832   5.651
11200TIP3   OH233542   7.054   5.668   2.223
11200TIP3    H133543   7.136   5.632   2.256
11200TIP3    H233544   7.076   5.755   2.191
11201TIP3   OH233545   5.373   7.499   6.094
11201TIP3    H133546   5.319   7.550   6.153
11201TIP3    H233547   5.384   7.555   6.017
11202TIP3   OH233548   6.914   0.759   1.088
11202TIP3    H133549   6.854   0.749   1.162
11202TIP3    H233550   6.862   0.805   1.022
11203TIP3   OH233551   6.182   0.953   3.451
11203TIP3    H133552   6.097   0.996   3.458
11203TIP3    H233553   6.172   0.891   3.379
11204TIP3   OH233554   2.035   6.745   0.962
11204TIP3    H133555   1.972   6.684   1.002
11204TIP3    H233556   1.995   6.769   0.879
11205TIP3   OH233557   3.085   2.149   2.982
11205TIP3    H133558   3.010   2.197   3.016
11205TIP3    H233559   3.118   2.099   3.058
11206TIP3   OH233560   3.329   5.999   4.505
11206TIP3    H133561   3.358   6.091   4.506
11206TIP3    H233562   3.240   6.002   4.540
11207TIP3   OH233563   5.814   4.710   2.392
11207TIP3    H133564   5.850   4.708   2.481
11207TIP3    H233565   5.852   4.787   2.352
11208TIP3   OH233566   7.896   4.345   0.825
11208TIP3    H133567   7.828   4.407   0.799
11208TIP3    H233568   7.951   4.393   0.887
11209TIP3   OH233569   1.998   3.993   4.209
11209TIP3    H133570   2.060   3.930   4.245
11209TIP3    H233571   2.051   4.069   4.186
11210TIP3   OH233572   5.874   7.018   6.367
11210TIP3    H133573   5.878   7.108   6.399
11210TIP3    H233574   5.963   6.999   6.339
11211TIP3   OH233575   2.914   4.920   4.208
11211TIP3    H133576   2.893   4.970   4.287
11211TIP3    H233577   2.828   4.901   4.169
11212TIP3   OH233578   2.040   7.149   3.759
11212TIP3    H133579   1.988   7.128   3.836
11212TIP3    H233580   2.061   7.242   3.769
11213TIP3   OH233581   2.018   4.486   3.473
11213TIP3    H133582   2.103   4.484   3.430
11213TIP3    H233583   2.035   4.454   3.562
11214TIP3   OH233584   1.999   0.258   5.037
11214TIP3    H133585   2.084   0.273   5.079
11214TIP3    H233586   1.937   0.256   5.110
11215TIP3   OH233587   2.604   1.889   2.211
11215TIP3    H133588   2.611   1.892   2.115
11215TIP3    H233589   2.634   1.976   2.239
11216TIP3   OH233590   6.754   1.707   2.960
11216TIP3    H133591   6.817   1.765   3.002
11216TIP3    H233592   6.669   1.741   2.986
11217TIP3   OH233593   5.005   6.661   1.002
11217TIP3    H133594   5.072   6.627   0.944
11217TIP3    H233595   4.979   6.745   0.962
11218TIP3   OH233596   6.311   2.542   6.585
11218TIP3    H133597   6.263   2.580   6.512
11218TIP3    H233598   6.275   2.454   6.594
11219TIP3   OH233599   2.156   3.360   4.640
11219TIP3    H133600   2.240   3.350   4.685
11219TIP3    H233601   2.110   3.429   4.688
11220TIP3   OH233602   4.118   2.669   2.129
11220TIP3    H133603   4.163   2.585   2.119
11220TIP3    H233604   4.167   2.729   2.072
11221TIP3   OH233605   4.340   6.942   1.763
11221TIP3    H133606   4.424   6.902   1.743
11221TIP3    H233607   4.297   6.951   1.678
11222TIP3   OH233608   2.412   0.640   3.038
11222TIP3    H133609   2.488   0.686   3.073
11222TIP3    H233610   2.339   0.700   3.053
11223TIP3   OH233611   6.829   4.366   0.640
11223TIP3    H133612   6.803   4.362   0.547
11223TIP3    H233613   6.860   4.455   0.652
11224TIP3   OH233614   7.609   7.308   0.286
11224TIP3    H133615   7.544   7.348   0.228
11224TIP3    H233616   7.557   7.264   0.353
11225TIP3   OH233617   1.986   0.383   1.599
11225TIP3    H133618   1.907   0.353   1.645
11225TIP3    H233619   2.007   0.312   1.539
11226TIP3   OH233620   0.200   4.785   1.559
11226TIP3    H133621   0.129   4.758   1.501
11226TIP3    H233622   0.278   4.784   1.504
11227TIP3   OH233623   4.487   1.479   0.169
11227TIP3    H133624   4.455   1.564   0.198
11227TIP3    H233625   4.525   1.496   0.083
11228TIP3   OH233626   3.530   2.871   1.854
11228TIP3    H133627   3.500   2.960   1.873
11228TIP3    H233628   3.614   2.883   1.810
11229TIP3   OH233629   5.805   0.901   2.715
11229TIP3    H133630   5.807   0.949   2.632
11229TIP3    H233631   5.889   0.856   2.719
11230TIP3   OH233632   1.684   7.639   2.581
11230TIP3    H133633   1.687   7.555   2.534
11230TIP3    H233634   1.698   7.705   2.513
11231TIP3   OH233635   1.665   3.191   1.291
11231TIP3    H133636   1.717   3.269   1.273
11231TIP3    H233637   1.727   3.119   1.286
11232TIP3   OH233638   6.051   3.916   4.913
11232TIP3    H133639   6.110   3.961   4.853
11232TIP3    H233640   6.004   3.853   4.858
11233TIP3   OH233641   1.065   6.825   1.070
11233TIP3    H133642   1.117   6.866   1.138
11233TIP3    H233643   0.979   6.810   1.110
11234TIP3   OH233644   1.812   0.174   5.529
11234TIP3    H133645   1.845   0.230   5.459
11234TIP3    H233646   1.722   0.153   5.504
11235TIP3   OH233647   3.552   6.621   0.431
11235TIP3    H133648   3.491   6.687   0.464
11235TIP3    H233649   3.511   6.588   0.351
11236TIP3   OH233650   7.513   2.222   3.601
11236TIP3    H133651   7.601   2.254   3.582
11236TIP3    H233652   7.457   2.265   3.536
11237TIP3   OH233653   0.912   3.300   3.838
11237TIP3    H133654   0.845   3.362   3.869
11237TIP3    H233655   0.930   3.245   3.914
11238TIP3   OH233656   7.618   1.935   4.202
11238TIP3    H133657   7.533   1.917   4.242
11238TIP3    H233658   7.672   1.970   4.273
11239TIP3   OH233659   7.637   7.460   0.974
11239TIP3    H133660   7.616   7.549   1.003
11239TIP3    H233661   7.723   7.469   0.933
11240TIP3   OH233662   0.430   4.350   4.432
11240TIP3    H133663   0.401   4.290   4.501
11240TIP3    H233664   0.521   4.369   4.454
11241TIP3   OH233665   5.488   6.030   0.809
11241TIP3    H133666   5.418   6.019   0.745
11241TIP3    H233667   5.558   5.973   0.777
11242TIP3   OH233668   6.585   1.917   6.186
11242TIP3    H133669   6.566   1.914   6.092
11242TIP3    H233670   6.577   2.010   6.209
11243TIP3   OH233671   7.124   0.337   2.319
11243TIP3    H133672   7.190   0.394   2.358
11243TIP3    H233673   7.138   0.252   2.360
11244TIP3   OH233674   2.303   6.447   1.537
11244TIP3    H133675   2.312   6.542   1.537
11244TIP3    H233676   2.369   6.417   1.599
11245TIP3   OH233677   7.316   1.684   0.603
11245TIP3    H133678   7.339   1.608   0.657
11245TIP3    H233679   7.369   1.756   0.638
11246TIP3   OH233680   5.112   7.119   4.828
11246TIP3    H133681   5.162   7.038   4.842
11246TIP3    H233682   5.177   7.183   4.799
11247TIP3   OH233683   6.439   6.254   5.233
11247TIP3    H133684   6.375   6.301   5.180
11247TIP3    H233685   6.517   6.250   5.178
11248TIP3   OH233686   1.299   3.317   1.939
11248TIP3    H133687   1.285   3.226   1.913
11248TIP3    H233688   1.293   3.315   2.034
11249TIP3   OH233689   2.628   6.620   6.587
11249TIP3    H133690   2.678   6.586   6.661
11249TIP3    H233691   2.537   6.619   6.617
11250TIP3   OH233692   2.158   5.362   1.779
11250TIP3    H133693   2.156   5.360   1.684
11250TIP3    H233694   2.101   5.290   1.806
11251TIP3   OH233695   4.022   0.291   2.938
11251TIP3    H133696   3.962   0.265   3.007
11251TIP3    H233697   4.087   0.346   2.983
11252TIP3   OH233698   6.717   5.319   3.323
11252TIP3    H133699   6.781   5.368   3.376
11252TIP3    H233700   6.721   5.360   3.237
11253TIP3   OH233701   6.881   2.070   4.194
11253TIP3    H133702   6.949   2.066   4.127
11253TIP3    H233703   6.864   2.164   4.206
11254TIP3   OH233704   3.958   2.320   4.350
11254TIP3    H133705   3.981   2.373   4.427
11254TIP3    H233706   3.976   2.230   4.377
11255TIP3   OH233707   1.667   1.239   2.523
11255TIP3    H133708   1.726   1.311   2.544
11255TIP3    H233709   1.656   1.242   2.428
11256TIP3   OH233710   7.622   1.624   6.119
11256TIP3    H133711   7.569   1.555   6.079
11256TIP3    H233712   7.695   1.636   6.059
11257TIP3   OH233713   8.268   0.223   5.117
11257TIP3    H133714   8.229   0.157   5.173
11257TIP3    H233715   8.287   0.178   5.035
11258TIP3   OH233716   1.576   2.060   5.148
11258TIP3    H133717   1.507   2.007   5.188
11258TIP3    H233718   1.656   2.009   5.160
11259TIP3   OH233719   0.807   3.941   1.755
11259TIP3    H133720   0.874   4.007   1.768
11259TIP3    H233721   0.729   3.990   1.728
11260TIP3   OH233722   3.146   4.460   3.742
11260TIP3    H133723   3.146   4.451   3.647
11260TIP3    H233724   3.239   4.455   3.766
11261TIP3   OH233725   0.170   3.017   0.411
11261TIP3    H133726   0.257   3.033   0.446
11261TIP3    H233727   0.184   2.987   0.321
11262TIP3   OH233728   4.633   7.594   2.784
11262TIP3    H133729   4.624   7.519   2.843
11262TIP3    H233730   4.543   7.621   2.766
11263TIP3   OH233731   5.224   0.343   5.350
11263TIP3    H133732   5.145   0.294   5.376
11263TIP3    H233733   5.230   0.414   5.413
11264TIP3   OH233734   5.720   7.056   1.652
11264TIP3    H133735   5.688   7.105   1.728
11264TIP3    H233736   5.672   7.092   1.578
11265TIP3   OH233737   2.526   5.839   5.506
11265TIP3    H133738   2.567   5.780   5.443
11265TIP3    H233739   2.583   5.834   5.583
11266TIP3   OH233740   5.028   3.999   6.526
11266TIP3    H133741   5.016   4.061   6.454
11266TIP3    H233742   5.072   4.050   6.594
11267TIP3   OH233743   2.065   2.023   4.809
11267TIP3    H133744   2.104   2.109   4.827
11267TIP3    H233745   2.042   1.989   4.896
11268TIP3   OH233746   6.169   4.284   0.437
11268TIP3    H133747   6.110   4.358   0.421
11268TIP3    H233748   6.218   4.274   0.355
11269TIP3   OH233749   2.589   5.714   6.412
11269TIP3    H133750   2.534   5.788   6.436
11269TIP3    H233751   2.528   5.649   6.378
11270TIP3   OH233752   6.807   3.901   6.531
11270TIP3    H133753   6.866   3.830   6.505
11270TIP3    H233754   6.745   3.860   6.591
11271TIP3   OH233755   3.028   4.064   1.476
11271TIP3    H133756   3.107   4.100   1.436
11271TIP3    H233757   3.055   4.038   1.564
11272TIP3   OH233758   5.118   2.151   6.038
11272TIP3    H133759   5.115   2.169   5.944
11272TIP3    H233760   5.072   2.068   6.047
11273TIP3   OH233761   2.056   4.605   4.370
11273TIP3    H133762   2.027   4.515   4.357
11273TIP3    H233763   2.116   4.600   4.445
11274TIP3   OH233764   3.491   3.366   3.923
11274TIP3    H133765   3.404   3.391   3.955
11274TIP3    H233766   3.508   3.428   3.851
11275TIP3   OH233767   1.568   5.007   6.140
11275TIP3    H133768   1.583   5.081   6.081
11275TIP3    H233769   1.520   5.044   6.214
11276TIP3   OH233770   2.759   4.433   6.024
11276TIP3    H133771   2.854   4.445   6.033
11276TIP3    H233772   2.739   4.471   5.938
11277TIP3   OH233773   0.276   2.827   1.432
11277TIP3    H133774   0.351   2.795   1.381
11277TIP3    H233775   0.311   2.903   1.479
11278TIP3   OH233776   7.964   1.435   3.520
11278TIP3    H133777   8.057   1.445   3.540
11278TIP3    H233778   7.934   1.367   3.580
11279TIP3   OH233779   4.898   3.666   0.416
11279TIP3    H133780   4.918   3.592   0.358
11279TIP3    H233781   4.921   3.744   0.365
11280TIP3   OH233782   2.765   1.185   4.621
11280TIP3    H133783   2.791   1.095   4.640
11280TIP3    H233784   2.748   1.224   4.706
11281TIP3   OH233785   4.151   6.054  -0.011
11281TIP3    H133786   4.136   5.975  -0.064
11281TIP3    H233787   4.101   6.038   0.070
11282TIP3   OH233788   6.591   1.238   2.227
11282TIP3    H133789   6.532   1.169   2.196
11282TIP3    H233790   6.560   1.258   2.315
11283TIP3   OH233791   0.095   6.036   5.118
11283TIP3    H133792   0.055   6.043   5.032
11283TIP3    H233793   0.134   5.948   5.120
11284TIP3   OH233794   1.095   4.443   6.109
11284TIP3    H133795   1.171   4.390   6.132
11284TIP3    H233796   1.061   4.475   6.193
11285TIP3   OH233797   1.718   2.222   2.598
11285TIP3    H133798   1.804   2.182   2.612
11285TIP3    H233799   1.729   2.274   2.518
11286TIP3   OH233800   5.528   6.118   2.032
11286TIP3    H133801   5.459   6.057   2.007
11286TIP3    H233802   5.602   6.062   2.055
11287TIP3   OH233803   7.270   6.846   0.337
11287TIP3    H133804   7.183   6.884   0.323
11287TIP3    H233805   7.302   6.826   0.249
11288TIP3   OH233806   0.233   0.535   6.123
11288TIP3    H133807   0.327   0.519   6.133
11288TIP3    H233808   0.195   0.512   6.207
11289TIP3   OH233809   1.339   1.552   5.306
11289TIP3    H133810   1.246   1.540   5.323
11289TIP3    H233811   1.373   1.463   5.294
11290TIP3   OH233812   5.262   1.819   2.320
11290TIP3    H133813   5.249   1.898   2.373
11290TIP3    H233814   5.275   1.851   2.231
11291TIP3   OH233815   0.883   5.518   2.740
11291TIP3    H133816   0.812   5.469   2.783
11291TIP3    H233817   0.963   5.481   2.776
11292TIP3   OH233818   5.220   7.380   5.781
11292TIP3    H133819   5.215   7.400   5.874
11292TIP3    H233820   5.166   7.301   5.770
11293TIP3   OH233821   1.855   6.088   5.965
11293TIP3    H133822   1.916   6.040   5.910
11293TIP3    H233823   1.892   6.083   6.053
11294TIP3   OH233824   5.595   7.251   2.735
11294TIP3    H133825   5.642   7.250   2.818
11294TIP3    H233826   5.663   7.238   2.668
11295TIP3   OH233827   0.984   1.641   2.399
11295TIP3    H133828   0.923   1.657   2.327
11295TIP3    H233829   0.965   1.710   2.462
11296TIP3   OH233830   2.659   3.890   2.254
11296TIP3    H133831   2.731   3.940   2.294
11296TIP3    H233832   2.658   3.807   2.302
11297TIP3   OH233833   5.904   3.806   4.707
11297TIP3    H133834   5.904   3.809   4.611
11297TIP3    H233835   5.828   3.752   4.729
11298TIP3   OH233836   0.490   4.371   1.350
11298TIP3    H133837   0.414   4.314   1.361
11298TIP3    H233838   0.500   4.414   1.435
11299TIP3   OH233839   0.530   2.603   4.598
11299TIP3    H133840   0.545   2.669   4.666
11299TIP3    H233841   0.563   2.644   4.518
11300TIP3   OH233842   7.551   1.930   1.854
11300TIP3    H133843   7.577   1.946   1.945
11300TIP3    H233844   7.607   1.989   1.802
11301TIP3   OH233845   3.645   2.866   0.272
11301TIP3    H133846   3.739   2.860   0.288
11301TIP3    H233847   3.613   2.776   0.281
11302TIP3   OH233848   1.582   7.564   5.465
11302TIP3    H133849   1.633   7.589   5.542
11302TIP3    H233850   1.562   7.646   5.422
11303TIP3   OH233851   7.143   1.256   2.850
11303TIP3    H133852   7.193   1.177   2.871
11303TIP3    H233853   7.202   1.309   2.796
11304TIP3   OH233854   7.224   4.412   3.316
11304TIP3    H133855   7.291   4.466   3.357
11304TIP3    H233856   7.207   4.343   3.379
11305TIP3   OH233857   6.231   2.502   2.326
11305TIP3    H133858   6.248   2.484   2.234
11305TIP3    H233859   6.232   2.597   2.333
11306TIP3   OH233860   3.966   5.532   3.192
11306TIP3    H133861   3.993   5.454   3.240
11306TIP3    H233862   3.909   5.498   3.123
11307TIP3   OH233863   5.734   2.723   6.551
11307TIP3    H133864   5.668   2.668   6.508
11307TIP3    H233865   5.692   2.752   6.632
11308TIP3   OH233866   2.142   3.482   2.334
11308TIP3    H133867   2.213   3.434   2.377
11308TIP3    H233868   2.062   3.441   2.367
11309TIP3   OH233869   0.077   2.329   5.678
11309TIP3    H133870   0.163   2.292   5.698
11309TIP3    H233871   0.078   2.342   5.584
11310TIP3   OH233872   2.906   7.316   2.701
11310TIP3    H133873   2.883   7.352   2.787
11310TIP3    H233874   2.998   7.337   2.689
11311TIP3   OH233875   5.216   1.258   5.318
11311TIP3    H133876   5.216   1.328   5.384
11311TIP3    H233877   5.189   1.302   5.237
11312TIP3   OH233878   6.180   1.485   1.087
11312TIP3    H133879   6.206   1.526   1.004
11312TIP3    H233880   6.085   1.496   1.091
11313TIP3   OH233881   6.600   3.517   3.755
11313TIP3    H133882   6.575   3.444   3.698
11313TIP3    H233883   6.568   3.595   3.711
11314TIP3   OH233884   2.396   6.248   6.157
11314TIP3    H133885   2.367   6.224   6.069
11314TIP3    H233886   2.441   6.332   6.145
11315TIP3   OH233887   5.830   5.214   3.687
11315TIP3    H133888   5.816   5.189   3.596
11315TIP3    H233889   5.820   5.133   3.736
11316TIP3   OH233890   7.722   3.507   3.607
11316TIP3    H133891   7.760   3.435   3.558
11316TIP3    H233892   7.664   3.465   3.671
11317TIP3   OH233893   0.388   1.962   6.464
11317TIP3    H133894   0.387   1.956   6.560
11317TIP3    H233895   0.466   2.015   6.445
11318TIP3   OH233896   0.709   7.548   1.507
11318TIP3    H133897   0.618   7.547   1.478
11318TIP3    H233898   0.721   7.464   1.552
11319TIP3   OH233899   6.743   3.492   1.309
11319TIP3    H133900   6.761   3.400   1.331
11319TIP3    H233901   6.769   3.541   1.387
11320TIP3   OH233902   1.195   2.688   6.153
11320TIP3    H133903   1.175   2.683   6.246
11320TIP3    H233904   1.153   2.768   6.123
11321TIP3   OH233905   1.546   2.308   6.623
11321TIP3    H133906   1.474   2.251   6.650
11321TIP3    H233907   1.625   2.263   6.653
11322TIP3   OH233908   4.746   0.327   4.230
11322TIP3    H133909   4.694   0.367   4.300
11322TIP3    H233910   4.688   0.328   4.154
11323TIP3   OH233911   5.399   3.359   2.530
11323TIP3    H133912   5.314   3.328   2.560
11323TIP3    H233913   5.453   3.362   2.609
11324TIP3   OH233914   6.061   5.271   6.723
11324TIP3    H133915   6.043   5.227   6.640
11324TIP3    H233916   6.155   5.258   6.738
11325TIP3   OH233917   4.851   3.778   3.429
11325TIP3    H133918   4.806   3.801   3.348
11325TIP3    H233919   4.921   3.718   3.401
11326TIP3   OH233920   7.683   3.290   3.853
11326TIP3    H133921   7.717   3.223   3.912
11326TIP3    H233922   7.693   3.372   3.902
11327TIP3   OH233923   5.304   3.330   3.957
11327TIP3    H133924   5.262   3.245   3.972
11327TIP3    H233925   5.380   3.330   4.016
11328TIP3   OH233926   2.400   2.127   2.736
11328TIP3    H133927   2.473   2.188   2.745
11328TIP3    H233928   2.362   2.147   2.650
11329TIP3   OH233929   7.481   5.335   5.702
11329TIP3    H133930   7.427   5.281   5.644
11329TIP3    H233931   7.571   5.323   5.671
11330TIP3   OH233932   2.731   1.179   5.792
11330TIP3    H133933   2.813   1.218   5.761
11330TIP3    H233934   2.705   1.120   5.721
11331TIP3   OH233935   3.144   7.743   1.341
11331TIP3    H133936   3.144   7.839   1.334
11331TIP3    H233937   3.163   7.713   1.252
11332TIP3   OH233938   8.157   6.878   4.166
11332TIP3    H133939   8.076   6.829   4.175
11332TIP3    H233940   8.174   6.913   4.254
11333TIP3   OH233941   5.163   1.928   4.984
11333TIP3    H133942   5.144   1.983   5.060
11333TIP3    H233943   5.161   1.988   4.910
11334TIP3   OH233944   5.086   6.364   2.554
11334TIP3    H133945   5.176   6.359   2.521
11334TIP3    H233946   5.034   6.389   2.479
11335TIP3   OH233947   2.476   7.337   2.174
11335TIP3    H133948   2.438   7.396   2.240
11335TIP3    H233949   2.415   7.341   2.101
11336TIP3   OH233950   1.334   6.868   3.823
11336TIP3    H133951   1.301   6.784   3.853
11336TIP3    H233952   1.427   6.852   3.804
11337TIP3   OH233953   6.652   7.774  -0.020
11337TIP3    H133954   6.580   7.824   0.018
11337TIP3    H233955   6.642   7.686   0.016
11338TIP3   OH233956   6.179   6.505   4.628
11338TIP3    H133957   6.120   6.578   4.611
11338TIP3    H233958   6.122   6.428   4.630
11339TIP3   OH233959   6.278   6.356   5.001
11339TIP3    H133960   6.286   6.260   4.994
11339TIP3    H233961   6.301   6.389   4.914
11340TIP3   OH233962   2.330   6.888   2.575
11340TIP3    H133963   2.422   6.916   2.578
11340TIP3    H233964   2.280   6.970   2.573
11341TIP3   OH233965  -0.021   1.341   3.182
11341TIP3    H133966   0.060   1.391   3.194
11341TIP3    H233967  -0.046   1.358   3.091
11342TIP3   OH233968   3.637   1.415   0.102
11342TIP3    H133969   3.708   1.465   0.062
11342TIP3    H233970   3.651   1.325   0.072
11343TIP3   OH233971   7.106   4.977   4.412
11343TIP3    H133972   7.146   5.058   4.380
11343TIP3    H233973   7.039   4.956   4.347
11344TIP3   OH233974   0.278   3.505   2.187
11344TIP3    H133975   0.210   3.446   2.221
11344TIP3    H233976   0.266   3.503   2.092
11345TIP3   OH233977   6.569   3.095   6.040
11345TIP3    H133978   6.602   3.005   6.041
11345TIP3    H233979   6.509   3.098   6.115
11346TIP3   OH233980   5.680   2.364   5.041
11346TIP3    H133981   5.705   2.275   5.019
11346TIP3    H233982   5.585   2.360   5.051
11347TIP3   OH233983   7.471   3.217   1.552
11347TIP3    H133984   7.500   3.247   1.466
11347TIP3    H233985   7.498   3.287   1.612
11348TIP3   OH233986   4.276   0.134   0.618
11348TIP3    H133987   4.283   0.115   0.712
11348TIP3    H233988   4.185   0.116   0.597
11349TIP3   OH233989   3.941   5.480   1.151
11349TIP3    H133990   4.020   5.446   1.194
11349TIP3    H233991   3.960   5.572   1.134
11350TIP3   OH233992   0.659   7.723   0.326
11350TIP3    H133993   0.614   7.797   0.367
11350TIP3    H233994   0.701   7.677   0.398
11351TIP3   OH233995   5.158   1.549   4.515
11351TIP3    H133996   5.201   1.465   4.500
11351TIP3    H233997   5.067   1.534   4.490
11352TIP3   OH233998   3.581   5.559   5.067
11352TIP3    H133999   3.491   5.587   5.083
11352TIP3    H234000   3.632   5.639   5.069
11353TIP3   OH234001   3.861   5.381   0.838
11353TIP3    H134002   3.842   5.378   0.932
11353TIP3    H234003   3.798   5.443   0.802
11354TIP3   OH234004   3.487   1.761   1.566
11354TIP3    H134005   3.576   1.774   1.532
11354TIP3    H234006   3.443   1.708   1.499
11355TIP3   OH234007   0.855   3.472   2.922
11355TIP3    H134008   0.800   3.424   2.862
11355TIP3    H234009   0.800   3.488   2.999
11356TIP3   OH234010   1.117   2.726   2.669
11356TIP3    H134011   1.163   2.642   2.660
11356TIP3    H234012   1.085   2.726   2.760
11357TIP3   OH234013   6.159   7.726   4.469
11357TIP3    H134014   6.188   7.776   4.545
11357TIP3    H234015   6.124   7.645   4.505
11358TIP3   OH234016   0.699   3.813   2.539
11358TIP3    H134017   0.775   3.785   2.589
11358TIP3    H234018   0.728   3.891   2.491
11359TIP3   OH234019   7.159   1.945   3.498
11359TIP3    H134020   7.185   1.911   3.412
11359TIP3    H234021   7.200   1.885   3.561
11360TIP3   OH234022   5.585   6.624   5.303
11360TIP3    H134023   5.636   6.561   5.354
11360TIP3    H234024   5.620   6.709   5.328
11361TIP3   OH234025   2.364   7.205   0.963
11361TIP3    H134026   2.286   7.166   0.924
11361TIP3    H234027   2.429   7.135   0.961
11362TIP3   OH234028   1.720   1.736   5.838
11362TIP3    H134029   1.676   1.690   5.766
11362TIP3    H234030   1.696   1.686   5.916
11363TIP3   OH234031   7.861   6.348   2.888
11363TIP3    H134032   7.777   6.336   2.932
11363TIP3    H234033   7.842   6.328   2.796
11364TIP3   OH234034   6.589   1.914   4.791
11364TIP3    H134035   6.661   1.963   4.831
11364TIP3    H234036   6.536   1.885   4.865
11365TIP3   OH234037   6.506   1.329   2.470
11365TIP3    H134038   6.442   1.258   2.479
11365TIP3    H234039   6.564   1.319   2.545
11366TIP3   OH234040   0.999   7.091   0.305
11366TIP3    H134041   0.972   7.021   0.365
11366TIP3    H234042   0.934   7.160   0.318
11367TIP3   OH234043   8.058   0.051   1.270
11367TIP3    H134044   8.056  -0.038   1.306
11367TIP3    H234045   8.090   0.105   1.342
11368TIP3   OH234046   1.886   5.053   0.984
11368TIP3    H134047   1.904   5.092   1.070
11368TIP3    H234048   1.829   4.979   1.002
11369TIP3   OH234049   0.218   2.381   4.575
11369TIP3    H134050   0.209   2.471   4.607
11369TIP3    H234051   0.312   2.367   4.570
11370TIP3   OH234052   0.264   2.134   1.288
11370TIP3    H134053   0.288   2.065   1.349
11370TIP3    H234054   0.311   2.211   1.319
11371TIP3   OH234055   2.134   0.469   1.887
11371TIP3    H134056   2.118   0.437   1.798
11371TIP3    H234057   2.222   0.506   1.883
11372TIP3   OH234058   6.106   7.183   1.248
11372TIP3    H134059   6.060   7.112   1.293
11372TIP3    H234060   6.166   7.219   1.313
11373TIP3   OH234061   7.808   2.266   4.625
11373TIP3    H134062   7.885   2.267   4.568
11373TIP3    H234063   7.765   2.350   4.609
11374TIP3   OH234064   8.075   0.505   2.999
11374TIP3    H134065   8.033   0.580   2.957
11374TIP3    H234066   8.149   0.484   2.942
11375TIP3   OH234067   0.364   0.150   0.823
11375TIP3    H134068   0.355   0.141   0.729
11375TIP3    H234069   0.313   0.229   0.844
11376TIP3   OH234070   0.764   7.294   1.608
11376TIP3    H134071   0.767   7.290   1.704
11376TIP3    H234072   0.847   7.257   1.580
11377TIP3   OH234073   3.918   1.240   3.776
11377TIP3    H134074   3.936   1.164   3.719
11377TIP3    H234075   3.996   1.248   3.830
11378TIP3   OH234076   6.690   3.539   2.646
11378TIP3    H134077   6.731   3.602   2.587
11378TIP3    H234078   6.760   3.510   2.704
11379TIP3   OH234079   2.494   0.489   0.747
11379TIP3    H134080   2.411   0.535   0.756
11379TIP3    H234081   2.550   0.550   0.699
11380TIP3   OH234082   4.853   3.567   1.385
11380TIP3    H134083   4.801   3.486   1.387
11380TIP3    H234084   4.931   3.544   1.334
11381TIP3   OH234085   5.484   3.586   3.152
11381TIP3    H134086   5.431   3.661   3.180
11381TIP3    H234087   5.503   3.539   3.233
11382TIP3   OH234088   6.111   5.640   3.045
11382TIP3    H134089   6.104   5.599   3.131
11382TIP3    H234090   6.133   5.568   2.986
11383TIP3   OH234091   5.258   5.101   3.840
11383TIP3    H134092   5.223   5.013   3.853
11383TIP3    H234093   5.294   5.100   3.751
11384TIP3   OH234094   0.685   2.573   5.172
11384TIP3    H134095   0.715   2.561   5.081
11384TIP3    H234096   0.597   2.608   5.163
11385TIP3   OH234097   7.462   6.959   4.563
11385TIP3    H134098   7.485   6.870   4.589
11385TIP3    H234099   7.373   6.952   4.529
11386TIP3   OH234100   6.691   2.115   1.605
11386TIP3    H134101   6.683   2.026   1.570
11386TIP3    H234102   6.768   2.112   1.662
11387TIP3   OH234103   0.719   3.167   5.574
11387TIP3    H134104   0.697   3.089   5.624
11387TIP3    H234105   0.811   3.155   5.550
11388TIP3   OH234106   4.739   0.205   3.568
11388TIP3    H134107   4.729   0.298   3.551
11388TIP3    H234108   4.730   0.196   3.663
11389TIP3   OH234109   3.182   0.974   3.083
11389TIP3    H134110   3.174   0.941   3.173
11389TIP3    H234111   3.276   0.987   3.071
11390TIP3   OH234112   6.534   5.817   5.205
11390TIP3    H134113   6.543   5.817   5.301
11390TIP3    H234114   6.547   5.725   5.180
11391TIP3   OH234115   2.792   6.949   4.958
11391TIP3    H134116   2.804   6.907   5.043
11391TIP3    H234117   2.792   7.043   4.977
11392TIP3   OH234118   7.989   4.318   1.149
11392TIP3    H134119   8.025   4.392   1.100
11392TIP3    H234120   8.061   4.255   1.154
11393TIP3   OH234121   0.360   7.076   3.961
11393TIP3    H134122   0.306   7.134   4.016
11393TIP3    H234123   0.450   7.092   3.990
11394TIP3   OH234124   4.637   4.486   4.295
11394TIP3    H134125   4.688   4.475   4.214
11394TIP3    H234126   4.546   4.489   4.266
11395TIP3   OH234127   4.484   0.326   4.054
11395TIP3    H134128   4.465   0.416   4.080
11395TIP3    H234129   4.480   0.326   3.959
11396TIP3   OH234130   0.307   7.776   2.956
11396TIP3    H134131   0.216   7.763   2.984
11396TIP3    H234132   0.353   7.698   2.988
11397TIP3   OH234133   3.184   7.687   5.625
11397TIP3    H134134   3.234   7.686   5.543
11397TIP3    H234135   3.178   7.595   5.651
11398TIP3   OH234136   0.337   2.033   5.003
11398TIP3    H134137   0.299   1.967   4.945
11398TIP3    H234138   0.427   2.004   5.018
11399TIP3   OH234139   5.012   3.762   2.434
11399TIP3    H134140   4.959   3.700   2.484
11399TIP3    H234141   5.007   3.731   2.344
11400TIP3   OH234142   2.635   4.805   4.145
11400TIP3    H134143   2.609   4.896   4.157
11400TIP3    H234144   2.656   4.774   4.233
11401TIP3   OH234145   1.265   5.403   2.331
11401TIP3    H134146   1.357   5.426   2.322
11401TIP3    H234147   1.256   5.321   2.283
11402TIP3   OH234148   8.247   3.871   3.583
11402TIP3    H134149   8.261   3.776   3.587
11402TIP3    H234150   8.204   3.893   3.665
11403TIP3   OH234151   3.916   6.508   6.306
11403TIP3    H134152   3.992   6.452   6.291
11403TIP3    H234153   3.896   6.545   6.221
11404TIP3   OH234154   3.824   6.083   3.736
11404TIP3    H134155   3.866   6.087   3.823
11404TIP3    H234156   3.846   6.167   3.695
11405TIP3   OH234157   1.444   1.923   2.750
11405TIP3    H134158   1.443   1.995   2.814
11405TIP3    H234159   1.453   1.844   2.803
11406TIP3   OH234160   7.066   5.465   1.491
11406TIP3    H134161   7.013   5.477   1.570
11406TIP3    H234162   7.015   5.405   1.437
11407TIP3   OH234163   1.699   6.455   6.330
11407TIP3    H134164   1.637   6.440   6.401
11407TIP3    H234165   1.660   6.525   6.279
11408TIP3   OH234166   6.084   2.916   0.649
11408TIP3    H134167   6.165   2.908   0.598
11408TIP3    H234168   6.113   2.942   0.737
11409TIP3   OH234169   4.521   7.653   2.339
11409TIP3    H134170   4.561   7.571   2.308
11409TIP3    H234171   4.470   7.684   2.265
11410TIP3   OH234172   5.110   6.456   6.072
11410TIP3    H134173   5.175   6.413   6.127
11410TIP3    H234174   5.115   6.548   6.094
11411TIP3   OH234175   2.228   7.620   6.278
11411TIP3    H134176   2.323   7.624   6.261
11411TIP3    H234177   2.190   7.680   6.214
11412TIP3   OH234178   3.208   4.717   0.172
11412TIP3    H134179   3.118   4.684   0.167
11412TIP3    H234180   3.213   4.761   0.257
11413TIP3   OH234181   4.904   1.801   2.408
11413TIP3    H134182   4.850   1.722   2.408
11413TIP3    H234183   4.966   1.787   2.336
11414TIP3   OH234184   2.432   4.715   3.920
11414TIP3    H134185   2.511   4.742   3.968
11414TIP3    H234186   2.391   4.650   3.976
11415TIP3   OH234187   6.302   7.698   0.803
11415TIP3    H134188   6.290   7.771   0.863
11415TIP3    H234189   6.360   7.637   0.851
11416TIP3   OH234190   4.704   4.620   1.939
11416TIP3    H134191   4.682   4.564   1.865
11416TIP3    H234192   4.771   4.679   1.906
11417TIP3   OH234193   1.574   6.444   0.443
11417TIP3    H134194   1.498   6.386   0.434
11417TIP3    H234195   1.605   6.458   0.354
11418TIP3   OH234196   5.617   1.288   2.048
11418TIP3    H134197   5.569   1.230   2.108
11418TIP3    H234198   5.567   1.369   2.048
11419TIP3   OH234199   7.296   0.260   1.613
11419TIP3    H134200   7.376   0.230   1.570
11419TIP3    H234201   7.310   0.353   1.628
11420TIP3   OH234202   0.676   7.756   0.746
11420TIP3    H134203   0.600   7.780   0.694
11420TIP3    H234204   0.648   7.679   0.796
11421TIP3   OH234205   4.861   0.078   4.666
11421TIP3    H134206   4.907  -0.001   4.693
11421TIP3    H234207   4.805   0.099   4.741
11422TIP3   OH234208   1.611   2.280   3.220
11422TIP3    H134209   1.663   2.262   3.142
11422TIP3    H234210   1.542   2.213   3.218
11423TIP3   OH234211   7.955   1.060   6.043
11423TIP3    H134212   7.953   1.131   5.980
11423TIP3    H234213   7.866   1.024   6.041
11424TIP3   OH234214   1.796   1.817   5.234
11424TIP3    H134215   1.811   1.837   5.142
11424TIP3    H234216   1.735   1.742   5.233
11425TIP3   OH234217   0.752   0.576   0.020
11425TIP3    H134218   0.761   0.481   0.022
11425TIP3    H234219   0.826   0.608   0.072
11426TIP3   OH234220   5.433   2.602   0.685
11426TIP3    H134221   5.369   2.549   0.732
11426TIP3    H234222   5.464   2.666   0.749
11427TIP3   OH234223   4.401   6.014   3.945
11427TIP3    H134224   4.422   5.952   4.014
11427TIP3    H234225   4.457   5.989   3.872
11428TIP3   OH234226   6.714   3.259   3.487
11428TIP3    H134227   6.786   3.291   3.434
11428TIP3    H234228   6.746   3.262   3.577
11429TIP3   OH234229   6.427   4.865   4.783
11429TIP3    H134230   6.490   4.911   4.838
11429TIP3    H234231   6.404   4.786   4.832
11430TIP3   OH234232   5.029   7.089   3.568
11430TIP3    H134233   5.067   7.125   3.488
11430TIP3    H234234   5.104   7.077   3.627
11431TIP3   OH234235   0.956   4.421   4.996
11431TIP3    H134236   0.864   4.437   4.975
11431TIP3    H234237   0.979   4.490   5.058
11432TIP3   OH234238   5.171   4.665   2.907
11432TIP3    H134239   5.168   4.712   2.990
11432TIP3    H234240   5.158   4.732   2.840
11433TIP3   OH234241   3.411   5.422   1.425
11433TIP3    H134242   3.340   5.358   1.429
11433TIP3    H234243   3.434   5.426   1.332
11434TIP3   OH234244   4.151   3.731   0.746
11434TIP3    H134245   4.169   3.699   0.834
11434TIP3    H234246   4.190   3.817   0.742
11435TIP3   OH234247   2.748   3.662   6.255
11435TIP3    H134248   2.678   3.721   6.230
11435TIP3    H234249   2.732   3.582   6.205
11436TIP3   OH234250   6.336   4.330   2.260
11436TIP3    H134251   6.343   4.249   2.311
11436TIP3    H234252   6.298   4.394   2.321
11437TIP3   OH234253   1.954   4.696   1.014
11437TIP3    H134254   1.897   4.630   0.973
11437TIP3    H234255   1.949   4.772   0.956
11438TIP3   OH234256   5.952   7.223   6.558
11438TIP3    H134257   6.010   7.181   6.621
11438TIP3    H234258   6.010   7.253   6.488
11439TIP3   OH234259   7.708   5.811   0.873
11439TIP3    H134260   7.766   5.760   0.930
11439TIP3    H234261   7.677   5.883   0.928
11440TIP3   OH234262   7.668   0.212   3.680
11440TIP3    H134263   7.626   0.191   3.596
11440TIP3    H234264   7.750   0.254   3.656
11441TIP3   OH234265   2.602   0.707   1.925
11441TIP3    H134266   2.600   0.737   1.834
11441TIP3    H234267   2.695   0.691   1.943
11442TIP3   OH234268   4.494   4.736   2.080
11442TIP3    H134269   4.553   4.725   2.006
11442TIP3    H234270   4.447   4.653   2.087
11443TIP3   OH234271   8.263   1.605   5.739
11443TIP3    H134272   8.253   1.675   5.674
11443TIP3    H234273   8.223   1.528   5.699
11444TIP3   OH234274   3.727   4.384   0.165
11444TIP3    H134275   3.683   4.312   0.211
11444TIP3    H234276   3.743   4.449   0.234
11445TIP3   OH234277   6.342   1.154   5.276
11445TIP3    H134278   6.259   1.173   5.320
11445TIP3    H234279   6.338   1.060   5.257
11446TIP3   OH234280   1.081   4.589   4.133
11446TIP3    H134281   1.019   4.592   4.059
11446TIP3    H234282   1.135   4.512   4.115
11447TIP3   OH234283   4.417   0.398   1.664
11447TIP3    H134284   4.330   0.423   1.694
11447TIP3    H234285   4.477   0.435   1.730
11448TIP3   OH234286   0.610   2.024   1.136
11448TIP3    H134287   0.692   2.014   1.087
11448TIP3    H234288   0.542   1.999   1.074
11449TIP3   OH234289   3.807   7.451   0.984
11449TIP3    H134290   3.745   7.522   1.001
11449TIP3    H234291   3.784   7.420   0.897
11450TIP3   OH234292   1.947   1.444   5.571
11450TIP3    H134293   1.947   1.537   5.549
11450TIP3    H234294   2.013   1.405   5.514
11451TIP3   OH234295   1.382   5.807   1.525
11451TIP3    H134296   1.430   5.888   1.546
11451TIP3    H234297   1.290   5.832   1.529
11452TIP3   OH234298   4.995   3.763   5.227
11452TIP3    H134299   4.932   3.749   5.156
11452TIP3    H234300   5.021   3.675   5.254
11453TIP3   OH234301   6.156   4.715   6.257
11453TIP3    H134302   6.142   4.742   6.167
11453TIP3    H234303   6.068   4.715   6.296
11454TIP3   OH234304   6.250   7.248   1.460
11454TIP3    H134305   6.339   7.260   1.494
11454TIP3    H234306   6.194   7.274   1.533
11455TIP3   OH234307   2.900   4.521   1.943
11455TIP3    H134308   2.866   4.454   2.004
11455TIP3    H234309   2.941   4.470   1.873
11456TIP3   OH234310   2.831   7.033   5.880
11456TIP3    H134311   2.776   7.069   5.949
11456TIP3    H234312   2.807   7.083   5.802
11457TIP3   OH234313   0.719   3.695   5.945
11457TIP3    H134314   0.683   3.656   6.025
11457TIP3    H234315   0.672   3.778   5.935
11458TIP3   OH234316   1.260   6.093   3.800
11458TIP3    H134317   1.176   6.070   3.839
11458TIP3    H234318   1.252   6.067   3.708
11459TIP3   OH234319   5.845   2.783   3.106
11459TIP3    H134320   5.831   2.703   3.055
11459TIP3    H234321   5.940   2.786   3.120
11460TIP3   OH234322   2.820   6.958   3.050
11460TIP3    H134323   2.827   6.914   2.966
11460TIP3    H234324   2.906   6.947   3.091
11461TIP3   OH234325   4.186   5.716   0.728
11461TIP3    H134326   4.233   5.707   0.811
11461TIP3    H234327   4.251   5.749   0.667
11462TIP3   OH234328   4.898   3.852   4.751
11462TIP3    H134329   4.857   3.804   4.680
11462TIP3    H234330   4.829   3.909   4.784
11463TIP3   OH234331   4.982   2.534   0.688
11463TIP3    H134332   5.015   2.624   0.682
11463TIP3    H234333   4.944   2.517   0.602
11464TIP3   OH234334   1.248   4.645   2.576
11464TIP3    H134335   1.223   4.638   2.484
11464TIP3    H234336   1.205   4.570   2.618
11465TIP3   OH234337   1.467   6.626   4.504
11465TIP3    H134338   1.445   6.604   4.413
11465TIP3    H234339   1.459   6.721   4.508
11466TIP3   OH234340   0.534   4.117   6.385
11466TIP3    H134341   0.448   4.112   6.344
11466TIP3    H234342   0.518   4.096   6.477
11467TIP3   OH234343   7.017   2.244   4.846
11467TIP3    H134344   6.940   2.299   4.831
11467TIP3    H234345   7.087   2.289   4.799
11468TIP3   OH234346   6.604   1.589   2.393
11468TIP3    H134347   6.628   1.661   2.451
11468TIP3    H234348   6.591   1.514   2.451
11469TIP3   OH234349   4.863   4.654   0.775
11469TIP3    H134350   4.795   4.627   0.837
11469TIP3    H234351   4.822   4.724   0.724
11470TIP3   OH234352   6.229   4.494   4.779
11470TIP3    H134353   6.223   4.425   4.713
11470TIP3    H234354   6.138   4.514   4.801
11471TIP3   OH234355   1.934   0.110   1.796
11471TIP3    H134356   1.853   0.078   1.835
11471TIP3    H234357   1.905   0.170   1.727
11472TIP3   OH234358   5.854   2.240   0.981
11472TIP3    H134359   5.835   2.282   0.896
11472TIP3    H234360   5.935   2.282   1.011
11473TIP3   OH234361   1.156   4.006   0.843
11473TIP3    H134362   1.182   4.048   0.761
11473TIP3    H234363   1.179   3.914   0.831
11474TIP3   OH234364   0.018  -0.064   4.169
11474TIP3    H134365  -0.005  -0.044   4.260
11474TIP3    H234366   0.026   0.021   4.127
11475TIP3   OH234367   0.533  -0.010   3.763
11475TIP3    H134368   0.481  -0.042   3.837
11475TIP3    H234369   0.609   0.032   3.803
11476TIP3   OH234370   0.758   1.132   0.141
11476TIP3    H134371   0.721   1.076   0.210
11476TIP3    H234372   0.775   1.073   0.068
11477TIP3   OH234373   1.004   4.287   6.599
11477TIP3    H134374   1.079   4.227   6.599
11477TIP3    H234375   1.023   4.350   6.668
11478TIP3   OH234376   5.156   4.454   1.224
11478TIP3    H134377   5.186   4.498   1.145
11478TIP3    H234378   5.089   4.512   1.260
11479TIP3   OH234379   2.090   2.358   1.126
11479TIP3    H134380   1.997   2.361   1.106
11479TIP3    H234381   2.104   2.431   1.187
11480TIP3   OH234382   3.583   4.196   4.818
11480TIP3    H134383   3.557   4.229   4.732
11480TIP3    H234384   3.501   4.194   4.868
11481TIP3   OH234385   3.734   1.867   3.499
11481TIP3    H134386   3.710   1.777   3.479
11481TIP3    H234387   3.787   1.895   3.424
11482TIP3   OH234388   3.579   2.908   2.566
11482TIP3    H134389   3.535   2.887   2.649
11482TIP3    H234390   3.528   2.980   2.529
11483TIP3   OH234391   2.241   5.137   6.371
11483TIP3    H134392   2.303   5.064   6.379
11483TIP3    H234393   2.164   5.107   6.421
11484TIP3   OH234394   6.444   5.848   1.487
11484TIP3    H134395   6.416   5.861   1.577
11484TIP3    H234396   6.455   5.936   1.451
11485TIP3   OH234397   5.509   2.217   2.262
11485TIP3    H134398   5.575   2.276   2.297
11485TIP3    H234399   5.558   2.142   2.229
11486TIP3   OH234400   1.847   3.610   5.467
11486TIP3    H134401   1.793   3.559   5.406
11486TIP3    H234402   1.883   3.680   5.413
11487TIP3   OH234403   3.978   4.661   3.635
11487TIP3    H134404   4.031   4.740   3.630
11487TIP3    H234405   4.041   4.590   3.651
11488TIP3   OH234406   4.824   6.478   6.017
11488TIP3    H134407   4.819   6.568   6.051
11488TIP3    H234408   4.915   6.453   6.030
11489TIP3   OH234409   5.679   5.984   4.689
11489TIP3    H134410   5.679   5.894   4.722
11489TIP3    H234411   5.602   6.024   4.730
11490TIP3   OH234412   7.657   2.728   4.787
11490TIP3    H134413   7.713   2.799   4.756
11490TIP3    H234414   7.570   2.767   4.797
11491TIP3   OH234415   7.553   1.088   4.742
11491TIP3    H134416   7.499   1.012   4.762
11491TIP3    H234417   7.551   1.141   4.822
11492TIP3   OH234418   8.013   0.951   0.771
11492TIP3    H134419   8.007   0.886   0.701
11492TIP3    H234420   8.087   0.923   0.824
11493TIP3   OH234421   7.577   7.061   4.296
11493TIP3    H134422   7.569   7.003   4.371
11493TIP3    H234423   7.663   7.042   4.260
11494TIP3   OH234424   7.417   1.065   5.249
11494TIP3    H134425   7.430   1.155   5.220
11494TIP3    H234426   7.410   1.070   5.344
11495TIP3   OH234427   1.343   6.565   4.131
11495TIP3    H134428   1.409   6.632   4.113
11495TIP3    H234429   1.319   6.530   4.045
11496TIP3   OH234430   0.301   2.564   3.647
11496TIP3    H134431   0.271   2.523   3.728
11496TIP3    H234432   0.234   2.629   3.626
11497TIP3   OH234433   5.928   5.615   6.507
11497TIP3    H134434   6.010   5.568   6.527
11497TIP3    H234435   5.930   5.691   6.565
11498TIP3   OH234436   4.768   6.942   0.144
11498TIP3    H134437   4.819   6.951   0.225
11498TIP3    H234438   4.770   6.848   0.125
11499TIP3   OH234439   2.319   7.754   1.754
11499TIP3    H134440   2.337   7.702   1.676
11499TIP3    H234441   2.355   7.702   1.826
11500TIP3   OH234442   7.367   2.779   5.180
11500TIP3    H134443   7.364   2.743   5.269
11500TIP3    H234444   7.460   2.795   5.164
11501TIP3   OH234445   0.452   3.435   6.292
11501TIP3    H134446   0.432   3.463   6.381
11501TIP3    H234447   0.477   3.343   6.300
11502TIP3   OH234448   0.169   2.369   6.530
11502TIP3    H134449   0.164   2.340   6.439
11502TIP3    H234450   0.120   2.452   6.531
11503TIP3   OH234451   1.095   4.802   1.616
11503TIP3    H134452   1.124   4.795   1.707
11503TIP3    H234453   1.011   4.756   1.613
11504TIP3   OH234454   4.552   0.076   6.195
11504TIP3    H134455   4.570   0.158   6.241
11504TIP3    H234456   4.591   0.089   6.108
11505TIP3   OH234457   2.293   2.267   3.271
11505TIP3    H134458   2.283   2.239   3.362
11505TIP3    H234459   2.272   2.361   3.272
11506TIP3   OH234460   2.511   2.775   5.941
11506TIP3    H134461   2.531   2.718   6.015
11506TIP3    H234462   2.417   2.793   5.950
11507TIP3   OH234463   2.489   2.571   1.682
11507TIP3    H134464   2.418   2.534   1.735
11507TIP3    H234465   2.506   2.505   1.615
11508TIP3   OH234466   3.995   1.992   0.864
11508TIP3    H134467   3.956   2.039   0.790
11508TIP3    H234468   3.968   2.042   0.941
11509TIP3   OH234469   2.285   1.904   3.150
11509TIP3    H134470   2.328   1.856   3.079
11509TIP3    H234471   2.357   1.948   3.196
11510TIP3   OH234472   5.125   4.890   2.791
11510TIP3    H134473   5.143   4.927   2.705
11510TIP3    H234474   5.125   4.965   2.850
11511TIP3   OH234475   4.503   4.362   0.063
11511TIP3    H134476   4.436   4.296   0.046
11511TIP3    H234477   4.458   4.445   0.050
11512TIP3   OH234478   7.009   3.724   4.158
11512TIP3    H134479   6.984   3.766   4.076
11512TIP3    H234480   7.080   3.778   4.192
11513TIP3   OH234481   2.720   6.871   4.406
11513TIP3    H134482   2.759   6.904   4.324
11513TIP3    H234483   2.732   6.943   4.468
11514TIP3   OH234484   5.151   4.399   4.036
11514TIP3    H134485   5.204   4.477   4.050
11514TIP3    H234486   5.163   4.378   3.943
11515TIP3   OH234487   4.251   2.006   3.887
11515TIP3    H134488   4.307   2.077   3.858
11515TIP3    H234489   4.266   1.936   3.823
11516TIP3   OH234490   6.765   2.237   3.009
11516TIP3    H134491   6.723   2.152   2.997
11516TIP3    H234492   6.805   2.233   3.096
11517TIP3   OH234493   6.865   0.249   6.290
11517TIP3    H134494   6.862   0.160   6.326
11517TIP3    H234495   6.796   0.296   6.337
11518TIP3   OH234496   3.324   0.763   0.848
11518TIP3    H134497   3.332   0.773   0.753
11518TIP3    H234498   3.374   0.836   0.884
11519TIP3   OH234499   2.905   1.376   6.189
11519TIP3    H134500   2.959   1.339   6.119
11519TIP3    H234501   2.875   1.460   6.154
11520TIP3   OH234502   1.028   1.253   3.225
11520TIP3    H134503   1.009   1.319   3.157
11520TIP3    H234504   0.993   1.292   3.305
11521TIP3   OH234505   0.768   1.062   0.530
11521TIP3    H134506   0.721   1.041   0.450
11521TIP3    H234507   0.814   1.144   0.510
11522TIP3   OH234508   6.452   0.974   5.862
11522TIP3    H134509   6.540   0.935   5.862
11522TIP3    H234510   6.424   0.972   5.771
11523TIP3   OH234511   2.248   0.388   4.603
11523TIP3    H134512   2.187   0.415   4.535
11523TIP3    H234513   2.331   0.374   4.556
11524TIP3   OH234514   6.314   7.125   5.760
11524TIP3    H134515   6.254   7.149   5.690
11524TIP3    H234516   6.300   7.031   5.773
11525TIP3   OH234517   0.735   7.302   5.296
11525TIP3    H134518   0.761   7.219   5.256
11525TIP3    H234519   0.722   7.281   5.389
11526TIP3   OH234520   4.575   4.963   2.224
11526TIP3    H134521   4.561   4.871   2.204
11526TIP3    H234522   4.496   4.990   2.272
11527TIP3   OH234523   3.807   5.366   2.784
11527TIP3    H134524   3.813   5.378   2.689
11527TIP3    H234525   3.740   5.428   2.811
11528TIP3   OH234526   1.871   5.490   5.953
11528TIP3    H134527   1.822   5.471   5.873
11528TIP3    H234528   1.839   5.576   5.980
11529TIP3   OH234529   7.487   3.564   4.919
11529TIP3    H134530   7.487   3.524   5.006
11529TIP3    H234531   7.571   3.541   4.881
11530TIP3   OH234532   4.767   4.941   1.996
11530TIP3    H134533   4.837   4.902   2.048
11530TIP3    H234534   4.700   4.966   2.059
11531TIP3   OH234535   6.491   3.475   5.994
11531TIP3    H134536   6.571   3.502   5.948
11531TIP3    H234537   6.522   3.450   6.082
11532TIP3   OH234538   4.146   0.831   0.441
11532TIP3    H134539   4.230   0.867   0.468
11532TIP3    H234540   4.090   0.907   0.427
11533TIP3   OH234541   2.276   5.658   4.320
11533TIP3    H134542   2.349   5.714   4.295
11533TIP3    H234543   2.202   5.717   4.330
11534TIP3   OH234544   5.022   2.370   6.389
11534TIP3    H134545   5.016   2.316   6.468
11534TIP3    H234546   5.045   2.309   6.319
11535TIP3   OH234547   7.370   5.278   0.203
11535TIP3    H134548   7.279   5.255   0.222
11535TIP3    H234549   7.373   5.291   0.108
11536TIP3   OH234550   3.718   4.001   3.490
11536TIP3    H134551   3.717   3.954   3.407
11536TIP3    H234552   3.810   4.023   3.505
11537TIP3   OH234553   8.046   3.608   3.871
11537TIP3    H134554   7.991   3.531   3.885
11537TIP3    H234555   8.134   3.572   3.861
11538TIP3   OH234556   5.379   4.597   6.094
11538TIP3    H134557   5.401   4.527   6.032
11538TIP3    H234558   5.290   4.577   6.122
11539TIP3   OH234559   5.057   6.429   3.207
11539TIP3    H134560   4.997   6.446   3.280
11539TIP3    H234561   5.117   6.504   3.208
11540TIP3   OH234562   0.535   2.809   4.783
11540TIP3    H134563   0.455   2.803   4.836
11540TIP3    H234564   0.605   2.781   4.842
11541TIP3   OH234565   2.211   5.722   6.026
11541TIP3    H134566   2.296   5.680   6.043
11541TIP3    H234567   2.186   5.760   6.111
11542TIP3   OH234568   3.682   5.326   3.385
11542TIP3    H134569   3.693   5.281   3.301
11542TIP3    H234570   3.769   5.325   3.425
11543TIP3   OH234571   3.211   1.207   4.445
11543TIP3    H134572   3.268   1.191   4.370
11543TIP3    H234573   3.130   1.242   4.407
11544TIP3   OH234574   6.585   1.996   3.152
11544TIP3    H134575   6.631   2.023   3.232
11544TIP3    H234576   6.518   2.064   3.140
11545TIP3   OH234577   0.587   3.018   1.968
11545TIP3    H134578   0.631   3.030   2.052
11545TIP3    H234579   0.519   3.086   1.967
11546TIP3   OH234580   7.214   4.708   1.203
11546TIP3    H134581   7.270   4.782   1.179
11546TIP3    H234582   7.264   4.662   1.270
11547TIP3   OH234583   1.273   0.658   2.330
11547TIP3    H134584   1.189   0.641   2.287
11547TIP3    H234585   1.337   0.612   2.275
11548TIP3   OH234586   5.110   6.480   1.782
11548TIP3    H134587   5.125   6.509   1.872
11548TIP3    H234588   5.163   6.539   1.729
11549TIP3   OH234589   0.369   2.561   5.734
11549TIP3    H134590   0.319   2.626   5.782
11549TIP3    H234591   0.397   2.497   5.800
11550TIP3   OH234592   3.351   6.398   0.524
11550TIP3    H134593   3.270   6.442   0.551
11550TIP3    H234594   3.352   6.409   0.428
11551TIP3   OH234595   0.643   6.225   1.446
11551TIP3    H134596   0.555   6.261   1.463
11551TIP3    H234597   0.654   6.232   1.351
11552TIP3   OH234598   2.041   5.129   3.254
11552TIP3    H134599   1.968   5.066   3.246
11552TIP3    H234600   2.063   5.127   3.347
11553TIP3   OH234601   5.655   2.924   1.318
11553TIP3    H134602   5.669   2.986   1.390
11553TIP3    H234603   5.687   2.840   1.353
11554TIP3   OH234604   2.388   3.965   2.353
11554TIP3    H134605   2.472   3.960   2.308
11554TIP3    H234606   2.346   3.881   2.333
11555TIP3   OH234607   3.740   2.895   2.910
11555TIP3    H134608   3.808   2.879   2.976
11555TIP3    H234609   3.745   2.989   2.894
11556TIP3   OH234610   3.515   5.152   4.859
11556TIP3    H134611   3.525   5.097   4.782
11556TIP3    H234612   3.581   5.221   4.849
11557TIP3   OH234613   6.078   5.694   3.889
11557TIP3    H134614   6.113   5.646   3.965
11557TIP3    H234615   5.983   5.695   3.903
11558TIP3   OH234616   7.043   3.448   0.032
11558TIP3    H134617   6.953   3.421   0.017
11558TIP3    H234618   7.096   3.384  -0.015
11559TIP3   OH234619   2.045   6.048   6.658
11559TIP3    H134620   2.117   6.100   6.693
11559TIP3    H234621   2.045   5.969   6.712
11560TIP3   OH234622   7.828   1.396   6.290
11560TIP3    H134623   7.777   1.418   6.212
11560TIP3    H234624   7.762   1.374   6.356
11561TIP3   OH234625   1.047   1.731   1.369
11561TIP3    H134626   1.090   1.646   1.376
11561TIP3    H234627   1.082   1.782   1.442
11562TIP3   OH234628   0.908   3.070   0.281
11562TIP3    H134629   0.885   3.053   0.372
11562TIP3    H234630   0.959   2.994   0.254
11563TIP3   OH234631   3.734   4.063   1.537
11563TIP3    H134632   3.764   3.973   1.554
11563TIP3    H234633   3.715   4.065   1.444
11564TIP3   OH234634   2.446   1.357   1.751
11564TIP3    H134635   2.368   1.412   1.760
11564TIP3    H234636   2.475   1.342   1.841
11565TIP3   OH234637   7.199   6.715   4.605
11565TIP3    H134638   7.106   6.701   4.625
11565TIP3    H234639   7.202   6.802   4.566
11566TIP3   OH234640   5.853   1.446   2.031
11566TIP3    H134641   5.861   1.464   2.125
11566TIP3    H234642   5.764   1.412   2.021
11567TIP3   OH234643   2.461   3.554   3.214
11567TIP3    H134644   2.549   3.528   3.185
11567TIP3    H234645   2.474   3.585   3.303
11568TIP3   OH234646   1.704   5.662   5.541
11568TIP3    H134647   1.730   5.592   5.600
11568TIP3    H234648   1.630   5.626   5.491
11569TIP3   OH234649   7.109   1.428   5.783
11569TIP3    H134650   7.135   1.505   5.834
11569TIP3    H234651   7.124   1.354   5.842
11570TIP3   OH234652   7.051   4.221   0.262
11570TIP3    H134653   7.013   4.303   0.293
11570TIP3    H234654   6.978   4.160   0.257
11571TIP3   OH234655   0.394   5.670   4.198
11571TIP3    H134656   0.475   5.643   4.242
11571TIP3    H234657   0.338   5.593   4.202
11572TIP3   OH234658   1.164   3.345   2.762
11572TIP3    H134659   1.069   3.345   2.751
11572TIP3    H234660   1.198   3.315   2.678
11573TIP3   OH234661   3.110   0.221   4.450
11573TIP3    H134662   3.083   0.303   4.491
11573TIP3    H234663   3.032   0.167   4.451
11574TIP3   OH234664   1.544   3.992   0.760
11574TIP3    H134665   1.530   4.016   0.852
11574TIP3    H234666   1.491   3.913   0.747
11575TIP3   OH234667   5.627   2.691   1.879
11575TIP3    H134668   5.559   2.649   1.827
11575TIP3    H234669   5.637   2.778   1.841
11576TIP3   OH234670   0.556   3.219   0.866
11576TIP3    H134671   0.552   3.312   0.884
11576TIP3    H234672   0.569   3.213   0.771
11577TIP3   OH234673   3.603   2.900   3.363
11577TIP3    H134674   3.528   2.849   3.392
11577TIP3    H234675   3.635   2.854   3.285
11578TIP3   OH234676   5.474   2.197   5.277
11578TIP3    H134677   5.506   2.205   5.367
11578TIP3    H234678   5.542   2.146   5.232
11579TIP3   OH234679   7.941   3.209   2.223
11579TIP3    H134680   7.912   3.144   2.160
11579TIP3    H234681   7.948   3.161   2.306
11580TIP3   OH234682   2.549   7.776   6.527
11580TIP3    H134683   2.514   7.752   6.441
11580TIP3    H234684   2.549   7.694   6.576
11581TIP3   OH234685   4.524   0.887   2.335
11581TIP3    H134686   4.428   0.892   2.331
11581TIP3    H234687   4.541   0.833   2.413
11582TIP3   OH234688   6.388   6.442   3.492
11582TIP3    H134689   6.328   6.489   3.433
11582TIP3    H234690   6.365   6.473   3.579
11583TIP3   OH234691   0.483   3.557   0.583
11583TIP3    H134692   0.464   3.550   0.677
11583TIP3    H234693   0.552   3.624   0.578
11584TIP3   OH234694   6.518   1.753   3.098
11584TIP3    H134695   6.529   1.848   3.094
11584TIP3    H234696   6.468   1.738   3.178
11585TIP3   OH234697   0.556   5.034   2.679
11585TIP3    H134698   0.513   5.001   2.758
11585TIP3    H234699   0.597   4.957   2.640
11586TIP3   OH234700   6.988   6.449   0.634
11586TIP3    H134701   6.936   6.392   0.577
11586TIP3    H234702   6.926   6.515   0.665
11587TIP3   OH234703   6.677   5.353   5.291
11587TIP3    H134704   6.765   5.342   5.256
11587TIP3    H234705   6.620   5.303   5.232
11588TIP3   OH234706   0.315   2.824   0.923
11588TIP3    H134707   0.225   2.794   0.913
11588TIP3    H234708   0.367   2.744   0.923
11589TIP3   OH234709   7.926   6.586   5.245
11589TIP3    H134710   7.863   6.516   5.233
11589TIP3    H234711   7.912   6.616   5.335
11590TIP3   OH234712   5.547   5.093   5.179
11590TIP3    H134713   5.462   5.050   5.182
11590TIP3    H234714   5.526   5.186   5.167
11591TIP3   OH234715   5.603   3.001   4.835
11591TIP3    H134716   5.682   2.991   4.782
11591TIP3    H234717   5.607   2.930   4.899
11592TIP3   OH234718   1.082   5.904   2.747
11592TIP3    H134719   1.059   5.992   2.779
11592TIP3    H234720   1.013   5.883   2.684
11593TIP3   OH234721   8.009   2.752   2.409
11593TIP3    H134722   8.004   2.699   2.330
11593TIP3    H234723   8.020   2.689   2.480
11594TIP3   OH234724   4.005   3.082   4.481
11594TIP3    H134725   4.072   3.026   4.520
11594TIP3    H234726   3.922   3.044   4.511
11595TIP3   OH234727   3.465   3.530   3.273
11595TIP3    H134728   3.420   3.558   3.353
11595TIP3    H234729   3.513   3.451   3.300
11596TIP3   OH234730   5.199   0.961   5.395
11596TIP3    H134731   5.207   1.052   5.367
11596TIP3    H234732   5.286   0.937   5.427
11597TIP3   OH234733   1.372   4.588   2.843
11597TIP3    H134734   1.313   4.634   2.784
11597TIP3    H234735   1.377   4.499   2.807
11598TIP3   OH234736   0.705   3.933   5.186
11598TIP3    H134737   0.674   3.879   5.259
11598TIP3    H234738   0.636   3.925   5.119
11599TIP3   OH234739   2.211   7.520   3.982
11599TIP3    H134740   2.209   7.543   3.890
11599TIP3    H234741   2.119   7.510   4.007
11600TIP3   OH234742   7.597   3.329   5.261
11600TIP3    H134743   7.663   3.355   5.324
11600TIP3    H234744   7.538   3.272   5.310
11601TIP3   OH234745   7.100   6.237   2.615
11601TIP3    H134746   7.094   6.311   2.676
11601TIP3    H234747   7.147   6.169   2.664
11602TIP3   OH234748   4.242   2.866   3.782
11602TIP3    H134749   4.225   2.842   3.872
11602TIP3    H234750   4.299   2.796   3.748
11603TIP3   OH234751   2.625   7.182   6.028
11603TIP3    H134752   2.558   7.119   6.056
11603TIP3    H234753   2.582   7.238   5.964
11604TIP3   OH234754   4.133   0.778   5.054
11604TIP3    H134755   4.078   0.752   5.128
11604TIP3    H234756   4.075   0.828   4.997
11605TIP3   OH234757   6.442   4.955   1.793
11605TIP3    H134758   6.396   5.025   1.839
11605TIP3    H234759   6.495   5.001   1.727
11606TIP3   OH234760   4.857   6.525   2.708
11606TIP3    H134761   4.943   6.497   2.741
11606TIP3    H234762   4.877   6.570   2.626
11607TIP3   OH234763   5.709   3.856   6.580
11607TIP3    H134764   5.645   3.795   6.543
11607TIP3    H234765   5.707   3.931   6.520
11608TIP3   OH234766   2.066   1.995   5.796
11608TIP3    H134767   2.133   2.044   5.747
11608TIP3    H234768   1.983   2.031   5.766
11609TIP3   OH234769   5.741   1.032   4.536
11609TIP3    H134770   5.668   0.984   4.575
11609TIP3    H234771   5.708   1.062   4.451
11610TIP3   OH234772   7.943   7.053   4.312
11610TIP3    H134773   7.971   7.023   4.398
11610TIP3    H234774   8.023   7.053   4.259
11611TIP3   OH234775   4.982   0.602   2.509
11611TIP3    H134776   4.941   0.612   2.595
11611TIP3    H234777   5.047   0.532   2.521
11612TIP3   OH234778   4.816   1.295   0.613
11612TIP3    H134779   4.892   1.257   0.656
11612TIP3    H234780   4.754   1.311   0.684
11613TIP3   OH234781   6.064   7.507   5.957
11613TIP3    H134782   6.118   7.439   5.999
11613TIP3    H234783   5.978   7.497   5.998
11614TIP3   OH234784   5.989   5.172   1.836
11614TIP3    H134785   5.998   5.261   1.803
11614TIP3    H234786   5.899   5.167   1.867
11615TIP3   OH234787   4.497   5.928   0.640
11615TIP3    H134788   4.420   5.984   0.637
11615TIP3    H234789   4.561   5.972   0.585
11616TIP3   OH234790   6.252   1.140   5.738
11616TIP3    H134791   6.304   1.125   5.817
11616TIP3    H234792   6.260   1.234   5.722
11617TIP3   OH234793   1.509   3.426   4.084
11617TIP3    H134794   1.432   3.475   4.054
11617TIP3    H234795   1.485   3.395   4.171
11618TIP3   OH234796   0.334   7.143   3.312
11618TIP3    H134797   0.408   7.088   3.339
11618TIP3    H234798   0.375   7.225   3.282
11619TIP3   OH234799   1.783   7.381   0.141
11619TIP3    H134800   1.773   7.476   0.126
11619TIP3    H234801   1.822   7.348   0.061
11620TIP3   OH234802   6.832   7.699   2.719
11620TIP3    H134803   6.904   7.696   2.657
11620TIP3    H234804   6.871   7.730   2.801
11621TIP3   OH234805   6.668   2.175   6.694
11621TIP3    H134806   6.761   2.182   6.712
11621TIP3    H234807   6.631   2.259   6.721
11622TIP3   OH234808   5.075   4.623   5.657
11622TIP3    H134809   5.093   4.656   5.570
11622TIP3    H234810   5.143   4.557   5.673
11623TIP3   OH234811   8.179   6.250   3.769
11623TIP3    H134812   8.182   6.285   3.680
11623TIP3    H234813   8.095   6.204   3.773
11624TIP3   OH234814   6.485   6.078   5.466
11624TIP3    H134815   6.571   6.055   5.432
11624TIP3    H234816   6.437   6.111   5.389
11625TIP3   OH234817   2.858   7.321   4.766
11625TIP3    H134818   2.770   7.336   4.731
11625TIP3    H234819   2.914   7.314   4.689
11626TIP3   OH234820   2.676   2.043   4.123
11626TIP3    H134821   2.621   2.000   4.058
11626TIP3    H234822   2.765   2.031   4.090
11627TIP3   OH234823   4.677   1.401   2.712
11627TIP3    H134824   4.684   1.315   2.669
11627TIP3    H234825   4.611   1.389   2.780
11628TIP3   OH234826   5.505   5.344   6.245
11628TIP3    H134827   5.503   5.250   6.230
11628TIP3    H234828   5.595   5.362   6.273
11629TIP3   OH234829   4.455   1.882   2.502
11629TIP3    H134830   4.535   1.935   2.507
11629TIP3    H234831   4.407   1.903   2.582
11630TIP3   OH234832   3.206   5.347   5.194
11630TIP3    H134833   3.293   5.309   5.180
11630TIP3    H234834   3.221   5.442   5.194
11631TIP3   OH234835   0.791   2.926   3.552
11631TIP3    H134836   0.734   2.861   3.512
11631TIP3    H234837   0.804   2.894   3.642
11632TIP3   OH234838   7.254   3.077   3.528
11632TIP3    H134839   7.302   3.036   3.600
11632TIP3    H234840   7.322   3.103   3.466
11633TIP3   OH234841   3.991   0.070   1.744
11633TIP3    H134842   3.899   0.097   1.751
11633TIP3    H234843   4.007   0.019   1.823
11634TIP3   OH234844   6.757   3.938   2.884
11634TIP3    H134845   6.708   3.915   2.963
11634TIP3    H234846   6.735   3.869   2.821
11635TIP3   OH234847   2.032   3.878   3.425
11635TIP3    H134848   2.082   3.812   3.378
11635TIP3    H234849   1.951   3.835   3.450
11636TIP3   OH234850   1.334   2.702   4.255
11636TIP3    H134851   1.306   2.793   4.262
11636TIP3    H234852   1.288   2.657   4.325
11637TIP3   OH234853   5.976   2.942   6.171
11637TIP3    H134854   5.990   2.942   6.265
11637TIP3    H234855   5.966   3.034   6.148
11638TIP3   OH234856   4.335   3.656   0.149
11638TIP3    H134857   4.281   3.713   0.204
11638TIP3    H234858   4.353   3.708   0.071
11639TIP3   OH234859   7.764   0.787   3.976
11639TIP3    H134860   7.831   0.804   4.043
11639TIP3    H234861   7.791   0.704   3.936
11640TIP3   OH234862   6.591   3.219   0.374
11640TIP3    H134863   6.659   3.165   0.335
11640TIP3    H234864   6.637   3.296   0.406
11641TIP3   OH234865   1.082   5.503   5.588
11641TIP3    H134866   1.096   5.408   5.590
11641TIP3    H234867   1.087   5.525   5.495
11642TIP3   OH234868   3.371   7.115   5.429
11642TIP3    H134869   3.425   7.041   5.400
11642TIP3    H234870   3.400   7.131   5.519
11643TIP3   OH234871   0.079   1.146   0.414
11643TIP3    H134872   0.029   1.080   0.462
11643TIP3    H234873   0.044   1.230   0.445
11644TIP3   OH234874   1.900   7.030   3.525
11644TIP3    H134875   1.962   7.049   3.596
11644TIP3    H234876   1.815   7.056   3.560
11645TIP3   OH234877   7.513   4.381   4.494
11645TIP3    H134878   7.568   4.452   4.527
11645TIP3    H234879   7.542   4.304   4.543
11646TIP3   OH234880   2.994   2.609   3.340
11646TIP3    H134881   2.917   2.579   3.388
11646TIP3    H234882   3.033   2.676   3.396
11647TIP3   OH234883   8.257   4.895   1.040
11647TIP3    H134884   8.301   4.810   1.034
11647TIP3    H234885   8.200   4.898   0.963
11648TIP3   OH234886   4.144   0.762   2.473
11648TIP3    H134887   4.117   0.773   2.564
11648TIP3    H234888   4.218   0.701   2.477
11649TIP3   OH234889   0.418   2.180   0.573
11649TIP3    H134890   0.365   2.154   0.497
11649TIP3    H234891   0.414   2.275   0.574
11650TIP3   OH234892   1.645   3.456   5.345
11650TIP3    H134893   1.550   3.465   5.355
11650TIP3    H234894   1.659   3.454   5.250
11651TIP3   OH234895   4.140   0.818   3.481
11651TIP3    H134896   4.117   0.741   3.533
11651TIP3    H234897   4.224   0.847   3.517
11652TIP3   OH234898   4.327   2.950   1.759
11652TIP3    H134899   4.401   2.889   1.767
11652TIP3    H234900   4.368   3.035   1.746
11653TIP3   OH234901   2.102   3.410   2.073
11653TIP3    H134902   2.108   3.441   2.163
11653TIP3    H234903   2.015   3.439   2.044
11654TIP3   OH234904   2.541   7.566   5.576
11654TIP3    H134905   2.502   7.485   5.545
11654TIP3    H234906   2.515   7.572   5.667
11655TIP3   OH234907   1.434   5.294   4.418
11655TIP3    H134908   1.359   5.298   4.476
11655TIP3    H234909   1.507   5.329   4.469
11656TIP3   OH234910   7.231   5.230   4.332
11656TIP3    H134911   7.267   5.306   4.285
11656TIP3    H234912   7.140   5.224   4.302
11657TIP3   OH234913   4.648   4.585   6.489
11657TIP3    H134914   4.558   4.552   6.492
11657TIP3    H234915   4.645   4.667   6.537
11658TIP3   OH234916   2.349   1.776   2.264
11658TIP3    H134917   2.299   1.712   2.214
11658TIP3    H234918   2.401   1.822   2.199
11659TIP3   OH234919   2.186   1.499   1.711
11659TIP3    H134920   2.173   1.585   1.673
11659TIP3    H234921   2.101   1.456   1.703
11660TIP3   OH234922   1.852   4.511   5.446
11660TIP3    H134923   1.823   4.594   5.484
11660TIP3    H234924   1.856   4.527   5.352
11661TIP3   OH234925   0.385   0.323   6.551
11661TIP3    H134926   0.386   0.414   6.581
11661TIP3    H234927   0.474   0.306   6.521
11662TIP3   OH234928   3.058   2.567   1.828
11662TIP3    H134929   2.968   2.541   1.846
11662TIP3    H234930   3.099   2.489   1.791
11663TIP3   OH234931   0.439   0.446   2.902
11663TIP3    H134932   0.463   0.354   2.907
11663TIP3    H234933   0.351   0.446   2.865
11664TIP3   OH234934   2.054   3.851   6.142
11664TIP3    H134935   2.050   3.783   6.075
11664TIP3    H234936   2.073   3.931   6.093
11665TIP3   OH234937   0.027   7.255   1.822
11665TIP3    H134938   0.088   7.259   1.896
11665TIP3    H234939   0.084   7.260   1.744
11666TIP3   OH234940   6.970   5.075   1.689
11666TIP3    H134941   6.911   5.039   1.756
11666TIP3    H234942   6.914   5.132   1.636
11667TIP3   OH234943   4.428   2.391   6.473
11667TIP3    H134944   4.443   2.436   6.390
11667TIP3    H234945   4.440   2.459   6.540
11668TIP3   OH234946   3.939   0.966   4.380
11668TIP3    H134947   3.901   0.880   4.367
11668TIP3    H234948   3.871   1.017   4.424
11669TIP3   OH234949   2.129   3.313   0.766
11669TIP3    H134950   2.048   3.309   0.818
11669TIP3    H234951   2.100   3.333   0.678
11670TIP3   OH234952   2.016   1.588   2.360
11670TIP3    H134953   2.007   1.683   2.352
11670TIP3    H234954   1.943   1.552   2.311
11671TIP3   OH234955   3.750   5.778   3.312
11671TIP3    H134956   3.734   5.688   3.285
11671TIP3    H234957   3.813   5.770   3.384
11672TIP3   OH234958   1.818   3.115   3.054
11672TIP3    H134959   1.738   3.159   3.025
11672TIP3    H234960   1.871   3.107   2.974
11673TIP3   OH234961   8.059   3.950   4.959
11673TIP3    H134962   8.014   3.866   4.965
11673TIP3    H234963   8.146   3.934   4.995
11674TIP3   OH234964   3.637   0.404   6.101
11674TIP3    H134965   3.700   0.332   6.112
11674TIP3    H234966   3.619   0.434   6.190
11675TIP3   OH234967   1.022   1.663   1.702
11675TIP3    H134968   1.001   1.672   1.794
11675TIP3    H234969   1.078   1.738   1.681
11676TIP3   OH234970   4.626   4.291   2.086
11676TIP3    H134971   4.717   4.267   2.069
11676TIP3    H234972   4.630   4.350   2.162
11677TIP3   OH234973   0.616   4.626   3.780
11677TIP3    H134974   0.533   4.674   3.778
11677TIP3    H234975   0.591   4.534   3.788
11678TIP3   OH234976   6.943   6.487   2.720
11678TIP3    H134977   6.928   6.550   2.791
11678TIP3    H234978   6.978   6.539   2.648
11679TIP3   OH234979   3.369   6.784   4.258
11679TIP3    H134980   3.329   6.800   4.172
11679TIP3    H234981   3.367   6.688   4.267
11680TIP3   OH234982   3.519   1.964   6.395
11680TIP3    H134983   3.470   1.914   6.331
11680TIP3    H234984   3.469   1.955   6.476
11681TIP3   OH234985   4.873   4.860   1.314
11681TIP3    H134986   4.813   4.858   1.388
11681TIP3    H234987   4.948   4.911   1.345
11682TIP3   OH234988   4.455   3.212   0.570
11682TIP3    H134989   4.529   3.197   0.628
11682TIP3    H234990   4.444   3.128   0.523
11683TIP3   OH234991   1.006   2.455  -0.006
11683TIP3    H134992   1.008   2.446  -0.101
11683TIP3    H234993   1.032   2.546   0.010
11684TIP3   OH234994   6.908   3.048   1.716
11684TIP3    H134995   6.909   3.144   1.719
11684TIP3    H234996   6.943   3.022   1.801
11685TIP3   OH234997   8.192   1.123   1.545
11685TIP3    H134998   8.271   1.082   1.579
11685TIP3    H234999   8.140   1.144   1.622
11686TIP3   OH235000   8.084   1.964   0.354
11686TIP3    H135001   8.143   1.956   0.429
11686TIP3    H235002   8.099   2.053   0.321
11687TIP3   OH235003   1.832   5.779   0.946
11687TIP3    H135004   1.772   5.775   1.021
11687TIP3    H235005   1.796   5.716   0.883
11688TIP3   OH235006   1.250   4.100   0.321
11688TIP3    H135007   1.318   4.122   0.257
11688TIP3    H235008   1.232   4.007   0.306
11689TIP3   OH235009   8.172   3.879   2.424
11689TIP3    H135010   8.116   3.820   2.373
11689TIP3    H235011   8.261   3.858   2.397
11690TIP3   OH235012   1.923   4.890   3.963
11690TIP3    H135013   2.004   4.838   3.966
11690TIP3    H235014   1.855   4.829   3.991
11691TIP3   OH235015   5.667   6.809   4.296
11691TIP3    H135016   5.704   6.725   4.325
11691TIP3    H235017   5.593   6.784   4.242
11692TIP3   OH235018   2.786   0.963   5.599
11692TIP3    H135019   2.802   0.869   5.593
11692TIP3    H235020   2.870   1.004   5.579
11693TIP3   OH235021   7.598   2.233   5.195
11693TIP3    H135022   7.563   2.191   5.274
11693TIP3    H235023   7.687   2.259   5.220
11694TIP3   OH235024   1.131   5.158   0.570
11694TIP3    H135025   1.156   5.140   0.661
11694TIP3    H235026   1.208   5.200   0.532
11695TIP3   OH235027   3.395   3.186   6.508
11695TIP3    H135028   3.485   3.154   6.521
11695TIP3    H235029   3.361   3.132   6.437
11696TIP3   OH235030   6.673   0.375   5.452
11696TIP3    H135031   6.710   0.292   5.482
11696TIP3    H235032   6.716   0.392   5.369
11697TIP3   OH235033   0.650   2.850   1.525
11697TIP3    H135034   0.675   2.767   1.565
11697TIP3    H235035   0.683   2.844   1.435
11698TIP3   OH235036   7.984   5.373   5.530
11698TIP3    H135037   7.993   5.431   5.454
11698TIP3    H235038   8.069   5.380   5.575
11699TIP3   OH235039   2.874   3.680   5.936
11699TIP3    H135040   2.803   3.626   5.968
11699TIP3    H235041   2.861   3.765   5.978
11700TIP3   OH235042   5.460   3.248   4.178
11700TIP3    H135043   5.551   3.238   4.206
11700TIP3    H235044   5.410   3.246   4.260
11701TIP3   OH235045   5.267   6.744   0.503
11701TIP3    H135046   5.309   6.796   0.435
11701TIP3    H235047   5.337   6.721   0.563
11702TIP3   OH235048   1.564   1.169   3.004
11702TIP3    H135049   1.531   1.187   2.916
11702TIP3    H235050   1.618   1.244   3.026
11703TIP3   OH235051   8.314   1.412   6.405
11703TIP3    H135052   8.284   1.476   6.470
11703TIP3    H235053   8.240   1.402   6.346
11704TIP3   OH235054   3.421   1.435   4.932
11704TIP3    H135055   3.403   1.364   4.871
11704TIP3    H235056   3.515   1.427   4.951
11705TIP3   OH235057   0.411   1.981   4.176
11705TIP3    H135058   0.452   1.896   4.191
11705TIP3    H235059   0.395   2.015   4.264
11706TIP3   OH235060   2.907   2.311   3.550
11706TIP3    H135061   2.978   2.347   3.497
11706TIP3    H235062   2.843   2.381   3.555
11707TIP3   OH235063   3.519   5.179   6.116
11707TIP3    H135064   3.594   5.186   6.058
11707TIP3    H235065   3.510   5.085   6.133
11708TIP3   OH235066   3.444   5.909   1.549
11708TIP3    H135067   3.514   5.909   1.483
11708TIP3    H235068   3.368   5.945   1.504
11709TIP3   OH235069   2.880   4.470   5.117
11709TIP3    H135070   2.877   4.548   5.061
11709TIP3    H235071   2.857   4.397   5.059
11710TIP3   OH235072   1.661   1.907   5.458
11710TIP3    H135073   1.728   1.896   5.390
11710TIP3    H235074   1.578   1.903   5.410
11711TIP3   OH235075   5.628   0.101   6.457
11711TIP3    H135076   5.621   0.070   6.547
11711TIP3    H235077   5.576   0.181   6.455
11712TIP3   OH235078   2.976   2.139   0.112
11712TIP3    H135079   3.010   2.078   0.046
11712TIP3    H235080   2.940   2.212   0.061
11713TIP3   OH235081   1.683   2.373   2.816
11713TIP3    H135082   1.734   2.328   2.884
11713TIP3    H235083   1.713   2.334   2.734
11714TIP3   OH235084   4.696   3.712   4.497
11714TIP3    H135085   4.702   3.804   4.470
11714TIP3    H235086   4.786   3.679   4.490
11715TIP3   OH235087   2.883   6.420   2.561
11715TIP3    H135088   2.948   6.486   2.536
11715TIP3    H235089   2.918   6.380   2.640
11716TIP3   OH235090   2.562   4.242   2.771
11716TIP3    H135091   2.600   4.286   2.695
11716TIP3    H235092   2.468   4.254   2.761
11717TIP3   OH235093   5.631   1.574   0.662
11717TIP3    H135094   5.570   1.596   0.592
11717TIP3    H235095   5.626   1.647   0.724
11718TIP3   OH235096   4.852   6.254   5.304
11718TIP3    H135097   4.879   6.210   5.223
11718TIP3    H235098   4.758   6.241   5.308
11719TIP3   OH235099   0.249   2.436   2.035
11719TIP3    H135100   0.247   2.504   1.968
11719TIP3    H235101   0.219   2.357   1.991
11720TIP3   OH235102   2.683   5.208   3.071
11720TIP3    H135103   2.672   5.295   3.033
11720TIP3    H235104   2.767   5.211   3.116
11721TIP3   OH235105   7.749   6.030   0.109
11721TIP3    H135106   7.831   5.981   0.105
11721TIP3    H235107   7.742   6.059   0.201
11722TIP3   OH235108   1.374   2.259   0.498
11722TIP3    H135109   1.394   2.347   0.530
11722TIP3    H235110   1.318   2.273   0.421
11723TIP3   OH235111   5.274   2.845   6.178
11723TIP3    H135112   5.238   2.757   6.194
11723TIP3    H235113   5.353   2.829   6.128
11724TIP3   OH235114   3.801   0.461   0.669
11724TIP3    H135115   3.824   0.463   0.762
11724TIP3    H235116   3.863   0.520   0.627
11725TIP3   OH235117   2.880   0.757   3.247
11725TIP3    H135118   2.879   0.853   3.244
11725TIP3    H235119   2.929   0.732   3.169
11726TIP3   OH235120   2.170   0.925   0.496
11726TIP3    H135121   2.214   0.849   0.534
11726TIP3    H235122   2.145   0.897   0.408
11727TIP3   OH235123   1.972   7.108   1.343
11727TIP3    H135124   1.954   7.200   1.323
11727TIP3    H235125   1.888   7.064   1.332
11728TIP3   OH235126   3.025   4.497   0.056
11728TIP3    H135127   3.013   4.473   0.148
11728TIP3    H235128   2.955   4.451   0.010
11729TIP3   OH235129   7.760   6.060   4.250
11729TIP3    H135130   7.777   6.077   4.158
11729TIP3    H235131   7.790   6.140   4.295
11730TIP3   OH235132   2.406   3.765   2.091
11730TIP3    H135133   2.460   3.694   2.125
11730TIP3    H235134   2.334   3.773   2.155
11731TIP3   OH235135   3.160   0.191   3.547
11731TIP3    H135136   3.224   0.233   3.490
11731TIP3    H235137   3.212   0.131   3.600
11732TIP3   OH235138   3.381   2.573   5.272
11732TIP3    H135139   3.439   2.620   5.212
11732TIP3    H235140   3.345   2.501   5.220
11733TIP3   OH235141   3.293   1.254   3.826
11733TIP3    H135142   3.375   1.302   3.835
11733TIP3    H235143   3.243   1.277   3.904
11734TIP3   OH235144   4.792   3.017   5.996
11734TIP3    H135145   4.829   2.978   5.917
11734TIP3    H235146   4.844   2.981   6.067
11735TIP3   OH235147   6.444   0.076   0.983
11735TIP3    H135148   6.477   0.140   1.047
11735TIP3    H235149   6.522   0.048   0.935
11736TIP3   OH235150   0.181   2.929   2.417
11736TIP3    H135151   0.146   2.851   2.373
11736TIP3    H235152   0.269   2.939   2.382
11737TIP3   OH235153   1.832   0.768   3.848
11737TIP3    H135154   1.883   0.779   3.768
11737TIP3    H235155   1.751   0.817   3.832
11738TIP3   OH235156   3.385   6.824   4.770
11738TIP3    H135157   3.305   6.832   4.718
11738TIP3    H235158   3.455   6.845   4.708
11739TIP3   OH235159   6.153   5.170   5.392
11739TIP3    H135160   6.095   5.209   5.327
11739TIP3    H235161   6.099   5.162   5.471
11740TIP3   OH235162   1.582   7.394   2.420
11740TIP3    H135163   1.674   7.390   2.394
11740TIP3    H235164   1.567   7.311   2.467
11741TIP3   OH235165   6.788   2.931   3.762
11741TIP3    H135166   6.752   2.967   3.843
11741TIP3    H235167   6.751   2.843   3.757
11742TIP3   OH235168   1.935   6.698   0.197
11742TIP3    H135169   1.993   6.770   0.222
11742TIP3    H235170   1.991   6.620   0.201
11743TIP3   OH235171   2.238   0.476   6.226
11743TIP3    H135172   2.269   0.544   6.167
11743TIP3    H235173   2.173   0.519   6.282
11744TIP3   OH235174   7.088   3.910   0.363
11744TIP3    H135175   7.076   3.830   0.312
11744TIP3    H235176   7.032   3.975   0.320
11745TIP3   OH235177   3.419   6.840   3.198
11745TIP3    H135178   3.454   6.861   3.285
11745TIP3    H235179   3.488   6.789   3.156
11746TIP3   OH235180   0.130   7.678   3.524
11746TIP3    H135181   0.083   7.666   3.441
11746TIP3    H235182   0.213   7.719   3.499
11747TIP3   OH235183   3.163   7.414   6.640
11747TIP3    H135184   3.163   7.319   6.643
11747TIP3    H235185   3.156   7.435   6.547
11748TIP3   OH235186   7.496   4.927   4.321
11748TIP3    H135187   7.569   4.867   4.306
11748TIP3    H235188   7.428   4.898   4.261
11749TIP3   OH235189   3.305   6.923   6.374
11749TIP3    H135190   3.289   6.837   6.414
11749TIP3    H235191   3.239   6.929   6.305
11750TIP3   OH235192   6.590   3.299   4.510
11750TIP3    H135193   6.612   3.334   4.423
11750TIP3    H235194   6.667   3.249   4.535
11751TIP3   OH235195   1.189   2.681   1.797
11751TIP3    H135196   1.133   2.706   1.871
11751TIP3    H235197   1.268   2.734   1.808
11752TIP3   OH235198   5.736   4.564   4.142
11752TIP3    H135199   5.737   4.542   4.235
11752TIP3    H235200   5.738   4.659   4.140
11753TIP3   OH235201   3.270   4.173   5.366
11753TIP3    H135202   3.207   4.207   5.302
11753TIP3    H235203   3.290   4.248   5.422
11754TIP3   OH235204   2.452   6.907   3.865
11754TIP3    H135205   2.447   6.813   3.882
11754TIP3    H235206   2.528   6.918   3.809
11755TIP3   OH235207   2.109   6.690   3.619
11755TIP3    H135208   2.203   6.671   3.611
11755TIP3    H235209   2.099   6.779   3.585
11756TIP3   OH235210   0.102   5.331   2.537
11756TIP3    H135211   0.097   5.378   2.620
11756TIP3    H235212   0.177   5.273   2.547
11757TIP3   OH235213   3.134   4.227   2.120
11757TIP3    H135214   3.073   4.244   2.192
11757TIP3    H235215   3.079   4.203   2.046
11758TIP3   OH235216   5.780   0.063   3.231
11758TIP3    H135217   5.797   0.157   3.242
11758TIP3    H235218   5.864   0.021   3.250
11759TIP3   OH235219   2.809   5.121   1.445
11759TIP3    H135220   2.849   5.140   1.361
11759TIP3    H235221   2.881   5.091   1.500
11760TIP3   OH235222   7.028   5.659   3.988
11760TIP3    H135223   7.063   5.685   3.903
11760TIP3    H235224   7.105   5.631   4.038
11761TIP3   OH235225   4.410   6.238   4.955
11761TIP3    H135226   4.342   6.223   5.020
11761TIP3    H235227   4.446   6.324   4.976
11762TIP3   OH235228   3.096   2.114   5.251
11762TIP3    H135229   3.035   2.078   5.186
11762TIP3    H235230   3.134   2.036   5.293
11763TIP3   OH235231   3.978   5.117   6.495
11763TIP3    H135232   3.957   5.187   6.434
11763TIP3    H235233   4.006   5.162   6.575
11764TIP3   OH235234   5.583   3.850   2.746
11764TIP3    H135235   5.488   3.856   2.733
11764TIP3    H235236   5.610   3.776   2.691
11765TIP3   OH235237   7.062   1.458   1.504
11765TIP3    H135238   7.065   1.501   1.418
11765TIP3    H235239   7.019   1.374   1.488
11766TIP3   OH235240   2.250   5.812   5.227
11766TIP3    H135241   2.155   5.816   5.226
11766TIP3    H235242   2.276   5.861   5.305
11767TIP3   OH235243   6.674   7.604   3.675
11767TIP3    H135244   6.611   7.606   3.747
11767TIP3    H235245   6.624   7.566   3.602
11768TIP3   OH235246   2.980   7.540   5.366
11768TIP3    H135247   2.953   7.596   5.439
11768TIP3    H235248   3.052   7.587   5.325
11769TIP3   OH235249   3.177   6.793   3.036
11769TIP3    H135250   3.155   6.869   3.090
11769TIP3    H235251   3.265   6.813   3.002
11770TIP3   OH235252   0.589   2.856   6.324
11770TIP3    H135253   0.573   2.860   6.230
11770TIP3    H235254   0.633   2.772   6.337
11771TIP3   OH235255   2.689   0.452   6.299
11771TIP3    H135256   2.748   0.434   6.372
11771TIP3    H235257   2.682   0.369   6.253
11772TIP3   OH235258   3.045   4.947   5.516
11772TIP3    H135259   3.071   5.008   5.447
11772TIP3    H235260   2.972   4.898   5.477
11773TIP3   OH235261   4.629   3.691   6.172
11773TIP3    H135262   4.590   3.756   6.112
11773TIP3    H235263   4.720   3.684   6.143
11774TIP3   OH235264   3.376   7.431   3.838
11774TIP3    H135265   3.418   7.369   3.778
11774TIP3    H235266   3.378   7.388   3.923
11775TIP3   OH235267   0.375   3.625   4.869
11775TIP3    H135268   0.452   3.600   4.817
11775TIP3    H235269   0.301   3.589   4.820
11776TIP3   OH235270   2.084   6.451   0.515
11776TIP3    H135271   2.111   6.434   0.425
11776TIP3    H235272   1.997   6.411   0.522
11777TIP3   OH235273   0.383   0.747   0.962
11777TIP3    H135274   0.447   0.682   0.932
11777TIP3    H235275   0.367   0.723   1.053
11778TIP3   OH235276   5.554   0.100   0.585
11778TIP3    H135277   5.544   0.035   0.654
11778TIP3    H235278   5.625   0.066   0.530
11779TIP3   OH235279   2.376   3.290   4.804
11779TIP3    H135280   2.320   3.301   4.881
11779TIP3    H235281   2.465   3.282   4.840
11780TIP3   OH235282   2.294   3.551   2.985
11780TIP3    H135283   2.211   3.514   3.017
11780TIP3    H235284   2.352   3.547   3.061
11781TIP3   OH235285   0.682   6.485   6.237
11781TIP3    H135286   0.655   6.460   6.149
11781TIP3    H235287   0.608   6.535   6.272
11782TIP3   OH235288   3.612   3.626   1.964
11782TIP3    H135289   3.534   3.651   1.913
11782TIP3    H235290   3.579   3.611   2.052
11783TIP3   OH235291   4.892   5.780   1.920
11783TIP3    H135292   4.960   5.722   1.954
11783TIP3    H235293   4.934   5.866   1.914
11784TIP3   OH235294   2.069   7.122   2.657
11784TIP3    H135295   2.087   7.097   2.567
11784TIP3    H235296   2.146   7.172   2.684
11785TIP3   OH235297   3.326   1.459   5.185
11785TIP3    H135298   3.345   1.472   5.092
11785TIP3    H235299   3.281   1.539   5.212
11786TIP3   OH235300   1.825   4.078   6.180
11786TIP3    H135301   1.808   4.170   6.197
11786TIP3    H235302   1.887   4.051   6.249
11787TIP3   OH235303   5.850   4.766   1.419
11787TIP3    H135304   5.876   4.797   1.505
11787TIP3    H235305   5.756   4.752   1.425
11788TIP3   OH235306   5.640   0.843   1.994
11788TIP3    H135307   5.589   0.838   2.075
11788TIP3    H235308   5.665   0.935   1.987
11789TIP3   OH235309   8.066   4.039   5.950
11789TIP3    H135310   8.083   4.112   5.890
11789TIP3    H235311   8.025   3.972   5.895
11790TIP3   OH235312   5.366   0.627   5.926
11790TIP3    H135313   5.302   0.674   5.871
11790TIP3    H235314   5.437   0.606   5.866
11791TIP3   OH235315   1.863   6.221   1.673
11791TIP3    H135316   1.932   6.166   1.636
11791TIP3    H235317   1.899   6.309   1.672
11792TIP3   OH235318   6.755   7.066   0.368
11792TIP3    H135319   6.759   7.160   0.353
11792TIP3    H235320   6.706   7.057   0.450
11793TIP3   OH235321   7.239   2.510   0.240
11793TIP3    H135322   7.178   2.450   0.197
11793TIP3    H235323   7.253   2.473   0.327
11794TIP3   OH235324   6.368   4.939   1.023
11794TIP3    H135325   6.409   4.997   0.959
11794TIP3    H235326   6.275   4.961   1.020
11795TIP3   OH235327   0.169   5.281   0.257
11795TIP3    H135328   0.264   5.268   0.254
11795TIP3    H235329   0.132   5.194   0.237
11796TIP3   OH235330   2.331   5.369   4.611
11796TIP3    H135331   2.314   5.305   4.680
11796TIP3    H235332   2.424   5.390   4.621
11797TIP3   OH235333   6.413   4.632   4.947
11797TIP3    H135334   6.492   4.579   4.938
11797TIP3    H235335   6.345   4.581   4.903
11798TIP3   OH235336   5.517   6.932   0.519
11798TIP3    H135337   5.539   6.840   0.529
11798TIP3    H235338   5.466   6.954   0.597
11799TIP3   OH235339   6.860   3.906   5.760
11799TIP3    H135340   6.887   3.993   5.791
11799TIP3    H235341   6.777   3.889   5.805
11800TIP3   OH235342   5.322   3.068   6.675
11800TIP3    H135343   5.409   3.105   6.692
11800TIP3    H235344   5.328   3.033   6.586
11801TIP3   OH235345   2.316   2.900   5.024
11801TIP3    H135346   2.328   2.948   5.105
11801TIP3    H235347   2.389   2.837   5.022
11802TIP3   OH235348   8.006   0.345   2.229
11802TIP3    H135349   8.058   0.333   2.308
11802TIP3    H235350   7.950   0.267   2.225
11803TIP3   OH235351   0.259   2.316   4.885
11803TIP3    H135352   0.166   2.312   4.862
11803TIP3    H235353   0.284   2.225   4.899
11804TIP3   OH235354   6.612   6.152   6.185
11804TIP3    H135355   6.567   6.177   6.266
11804TIP3    H235356   6.583   6.216   6.120
11805TIP3   OH235357   1.132   3.089   1.114
11805TIP3    H135358   1.159   3.009   1.160
11805TIP3    H235359   1.155   3.160   1.174
11806TIP3   OH235360   3.889   4.531   1.237
11806TIP3    H135361   3.915   4.440   1.250
11806TIP3    H235362   3.804   4.525   1.192
11807TIP3   OH235363   6.690   1.854   4.115
11807TIP3    H135364   6.599   1.882   4.109
11807TIP3    H235365   6.738   1.933   4.139
11808TIP3   OH235366   3.407   0.210   4.270
11808TIP3    H135367   3.352   0.287   4.287
11808TIP3    H235368   3.440   0.224   4.181
11809TIP3   OH235369   1.830   2.344   2.363
11809TIP3    H135370   1.763   2.329   2.295
11809TIP3    H235371   1.874   2.424   2.336
11810TIP3   OH235372   4.182   5.606   4.944
11810TIP3    H135373   4.154   5.690   4.980
11810TIP3    H235374   4.118   5.543   4.978
11811TIP3   OH235375   5.193   2.174   4.830
11811TIP3    H135376   5.239   2.250   4.867
11811TIP3    H235377   5.131   2.211   4.767
11812TIP3   OH235378   5.916   3.128   0.581
11812TIP3    H135379   5.997   3.116   0.533
11812TIP3    H235380   5.870   3.044   0.573
11813TIP3   OH235381   5.621   5.893   3.629
11813TIP3    H135382   5.633   5.856   3.716
11813TIP3    H235383   5.555   5.837   3.588
11814TIP3   OH235384   1.605   4.330   0.991
11814TIP3    H135385   1.533   4.354   0.933
11814TIP3    H235386   1.563   4.309   1.074
11815TIP3   OH235387   0.166   4.537   2.905
11815TIP3    H135388   0.132   4.474   2.968
11815TIP3    H235389   0.240   4.579   2.950
11816TIP3   OH235390   2.660   1.948   0.044
11816TIP3    H135391   2.613   2.016   0.092
11816TIP3    H235392   2.607   1.933  -0.034
11817TIP3   OH235393   3.846   7.641   3.896
11817TIP3    H135394   3.850   7.595   3.980
11817TIP3    H235395   3.919   7.605   3.846
11818TIP3   OH235396   2.062   1.360   4.999
11818TIP3    H135397   1.982   1.391   5.042
11818TIP3    H235398   2.060   1.265   5.009
11819TIP3   OH235399   5.004   7.434   2.750
11819TIP3    H135400   4.953   7.513   2.731
11819TIP3    H235401   4.982   7.413   2.841
11820TIP3   OH235402   6.853   3.363   2.793
11820TIP3    H135403   6.815   3.277   2.810
11820TIP3    H235404   6.843   3.410   2.876
11821TIP3   OH235405   5.497   5.235   3.690
11821TIP3    H135406   5.551   5.293   3.635
11821TIP3    H235407   5.407   5.254   3.663
11822TIP3   OH235408   5.206   7.577   5.585
11822TIP3    H135409   5.111   7.566   5.586
11822TIP3    H235410   5.239   7.507   5.642
11823TIP3   OH235411   3.902   2.289   0.399
11823TIP3    H135412   3.814   2.268   0.368
11823TIP3    H235413   3.951   2.207   0.388
11824TIP3   OH235414   1.449   3.481   2.187
11824TIP3    H135415   1.492   3.448   2.108
11824TIP3    H235416   1.521   3.513   2.242
11825TIP3   OH235417   8.144   2.881   3.585
11825TIP3    H135418   8.053   2.889   3.557
11825TIP3    H235419   8.164   2.965   3.626
11826TIP3   OH235420   5.247   7.181   0.865
11826TIP3    H135421   5.321   7.193   0.805
11826TIP3    H235422   5.265   7.097   0.908
11827TIP3   OH235423   7.950   2.272   3.104
11827TIP3    H135424   7.953   2.279   3.199
11827TIP3    H235425   8.033   2.308   3.074
11828TIP3   OH235426   1.743   6.903   6.152
11828TIP3    H135427   1.832   6.939   6.154
11828TIP3    H235428   1.696   6.952   6.219
11829TIP3   OH235429   6.687   4.018   2.143
11829TIP3    H135430   6.774   4.058   2.137
11829TIP3    H235431   6.702   3.936   2.191
11830TIP3   OH235432   4.332   6.320   1.388
11830TIP3    H135433   4.285   6.345   1.467
11830TIP3    H235434   4.385   6.397   1.366
11831TIP3   OH235435   1.392   0.032   5.617
11831TIP3    H135436   1.313   0.067   5.576
11831TIP3    H235437   1.396  -0.059   5.588
11832TIP3   OH235438   0.661   5.715   1.958
11832TIP3    H135439   0.668   5.673   1.872
11832TIP3    H235440   0.751   5.717   1.990
11833TIP3   OH235441   8.247   3.506   0.877
11833TIP3    H135442   8.192   3.584   0.884
11833TIP3    H235443   8.189   3.433   0.900
11834TIP3   OH235444   6.139   4.943   6.772
11834TIP3    H135445   6.123   4.918   6.863
11834TIP3    H235446   6.057   4.922   6.727
11835TIP3   OH235447   3.423   2.198   4.091
11835TIP3    H135448   3.428   2.103   4.088
11835TIP3    H235449   3.502   2.225   4.138
11836TIP3   OH235450   0.791   6.382   1.898
11836TIP3    H135451   0.778   6.320   1.969
11836TIP3    H235452   0.718   6.366   1.838
11837TIP3   OH235453   5.637   6.952   0.923
11837TIP3    H135454   5.715   7.001   0.897
11837TIP3    H235455   5.631   6.965   1.018
11838TIP3   OH235456   7.549   6.526   3.238
11838TIP3    H135457   7.522   6.614   3.268
11838TIP3    H235458   7.521   6.468   3.309
11839TIP3   OH235459   3.220   4.220   2.464
11839TIP3    H135460   3.269   4.170   2.530
11839TIP3    H235461   3.287   4.259   2.409
11840TIP3   OH235462   7.218   6.274   4.111
11840TIP3    H135463   7.224   6.216   4.186
11840TIP3    H235464   7.126   6.272   4.086
11841TIP3   OH235465   4.488   4.221   6.290
11841TIP3    H135466   4.537   4.245   6.369
11841TIP3    H235467   4.533   4.142   6.258
11842TIP3   OH235468   5.458   3.824   3.359
11842TIP3    H135469   5.399   3.768   3.410
11842TIP3    H235470   5.400   3.884   3.312
11843TIP3   OH235471   1.943   0.157   3.301
11843TIP3    H135472   2.011   0.125   3.361
11843TIP3    H235473   1.955   0.105   3.222
11844TIP3   OH235474   1.092   5.233   5.559
11844TIP3    H135475   1.054   5.186   5.484
11844TIP3    H235476   1.111   5.165   5.623
11845TIP3   OH235477   3.277   1.198   2.115
11845TIP3    H135478   3.329   1.255   2.059
11845TIP3    H235479   3.334   1.123   2.133
11846TIP3   OH235480   2.998   1.964   4.819
11846TIP3    H135481   2.973   1.874   4.802
11846TIP3    H235482   3.084   1.958   4.861
11847TIP3   OH235483   3.228   3.651   5.024
11847TIP3    H135484   3.155   3.595   5.049
11847TIP3    H235485   3.229   3.648   4.928
11848TIP3   OH235486   5.447   1.393   0.806
11848TIP3    H135487   5.496   1.435   0.736
11848TIP3    H235488   5.356   1.396   0.777
11849TIP3   OH235489   4.603   0.791   6.756
11849TIP3    H135490   4.689   0.830   6.771
11849TIP3    H235491   4.586   0.805   6.663
11850TIP3   OH235492   7.442   0.412   4.772
11850TIP3    H135493   7.380   0.485   4.775
11850TIP3    H235494   7.441   0.377   4.861
11851TIP3   OH235495   0.469   2.436   5.980
11851TIP3    H135496   0.430   2.355   6.011
11851TIP3    H235497   0.472   2.492   6.058
11852TIP3   OH235498   4.443   2.633   2.883
11852TIP3    H135499   4.526   2.668   2.914
11852TIP3    H235500   4.418   2.568   2.949
11853TIP3   OH235501   7.404   7.031   1.159
11853TIP3    H135502   7.319   7.060   1.125
11853TIP3    H235503   7.458   7.111   1.159
11854TIP3   OH235504   2.244   3.310   5.067
11854TIP3    H135505   2.328   3.302   5.111
11854TIP3    H235506   2.191   3.239   5.103
11855TIP3   OH235507   7.615   2.504   1.701
11855TIP3    H135508   7.596   2.537   1.789
11855TIP3    H235509   7.563   2.560   1.643
11856TIP3   OH235510   2.018   4.398   1.793
11856TIP3    H135511   2.085   4.374   1.858
11856TIP3    H235512   2.020   4.494   1.792
11857TIP3   OH235513   0.142   1.654   5.402
11857TIP3    H135514   0.077   1.587   5.424
11857TIP3    H235515   0.152   1.647   5.307
11858TIP3   OH235516   8.264   7.540   2.861
11858TIP3    H135517   8.169   7.534   2.870
11858TIP3    H235518   8.287   7.622   2.903
11859TIP3   OH235519   5.443   0.280   5.230
11859TIP3    H135520   5.359   0.294   5.273
11859TIP3    H235521   5.486   0.365   5.234
11860TIP3   OH235522   6.804   0.384   1.279
11860TIP3    H135523   6.888   0.398   1.234
11860TIP3    H235524   6.829   0.350   1.365
11861TIP3   OH235525   2.335   2.723   5.495
11861TIP3    H135526   2.386   2.671   5.558
11861TIP3    H235527   2.265   2.762   5.547
11862TIP3   OH235528   3.643   4.193   4.487
11862TIP3    H135529   3.558   4.217   4.524
11862TIP3    H235530   3.655   4.102   4.512
11863TIP3   OH235531   6.314   7.162   6.493
11863TIP3    H135532   6.271   7.079   6.515
11863TIP3    H235533   6.348   7.149   6.405
11864TIP3   OH235534   6.224   6.788   0.985
11864TIP3    H135535   6.133   6.807   1.009
11864TIP3    H235536   6.276   6.833   1.051
11865TIP3   OH235537   3.696   1.067   2.410
11865TIP3    H135538   3.699   0.972   2.413
11865TIP3    H235539   3.786   1.094   2.389
11866TIP3   OH235540   0.365   1.984   0.955
11866TIP3    H135541   0.304   1.911   0.965
11866TIP3    H235542   0.310   2.060   0.936
11867TIP3   OH235543   5.278   5.668   1.373
11867TIP3    H135544   5.311   5.754   1.348
11867TIP3    H235545   5.336   5.639   1.443
11868TIP3   OH235546   3.833   0.208   3.724
11868TIP3    H135547   3.923   0.225   3.754
11868TIP3    H235548   3.845   0.169   3.637
11869TIP3   OH235549   6.424   3.076   5.837
11869TIP3    H135550   6.493   3.104   5.898
11869TIP3    H235551   6.349   3.056   5.893
11870TIP3   OH235552   3.636   4.191   2.783
11870TIP3    H135553   3.673   4.254   2.721
11870TIP3    H235554   3.709   4.135   2.808
11871TIP3   OH235555   0.588   4.690   1.941
11871TIP3    H135556   0.526   4.665   1.872
11871TIP3    H235557   0.543   4.761   1.988
11872TIP3   OH235558   2.364   4.307   3.368
11872TIP3    H135559   2.451   4.322   3.404
11872TIP3    H235560   2.304   4.330   3.439
11873TIP3   OH235561   4.637   1.803   3.070
11873TIP3    H135562   4.704   1.872   3.065
11873TIP3    H235563   4.624   1.789   3.164
11874TIP3   OH235564   2.740   5.332   2.480
11874TIP3    H135565   2.779   5.377   2.405
11874TIP3    H235566   2.647   5.324   2.459
11875TIP3   OH235567   2.097   7.170   2.033
11875TIP3    H135568   2.018   7.135   2.075
11875TIP3    H235569   2.149   7.093   2.011
11876TIP3   OH235570   7.171   4.119   5.575
11876TIP3    H135571   7.191   4.211   5.596
11876TIP3    H235572   7.077   4.119   5.555
11877TIP3   OH235573   5.521   4.690   0.276
11877TIP3    H135574   5.448   4.636   0.245
11877TIP3    H235575   5.480   4.763   0.321
11878TIP3   OH235576   6.617   6.192   4.994
11878TIP3    H135577   6.633   6.118   4.935
11878TIP3    H235578   6.596   6.265   4.936
11879TIP3   OH235579   1.791   2.980   6.498
11879TIP3    H135580   1.881   3.013   6.509
11879TIP3    H235581   1.795   2.889   6.526
11880TIP3   OH235582   1.895   1.842   1.335
11880TIP3    H135583   1.821   1.857   1.276
11880TIP3    H235584   1.930   1.930   1.351
11881TIP3   OH235585   0.192   5.505   0.967
11881TIP3    H135586   0.268   5.552   0.933
11881TIP3    H235587   0.175   5.437   0.902
11882TIP3   OH235588   4.544   1.953   5.724
11882TIP3    H135589   4.500   2.016   5.781
11882TIP3    H235590   4.477   1.889   5.701
11883TIP3   OH235591   2.934   7.043   3.393
11883TIP3    H135592   2.916   7.058   3.486
11883TIP3    H235593   2.888   6.962   3.372
11884TIP3   OH235594   1.401   2.609   2.844
11884TIP3    H135595   1.472   2.563   2.889
11884TIP3    H235596   1.351   2.540   2.801
11885TIP3   OH235597   7.607   6.832   5.247
11885TIP3    H135598   7.512   6.826   5.237
11885TIP3    H235599   7.627   6.774   5.320
11886TIP3   OH235600   5.609   2.774   2.610
11886TIP3    H135601   5.592   2.868   2.605
11886TIP3    H235602   5.629   2.748   2.521
11887TIP3   OH235603   3.926   1.182   4.149
11887TIP3    H135604   3.995   1.134   4.195
11887TIP3    H235605   3.875   1.115   4.106
11888TIP3   OH235606   2.194   2.843   1.629
11888TIP3    H135607   2.209   2.917   1.569
11888TIP3    H235608   2.138   2.879   1.698
11889TIP3   OH235609   5.933   5.579   2.793
11889TIP3    H135610   5.920   5.623   2.877
11889TIP3    H235611   5.907   5.489   2.809
11890TIP3   OH235612   5.084   7.408   6.528
11890TIP3    H135613   5.076   7.312   6.524
11890TIP3    H235614   5.093   7.428   6.621
11891TIP3   OH235615   0.449   3.736   2.449
11891TIP3    H135616   0.420   3.663   2.505
11891TIP3    H235617   0.536   3.759   2.482
11892TIP3   OH235618   2.331   5.984   5.023
11892TIP3    H135619   2.419   5.979   5.059
11892TIP3    H235620   2.283   6.038   5.086
11893TIP3   OH235621   2.004   3.762   5.296
11893TIP3    H135622   2.086   3.795   5.331
11893TIP3    H235623   1.963   3.837   5.253
11894TIP3   OH235624   3.455   7.422   3.418
11894TIP3    H135625   3.527   7.429   3.355
11894TIP3    H235626   3.460   7.502   3.469
11895TIP3   OH235627   7.075   7.826   4.515
11895TIP3    H135628   7.159   7.783   4.530
11895TIP3    H235629   7.010   7.767   4.555
11896TIP3   OH235630   6.642   7.557   5.698
11896TIP3    H135631   6.650   7.519   5.610
11896TIP3    H235632   6.713   7.518   5.748
11897TIP3   OH235633   4.873   4.616   4.560
11897TIP3    H135634   4.901   4.634   4.650
11897TIP3    H235635   4.820   4.536   4.566
11898TIP3   OH235636   2.310   6.660   3.384
11898TIP3    H135637   2.269   6.674   3.299
11898TIP3    H235638   2.326   6.748   3.418
11899TIP3   OH235639   6.311   3.893   2.005
11899TIP3    H135640   6.395   3.898   1.960
11899TIP3    H235641   6.267   3.817   1.966
11900TIP3   OH235642   4.243   3.175   4.013
11900TIP3    H135643   4.198   3.260   4.017
11900TIP3    H235644   4.173   3.112   3.997
11901TIP3   OH235645   6.594   2.621   1.657
11901TIP3    H135646   6.547   2.695   1.619
11901TIP3    H235647   6.554   2.609   1.743
11902TIP3   OH235648   6.754   3.721   4.341
11902TIP3    H135649   6.839   3.711   4.298
11902TIP3    H235650   6.754   3.811   4.373
11903TIP3   OH235651   0.926   6.131   0.416
11903TIP3    H135652   0.933   6.207   0.474
11903TIP3    H235653   0.923   6.056   0.475
11904TIP3   OH235654   1.708   5.973   6.558
11904TIP3    H135655   1.709   5.988   6.653
11904TIP3    H235656   1.637   6.029   6.526
11905TIP3   OH235657   1.293   6.764   6.094
11905TIP3    H135658   1.215   6.775   6.040
11905TIP3    H235659   1.295   6.842   6.149
11906TIP3   OH235660   1.818   1.496   2.158
11906TIP3    H135661   1.790   1.414   2.117
11906TIP3    H235662   1.737   1.535   2.192
11907TIP3   OH235663   0.886   0.236   3.478
11907TIP3    H135664   0.922   0.152   3.506
11907TIP3    H235665   0.795   0.217   3.454
11908TIP3   OH235666   5.297   2.630   0.956
11908TIP3    H135667   5.262   2.546   0.927
11908TIP3    H235668   5.221   2.687   0.963
11909TIP3   OH235669   3.092   4.448   0.308
11909TIP3    H135670   3.126   4.502   0.379
11909TIP3    H235671   3.167   4.435   0.250
11910TIP3   OH235672   5.651   1.625   4.687
11910TIP3    H135673   5.703   1.655   4.762
11910TIP3    H235674   5.623   1.537   4.711
11911TIP3   OH235675   4.220   7.075   5.341
11911TIP3    H135676   4.143   7.025   5.367
11911TIP3    H235677   4.293   7.014   5.353
11912TIP3   OH235678   0.579   5.449   3.905
11912TIP3    H135679   0.649   5.427   3.967
11912TIP3    H235680   0.558   5.540   3.924
11913TIP3   OH235681   6.568   2.914   2.206
11913TIP3    H135682   6.656   2.894   2.173
11913TIP3    H235683   6.513   2.918   2.128
11914TIP3   OH235684   7.861   0.155   0.040
11914TIP3    H135685   7.777   0.168   0.083
11914TIP3    H235686   7.903   0.084   0.089
11915TIP3   OH235687   3.466   3.215   3.328
11915TIP3    H135688   3.411   3.206   3.251
11915TIP3    H235689   3.414   3.177   3.399
11916TIP3   OH235690   0.385   0.017   3.532
11916TIP3    H135691   0.381   0.111   3.519
11916TIP3    H235692   0.451   0.005   3.601
11917TIP3   OH235693   7.213   3.438   6.101
11917TIP3    H135694   7.245   3.352   6.129
11917TIP3    H235695   7.132   3.418   6.053
11918TIP3   OH235696   4.601   1.886   1.941
11918TIP3    H135697   4.637   1.833   2.011
11918TIP3    H235698   4.594   1.826   1.866
11919TIP3   OH235699   4.780   3.018   4.100
11919TIP3    H135700   4.729   2.962   4.158
11919TIP3    H235701   4.738   3.103   4.106
11920TIP3   OH235702   6.631   2.570   4.592
11920TIP3    H135703   6.537   2.559   4.608
11920TIP3    H235704   6.671   2.491   4.628
11921TIP3   OH235705   1.368   4.150   2.923
11921TIP3    H135706   1.418   4.217   2.968
11921TIP3    H235707   1.304   4.121   2.987
11922TIP3   OH235708   1.614   5.226   5.983
11922TIP3    H135709   1.537   5.273   5.950
11922TIP3    H235710   1.660   5.196   5.905
11923TIP3   OH235711   8.090   6.040   4.878
11923TIP3    H135712   8.057   6.080   4.958
11923TIP3    H235713   8.111   6.113   4.821
11924TIP3   OH235714   5.631   7.256   1.805
11924TIP3    H135715   5.552   7.256   1.859
11924TIP3    H235716   5.657   7.348   1.800
11925TIP3   OH235717   1.015   0.907   2.463
11925TIP3    H135718   1.089   0.848   2.480
11925TIP3    H235719   1.054   0.994   2.463
11926TIP3   OH235720   0.749   1.345   4.799
11926TIP3    H135721   0.815   1.313   4.737
11926TIP3    H235722   0.790   1.335   4.885
11927TIP3   OH235723   5.519   2.121   6.268
11927TIP3    H135724   5.478   2.185   6.325
11927TIP3    H235725   5.447   2.082   6.219
11928TIP3   OH235726   3.962   5.157   1.510
11928TIP3    H135727   3.942   5.083   1.567
11928TIP3    H235728   4.018   5.120   1.442
11929TIP3   OH235729   6.338   6.944   4.637
11929TIP3    H135730   6.316   6.982   4.722
11929TIP3    H235731   6.434   6.945   4.635
11930TIP3   OH235732   0.624   5.544   6.325
11930TIP3    H135733   0.636   5.479   6.393
11930TIP3    H235734   0.574   5.499   6.257
11931TIP3   OH235735   3.582   5.547   2.816
11931TIP3    H135736   3.591   5.635   2.780
11931TIP3    H235737   3.566   5.562   2.909
11932TIP3   OH235738   5.972   7.151   6.006
11932TIP3    H135739   5.890   7.187   5.971
11932TIP3    H235740   6.041   7.198   5.959
11933TIP3   OH235741   0.765   5.505   4.105
11933TIP3    H135742   0.831   5.572   4.123
11933TIP3    H235743   0.693   5.526   4.164
11934TIP3   OH235744   0.379   0.681   3.585
11934TIP3    H135745   0.418   0.767   3.567
11934TIP3    H235746   0.316   0.668   3.514
11935TIP3   OH235747   3.766   1.333   1.209
11935TIP3    H135748   3.765   1.237   1.212
11935TIP3    H235749   3.676   1.359   1.228
11936TIP3   OH235750   8.157   5.863   2.883
11936TIP3    H135751   8.203   5.800   2.938
11936TIP3    H235752   8.173   5.947   2.925
11937TIP3   OH235753   7.771   1.253   2.238
11937TIP3    H135754   7.733   1.224   2.155
11937TIP3    H235755   7.697   1.279   2.292
11938TIP3   OH235756   7.317   0.810   6.512
11938TIP3    H135757   7.241   0.754   6.496
11938TIP3    H235758   7.344   0.789   6.602
11939TIP3   OH235759   0.147   7.650   0.354
11939TIP3    H135760   0.194   7.568   0.369
11939TIP3    H235761   0.122   7.648   0.262
11940TIP3   OH235762   6.176   4.283   5.840
11940TIP3    H135763   6.087   4.249   5.857
11940TIP3    H235764   6.216   4.216   5.784
11941TIP3   OH235765   3.091   7.491   3.309
11941TIP3    H135766   3.011   7.483   3.257
11941TIP3    H235767   3.133   7.571   3.277
11942TIP3   OH235768   2.769   6.611   0.783
11942TIP3    H135769   2.715   6.568   0.850
11942TIP3    H235770   2.779   6.700   0.815
11943TIP3   OH235771   7.380   1.843   5.866
11943TIP3    H135772   7.466   1.819   5.832
11943TIP3    H235773   7.391   1.933   5.897
11944TIP3   OH235774   6.015   4.357   1.058
11944TIP3    H135775   6.068   4.284   1.091
11944TIP3    H235776   6.072   4.399   0.993
11945TIP3   OH235777   0.021   2.686   0.748
11945TIP3    H135778  -0.027   2.649   0.822
11945TIP3    H235779   0.039   2.776   0.773
11946TIP3   OH235780   2.871   4.161   2.686
11946TIP3    H135781   2.825   4.241   2.660
11946TIP3    H235782   2.961   4.190   2.702
11947TIP3   OH235783   0.617   3.935   5.890
11947TIP3    H135784   0.698   3.972   5.856
11947TIP3    H235785   0.592   3.993   5.961
11948TIP3   OH235786   1.815   5.516   3.894
11948TIP3    H135787   1.729   5.548   3.867
11948TIP3    H235788   1.839   5.572   3.968
11949TIP3   OH235789   3.320   2.095   2.129
11949TIP3    H135790   3.397   2.049   2.095
11949TIP3    H235791   3.347   2.186   2.135
11950TIP3   OH235792   5.672   3.319   2.026
11950TIP3    H135793   5.628   3.344   2.108
11950TIP3    H235794   5.602   3.312   1.962
11951TIP3   OH235795   6.883   0.754   5.399
11951TIP3    H135796   6.925   0.680   5.356
11951TIP3    H235797   6.915   0.831   5.353
11952TIP3   OH235798   2.250   6.349   3.406
11952TIP3    H135799   2.230   6.438   3.435
11952TIP3    H235800   2.281   6.360   3.316
11953TIP3   OH235801   1.800   2.249   3.030
11953TIP3    H135802   1.779   2.157   3.015
11953TIP3    H235803   1.887   2.248   3.069
11954TIP3   OH235804   0.042   2.300   3.791
11954TIP3    H135805   0.070   2.239   3.722
11954TIP3    H235806   0.041   2.247   3.871
11955TIP3   OH235807   6.554   1.461   6.121
11955TIP3    H135808   6.579   1.373   6.149
11955TIP3    H235809   6.629   1.515   6.144
11956TIP3   OH235810   0.176   4.429   5.096
11956TIP3    H135811   0.229   4.508   5.099
11956TIP3    H235812   0.216   4.370   5.159
11957TIP3   OH235813   1.846   7.626   1.355
11957TIP3    H135814   1.895   7.677   1.419
11957TIP3    H235815   1.839   7.684   1.278
11958TIP3   OH235816   2.341   2.182   4.239
11958TIP3    H135817   2.429   2.213   4.217
11958TIP3    H235818   2.336   2.094   4.202
11959TIP3   OH235819   4.281   3.719   6.534
11959TIP3    H135820   4.208   3.706   6.595
11959TIP3    H235821   4.307   3.810   6.546
11960TIP3   OH235822   3.676   7.797   5.116
11960TIP3    H135823   3.602   7.857   5.113
11960TIP3    H235824   3.652   7.730   5.180
11961TIP3   OH235825   6.903   7.556   0.593
11961TIP3    H135826   6.863   7.628   0.545
11961TIP3    H235827   6.835   7.525   0.653
11962TIP3   OH235828   6.287   3.061   4.883
11962TIP3    H135829   6.208   3.088   4.931
11962TIP3    H235830   6.347   3.032   4.951
11963TIP3   OH235831   3.614   4.094   6.576
11963TIP3    H135832   3.630   4.011   6.531
11963TIP3    H235833   3.590   4.155   6.506
11964TIP3   OH235834   2.171   6.427   5.065
11964TIP3    H135835   2.160   6.475   4.982
11964TIP3    H235836   2.265   6.429   5.081
11965TIP3   OH235837   7.920   5.813   4.290
11965TIP3    H135838   8.005   5.818   4.247
11965TIP3    H235839   7.876   5.894   4.265
11966TIP3   OH235840   0.845   0.286   2.004
11966TIP3    H135841   0.839   0.380   2.019
11966TIP3    H235842   0.777   0.248   2.060
11967TIP3   OH235843   2.979   3.999   5.575
11967TIP3    H135844   2.885   4.012   5.583
11967TIP3    H235845   2.988   3.920   5.521
11968TIP3   OH235846   3.088   4.185   4.173
11968TIP3    H135847   3.056   4.246   4.106
11968TIP3    H235848   3.180   4.172   4.151
11969TIP3   OH235849   3.480   5.622   3.999
11969TIP3    H135850   3.518   5.646   4.084
11969TIP3    H235851   3.409   5.561   4.021
11970TIP3   OH235852   2.617   4.904   3.486
11970TIP3    H135853   2.526   4.930   3.496
11970TIP3    H235854   2.661   4.982   3.452
11971TIP3   OH235855   6.171   5.025   5.928
11971TIP3    H135856   6.199   4.938   5.955
11971TIP3    H235857   6.189   5.081   6.004
11972TIP3   OH235858   4.416   0.367   5.636
11972TIP3    H135859   4.496   0.388   5.588
11972TIP3    H235860   4.359   0.325   5.571
11973TIP3   OH235861   1.053   5.016   3.237
11973TIP3    H135862   1.044   5.088   3.175
11973TIP3    H235863   1.033   5.055   3.322
11974TIP3   OH235864   3.124   5.872   5.415
11974TIP3    H135865   3.200   5.858   5.359
11974TIP3    H235866   3.158   5.916   5.493
11975TIP3   OH235867   0.800   0.301   0.043
11975TIP3    H135868   0.767   0.227   0.094
11975TIP3    H235869   0.829   0.262  -0.039
11976TIP3   OH235870   0.617   6.034   1.925
11976TIP3    H135871   0.658   6.080   1.998
11976TIP3    H235872   0.677   6.048   1.851
11977TIP3   OH235873   3.645   4.182   2.332
11977TIP3    H135874   3.708   4.166   2.403
11977TIP3    H235875   3.608   4.268   2.353
11978TIP3   OH235876   7.704   2.361   0.049
11978TIP3    H135877   7.717   2.389  -0.041
11978TIP3    H235878   7.734   2.435   0.102
11979TIP3   OH235879   0.897   2.546   3.040
11979TIP3    H135880   0.879   2.454   3.023
11979TIP3    H235881   0.905   2.552   3.135
11980TIP3   OH235882   0.910   4.166   3.423
11980TIP3    H135883   0.976   4.098   3.405
11980TIP3    H235884   0.958   4.236   3.466
11981TIP3   OH235885   3.026   3.834   1.671
11981TIP3    H135886   3.016   3.761   1.731
11981TIP3    H235887   3.112   3.871   1.691
11982TIP3   OH235888   8.056   0.302   1.938
11982TIP3    H135889   8.067   0.321   2.031
11982TIP3    H235890   7.964   0.278   1.928
11983TIP3   OH235891   2.430   2.183   5.010
11983TIP3    H135892   2.392   2.120   5.072
11983TIP3    H235893   2.519   2.151   4.996
11984TIP3   OH235894   2.652   5.925   1.602
11984TIP3    H135895   2.566   5.908   1.641
11984TIP3    H235896   2.692   5.991   1.660
11985TIP3   OH235897   3.072   3.797   3.060
11985TIP3    H135898   3.114   3.721   3.101
11985TIP3    H235899   2.982   3.768   3.043
11986TIP3   OH235900   0.612   7.244   6.015
11986TIP3    H135901   0.562   7.325   6.029
11986TIP3    H235902   0.575   7.206   5.936
11987TIP3   OH235903   0.425   2.163   3.973
11987TIP3    H135904   0.426   2.090   4.035
11987TIP3    H235905   0.336   2.199   3.980
11988TIP3   OH235906   2.336   0.416   3.915
11988TIP3    H135907   2.256   0.433   3.866
11988TIP3    H235908   2.322   0.457   4.000
11989TIP3   OH235909   0.274   4.194   0.418
11989TIP3    H135910   0.333   4.118   0.410
11989TIP3    H235911   0.208   4.166   0.481
11990TIP3   OH235912   1.503   7.817   5.277
11990TIP3    H135913   1.481   7.842   5.187
11990TIP3    H235914   1.423   7.835   5.327
11991TIP3   OH235915   1.979   6.589   3.825
11991TIP3    H135916   2.027   6.635   3.757
11991TIP3    H235917   2.043   6.529   3.864
11992TIP3   OH235918   1.815   7.516   3.308
11992TIP3    H135919   1.841   7.452   3.374
11992TIP3    H235920   1.725   7.538   3.330
11993TIP3   OH235921   7.290   3.234   1.897
11993TIP3    H135922   7.346   3.304   1.861
11993TIP3    H235923   7.242   3.276   1.968
11994TIP3   OH235924   1.052   2.390   1.696
11994TIP3    H135925   0.965   2.430   1.698
11994TIP3    H235926   1.055   2.345   1.611
11995TIP3   OH235927   2.017   6.843   2.241
11995TIP3    H135928   2.092   6.824   2.298
11995TIP3    H235929   1.953   6.884   2.299
11996TIP3   OH235930   6.792   0.793   6.548
11996TIP3    H135931   6.702   0.780   6.578
11996TIP3    H235932   6.805   0.887   6.555
11997TIP3   OH235933   1.008   2.188   0.828
11997TIP3    H135934   1.006   2.231   0.743
11997TIP3    H235935   1.026   2.258   0.891
11998TIP3   OH235936   1.861   5.418   4.960
11998TIP3    H135937   1.846   5.451   5.048
11998TIP3    H235938   1.943   5.370   4.966
11999TIP3   OH235939   2.850   3.924   6.066
11999TIP3    H135940   2.835   3.989   5.997
11999TIP3    H235941   2.784   3.943   6.132
12000TIP3   OH235942   6.107   1.758   4.579
12000TIP3    H135943   6.167   1.709   4.636
12000TIP3    H235944   6.134   1.849   4.588
12001TIP3   OH235945   8.081   5.050   4.060
12001TIP3    H135946   8.171   5.083   4.067
12001TIP3    H235947   8.039   5.077   4.141
12002TIP3   OH235948   0.505   0.634  -0.096
12002TIP3    H135949   0.468   0.547  -0.083
12002TIP3    H235950   0.585   0.634  -0.043
12003TIP3   OH235951   8.246   7.113   5.647
12003TIP3    H135952   8.244   7.191   5.703
12003TIP3    H235953   8.314   7.132   5.582
12004TIP3   OH235954   5.589   0.529   4.165
12004TIP3    H135955   5.609   0.594   4.233
12004TIP3    H235956   5.661   0.537   4.102
12005TIP3   OH235957   2.216   1.704   4.557
12005TIP3    H135958   2.210   1.780   4.499
12005TIP3    H235959   2.211   1.741   4.645
12006TIP3   OH235960   1.360   4.868   2.714
12006TIP3    H135961   1.280   4.877   2.767
12006TIP3    H235962   1.348   4.786   2.665
12007TIP3   OH235963   1.452   0.712   5.597
12007TIP3    H135964   1.408   0.786   5.555
12007TIP3    H235965   1.470   0.652   5.524
12008TIP3   OH235966   6.853   4.430   5.113
12008TIP3    H135967   6.821   4.483   5.186
12008TIP3    H235968   6.887   4.495   5.051
12009TIP3   OH235969   4.153   2.086   5.231
12009TIP3    H135970   4.129   2.156   5.292
12009TIP3    H235971   4.240   2.059   5.259
12010TIP3   OH235972   1.396   3.049   0.636
12010TIP3    H135973   1.452   3.094   0.699
12010TIP3    H235974   1.311   3.044   0.679
12011TIP3   OH235975   6.820   4.311   3.013
12011TIP3    H135976   6.816   4.344   2.923
12011TIP3    H235977   6.871   4.231   3.007
12012TIP3   OH235978   3.361   6.279   5.955
12012TIP3    H135979   3.418   6.204   5.971
12012TIP3    H235980   3.315   6.257   5.874
12013TIP3   OH235981   5.729   6.942   4.521
12013TIP3    H135982   5.734   6.902   4.434
12013TIP3    H235983   5.640   6.925   4.551
12014TIP3   OH235984   2.507   1.463   4.504
12014TIP3    H135985   2.509   1.461   4.600
12014TIP3    H235986   2.414   1.475   4.483
12015TIP3   OH235987   4.209   5.404   5.366
12015TIP3    H135988   4.197   5.481   5.422
12015TIP3    H235989   4.208   5.330   5.427
12016TIP3   OH235990   6.946   2.557   3.245
12016TIP3    H135991   6.963   2.554   3.151
12016TIP3    H235992   6.851   2.549   3.253
12017TIP3   OH235993   7.538   0.830   2.113
12017TIP3    H135994   7.587   0.895   2.062
12017TIP3    H235995   7.568   0.843   2.203
12018TIP3   OH235996   2.982   7.221   5.507
12018TIP3    H135997   2.937   7.280   5.447
12018TIP3    H235998   2.912   7.184   5.561
12019TIP3   OH235999   4.292   1.882   0.472
12019TIP3    H136000   4.207   1.925   0.477
12019TIP3    H236001   4.299   1.833   0.554
12020TIP3   OH236002   5.028   3.791   1.977
12020TIP3    H136003   5.118   3.820   1.987
12020TIP3    H236004   5.006   3.750   2.060
12021TIP3   OH236005   6.376   5.087   1.339
12021TIP3    H136006   6.419   5.138   1.271
12021TIP3    H236007   6.435   5.092   1.414
12022TIP3   OH236008   8.002   0.715   6.720
12022TIP3    H136009   7.990   0.784   6.654
12022TIP3    H236010   7.971   0.755   6.801
12023TIP3   OH236011   0.798   0.595   6.669
12023TIP3    H136012   0.853   0.582   6.746
12023TIP3    H236013   0.758   0.681   6.682
12024TIP3   OH236014   7.199   6.973   5.207
12024TIP3    H136015   7.158   6.952   5.292
12024TIP3    H236016   7.276   6.917   5.204
12025TIP3   OH236017   0.902   6.159   6.155
12025TIP3    H136018   0.936   6.111   6.231
12025TIP3    H236019   0.963   6.232   6.143
12026TIP3   OH236020   3.187   4.803   2.918
12026TIP3    H136021   3.099   4.825   2.948
12026TIP3    H236022   3.245   4.829   2.990
12027TIP3   OH236023   5.452   5.693   2.860
12027TIP3    H136024   5.408   5.767   2.819
12027TIP3    H236025   5.507   5.656   2.791
12028TIP3   OH236026   0.220   0.309   2.012
12028TIP3    H136027   0.222   0.337   2.104
12028TIP3    H236028   0.237   0.215   2.014
12029TIP3   OH236029   4.820   5.563   2.366
12029TIP3    H136030   4.764   5.638   2.384
12029TIP3    H236031   4.770   5.488   2.397
12030TIP3   OH236032   4.142   6.250   3.148
12030TIP3    H136033   4.054   6.225   3.117
12030TIP3    H236034   4.197   6.246   3.070
12031TIP3   OH236035   3.340   0.602   6.578
12031TIP3    H136036   3.333   0.509   6.597
12031TIP3    H236037   3.249   0.634   6.578
12032TIP3   OH236038   4.088   4.070   3.026
12032TIP3    H136039   4.131   4.126   3.091
12032TIP3    H236040   4.088   3.983   3.066
12033TIP3   OH236041   0.310   6.400   6.681
12033TIP3    H136042   0.391   6.356   6.659
12033TIP3    H236043   0.262   6.405   6.599
12034TIP3   OH236044   6.548   1.893   1.508
12034TIP3    H136045   6.588   1.844   1.436
12034TIP3    H236046   6.454   1.884   1.493
12035TIP3   OH236047   2.474   1.266   5.466
12035TIP3    H136048   2.519   1.350   5.480
12035TIP3    H236049   2.544   1.201   5.468
12036TIP3   OH236050   7.697   1.285   2.706
12036TIP3    H136051   7.713   1.367   2.660
12036TIP3    H236052   7.682   1.311   2.797
12037TIP3   OH236053   5.856   3.851   1.028
12037TIP3    H136054   5.857   3.869   1.122
12037TIP3    H236055   5.941   3.884   0.997
12038TIP3   OH236056   1.693   7.325   0.838
12038TIP3    H136057   1.620   7.285   0.886
12038TIP3    H236058   1.667   7.321   0.746
12039TIP3   OH236059   7.885   3.738   6.623
12039TIP3    H136060   7.964   3.774   6.663
12039TIP3    H236061   7.875   3.652   6.664
12040TIP3   OH236062   0.635   2.348   6.235
12040TIP3    H136063   0.610   2.255   6.234
12040TIP3    H236064   0.569   2.389   6.291
12041TIP3   OH236065   1.857   5.959   4.139
12041TIP3    H136066   1.950   5.947   4.121
12041TIP3    H236067   1.835   6.043   4.100
12042TIP3   OH236068   8.021   1.459   1.803
12042TIP3    H136069   7.931   1.438   1.781
12042TIP3    H236070   8.018   1.485   1.895
12043TIP3   OH236071   7.594   0.184   5.875
12043TIP3    H136072   7.618   0.124   5.804
12043TIP3    H236073   7.584   0.128   5.951
12044TIP3   OH236074   7.825   2.006   0.324
12044TIP3    H136075   7.915   1.983   0.345
12044TIP3    H236076   7.807   2.083   0.377
12045TIP3   OH236077   2.783   0.427   1.542
12045TIP3    H136078   2.756   0.337   1.564
12045TIP3    H236079   2.850   0.448   1.606
12046TIP3   OH236080   0.435   0.363   5.361
12046TIP3    H136081   0.413   0.290   5.419
12046TIP3    H236082   0.354   0.413   5.352
12047TIP3   OH236083   7.694   0.511   2.332
12047TIP3    H136084   7.778   0.530   2.374
12047TIP3    H236085   7.657   0.440   2.384
12048TIP3   OH236086   3.234   7.425   5.974
12048TIP3    H136087   3.197   7.382   6.051
12048TIP3    H236088   3.163   7.481   5.941
12049TIP3   OH236089   6.608   6.203   6.776
12049TIP3    H136090   6.587   6.112   6.798
12049TIP3    H236091   6.689   6.197   6.724
12050TIP3   OH236092   3.397   6.189   5.091
12050TIP3    H136093   3.332   6.181   5.161
12050TIP3    H236094   3.363   6.261   5.036
12051TIP3   OH236095   4.500   5.104   1.383
12051TIP3    H136096   4.419   5.065   1.350
12051TIP3    H236097   4.490   5.198   1.369
12052TIP3   OH236098   4.475   4.621   0.538
12052TIP3    H136099   4.501   4.695   0.484
12052TIP3    H236100   4.498   4.544   0.485
12053TIP3   OH236101   6.298   5.570   5.889
12053TIP3    H136102   6.349   5.555   5.810
12053TIP3    H236103   6.239   5.495   5.894
12054TIP3   OH236104   7.152   1.660   0.379
12054TIP3    H136105   7.161   1.590   0.315
12054TIP3    H236106   7.209   1.635   0.451
12055TIP3   OH236107   0.940   0.702   5.075
12055TIP3    H136108   0.923   0.622   5.126
12055TIP3    H236109   0.961   0.670   4.988
12056TIP3   OH236110   8.045   5.877   1.350
12056TIP3    H136111   8.133   5.840   1.342
12056TIP3    H236112   8.046   5.953   1.291
12057TIP3   OH236113   1.102   7.527   5.195
12057TIP3    H136114   1.029   7.533   5.257
12057TIP3    H236115   1.106   7.434   5.172
12058TIP3   OH236116   5.856   5.288   2.857
12058TIP3    H136117   5.803   5.284   2.778
12058TIP3    H236118   5.799   5.256   2.927
12059TIP3   OH236119   0.846   5.551   6.603
12059TIP3    H136120   0.847   5.533   6.697
12059TIP3    H236121   0.760   5.520   6.573
12060TIP3   OH236122   7.800   7.028   3.020
12060TIP3    H136123   7.868   6.963   3.004
12060TIP3    H236124   7.762   7.002   3.105
12061TIP3   OH236125   5.141   3.109   4.040
12061TIP3    H136126   5.148   3.135   4.132
12061TIP3    H236127   5.051   3.131   4.015
12062TIP3   OH236128   4.018   7.647   2.820
12062TIP3    H136129   3.984   7.734   2.801
12062TIP3    H236130   4.043   7.650   2.912
12063TIP3   OH236131   5.195   2.119   1.939
12063TIP3    H136132   5.247   2.149   1.865
12063TIP3    H236133   5.109   2.098   1.902
12064TIP3   OH236134   7.952   5.394   1.626
12064TIP3    H136135   8.035   5.404   1.673
12064TIP3    H236136   7.976   5.361   1.540
12065TIP3   OH236137   6.113   2.462   2.827
12065TIP3    H136138   6.026   2.495   2.805
12065TIP3    H236139   6.138   2.407   2.753
12066TIP3   OH236140   1.679   1.309   6.018
12066TIP3    H136141   1.736   1.342   5.948
12066TIP3    H236142   1.591   1.315   5.981
12067TIP3   OH236143   5.307   7.339   2.114
12067TIP3    H136144   5.218   7.355   2.147
12067TIP3    H236145   5.316   7.398   2.039
12068TIP3   OH236146   8.244   5.982   1.641
12068TIP3    H136147   8.315   6.043   1.662
12068TIP3    H236148   8.242   5.920   1.714
12069TIP3   OH236149   6.635   2.730   5.599
12069TIP3    H136150   6.716   2.713   5.550
12069TIP3    H236151   6.632   2.826   5.606
12070TIP3   OH236152   6.665   7.587   1.198
12070TIP3    H136153   6.730   7.582   1.268
12070TIP3    H236154   6.581   7.581   1.243
12071TIP3   OH236155   2.617   4.008   2.019
12071TIP3    H136156   2.606   3.986   2.112
12071TIP3    H236157   2.614   3.924   1.974
12072TIP3   OH236158   7.070   1.864   5.725
12072TIP3    H136159   7.042   1.945   5.767
12072TIP3    H236160   7.153   1.842   5.768
12073TIP3   OH236161   4.769   4.265   0.836
12073TIP3    H136162   4.741   4.174   0.823
12073TIP3    H236163   4.852   4.258   0.883
12074TIP3   OH236164   4.020   1.966   0.189
12074TIP3    H136165   4.089   1.908   0.156
12074TIP3    H236166   4.044   1.981   0.281
12075TIP3   OH236167   3.019   3.941   4.008
12075TIP3    H136168   3.041   4.014   4.066
12075TIP3    H236169   3.043   3.972   3.921
12076TIP3   OH236170   6.861   5.945   4.542
12076TIP3    H136171   6.866   5.850   4.543
12076TIP3    H236172   6.935   5.972   4.487
12077TIP3   OH236173   3.084   1.161   0.099
12077TIP3    H136174   3.031   1.086   0.073
12077TIP3    H236175   3.146   1.125   0.163
12078TIP3   OH236176   3.922   1.971   1.540
12078TIP3    H136177   3.980   2.022   1.485
12078TIP3    H236178   3.866   2.035   1.583
12079TIP3   OH236179   2.158   5.996   2.189
12079TIP3    H136180   2.073   5.953   2.195
12079TIP3    H236181   2.209   5.958   2.261
12080TIP3   OH236182   3.212   5.161   3.699
12080TIP3    H136183   3.140   5.216   3.729
12080TIP3    H236184   3.289   5.196   3.743
12081TIP3   OH236185   1.555   0.296   1.406
12081TIP3    H136186   1.527   0.260   1.322
12081TIP3    H236187   1.561   0.390   1.391
12082TIP3   OH236188   3.826   6.402   3.644
12082TIP3    H136189   3.786   6.424   3.728
12082TIP3    H236190   3.867   6.484   3.615
12083TIP3   OH236191   4.542   5.664   5.202
12083TIP3    H136192   4.511   5.577   5.228
12083TIP3    H236193   4.490   5.686   5.125
12084TIP3   OH236194   1.488   6.807   6.631
12084TIP3    H136195   1.539   6.747   6.685
12084TIP3    H236196   1.554   6.861   6.586
12085TIP3   OH236197   3.406   7.228   4.208
12085TIP3    H136198   3.438   7.265   4.290
12085TIP3    H236199   3.479   7.177   4.174
12086TIP3   OH236200   2.459   1.953   3.477
12086TIP3    H136201   2.388   1.890   3.487
12086TIP3    H236202   2.498   1.932   3.392
12087TIP3   OH236203   2.976   1.772   4.455
12087TIP3    H136204   2.929   1.718   4.393
12087TIP3    H236205   2.915   1.782   4.529
12088TIP3   OH236206   1.148   4.775   5.821
12088TIP3    H136207   1.088   4.700   5.829
12088TIP3    H236208   1.180   4.790   5.910
12089TIP3   OH236209   2.565   1.499   2.015
12089TIP3    H136210   2.635   1.542   2.065
12089TIP3    H236211   2.487   1.550   2.033
12090TIP3   OH236212   5.021   2.859   4.313
12090TIP3    H136213   5.002   2.799   4.385
12090TIP3    H236214   4.984   2.942   4.341
12091TIP3   OH236215   7.254   6.532   2.777
12091TIP3    H136216   7.189   6.527   2.847
12091TIP3    H236217   7.332   6.568   2.819
12092TIP3   OH236218   8.099   7.795   4.890
12092TIP3    H136219   8.004   7.811   4.894
12092TIP3    H236220   8.111   7.710   4.933
12093TIP3   OH236221   4.718   2.305   0.800
12093TIP3    H136222   4.725   2.290   0.894
12093TIP3    H236223   4.683   2.394   0.792
12094TIP3   OH236224   3.739   6.756   2.528
12094TIP3    H136225   3.782   6.678   2.493
12094TIP3    H236226   3.809   6.806   2.569
12095TIP3   OH236227   7.642   3.235   0.341
12095TIP3    H136228   7.700   3.217   0.267
12095TIP3    H236229   7.606   3.150   0.364
12096TIP3   OH236230   6.930   0.730   4.968
12096TIP3    H136231   6.975   0.786   4.905
12096TIP3    H236232   6.841   0.765   4.971
12097TIP3   OH236233   1.994   4.130   3.532
12097TIP3    H136234   1.992   4.182   3.452
12097TIP3    H236235   2.006   4.040   3.502
12098TIP3   OH236236   4.662   0.833   0.824
12098TIP3    H136237   4.600   0.767   0.854
12098TIP3    H236238   4.625   0.917   0.851
12099TIP3   OH236239   7.607   4.450   1.832
12099TIP3    H136240   7.696   4.419   1.848
12099TIP3    H236241   7.587   4.505   1.907
12100TIP3   OH236242   1.176   4.510   2.118
12100TIP3    H136243   1.229   4.455   2.061
12100TIP3    H236244   1.235   4.579   2.147
12101TIP3   OH236245   1.609   2.696   5.751
12101TIP3    H136246   1.542   2.712   5.684
12101TIP3    H236247   1.564   2.707   5.834
12102TIP3   OH236248   4.661   4.410   5.909
12102TIP3    H136249   4.666   4.501   5.938
12102TIP3    H236250   4.710   4.408   5.827
12103TIP3   OH236251   0.813   0.258   6.347
12103TIP3    H136252   0.874   0.186   6.361
12103TIP3    H236253   0.755   0.256   6.423
12104TIP3   OH236254   4.490   7.783   6.677
12104TIP3    H136255   4.534   7.868   6.681
12104TIP3    H236256   4.552   7.727   6.629
12105TIP3   OH236257   6.194   2.094   4.831
12105TIP3    H136258   6.123   2.089   4.895
12105TIP3    H236259   6.161   2.046   4.755
12106TIP3   OH236260   5.698   2.640   4.058
12106TIP3    H136261   5.684   2.686   4.141
12106TIP3    H236262   5.776   2.680   4.020
12107TIP3   OH236263   3.919   2.854   5.468
12107TIP3    H136264   3.992   2.794   5.485
12107TIP3    H236265   3.958   2.941   5.472
12108TIP3   OH236266   1.143   6.244   1.464
12108TIP3    H136267   1.206   6.238   1.392
12108TIP3    H236268   1.059   6.256   1.420
12109TIP3   OH236269   4.957   5.883   1.425
12109TIP3    H136270   5.002   5.917   1.347
12109TIP3    H236271   4.903   5.811   1.393
12110TIP3   OH236272   4.091   3.908   1.057
12110TIP3    H136273   4.179   3.890   1.024
12110TIP3    H236274   4.074   3.999   1.032
12111TIP3   OH236275   4.213   5.601   3.087
12111TIP3    H136276   4.126   5.566   3.102
12111TIP3    H236277   4.201   5.696   3.084
12112TIP3   OH236278   5.353   2.280   1.240
12112TIP3    H136279   5.389   2.365   1.213
12112TIP3    H236280   5.365   2.224   1.164
12113TIP3   OH236281   3.779   1.533   5.311
12113TIP3    H136282   3.774   1.535   5.215
12113TIP3    H236283   3.859   1.581   5.332
12114TIP3   OH236284   0.633   6.567   3.173
12114TIP3    H136285   0.550   6.550   3.217
12114TIP3    H236286   0.641   6.495   3.109
12115TIP3   OH236287   6.962   4.358   5.593
12115TIP3    H136288   6.873   4.325   5.579
12115TIP3    H236289   6.979   4.413   5.517
12116TIP3   OH236290   8.154   0.746   2.555
12116TIP3    H136291   8.163   0.840   2.571
12116TIP3    H236292   8.242   0.716   2.533
12117TIP3   OH236293   2.568   4.674   6.699
12117TIP3    H136294   2.660   4.651   6.685
12117TIP3    H236295   2.523   4.590   6.704
12118TIP3   OH236296   7.344   6.190   1.265
12118TIP3    H136297   7.281   6.254   1.297
12118TIP3    H236298   7.425   6.209   1.312
12119TIP3   OH236299   2.256   1.110   3.699
12119TIP3    H136300   2.169   1.075   3.718
12119TIP3    H236301   2.253   1.200   3.731
12120TIP3   OH236302   4.601   1.626   5.924
12120TIP3    H136303   4.560   1.578   5.996
12120TIP3    H236304   4.625   1.559   5.861
12121TIP3   OH236305   0.244   6.842   4.530
12121TIP3    H136306   0.162   6.838   4.580
12121TIP3    H236307   0.278   6.930   4.546
12122TIP3   OH236308   0.094   5.705   0.374
12122TIP3    H136309   0.021   5.649   0.349
12122TIP3    H236310   0.139   5.724   0.292
12123TIP3   OH236311   5.862   4.836   1.683
12123TIP3    H136312   5.817   4.767   1.733
12123TIP3    H236313   5.934   4.864   1.740
12124TIP3   OH236314   3.815   1.069   6.608
12124TIP3    H136315   3.799   0.998   6.670
12124TIP3    H236316   3.910   1.081   6.610
12125TIP3   OH236317   2.096   5.746   3.382
12125TIP3    H136318   2.189   5.762   3.397
12125TIP3    H236319   2.075   5.798   3.304
12126TIP3   OH236320   7.487   6.971   3.530
12126TIP3    H136321   7.511   6.973   3.622
12126TIP3    H236322   7.532   7.046   3.492
12127TIP3   OH236323   3.431   6.098   6.704
12127TIP3    H136324   3.421   6.167   6.770
12127TIP3    H236325   3.473   6.142   6.630
12128TIP3   OH236326   3.901   6.683   1.171
12128TIP3    H136327   3.994   6.678   1.148
12128TIP3    H236328   3.884   6.601   1.217
12129TIP3   OH236329   6.186   5.399   4.068
12129TIP3    H136330   6.245   5.387   4.143
12129TIP3    H236331   6.232   5.359   3.994
12130TIP3   OH236332   5.930   6.885   6.719
12130TIP3    H136333   5.845   6.890   6.677
12130TIP3    H236334   5.983   6.832   6.659
12131TIP3   OH236335   3.195   4.626   0.480
12131TIP3    H136336   3.258   4.586   0.539
12131TIP3    H236337   3.197   4.719   0.502
12132TIP3   OH236338   0.633   6.212   1.159
12132TIP3    H136339   0.683   6.150   1.107
12132TIP3    H236340   0.608   6.281   1.098
12133TIP3   OH236341   3.302   0.794   4.819
12133TIP3    H136342   3.348   0.774   4.900
12133TIP3    H236343   3.285   0.888   4.824
12134TIP3   OH236344   6.839   2.356   4.183
12134TIP3    H136345   6.821   2.369   4.276
12134TIP3    H236346   6.817   2.440   4.143
12135TIP3   OH236347   7.732   3.523   1.637
12135TIP3    H136348   7.648   3.564   1.659
12135TIP3    H236349   7.722   3.497   1.545
12136TIP3   OH236350   1.079   6.703   6.330
12136TIP3    H136351   1.081   6.797   6.347
12136TIP3    H236352   1.012   6.669   6.390
12137TIP3   OH236353   5.219   4.787   2.405
12137TIP3    H136354   5.194   4.845   2.476
12137TIP3    H236355   5.315   4.784   2.409
12138TIP3   OH236356   1.329   6.338   3.924
12138TIP3    H136357   1.303   6.268   3.864
12138TIP3    H236358   1.417   6.313   3.952
12139TIP3   OH236359   3.696   3.783   1.531
12139TIP3    H136360   3.610   3.822   1.544
12139TIP3    H236361   3.684   3.691   1.556
12140TIP3   OH236362   3.664   2.407   1.464
12140TIP3    H136363   3.634   2.497   1.479
12140TIP3    H236364   3.590   2.363   1.423
12141TIP3   OH236365   6.165   4.464   2.995
12141TIP3    H136366   6.172   4.540   2.937
12141TIP3    H236367   6.236   4.475   3.058
12142TIP3   OH236368   2.682   0.539   5.859
12142TIP3    H136369   2.749   0.481   5.823
12142TIP3    H236370   2.622   0.480   5.905
12143TIP3   OH236371   7.894   5.871   3.923
12143TIP3    H136372   7.966   5.876   3.986
12143TIP3    H236373   7.846   5.953   3.933
12144TIP3   OH236374   3.759   2.246   2.084
12144TIP3    H136375   3.840   2.286   2.115
12144TIP3    H236376   3.788   2.169   2.035
12145TIP3   OH236377   2.895   7.318   0.668
12145TIP3    H136378   2.968   7.365   0.628
12145TIP3    H236379   2.819   7.372   0.650
12146TIP3   OH236380   0.456   2.435   4.084
12146TIP3    H136381   0.518   2.376   4.041
12146TIP3    H236382   0.495   2.522   4.075
12147TIP3   OH236383   7.942   4.993   5.414
12147TIP3    H136384   7.989   5.077   5.410
12147TIP3    H236385   7.989   4.943   5.482
12148TIP3   OH236386   1.734   7.654   0.205
12148TIP3    H136387   1.813   7.708   0.208
12148TIP3    H236388   1.687   7.675   0.286
12149TIP3   OH236389   6.130   0.541   0.930
12149TIP3    H136390   6.043   0.571   0.957
12149TIP3    H236391   6.160   0.485   1.002
12150TIP3   OH236392   7.862   0.112   5.932
12150TIP3    H136393   7.780   0.153   5.903
12150TIP3    H236394   7.888   0.055   5.859
12151TIP3   OH236395   2.741   5.430   1.750
12151TIP3    H136396   2.811   5.376   1.788
12151TIP3    H236397   2.745   5.410   1.656
12152TIP3   OH236398   7.378   2.812   4.652
12152TIP3    H136399   7.396   2.905   4.639
12152TIP3    H236400   7.422   2.768   4.580
12153TIP3   OH236401   1.660   1.456   0.365
12153TIP3    H136402   1.637   1.365   0.383
12153TIP3    H236403   1.687   1.492   0.450
12154TIP3   OH236404   6.656   1.863   1.795
12154TIP3    H136405   6.638   1.803   1.722
12154TIP3    H236406   6.603   1.830   1.867
12155TIP3   OH236407   4.924   2.475   2.422
12155TIP3    H136408   4.832   2.475   2.395
12155TIP3    H236409   4.972   2.440   2.347
12156TIP3   OH236410   6.110   0.175   6.514
12156TIP3    H136411   6.091   0.081   6.512
12156TIP3    H236412   6.136   0.196   6.424
12157TIP3   OH236413   5.709   7.725   5.127
12157TIP3    H136414   5.675   7.812   5.150
12157TIP3    H236415   5.804   7.736   5.127
12158TIP3   OH236416   7.378   3.018   2.417
12158TIP3    H136417   7.452   2.960   2.430
12158TIP3    H236418   7.387   3.084   2.486
12159TIP3   OH236419   7.943   6.538   6.420
12159TIP3    H136420   7.867   6.480   6.419
12159TIP3    H236421   7.956   6.559   6.513
12160TIP3   OH236422   8.257   2.727   4.021
12160TIP3    H136423   8.324   2.768   3.966
12160TIP3    H236424   8.177   2.776   4.002
12161TIP3   OH236425   7.587   7.611   6.545
12161TIP3    H136426   7.550   7.699   6.535
12161TIP3    H236427   7.543   7.560   6.477
12162TIP3   OH236428   3.086   2.997   6.431
12162TIP3    H136429   3.149   2.987   6.359
12162TIP3    H236430   3.125   2.947   6.503
12163TIP3   OH236431   1.899   0.432   4.126
12163TIP3    H136432   1.933   0.436   4.037
12163TIP3    H236433   1.925   0.515   4.166
12164TIP3   OH236434   5.250   5.374   2.225
12164TIP3    H136435   5.217   5.425   2.299
12164TIP3    H236436   5.304   5.306   2.265
12165TIP3   OH236437   6.594   6.907   4.867
12165TIP3    H136438   6.601   6.954   4.784
12165TIP3    H236439   6.544   6.966   4.923
12166TIP3   OH236440   0.278   5.629   1.988
12166TIP3    H136441   0.189   5.632   2.021
12166TIP3    H236442   0.268   5.631   1.892
12167TIP3   OH236443   3.946   7.401   3.713
12167TIP3    H136444   3.903   7.354   3.642
12167TIP3    H236445   4.033   7.362   3.718
12168TIP3   OH236446   0.762   5.504   4.793
12168TIP3    H136447   0.770   5.539   4.881
12168TIP3    H236448   0.824   5.431   4.790
12169TIP3   OH236449   6.311   0.927   2.637
12169TIP3    H136450   6.314   0.863   2.708
12169TIP3    H236451   6.245   0.892   2.577
12170TIP3   OH236452   0.943   0.741   6.182
12170TIP3    H136453   0.979   0.652   6.191
12170TIP3    H236454   0.951   0.779   6.270
12171TIP3   OH236455   4.885   5.576   3.077
12171TIP3    H136456   4.806   5.629   3.065
12171TIP3    H236457   4.927   5.577   2.991
12172TIP3   OH236458   2.738   3.350   5.005
12172TIP3    H136459   2.725   3.300   5.085
12172TIP3    H236460   2.702   3.295   4.936
12173TIP3   OH236461   1.926   1.805   3.853
12173TIP3    H136462   1.944   1.899   3.851
12173TIP3    H236463   1.839   1.798   3.893
12174TIP3   OH236464   5.993   1.190   3.280
12174TIP3    H136465   5.971   1.156   3.193
12174TIP3    H236466   6.088   1.190   3.282
12175TIP3   OH236467   7.591   0.333   1.772
12175TIP3    H136468   7.594   0.406   1.833
12175TIP3    H236469   7.581   0.374   1.686
12176TIP3   OH236470   2.462   3.514   6.231
12176TIP3    H136471   2.443   3.590   6.286
12176TIP3    H236472   2.532   3.467   6.278
12177TIP3   OH236473   0.153   3.789   3.918
12177TIP3    H136474   0.077   3.846   3.932
12177TIP3    H236475   0.209   3.805   3.994
12178TIP3   OH236476   6.610   2.734   1.252
12178TIP3    H136477   6.578   2.692   1.332
12178TIP3    H236478   6.701   2.755   1.270
12179TIP3   OH236479   4.886   2.288   3.446
12179TIP3    H136480   4.945   2.316   3.516
12179TIP3    H236481   4.943   2.244   3.383
12180TIP3   OH236482   8.010   5.072   1.115
12180TIP3    H136483   8.062   4.999   1.148
12180TIP3    H236484   8.067   5.116   1.052
12181TIP3   OH236485   4.462   7.393   6.372
12181TIP3    H136486   4.530   7.385   6.305
12181TIP3    H236487   4.400   7.323   6.352
12182TIP3   OH236488   6.040   5.231   1.217
12182TIP3    H136489   5.988   5.303   1.183
12182TIP3    H236490   6.115   5.225   1.157
12183TIP3   OH236491   4.232   4.853   2.104
12183TIP3    H136492   4.181   4.772   2.101
12183TIP3    H236493   4.321   4.824   2.122
12184TIP3   OH236494   6.079   3.444   3.198
12184TIP3    H136495   6.106   3.361   3.159
12184TIP3    H236496   6.161   3.490   3.217
12185TIP3   OH236497   0.608   7.627   0.970
12185TIP3    H136498   0.690   7.645   1.017
12185TIP3    H236499   0.540   7.638   1.036
12186TIP3   OH236500   3.026   2.439   0.352
12186TIP3    H136501   2.999   2.529   0.331
12186TIP3    H236502   3.092   2.418   0.286
12187TIP3   OH236503   4.300   6.459   5.210
12187TIP3    H136504   4.359   6.487   5.140
12187TIP3    H236505   4.227   6.417   5.164
12188TIP3   OH236506   7.556   6.233   1.428
12188TIP3    H136507   7.636   6.201   1.386
12188TIP3    H236508   7.526   6.159   1.482
12189TIP3   OH236509   6.464   1.435   3.688
12189TIP3    H136510   6.442   1.425   3.595
12189TIP3    H236511   6.416   1.512   3.716
12190TIP3   OH236512   4.364   4.923   6.575
12190TIP3    H136513   4.406   5.009   6.582
12190TIP3    H236514   4.275   4.937   6.606
12191TIP3   OH236515   0.208   2.413   2.486
12191TIP3    H136516   0.171   2.329   2.459
12191TIP3    H236517   0.206   2.466   2.406
12192TIP3   OH236518   6.974   6.529   4.296
12192TIP3    H136519   6.942   6.496   4.213
12192TIP3    H236520   6.901   6.516   4.357
12193TIP3   OH236521   5.545   4.407   5.913
12193TIP3    H136522   5.621   4.381   5.965
12193TIP3    H236523   5.471   4.367   5.958
12194TIP3   OH236524   6.775   7.187   3.012
12194TIP3    H136525   6.683   7.171   3.034
12194TIP3    H236526   6.811   7.100   2.993
12195TIP3   OH236527   4.738   2.339   3.208
12195TIP3    H136528   4.781   2.342   3.293
12195TIP3    H236529   4.695   2.424   3.199
12196TIP3   OH236530   2.276   2.812   2.033
12196TIP3    H136531   2.300   2.838   2.122
12196TIP3    H236532   2.234   2.727   2.043
12197TIP3   OH236533   0.322   5.376   5.590
12197TIP3    H136534   0.403   5.351   5.544
12197TIP3    H236535   0.288   5.450   5.540
12198TIP3   OH236536   6.616   4.495   5.635
12198TIP3    H136537   6.659   4.411   5.652
12198TIP3    H236538   6.523   4.477   5.646
12199TIP3   OH236539   3.234   0.309   0.940
12199TIP3    H136540   3.270   0.285   0.854
12199TIP3    H236541   3.175   0.382   0.922
12200TIP3   OH236542   3.904   0.879   4.828
12200TIP3    H136543   3.917   0.786   4.807
12200TIP3    H236544   3.840   0.879   4.899
12201TIP3   OH236545   5.025   3.490   0.957
12201TIP3    H136546   4.982   3.487   0.872
12201TIP3    H236547   5.106   3.538   0.942
12202TIP3   OH236548   0.294  -0.016   3.235
12202TIP3    H136549   0.255   0.030   3.161
12202TIP3    H236550   0.336   0.052   3.287
12203TIP3   OH236551   6.777   4.728   4.203
12203TIP3    H136552   6.760   4.700   4.113
12203TIP3    H236553   6.868   4.702   4.219
12204TIP3   OH236554   6.452   5.856   0.140
12204TIP3    H136555   6.545   5.866   0.158
12204TIP3    H236556   6.410   5.926   0.190
12205TIP3   OH236557   6.576   1.351   2.790
12205TIP3    H136558   6.563   1.257   2.799
12205TIP3    H236559   6.513   1.390   2.850
12206TIP3   OH236560   6.999   2.986   4.970
12206TIP3    H136561   7.031   2.917   5.029
12206TIP3    H236562   6.967   2.939   4.893
12207TIP3   OH236563   7.547   6.071   0.899
12207TIP3    H136564   7.495   6.067   0.818
12207TIP3    H236565   7.595   6.154   0.893
12208TIP3   OH236566   1.309   6.536   5.795
12208TIP3    H136567   1.219   6.505   5.795
12208TIP3    H236568   1.332   6.545   5.703
12209TIP3   OH236569   0.159   4.450   4.163
12209TIP3    H136570   0.172   4.385   4.231
12209TIP3    H236571   0.109   4.405   4.095
12210TIP3   OH236572   7.552   7.015   0.226
12210TIP3    H136573   7.629   7.071   0.232
12210TIP3    H236574   7.481   7.074   0.203
12211TIP3   OH236575   6.945   3.150   5.218
12211TIP3    H136576   6.908   3.102   5.144
12211TIP3    H236577   7.040   3.146   5.203
12212TIP3   OH236578   7.560   1.001   6.642
12212TIP3    H136579   7.521   0.933   6.587
12212TIP3    H236580   7.602   0.952   6.713
12213TIP3   OH236581   4.671   2.605   4.281
12213TIP3    H136582   4.659   2.521   4.237
12213TIP3    H236583   4.741   2.648   4.233
12214TIP3   OH236584   2.131   2.421   4.005
12214TIP3    H136585   2.056   2.390   3.953
12214TIP3    H236586   2.115   2.515   4.015
12215TIP3   OH236587   8.131   6.408   2.996
12215TIP3    H136588   8.048   6.385   2.954
12215TIP3    H236589   8.117   6.494   3.035
12216TIP3   OH236590   2.550   0.822   0.271
12216TIP3    H136591   2.506   0.862   0.346
12216TIP3    H236592   2.500   0.853   0.195
12217TIP3   OH236593   5.193   5.430   4.384
12217TIP3    H136594   5.168   5.473   4.466
12217TIP3    H236595   5.112   5.429   4.332
12218TIP3   OH236596   5.080   4.246   0.914
12218TIP3    H136597   5.059   4.240   1.007
12218TIP3    H236598   5.175   4.250   0.911
12219TIP3   OH236599   0.879   3.406   0.788
12219TIP3    H136600   0.843   3.406   0.699
12219TIP3    H236601   0.804   3.422   0.845
12220TIP3   OH236602   6.303   5.571   1.422
12220TIP3    H136603   6.324   5.663   1.432
12220TIP3    H236604   6.349   5.543   1.343
12221TIP3   OH236605   3.199   1.543   1.877
12221TIP3    H136606   3.164   1.495   1.802
12221TIP3    H236607   3.128   1.599   1.905
12222TIP3   OH236608   1.350   2.658   1.307
12222TIP3    H136609   1.380   2.668   1.397
12222TIP3    H236610   1.430   2.644   1.256
12223TIP3   OH236611   5.011   2.553   0.394
12223TIP3    H136612   5.098   2.551   0.354
12223TIP3    H236613   4.950   2.556   0.320
12224TIP3   OH236614   0.083   2.236   3.495
12224TIP3    H136615   0.114   2.324   3.476
12224TIP3    H236616   0.054   2.202   3.411
12225TIP3   OH236617   3.693   0.820   4.979
12225TIP3    H136618   3.705   0.736   5.024
12225TIP3    H236619   3.598   0.826   4.966
12226TIP3   OH236620   0.900   2.086   5.450
12226TIP3    H136621   0.976   2.028   5.458
12226TIP3    H236622   0.829   2.039   5.493
12227TIP3   OH236623   1.252   6.825   4.239
12227TIP3    H136624   1.265   6.739   4.199
12227TIP3    H236625   1.295   6.886   4.179
12228TIP3   OH236626   1.789   1.578   4.906
12228TIP3    H136627   1.717   1.524   4.939
12228TIP3    H236628   1.801   1.550   4.815
12229TIP3   OH236629   5.929   5.041   3.437
12229TIP3    H136630   5.909   4.949   3.421
12229TIP3    H236631   6.017   5.040   3.474
12230TIP3   OH236632   4.253   1.988   5.614
12230TIP3    H136633   4.161   2.007   5.593
12230TIP3    H236634   4.296   1.980   5.529
12231TIP3   OH236635  -0.007   5.567   6.085
12231TIP3    H136636   0.065   5.544   6.027
12231TIP3    H236637   0.013   5.523   6.168
12232TIP3   OH236638   7.967   7.461   5.506
12232TIP3    H136639   7.917   7.380   5.492
12232TIP3    H236640   7.904   7.531   5.492
12233TIP3   OH236641   4.809   1.965   0.361
12233TIP3    H136642   4.843   1.967   0.272
12233TIP3    H236643   4.769   1.878   0.370
12234TIP3   OH236644   5.916   7.150   5.225
12234TIP3    H136645   5.899   7.215   5.293
12234TIP3    H236646   5.992   7.185   5.178
12235TIP3   OH236647   6.160   2.317   2.551
12235TIP3    H136648   6.218   2.360   2.488
12235TIP3    H236649   6.084   2.291   2.499
12236TIP3   OH236650   7.174   3.415   5.264
12236TIP3    H136651   7.175   3.506   5.235
12236TIP3    H236652   7.229   3.369   5.200
12237TIP3   OH236653   1.138   0.727   4.797
12237TIP3    H136654   1.089   0.658   4.753
12237TIP3    H236655   1.187   0.771   4.727
12238TIP3   OH236656   0.384   6.466   5.436
12238TIP3    H136657   0.342   6.550   5.455
12238TIP3    H236658   0.378   6.457   5.341
12239TIP3   OH236659   2.022   4.102   6.352
12239TIP3    H136660   2.026   4.193   6.325
12239TIP3    H236661   2.076   4.098   6.431
12240TIP3   OH236662   4.153   7.761   4.802
12240TIP3    H136663   4.161   7.851   4.770
12240TIP3    H236664   4.144   7.769   4.897
12241TIP3   OH236665   1.709   5.690   6.051
12241TIP3    H136666   1.643   5.712   5.986
12241TIP3    H236667   1.719   5.770   6.103
12242TIP3   OH236668   7.628   2.729   5.683
12242TIP3    H136669   7.646   2.638   5.703
12242TIP3    H236670   7.705   2.759   5.635
12243TIP3   OH236671   5.196   6.919   4.470
12243TIP3    H136672   5.133   6.954   4.533
12243TIP3    H236673   5.212   6.991   4.410
12244TIP3   OH236674   0.143   5.623   6.499
12244TIP3    H136675   0.215   5.600   6.557
12244TIP3    H236676   0.186   5.659   6.421
12245TIP3   OH236677   5.945   2.805   0.995
12245TIP3    H136678   5.879   2.822   0.929
12245TIP3    H236679   5.934   2.877   1.058
12246TIP3   OH236680   7.046   0.265   3.793
12246TIP3    H136681   6.953   0.287   3.800
12246TIP3    H236682   7.068   0.287   3.702
12247TIP3   OH236683   1.792   1.269   4.601
12247TIP3    H136684   1.808   1.362   4.615
12247TIP3    H236685   1.876   1.235   4.569
12248TIP3   OH236686   6.368   4.914   3.516
12248TIP3    H136687   6.405   4.923   3.429
12248TIP3    H236688   6.297   4.978   3.519
12249TIP3   OH236689   7.098   7.351   1.098
12249TIP3    H136690   7.146   7.277   1.061
12249TIP3    H236691   7.018   7.312   1.133
12250TIP3   OH236692   7.673   0.521   2.804
12250TIP3    H136693   7.599   0.511   2.743
12250TIP3    H236694   7.748   0.486   2.756
12251TIP3   OH236695   7.780   6.138   3.950
12251TIP3    H136696   7.828   6.148   3.868
12251TIP3    H236697   7.697   6.183   3.934
12252TIP3   OH236698   0.990   2.080   6.468
12252TIP3    H136699   0.966   2.161   6.422
12252TIP3    H236700   1.077   2.097   6.503
12253TIP3   OH236701   7.889   2.990   3.474
12253TIP3    H136702   7.827   3.002   3.402
12253TIP3    H236703   7.969   3.035   3.444
12254TIP3   OH236704   7.741   2.471   5.737
12254TIP3    H136705   7.788   2.400   5.695
12254TIP3    H236706   7.716   2.436   5.823
12255TIP3   OH236707   3.235   6.553   3.137
12255TIP3    H136708   3.192   6.637   3.122
12255TIP3    H236709   3.173   6.488   3.104
12256TIP3   OH236710   4.753   6.926   2.675
12256TIP3    H136711   4.724   6.875   2.599
12256TIP3    H236712   4.713   6.883   2.750
12257TIP3   OH236713   0.299   3.189   1.304
12257TIP3    H136714   0.322   3.133   1.378
12257TIP3    H236715   0.383   3.224   1.274
12258TIP3   OH236716   4.029   6.626   5.661
12258TIP3    H136717   4.044   6.580   5.579
12258TIP3    H236718   3.949   6.588   5.696
12259TIP3   OH236719   4.711   3.202   0.690
12259TIP3    H136720   4.753   3.191   0.605
12259TIP3    H236721   4.757   3.142   0.748
12260TIP3   OH236722   4.762   0.238   3.850
12260TIP3    H136723   4.844   0.276   3.817
12260TIP3    H236724   4.790   0.180   3.921
12261TIP3   OH236725   7.600   1.009   2.757
12261TIP3    H136726   7.625   1.094   2.722
12261TIP3    H236727   7.623   1.014   2.850
12262TIP3   OH236728   2.000   0.317   2.985
12262TIP3    H136729   1.953   0.379   3.042
12262TIP3    H236730   2.084   0.305   3.028
12263TIP3   OH236731   4.232   1.592   4.192
12263TIP3    H136732   4.247   1.670   4.245
12263TIP3    H236733   4.149   1.556   4.225
12264TIP3   OH236734   7.234   2.723   3.314
12264TIP3    H136735   7.264   2.711   3.224
12264TIP3    H236736   7.140   2.710   3.310
12265TIP3   OH236737   3.873   4.848   5.461
12265TIP3    H136738   3.889   4.931   5.505
12265TIP3    H236739   3.850   4.787   5.532
12266TIP3   OH236740   2.623   2.276   0.604
12266TIP3    H136741   2.708   2.310   0.577
12266TIP3    H236742   2.643   2.211   0.672
12267TIP3   OH236743   1.770   0.858   6.418
12267TIP3    H136744   1.859   0.865   6.452
12267TIP3    H236745   1.752   0.764   6.415
12268TIP3   OH236746   0.633   6.115   4.373
12268TIP3    H136747   0.557   6.169   4.353
12268TIP3    H236748   0.704   6.155   4.322
12269TIP3   OH236749   3.741   1.856   5.559
12269TIP3    H136750   3.704   1.789   5.501
12269TIP3    H236751   3.706   1.834   5.645
12270TIP3   OH236752   0.477   2.859   6.575
12270TIP3    H136753   0.525   2.842   6.494
12270TIP3    H236754   0.511   2.944   6.605
12271TIP3   OH236755   0.658   1.987   4.402
12271TIP3    H136756   0.651   2.049   4.474
12271TIP3    H236757   0.750   1.990   4.377
12272TIP3   OH236758   4.633   2.006   5.233
12272TIP3    H136759   4.653   1.915   5.253
12272TIP3    H236760   4.705   2.055   5.273
12273TIP3   OH236761   4.233   4.758   3.154
12273TIP3    H136762   4.328   4.749   3.162
12273TIP3    H236763   4.209   4.824   3.219
12274TIP3   OH236764   5.060   5.933   6.261
12274TIP3    H136765   5.029   5.919   6.350
12274TIP3    H236766   5.145   5.889   6.259
12275TIP3   OH236767   6.122   3.246   4.449
12275TIP3    H136768   6.172   3.325   4.469
12275TIP3    H236769   6.097   3.257   4.357
12276TIP3   OH236770   4.706   5.722   6.545
12276TIP3    H136771   4.776   5.707   6.608
12276TIP3    H236772   4.742   5.692   6.461
12277TIP3   OH236773   3.653   7.340   5.454
12277TIP3    H136774   3.664   7.392   5.533
12277TIP3    H236775   3.662   7.249   5.484
12278TIP3   OH236776   6.377   3.110   4.522
12278TIP3    H136777   6.327   3.180   4.564
12278TIP3    H236778   6.468   3.130   4.543
12279TIP3   OH236779   7.448   3.434   0.343
12279TIP3    H136780   7.501   3.355   0.345
12279TIP3    H236781   7.359   3.404   0.322
12280TIP3   OH236782   1.202   7.119   2.771
12280TIP3    H136783   1.189   7.188   2.706
12280TIP3    H236784   1.171   7.039   2.728
12281TIP3   OH236785   0.322   2.102   4.398
12281TIP3    H136786   0.369   2.129   4.477
12281TIP3    H236787   0.269   2.028   4.427
12282TIP3   OH236788   5.512   0.884   4.177
12282TIP3    H136789   5.427   0.862   4.137
12282TIP3    H236790   5.523   0.820   4.247
12283TIP3   OH236791   6.498   7.639   1.661
12283TIP3    H136792   6.421   7.608   1.614
12283TIP3    H236793   6.478   7.623   1.753
12284TIP3   OH236794   8.078   2.330   1.219
12284TIP3    H136795   8.034   2.395   1.164
12284TIP3    H236796   8.047   2.246   1.185
12285TIP3   OH236797   2.965   2.058   6.563
12285TIP3    H136798   2.923   2.002   6.499
12285TIP3    H236799   2.951   2.013   6.647
12286TIP3   OH236800   0.799   6.278   3.589
12286TIP3    H136801   0.817   6.351   3.530
12286TIP3    H236802   0.732   6.227   3.544
12287TIP3   OH236803   6.616   1.039   1.299
12287TIP3    H136804   6.688   1.072   1.246
12287TIP3    H236805   6.653   0.965   1.347
12288TIP3   OH236806   3.501   1.712   3.797
12288TIP3    H136807   3.558   1.774   3.753
12288TIP3    H236808   3.543   1.698   3.882
12289TIP3   OH236809   6.676   1.623   4.886
12289TIP3    H136810   6.728   1.700   4.866
12289TIP3    H236811   6.636   1.598   4.803
12290TIP3   OH236812   6.052   1.831   2.464
12290TIP3    H136813   6.002   1.754   2.436
12290TIP3    H236814   6.137   1.821   2.422
12291TIP3   OH236815   7.772   7.568   5.776
12291TIP3    H136816   7.680   7.569   5.749
12291TIP3    H236817   7.769   7.583   5.870
12292TIP3   OH236818   4.210   0.854   5.442
12292TIP3    H136819   4.284   0.890   5.393
12292TIP3    H236820   4.244   0.844   5.532
12293TIP3   OH236821   1.161   3.077   1.917
12293TIP3    H136822   1.139   2.986   1.936
12293TIP3    H236823   1.132   3.091   1.827
12294TIP3   OH236824   8.235   4.206   1.899
12294TIP3    H136825   8.186   4.163   1.970
12294TIP3    H236826   8.225   4.147   1.825
12295TIP3   OH236827   5.014   7.004   0.024
12295TIP3    H136828   5.042   6.973   0.110
12295TIP3    H236829   4.921   7.026   0.035
12296TIP3   OH236830   5.545   0.217   5.500
12296TIP3    H136831   5.502   0.170   5.428
12296TIP3    H236832   5.551   0.151   5.570
12297TIP3   OH236833   2.013   0.950   1.165
12297TIP3    H136834   2.107   0.930   1.155
12297TIP3    H236835   2.006   0.988   1.252
12298TIP3   OH236836   1.984   4.591   2.099
12298TIP3    H136837   2.043   4.518   2.119
12298TIP3    H236838   1.960   4.627   2.184
12299TIP3   OH236839   6.967   0.229   0.891
12299TIP3    H136840   6.946   0.314   0.931
12299TIP3    H236841   6.953   0.243   0.797
12300TIP3   OH236842   1.352   3.867   4.390
12300TIP3    H136843   1.293   3.943   4.397
12300TIP3    H236844   1.355   3.849   4.296
12301TIP3   OH236845   6.743   4.303   0.398
12301TIP3    H136846   6.724   4.238   0.331
12301TIP3    H236847   6.681   4.374   0.381
12302TIP3   OH236848   5.505   4.816   4.004
12302TIP3    H136849   5.594   4.792   4.029
12302TIP3    H236850   5.491   4.901   4.047
12303TIP3   OH236851   4.904   7.744   1.519
12303TIP3    H136852   4.987   7.742   1.566
12303TIP3    H236853   4.929   7.745   1.426
12304TIP3   OH236854   2.890   3.533   0.915
12304TIP3    H136855   2.944   3.466   0.957
12304TIP3    H236856   2.937   3.554   0.834
12305TIP3   OH236857   1.652   5.361   2.499
12305TIP3    H136858   1.669   5.435   2.556
12305TIP3    H236859   1.620   5.292   2.557
12306TIP3   OH236860   6.146   1.190   0.680
12306TIP3    H136861   6.060   1.161   0.712
12306TIP3    H236862   6.138   1.285   0.672
12307TIP3   OH236863   7.790   5.947   5.030
12307TIP3    H136864   7.779   5.942   5.125
12307TIP3    H236865   7.797   6.040   5.011
12308TIP3   OH236866   3.943   0.658   0.856
12308TIP3    H136867   3.890   0.605   0.915
12308TIP3    H236868   3.981   0.726   0.912
12309TIP3   OH236869   2.027   3.082   4.828
12309TIP3    H136870   2.117   3.059   4.806
12309TIP3    H236871   1.990   3.003   4.866
12310TIP3   OH236872   3.391   4.672   3.694
12310TIP3    H136873   3.379   4.611   3.621
12310TIP3    H236874   3.462   4.635   3.746
12311TIP3   OH236875   4.433   1.606   1.528
12311TIP3    H136876   4.411   1.593   1.436
12311TIP3    H236877   4.392   1.532   1.574
12312TIP3   OH236878   0.497   4.707   0.607
12312TIP3    H136879   0.424   4.730   0.549
12312TIP3    H236880   0.558   4.658   0.551
12313TIP3   OH236881   2.107   1.342   6.269
12313TIP3    H136882   2.011   1.339   6.276
12313TIP3    H236883   2.134   1.251   6.265
12314TIP3   OH236884   6.506   2.376   2.161
12314TIP3    H136885   6.511   2.440   2.231
12314TIP3    H236886   6.597   2.352   2.143
12315TIP3   OH236887   0.463   6.332   5.701
12315TIP3    H136888   0.450   6.387   5.624
12315TIP3    H236889   0.536   6.275   5.679
12316TIP3   OH236890   2.855   1.187   2.535
12316TIP3    H136891   2.779   1.177   2.593
12316TIP3    H236892   2.897   1.102   2.534
12317TIP3   OH236893   5.664   4.096   5.857
12317TIP3    H136894   5.598   4.054   5.913
12317TIP3    H236895   5.666   4.042   5.778
12318TIP3   OH236896   6.166   7.050   4.414
12318TIP3    H136897   6.227   7.075   4.345
12318TIP3    H236898   6.218   7.052   4.495
12319TIP3   OH236899   2.110   2.136   2.372
12319TIP3    H136900   2.139   2.213   2.421
12319TIP3    H236901   2.184   2.075   2.378
12320TIP3   OH236902   8.117   0.442   0.656
12320TIP3    H136903   8.169   0.433   0.736
12320TIP3    H236904   8.038   0.392   0.673
12321TIP3   OH236905   6.027   5.647   2.224
12321TIP3    H136906   5.963   5.606   2.165
12321TIP3    H236907   6.108   5.647   2.173
12322TIP3   OH236908   0.193   0.488   2.782
12322TIP3    H136909   0.098   0.479   2.774
12322TIP3    H236910   0.227   0.470   2.695
12323TIP3   OH236911   2.117   1.828   2.071
12323TIP3    H136912   2.093   1.738   2.051
12323TIP3    H236913   2.122   1.871   1.985
12324TIP3   OH236914   4.000   4.167   0.977
12324TIP3    H136915   4.068   4.211   1.028
12324TIP3    H236916   3.930   4.232   0.971
12325TIP3   OH236917   0.307   4.193   4.211
12325TIP3    H136918   0.355   4.245   4.275
12325TIP3    H236919   0.315   4.242   4.129
12326TIP3   OH236920   6.995   6.118   0.519
12326TIP3    H136921   7.041   6.094   0.600
12326TIP3    H236922   6.905   6.090   0.534
12327TIP3   OH236923   8.168   7.505   4.358
12327TIP3    H136924   8.075   7.524   4.349
12327TIP3    H236925   8.208   7.590   4.378
12328TIP3   OH236926   4.075   4.984   1.900
12328TIP3    H136927   4.012   4.924   1.860
12328TIP3    H236928   4.120   4.931   1.967
12329TIP3   OH236929   3.511   4.755   6.342
12329TIP3    H136930   3.516   4.841   6.383
12329TIP3    H236931   3.505   4.694   6.416
12330TIP3   OH236932   0.992   5.128   4.618
12330TIP3    H136933   0.977   5.205   4.564
12330TIP3    H236934   1.044   5.069   4.564
12331TIP3   OH236935   8.090   1.078   3.855
12331TIP3    H136936   8.157   1.110   3.916
12331TIP3    H236937   8.010   1.075   3.907
12332TIP3   OH236938   1.879   4.531   0.508
12332TIP3    H136939   1.959   4.571   0.542
12332TIP3    H236940   1.903   4.440   0.492
12333TIP3   OH236941   2.330   2.208   3.906
12333TIP3    H136942   2.243   2.170   3.918
12333TIP3    H236943   2.314   2.295   3.871
12334TIP3   OH236944   7.306   0.849   3.798
12334TIP3    H136945   7.393   0.811   3.788
12334TIP3    H236946   7.250   0.800   3.738
12335TIP3   OH236947   4.417   4.385   2.628
12335TIP3    H136948   4.486   4.433   2.674
12335TIP3    H236949   4.464   4.328   2.567
12336TIP3   OH236950   0.595   5.110   6.118
12336TIP3    H136951   0.500   5.096   6.111
12336TIP3    H236952   0.630   5.083   6.033
12337TIP3   OH236953   6.106   3.650   5.506
12337TIP3    H136954   6.152   3.566   5.508
12337TIP3    H236955   6.174   3.714   5.485
12338TIP3   OH236956   1.108   7.247   5.901
12338TIP3    H136957   1.166   7.308   5.855
12338TIP3    H236958   1.162   7.210   5.971
12339TIP3   OH236959   5.439   5.062   4.156
12339TIP3    H136960   5.481   5.127   4.100
12339TIP3    H236961   5.442   5.100   4.244
12340TIP3   OH236962   0.231   3.054   0.768
12340TIP3    H136963   0.147   3.023   0.736
12340TIP3    H236964   0.265   2.982   0.821
12341TIP3   OH236965   4.061   2.914   2.239
12341TIP3    H136966   4.032   2.952   2.156
12341TIP3    H236967   4.085   2.824   2.218
12342TIP3   OH236968   3.033   0.238   1.916
12342TIP3    H136969   3.104   0.173   1.914
12342TIP3    H236970   3.062   0.306   1.856
12343TIP3   OH236971   2.483   2.694   2.613
12343TIP3    H136972   2.397   2.654   2.624
12343TIP3    H236973   2.540   2.643   2.671
12344TIP3   OH236974   5.980   7.770   5.086
12344TIP3    H136975   6.010   7.823   5.012
12344TIP3    H236976   6.056   7.765   5.144
12345TIP3   OH236977   1.773   6.041   5.104
12345TIP3    H136978   1.772   5.947   5.083
12345TIP3    H236979   1.681   6.067   5.105
12346TIP3   OH236980   5.457   7.053   2.896
12346TIP3    H136981   5.547   7.066   2.927
12346TIP3    H236982   5.402   7.085   2.967
12347TIP3   OH236983   5.959   6.123   0.620
12347TIP3    H136984   5.983   6.200   0.673
12347TIP3    H236985   5.866   6.112   0.637
12348TIP3   OH236986   6.533   5.028   3.686
12348TIP3    H136987   6.510   5.099   3.624
12348TIP3    H236988   6.499   4.949   3.644
12349TIP3   OH236989   0.529   6.915   3.052
12349TIP3    H136990   0.545   6.832   3.008
12349TIP3    H236991   0.590   6.915   3.126
12350TIP3   OH236992   3.765   2.103   4.828
12350TIP3    H136993   3.852   2.091   4.865
12350TIP3    H236994   3.723   2.167   4.886
12351TIP3   OH236995   4.720   0.770   3.734
12351TIP3    H136996   4.754   0.685   3.763
12351TIP3    H236997   4.625   0.757   3.729
12352TIP3   OH236998   2.512   4.869   4.558
12352TIP3    H136999   2.551   4.935   4.615
12352TIP3    H237000   2.427   4.906   4.534
12353TIP3   OH237001   3.113   0.767   5.380
12353TIP3    H137002   3.049   0.806   5.321
12353TIP3    H237003   3.171   0.717   5.322
12354TIP3   OH237004   1.446   1.195   0.516
12354TIP3    H137005   1.510   1.185   0.445
12354TIP3    H237006   1.387   1.264   0.485
12355TIP3   OH237007   8.024   6.806   2.574
12355TIP3    H137008   7.996   6.767   2.656
12355TIP3    H237009   7.978   6.890   2.570
12356TIP3   OH237010   6.362   2.847   4.602
12356TIP3    H137011   6.439   2.822   4.653
12356TIP3    H237012   6.373   2.941   4.587
12357TIP3   OH237013   0.386   4.175   1.827
12357TIP3    H137014   0.473   4.199   1.859
12357TIP3    H237015   0.333   4.255   1.839
12358TIP3   OH237016   2.670   6.111   4.677
12358TIP3    H137017   2.692   6.128   4.586
12358TIP3    H237018   2.666   6.197   4.718
12359TIP3   OH237019   3.596   2.244   6.458
12359TIP3    H137020   3.536   2.286   6.397
12359TIP3    H237021   3.555   2.160   6.479
12360TIP3   OH237022   0.813   5.618   4.538
12360TIP3    H137023   0.800   5.599   4.631
12360TIP3    H237024   0.878   5.688   4.537
12361TIP3   OH237025   0.218   7.653   5.743
12361TIP3    H137026   0.147   7.641   5.806
12361TIP3    H237027   0.246   7.744   5.757
12362TIP3   OH237028   6.261   0.760   2.183
12362TIP3    H137029   6.195   0.824   2.157
12362TIP3    H237030   6.344   0.794   2.148
12363TIP3   OH237031   4.041   7.184   0.730
12363TIP3    H137032   4.120   7.194   0.782
12363TIP3    H237033   3.971   7.170   0.794
12364TIP3   OH237034   1.666   1.322   5.508
12364TIP3    H137035   1.700   1.291   5.424
12364TIP3    H237036   1.687   1.415   5.510
12365TIP3   OH237037   6.542   0.556   0.482
12365TIP3    H137038   6.580   0.632   0.439
12365TIP3    H237039   6.508   0.502   0.410
12366TIP3   OH237040   4.807   5.627   2.793
12366TIP3    H137041   4.747   5.701   2.800
12366TIP3    H237042   4.873   5.656   2.730
12367TIP3   OH237043   6.919   6.352   0.869
12367TIP3    H137044   6.974   6.280   0.900
12367TIP3    H237045   6.954   6.374   0.783
12368TIP3   OH237046   2.235   0.080   0.181
12368TIP3    H137047   2.182   0.038   0.113
12368TIP3    H237048   2.307   0.121   0.132
12369TIP3   OH237049   0.700   7.705   5.295
12369TIP3    H137050   0.622   7.659   5.326
12369TIP3    H237051   0.770   7.640   5.302
12370TIP3   OH237052   3.254   1.787   3.687
12370TIP3    H137053   3.218   1.699   3.677
12370TIP3    H237054   3.339   1.773   3.730
12371TIP3   OH237055   0.657   1.895   5.678
12371TIP3    H137056   0.748   1.878   5.702
12371TIP3    H237057   0.607   1.879   5.758
12372TIP3   OH237058   5.315   1.865   2.836
12372TIP3    H137059   5.345   1.951   2.806
12372TIP3    H237060   5.225   1.859   2.804
12373TIP3   OH237061   3.123   7.275   1.838
12373TIP3    H137062   3.064   7.326   1.894
12373TIP3    H237063   3.093   7.293   1.749
12374TIP3   OH237064   4.407   6.245   1.800
12374TIP3    H137065   4.391   6.201   1.884
12374TIP3    H237066   4.470   6.188   1.755
12375TIP3   OH237067   4.787   0.015   5.651
12375TIP3    H137068   4.865  -0.008   5.600
12375TIP3    H237069   4.714  -0.023   5.603
12376TIP3   OH237070   5.580   3.036   0.402
12376TIP3    H137071   5.535   2.984   0.469
12376TIP3    H237072   5.522   3.032   0.326
12377TIP3   OH237073   1.580   5.754   0.028
12377TIP3    H137074   1.529   5.715   0.099
12377TIP3    H237075   1.669   5.759   0.063
12378TIP3   OH237076   1.660   5.053   6.608
12378TIP3    H137077   1.686   5.015   6.692
12378TIP3    H237078   1.740   5.090   6.572
12379TIP3   OH237079   3.029   5.791  -0.059
12379TIP3    H137080   3.046   5.756   0.028
12379TIP3    H237081   3.003   5.882  -0.044
12380TIP3   OH237082   4.246   5.024   1.640
12380TIP3    H137083   4.163   4.999   1.681
12380TIP3    H237084   4.229   5.020   1.546
12381TIP3   OH237085   3.616   3.379   5.303
12381TIP3    H137086   3.601   3.452   5.244
12381TIP3    H237087   3.680   3.412   5.366
12382TIP3   OH237088   2.711   7.732   0.766
12382TIP3    H137089   2.781   7.668   0.773
12382TIP3    H237090   2.669   7.731   0.852
12383TIP3   OH237091   2.913   7.460   1.943
12383TIP3    H137092   2.864   7.382   1.968
12383TIP3    H237093   2.887   7.527   2.006
12384TIP3   OH237094   3.306   3.107   3.125
12384TIP3    H137095   3.316   3.012   3.133
12384TIP3    H237096   3.325   3.126   3.033
12385TIP3   OH237097   7.968   2.015   2.834
12385TIP3    H137098   8.026   1.953   2.879
12385TIP3    H237099   7.881   1.993   2.865
12386TIP3   OH237100   3.824   4.967   0.515
12386TIP3    H137101   3.755   4.980   0.450
12386TIP3    H237102   3.868   4.887   0.487
12387TIP3   OH237103   5.097   4.777   0.875
12387TIP3    H137104   5.021   4.746   0.825
12387TIP3    H237105   5.147   4.830   0.813
12388TIP3   OH237106   1.383   4.193   5.160
12388TIP3    H137107   1.398   4.225   5.249
12388TIP3    H237108   1.288   4.177   5.156
12389TIP3   OH237109   4.226   0.569   6.164
12389TIP3    H137110   4.212   0.524   6.247
12389TIP3    H237111   4.302   0.625   6.179
12390TIP3   OH237112   2.127   5.456   4.018
12390TIP3    H137113   2.038   5.426   4.000
12390TIP3    H237114   2.135   5.539   3.970
12391TIP3   OH237115   1.063   7.796   5.390
12391TIP3    H137116   1.111   7.817   5.310
12391TIP3    H237117   0.997   7.731   5.362
12392TIP3   OH237118   3.580   3.787   6.135
12392TIP3    H137119   3.586   3.790   6.040
12392TIP3    H237120   3.486   3.780   6.153
12393TIP3   OH237121   1.460   3.876   0.253
12393TIP3    H137122   1.471   3.879   0.158
12393TIP3    H237123   1.510   3.951   0.285
12394TIP3   OH237124   4.908   6.010   2.368
12394TIP3    H137125   4.912   5.949   2.294
12394TIP3    H237126   4.815   6.030   2.378
12395TIP3   OH237127   8.228   2.128   3.268
12395TIP3    H137128   8.144   2.089   3.244
12395TIP3    H237129   8.278   2.129   3.186
12396TIP3   OH237130   0.954   0.918   4.627
12396TIP3    H137131   1.004   0.853   4.678
12396TIP3    H237132   0.983   0.904   4.536
12397TIP3   OH237133   6.992   0.769   2.229
12397TIP3    H137134   6.912   0.725   2.202
12397TIP3    H237135   7.050   0.699   2.258
12398TIP3   OH237136   3.039   3.735   6.329
12398TIP3    H137137   3.129   3.701   6.327
12398TIP3    H237138   3.042   3.813   6.274
12399TIP3   OH237139   3.129   6.614   1.544
12399TIP3    H137140   3.098   6.686   1.599
12399TIP3    H237141   3.216   6.594   1.577
12400TIP3   OH237142   4.961   0.239   6.211
12400TIP3    H137143   5.050   0.256   6.241
12400TIP3    H237144   4.936   0.317   6.162
12401TIP3   OH237145   2.543   2.291   4.068
12401TIP3    H137146   2.615   2.227   4.063
12401TIP3    H237147   2.483   2.266   3.998
12402TIP3   OH237148   4.154   6.746   6.573
12402TIP3    H137149   4.245   6.766   6.595
12402TIP3    H237150   4.103   6.805   6.628
12403TIP3   OH237151   6.329   5.404   1.858
12403TIP3    H137152   6.345   5.404   1.763
12403TIP3    H237153   6.245   5.448   1.868
12404TIP3   OH237154   1.902   4.222   1.341
12404TIP3    H137155   1.931   4.313   1.344
12404TIP3    H237156   1.900   4.195   1.433
12405TIP3   OH237157   2.775   3.389   2.230
12405TIP3    H137158   2.779   3.297   2.206
12405TIP3    H237159   2.849   3.402   2.289
12406TIP3   OH237160   7.773   3.823   6.393
12406TIP3    H137161   7.720   3.890   6.436
12406TIP3    H237162   7.806   3.768   6.465
12407TIP3   OH237163   6.862   7.362   0.394
12407TIP3    H137164   6.881   7.423   0.465
12407TIP3    H237165   6.853   7.417   0.316
12408TIP3   OH237166   5.062   0.994   3.809
12408TIP3    H137167   5.076   0.935   3.883
12408TIP3    H237168   5.124   1.066   3.824
12409TIP3   OH237169   1.537   0.125   3.402
12409TIP3    H137170   1.458   0.121   3.349
12409TIP3    H237171   1.597   0.064   3.360
12410TIP3   OH237172   0.961   0.805   1.585
12410TIP3    H137173   1.042   0.781   1.539
12410TIP3    H237174   0.912   0.857   1.522
12411TIP3   OH237175   7.689   4.664   4.042
12411TIP3    H137176   7.695   4.581   3.996
12411TIP3    H237177   7.630   4.717   3.989
12412TIP3   OH237178   3.930   1.553   1.242
12412TIP3    H137179   3.855   1.500   1.216
12412TIP3    H237180   3.913   1.640   1.205
12413TIP3   OH237181   5.678   6.815   3.116
12413TIP3    H137182   5.669   6.778   3.204
12413TIP3    H237183   5.720   6.900   3.130
12414TIP3   OH237184   6.498   4.375   0.112
12414TIP3    H137185   6.582   4.332   0.127
12414TIP3    H237186   6.519   4.469   0.113
12415TIP3   OH237187   5.075   4.917   5.020
12415TIP3    H137188   5.057   4.824   5.035
12415TIP3    H237189   5.010   4.963   5.072
12416TIP3   OH237190   5.703   0.942   3.995
12416TIP3    H137191   5.610   0.960   3.982
12416TIP3    H237192   5.708   0.898   4.079
12417TIP3   OH237193   3.267   0.748   0.132
12417TIP3    H137194   3.313   0.722   0.213
12417TIP3    H237195   3.208   0.817   0.159
12418TIP3   OH237196   5.325   4.371   2.282
12418TIP3    H137197   5.414   4.345   2.306
12418TIP3    H237198   5.285   4.397   2.366
12419TIP3   OH237199   1.460   0.419   1.690
12419TIP3    H137200   1.393   0.479   1.659
12419TIP3    H237201   1.480   0.364   1.614
12420TIP3   OH237202   7.948  -0.005   2.417
12420TIP3    H137203   7.878   0.059   2.433
12420TIP3    H237204   8.003   0.001   2.494
12421TIP3   OH237205   7.527   2.178   2.608
12421TIP3    H137206   7.525   2.091   2.568
12421TIP3    H237207   7.579   2.231   2.547
12422TIP3   OH237208   3.998   3.563   0.411
12422TIP3    H137209   3.934   3.569   0.482
12422TIP3    H237210   4.047   3.483   0.430
12423TIP3   OH237211   3.360   3.782   3.968
12423TIP3    H137212   3.339   3.775   3.875
12423TIP3    H237213   3.452   3.809   3.970
12424TIP3   OH237214   7.702   5.562   1.432
12424TIP3    H137215   7.689   5.649   1.395
12424TIP3    H237216   7.638   5.556   1.503
12425TIP3   OH237217   2.480   7.594   3.876
12425TIP3    H137218   2.393   7.633   3.885
12425TIP3    H237219   2.539   7.669   3.868
12426TIP3   OH237220   1.459   0.220   2.597
12426TIP3    H137221   1.494   0.131   2.597
12426TIP3    H237222   1.439   0.239   2.505
12427TIP3   OH237223   6.495   4.195   5.931
12427TIP3    H137224   6.438   4.233   5.998
12427TIP3    H237225   6.494   4.101   5.950
12428TIP3   OH237226   1.525   0.999   6.752
12428TIP3    H137227   1.536   0.985   6.657
12428TIP3    H237228   1.430   1.002   6.764
12429TIP3   OH237229   3.656   6.565   1.686
12429TIP3    H137230   3.710   6.643   1.698
12429TIP3    H237231   3.646   6.528   1.773
12430TIP3   OH237232   6.596   6.965   1.069
12430TIP3    H137233   6.628   7.042   1.022
12430TIP3    H237234   6.574   6.997   1.156
12431TIP3   OH237235   0.099   7.549   1.675
12431TIP3    H137236   0.090   7.474   1.616
12431TIP3    H237237   0.097   7.512   1.763
12432TIP3   OH237238   5.086   4.013   3.372
12432TIP3    H137239   5.162   4.019   3.314
12432TIP3    H237240   5.122   4.027   3.460
12433TIP3   OH237241   6.279   7.431   3.400
12433TIP3    H137242   6.197   7.387   3.380
12433TIP3    H237243   6.252   7.515   3.437
12434TIP3   OH237244   2.441   2.274   2.273
12434TIP3    H137245   2.511   2.273   2.338
12434TIP3    H237246   2.413   2.183   2.265
12435TIP3   OH237247   5.163   3.878   5.772
12435TIP3    H137248   5.226   3.940   5.734
12435TIP3    H237249   5.091   3.877   5.710
12436TIP3   OH237250   3.539   1.137   6.619
12436TIP3    H137251   3.613   1.086   6.652
12436TIP3    H237252   3.524   1.204   6.686
12437TIP3   OH237253   1.799   5.174   3.483
12437TIP3    H137254   1.894   5.167   3.477
12437TIP3    H237255   1.783   5.226   3.562
12438TIP3   OH237256   2.972   4.905   1.283
12438TIP3    H137257   2.977   4.842   1.355
12438TIP3    H237258   3.049   4.961   1.294
12439TIP3   OH237259   4.808   2.537   1.679
12439TIP3    H137260   4.855   2.464   1.638
12439TIP3    H237261   4.874   2.582   1.731
12440TIP3   OH237262   1.454   0.929   4.818
12440TIP3    H137263   1.454   0.895   4.728
12440TIP3    H237264   1.492   0.858   4.870
12441TIP3   OH237265   0.626   6.331   3.052
12441TIP3    H137266   0.560   6.288   3.106
12441TIP3    H237267   0.702   6.273   3.056
12442TIP3   OH237268   2.871   5.167   2.659
12442TIP3    H137269   2.899   5.194   2.747
12442TIP3    H237270   2.885   5.244   2.605
12443TIP3   OH237271   5.130   4.153   5.585
12443TIP3    H137272   5.146   4.141   5.492
12443TIP3    H237273   5.209   4.117   5.627
12444TIP3   OH237274   6.529   2.470   4.244
12444TIP3    H137275   6.557   2.448   4.155
12444TIP3    H237276   6.555   2.395   4.297
12445TIP3   OH237277   7.490   3.828   5.865
12445TIP3    H137278   7.460   3.853   5.953
12445TIP3    H237279   7.411   3.830   5.811
12446TIP3   OH237280   0.284   5.151   4.830
12446TIP3    H137281   0.260   5.242   4.848
12446TIP3    H237282   0.207   5.101   4.858
12447TIP3   OH237283   6.643   6.022   1.930
12447TIP3    H137284   6.625   5.941   1.882
12447TIP3    H237285   6.631   5.999   2.022
12448TIP3   OH237286   1.371   4.402   6.467
12448TIP3    H137287   1.348   4.441   6.551
12448TIP3    H237288   1.451   4.447   6.440
12449TIP3   OH237289   5.882   0.323   5.739
12449TIP3    H137290   5.869   0.231   5.717
12449TIP3    H237291   5.879   0.369   5.655
12450TIP3   OH237292   8.105   3.199   3.370
12450TIP3    H137293   8.134   3.151   3.293
12450TIP3    H237294   8.181   3.201   3.428
12451TIP3   OH237295   0.177   1.332   6.648
12451TIP3    H137296   0.226   1.250   6.641
12451TIP3    H237297   0.127   1.337   6.567
12452TIP3   OH237298   3.327   4.471   2.650
12452TIP3    H137299   3.320   4.503   2.740
12452TIP3    H237300   3.258   4.516   2.602
12453TIP3   OH237301   0.773   7.236   1.891
12453TIP3    H137302   0.738   7.187   1.966
12453TIP3    H237303   0.868   7.230   1.901
12454TIP3   OH237304   6.590   3.885   2.593
12454TIP3    H137305   6.644   3.850   2.522
12454TIP3    H237306   6.567   3.809   2.645
12455TIP3   OH237307   3.258   5.658   6.519
12455TIP3    H137308   3.225   5.590   6.460
12455TIP3    H237309   3.186   5.720   6.527
12456TIP3   OH237310   3.430   4.039   1.152
12456TIP3    H137311   3.503   3.978   1.140
12456TIP3    H237312   3.376   4.027   1.074
12457TIP3   OH237313   4.261   7.306   1.492
12457TIP3    H137314   4.327   7.316   1.423
12457TIP3    H237315   4.312   7.306   1.573
12458TIP3   OH237316   4.539   4.264   3.219
12458TIP3    H137317   4.633   4.280   3.226
12458TIP3    H237318   4.532   4.173   3.192
12459TIP3   OH237319   4.332   2.138   6.560
12459TIP3    H137320   4.366   2.215   6.514
12459TIP3    H237321   4.265   2.172   6.619
12460TIP3   OH237322   7.828   1.307   5.212
12460TIP3    H137323   7.916   1.269   5.216
12460TIP3    H237324   7.815   1.327   5.119
12461TIP3   OH237325   3.947   3.446   5.100
12461TIP3    H137326   3.989   3.421   5.182
12461TIP3    H237327   4.008   3.416   5.032
12462TIP3   OH237328   3.473   2.885   5.429
12462TIP3    H137329   3.517   2.909   5.347
12462TIP3    H237330   3.384   2.860   5.402
12463TIP3   OH237331   0.123   2.150   4.686
12463TIP3    H137332   0.031   2.153   4.660
12463TIP3    H237333   0.165   2.220   4.635
12464TIP3   OH237334   6.814   2.432   4.824
12464TIP3    H137335   6.731   2.408   4.866
12464TIP3    H237336   6.858   2.486   4.890
12465TIP3   OH237337   0.201   2.624   1.823
12465TIP3    H137338   0.236   2.714   1.827
12465TIP3    H237339   0.202   2.602   1.730
12466TIP3   OH237340   5.212   4.020   1.199
12466TIP3    H137341   5.128   3.980   1.219
12466TIP3    H237342   5.235   4.070   1.277
12467TIP3   OH237343   2.402   2.025   0.207
12467TIP3    H137344   2.391   1.973   0.287
12467TIP3    H237345   2.468   2.090   0.230
12468TIP3   OH237346   1.935   7.128   4.009
12468TIP3    H137347   1.854   7.174   4.032
12468TIP3    H237348   1.964   7.087   4.090
12469TIP3   OH237349   7.983   6.382   0.373
12469TIP3    H137350   7.901   6.351   0.413
12469TIP3    H237351   8.036   6.410   0.447
12470TIP3   OH237352   8.085   4.268   3.304
12470TIP3    H137353   8.133   4.208   3.362
12470TIP3    H237354   8.059   4.340   3.361
12471TIP3   OH237355   4.651   0.923   1.498
12471TIP3    H137356   4.738   0.940   1.536
12471TIP3    H237357   4.668   0.862   1.426
12472TIP3   OH237358   6.997   0.866   4.449
12472TIP3    H137359   6.981   0.825   4.534
12472TIP3    H237360   6.967   0.802   4.385
12473TIP3   OH237361   1.895   5.042   2.097
12473TIP3    H137362   1.829   5.024   2.030
12473TIP3    H237363   1.855   5.110   2.151
12474TIP3   OH237364   4.347   7.055   4.093
12474TIP3    H137365   4.358   7.129   4.033
12474TIP3    H237366   4.260   7.020   4.074
12475TIP3   OH237367   8.268   5.719   4.908
12475TIP3    H137368   8.198   5.778   4.939
12475TIP3    H237369   8.315   5.694   4.988
12476TIP3   OH237370   6.684   3.431   4.770
12476TIP3    H137371   6.712   3.498   4.832
12476TIP3    H237372   6.676   3.351   4.823
12477TIP3   OH237373   7.765   2.037   5.061
12477TIP3    H137374   7.681   2.076   5.083
12477TIP3    H237375   7.767   2.036   4.965
12478TIP3   OH237376   0.082   6.772   4.973
12478TIP3    H137377   0.010   6.820   4.931
12478TIP3    H237378   0.039   6.697   5.015
12479TIP3   OH237379   1.790   1.682   3.453
12479TIP3    H137380   1.881   1.709   3.437
12479TIP3    H237381   1.765   1.633   3.374
12480TIP3   OH237382   5.913   0.747   4.950
12480TIP3    H137383   5.841   0.723   4.892
12480TIP3    H237384   5.967   0.806   4.898
12481TIP3   OH237385   3.567   3.210   5.097
12481TIP3    H137386   3.528   3.271   5.035
12481TIP3    H237387   3.616   3.266   5.158
12482TIP3   OH237388   1.464   3.108   4.954
12482TIP3    H137389   1.416   3.140   4.878
12482TIP3    H237390   1.557   3.114   4.929
12483TIP3   OH237391   0.415   2.170   1.561
12483TIP3    H137392   0.490   2.111   1.569
12483TIP3    H237393   0.364   2.154   1.641
12484TIP3   OH237394   0.685   2.661   2.928
12484TIP3    H137395   0.771   2.650   2.968
12484TIP3    H237396   0.627   2.606   2.981
12485TIP3   OH237397   6.697   2.332   1.074
12485TIP3    H137398   6.622   2.347   1.131
12485TIP3    H237399   6.708   2.237   1.074
12486TIP3   OH237400   7.532   7.382   3.608
12486TIP3    H137401   7.568   7.463   3.572
12486TIP3    H237402   7.437   7.395   3.607
12487TIP3   OH237403   6.696   4.828   2.180
12487TIP3    H137404   6.774   4.774   2.165
12487TIP3    H237405   6.636   4.803   2.110
12488TIP3   OH237406   7.256   1.164   3.984
12488TIP3    H137407   7.272   1.258   3.982
12488TIP3    H237408   7.170   1.155   4.026
12489TIP3   OH237409   6.747   1.974   3.373
12489TIP3    H137410   6.791   2.023   3.442
12489TIP3    H237411   6.811   1.908   3.346
12490TIP3   OH237412   3.915   3.468   2.042
12490TIP3    H137413   3.956   3.392   2.084
12490TIP3    H237414   3.821   3.453   2.050
12491TIP3   OH237415   2.685   6.025   0.485
12491TIP3    H137416   2.637   5.945   0.506
12491TIP3    H237417   2.646   6.092   0.541
12492TIP3   OH237418   1.559   6.031   4.762
12492TIP3    H137419   1.528   5.988   4.682
12492TIP3    H237420   1.653   6.046   4.746
12493TIP3   OH237421   0.915   6.921   3.084
12493TIP3    H137422   0.846   6.907   3.149
12493TIP3    H237423   0.908   6.845   3.026
12494TIP3   OH237424   1.834   1.062   4.296
12494TIP3    H137425   1.857   0.984   4.245
12494TIP3    H237426   1.911   1.078   4.351
12495TIP3   OH237427   6.677   4.844   3.845
12495TIP3    H137428   6.600   4.803   3.886
12495TIP3    H237429   6.640   4.913   3.789
12496TIP3   OH237430   7.234   7.567   5.841
12496TIP3    H137431   7.153   7.528   5.809
12496TIP3    H237432   7.281   7.495   5.882
12497TIP3   OH237433   7.214   4.041   1.898
12497TIP3    H137434   7.288   4.001   1.852
12497TIP3    H237435   7.211   3.996   1.982
12498TIP3   OH237436   5.609   5.506   4.792
12498TIP3    H137437   5.521   5.535   4.769
12498TIP3    H237438   5.613   5.414   4.765
12499TIP3   OH237439   3.036   0.504   1.710
12499TIP3    H137440   3.116   0.503   1.762
12499TIP3    H237441   3.055   0.449   1.634
12500TIP3   OH237442   7.078   6.354   4.629
12500TIP3    H137443   7.061   6.432   4.577
12500TIP3    H237444   7.020   6.363   4.705
12501TIP3   OH237445   6.463   1.246   1.803
12501TIP3    H137446   6.401   1.175   1.819
12501TIP3    H237447   6.410   1.314   1.762
12502TIP3   OH237448   5.403   1.471   1.784
12502TIP3    H137449   5.405   1.409   1.711
12502TIP3    H237450   5.417   1.556   1.744
12503TIP3   OH237451   4.776   1.035   3.248
12503TIP3    H137452   4.871   1.042   3.259
12503TIP3    H237453   4.742   1.120   3.279
12504TIP3   OH237454   2.729   3.127   0.528
12504TIP3    H137455   2.786   3.050   0.537
12504TIP3    H237456   2.642   3.095   0.550
12505TIP3   OH237457   6.912   3.273   1.405
12505TIP3    H137458   6.969   3.196   1.405
12505TIP3    H237459   6.937   3.322   1.483
12506TIP3   OH237460   1.219   1.425   5.748
12506TIP3    H137461   1.287   1.362   5.771
12506TIP3    H237462   1.163   1.378   5.685
12507TIP3   OH237463   6.923   1.101   3.996
12507TIP3    H137464   6.896   1.019   3.955
12507TIP3    H237465   6.919   1.166   3.926
12508TIP3   OH237466   1.411   7.226   6.034
12508TIP3    H137467   1.492   7.225   6.086
12508TIP3    H237468   1.441   7.222   5.943
12509TIP3   OH237469   0.119   4.259   1.570
12509TIP3    H137470   0.110   4.306   1.653
12509TIP3    H237471   0.071   4.177   1.584
12510TIP3   OH237472   5.675   1.192   0.147
12510TIP3    H137473   5.611   1.130   0.182
12510TIP3    H237474   5.649   1.205   0.056
12511TIP3   OH237475   5.348   7.148   3.117
12511TIP3    H137476   5.376   7.077   3.175
12511TIP3    H237477   5.257   7.165   3.141
12512TIP3   OH237478   0.539   7.241   0.596
12512TIP3    H137479   0.604   7.171   0.604
12512TIP3    H237480   0.563   7.304   0.664
12513TIP3   OH237481   4.252   1.558   0.656
12513TIP3    H137482   4.229   1.648   0.682
12513TIP3    H237483   4.207   1.545   0.573
12514TIP3   OH237484   1.870   1.036   2.183
12514TIP3    H137485   1.859   0.981   2.105
12514TIP3    H237486   1.799   1.008   2.241
12515TIP3   OH237487   1.614   2.033   3.044
12515TIP3    H137488   1.626   1.950   2.999
12515TIP3    H237489   1.633   2.014   3.136
12516TIP3   OH237490   5.740   6.239   0.874
12516TIP3    H137491   5.758   6.159   0.923
12516TIP3    H237492   5.662   6.275   0.916
12517TIP3   OH237493   0.496   3.609   5.786
12517TIP3    H137494   0.555   3.654   5.846
12517TIP3    H237495   0.554   3.571   5.720
12518TIP3   OH237496   0.831   1.213   1.416
12518TIP3    H137497   0.868   1.287   1.466
12518TIP3    H237498   0.820   1.248   1.328
12519TIP3   OH237499   5.222   4.405   6.471
12519TIP3    H137500   5.262   4.489   6.450
12519TIP3    H237501   5.205   4.409   6.565
12520TIP3   OH237502   3.971   3.825   6.445
12520TIP3    H137503   3.894   3.861   6.489
12520TIP3    H237504   3.939   3.747   6.399
12521TIP3   OH237505   2.635   4.941   2.959
12521TIP3    H137506   2.622   5.034   2.944
12521TIP3    H237507   2.662   4.935   3.051
12522TIP3   OH237508   3.156   2.571   1.449
12522TIP3    H137509   3.161   2.492   1.502
12522TIP3    H237510   3.071   2.609   1.472
12523TIP3   OH237511   6.203   6.322   5.678
12523TIP3    H137512   6.225   6.385   5.747
12523TIP3    H237513   6.248   6.356   5.600
12524TIP3   OH237514   1.897   3.490   5.849
12524TIP3    H137515   1.931   3.460   5.765
12524TIP3    H237516   1.833   3.423   5.874
12525TIP3   OH237517   5.781   6.026   2.116
12525TIP3    H137518   5.785   5.975   2.035
12525TIP3    H237519   5.805   5.963   2.185
12526TIP3   OH237520   6.430   0.366   5.299
12526TIP3    H137521   6.466   0.377   5.211
12526TIP3    H237522   6.505   0.345   5.354
12527TIP3   OH237523   5.573   1.983   1.874
12527TIP3    H137524   5.483   1.962   1.897
12527TIP3    H237525   5.624   1.908   1.905
12528TIP3   OH237526   7.772   1.622   2.003
12528TIP3    H137527   7.708   1.569   2.050
12528TIP3    H237528   7.856   1.579   2.021
12529TIP3   OH237529   3.895   6.647   3.556
12529TIP3    H137530   3.859   6.658   3.468
12529TIP3    H237531   3.906   6.736   3.590
12530TIP3   OH237532   2.793   5.026   6.425
12530TIP3    H137533   2.822   5.047   6.336
12530TIP3    H237534   2.872   4.995   6.469
12531TIP3   OH237535   4.366   4.683   2.368
12531TIP3    H137536   4.348   4.591   2.348
12531TIP3    H237537   4.280   4.720   2.388
12532TIP3   OH237538   2.231   2.369   5.706
12532TIP3    H137539   2.224   2.325   5.790
12532TIP3    H237540   2.317   2.410   5.707
12533TIP3   OH237541   1.843   3.949   4.861
12533TIP3    H137542   1.792   4.007   4.805
12533TIP3    H237543   1.933   3.958   4.829
12534TIP3   OH237544   3.868   4.267   6.676
12534TIP3    H137545   3.945   4.216   6.652
12534TIP3    H237546   3.867   4.267   6.771
12535TIP3   OH237547   2.121   6.946   5.510
12535TIP3    H137548   2.105   6.853   5.525
12535TIP3    H237549   2.034   6.986   5.517
12536TIP3   OH237550   5.656   0.373   4.414
12536TIP3    H137551   5.699   0.451   4.379
12536TIP3    H237552   5.704   0.300   4.377
12537TIP3   OH237553   2.622   0.715   0.636
12537TIP3    H137554   2.653   0.805   0.641
12537TIP3    H237555   2.698   0.662   0.658
12538TIP3   OH237556   5.665   6.478   3.879
12538TIP3    H137557   5.694   6.545   3.941
12538TIP3    H237558   5.747   6.442   3.843
12539TIP3   OH237559   5.326   5.277   2.954
12539TIP3    H137560   5.348   5.291   2.862
12539TIP3    H237561   5.289   5.360   2.983
12540TIP3   OH237562   7.422   3.053   1.133
12540TIP3    H137563   7.405   2.963   1.164
12540TIP3    H237564   7.400   3.051   1.040
12541TIP3   OH237565   2.253   4.392   1.954
12541TIP3    H137566   2.281   4.339   2.029
12541TIP3    H237567   2.329   4.395   1.897
12542TIP3   OH237568   3.299   1.381   6.502
12542TIP3    H137569   3.354   1.446   6.545
12542TIP3    H237570   3.361   1.330   6.449
12543TIP3   OH237571   1.056   6.225   5.406
12543TIP3    H137572   1.003   6.295   5.445
12543TIP3    H237573   1.136   6.269   5.378
12544TIP3   OH237574   6.712   2.454   0.319
12544TIP3    H137575   6.719   2.425   0.228
12544TIP3    H237576   6.618   2.448   0.338
12545TIP3   OH237577   5.702   2.197   2.777
12545TIP3    H137578   5.675   2.132   2.841
12545TIP3    H237579   5.751   2.148   2.711
12546TIP3   OH237580   4.107   3.636   4.550
12546TIP3    H137581   4.185   3.584   4.567
12546TIP3    H237582   4.058   3.633   4.633
12547TIP3   OH237583   3.675   6.974   5.996
12547TIP3    H137584   3.684   7.067   5.973
12547TIP3    H237585   3.580   6.961   6.003
12548TIP3   OH237586   4.923   4.234   1.134
12548TIP3    H137587   4.920   4.281   1.218
12548TIP3    H237588   4.850   4.172   1.139
12549TIP3   OH237589   2.345   2.345   1.279
12549TIP3    H137590   2.339   2.251   1.294
12549TIP3    H237591   2.255   2.376   1.284
12550TIP3   OH237592   0.141   5.961   4.121
12550TIP3    H137593   0.167   5.881   4.167
12550TIP3    H237594   0.210   6.024   4.143
12551TIP3   OH237595   4.945   0.265   4.496
12551TIP3    H137596   4.886   0.221   4.556
12551TIP3    H237597   4.940   0.358   4.519
12552TIP3   OH237598   0.758   2.473   3.894
12552TIP3    H137599   0.810   2.553   3.891
12552TIP3    H237600   0.691   2.485   3.826
12553TIP3   OH237601   2.401   3.679   0.918
12553TIP3    H137602   2.462   3.668   0.845
12553TIP3    H237603   2.448   3.733   0.982
12554TIP3   OH237604   8.203   0.866   4.273
12554TIP3    H137605   8.114   0.861   4.238
12554TIP3    H237606   8.212   0.789   4.328
12555TIP3   OH237607   4.040   3.651   5.303
12555TIP3    H137608   3.946   3.645   5.285
12555TIP3    H237609   4.078   3.577   5.254
12556TIP3   OH237610   4.609   5.530   0.445
12556TIP3    H137611   4.553   5.558   0.517
12556TIP3    H237612   4.617   5.607   0.389
12557TIP3   OH237613   2.492   1.417   4.113
12557TIP3    H137614   2.555   1.397   4.183
12557TIP3    H237615   2.499   1.343   4.053
12558TIP3   OH237616   0.842   3.558   1.893
12558TIP3    H137617   0.815   3.482   1.841
12558TIP3    H237618   0.763   3.613   1.897
12559TIP3   OH237619   3.625   1.608   2.049
12559TIP3    H137620   3.665   1.530   2.010
12559TIP3    H237621   3.699   1.659   2.082
12560TIP3   OH237622   3.084   7.280   0.018
12560TIP3    H137623   3.170   7.260  -0.018
12560TIP3    H237624   3.094   7.368   0.055
12561TIP3   OH237625   8.142  -0.005   2.995
12561TIP3    H137626   8.183  -0.049   2.920
12561TIP3    H237627   8.095   0.069   2.956
12562TIP3   OH237628   5.317   1.084   5.675
12562TIP3    H137629   5.361   1.070   5.591
12562TIP3    H237630   5.365   1.155   5.716
12563TIP3   OH237631   2.656   5.323   3.360
12563TIP3    H137632   2.569   5.293   3.333
12563TIP3    H237633   2.640   5.371   3.441
12564TIP3   OH237634   5.333   5.962   1.033
12564TIP3    H137635   5.376   5.931   1.113
12564TIP3    H237636   5.405   5.985   0.975
12565TIP3   OH237637   7.552   1.872   4.874
12565TIP3    H137638   7.568   1.785   4.837
12565TIP3    H237639   7.609   1.930   4.824
12566TIP3   OH237640   4.785   5.927   6.323
12566TIP3    H137641   4.793   5.993   6.392
12566TIP3    H237642   4.870   5.929   6.278
12567TIP3   OH237643   1.190   6.024   2.376
12567TIP3    H137644   1.169   5.931   2.385
12567TIP3    H237645   1.192   6.040   2.281
12568TIP3   OH237646   5.318   6.609   1.639
12568TIP3    H137647   5.398   6.592   1.590
12568TIP3    H237648   5.345   6.610   1.731
12569TIP3   OH237649   6.104   7.353   3.952
12569TIP3    H137650   6.080   7.372   4.042
12569TIP3    H237651   6.042   7.286   3.924
12570TIP3   OH237652   6.164   2.715   6.420
12570TIP3    H137653   6.163   2.691   6.327
12570TIP3    H237654   6.088   2.773   6.430
12571TIP3   OH237655   7.485   1.650   3.143
12571TIP3    H137656   7.505   1.605   3.225
12571TIP3    H237657   7.390   1.637   3.131
12572TIP3   OH237658   4.123   3.769   2.907
12572TIP3    H137659   4.031   3.761   2.884
12572TIP3    H237660   4.134   3.710   2.982
12573TIP3   OH237661   7.753   4.366   3.289
12573TIP3    H137662   7.832   4.412   3.316
12573TIP3    H237663   7.761   4.360   3.194
12574TIP3   OH237664   0.104   0.287   0.533
12574TIP3    H137665   0.113   0.380   0.554
12574TIP3    H237666   0.013   0.266   0.555
12575TIP3   OH237667   4.007   4.224   0.257
12575TIP3    H137668   4.021   4.273   0.176
12575TIP3    H237669   4.082   4.248   0.312
12576TIP3   OH237670   6.002   3.000   2.760
12576TIP3    H137671   5.954   3.028   2.837
12576TIP3    H237672   5.936   2.966   2.700
12577TIP3   OH237673   5.066   0.216   3.333
12577TIP3    H137674   5.087   0.164   3.410
12577TIP3    H237675   5.001   0.164   3.285
12578TIP3   OH237676   2.870   7.866   6.723
12578TIP3    H137677   2.844   7.774   6.732
12578TIP3    H237678   2.964   7.867   6.740
12579TIP3   OH237679   4.450   3.025   3.389
12579TIP3    H137680   4.446   3.007   3.483
12579TIP3    H237681   4.475   2.941   3.351
12580TIP3   OH237682   1.499   1.392   5.840
12580TIP3    H137683   1.491   1.460   5.773
12580TIP3    H237684   1.485   1.310   5.792
12581TIP3   OH237685   2.877   2.803   2.451
12581TIP3    H137686   2.876   2.808   2.547
12581TIP3    H237687   2.881   2.709   2.432
12582TIP3   OH237688   2.514   1.591   0.156
12582TIP3    H137689   2.497   1.553   0.242
12582TIP3    H237690   2.427   1.616   0.124
12583TIP3   OH237691   1.639   7.824   4.672
12583TIP3    H137692   1.630   7.767   4.748
12583TIP3    H237693   1.557   7.872   4.667
12584TIP3   OH237694   6.268   6.494   6.247
12584TIP3    H137695   6.230   6.435   6.182
12584TIP3    H237696   6.198   6.509   6.310
12585TIP3   OH237697   1.583   2.697   6.295
12585TIP3    H137698   1.498   2.725   6.329
12585TIP3    H237699   1.563   2.619   6.243
12586TIP3   OH237700   2.921   1.015   5.983
12586TIP3    H137701   2.940   0.924   5.959
12586TIP3    H237702   2.928   1.063   5.900
12587TIP3   OH237703   6.413   6.200   1.898
12587TIP3    H137704   6.371   6.219   1.983
12587TIP3    H237705   6.498   6.163   1.922
12588TIP3   OH237706   6.071   6.146   6.407
12588TIP3    H137707   6.118   6.229   6.413
12588TIP3    H237708   6.051   6.123   6.497
12589TIP3   OH237709   5.911   7.714   2.756
12589TIP3    H137710   5.834   7.765   2.730
12589TIP3    H237711   5.985   7.770   2.732
12590TIP3   OH237712   5.767   2.194   0.051
12590TIP3    H137713   5.758   2.099   0.059
12590TIP3    H237714   5.794   2.209  -0.039
12591TIP3   OH237715   4.096   6.310   5.090
12591TIP3    H137716   4.103   6.216   5.109
12591TIP3    H237717   4.002   6.327   5.091
12592TIP3   OH237718   0.622   5.337   2.721
12592TIP3    H137719   0.592   5.248   2.737
12592TIP3    H237720   0.610   5.382   2.805
12593TIP3   OH237721   6.398   5.190   2.964
12593TIP3    H137722   6.421   5.242   2.887
12593TIP3    H237723   6.482   5.160   2.999
12594TIP3   OH237724   1.746   3.288   2.565
12594TIP3    H137725   1.680   3.337   2.614
12594TIP3    H237726   1.704   3.205   2.544
12595TIP3   OH237727   2.704   7.376   6.224
12595TIP3    H137728   2.675   7.323   6.149
12595TIP3    H237729   2.758   7.317   6.275
12596TIP3   OH237730   2.137   0.089   4.009
12596TIP3    H137731   2.107   0.085   3.918
12596TIP3    H237732   2.058   0.103   4.060
12597TIP3   OH237733   5.697   5.072   0.267
12597TIP3    H137734   5.766   5.015   0.300
12597TIP3    H237735   5.736   5.160   0.267
12598TIP3   OH237736   0.218   0.905   3.746
12598TIP3    H137737   0.184   0.852   3.674
12598TIP3    H237738   0.294   0.856   3.778
12599TIP3   OH237739   8.036   5.281   4.743
12599TIP3    H137740   8.111   5.284   4.802
12599TIP3    H237741   8.052   5.351   4.680
12600TIP3   OH237742   8.211   5.526   4.685
12600TIP3    H137743   8.148   5.582   4.640
12600TIP3    H237744   8.237   5.575   4.763
12601TIP3   OH237745   8.229   3.076   6.387
12601TIP3    H137746   8.187   3.112   6.465
12601TIP3    H237747   8.166   3.013   6.353
12602TIP3   OH237748   6.457   0.129   2.159
12602TIP3    H137749   6.520   0.193   2.190
12602TIP3    H237750   6.375   0.154   2.201
12603TIP3   OH237751   0.985   5.773   2.974
12603TIP3    H137752   0.894   5.802   2.963
12603TIP3    H237753   1.026   5.791   2.889
12604TIP3   OH237754   6.784   5.568   0.802
12604TIP3    H137755   6.704   5.576   0.749
12604TIP3    H237756   6.806   5.475   0.799
12605TIP3   OH237757   0.388   6.374   1.982
12605TIP3    H137758   0.304   6.421   1.974
12605TIP3    H237759   0.378   6.319   2.059
12606TIP3   OH237760   6.650   5.636   2.749
12606TIP3    H137761   6.660   5.679   2.665
12606TIP3    H237762   6.690   5.696   2.812
12607TIP3   OH237763   8.000   7.340   1.613
12607TIP3    H137764   8.020   7.331   1.520
12607TIP3    H237765   7.920   7.290   1.625
12608TIP3   OH237766   6.234   6.785   0.460
12608TIP3    H137767   6.249   6.855   0.396
12608TIP3    H237768   6.171   6.727   0.417
12609TIP3   OH237769   2.152   6.762   3.162
12609TIP3    H137770   2.125   6.702   3.093
12609TIP3    H237771   2.074   6.774   3.216
12610TIP3   OH237772   4.611   6.606   6.647
12610TIP3    H137773   4.664   6.614   6.727
12610TIP3    H237774   4.538   6.666   6.660
12611TIP3   OH237775   5.544   7.545   2.197
12611TIP3    H137776   5.586   7.563   2.112
12611TIP3    H237777   5.454   7.574   2.185
12612TIP3   OH237778   4.974   5.760   1.018
12612TIP3    H137779   4.901   5.704   0.990
12612TIP3    H237780   5.025   5.704   1.078
12613TIP3   OH237781   4.444   5.410   5.204
12613TIP3    H137782   4.354   5.407   5.238
12613TIP3    H237783   4.437   5.372   5.116
12614TIP3   OH237784   7.683   6.873   3.257
12614TIP3    H137785   7.653   6.793   3.300
12614TIP3    H237786   7.606   6.931   3.258
12615TIP3   OH237787   2.826   1.966   1.968
12615TIP3    H137788   2.791   1.969   1.879
12615TIP3    H237789   2.912   2.008   1.961
12616TIP3   OH237790   5.594   4.443   3.280
12616TIP3    H137791   5.682   4.411   3.301
12616TIP3    H237792   5.537   4.368   3.296
12617TIP3   OH237793   1.364   0.871   4.233
12617TIP3    H137794   1.347   0.780   4.257
12617TIP3    H237795   1.445   0.867   4.181
12618TIP3   OH237796   2.713   5.120   2.124
12618TIP3    H137797   2.794   5.162   2.150
12618TIP3    H237798   2.688   5.163   2.042
12619TIP3   OH237799   3.222   4.460   1.612
12619TIP3    H137800   3.257   4.521   1.678
12619TIP3    H237801   3.299   4.419   1.574
12620TIP3   OH237802   8.237   0.382   2.420
12620TIP3    H137803   8.284   0.448   2.369
12620TIP3    H237804   8.188   0.432   2.485
12621TIP3   OH237805   7.362   2.714   4.112
12621TIP3    H137806   7.410   2.640   4.148
12621TIP3    H237807   7.318   2.753   4.188
12622TIP3   OH237808   5.286   0.527   1.181
12622TIP3    H137809   5.300   0.611   1.139
12622TIP3    H237810   5.245   0.473   1.114
12623TIP3   OH237811   6.558   4.805   0.807
12623TIP3    H137812   6.628   4.745   0.831
12623TIP3    H237813   6.482   4.775   0.857
12624TIP3   OH237814   6.512   5.974   3.491
12624TIP3    H137815   6.549   5.912   3.428
12624TIP3    H237816   6.581   6.038   3.506
12625TIP3   OH237817   4.758   4.739   3.441
12625TIP3    H137818   4.759   4.679   3.366
12625TIP3    H237819   4.824   4.805   3.420
12626TIP3   OH237820   2.067   1.614   1.349
12626TIP3    H137821   2.001   1.682   1.357
12626TIP3    H237822   2.150   1.660   1.354
12627TIP3   OH237823   8.285   3.711   4.504
12627TIP3    H137824   8.294   3.707   4.409
12627TIP3    H237825   8.201   3.755   4.519
12628TIP3   OH237826   6.867   5.950   0.808
12628TIP3    H137827   6.917   5.869   0.801
12628TIP3    H237828   6.933   6.019   0.812
12629TIP3   OH237829   6.109   6.030   4.188
12629TIP3    H137830   6.032   6.046   4.241
12629TIP3    H237831   6.171   6.099   4.213
12630TIP3   OH237832   1.531   1.443   1.375
12630TIP3    H137833   1.474   1.414   1.447
12630TIP3    H237834   1.481   1.513   1.333
12631TIP3   OH237835   2.673   3.500   1.984
12631TIP3    H137836   2.589   3.461   2.008
12631TIP3    H237837   2.731   3.481   2.058
12632TIP3   OH237838   4.760   7.348   1.204
12632TIP3    H137839   4.831   7.400   1.167
12632TIP3    H237840   4.800   7.301   1.277
12633TIP3   OH237841   0.141   2.931   6.523
12633TIP3    H137842   0.122   3.025   6.520
12633TIP3    H237843   0.101   2.895   6.444
12634TIP3   OH237844   0.805   1.311   6.573
12634TIP3    H137845   0.730   1.261   6.541
12634TIP3    H237846   0.860   1.324   6.496
12635TIP3   OH237847   8.299   5.053   4.547
12635TIP3    H137848   8.325   5.085   4.461
12635TIP3    H237849   8.235   4.985   4.530
12636TIP3   OH237850   3.492   0.190   2.623
12636TIP3    H137851   3.584   0.212   2.604
12636TIP3    H237852   3.491   0.094   2.624
12637TIP3   OH237853   7.114   6.007   3.284
12637TIP3    H137854   7.149   5.924   3.250
12637TIP3    H237855   7.186   6.069   3.276
12638TIP3   OH237856   3.329   7.121   1.405
12638TIP3    H137857   3.408   7.084   1.443
12638TIP3    H237858   3.326   7.211   1.439
12639TIP3   OH237859   0.910   5.781   2.593
12639TIP3    H137860   0.897   5.692   2.626
12639TIP3    H237861   0.953   5.769   2.508
12640TIP3   OH237862   5.008   0.542   4.199
12640TIP3    H137863   4.965   0.483   4.137
12640TIP3    H237864   4.943   0.557   4.267
12641TIP3   OH237865   0.632   1.481   0.421
12641TIP3    H137866   0.537   1.493   0.433
12641TIP3    H237867   0.644   1.480   0.326
12642TIP3   OH237868   7.115   5.754   4.302
12642TIP3    H137869   7.155   5.838   4.326
12642TIP3    H237870   7.190   5.695   4.290
12643TIP3   OH237871   2.163   1.076   0.137
12643TIP3    H137872   2.196   1.126   0.063
12643TIP3    H237873   2.094   1.132   0.174
12644TIP3   OH237874   1.252   7.563   5.909
12644TIP3    H137875   1.196   7.618   5.964
12644TIP3    H237876   1.293   7.625   5.848
12645TIP3   OH237877   0.211   1.135   4.494
12645TIP3    H137878   0.290   1.187   4.480
12645TIP3    H237879   0.238   1.045   4.479
12646TIP3   OH237880   3.147   4.170   6.000
12646TIP3    H137881   3.127   4.256   6.036
12646TIP3    H237882   3.139   4.181   5.906
12647TIP3   OH237883   5.223   5.922   5.557
12647TIP3    H137884   5.315   5.901   5.547
12647TIP3    H237885   5.221   5.993   5.621
12648TIP3   OH237886   5.243   3.785   5.369
12648TIP3    H137887   5.200   3.794   5.285
12648TIP3    H237888   5.308   3.855   5.371
12649TIP3   OH237889   7.478   3.802   2.306
12649TIP3    H137890   7.438   3.889   2.300
12649TIP3    H237891   7.408   3.746   2.339
12650TIP3   OH237892   2.608   1.227   1.133
12650TIP3    H137893   2.608   1.164   1.061
12650TIP3    H237894   2.697   1.262   1.134
12651TIP3   OH237895   4.173   5.672   4.262
12651TIP3    H137896   4.161   5.581   4.292
12651TIP3    H237897   4.089   5.714   4.281
12652TIP3   OH237898   0.659   5.969   3.952
12652TIP3    H137899   0.736   5.917   3.929
12652TIP3    H237900   0.690   6.060   3.953
12653TIP3   OH237901   6.925   6.881   3.312
12653TIP3    H137902   6.912   6.966   3.352
12653TIP3    H237903   6.936   6.900   3.218
12654TIP3   OH237904   4.196   4.236   2.093
12654TIP3    H137905   4.198   4.141   2.105
12654TIP3    H237906   4.169   4.248   2.002
12655TIP3   OH237907   0.009   5.676   4.066
12655TIP3    H137908   0.099   5.670   4.033
12655TIP3    H237909  -0.007   5.591   4.106
12656TIP3   OH237910   0.180   2.546   1.299
12656TIP3    H137911   0.211   2.626   1.341
12656TIP3    H237912   0.260   2.498   1.278
12657TIP3   OH237913   6.749   0.324   0.145
12657TIP3    H137914   6.754   0.414   0.114
12657TIP3    H237915   6.797   0.324   0.227
12658TIP3   OH237916   7.259   6.968   3.367
12658TIP3    H137917   7.276   6.938   3.278
12658TIP3    H237918   7.344   6.963   3.411
12659TIP3   OH237919   7.560   1.687   1.255
12659TIP3    H137920   7.546   1.710   1.347
12659TIP3    H237921   7.648   1.720   1.236
12660TIP3   OH237922   4.582   0.835   5.054
12660TIP3    H137923   4.611   0.857   4.965
12660TIP3    H237924   4.658   0.853   5.109
12661TIP3   OH237925   5.880   4.961   2.267
12661TIP3    H137926   5.975   4.965   2.261
12661TIP3    H237927   5.854   4.906   2.193
12662TIP3   OH237928   5.989   0.595   0.397
12662TIP3    H137929   6.019   0.682   0.373
12662TIP3    H237930   6.023   0.581   0.486
12663TIP3   OH237931   3.837   4.051   2.913
12663TIP3    H137932   3.916   4.055   2.968
12663TIP3    H237933   3.834   3.960   2.883
12664TIP3   OH237934   7.585   1.631   3.670
12664TIP3    H137935   7.638   1.663   3.743
12664TIP3    H237936   7.525   1.703   3.652
12665TIP3   OH237937   5.054   1.410   5.141
12665TIP3    H137938   4.997   1.418   5.064
12665TIP3    H237939   5.066   1.500   5.172
12666TIP3   OH237940   1.523   3.123   0.397
12666TIP3    H137941   1.556   3.196   0.448
12666TIP3    H237942   1.474   3.070   0.460
12667TIP3   OH237943   6.695   7.205   2.680
12667TIP3    H137944   6.724   7.255   2.756
12667TIP3    H237945   6.667   7.121   2.716
12668TIP3   OH237946   3.502   1.523   0.309
12668TIP3    H137947   3.547   1.591   0.258
12668TIP3    H237948   3.538   1.441   0.276
12669TIP3   OH237949   6.907   6.748   1.497
12669TIP3    H137950   6.855   6.694   1.557
12669TIP3    H237951   6.859   6.831   1.492
12670TIP3   OH237952   4.804   6.354   2.022
12670TIP3    H137953   4.725   6.360   2.077
12670TIP3    H237954   4.778   6.298   1.949
12671TIP3   OH237955   0.771   0.513   5.892
12671TIP3    H137956   0.774   0.528   5.987
12671TIP3    H237957   0.863   0.497   5.868
12672TIP3   OH237958   7.350   6.179   5.578
12672TIP3    H137959   7.335   6.124   5.655
12672TIP3    H237960   7.265   6.182   5.534
12673TIP3   OH237961   0.635   6.609   4.401
12673TIP3    H137962   0.664   6.676   4.338
12673TIP3    H237963   0.600   6.660   4.474
12674TIP3   OH237964   3.803   4.699   1.533
12674TIP3    H137965   3.883   4.682   1.582
12674TIP3    H237966   3.821   4.663   1.446
12675TIP3   OH237967   5.959   6.954   0.908
12675TIP3    H137968   6.005   7.033   0.877
12675TIP3    H237969   5.989   6.885   0.849
12676TIP3   OH237970   7.853   2.988   6.095
12676TIP3    H137971   7.759   2.993   6.077
12676TIP3    H237972   7.886   2.927   6.029
12677TIP3   OH237973   3.203   7.097   3.825
12677TIP3    H137974   3.299   7.097   3.828
12677TIP3    H237975   3.182   7.050   3.744
12678TIP3   OH237976   0.096   0.408   4.640
12678TIP3    H137977   0.156   0.461   4.693
12678TIP3    H237978   0.123   0.423   4.550
12679TIP3   OH237979   2.254   4.604   6.366
12679TIP3    H137980   2.323   4.585   6.302
12679TIP3    H237981   2.263   4.697   6.384
12680TIP3   OH237982   3.145   7.035   5.816
12680TIP3    H137983   3.078   7.025   5.883
12680TIP3    H237984   3.144   6.952   5.768
12681TIP3   OH237985   3.136   1.004   2.814
12681TIP3    H137986   3.123   0.996   2.909
12681TIP3    H237987   3.047   1.009   2.778
12682TIP3   OH237988   7.237   4.843   3.769
12682TIP3    H137989   7.142   4.834   3.766
12682TIP3    H237990   7.265   4.779   3.835
12683TIP3   OH237991   3.333   2.044   1.072
12683TIP3    H137992   3.270   2.070   1.139
12683TIP3    H237993   3.319   2.107   1.001
12684TIP3   OH237994   4.321   3.495   1.370
12684TIP3    H137995   4.407   3.486   1.328
12684TIP3    H237996   4.340   3.538   1.453
12685TIP3   OH237997   3.527   4.576   5.530
12685TIP3    H137998   3.492   4.506   5.585
12685TIP3    H237999   3.469   4.651   5.546
12686TIP3   OH238000   4.590   0.888   0.038
12686TIP3    H138001   4.503   0.857   0.015
12686TIP3    H238002   4.605   0.963  -0.020
12687TIP3   OH238003   3.292   4.789   5.493
12687TIP3    H138004   3.247   4.788   5.409
12687TIP3    H238005   3.236   4.843   5.549
12688TIP3   OH238006   5.368   5.925   2.717
12688TIP3    H138007   5.345   5.985   2.788
12688TIP3    H238008   5.326   5.962   2.640
12689TIP3   OH238009   3.714   1.292   2.077
12689TIP3    H138010   3.803   1.298   2.042
12689TIP3    H238011   3.727   1.275   2.171
12690TIP3   OH238012   2.391   5.974   6.565
12690TIP3    H138013   2.357   5.974   6.654
12690TIP3    H238014   2.342   6.044   6.521
12691TIP3   OH238015   4.216   7.775   5.068
12691TIP3    H138016   4.138   7.747   5.115
12691TIP3    H238017   4.285   7.774   5.133
12692TIP3   OH238018   7.106   3.285   4.335
12692TIP3    H138019   7.022   3.322   4.308
12692TIP3    H238020   7.151   3.265   4.253
12693TIP3   OH238021   5.310   1.873   5.297
12693TIP3    H138022   5.397   1.876   5.258
12693TIP3    H238023   5.257   1.933   5.244
12694TIP3   OH238024   7.889   7.801   5.732
12694TIP3    H138025   7.973   7.775   5.695
12694TIP3    H238026   7.839   7.719   5.737
12695TIP3   OH238027   3.892   6.062   3.990
12695TIP3    H138028   3.800   6.042   4.010
12695TIP3    H238029   3.919   6.122   4.059
12696TIP3   OH238030   5.249   2.449   3.111
12696TIP3    H138031   5.218   2.470   3.199
12696TIP3    H238032   5.340   2.477   3.110
12697TIP3   OH238033   6.465   6.982   1.835
12697TIP3    H138034   6.422   6.938   1.761
12697TIP3    H238035   6.398   6.985   1.903
12698TIP3   OH238036   3.742   2.517   6.125
12698TIP3    H138037   3.685   2.494   6.052
12698TIP3    H238038   3.808   2.448   6.128
12699TIP3   OH238039   3.470   2.374   2.381
12699TIP3    H138040   3.547   2.392   2.435
12699TIP3    H238041   3.421   2.456   2.381
12700TIP3   OH238042   8.071   7.535   4.952
12700TIP3    H138043   8.090   7.487   5.033
12700TIP3    H238044   8.019   7.474   4.900
12701TIP3   OH238045   3.325   3.186   5.903
12701TIP3    H138046   3.398   3.227   5.949
12701TIP3    H238047   3.330   3.094   5.927
12702TIP3   OH238048   6.916   3.477   1.918
12702TIP3    H138049   7.011   3.484   1.926
12702TIP3    H238050   6.896   3.387   1.945
12703TIP3   OH238051   1.587   6.453   1.721
12703TIP3    H138052   1.496   6.464   1.693
12703TIP3    H238053   1.639   6.485   1.647
12704TIP3   OH238054   2.293   6.345   0.670
12704TIP3    H138055   2.328   6.429   0.700
12704TIP3    H238056   2.211   6.367   0.627
12705TIP3   OH238057   1.522   5.385   2.956
12705TIP3    H138058   1.490   5.475   2.961
12705TIP3    H238059   1.541   5.361   3.046
12706TIP3   OH238060   1.097   1.257   1.862
12706TIP3    H138061   1.034   1.191   1.832
12706TIP3    H238062   1.150   1.211   1.927
12707TIP3   OH238063   5.197   3.112   1.997
12707TIP3    H138064   5.209   3.080   2.086
12707TIP3    H238065   5.261   3.063   1.945
12708TIP3   OH238066   3.461   7.522   4.173
12708TIP3    H138067   3.478   7.472   4.252
12708TIP3    H238068   3.372   7.500   4.148
12709TIP3   OH238069   5.591   1.118   0.534
12709TIP3    H138070   5.533   1.064   0.480
12709TIP3    H238071   5.540   1.198   0.549
12710TIP3   OH238072   1.210   7.510   3.046
12710TIP3    H138073   1.220   7.475   3.134
12710TIP3    H238074   1.271   7.458   2.993
12711TIP3   OH238075   1.796   3.729   2.189
12711TIP3    H138076   1.877   3.778   2.173
12711TIP3    H238077   1.804   3.700   2.280
12712TIP3   OH238078   0.943   6.314   1.075
12712TIP3    H138079   0.898   6.397   1.093
12712TIP3    H238080   0.939   6.266   1.158
12713TIP3   OH238081   3.453   1.193   6.153
12713TIP3    H138082   3.488   1.259   6.212
12713TIP3    H238083   3.413   1.128   6.211
12714TIP3   OH238084   0.398   5.430   3.113
12714TIP3    H138085   0.356   5.362   3.061
12714TIP3    H238086   0.469   5.461   3.056
12715TIP3   OH238087   8.055   4.050   4.124
12715TIP3    H138088   8.083   4.049   4.216
12715TIP3    H238089   7.963   4.078   4.128
12716TIP3   OH238090   6.880   6.053   6.212
12716TIP3    H138091   6.793   6.092   6.202
12716TIP3    H238092   6.910   6.084   6.298
12717TIP3   OH238093   3.890   2.536   1.119
12717TIP3    H138094   3.886   2.541   1.024
12717TIP3    H238095   3.881   2.626   1.149
12718TIP3   OH238096   5.476   6.585   0.856
12718TIP3    H138097   5.470   6.492   0.836
12718TIP3    H238098   5.474   6.590   0.952
12719TIP3   OH238099   5.759   2.096   4.975
12719TIP3    H138100   5.720   2.053   4.898
12719TIP3    H238101   5.853   2.076   4.968
12720TIP3   OH238102   2.791   0.638   1.088
12720TIP3    H138103   2.722   0.575   1.068
12720TIP3    H238104   2.834   0.601   1.166
12721TIP3   OH238105   6.557   0.815   3.361
12721TIP3    H138106   6.586   0.902   3.333
12721TIP3    H238107   6.579   0.757   3.288
12722TIP3   OH238108   8.300   4.698   1.361
12722TIP3    H138109   8.282   4.609   1.393
12722TIP3    H238110   8.285   4.693   1.267
12723TIP3   OH238111   3.496   2.801   2.812
12723TIP3    H138112   3.436   2.837   2.878
12723TIP3    H238113   3.581   2.840   2.834
12724TIP3   OH238114   1.638   3.501   5.076
12724TIP3    H138115   1.691   3.446   5.019
12724TIP3    H238116   1.664   3.591   5.053
12725TIP3   OH238117   3.065   2.023   4.381
12725TIP3    H138118   3.062   2.012   4.286
12725TIP3    H238119   3.093   1.937   4.414
12726TIP3   OH238120   7.312   5.568   4.306
12726TIP3    H138121   7.306   5.538   4.215
12726TIP3    H238122   7.403   5.594   4.317
12727TIP3   OH238123   2.621   4.027   3.802
12727TIP3    H138124   2.660   4.090   3.741
12727TIP3    H238125   2.597   3.952   3.747
12728TIP3   OH238126   0.602   5.607   1.653
12728TIP3    H138127   0.686   5.582   1.690
12728TIP3    H238128   0.545   5.531   1.669
12729TIP3   OH238129   6.256   5.088   4.015
12729TIP3    H138130   6.308   5.163   3.987
12729TIP3    H238131   6.245   5.100   4.109
12730TIP3   OH238132   5.899   4.108   2.628
12730TIP3    H138133   5.990   4.115   2.657
12730TIP3    H238134   5.868   4.198   2.625
12731TIP3   OH238135   6.401   1.781   2.686
12731TIP3    H138136   6.483   1.803   2.642
12731TIP3    H238137   6.361   1.715   2.630
12732TIP3   OH238138   3.985   7.145   6.699
12732TIP3    H138139   3.927   7.153   6.623
12732TIP3    H238140   3.934   7.182   6.772
12733TIP3   OH238141   5.712   3.720   3.698
12733TIP3    H138142   5.791   3.765   3.670
12733TIP3    H238143   5.656   3.789   3.734
12734TIP3   OH238144   2.855   2.431   2.930
12734TIP3    H138145   2.825   2.342   2.948
12734TIP3    H238146   2.926   2.446   2.992
12735TIP3   OH238147   6.019   1.953   1.110
12735TIP3    H138148   6.107   1.961   1.073
12735TIP3    H238149   5.964   2.007   1.053
12736TIP3   OH238150   4.526   3.944   1.694
12736TIP3    H138151   4.521   4.037   1.718
12736TIP3    H238152   4.603   3.911   1.741
12737TIP3   OH238153   3.245   5.869   1.347
12737TIP3    H138154   3.162   5.890   1.389
12737TIP3    H238155   3.225   5.795   1.290
12738TIP3   OH238156   6.243   4.252   6.602
12738TIP3    H138157   6.317   4.283   6.550
12738TIP3    H238158   6.210   4.176   6.554
12739TIP3   OH238159   6.129   3.603   3.647
12739TIP3    H138160   6.093   3.514   3.641
12739TIP3    H238161   6.143   3.630   3.556
12740TIP3   OH238162   7.762   4.591   1.257
12740TIP3    H138163   7.810   4.662   1.300
12740TIP3    H238164   7.738   4.626   1.172
12741TIP3   OH238165   6.600   1.901   5.910
12741TIP3    H138166   6.511   1.928   5.888
12741TIP3    H238167   6.648   1.906   5.827
12742TIP3   OH238168   3.219   3.422   0.228
12742TIP3    H138169   3.224   3.516   0.246
12742TIP3    H238170   3.125   3.404   0.224
12743TIP3   OH238171   4.666   4.857   1.482
12743TIP3    H138172   4.623   4.938   1.455
12743TIP3    H238173   4.627   4.836   1.567
12744TIP3   OH238174   2.661   3.409   5.364
12744TIP3    H138175   2.711   3.482   5.399
12744TIP3    H238176   2.713   3.331   5.383
12745TIP3   OH238177   1.893   1.531   6.662
12745TIP3    H138178   1.988   1.520   6.668
12745TIP3    H238179   1.861   1.445   6.635
12746TIP3   OH238180   0.190   4.281   4.844
12746TIP3    H138181   0.098   4.271   4.821
12746TIP3    H238182   0.192   4.352   4.908
12747TIP3   OH238183   5.630   6.889   5.459
12747TIP3    H138184   5.706   6.886   5.518
12747TIP3    H238185   5.558   6.918   5.515
12748TIP3   OH238186   4.942   4.698   4.077
12748TIP3    H138187   5.001   4.671   4.146
12748TIP3    H238188   4.895   4.618   4.052
12749TIP3   OH238189   8.301   0.874   2.201
12749TIP3    H138190   8.343   0.927   2.133
12749TIP3    H238191   8.332   0.912   2.283
12750TIP3   OH238192   1.223   1.527   6.263
12750TIP3    H138193   1.315   1.547   6.247
12750TIP3    H238194   1.225   1.445   6.312
12751TIP3   OH238195   1.067   5.441   6.515
12751TIP3    H138196   1.103   5.526   6.541
12751TIP3    H238197   0.975   5.445   6.541
12752TIP3   OH238198   1.377   4.038   3.563
12752TIP3    H138199   1.389   4.005   3.474
12752TIP3    H238200   1.396   4.132   3.557
12753TIP3   OH238201   6.334   1.579   0.261
12753TIP3    H138202   6.345   1.619   0.348
12753TIP3    H238203   6.244   1.597   0.237
12754TIP3   OH238204   1.341   2.625   4.998
12754TIP3    H138205   1.350   2.720   5.006
12754TIP3    H238206   1.427   2.591   5.022
12755TIP3   OH238207   7.766   1.022   1.050
12755TIP3    H138208   7.706   1.081   1.097
12755TIP3    H238209   7.806   0.969   1.119
12756TIP3   OH238210   3.632   0.412   6.632
12756TIP3    H138211   3.650   0.445   6.720
12756TIP3    H238212   3.544   0.443   6.613
12757TIP3   OH238213   6.040   6.526   4.314
12757TIP3    H138214   6.114   6.497   4.366
12757TIP3    H238215   6.051   6.621   4.307
12758TIP3   OH238216   6.391   5.177   0.556
12758TIP3    H138217   6.433   5.092   0.539
12758TIP3    H238218   6.461   5.231   0.593
12759TIP3   OH238219   6.010   0.556   3.276
12759TIP3    H138220   5.991   0.475   3.323
12759TIP3    H238221   5.925   0.601   3.269
12760TIP3   OH238222   6.456   1.647   6.674
12760TIP3    H138223   6.429   1.581   6.738
12760TIP3    H238224   6.476   1.597   6.595
12761TIP3   OH238225   4.854   0.481   6.122
12761TIP3    H138226   4.883   0.520   6.204
12761TIP3    H238227   4.901   0.529   6.054
12762TIP3   OH238228   6.179   0.085   1.020
12762TIP3    H138229   6.178   0.006   1.074
12762TIP3    H238230   6.271   0.105   1.007
12763TIP3   OH238231   5.302   2.209   4.161
12763TIP3    H138232   5.226   2.257   4.194
12763TIP3    H238233   5.325   2.148   4.231
12764TIP3   OH238234   3.349   4.137   4.174
12764TIP3    H138235   3.363   4.059   4.227
12764TIP3    H238236   3.409   4.127   4.100
12765TIP3   OH238237   3.855   6.386   1.195
12765TIP3    H138238   3.809   6.397   1.112
12765TIP3    H238239   3.786   6.364   1.258
12766TIP3   OH238240   2.364   4.250   2.232
12766TIP3    H138241   2.390   4.192   2.304
12766TIP3    H238242   2.439   4.307   2.219
12767TIP3   OH238243   1.859   1.557   4.633
12767TIP3    H138244   1.846   1.639   4.585
12767TIP3    H238245   1.927   1.578   4.697
12768TIP3   OH238246   1.273   4.977   3.973
12768TIP3    H138247   1.301   4.931   4.052
12768TIP3    H238248   1.274   4.910   3.904
12769TIP3   OH238249   5.144   0.905   1.163
12769TIP3    H138250   5.144   0.910   1.259
12769TIP3    H238251   5.207   0.971   1.135
12770TIP3   OH238252   3.383   6.808   3.524
12770TIP3    H138253   3.456   6.852   3.481
12770TIP3    H238254   3.325   6.879   3.552
12771TIP3   OH238255   1.814   3.411   3.805
12771TIP3    H138256   1.902   3.444   3.788
12771TIP3    H238257   1.790   3.363   3.725
12772TIP3   OH238258   8.253   2.356   4.866
12772TIP3    H138259   8.216   2.358   4.778
12772TIP3    H238260   8.180   2.377   4.924
12773TIP3   OH238261   6.058   3.743   6.501
12773TIP3    H138262   6.000   3.787   6.563
12773TIP3    H238263   6.144   3.778   6.520
12774TIP3   OH238264   6.676   6.245   1.507
12774TIP3    H138265   6.716   6.274   1.425
12774TIP3    H238266   6.600   6.193   1.479
12775TIP3   OH238267   7.954   1.801   4.901
12775TIP3    H138268   7.993   1.729   4.852
12775TIP3    H238269   8.020   1.870   4.900
12776TIP3   OH238270   1.246   0.775   1.468
12776TIP3    H138271   1.239   0.808   1.379
12776TIP3    H238272   1.318   0.826   1.507
12777TIP3   OH238273   2.465   6.115   1.286
12777TIP3    H138274   2.464   6.202   1.246
12777TIP3    H238275   2.392   6.116   1.347
12778TIP3   OH238276   7.609   6.505   2.790
12778TIP3    H138277   7.677   6.467   2.847
12778TIP3    H238278   7.561   6.565   2.847
12779TIP3   OH238279   1.538   5.754   5.858
12779TIP3    H138280   1.508   5.716   5.776
12779TIP3    H238281   1.494   5.839   5.864
12780TIP3   OH238282   6.858   2.721   2.347
12780TIP3    H138283   6.909   2.648   2.312
12780TIP3    H238284   6.891   2.734   2.436
12781TIP3   OH238285   3.069   4.880   4.594
12781TIP3    H138286   3.094   4.970   4.573
12781TIP3    H238287   3.140   4.847   4.649
12782TIP3   OH238288   0.692   3.837   6.425
12782TIP3    H138289   0.665   3.838   6.517
12782TIP3    H238290   0.641   3.906   6.384
12783TIP3   OH238291   8.098   1.606   4.759
12783TIP3    H138292   8.074   1.517   4.733
12783TIP3    H238293   8.166   1.632   4.696
12784TIP3   OH238294   7.564   5.044   0.004
12784TIP3    H138295   7.538   5.033  -0.087
12784TIP3    H238296   7.617   4.967   0.024
12785TIP3   OH238297   5.005   6.888   0.297
12785TIP3    H138298   5.001   6.929   0.384
12785TIP3    H238299   5.004   6.794   0.315
12786TIP3   OH238300   4.151   2.441   6.662
12786TIP3    H138301   4.149   2.502   6.735
12786TIP3    H238302   4.239   2.450   6.625
12787TIP3   OH238303   4.352   5.697   4.054
12787TIP3    H138304   4.291   5.695   4.128
12787TIP3    H238305   4.296   5.688   3.977
12788TIP3   OH238306   5.320   6.332   0.314
12788TIP3    H138307   5.225   6.333   0.306
12788TIP3    H238308   5.350   6.278   0.242
12789TIP3   OH238309   3.068   1.472   0.961
12789TIP3    H138310   2.988   1.433   0.925
12789TIP3    H238311   3.049   1.566   0.965
12790TIP3   OH238312   5.964   0.619   3.823
12790TIP3    H138313   5.981   0.584   3.736
12790TIP3    H238314   6.049   0.654   3.851
12791TIP3   OH238315   0.460   0.946   5.419
12791TIP3    H138316   0.515   0.895   5.479
12791TIP3    H238317   0.453   1.032   5.460
12792TIP3   OH238318   6.233   0.577   6.247
12792TIP3    H138319   6.301   0.644   6.236
12792TIP3    H238320   6.249   0.515   6.176
12793TIP3   OH238321   1.007   7.430   3.435
12793TIP3    H138322   0.976   7.398   3.350
12793TIP3    H238323   0.956   7.381   3.499
12794TIP3   OH238324   4.110   3.641   2.501
12794TIP3    H138325   4.094   3.717   2.556
12794TIP3    H238326   4.058   3.571   2.540
12795TIP3   OH238327   6.305   7.249   4.230
12795TIP3    H138328   6.351   7.210   4.156
12795TIP3    H238329   6.350   7.332   4.245
12796TIP3   OH238330   0.663   1.701   6.444
12796TIP3    H138331   0.645   1.786   6.485
12796TIP3    H238332   0.757   1.704   6.425
12797TIP3   OH238333   6.751   0.574   3.002
12797TIP3    H138334   6.809   0.499   2.988
12797TIP3    H238335   6.810   0.649   3.001
12798TIP3   OH238336   1.570   3.905   2.151
12798TIP3    H138337   1.507   3.849   2.105
12798TIP3    H238338   1.643   3.847   2.172
12799TIP3   OH238339   7.325   2.163   2.119
12799TIP3    H138340   7.405   2.189   2.073
12799TIP3    H238341   7.271   2.120   2.052
12800TIP3   OH238342   5.718   7.286   5.930
12800TIP3    H138343   5.703   7.371   5.888
12800TIP3    H238344   5.637   7.237   5.914
12801TIP3   OH238345   1.622   6.644   2.442
12801TIP3    H138346   1.602   6.731   2.408
12801TIP3    H238347   1.716   6.646   2.460
12802TIP3   OH238348   0.405   0.060   2.273
12802TIP3    H138349   0.340   0.058   2.203
12802TIP3    H238350   0.435   0.151   2.276
12803TIP3   OH238351   5.972   2.752   4.078
12803TIP3    H138352   6.014   2.700   4.147
12803TIP3    H238353   6.020   2.729   3.998
12804TIP3   OH238354   5.278   3.633   1.451
12804TIP3    H138355   5.266   3.713   1.502
12804TIP3    H238356   5.304   3.664   1.364
12805TIP3   OH238357   5.659   2.922   3.893
12805TIP3    H138358   5.640   2.995   3.834
12805TIP3    H238359   5.575   2.877   3.903
12806TIP3   OH238360   5.287   3.327   5.564
12806TIP3    H138361   5.319   3.417   5.567
12806TIP3    H238362   5.350   3.278   5.616
12807TIP3   OH238363   6.918   6.662   4.644
12807TIP3    H138364   6.849   6.621   4.593
12807TIP3    H238365   6.903   6.633   4.734
12808TIP3   OH238366   7.313   2.215   1.534
12808TIP3    H138367   7.277   2.127   1.546
12808TIP3    H238368   7.248   2.260   1.479
12809TIP3   OH238369   4.845   6.719   6.152
12809TIP3    H138370   4.915   6.767   6.106
12809TIP3    H238371   4.766   6.769   6.134
12810TIP3   OH238372   2.785   3.962   5.003
12810TIP3    H138373   2.871   3.929   5.029
12810TIP3    H238374   2.796   3.990   4.912
12811TIP3   OH238375   4.736   5.991   0.479
12811TIP3    H138376   4.687   6.043   0.416
12811TIP3    H238377   4.788   5.930   0.426
12812TIP3   OH238378   8.278   5.098   0.147
12812TIP3    H138379   8.183   5.101   0.152
12812TIP3    H238380   8.296   5.030   0.082
12813TIP3   OH238381   3.150   5.930   5.012
12813TIP3    H138382   3.199   5.996   5.062
12813TIP3    H238383   3.139   5.857   5.073
12814TIP3   OH238384   7.906   4.979   2.008
12814TIP3    H138385   7.830   5.036   2.016
12814TIP3    H238386   7.913   4.936   2.094
12815TIP3   OH238387   4.368   3.254   2.236
12815TIP3    H138388   4.348   3.261   2.329
12815TIP3    H238389   4.463   3.267   2.230
12816TIP3   OH238390   8.130   7.583   0.741
12816TIP3    H138391   8.115   7.650   0.675
12816TIP3    H238392   8.166   7.631   0.816
12817TIP3   OH238393   3.334   7.685   5.920
12817TIP3    H138394   3.290   7.714   5.840
12817TIP3    H238395   3.299   7.597   5.937
12818TIP3   OH238396   3.924   2.699   6.412
12818TIP3    H138397   3.870   2.752   6.470
12818TIP3    H238398   3.892   2.610   6.424
12819TIP3   OH238399   6.464   2.350   1.239
12819TIP3    H138400   6.450   2.444   1.256
12819TIP3    H238401   6.376   2.312   1.240
12820TIP3   OH238402   1.530   7.047   0.371
12820TIP3    H138403   1.615   7.020   0.334
12820TIP3    H238404   1.469   7.039   0.298
12821TIP3   OH238405   3.599   7.774   5.939
12821TIP3    H138406   3.504   7.772   5.924
12821TIP3    H238407   3.618   7.690   5.981
12822TIP3   OH238408   7.378   3.926   0.521
12822TIP3    H138409   7.371   3.936   0.426
12822TIP3    H238410   7.375   3.831   0.535
12823TIP3   OH238411   5.980   6.127   1.058
12823TIP3    H138412   6.033   6.201   1.026
12823TIP3    H238413   5.946   6.158   1.143
12824TIP3   OH238414   6.157   1.222   2.465
12824TIP3    H138415   6.230   1.169   2.434
12824TIP3    H238416   6.090   1.159   2.490
12825TIP3   OH238417   3.721   0.848   3.612
12825TIP3    H138418   3.698   0.821   3.701
12825TIP3    H238419   3.638   0.868   3.570
12826TIP3   OH238420   6.737   7.848   3.346
12826TIP3    H138421   6.658   7.852   3.401
12826TIP3    H238422   6.796   7.789   3.393
12827TIP3   OH238423   5.440   5.348   4.998
12827TIP3    H138424   5.424   5.379   5.087
12827TIP3    H238425   5.413   5.420   4.942
12828TIP3   OH238426   3.583   0.291   0.894
12828TIP3    H138427   3.580   0.198   0.912
12828TIP3    H238428   3.509   0.307   0.836
12829TIP3   OH238429   1.411   5.542   1.492
12829TIP3    H138430   1.399   5.637   1.495
12829TIP3    H238431   1.401   5.514   1.584
12830TIP3   OH238432   0.396   7.628   0.634
12830TIP3    H138433   0.315   7.644   0.682
12830TIP3    H238434   0.377   7.552   0.580
12831TIP3   OH238435   3.512   0.233   0.245
12831TIP3    H138436   3.605   0.219   0.227
12831TIP3    H238437   3.498   0.189   0.329
12832TIP3   OH238438   6.598   6.940   2.691
12832TIP3    H138439   6.512   6.924   2.729
12832TIP3    H238440   6.619   6.860   2.643
12833TIP3   OH238441   5.839   2.870   5.553
12833TIP3    H138442   5.765   2.908   5.505
12833TIP3    H238443   5.880   2.945   5.595
12834TIP3   OH238444   6.970   5.492   5.536
12834TIP3    H138445   7.004   5.451   5.615
12834TIP3    H238446   6.876   5.499   5.551
12835TIP3   OH238447   1.625   2.352   1.722
12835TIP3    H138448   1.566   2.391   1.787
12835TIP3    H238449   1.697   2.414   1.716
12836TIP3   OH238450   4.242   1.826   0.056
12836TIP3    H138451   4.190   1.824  -0.024
12836TIP3    H238452   4.272   1.916   0.064
12837TIP3   OH238453   2.264   7.513   2.767
12837TIP3    H138454   2.243   7.517   2.860
12837TIP3    H238455   2.345   7.564   2.758
12838TIP3   OH238456   0.076   7.796   3.241
12838TIP3    H138457   0.157   7.835   3.273
12838TIP3    H238458   0.100   7.705   3.221
12839TIP3   OH238459   8.213   6.878   3.296
12839TIP3    H138460   8.258   6.890   3.380
12839TIP3    H238461   8.268   6.815   3.248
12840TIP3   OH238462   6.041   7.556   4.667
12840TIP3    H138463   6.118   7.499   4.661
12840TIP3    H238464   5.975   7.512   4.615
12841TIP3   OH238465   5.424   0.851   2.678
12841TIP3    H138466   5.368   0.907   2.625
12841TIP3    H238467   5.489   0.911   2.715
12842TIP3   OH238468   0.962   3.788   1.237
12842TIP3    H138469   0.936   3.869   1.281
12842TIP3    H238470   1.042   3.811   1.190
12843TIP3   OH238471   4.392   7.744   1.072
12843TIP3    H138472   4.386   7.690   0.993
12843TIP3    H238473   4.467   7.801   1.057
12844TIP3   OH238474   2.932   1.267   4.403
12844TIP3    H138475   2.903   1.296   4.490
12844TIP3    H238476   2.887   1.184   4.389
12845TIP3   OH238477   4.331   7.739   2.158
12845TIP3    H138478   4.274   7.816   2.162
12845TIP3    H238479   4.273   7.665   2.179
12846TIP3   OH238480   1.514   0.172   4.080
12846TIP3    H138481   1.595   0.187   4.031
12846TIP3    H238482   1.492   0.081   4.063
12847TIP3   OH238483   6.734   2.774   0.992
12847TIP3    H138484   6.681   2.756   1.069
12847TIP3    H238485   6.730   2.694   0.940
12848TIP3   OH238486   8.037   6.102   5.624
12848TIP3    H138487   8.006   6.045   5.695
12848TIP3    H238488   8.132   6.092   5.626
12849TIP3   OH238489   6.836   5.058   3.600
12849TIP3    H138490   6.785   5.068   3.680
12849TIP3    H238491   6.772   5.067   3.529
12850TIP3   OH238492   5.420   5.435   5.500
12850TIP3    H138493   5.331   5.469   5.490
12850TIP3    H238494   5.457   5.439   5.412
12851TIP3   OH238495   6.827   5.994   3.219
12851TIP3    H138496   6.923   5.998   3.218
12851TIP3    H238497   6.800   6.077   3.180
12852TIP3   OH238498   5.461   6.879   3.659
12852TIP3    H138499   5.527   6.893   3.592
12852TIP3    H238500   5.428   6.790   3.642
12853TIP3   OH238501   0.543   5.624   5.387
12853TIP3    H138502   0.549   5.654   5.478
12853TIP3    H238503   0.472   5.676   5.350
12854TIP3   OH238504   4.449   7.748   4.755
12854TIP3    H138505   4.360   7.775   4.779
12854TIP3    H238506   4.438   7.665   4.709
12855TIP3   OH238507   5.685   7.696   1.631
12855TIP3    H138508   5.699   7.672   1.722
12855TIP3    H238509   5.601   7.743   1.631
12856TIP3   OH238510   1.738   5.482   0.909
12856TIP3    H138511   1.766   5.439   0.990
12856TIP3    H238512   1.756   5.417   0.841
12857TIP3   OH238513   5.397   5.268   3.297
12857TIP3    H138514   5.337   5.301   3.364
12857TIP3    H238515   5.441   5.346   3.264
12858TIP3   OH238516   4.850   3.378   4.431
12858TIP3    H138517   4.759   3.378   4.461
12858TIP3    H238518   4.902   3.359   4.509
12859TIP3   OH238519   0.633   7.691   6.458
12859TIP3    H138520   0.715   7.687   6.508
12859TIP3    H238521   0.655   7.743   6.381
12860TIP3   OH238522   2.692   6.200   2.677
12860TIP3    H138523   2.650   6.235   2.755
12860TIP3    H238524   2.625   6.205   2.608
12861TIP3   OH238525   2.279   3.835   3.134
12861TIP3    H138526   2.361   3.866   3.174
12861TIP3    H238527   2.307   3.774   3.067
12862TIP3   OH238528   5.359   7.473   0.677
12862TIP3    H138529   5.278   7.422   0.678
12862TIP3    H238530   5.346   7.537   0.607
12863TIP3   OH238531   5.513   0.839   2.269
12863TIP3    H138532   5.531   0.789   2.349
12863TIP3    H238533   5.443   0.899   2.293
12864TIP3   OH238534   2.752   5.796   4.525
12864TIP3    H138535   2.806   5.777   4.448
12864TIP3    H238536   2.773   5.725   4.586
12865TIP3   OH238537   2.115   4.425   1.103
12865TIP3    H138538   2.099   4.515   1.074
12865TIP3    H238539   2.033   4.379   1.082
12866TIP3   OH238540   4.763   7.162   3.480
12866TIP3    H138541   4.757   7.134   3.389
12866TIP3    H238542   4.839   7.116   3.515
12867TIP3   OH238543   0.288   4.436   0.267
12867TIP3    H138544   0.346   4.391   0.206
12867TIP3    H238545   0.262   4.369   0.330
12868TIP3   OH238546   7.411   5.820   5.122
12868TIP3    H138547   7.396   5.904   5.166
12868TIP3    H238548   7.394   5.838   5.029
12869TIP3   OH238549   6.458   4.558   5.940
12869TIP3    H138550   6.448   4.481   5.884
12869TIP3    H238551   6.531   4.606   5.902
12870TIP3   OH238552   5.116  -0.009   0.456
12870TIP3    H138553   5.062  -0.010   0.535
12870TIP3    H238554   5.177   0.064   0.469
12871TIP3   OH238555   0.048   1.686   1.853
12871TIP3    H138556   0.082   1.632   1.782
12871TIP3    H238557   0.112   1.757   1.863
12872TIP3   OH238558   7.886   5.358   4.081
12872TIP3    H138559   7.874   5.453   4.093
12872TIP3    H238560   7.980   5.347   4.069
12873TIP3   OH238561   5.514   2.456   5.983
12873TIP3    H138562   5.607   2.466   6.001
12873TIP3    H238563   5.489   2.379   6.034
12874TIP3   OH238564   5.790   5.103   3.049
12874TIP3    H138565   5.701   5.139   3.060
12874TIP3    H238566   5.780   5.009   3.065
12875TIP3   OH238567   3.037   3.339   3.185
12875TIP3    H138568   2.984   3.263   3.162
12875TIP3    H238569   3.125   3.317   3.154
12876TIP3   OH238570   3.681   6.703   6.195
12876TIP3    H138571   3.759   6.744   6.158
12876TIP3    H238572   3.692   6.712   6.290
12877TIP3   OH238573   1.991   0.228   5.752
12877TIP3    H138574   1.979   0.203   5.843
12877TIP3    H238575   1.914   0.194   5.707
12878TIP3   OH238576   7.208   4.448   5.998
12878TIP3    H138577   7.286   4.452   6.054
12878TIP3    H238578   7.143   4.402   6.052
12879TIP3   OH238579   4.915   7.160   2.857
12879TIP3    H138580   4.945   7.232   2.913
12879TIP3    H238581   4.917   7.196   2.768
12880TIP3   OH238582   2.369   4.174   6.209
12880TIP3    H138583   2.361   4.093   6.258
12880TIP3    H238584   2.418   4.232   6.267
12881TIP3   OH238585   6.520   0.357   3.639
12881TIP3    H138586   6.469   0.414   3.581
12881TIP3    H238587   6.521   0.404   3.723
12882TIP3   OH238588   5.007   6.587   6.490
12882TIP3    H138589   5.046   6.612   6.406
12882TIP3    H238590   4.979   6.669   6.529
12883TIP3   OH238591   7.725   2.542   4.591
12883TIP3    H138592   7.701   2.585   4.673
12883TIP3    H238593   7.763   2.612   4.538
12884TIP3   OH238594   5.981   4.964   0.834
12884TIP3    H138595   5.901   4.918   0.809
12884TIP3    H238596   6.013   5.003   0.753
12885TIP3   OH238597   6.531   2.710   6.639
12885TIP3    H138598   6.471   2.759   6.696
12885TIP3    H238599   6.481   2.633   6.613
12886TIP3   OH238600   6.567   5.457   3.616
12886TIP3    H138601   6.547   5.531   3.558
12886TIP3    H238602   6.656   5.475   3.647
12887TIP3   OH238603   6.648   7.152   1.729
12887TIP3    H138604   6.688   7.194   1.806
12887TIP3    H238605   6.571   7.107   1.764
12888TIP3   OH238606   2.989   0.437   4.548
12888TIP3    H138607   2.991   0.531   4.527
12888TIP3    H238608   2.986   0.434   4.643
12889TIP3   OH238609   2.195   2.326   2.062
12889TIP3    H138610   2.113   2.279   2.078
12889TIP3    H238611   2.264   2.265   2.090
12890TIP3   OH238612   6.221   5.522   4.373
12890TIP3    H138613   6.304   5.476   4.358
12890TIP3    H238614   6.187   5.538   4.285
12891TIP3   OH238615   0.356   6.826   5.763
12891TIP3    H138616   0.391   6.751   5.811
12891TIP3    H238617   0.335   6.890   5.830
12892TIP3   OH238618   0.923   4.350   0.622
12892TIP3    H138619   0.840   4.397   0.629
12892TIP3    H238620   0.957   4.374   0.536
12893TIP3   OH238621   3.341   5.935   5.667
12893TIP3    H138622   3.347   5.853   5.716
12893TIP3    H238623   3.432   5.963   5.656
12894TIP3   OH238624   3.132   4.874   2.022
12894TIP3    H138625   3.119   4.842   2.111
12894TIP3    H238626   3.045   4.900   1.993
12895TIP3   OH238627   5.303   5.563   5.106
12895TIP3    H138628   5.251   5.603   5.176
12895TIP3    H238629   5.317   5.633   5.043
12896TIP3   OH238630   4.560   2.326   5.556
12896TIP3    H138631   4.620   2.389   5.596
12896TIP3    H238632   4.615   2.277   5.494
12897TIP3   OH238633   6.992   4.725   0.078
12897TIP3    H138634   7.003   4.698  -0.013
12897TIP3    H238635   6.929   4.798   0.074
12898TIP3   OH238636   7.246   7.331   2.402
12898TIP3    H138637   7.182   7.292   2.343
12898TIP3    H238638   7.198   7.399   2.448
12899TIP3   OH238639   6.245   4.592   6.533
12899TIP3    H138640   6.238   4.650   6.458
12899TIP3    H238641   6.339   4.573   6.540
12900TIP3   OH238642   6.887   2.256   3.256
12900TIP3    H138643   6.921   2.344   3.270
12900TIP3    H238644   6.875   2.221   3.345
12901TIP3   OH238645   1.215   7.228   6.406
12901TIP3    H138646   1.127   7.215   6.442
12901TIP3    H238647   1.200   7.286   6.331
12902TIP3   OH238648   8.136   4.584   0.698
12902TIP3    H138649   8.056   4.534   0.678
12902TIP3    H238650   8.104   4.667   0.734
12903TIP3   OH238651   1.074   6.417   2.197
12903TIP3    H138652   1.037   6.352   2.256
12903TIP3    H238653   1.166   6.422   2.222
12904TIP3   OH238654   4.108   1.426   2.887
12904TIP3    H138655   4.057   1.350   2.862
12904TIP3    H238656   4.059   1.500   2.851
12905TIP3   OH238657   2.154   2.957   2.714
12905TIP3    H138658   2.139   2.950   2.808
12905TIP3    H238659   2.074   2.996   2.679
12906TIP3   OH238660   2.554   0.182   0.162
12906TIP3    H138661   2.545   0.133   0.244
12906TIP3    H238662   2.629   0.240   0.178
12907TIP3   OH238663   1.072   5.692   1.509
12907TIP3    H138664   1.093   5.784   1.490
12907TIP3    H238665   1.104   5.644   1.433
12908TIP3   OH238666   7.560   5.500   4.016
12908TIP3    H138667   7.570   5.535   3.927
12908TIP3    H238668   7.645   5.514   4.057
12909TIP3   OH238669   7.816   7.591   6.280
12909TIP3    H138670   7.859   7.522   6.229
12909TIP3    H238671   7.773   7.546   6.352
12910TIP3   OH238672   2.794   3.048   1.612
12910TIP3    H138673   2.876   3.019   1.651
12910TIP3    H238674   2.761   3.114   1.673
12911TIP3   OH238675   7.353   1.538   4.170
12911TIP3    H138676   7.438   1.581   4.169
12911TIP3    H238677   7.373   1.444   4.167
12912TIP3   OH238678   7.725   1.382   4.723
12912TIP3    H138679   7.785   1.309   4.710
12912TIP3    H238680   7.664   1.377   4.649
12913TIP3   OH238681   5.585   4.586   5.702
12913TIP3    H138682   5.534   4.551   5.629
12913TIP3    H238683   5.561   4.531   5.777
12914TIP3   OH238684   6.926   3.767   2.022
12914TIP3    H138685   6.942   3.677   1.993
12914TIP3    H238686   6.993   3.818   1.977
12915TIP3   OH238687   7.555   5.337   5.366
12915TIP3    H138688   7.594   5.326   5.279
12915TIP3    H238689   7.606   5.278   5.422
12916TIP3   OH238690   3.144   6.751   4.624
12916TIP3    H138691   3.108   6.672   4.585
12916TIP3    H238692   3.074   6.784   4.681
12917TIP3   OH238693   1.027   4.502   0.357
12917TIP3    H138694   1.090   4.561   0.315
12917TIP3    H238695   0.971   4.560   0.410
12918TIP3   OH238696   7.424   6.293   5.007
12918TIP3    H138697   7.365   6.273   4.934
12918TIP3    H238698   7.421   6.215   5.062
12919TIP3   OH238699   0.113   3.229   3.243
12919TIP3    H138700   0.102   3.324   3.245
12919TIP3    H238701   0.207   3.215   3.231
12920TIP3   OH238702   3.315   2.684   6.182
12920TIP3    H138703   3.275   2.617   6.127
12920TIP3    H238704   3.287   2.661   6.271
12921TIP3   OH238705   6.449   7.753   5.635
12921TIP3    H138706   6.532   7.715   5.665
12921TIP3    H238707   6.407   7.683   5.586
12922TIP3   OH238708   8.028   5.649   0.574
12922TIP3    H138709   8.074   5.609   0.500
12922TIP3    H238710   7.992   5.575   0.623
12923TIP3   OH238711   6.585   1.267   1.062
12923TIP3    H138712   6.538   1.322   0.999
12923TIP3    H238713   6.521   1.202   1.090
12924TIP3   OH238714   4.795   1.050   3.764
12924TIP3    H138715   4.766   0.962   3.740
12924TIP3    H238716   4.888   1.040   3.785
12925TIP3   OH238717   2.279   5.522   2.306
12925TIP3    H138718   2.212   5.459   2.331
12925TIP3    H238719   2.345   5.515   2.375
12926TIP3   OH238720   8.069   4.049   1.206
12926TIP3    H138721   8.005   4.027   1.138
12926TIP3    H238722   8.152   4.057   1.159
12927TIP3   OH238723   1.785   2.701   3.948
12927TIP3    H138724   1.709   2.643   3.947
12927TIP3    H238725   1.827   2.687   3.864
12928TIP3   OH238726   3.171   2.557   5.450
12928TIP3    H138727   3.204   2.493   5.513
12928TIP3    H238728   3.237   2.561   5.382
12929TIP3   OH238729   0.630   6.035   2.857
12929TIP3    H138730   0.580   6.023   2.776
12929TIP3    H238731   0.675   6.118   2.845
12930TIP3   OH238732   5.561   1.801   6.224
12930TIP3    H138733   5.512   1.869   6.272
12930TIP3    H238734   5.539   1.817   6.132
12931TIP3   OH238735   5.267   2.938   2.899
12931TIP3    H138736   5.251   3.021   2.945
12931TIP3    H238737   5.289   2.964   2.810
12932TIP3   OH238738   2.902   1.704   0.995
12932TIP3    H138739   2.835   1.636   1.005
12932TIP3    H238740   2.910   1.717   0.901
12933TIP3   OH238741   4.990   7.044   0.632
12933TIP3    H138742   5.036   7.105   0.574
12933TIP3    H238743   4.918   7.095   0.669
12934TIP3   OH238744   0.458   4.652   4.343
12934TIP3    H138745   0.433   4.633   4.253
12934TIP3    H238746   0.428   4.577   4.393
12935TIP3   OH238747   5.686   7.473   2.412
12935TIP3    H138748   5.705   7.559   2.448
12935TIP3    H238749   5.653   7.490   2.324
12936TIP3   OH238750   4.790   5.586   0.626
12936TIP3    H138751   4.738   5.568   0.547
12936TIP3    H238752   4.881   5.584   0.596
12937TIP3   OH238753   5.175   0.446   5.092
12937TIP3    H138754   5.083   0.463   5.114
12937TIP3    H238755   5.208   0.395   5.166
12938TIP3   OH238756   6.908   5.260   5.191
12938TIP3    H138757   6.992   5.236   5.231
12938TIP3    H238758   6.908   5.215   5.106
12939TIP3   OH238759   3.831   2.656   0.393
12939TIP3    H138760   3.876   2.735   0.362
12939TIP3    H238761   3.843   2.592   0.323
12940TIP3   OH238762   5.877   3.386   2.498
12940TIP3    H138763   5.805   3.413   2.441
12940TIP3    H238764   5.835   3.353   2.577
12941TIP3   OH238765   2.236   4.703   5.209
12941TIP3    H138766   2.331   4.713   5.198
12941TIP3    H238767   2.199   4.776   5.160
12942TIP3   OH238768   7.957   7.738   1.029
12942TIP3    H138769   7.913   7.658   1.057
12942TIP3    H238770   7.887   7.791   0.991
12943TIP3   OH238771   5.699   5.915   1.874
12943TIP3    H138772   5.603   5.911   1.867
12943TIP3    H238773   5.722   6.002   1.843
12944TIP3   OH238774   8.293   1.084   3.386
12944TIP3    H138775   8.331   1.170   3.364
12944TIP3    H238776   8.241   1.100   3.465
12945TIP3   OH238777   0.249   4.025   1.153
12945TIP3    H138778   0.278   4.054   1.067
12945TIP3    H238779   0.283   3.936   1.161
12946TIP3   OH238780   6.932   0.125   1.497
12946TIP3    H138781   6.959   0.034   1.510
12946TIP3    H238782   6.923   0.160   1.585
12947TIP3   OH238783   5.585   7.494   1.449
12947TIP3    H138784   5.613   7.518   1.361
12947TIP3    H238785   5.608   7.569   1.503
12948TIP3   OH238786   2.101   5.334   0.866
12948TIP3    H138787   2.048   5.366   0.939
12948TIP3    H238788   2.118   5.242   0.887
12949TIP3   OH238789   1.447   6.406   3.023
12949TIP3    H138790   1.450   6.502   3.020
12949TIP3    H238791   1.515   6.378   2.962
12950TIP3   OH238792   1.910   0.872   6.724
12950TIP3    H138793   1.887   0.942   6.785
12950TIP3    H238794   1.843   0.805   6.739
12951TIP3   OH238795   1.834   1.047   5.476
12951TIP3    H138796   1.760   1.022   5.532
12951TIP3    H238797   1.846   0.971   5.418
12952TIP3   OH238798   7.255   4.347   0.542
12952TIP3    H138799   7.180   4.318   0.594
12952TIP3    H238800   7.327   4.355   0.605
12953TIP3   OH238801   8.000   3.147   6.564
12953TIP3    H138802   8.003   3.179   6.654
12953TIP3    H238803   7.948   3.212   6.517
12954TIP3   OH238804   0.838   5.707   5.000
12954TIP3    H138805   0.795   5.736   4.919
12954TIP3    H238806   0.928   5.689   4.974
12955TIP3   OH238807   0.213   3.563   0.833
12955TIP3    H138808   0.237   3.472   0.815
12955TIP3    H238809   0.122   3.558   0.863
12956TIP3   OH238810   0.568   6.296   1.786
12956TIP3    H138811   0.520   6.340   1.856
12956TIP3    H238812   0.553   6.202   1.801
12957TIP3   OH238813   5.652   1.915   5.876
12957TIP3    H138814   5.607   1.832   5.865
12957TIP3    H238815   5.675   1.943   5.788
12958TIP3   OH238816   6.290   2.086   0.225
12958TIP3    H138817   6.340   2.005   0.216
12958TIP3    H238818   6.325   2.143   0.157
12959TIP3   OH238819   5.268   1.473  -0.085
12959TIP3    H138820   5.261   1.418  -0.007
12959TIP3    H238821   5.186   1.460  -0.132
12960TIP3   OH238822   0.014  -0.079   5.999
12960TIP3    H138823   0.037   0.005   5.959
12960TIP3    H238824  -0.051  -0.057   6.065
12961TIP3   OH238825   3.513   2.924   6.724
12961TIP3    H138826   3.518   2.906   6.630
12961TIP3    H238827   3.430   2.885   6.751
12962TIP3   OH238828   5.429   2.914   3.098
12962TIP3    H138829   5.438   2.822   3.123
12962TIP3    H238830   5.375   2.912   3.020
12963TIP3   OH238831   5.075   7.147   6.184
12963TIP3    H138832   5.016   7.197   6.127
12963TIP3    H238833   5.163   7.168   6.151
12964TIP3   OH238834   7.876   7.123   0.890
12964TIP3    H138835   7.868   7.217   0.873
12964TIP3    H238836   7.863   7.115   0.985
12965TIP3   OH238837   5.681   5.174   1.829
12965TIP3    H138838   5.655   5.111   1.762
12965TIP3    H238839   5.631   5.149   1.907
12966TIP3   OH238840   8.203   4.409   5.006
12966TIP3    H138841   8.217   4.333   4.950
12966TIP3    H238842   8.283   4.415   5.059
12967TIP3   OH238843   7.749   1.723   1.622
12967TIP3    H138844   7.772   1.816   1.618
12967TIP3    H238845   7.659   1.720   1.590
12968TIP3   OH238846   1.344   1.698   5.722
12968TIP3    H138847   1.293   1.619   5.738
12968TIP3    H238848   1.400   1.706   5.799
12969TIP3   OH238849   2.997   6.565   5.553
12969TIP3    H138850   2.988   6.498   5.620
12969TIP3    H238851   3.052   6.524   5.486
12970TIP3   OH238852   3.142   6.483   0.954
12970TIP3    H138853   3.139   6.389   0.934
12970TIP3    H238854   3.056   6.503   0.990
12971TIP3   OH238855   3.207   7.521   4.129
12971TIP3    H138856   3.146   7.593   4.115
12971TIP3    H238857   3.169   7.447   4.081
12972TIP3   OH238858   1.520   4.375   6.028
12972TIP3    H138859   1.615   4.365   6.017
12972TIP3    H238860   1.482   4.318   5.961
12973TIP3   OH238861   3.825   5.970   1.067
12973TIP3    H138862   3.802   6.026   1.142
12973TIP3    H238863   3.740   5.945   1.029
12974TIP3   OH238864   4.405   2.293   1.891
12974TIP3    H138865   4.419   2.219   1.833
12974TIP3    H238866   4.333   2.266   1.948
12975TIP3   OH238867   4.831   4.520   6.280
12975TIP3    H138868   4.876   4.600   6.253
12975TIP3    H238869   4.773   4.548   6.351
12976TIP3   OH238870   1.552   0.458   5.465
12976TIP3    H138871   1.581   0.410   5.387
12976TIP3    H238872   1.607   0.536   5.466
12977TIP3   OH238873   8.049   6.095   4.438
12977TIP3    H138874   8.116   6.035   4.472
12977TIP3    H238875   8.076   6.111   4.348
12978TIP3   OH238876   4.576   1.801   2.793
12978TIP3    H138877   4.589   1.817   2.886
12978TIP3    H238878   4.499   1.853   2.770
12979TIP3   OH238879   1.574   1.932   3.490
12979TIP3    H138880   1.591   2.019   3.454
12979TIP3    H238881   1.657   1.885   3.481
12980TIP3   OH238882   1.405   0.189   6.338
12980TIP3    H138883   1.495   0.191   6.370
12980TIP3    H238884   1.403   0.254   6.267
12981TIP3   OH238885   2.720   2.856   4.058
12981TIP3    H138886   2.636   2.812   4.067
12981TIP3    H238887   2.764   2.809   3.987
12982TIP3   OH238888   3.884   3.441   4.197
12982TIP3    H138889   3.943   3.376   4.236
12982TIP3    H238890   3.810   3.389   4.165
12983TIP3   OH238891   1.273   5.019   0.203
12983TIP3    H138892   1.221   5.059   0.273
12983TIP3    H238893   1.268   4.925   0.220
12984TIP3   OH238894   1.037   5.778   6.604
12984TIP3    H138895   0.957   5.730   6.625
12984TIP3    H238896   1.018   5.869   6.625
12985TIP3   OH238897   4.395   1.916   4.985
12985TIP3    H138898   4.400   2.007   5.015
12985TIP3    H238899   4.334   1.874   5.046
12986TIP3   OH238900   3.420   1.264   0.935
12986TIP3    H138901   3.452   1.345   0.973
12986TIP3    H238902   3.382   1.289   0.851
12987TIP3   OH238903   7.196   5.341   4.042
12987TIP3    H138904   7.122   5.346   3.981
12987TIP3    H238905   7.272   5.325   3.986
12988TIP3   OH238906   4.402   3.097   3.764
12988TIP3    H138907   4.368   3.142   3.842
12988TIP3    H238908   4.355   3.013   3.764
12989TIP3   OH238909   7.625   0.670   1.508
12989TIP3    H138910   7.712   0.710   1.510
12989TIP3    H238911   7.575   0.726   1.449
12990TIP3   OH238912   3.115   3.638   0.026
12990TIP3    H138913   3.207   3.636   0.052
12990TIP3    H238914   3.068   3.653   0.108
12991TIP3   OH238915   0.782   7.710   4.440
12991TIP3    H138916   0.742   7.636   4.486
12991TIP3    H238917   0.824   7.761   4.510
12992TIP3   OH238918   1.033   6.912   0.611
12992TIP3    H138919   0.987   6.994   0.627
12992TIP3    H238920   1.089   6.900   0.688
12993TIP3   OH238921   2.680   1.869   5.528
12993TIP3    H138922   2.772   1.891   5.510
12993TIP3    H238923   2.685   1.791   5.583
12994TIP3   OH238924   1.071   0.325   3.280
12994TIP3    H138925   1.017   0.372   3.217
12994TIP3    H238926   1.011   0.303   3.351
12995TIP3   OH238927   7.763   2.200   5.647
12995TIP3    H138928   7.686   2.196   5.704
12995TIP3    H238929   7.798   2.111   5.648
12996TIP3   OH238930   5.751   0.121   1.543
12996TIP3    H138931   5.823   0.142   1.602
12996TIP3    H238932   5.784   0.146   1.456
12997TIP3   OH238933   1.402   7.339   4.762
12997TIP3    H138934   1.366   7.428   4.766
12997TIP3    H238935   1.417   7.315   4.854
12998TIP3   OH238936   0.929   1.513   3.944
12998TIP3    H138937   0.986   1.559   4.005
12998TIP3    H238938   0.888   1.445   3.996
12999TIP3   OH238939   5.722   4.734   3.671
12999TIP3    H138940   5.666   4.806   3.642
12999TIP3    H238941   5.807   4.775   3.687
13000TIP3   OH238942   0.449   7.006   1.773
13000TIP3    H138943   0.460   7.098   1.797
13000TIP3    H238944   0.364   7.003   1.729
13001TIP3   OH238945   4.459   3.768   5.127
13001TIP3    H138946   4.454   3.775   5.222
13001TIP3    H238947   4.382   3.716   5.102
13002TIP3   OH238948   6.356   3.070   2.885
13002TIP3    H138949   6.414   3.123   2.831
13002TIP3    H238950   6.359   2.983   2.846
13003TIP3   OH238951   7.803   4.331   4.301
13003TIP3    H138952   7.786   4.301   4.390
13003TIP3    H238953   7.866   4.402   4.311
13004TIP3   OH238954   4.712   7.273   5.141
13004TIP3    H138955   4.763   7.217   5.083
13004TIP3    H238956   4.635   7.298   5.090
13005TIP3   OH238957   2.652   5.904   4.208
13005TIP3    H138958   2.693   5.938   4.288
13005TIP3    H238959   2.632   5.812   4.228
13006TIP3   OH238960   2.086   5.443   6.324
13006TIP3    H138961   2.056   5.352   6.320
13006TIP3    H238962   2.009   5.495   6.301
13007TIP3   OH238963   0.582   2.244   5.736
13007TIP3    H138964   0.608   2.163   5.693
13007TIP3    H238965   0.660   2.272   5.784
13008TIP3   OH238966   7.270   7.162   6.618
13008TIP3    H138967   7.268   7.224   6.545
13008TIP3    H238968   7.187   7.174   6.663
13009TIP3   OH238969   3.089   0.892   5.099
13009TIP3    H138970   2.994   0.876   5.105
13009TIP3    H238971   3.128   0.805   5.097
13010TIP3   OH238972   4.453   5.021   3.737
13010TIP3    H138973   4.479   4.996   3.649
13010TIP3    H238974   4.513   4.974   3.794
13011TIP3   OH238975   4.457   0.319   4.691
13011TIP3    H138976   4.399   0.311   4.616
13011TIP3    H238977   4.400   0.346   4.763
13012TIP3   OH238978   7.967   3.028   2.432
13012TIP3    H138979   7.902   3.023   2.502
13012TIP3    H238980   7.998   2.938   2.422
13013TIP3   OH238981   5.105   5.345   0.969
13013TIP3    H138982   5.061   5.270   0.928
13013TIP3    H238983   5.120   5.407   0.897
13014TIP3   OH238984   2.077   3.641   6.447
13014TIP3    H138985   2.127   3.568   6.484
13014TIP3    H238986   2.067   3.703   6.520
13015TIP3   OH238987   5.638   0.549   2.030
13015TIP3    H138988   5.700   0.484   1.996
13015TIP3    H238989   5.669   0.632   1.995
13016TIP3   OH238990   6.759   2.246   2.746
13016TIP3    H138991   6.671   2.211   2.761
13016TIP3    H238992   6.791   2.266   2.834
13017TIP3   OH238993   6.695   4.227   5.728
13017TIP3    H138994   6.661   4.148   5.686
13017TIP3    H238995   6.641   4.237   5.807
13018TIP3   OH238996   3.172   6.180   5.743
13018TIP3    H138997   3.087   6.211   5.714
13018TIP3    H238998   3.159   6.087   5.762
13019TIP3   OH238999   0.317   3.507   5.511
13019TIP3    H139000   0.313   3.517   5.416
13019TIP3    H239001   0.361   3.422   5.523
13020TIP3   OH239002   1.863   6.818   3.917
13020TIP3    H139003   1.905   6.740   3.882
13020TIP3    H239004   1.905   6.833   4.001
13021TIP3   OH239005   0.664   1.818   0.288
13021TIP3    H139006   0.689   1.726   0.287
13021TIP3    H239007   0.568   1.818   0.296
13022TIP3   OH239008   3.185   3.029   0.243
13022TIP3    H139009   3.162   3.010   0.152
13022TIP3    H239010   3.211   2.944   0.280
13023TIP3   OH239011   2.035   2.457   3.611
13023TIP3    H139012   2.119   2.501   3.604
13023TIP3    H239013   1.973   2.527   3.631
13024TIP3   OH239014   7.452   6.116   0.616
13024TIP3    H139015   7.514   6.071   0.560
13024TIP3    H239016   7.460   6.208   0.592
13025TIP3   OH239017   7.503   1.715   6.683
13025TIP3    H139018   7.562   1.673   6.620
13025TIP3    H239019   7.466   1.789   6.635
13026TIP3   OH239020   7.346   1.465   0.777
13026TIP3    H139021   7.291   1.420   0.842
13026TIP3    H239022   7.345   1.408   0.701
13027TIP3   OH239023   3.436   6.966   0.846
13027TIP3    H139024   3.459   6.911   0.770
13027TIP3    H239025   3.342   6.950   0.859
13028TIP3   OH239026   2.021   0.641   4.490
13028TIP3    H139027   2.014   0.666   4.582
13028TIP3    H239028   2.115   0.643   4.472
13029TIP3   OH239029   1.772   1.686   1.598
13029TIP3    H139030   1.766   1.591   1.601
13029TIP3    H239031   1.683   1.716   1.618
13030TIP3   OH239032   6.297   4.995   5.661
13030TIP3    H139033   6.212   5.006   5.703
13030TIP3    H239034   6.288   5.036   5.575
13031TIP3   OH239035   6.681   7.285   5.005
13031TIP3    H139036   6.773   7.303   4.982
13031TIP3    H239037   6.684   7.255   5.096
13032TIP3   OH239038   7.926   1.827   3.452
13032TIP3    H139039   7.864   1.895   3.479
13032TIP3    H239040   7.993   1.827   3.520
13033TIP3   OH239041   3.239   4.744   6.094
13033TIP3    H139042   3.211   4.694   6.170
13033TIP3    H239043   3.322   4.704   6.068
13034TIP3   OH239044   5.073   3.505   1.628
13034TIP3    H139045   5.146   3.537   1.574
13034TIP3    H239046   5.034   3.435   1.576
13035TIP3   OH239047   1.620   1.583   5.257
13035TIP3    H139048   1.632   1.548   5.168
13035TIP3    H239049   1.548   1.533   5.293
13036TIP3   OH239050   7.234   7.653   6.698
13036TIP3    H139051   7.274   7.567   6.685
13036TIP3    H239052   7.231   7.692   6.611
13037TIP3   OH239053   8.034   7.724   2.314
13037TIP3    H139054   8.115   7.675   2.331
13037TIP3    H239055   8.054   7.776   2.237
13038TIP3   OH239056   2.463   6.386   1.242
13038TIP3    H139057   2.375   6.423   1.239
13038TIP3    H239058   2.500   6.420   1.324
13039TIP3   OH239059   2.086   7.142   5.205
13039TIP3    H139060   2.073   7.048   5.209
13039TIP3    H239061   2.012   7.175   5.155
13040TIP3   OH239062   5.520   6.659   1.145
13040TIP3    H139063   5.566   6.743   1.147
13040TIP3    H239064   5.433   6.679   1.180
13041TIP3   OH239065   3.541   1.510   4.316
13041TIP3    H139066   3.577   1.575   4.376
13041TIP3    H239067   3.490   1.451   4.371
13042TIP3   OH239068   6.315   6.080   4.948
13042TIP3    H139069   6.304   6.107   4.857
13042TIP3    H239070   6.404   6.044   4.952
13043TIP3   OH239071   6.039   0.756   2.733
13043TIP3    H139072   6.095   0.748   2.656
13043TIP3    H239073   6.042   0.670   2.774
13044TIP3   OH239074   3.276   3.969   0.183
13044TIP3    H139075   3.304   3.878   0.184
13044TIP3    H239076   3.260   3.990   0.276
13045TIP3   OH239077   3.672   1.608   0.745
13045TIP3    H139078   3.758   1.631   0.710
13045TIP3    H239079   3.692   1.550   0.819
13046TIP3   OH239080   1.062   4.761   4.840
13046TIP3    H139081   1.066   4.856   4.849
13046TIP3    H239082   1.142   4.738   4.793
13047TIP3   OH239083   4.828   3.313   6.033
13047TIP3    H139084   4.835   3.230   6.080
13047TIP3    H239085   4.767   3.296   5.962
13048TIP3   OH239086   1.205   6.041   0.393
13048TIP3    H139087   1.184   5.972   0.330
13048TIP3    H239088   1.129   6.099   0.390
13049TIP3   OH239089   6.577   3.988   5.589
13049TIP3    H139090   6.577   3.930   5.513
13049TIP3    H239091   6.605   3.933   5.661
13050TIP3   OH239092   7.744   3.654   2.370
13050TIP3    H139093   7.679   3.586   2.381
13050TIP3    H239094   7.696   3.729   2.335
13051TIP3   OH239095   6.702   3.420   0.542
13051TIP3    H139096   6.770   3.386   0.599
13051TIP3    H239097   6.736   3.505   0.512
13052TIP3   OH239098   0.707   0.083   3.056
13052TIP3    H139099   0.773   0.153   3.055
13052TIP3    H239100   0.749   0.010   3.101
13053TIP3   OH239101   5.728   2.689   1.433
13053TIP3    H139102   5.740   2.606   1.480
13053TIP3    H239103   5.817   2.724   1.424
13054TIP3   OH239104   7.560   6.562   0.130
13054TIP3    H139105   7.492   6.519   0.077
13054TIP3    H239106   7.614   6.491   0.162
13055TIP3   OH239107   3.371   2.940   6.055
13055TIP3    H139108   3.327   2.863   6.093
13055TIP3    H239109   3.462   2.913   6.046
13056TIP3   OH239110   2.073   5.152   3.539
13056TIP3    H139111   2.071   5.087   3.609
13056TIP3    H239112   2.127   5.223   3.575
13057TIP3   OH239113   4.932   5.828   4.716
13057TIP3    H139114   5.000   5.888   4.747
13057TIP3    H239115   4.856   5.884   4.698
13058TIP3   OH239116   0.758   2.740   1.240
13058TIP3    H139117   0.750   2.783   1.154
13058TIP3    H239118   0.847   2.705   1.241
13059TIP3   OH239119   1.033   0.744   4.334
13059TIP3    H139120   1.057   0.837   4.336
13059TIP3    H239121   1.101   0.701   4.386
13060TIP3   OH239122   1.050   2.131   2.568
13060TIP3    H139123   1.001   2.208   2.596
13060TIP3    H239124   1.062   2.079   2.647
13061TIP3   OH239125   0.244   7.039   0.620
13061TIP3    H139126   0.246   7.088   0.538
13061TIP3    H239127   0.335   7.014   0.635
13062TIP3   OH239128   8.161   0.007   4.473
13062TIP3    H139129   8.124   0.089   4.505
13062TIP3    H239130   8.249   0.030   4.442
13063TIP3   OH239131   2.187   7.593   3.328
13063TIP3    H139132   2.257   7.657   3.338
13063TIP3    H239133   2.171   7.561   3.417
13064TIP3   OH239134   1.724   1.880   4.982
13064TIP3    H139135   1.656   1.924   4.930
13064TIP3    H239136   1.732   1.793   4.943
13065TIP3   OH239137   4.299   3.976   2.086
13065TIP3    H139138   4.372   3.915   2.078
13065TIP3    H239139   4.221   3.920   2.077
13066TIP3   OH239140   7.094   3.468   5.665
13066TIP3    H139141   7.090   3.530   5.739
13066TIP3    H239142   7.046   3.391   5.696
13067TIP3   OH239143   5.735   3.309   0.436
13067TIP3    H139144   5.674   3.239   0.416
13067TIP3    H239145   5.803   3.268   0.488
13068TIP3   OH239146   1.102   2.149   5.247
13068TIP3    H139147   1.058   2.146   5.162
13068TIP3    H239148   1.031   2.141   5.311
13069TIP3   OH239149   4.909   2.697   4.108
13069TIP3    H139150   4.963   2.757   4.160
13069TIP3    H239151   4.875   2.752   4.038
13070TIP3   OH239152   5.889   7.464   4.454
13070TIP3    H139153   5.850   7.547   4.427
13070TIP3    H239154   5.813   7.408   4.473
13071TIP3   OH239155   1.115   4.868   2.969
13071TIP3    H139156   1.044   4.931   2.982
13071TIP3    H239157   1.072   4.792   2.932
13072TIP3   OH239158   7.717   0.827   5.659
13072TIP3    H139159   7.749   0.737   5.662
13072TIP3    H239160   7.623   0.819   5.673
13073TIP3   OH239161   1.851   4.560   2.753
13073TIP3    H139162   1.891   4.633   2.705
13073TIP3    H239163   1.887   4.567   2.842
13074TIP3   OH239164   6.151   3.264   0.077
13074TIP3    H139165   6.135   3.172   0.057
13074TIP3    H239166   6.239   3.266   0.112
13075TIP3   OH239167   1.297   7.794   2.999
13075TIP3    H139168   1.315   7.858   3.068
13075TIP3    H239169   1.298   7.710   3.043
13076TIP3   OH239170   0.312   6.666   6.200
13076TIP3    H139171   0.305   6.761   6.194
13076TIP3    H239172   0.282   6.634   6.115
13077TIP3   OH239173   0.031   4.781   3.850
13077TIP3    H139174   0.090   4.706   3.838
13077TIP3    H239175   0.067   4.827   3.926
13078TIP3   OH239176   6.993   1.990   1.202
13078TIP3    H139177   7.013   1.986   1.109
13078TIP3    H239178   7.020   1.905   1.236
13079TIP3   OH239179   5.630   0.930   6.514
13079TIP3    H139180   5.584   0.877   6.580
13079TIP3    H239181   5.704   0.968   6.561
13080TIP3   OH239182   7.800   6.175   1.868
13080TIP3    H139183   7.789   6.225   1.787
13080TIP3    H239184   7.894   6.176   1.884
13081TIP3   OH239185   6.550   2.408   2.718
13081TIP3    H139186   6.624   2.359   2.684
13081TIP3    H239187   6.528   2.471   2.650
13082TIP3   OH239188   0.547   5.164   1.394
13082TIP3    H139189   0.558   5.130   1.483
13082TIP3    H239190   0.634   5.157   1.355
13083TIP3   OH239191   1.976   2.673   0.943
13083TIP3    H139192   2.021   2.707   0.866
13083TIP3    H239193   1.951   2.584   0.918
13084TIP3   OH239194   6.578   2.395   4.988
13084TIP3    H139195   6.590   2.412   5.082
13084TIP3    H239196   6.510   2.328   4.984
13085TIP3   OH239197   5.054   5.343   0.533
13085TIP3    H139198   5.018   5.389   0.457
13085TIP3    H239199   5.075   5.256   0.500
13086TIP3   OH239200   5.932   6.190   6.172
13086TIP3    H139201   5.999   6.235   6.122
13086TIP3    H239202   5.971   6.178   6.259
13087TIP3   OH239203   5.110   5.969   0.889
13087TIP3    H139204   5.191   5.954   0.939
13087TIP3    H239205   5.061   5.888   0.898
13088TIP3   OH239206   0.078   2.495   2.717
13088TIP3    H139207   0.121   2.453   2.643
13088TIP3    H239208   0.136   2.568   2.741
13089TIP3   OH239209   3.787   3.050   4.925
13089TIP3    H139210   3.829   3.124   4.969
13089TIP3    H239211   3.849   2.978   4.933
13090TIP3   OH239212   8.170   1.599   0.578
13090TIP3    H139213   8.186   1.567   0.489
13090TIP3    H239214   8.127   1.527   0.622
13091TIP3   OH239215   7.755   5.328   6.372
13091TIP3    H139216   7.784   5.243   6.339
13091TIP3    H239217   7.837   5.375   6.391
13092TIP3   OH239218   2.491   0.510   2.795
13092TIP3    H139219   2.468   0.558   2.874
13092TIP3    H239220   2.586   0.524   2.786
13093TIP3   OH239221   8.049   1.447   1.015
13093TIP3    H139222   8.033   1.384   1.085
13093TIP3    H239223   8.050   1.395   0.935
13094TIP3   OH239224   6.825   6.496   1.868
13094TIP3    H139225   6.821   6.422   1.806
13094TIP3    H239226   6.747   6.486   1.921
13095TIP3   OH239227   7.527   0.154   5.503
13095TIP3    H139228   7.438   0.146   5.537
13095TIP3    H239229   7.524   0.231   5.446
13096TIP3   OH239230   3.694   3.156   3.174
13096TIP3    H139231   3.620   3.179   3.229
13096TIP3    H239232   3.730   3.077   3.213
13097TIP3   OH239233   3.333   0.504   4.724
13097TIP3    H139234   3.255   0.559   4.728
13097TIP3    H239235   3.406   0.566   4.721
13098TIP3   OH239236   3.517   4.677   1.560
13098TIP3    H139237   3.612   4.686   1.572
13098TIP3    H239238   3.488   4.631   1.639
13099TIP3   OH239239   6.243   5.169   3.479
13099TIP3    H139240   6.214   5.229   3.547
13099TIP3    H239241   6.326   5.206   3.448
13100TIP3   OH239242   0.681   7.722   2.533
13100TIP3    H139243   0.632   7.736   2.614
13100TIP3    H239244   0.624   7.665   2.480
13101TIP3   OH239245   3.806   2.086   6.011
13101TIP3    H139246   3.895   2.062   5.986
13101TIP3    H239247   3.810   2.095   6.106
13102TIP3   OH239248   2.575   3.975   4.476
13102TIP3    H139249   2.561   4.002   4.567
13102TIP3    H239250   2.583   3.880   4.480
13103TIP3   OH239251   6.955   0.785   3.216
13103TIP3    H139252   6.949   0.880   3.221
13103TIP3    H239253   7.026   0.762   3.276
13104TIP3   OH239254   3.869   7.266   4.352
13104TIP3    H139255   3.804   7.299   4.414
13104TIP3    H239256   3.847   7.173   4.341
13105TIP3   OH239257   4.487   3.842   1.438
13105TIP3    H139258   4.484   3.886   1.523
13105TIP3    H239259   4.402   3.861   1.398
13106TIP3   OH239260   3.720   2.417   2.513
13106TIP3    H139261   3.655   2.446   2.578
13106TIP3    H239262   3.779   2.360   2.562
13107TIP3   OH239263   2.593   6.604   4.457
13107TIP3    H139264   2.509   6.645   4.439
13107TIP3    H239265   2.656   6.677   4.458
13108TIP3   OH239266   5.231   2.207   0.443
13108TIP3    H139267   5.300   2.263   0.409
13108TIP3    H239268   5.188   2.170   0.366
13109TIP3   OH239269   4.364   1.132   4.108
13109TIP3    H139270   4.374   1.041   4.080
13109TIP3    H239271   4.417   1.182   4.046
13110TIP3   OH239272   3.753   3.712   5.314
13110TIP3    H139273   3.736   3.783   5.377
13110TIP3    H239274   3.756   3.633   5.368
13111TIP3   OH239275   2.401   1.086   1.305
13111TIP3    H139276   2.355   1.013   1.263
13111TIP3    H239277   2.463   1.117   1.239
13112TIP3   OH239278   2.158   0.102   3.462
13112TIP3    H139279   2.130   0.082   3.552
13112TIP3    H239280   2.239   0.052   3.451
13113TIP3   OH239281   2.645   6.546   2.499
13113TIP3    H139282   2.670   6.622   2.446
13113TIP3    H239283   2.727   6.501   2.516
13114TIP3   OH239284   7.096   5.878   2.922
13114TIP3    H139285   7.128   5.818   2.990
13114TIP3    H239286   7.081   5.960   2.968
13115TIP3   OH239287   4.209   5.320  -0.064
13115TIP3    H139288   4.292   5.317  -0.017
13115TIP3    H239289   4.147   5.274  -0.008
13116TIP3   OH239290   4.561   3.195   1.926
13116TIP3    H139291   4.564   3.287   1.953
13116TIP3    H239292   4.524   3.197   1.838
13117TIP3   OH239293   5.091   4.577   3.366
13117TIP3    H139294   5.150   4.501   3.366
13117TIP3    H239295   5.005   4.540   3.346
13118TIP3   OH239296   0.119   4.045   0.727
13118TIP3    H139297   0.066   3.983   0.778
13118TIP3    H239298   0.069   4.058   0.647
13119TIP3   OH239299   0.639   0.141   3.383
13119TIP3    H139300   0.604   0.195   3.454
13119TIP3    H239301   0.607   0.182   3.303
13120TIP3   OH239302   5.986   0.008   4.140
13120TIP3    H139303   5.966  -0.020   4.051
13120TIP3    H239304   6.081   0.001   4.147
13121TIP3   OH239305   6.628   7.471   5.426
13121TIP3    H139306   6.533   7.485   5.435
13121TIP3    H239307   6.636   7.388   5.379
13122TIP3   OH239308   0.603   1.509   5.365
13122TIP3    H139309   0.560   1.575   5.419
13122TIP3    H239310   0.535   1.445   5.346
13123TIP3   OH239311   7.814   6.939   6.447
13123TIP3    H139312   7.763   6.875   6.397
13123TIP3    H239313   7.780   6.932   6.536
13124TIP3   OH239314   0.621   6.141   3.464
13124TIP3    H139315   0.656   6.063   3.421
13124TIP3    H239316   0.544   6.111   3.512
13125TIP3   OH239317   0.419   3.255   0.149
13125TIP3    H139318   0.509   3.248   0.117
13125TIP3    H239319   0.428   3.290   0.238
13126TIP3   OH239320   3.737   0.749   0.163
13126TIP3    H139321   3.803   0.708   0.219
13126TIP3    H239322   3.703   0.676   0.110
13127TIP3   OH239323   6.135   1.483   5.915
13127TIP3    H139324   6.168   1.486   6.005
13127TIP3    H239325   6.059   1.425   5.918
13128TIP3   OH239326   4.601   3.419   1.643
13128TIP3    H139327   4.594   3.496   1.586
13128TIP3    H239328   4.530   3.430   1.706
13129TIP3   OH239329   5.866   4.956   6.593
13129TIP3    H139330   5.846   4.899   6.668
13129TIP3    H239331   5.862   4.898   6.517
13130TIP3   OH239332   3.026   5.160   6.431
13130TIP3    H139333   3.079   5.134   6.356
13130TIP3    H239334   3.088   5.167   6.503
13131TIP3   OH239335   6.572   7.538   5.054
13131TIP3    H139336   6.575   7.444   5.037
13131TIP3    H239337   6.653   7.572   5.016
13132TIP3   OH239338   0.631   5.358   6.557
13132TIP3    H139339   0.687   5.332   6.629
13132TIP3    H239340   0.605   5.275   6.516
13133TIP3   OH239341   4.340   4.719   3.816
13133TIP3    H139342   4.433   4.741   3.818
13133TIP3    H239343   4.304   4.775   3.746
13134TIP3   OH239344   6.269   4.696   2.880
13134TIP3    H139345   6.337   4.664   2.821
13134TIP3    H239346   6.270   4.791   2.867
13135TIP3   OH239347   7.053   3.074   6.379
13135TIP3    H139348   7.085   3.065   6.469
13135TIP3    H239349   7.002   2.995   6.363
13136TIP3   OH239350   7.846   6.994   0.391
13136TIP3    H139351   7.911   7.003   0.322
13136TIP3    H239352   7.793   6.918   0.365
13137TIP3   OH239353   6.409   5.838   5.920
13137TIP3    H139354   6.377   5.748   5.928
13137TIP3    H239355   6.453   5.840   5.836
13138TIP3   OH239356   3.093   2.877   5.813
13138TIP3    H139357   3.088   2.964   5.774
13138TIP3    H239358   3.178   2.842   5.784
13139TIP3   OH239359   5.678   5.453   4.091
13139TIP3    H139360   5.656   5.459   4.184
13139TIP3    H239361   5.596   5.433   4.048
13140TIP3   OH239362   1.463   4.196   1.924
13140TIP3    H139363   1.510   4.137   1.983
13140TIP3    H239364   1.532   4.250   1.885
13141TIP3   OH239365   0.201   3.573   4.668
13141TIP3    H139366   0.135   3.522   4.715
13141TIP3    H239367   0.163   3.589   4.582
13142TIP3   OH239368   0.576   6.808   5.612
13142TIP3    H139369   0.549   6.822   5.521
13142TIP3    H239370   0.496   6.824   5.663
13143TIP3   OH239371   1.113   2.357   1.397
13143TIP3    H139372   1.042   2.301   1.366
13143TIP3    H239373   1.184   2.343   1.335
13144TIP3   OH239374   0.068   1.072   5.268
13144TIP3    H139375   0.130   0.999   5.261
13144TIP3    H239376   0.081   1.106   5.356
13145TIP3   OH239377   5.102   5.357   5.016
13145TIP3    H139378   5.147   5.442   5.016
13145TIP3    H239379   5.142   5.309   4.944
13146TIP3   OH239380   5.106   0.674   1.365
13146TIP3    H139381   5.164   0.748   1.381
13146TIP3    H239382   5.163   0.597   1.366
13147TIP3   OH239383   0.550   7.037   3.473
13147TIP3    H139384   0.509   7.013   3.556
13147TIP3    H239385   0.638   6.999   3.477
13148TIP3   OH239386   3.516   3.701   2.237
13148TIP3    H139387   3.495   3.735   2.324
13148TIP3    H239388   3.476   3.614   2.235
13149TIP3   OH239389   5.100   1.539   3.475
13149TIP3    H139390   5.080   1.627   3.443
13149TIP3    H239391   5.034   1.483   3.435
13150TIP3   OH239392   6.721   5.752   2.106
13150TIP3    H139393   6.755   5.776   2.192
13150TIP3    H239394   6.782   5.686   2.074
13151TIP3   OH239395   2.905   3.971   6.451
13151TIP3    H139396   2.927   4.055   6.490
13151TIP3    H239397   2.921   3.984   6.357
13152TIP3   OH239398   2.811   0.487   5.323
13152TIP3    H139399   2.730   0.521   5.287
13152TIP3    H239400   2.877   0.506   5.257
13153TIP3   OH239401   3.379   6.349   0.840
13153TIP3    H139402   3.296   6.304   0.858
13153TIP3    H239403   3.389   6.345   0.745
13154TIP3   OH239404   4.489   0.246   1.371
13154TIP3    H139405   4.568   0.226   1.321
13154TIP3    H239406   4.520   0.278   1.455
13155TIP3   OH239407   5.952   0.862   5.416
13155TIP3    H139408   5.977   0.906   5.497
13155TIP3    H239409   5.857   0.853   5.421
13156TIP3   OH239410   3.690   5.797   5.105
13156TIP3    H139411   3.628   5.786   5.177
13156TIP3    H239412   3.776   5.785   5.145
13157TIP3   OH239413   6.124   5.264   2.447
13157TIP3    H139414   6.216   5.250   2.471
13157TIP3    H239415   6.113   5.359   2.449
13158TIP3   OH239416   6.249   6.034   3.500
13158TIP3    H139417   6.210   5.972   3.562
13158TIP3    H239418   6.341   6.008   3.495
13159TIP3   OH239419   1.215   4.477   0.717
13159TIP3    H139420   1.241   4.431   0.637
13159TIP3    H239421   1.157   4.416   0.762
13160TIP3   OH239422   4.021   5.710   6.074
13160TIP3    H139423   4.086   5.646   6.044
13160TIP3    H239424   4.043   5.725   6.166
13161TIP3   OH239425   3.697   5.967   0.539
13161TIP3    H139426   3.768   5.997   0.596
13161TIP3    H239427   3.631   6.036   0.546
13162TIP3   OH239428   2.651   0.468   3.258
13162TIP3    H139429   2.606   0.551   3.244
13162TIP3    H239430   2.729   0.490   3.309
13163TIP3   OH239431   0.486   0.150   1.904
13163TIP3    H139432   0.506   0.184   1.991
13163TIP3    H239433   0.519   0.217   1.844
13164TIP3   OH239434   1.077   4.178   2.810
13164TIP3    H139435   1.160   4.136   2.835
13164TIP3    H239436   1.014   4.106   2.808
13165TIP3   OH239437   0.176   5.429   2.779
13165TIP3    H139438   0.150   5.386   2.860
13165TIP3    H239439   0.101   5.481   2.754
13166TIP3   OH239440   2.721   1.316   2.773
13166TIP3    H139441   2.670   1.384   2.729
13166TIP3    H239442   2.788   1.364   2.822
13167TIP3   OH239443   6.675   0.814   4.946
13167TIP3    H139444   6.680   0.873   5.022
13167TIP3    H239445   6.590   0.833   4.907
13168TIP3   OH239446   2.694   2.556   2.763
13168TIP3    H139447   2.741   2.635   2.734
13168TIP3    H239448   2.745   2.525   2.838
13169TIP3   OH239449   8.065   4.705   3.583
13169TIP3    H139450   8.018   4.779   3.545
13169TIP3    H239451   8.058   4.718   3.677
13170TIP3   OH239452   7.079   0.279   1.313
13170TIP3    H139453   7.139   0.212   1.280
13170TIP3    H239454   7.014   0.230   1.364
13171TIP3   OH239455   3.709   5.753   2.629
13171TIP3    H139456   3.759   5.763   2.548
13171TIP3    H239457   3.761   5.691   2.681
13172TIP3   OH239458   4.029   5.441   1.441
13172TIP3    H139459   4.116   5.422   1.407
13172TIP3    H239460   3.979   5.361   1.424
13173TIP3   OH239461   6.786   2.853   6.694
13173TIP3    H139462   6.702   2.819   6.663
13173TIP3    H239463   6.795   2.938   6.650
13174TIP3   OH239464   2.841   2.040   5.953
13174TIP3    H139465   2.850   1.948   5.927
13174TIP3    H239466   2.835   2.088   5.870
13175TIP3   OH239467   4.908   1.148   5.233
13175TIP3    H139468   4.895   1.203   5.310
13175TIP3    H239469   5.002   1.153   5.216
13176TIP3   OH239470   2.466   2.558   2.028
13176TIP3    H139471   2.432   2.604   2.105
13176TIP3    H239472   2.428   2.604   1.954
13177TIP3   OH239473   7.258   7.600   1.694
13177TIP3    H139474   7.192   7.536   1.668
13177TIP3    H239475   7.334   7.548   1.720
13178TIP3   OH239476   4.990   1.117   0.775
13178TIP3    H139477   4.971   1.028   0.806
13178TIP3    H239478   4.984   1.171   0.853
13179TIP3   OH239479   0.932   6.233   0.792
13179TIP3    H139480   0.936   6.274   0.878
13179TIP3    H239481   0.955   6.142   0.807
13180TIP3   OH239482   4.663   5.284   5.742
13180TIP3    H139483   4.598   5.333   5.692
13180TIP3    H239484   4.621   5.199   5.758
13181TIP3   OH239485   5.622   7.278   5.234
13181TIP3    H139486   5.680   7.214   5.192
13181TIP3    H239487   5.671   7.360   5.233
13182TIP3   OH239488   1.358   3.478   1.665
13182TIP3    H139489   1.308   3.554   1.698
13182TIP3    H239490   1.377   3.427   1.744
13183TIP3   OH239491   6.280   3.192   1.574
13183TIP3    H139492   6.211   3.216   1.637
13183TIP3    H239493   6.360   3.188   1.626
13184TIP3   OH239494   6.120   7.244   0.826
13184TIP3    H139495   6.212   7.248   0.800
13184TIP3    H239496   6.119   7.280   0.915
13185TIP3   OH239497   5.205   1.845   4.364
13185TIP3    H139498   5.195   1.845   4.269
13185TIP3    H239499   5.218   1.753   4.387
13186TIP3   OH239500   6.498   5.105   6.738
13186TIP3    H139501   6.465   5.015   6.736
13186TIP3    H239502   6.593   5.095   6.732
13187TIP3   OH239503   2.587   1.564   2.687
13187TIP3    H139504   2.500   1.567   2.725
13187TIP3    H239505   2.587   1.634   2.621
13188TIP3   OH239506   3.877   0.237   2.145
13188TIP3    H139507   3.913   0.188   2.219
13188TIP3    H239508   3.909   0.326   2.157
13189TIP3   OH239509   7.093   2.742   0.474
13189TIP3    H139510   7.184   2.724   0.501
13189TIP3    H239511   7.052   2.655   0.472
13190TIP3   OH239512   6.650   0.613   1.233
13190TIP3    H139513   6.588   0.602   1.305
13190TIP3    H239514   6.721   0.552   1.253
13191TIP3   OH239515   0.885   6.612   2.450
13191TIP3    H139516   0.899   6.705   2.466
13191TIP3    H239517   0.917   6.597   2.361
13192TIP3   OH239518   3.526   3.458   0.098
13192TIP3    H139519   3.608   3.419   0.068
13192TIP3    H239520   3.461   3.390   0.083
13193TIP3   OH239521   7.991   6.730   0.471
13193TIP3    H139522   8.011   6.662   0.407
13193TIP3    H239523   8.074   6.743   0.517
13194TIP3   OH239524   3.628   2.117   0.977
13194TIP3    H139525   3.647   2.170   0.900
13194TIP3    H239526   3.609   2.181   1.046
13195TIP3   OH239527   3.352   0.188   5.174
13195TIP3    H139528   3.288   0.158   5.109
13195TIP3    H239529   3.423   0.124   5.168
13196TIP3   OH239530   3.138   1.827   2.139
13196TIP3    H139531   3.161   1.744   2.181
13196TIP3    H239532   3.221   1.875   2.134
13197TIP3   OH239533   6.216   3.793   6.041
13197TIP3    H139534   6.148   3.839   6.091
13197TIP3    H239535   6.168   3.727   5.991
13198TIP3   OH239536   1.914   1.822   4.660
13198TIP3    H139537   1.832   1.870   4.672
13198TIP3    H239538   1.975   1.865   4.720
13199TIP3   OH239539   2.172   3.824   1.015
13199TIP3    H139540   2.123   3.856   0.939
13199TIP3    H239541   2.253   3.788   0.978
13200TIP3   OH239542   1.280   4.774   4.188
13200TIP3    H139543   1.204   4.725   4.155
13200TIP3    H239544   1.312   4.721   4.261
13201TIP3   OH239545   6.683   0.822   5.923
13201TIP3    H139546   6.724   0.825   5.837
13201TIP3    H239547   6.638   0.738   5.926
13202TIP3   OH239548   5.454   2.492   2.076
13202TIP3    H139549   5.369   2.534   2.075
13202TIP3    H239550   5.447   2.421   2.011
13203TIP3   OH239551   1.515   2.567   4.617
13203TIP3    H139552   1.592   2.550   4.564
13203TIP3    H239553   1.520   2.505   4.689
13204TIP3   OH239554   7.453   3.986   4.713
13204TIP3    H139555   7.386   4.054   4.711
13204TIP3    H239556   7.405   3.904   4.724
13205TIP3   OH239557   6.669   6.095   5.750
13205TIP3    H139558   6.701   6.009   5.776
13205TIP3    H239559   6.618   6.078   5.670
13206TIP3   OH239560   2.507   1.503   0.438
13206TIP3    H139561   2.466   1.513   0.523
13206TIP3    H239562   2.478   1.416   0.408
13207TIP3   OH239563   1.641   4.612   6.722
13207TIP3    H139564   1.564   4.654   6.682
13207TIP3    H239565   1.715   4.663   6.689
13208TIP3   OH239566   0.982   0.485   6.284
13208TIP3    H139567   1.042   0.492   6.358
13208TIP3    H239568   0.919   0.417   6.310
13209TIP3   OH239569   3.996   0.478   2.250
13209TIP3    H139570   3.924   0.486   2.313
13209TIP3    H239571   4.075   0.469   2.303
13210TIP3   OH239572   0.693   0.469   2.635
13210TIP3    H139573   0.787   0.458   2.618
13210TIP3    H239574   0.682   0.443   2.727
13211TIP3   OH239575   1.072   5.098   6.197
13211TIP3    H139576   1.092   5.182   6.157
13211TIP3    H239577   1.085   5.112   6.291
13212TIP3   OH239578   3.043   7.127   4.867
13212TIP3    H139579   3.028   7.113   4.961
13212TIP3    H239580   2.973   7.187   4.840
13213TIP3   OH239581   4.724   0.277   5.759
13213TIP3    H139582   4.801   0.260   5.813
13213TIP3    H239583   4.712   0.197   5.708
13214TIP3   OH239584   1.943   0.902   4.081
13214TIP3    H139585   1.907   0.851   4.009
13214TIP3    H239586   1.943   0.992   4.050
13215TIP3   OH239587   1.369   0.876   2.206
13215TIP3    H139588   1.342   0.795   2.251
13215TIP3    H239589   1.331   0.868   2.118
13216TIP3   OH239590   3.729   0.322   2.741
13216TIP3    H139591   3.803   0.378   2.764
13216TIP3    H239592   3.653   0.363   2.783
13217TIP3   OH239593   2.048   3.806   4.485
13217TIP3    H139594   1.997   3.752   4.546
13217TIP3    H239595   2.000   3.889   4.481
13218TIP3   OH239596   7.340   1.666   3.891
13218TIP3    H139597   7.374   1.593   3.944
13218TIP3    H239598   7.281   1.713   3.950
13219TIP3   OH239599   4.417   7.049   3.772
13219TIP3    H139600   4.327   7.021   3.755
13219TIP3    H239601   4.471   6.993   3.717
13220TIP3   OH239602   6.394   2.651   5.347
13220TIP3    H139603   6.395   2.747   5.354
13220TIP3    H239604   6.396   2.621   5.438
13221TIP3   OH239605   1.337   7.687   6.249
13221TIP3    H139606   1.290   7.750   6.305
13221TIP3    H239607   1.423   7.679   6.289
13222TIP3   OH239608   2.829   1.640   3.338
13222TIP3    H139609   2.803   1.701   3.407
13222TIP3    H239610   2.925   1.638   3.342
13223TIP3   OH239611   6.621   5.091   0.932
13223TIP3    H139612   6.654   5.055   0.850
13223TIP3    H239613   6.698   5.098   0.989
13224TIP3   OH239614   1.098   6.329   1.930
13224TIP3    H139615   1.094   6.352   2.022
13224TIP3    H239616   1.089   6.234   1.928
13225TIP3   OH239617   2.784   3.768   5.662
13225TIP3    H139618   2.842   3.819   5.718
13225TIP3    H239619   2.696   3.789   5.692
13226TIP3   OH239620   1.987   1.715   5.503
13226TIP3    H139621   1.955   1.746   5.418
13226TIP3    H239622   2.060   1.774   5.524
13227TIP3   OH239623   0.999   7.070   4.590
13227TIP3    H139624   1.075   7.117   4.554
13227TIP3    H239625   1.017   6.978   4.572
13228TIP3   OH239626   3.636   0.954   2.797
13228TIP3    H139627   3.653   0.926   2.707
13228TIP3    H239628   3.717   0.934   2.844
13229TIP3   OH239629   2.896   6.250   4.942
13229TIP3    H139630   2.827   6.208   4.993
13229TIP3    H239631   2.910   6.192   4.868
13230TIP3   OH239632   6.805   3.558   1.021
13230TIP3    H139633   6.763   3.565   1.106
13230TIP3    H239634   6.857   3.477   1.026
13231TIP3   OH239635   6.631   4.641   3.060
13231TIP3    H139636   6.726   4.651   3.067
13231TIP3    H239637   6.601   4.718   3.011
13232TIP3   OH239638   4.661   3.112   6.696
13232TIP3    H139639   4.666   3.107   6.600
13232TIP3    H239640   4.726   3.177   6.721
13233TIP3   OH239641   7.986   2.151   5.204
13233TIP3    H139642   7.931   2.157   5.282
13233TIP3    H239643   7.930   2.110   5.138
13234TIP3   OH239644   4.522   5.350   2.434
13234TIP3    H139645   4.596   5.290   2.427
13234TIP3    H239646   4.481   5.347   2.347
13235TIP3   OH239647   1.966   4.813   2.650
13235TIP3    H139648   2.043   4.867   2.627
13235TIP3    H239649   1.897   4.846   2.592
13236TIP3   OH239650   1.278   2.381   2.731
13236TIP3    H139651   1.354   2.366   2.675
13236TIP3    H239652   1.230   2.298   2.730
13237TIP3   OH239653   6.330   2.837   1.166
13237TIP3    H139654   6.332   2.783   1.087
13237TIP3    H239655   6.419   2.833   1.200
13238TIP3   OH239656   1.184   4.255   3.717
13238TIP3    H139657   1.253   4.316   3.743
13238TIP3    H239658   1.171   4.272   3.624
13239TIP3   OH239659   5.368   0.466   6.691
13239TIP3    H139660   5.452   0.422   6.686
13239TIP3    H239661   5.382   0.551   6.649
13240TIP3   OH239662   4.657   1.567   6.536
13240TIP3    H139663   4.593   1.614   6.483
13240TIP3    H239664   4.712   1.521   6.472
13241TIP3   OH239665   5.188   4.398   6.744
13241TIP3    H139666   5.256   4.445   6.792
13241TIP3    H239667   5.107   4.418   6.790
13242TIP3   OH239668   2.493   2.606   5.674
13242TIP3    H139669   2.479   2.668   5.745
13242TIP3    H239670   2.582   2.573   5.688
13243TIP3   OH239671   7.676   6.653   3.900
13243TIP3    H139672   7.706   6.637   3.810
13243TIP3    H239673   7.720   6.585   3.952
13244TIP3   OH239674   6.517   0.334   0.827
13244TIP3    H139675   6.503   0.311   0.919
13244TIP3    H239676   6.592   0.281   0.800
13245TIP3   OH239677   5.078   5.130   0.368
13245TIP3    H139678   5.066   5.143   0.275
13245TIP3    H239679   5.077   5.034   0.379
13246TIP3   OH239680   7.563   1.594   0.307
13246TIP3    H139681   7.591   1.564   0.394
13246TIP3    H239682   7.641   1.634   0.269
13247TIP3   OH239683   3.501   5.873   1.273
13247TIP3    H139684   3.407   5.892   1.275
13247TIP3    H239685   3.541   5.953   1.237
13248TIP3   OH239686   4.053   3.354   2.268
13248TIP3    H139687   4.107   3.427   2.299
13248TIP3    H239688   4.059   3.289   2.338
13249TIP3   OH239689   3.664   2.243   0.730
13249TIP3    H139690   3.596   2.309   0.716
13249TIP3    H239691   3.717   2.246   0.651
13250TIP3   OH239692   2.069   0.082   2.648
13250TIP3    H139693   2.102   0.085   2.559
13250TIP3    H239694   2.077   0.172   2.679
13251TIP3   OH239695   1.661   6.253   1.491
13251TIP3    H139696   1.709   6.235   1.572
13251TIP3    H239697   1.727   6.291   1.433
13252TIP3   OH239698   1.893   2.356   5.358
13252TIP3    H139699   1.936   2.337   5.441
13252TIP3    H239700   1.962   2.343   5.292
13253TIP3   OH239701   4.139   2.686   5.435
13253TIP3    H139702   4.214   2.627   5.435
13253TIP3    H239703   4.064   2.629   5.415
13254TIP3   OH239704   3.014   5.541   3.657
13254TIP3    H139705   3.105   5.548   3.627
13254TIP3    H239706   3.004   5.449   3.680
13255TIP3   OH239707   6.111   4.681   1.327
13255TIP3    H139708   6.089   4.672   1.234
13255TIP3    H239709   6.027   4.694   1.371
13256TIP3   OH239710   0.494   7.376   5.677
13256TIP3    H139711   0.515   7.463   5.710
13256TIP3    H239712   0.400   7.367   5.689
13257TIP3   OH239713   8.239   7.288   5.847
13257TIP3    H139714   8.206   7.374   5.819
13257TIP3    H239715   8.188   7.268   5.926
13258TIP3   OH239716   2.557   6.537   0.924
13258TIP3    H139717   2.549   6.442   0.919
13258TIP3    H239718   2.475   6.571   0.890
13259TIP3   OH239719   2.592   0.516   4.775
13259TIP3    H139720   2.552   0.589   4.822
13259TIP3    H239721   2.682   0.512   4.808
13260TIP3   OH239722   7.581   5.050   0.951
13260TIP3    H139723   7.571   5.127   1.008
13260TIP3    H239724   7.671   5.057   0.918
13261TIP3   OH239725   2.218   6.321   6.558
13261TIP3    H139726   2.200   6.409   6.526
13261TIP3    H239727   2.206   6.264   6.482
13262TIP3   OH239728   5.836   1.236   1.731
13262TIP3    H139729   5.817   1.198   1.816
13262TIP3    H239730   5.848   1.161   1.673
13263TIP3   OH239731   3.115   7.727   6.245
13263TIP3    H139732   3.028   7.688   6.237
13263TIP3    H239733   3.104   7.816   6.212
13264TIP3   OH239734   7.171   3.691   6.692
13264TIP3    H139735   7.171   3.714   6.785
13264TIP3    H239736   7.255   3.648   6.677
13265TIP3   OH239737   0.993   7.160   1.305
13265TIP3    H139738   0.997   7.200   1.392
13265TIP3    H239739   1.060   7.093   1.305
13266TIP3   OH239740   7.269   6.998   5.902
13266TIP3    H139741   7.190   7.005   5.954
13266TIP3    H239742   7.321   6.930   5.945
13267TIP3   OH239743   6.833   3.902   4.978
13267TIP3    H139744   6.873   3.880   4.894
13267TIP3    H239745   6.906   3.914   5.038
13268TIP3   OH239746   0.727   1.348   5.716
13268TIP3    H139747   0.747   1.424   5.771
13268TIP3    H239748   0.801   1.288   5.731
13269TIP3   OH239749   3.837   3.183   1.113
13269TIP3    H139750   3.908   3.180   1.177
13269TIP3    H239751   3.790   3.101   1.126
13270TIP3   OH239752   4.469   6.868   6.392
13270TIP3    H139753   4.488   6.882   6.485
13270TIP3    H239754   4.452   6.774   6.385
13271TIP3   OH239755   6.159   7.491   5.652
13271TIP3    H139756   6.110   7.574   5.653
13271TIP3    H239757   6.163   7.464   5.744
13272TIP3   OH239758   0.487   7.533   2.478
13272TIP3    H139759   0.396   7.561   2.471
13272TIP3    H239760   0.489   7.447   2.437
13273TIP3   OH239761   3.194   6.707   6.184
13273TIP3    H139762   3.101   6.700   6.206
13273TIP3    H239763   3.226   6.617   6.184
13274TIP3   OH239764   3.068   5.369   2.542
13274TIP3    H139765   3.122   5.290   2.542
13274TIP3    H239766   3.123   5.435   2.586
13275TIP3   OH239767   3.465   3.891   4.835
13275TIP3    H139768   3.538   3.897   4.897
13275TIP3    H239769   3.494   3.940   4.758
13276TIP3   OH239770   4.765   2.051   5.613
13276TIP3    H139771   4.787   2.108   5.686
13276TIP3    H239772   4.677   2.019   5.633
13277TIP3   OH239773   5.506   6.085   3.448
13277TIP3    H139774   5.479   6.176   3.436
13277TIP3    H239775   5.538   6.081   3.538
13278TIP3   OH239776   1.804   3.599   4.407
13278TIP3    H139777   1.810   3.503   4.410
13278TIP3    H239778   1.830   3.627   4.494
13279TIP3   OH239779   4.972   6.050   3.170
13279TIP3    H139780   4.880   6.073   3.159
13279TIP3    H239781   5.018   6.104   3.106
13280TIP3   OH239782   4.751   5.146   3.358
13280TIP3    H139783   4.833   5.194   3.344
13280TIP3    H239784   4.692   5.211   3.397
13281TIP3   OH239785   7.050   4.221   5.065
13281TIP3    H139786   7.029   4.176   4.983
13281TIP3    H239787   7.010   4.307   5.057
13282TIP3   OH239788   6.297   6.282   6.745
13282TIP3    H139789   6.375   6.233   6.773
13282TIP3    H239790   6.309   6.294   6.651
13283TIP3   OH239791   2.270   5.350   2.063
13283TIP3    H139792   2.284   5.292   2.138
13283TIP3    H239793   2.281   5.438   2.099
13284TIP3   OH239794   6.736   6.490   2.980
13284TIP3    H139795   6.745   6.585   2.989
13284TIP3    H239796   6.681   6.478   2.903
13285TIP3   OH239797   5.182   6.910   2.767
13285TIP3    H139798   5.141   6.923   2.853
13285TIP3    H239799   5.184   6.997   2.728
13286TIP3   OH239800   0.485   2.754   1.985
13286TIP3    H139801   0.523   2.842   1.989
13286TIP3    H239802   0.506   2.723   1.897
13287TIP3   OH239803   1.601   2.715   5.320
13287TIP3    H139804   1.510   2.697   5.342
13287TIP3    H239805   1.597   2.783   5.253
13288TIP3   OH239806   5.060   1.118   3.259
13288TIP3    H139807   5.005   1.196   3.253
13288TIP3    H239808   5.089   1.115   3.350
13289TIP3   OH239809   5.208   5.160   1.948
13289TIP3    H139810   5.136   5.158   2.011
13289TIP3    H239811   5.164   5.157   1.862
13290TIP3   OH239812   6.046   6.264   4.497
13290TIP3    H139813   6.116   6.219   4.451
13290TIP3    H239814   5.999   6.312   4.429
13291TIP3   OH239815   1.882   7.298   6.700
13291TIP3    H139816   1.872   7.371   6.760
13291TIP3    H239817   1.899   7.339   6.615
13292TIP3   OH239818   6.634   0.904   0.135
13292TIP3    H139819   6.651   0.923   0.043
13292TIP3    H239820   6.699   0.954   0.183
13293TIP3   OH239821   4.246   1.790   6.207
13293TIP3    H139822   4.177   1.838   6.253
13293TIP3    H239823   4.212   1.701   6.201
13294TIP3   OH239824   3.958   6.054   2.299
13294TIP3    H139825   3.913   6.117   2.243
13294TIP3    H239826   4.051   6.069   2.282
13295TIP3   OH239827   2.809   5.662   5.855
13295TIP3    H139828   2.806   5.576   5.812
13295TIP3    H239829   2.882   5.656   5.916
13296TIP3   OH239830   6.876   6.221   4.370
13296TIP3    H139831   6.971   6.210   4.373
13296TIP3    H239832   6.856   6.279   4.443
13297TIP3   OH239833   6.597   3.366   0.937
13297TIP3    H139834   6.642   3.282   0.944
13297TIP3    H239835   6.558   3.380   1.024
13298TIP3   OH239836   7.700   2.025   1.204
13298TIP3    H139837   7.756   2.086   1.251
13298TIP3    H239838   7.757   1.950   1.186
13299TIP3   OH239839   4.208   6.527   3.465
13299TIP3    H139840   4.119   6.491   3.464
13299TIP3    H239841   4.246   6.500   3.381
13300TIP3   OH239842   1.003   5.059   3.711
13300TIP3    H139843   0.978   5.140   3.756
13300TIP3    H239844   1.032   5.087   3.625
13301TIP3   OH239845   2.512   5.143   4.428
13301TIP3    H139846   2.437   5.086   4.446
13301TIP3    H239847   2.549   5.162   4.514
13302TIP3   OH239848   7.521   0.053   4.727
13302TIP3    H139849   7.614   0.064   4.745
13302TIP3    H239850   7.501   0.121   4.662
13303TIP3   OH239851   5.290   2.879   2.172
13303TIP3    H139852   5.310   2.809   2.109
13303TIP3    H239853   5.249   2.834   2.246
13304TIP3   OH239854   0.925   4.763   6.634
13304TIP3    H139855   0.834   4.765   6.661
13304TIP3    H239856   0.927   4.811   6.551
13305TIP3   OH239857   2.539   4.603   2.086
13305TIP3    H139858   2.581   4.688   2.076
13305TIP3    H239859   2.526   4.593   2.180
13306TIP3   OH239860   6.410   1.435   0.863
13306TIP3    H139861   6.346   1.504   0.880
13306TIP3    H239862   6.479   1.478   0.813
13307TIP3   OH239863   2.604   2.759   3.257
13307TIP3    H139864   2.611   2.673   3.216
13307TIP3    H239865   2.596   2.740   3.351
13308TIP3   OH239866   0.910   6.215   1.317
13308TIP3    H139867   0.827   6.233   1.361
13308TIP3    H239868   0.911   6.120   1.305
13309TIP3   OH239869   4.844   0.312   2.753
13309TIP3    H139870   4.857   0.252   2.679
13309TIP3    H239871   4.749   0.317   2.763
13310TIP3   OH239872   3.646   1.289   5.683
13310TIP3    H139873   3.695   1.211   5.709
13310TIP3    H239874   3.658   1.295   5.589
13311TIP3   OH239875   3.197   5.876   6.256
13311TIP3    H139876   3.130   5.817   6.220
13311TIP3    H239877   3.158   5.910   6.337
13312TIP3   OH239878   1.287   6.825   5.442
13312TIP3    H139879   1.323   6.884   5.375
13312TIP3    H239880   1.357   6.818   5.507
13313TIP3   OH239881   1.824   4.945   6.037
13313TIP3    H139882   1.855   5.022   5.990
13313TIP3    H239883   1.734   4.966   6.060
13314TIP3   OH239884   2.980   3.100   5.099
13314TIP3    H139885   3.067   3.100   5.139
13314TIP3    H239886   2.991   3.049   5.018
13315TIP3   OH239887   2.446   4.760   2.841
13315TIP3    H139888   2.537   4.744   2.815
13315TIP3    H239889   2.449   4.844   2.886
13316TIP3   OH239890   3.019   0.234   6.576
13316TIP3    H139891   3.066   0.155   6.604
13316TIP3    H239892   2.989   0.212   6.488
13317TIP3   OH239893   2.019   0.364   2.720
13317TIP3    H139894   1.937   0.389   2.679
13317TIP3    H239895   1.996   0.347   2.812
13318TIP3   OH239896   8.146   2.128   5.667
13318TIP3    H139897   8.225   2.173   5.697
13318TIP3    H239898   8.170   2.095   5.580
13319TIP3   OH239899   4.785   4.003   5.065
13319TIP3    H139900   4.714   3.956   5.021
13319TIP3    H239901   4.746   4.085   5.094
13320TIP3   OH239902   3.090   1.348   4.829
13320TIP3    H139903   3.117   1.379   4.915
13320TIP3    H239904   3.043   1.267   4.847
13321TIP3   OH239905   5.361   7.277   5.135
13321TIP3    H139906   5.364   7.182   5.122
13321TIP3    H239907   5.446   7.299   5.173
13322TIP3   OH239908   2.152   4.103   1.839
13322TIP3    H139909   2.194   4.017   1.837
13322TIP3    H239910   2.221   4.164   1.812
13323TIP3   OH239911   5.002   0.315   5.879
13323TIP3    H139912   5.070   0.312   5.812
13323TIP3    H239913   5.042   0.274   5.956
13324TIP3   OH239914   1.755   1.969   1.586
13324TIP3    H139915   1.764   1.875   1.595
13324TIP3    H239916   1.726   1.999   1.673
13325TIP3   OH239917   0.104   3.116   1.092
13325TIP3    H139918   0.122   3.170   1.015
13325TIP3    H239919   0.148   3.161   1.164
13326TIP3   OH239920   0.537   3.820   4.126
13326TIP3    H139921   0.500   3.864   4.202
13326TIP3    H239922   0.540   3.728   4.151
13327TIP3   OH239923   0.040   0.131   5.780
13327TIP3    H139924   0.127   0.169   5.772
13327TIP3    H239925   0.015   0.110   5.690
13328TIP3   OH239926   1.830   2.224   5.792
13328TIP3    H139927   1.786   2.281   5.729
13328TIP3    H239928   1.784   2.140   5.786
13329TIP3   OH239929   5.095   1.838   4.624
13329TIP3    H139930   5.102   1.859   4.531
13329TIP3    H239931   5.116   1.745   4.630
13330TIP3   OH239932   1.289   5.182   2.187
13330TIP3    H139933   1.264   5.103   2.235
13330TIP3    H239934   1.246   5.174   2.103
13331TIP3   OH239935   5.809   4.445   2.292
13331TIP3    H139936   5.859   4.454   2.210
13331TIP3    H239937   5.790   4.535   2.318
13332TIP3   OH239938   5.519   1.002   3.464
13332TIP3    H139939   5.599   1.051   3.444
13332TIP3    H239940   5.513   1.004   3.559
13333TIP3   OH239941   0.964   5.014   4.975
13333TIP3    H139942   1.029   4.983   5.039
13333TIP3    H239943   0.880   5.004   5.020
13334TIP3   OH239944   7.530   2.058   1.495
13334TIP3    H139945   7.474   2.134   1.514
13334TIP3    H239946   7.500   2.026   1.410
13335TIP3   OH239947   1.928   2.611   4.727
13335TIP3    H139948   2.011   2.604   4.774
13335TIP3    H239949   1.935   2.548   4.655
13336TIP3   OH239950   0.605   7.370   0.331
13336TIP3    H139951   0.665   7.387   0.404
13336TIP3    H239952   0.571   7.282   0.348
13337TIP3   OH239953   5.970   3.418   1.674
13337TIP3    H139954   6.020   3.343   1.705
13337TIP3    H239955   5.885   3.382   1.649
13338TIP3   OH239956   7.350   6.920   0.598
13338TIP3    H139957   7.332   6.916   0.504
13338TIP3    H239958   7.347   6.828   0.627
13339TIP3   OH239959   3.003   4.210   6.559
13339TIP3    H139960   3.087   4.210   6.605
13339TIP3    H239961   2.939   4.230   6.627
13340TIP3   OH239962   7.229   3.679   2.353
13340TIP3    H139963   7.149   3.657   2.304
13340TIP3    H239964   7.204   3.671   2.445
13341TIP3   OH239965   8.059   4.176   2.750
13341TIP3    H139966   8.115   4.106   2.715
13341TIP3    H239967   8.066   4.167   2.845
13342TIP3   OH239968   5.687   6.461   1.852
13342TIP3    H139969   5.742   6.537   1.836
13342TIP3    H239970   5.598   6.496   1.859
13343TIP3   OH239971   2.481   6.779   4.157
13343TIP3    H139972   2.474   6.875   4.160
13343TIP3    H239973   2.450   6.750   4.242
13344TIP3   OH239974   6.527   3.201   0.681
13344TIP3    H139975   6.574   3.236   0.606
13344TIP3    H239976   6.513   3.276   0.738
13345TIP3   OH239977   7.607   1.935   3.783
13345TIP3    H139978   7.599   2.009   3.844
13345TIP3    H239979   7.695   1.901   3.798
13346TIP3   OH239980   6.136   0.871   0.378
13346TIP3    H139981   6.230   0.887   0.385
13346TIP3    H239982   6.098   0.957   0.364
13347TIP3   OH239983   4.190   4.927   2.607
13347TIP3    H139984   4.123   4.924   2.676
13347TIP3    H239985   4.162   4.860   2.544
13348TIP3   OH239986   6.434   2.923   5.416
13348TIP3    H139987   6.528   2.913   5.432
13348TIP3    H239988   6.429   2.983   5.341
13349TIP3   OH239989   7.948   3.336   4.469
13349TIP3    H139990   7.910   3.276   4.405
13349TIP3    H239991   8.031   3.364   4.430
13350TIP3   OH239992   6.809   2.510   1.935
13350TIP3    H139993   6.849   2.593   1.911
13350TIP3    H239994   6.754   2.487   1.860
13351TIP3   OH239995   2.227   0.867   3.404
13351TIP3    H139996   2.244   0.958   3.426
13351TIP3    H239997   2.192   0.869   3.315
13352TIP3   OH239998   2.989   7.017   1.069
13352TIP3    H139999   2.968   7.051   0.982
13352TIP3    H240000   2.964   7.086   1.130
13353TIP3   OH240001   2.840   0.948   5.308
13353TIP3    H140002   2.815   0.940   5.400
13353TIP3    H240003   2.871   1.039   5.299
13354TIP3   OH240004   6.552   4.278   3.695
13354TIP3    H140005   6.606   4.216   3.646
13354TIP3    H240006   6.603   4.359   3.696
13355TIP3   OH240007   7.860   7.330   4.362
13355TIP3    H140008   7.898   7.249   4.329
13355TIP3    H240009   7.806   7.362   4.290
13356TIP3   OH240010   1.319   1.150   2.223
13356TIP3    H140011   1.230   1.184   2.214
13356TIP3    H240012   1.307   1.059   2.248
13357TIP3   OH240013   6.511   7.517   4.150
13357TIP3    H140014   6.498   7.590   4.088
13357TIP3    H240015   6.527   7.559   4.234
13358TIP3   OH240016   0.206   1.411   6.214
13358TIP3    H140017   0.190   1.487   6.159
13358TIP3    H240018   0.132   1.408   6.275
13359TIP3   OH240019   4.932   0.698   6.350
13359TIP3    H140020   4.878   0.772   6.323
13359TIP3    H240021   5.013   0.738   6.383
13360TIP3   OH240022   6.559   6.657   1.074
13360TIP3    H140023   6.577   6.655   1.168
13360TIP3    H240024   6.576   6.748   1.048
13361TIP3   OH240025   6.061   2.793   5.023
13361TIP3    H140026   6.134   2.826   5.075
13361TIP3    H240027   6.080   2.819   4.933
13362TIP3   OH240028   1.252   0.196   1.917
13362TIP3    H140029   1.222   0.204   2.007
13362TIP3    H240030   1.336   0.150   1.923
13363TIP3   OH240031   6.394   3.339   3.993
13363TIP3    H140032   6.375   3.305   4.081
13363TIP3    H240033   6.354   3.426   3.992
13364TIP3   OH240034   7.646   2.116   4.005
13364TIP3    H140035   7.615   2.048   4.066
13364TIP3    H240036   7.737   2.130   4.030
13365TIP3   OH240037   5.894   3.914   2.131
13365TIP3    H140038   5.937   3.999   2.130
13365TIP3    H240039   5.874   3.898   2.223
13366TIP3   OH240040   6.011   6.721   1.838
13366TIP3    H140041   6.074   6.769   1.892
13366TIP3    H240042   6.018   6.631   1.868
13367TIP3   OH240043   6.808   3.972   4.468
13367TIP3    H140044   6.896   3.986   4.433
13367TIP3    H240045   6.774   4.060   4.484
13368TIP3   OH240046   5.013   2.159   4.472
13368TIP3    H140047   4.973   2.080   4.437
13368TIP3    H240048   4.953   2.188   4.540
13369TIP3   OH240049   4.397   7.668   2.606
13369TIP3    H140050   4.449   7.649   2.528
13369TIP3    H240051   4.338   7.593   2.614
13370TIP3   OH240052   5.754   2.802   0.784
13370TIP3    H140053   5.777   2.837   0.698
13370TIP3    H240054   5.658   2.804   0.786
13371TIP3   OH240055   6.966   6.653   5.089
13371TIP3    H140056   7.005   6.738   5.068
13371TIP3    H240057   7.033   6.590   5.061
13372TIP3   OH240058   2.000   1.648   5.075
13372TIP3    H140059   2.003   1.743   5.066
13372TIP3    H240060   1.922   1.621   5.025
13373TIP3   OH240061   5.815   0.485   1.731
13373TIP3    H140062   5.827   0.421   1.801
13373TIP3    H240063   5.904   0.507   1.703
13374TIP3   OH240064   1.987   4.224   1.594
13374TIP3    H140065   2.065   4.249   1.545
13374TIP3    H240066   1.995   4.270   1.677
13375TIP3   OH240067   0.339   4.204   0.934
13375TIP3    H140068   0.279   4.273   0.907
13375TIP3    H240069   0.421   4.249   0.952
13376TIP3   OH240070   5.171   4.471   5.965
13376TIP3    H140071   5.191   4.471   5.871
13376TIP3    H240072   5.093   4.527   5.973
13377TIP3   OH240073   1.170   0.226   2.226
13377TIP3    H140074   1.229   0.296   2.253
13377TIP3    H240075   1.123   0.202   2.305
13378TIP3   OH240076   0.288   2.844   2.152
13378TIP3    H140077   0.254   2.933   2.135
13378TIP3    H240078   0.334   2.821   2.071
13379TIP3   OH240079   1.997   3.485   2.674
13379TIP3    H140080   2.013   3.444   2.759
13379TIP3    H240081   2.082   3.517   2.647
13380TIP3   OH240082   1.778   2.868   2.711
13380TIP3    H140083   1.860   2.820   2.712
13380TIP3    H240084   1.803   2.960   2.721
13381TIP3   OH240085   7.554   2.056   5.830
13381TIP3    H140086   7.597   2.035   5.914
13381TIP3    H240087   7.506   2.137   5.848
13382TIP3   OH240088   7.974   7.545   2.924
13382TIP3    H140089   7.958   7.586   3.009
13382TIP3    H240090   7.941   7.455   2.935
13383TIP3   OH240091   3.148   7.125   4.240
13383TIP3    H140092   3.235   7.165   4.236
13383TIP3    H240093   3.141   7.091   4.329
13384TIP3   OH240094   0.947   3.501   2.189
13384TIP3    H140095   0.916   3.440   2.121
13384TIP3    H240096   0.906   3.584   2.167
13385TIP3   OH240097   6.436   6.743   2.844
13385TIP3    H140098   6.484   6.677   2.793
13385TIP3    H240099   6.355   6.700   2.869
13386TIP3   OH240100   7.130   6.090   4.899
13386TIP3    H140101   7.115   6.145   4.976
13386TIP3    H240102   7.042   6.069   4.867
13387TIP3   OH240103   2.519   0.432   4.501
13387TIP3    H140104   2.529   0.454   4.594
13387TIP3    H240105   2.565   0.348   4.492
13388TIP3   OH240106   0.321   1.716   1.979
13388TIP3    H140107   0.377   1.645   1.949
13388TIP3    H240108   0.368   1.796   1.956
13389TIP3   OH240109   0.546   1.739   4.419
13389TIP3    H140110   0.571   1.731   4.511
13389TIP3    H240111   0.575   1.826   4.394
13390TIP3   OH240112   4.451   6.867   6.722
13390TIP3    H140113   4.528   6.867   6.778
13390TIP3    H240114   4.380   6.898   6.779
13391TIP3   OH240115   3.685   4.386   4.311
13391TIP3    H140116   3.657   4.351   4.396
13391TIP3    H240117   3.603   4.401   4.264
13392TIP3   OH240118   6.610   3.110   4.261
13392TIP3    H140119   6.665   3.129   4.185
13392TIP3    H240120   6.541   3.176   4.257
13393TIP3   OH240121   3.751   2.077   6.269
13393TIP3    H140122   3.674   2.131   6.289
13393TIP3    H240123   3.731   1.991   6.306
13394TIP3   OH240124   6.840   6.680   6.003
13394TIP3    H140125   6.880   6.740   6.066
13394TIP3    H240126   6.911   6.659   5.941
13395TIP3   OH240127   7.568   1.270   4.997
13395TIP3    H140128   7.552   1.306   5.084
13395TIP3    H240129   7.636   1.327   4.960
13396TIP3   OH240130   0.274   2.601   5.471
13396TIP3    H140131   0.237   2.682   5.505
13396TIP3    H240132   0.327   2.567   5.543
13397TIP3   OH240133   0.221   6.821   6.800
13397TIP3    H140134   0.267   6.859   6.725
13397TIP3    H240135   0.130   6.814   6.771
13398TIP3   OH240136   7.550   0.086   6.420
13398TIP3    H140137   7.487   0.143   6.466
13398TIP3    H240138   7.496   0.032   6.363
13399TIP3   OH240139   1.911   6.165   5.298
13399TIP3    H140140   1.964   6.097   5.340
13399TIP3    H240141   1.882   6.124   5.216
13400TIP3   OH240142   2.073   4.649   1.850
13400TIP3    H140143   2.037   4.631   1.937
13400TIP3    H240144   2.168   4.652   1.864
13401TIP3   OH240145   5.094   4.852   3.921
13401TIP3    H140146   5.026   4.884   3.861
13401TIP3    H240147   5.048   4.791   3.978
13402TIP3   OH240148   2.966   4.921   3.085
13402TIP3    H140149   2.959   4.825   3.081
13402TIP3    H240150   2.968   4.940   3.179
13403TIP3   OH240151   3.284   3.389   6.161
13403TIP3    H140152   3.347   3.445   6.207
13403TIP3    H240153   3.285   3.422   6.071
13404TIP3   OH240154   1.445   3.389   5.749
13404TIP3    H140155   1.371   3.445   5.773
13404TIP3    H240156   1.522   3.436   5.782
13405TIP3   OH240157   0.231   5.741   0.129
13405TIP3    H140158   0.212   5.811   0.066
13405TIP3    H240159   0.309   5.698   0.094
13406TIP3   OH240160   0.556   3.142   6.023
13406TIP3    H140161   0.536   3.199   5.949
13406TIP3    H240162   0.652   3.135   6.024
13407TIP3   OH240163   5.922   5.783   5.299
13407TIP3    H140164   5.969   5.758   5.378
13407TIP3    H240165   5.924   5.705   5.243
13408TIP3   OH240166   2.117   4.939   1.214
13408TIP3    H140167   2.033   4.912   1.251
13408TIP3    H240168   2.167   4.858   1.206
13409TIP3   OH240169   1.778   4.373   4.719
13409TIP3    H140170   1.777   4.425   4.638
13409TIP3    H240171   1.761   4.283   4.690
13410TIP3   OH240172   4.465   3.827   0.713
13410TIP3    H140173   4.455   3.815   0.619
13410TIP3    H240174   4.463   3.738   0.750
13411TIP3   OH240175   1.553   7.550   3.482
13411TIP3    H140176   1.585   7.526   3.569
13411TIP3    H240177   1.532   7.467   3.440
13412TIP3   OH240178   4.244   2.469   3.769
13412TIP3    H140179   4.159   2.450   3.731
13412TIP3    H240180   4.269   2.553   3.732
13413TIP3   OH240181   3.911   4.172   3.237
13413TIP3    H140182   3.929   4.088   3.194
13413TIP3    H240183   3.947   4.162   3.325
13414TIP3   OH240184   2.249   6.397   3.057
13414TIP3    H140185   2.289   6.310   3.048
13414TIP3    H240186   2.322   6.458   3.044
13415TIP3   OH240187   4.500   0.157   0.896
13415TIP3    H140188   4.418   0.207   0.893
13415TIP3    H240189   4.481   0.084   0.955
13416TIP3   OH240190   1.602   6.784   1.134
13416TIP3    H140191   1.544   6.727   1.185
13416TIP3    H240192   1.544   6.826   1.070
13417TIP3   OH240193   4.482   4.958   4.467
13417TIP3    H140194   4.400   4.916   4.494
13417TIP3    H240195   4.533   4.887   4.426
13418TIP3   OH240196   6.434   7.523   0.983
13418TIP3    H140197   6.398   7.435   0.997
13418TIP3    H240198   6.471   7.548   1.067
13419TIP3   OH240199   1.228   6.706   2.142
13419TIP3    H140200   1.136   6.685   2.129
13419TIP3    H240201   1.270   6.682   2.060
13420TIP3   OH240202   1.496   4.227   0.600
13420TIP3    H140203   1.547   4.169   0.656
13420TIP3    H240204   1.559   4.291   0.568
13421TIP3   OH240205   0.489   1.461   4.152
13421TIP3    H140206   0.449   1.387   4.198
13421TIP3    H240207   0.514   1.425   4.067
13422TIP3   OH240208   6.359   6.396   5.471
13422TIP3    H140209   6.443   6.421   5.510
13422TIP3    H240210   6.382   6.331   5.405
13423TIP3   OH240211   0.085   1.523   1.130
13423TIP3    H140212   0.094   1.431   1.155
13423TIP3    H240213   0.012   1.525   1.069
13424TIP3   OH240214   1.482   1.223   2.756
13424TIP3    H140215   1.442   1.301   2.718
13424TIP3    H240216   1.534   1.185   2.686
13425TIP3   OH240217   2.866   2.332   1.398
13425TIP3    H140218   2.924   2.350   1.324
13425TIP3    H240219   2.902   2.252   1.438
13426TIP3   OH240220   5.261   0.010   4.149
13426TIP3    H140221   5.332   0.050   4.198
13426TIP3    H240222   5.243   0.071   4.078
13427TIP3   OH240223   3.256   5.964   0.009
13427TIP3    H140224   3.309   5.972   0.089
13427TIP3    H240225   3.177   6.014   0.028
13428TIP3   OH240226   1.892   2.384   3.838
13428TIP3    H140227   1.798   2.405   3.838
13428TIP3    H240228   1.917   2.387   3.746
13429TIP3   OH240229   0.668   6.956   0.848
13429TIP3    H140230   0.590   7.012   0.851
13429TIP3    H240231   0.742   7.016   0.858
13430TIP3   OH240232   2.645   6.775   0.569
13430TIP3    H140233   2.568   6.725   0.541
13430TIP3    H240234   2.694   6.714   0.625
13431TIP3   OH240235   0.426   4.380   0.618
13431TIP3    H140236   0.369   4.323   0.567
13431TIP3    H240237   0.475   4.429   0.552
13432TIP3   OH240238   2.907   0.390   2.996
13432TIP3    H140239   2.820   0.355   2.980
13432TIP3    H240240   2.964   0.343   2.935
13433TIP3   OH240241   8.062   5.164   2.236
13433TIP3    H140242   8.133   5.103   2.256
13433TIP3    H240243   7.995   5.111   2.193
13434TIP3   OH240244   5.015   7.817   6.566
13434TIP3    H140245   4.998   7.744   6.506
13434TIP3    H240246   4.937   7.872   6.560
13435TIP3   OH240247   7.272   3.457   4.780
13435TIP3    H140248   7.335   3.422   4.717
13435TIP3    H240249   7.324   3.474   4.859
13436TIP3   OH240250   4.692   2.706   3.007
13436TIP3    H140251   4.719   2.790   2.970
13436TIP3    H240252   4.738   2.641   2.955
13437TIP3   OH240253   7.738   1.640   4.983
13437TIP3    H140254   7.767   1.563   4.934
13437TIP3    H240255   7.808   1.704   4.972
13438TIP3   OH240256   1.282   1.486   0.491
13438TIP3    H140257   1.342   1.500   0.418
13438TIP3    H240258   1.287   1.566   0.543
13439TIP3   OH240259   1.093   2.706   3.260
13439TIP3    H140260   1.134   2.777   3.309
13439TIP3    H240261   1.009   2.692   3.304
13440TIP3   OH240262   1.316   5.533   3.372
13440TIP3    H140263   1.271   5.464   3.324
13440TIP3    H240264   1.301   5.512   3.464
13441TIP3   OH240265   2.299   7.247   2.690
13441TIP3    H140266   2.384   7.234   2.730
13441TIP3    H240267   2.285   7.342   2.693
13442TIP3   OH240268   3.025   1.766   3.020
13442TIP3    H140269   2.944   1.767   2.968
13442TIP3    H240270   3.071   1.688   2.990
13443TIP3   OH240271   5.691   4.437   0.736
13443TIP3    H140272   5.645   4.454   0.654
13443TIP3    H240273   5.633   4.472   0.804
13444TIP3   OH240274   3.946   0.563   2.712
13444TIP3    H140275   3.974   0.653   2.727
13444TIP3    H240276   3.918   0.532   2.798
13445TIP3   OH240277   5.623   0.757   1.375
13445TIP3    H140278   5.649   0.742   1.466
13445TIP3    H240279   5.592   0.672   1.345
13446TIP3   OH240280   0.696   4.040   2.041
13446TIP3    H140281   0.700   4.097   1.964
13446TIP3    H240282   0.757   4.079   2.104
13447TIP3   OH240283   4.945   0.828   0.799
13447TIP3    H140284   4.969   0.768   0.869
13447TIP3    H240285   4.850   0.838   0.808
13448TIP3   OH240286   7.009   3.060   5.602
13448TIP3    H140287   7.032   3.026   5.688
13448TIP3    H240288   6.980   3.150   5.619
13449TIP3   OH240289   4.239   5.214   0.779
13449TIP3    H140290   4.236   5.270   0.856
13449TIP3    H240291   4.162   5.240   0.727
13450TIP3   OH240292   1.267   5.725   2.610
13450TIP3    H140293   1.197   5.783   2.641
13450TIP3    H240294   1.324   5.714   2.686
13451TIP3   OH240295   2.472   7.412   0.638
13451TIP3    H140296   2.557   7.447   0.611
13451TIP3    H240297   2.450   7.348   0.571
13452TIP3   OH240298   3.332   5.362   2.388
13452TIP3    H140299   3.253   5.412   2.368
13452TIP3    H240300   3.402   5.427   2.393
13453TIP3   OH240301   5.923   5.757   6.250
13453TIP3    H140302   5.914   5.699   6.326
13453TIP3    H240303   5.980   5.709   6.190
13454TIP3   OH240304   3.402   1.305   3.201
13454TIP3    H140305   3.479   1.353   3.230
13454TIP3    H240306   3.389   1.333   3.110
13455TIP3   OH240307   3.140   1.164   0.936
13455TIP3    H140308   3.137   1.259   0.941
13455TIP3    H240309   3.232   1.143   0.922
13456TIP3   OH240310   6.055   6.606   2.251
13456TIP3    H140311   6.013   6.520   2.256
13456TIP3    H240312   6.137   6.594   2.300
13457TIP3   OH240313   7.285   7.425   5.392
13457TIP3    H140314   7.354   7.372   5.431
13457TIP3    H240315   7.203   7.388   5.425
13458TIP3   OH240316   3.165   2.128   1.279
13458TIP3    H140317   3.242   2.171   1.317
13458TIP3    H240318   3.108   2.111   1.354
13459TIP3   OH240319   3.947   2.852   4.971
13459TIP3    H140320   3.985   2.792   4.907
13459TIP3    H240321   3.983   2.825   5.055
13460TIP3   OH240322   6.662   6.860   4.102
13460TIP3    H140323   6.754   6.845   4.125
13460TIP3    H240324   6.646   6.803   4.027
13461TIP3   OH240325   6.358   7.121   0.453
13461TIP3    H140326   6.406   7.045   0.488
13461TIP3    H240327   6.418   7.158   0.388
13462TIP3   OH240328   5.088   4.074   1.600
13462TIP3    H140329   5.104   3.991   1.554
13462TIP3    H240330   5.159   4.079   1.664
13463TIP3   OH240331   5.952   1.052   2.479
13463TIP3    H140332   5.864   1.046   2.442
13463TIP3    H240333   5.987   0.963   2.472
13464TIP3   OH240334   5.029   4.629   4.329
13464TIP3    H140335   4.972   4.604   4.402
13464TIP3    H240336   5.111   4.654   4.371
13465TIP3   OH240337   4.341   0.966   3.040
13465TIP3    H140338   4.432   0.985   3.016
13465TIP3    H240339   4.300   1.052   3.050
13466TIP3   OH240340   6.254   5.796   1.129
13466TIP3    H140341   6.349   5.784   1.118
13466TIP3    H240342   6.217   5.709   1.114
13467TIP3   OH240343   5.815   2.598   4.748
13467TIP3    H140344   5.847   2.603   4.838
13467TIP3    H240345   5.736   2.544   4.754
13468TIP3   OH240346   6.350   4.493   4.074
13468TIP3    H140347   6.304   4.578   4.077
13468TIP3    H240348   6.351   4.464   4.165
13469TIP3   OH240349   4.984   3.976   0.033
13469TIP3    H140350   4.910   3.958  -0.025
13469TIP3    H240351   4.953   3.950   0.120
13470TIP3   OH240352   3.888   7.733   1.796
13470TIP3    H140353   3.929   7.657   1.837
13470TIP3    H240354   3.958   7.799   1.792
13471TIP3   OH240355   3.752   0.118   1.904
13471TIP3    H140356   3.792   0.158   1.981
13471TIP3    H240357   3.685   0.181   1.876
13472TIP3   OH240358   3.809   3.385   3.266
13472TIP3    H140359   3.905   3.386   3.266
13472TIP3    H240360   3.786   3.294   3.244
13473TIP3   OH240361   2.030   4.361   6.247
13473TIP3    H140362   1.947   4.399   6.216
13473TIP3    H240363   2.097   4.404   6.194
13474TIP3   OH240364   0.615   5.545   4.324
13474TIP3    H140365   0.587   5.489   4.395
13474TIP3    H240366   0.681   5.603   4.363
13475TIP3   OH240367   4.522   4.803   4.919
13475TIP3    H140368   4.458   4.797   4.990
13475TIP3    H240369   4.559   4.715   4.912
13476TIP3   OH240370   7.496   5.444   2.707
13476TIP3    H140371   7.425   5.381   2.701
13476TIP3    H240372   7.454   5.527   2.730
13477TIP3   OH240373   5.595   3.857   1.279
13477TIP3    H140374   5.688   3.868   1.298
13477TIP3    H240375   5.590   3.773   1.233
13478TIP3   OH240376   7.389   3.967   6.593
13478TIP3    H140377   7.371   4.002   6.680
13478TIP3    H240378   7.481   3.989   6.576
13479TIP3   OH240379   1.732   3.100   4.912
13479TIP3    H140380   1.821   3.113   4.881
13479TIP3    H240381   1.717   3.006   4.906
13480TIP3   OH240382   1.449   5.884   0.945
13480TIP3    H140383   1.530   5.926   0.973
13480TIP3    H240384   1.474   5.793   0.929
13481TIP3   OH240385   4.634   4.512   0.306
13481TIP3    H140386   4.664   4.460   0.380
13481TIP3    H240387   4.601   4.448   0.243
13482TIP3   OH240388   0.378   4.228   0.103
13482TIP3    H140389   0.405   4.207   0.192
13482TIP3    H240390   0.389   4.145   0.055
13483TIP3   OH240391   7.644   5.864   1.422
13483TIP3    H140392   7.707   5.892   1.488
13483TIP3    H240393   7.559   5.866   1.466
13484TIP3   OH240394   1.466   2.660   1.545
13484TIP3    H140395   1.558   2.683   1.530
13484TIP3    H240396   1.421   2.744   1.555
13485TIP3   OH240397   3.924   5.202   4.858
13485TIP3    H140398   3.958   5.126   4.905
13485TIP3    H240399   3.909   5.169   4.769
13486TIP3   OH240400   2.808   1.667   4.267
13486TIP3    H140401   2.746   1.695   4.200
13486TIP3    H240402   2.782   1.577   4.287
13487TIP3   OH240403   7.988   6.856   1.216
13487TIP3    H140404   8.021   6.856   1.306
13487TIP3    H240405   8.058   6.895   1.165
13488TIP3   OH240406   8.083   2.311   1.676
13488TIP3    H140407   7.989   2.312   1.660
13488TIP3    H240408   8.091   2.328   1.770
13489TIP3   OH240409   5.236   4.414   5.695
13489TIP3    H140410   5.332   4.411   5.695
13489TIP3    H240411   5.211   4.359   5.620
13490TIP3   OH240412   8.132   5.422   3.815
13490TIP3    H140413   8.220   5.453   3.792
13490TIP3    H240414   8.141   5.389   3.904
13491TIP3   OH240415   5.283   1.701   6.588
13491TIP3    H140416   5.328   1.735   6.666
13491TIP3    H240417   5.314   1.610   6.581
13492TIP3   OH240418   6.672   3.952   3.155
13492TIP3    H140419   6.598   3.908   3.196
13492TIP3    H240420   6.746   3.893   3.170
13493TIP3   OH240421   1.971   3.572   6.131
13493TIP3    H140422   2.053   3.528   6.108
13493TIP3    H240423   1.909   3.541   6.065
13494TIP3   OH240424   0.964   5.301   4.874
13494TIP3    H140425   0.999   5.215   4.851
13494TIP3    H240426   0.903   5.284   4.946
13495TIP3   OH240427   6.418   2.619   5.681
13495TIP3    H140428   6.372   2.699   5.703
13495TIP3    H240429   6.504   2.648   5.650
13496TIP3   OH240430   7.581   6.493   5.802
13496TIP3    H140431   7.666   6.459   5.831
13496TIP3    H240432   7.524   6.483   5.879
13497TIP3   OH240433   8.161   3.171   1.338
13497TIP3    H140434   8.078   3.124   1.350
13497TIP3    H240435   8.229   3.105   1.351
13498TIP3   OH240436   7.488   4.427   4.216
13498TIP3    H140437   7.557   4.464   4.160
13498TIP3    H240438   7.535   4.401   4.295
13499TIP3   OH240439   1.854   6.498   1.899
13499TIP3    H140440   1.818   6.434   1.960
13499TIP3    H240441   1.781   6.519   1.841
13500TIP3   OH240442   5.232   2.143   5.216
13500TIP3    H140443   5.183   2.220   5.245
13500TIP3    H240444   5.321   2.160   5.245
13501TIP3   OH240445   3.709   4.162   5.069
13501TIP3    H140446   3.666   4.085   5.105
13501TIP3    H240447   3.662   4.181   4.988
13502TIP3   OH240448   3.552   6.115   5.522
13502TIP3    H140449   3.597   6.194   5.551
13502TIP3    H240450   3.622   6.050   5.513
13503TIP3   OH240451   5.314   6.392   2.406
13503TIP3    H140452   5.250   6.422   2.341
13503TIP3    H240453   5.392   6.369   2.354
13504TIP3   OH240454   1.818   0.580   6.433
13504TIP3    H140455   1.872   0.618   6.502
13504TIP3    H240456   1.845   0.488   6.430
13505TIP3   OH240457   0.506   4.526   1.573
13505TIP3    H140458   0.452   4.536   1.651
13505TIP3    H240459   0.554   4.444   1.588
13506TIP3   OH240460   7.019   0.626   0.357
13506TIP3    H140461   7.037   0.698   0.296
13506TIP3    H240462   7.104   0.585   0.371
13507TIP3   OH240463   6.927   5.384   4.733
13507TIP3    H140464   6.945   5.304   4.782
13507TIP3    H240465   6.915   5.356   4.643
13508TIP3   OH240466   7.709   3.140   3.642
13508TIP3    H140467   7.760   3.169   3.566
13508TIP3    H240468   7.715   3.213   3.704
13509TIP3   OH240469   1.471   0.637   3.946
13509TIP3    H140470   1.445   0.576   3.877
13509TIP3    H240471   1.428   0.720   3.922
13510TIP3   OH240472   2.664   4.162   6.413
13510TIP3    H140473   2.683   4.094   6.477
13510TIP3    H240474   2.645   4.240   6.466
13511TIP3   OH240475   3.554   0.492   6.357
13511TIP3    H140476   3.642   0.511   6.389
13511TIP3    H240477   3.498   0.554   6.404
13512TIP3   OH240478   2.802   4.397   4.299
13512TIP3    H140479   2.835   4.447   4.224
13512TIP3    H240480   2.871   4.405   4.365
13513TIP3   OH240481   8.279   7.266   4.451
13513TIP3    H140482   8.253   7.349   4.409
13513TIP3    H240483   8.274   7.284   4.544
13514TIP3   OH240484   8.334   7.175   2.209
13514TIP3    H140485   8.266   7.150   2.147
13514TIP3    H240486   8.315   7.123   2.287
13515TIP3   OH240487   5.259   5.804   4.392
13515TIP3    H140488   5.291   5.818   4.303
13515TIP3    H240489   5.310   5.731   4.426
13516TIP3   OH240490   5.614   6.234   6.715
13516TIP3    H140491   5.575   6.316   6.684
13516TIP3    H240492   5.540   6.173   6.721
13517TIP3   OH240493   7.315   4.132   4.004
13517TIP3    H140494   7.342   4.106   4.092
13517TIP3    H240495   7.322   4.052   3.952
13518TIP3   OH240496   5.955   6.374   0.757
13518TIP3    H140497   6.013   6.385   0.832
13518TIP3    H240498   5.875   6.336   0.794
13519TIP3   OH240499   2.968   1.897   5.572
13519TIP3    H140500   3.010   1.826   5.525
13519TIP3    H240501   3.019   1.905   5.653
13520TIP3   OH240502   0.160   0.716   0.709
13520TIP3    H140503   0.197   0.783   0.766
13520TIP3    H240504   0.236   0.665   0.680
13521TIP3   OH240505   4.599   7.581   6.538
13521TIP3    H140506   4.521   7.535   6.508
13521TIP3    H240507   4.669   7.515   6.533
13522TIP3   OH240508   5.902   1.882   6.366
13522TIP3    H140509   5.930   1.827   6.439
13522TIP3    H240510   5.943   1.843   6.289
13523TIP3   OH240511   6.612   6.373   4.130
13523TIP3    H140512   6.590   6.406   4.042
13523TIP3    H240513   6.642   6.451   4.177
13524TIP3   OH240514   5.772   6.128   3.665
13524TIP3    H140515   5.817   6.162   3.588
13524TIP3    H240516   5.766   6.034   3.650
13525TIP3   OH240517   2.278   0.941   4.393
13525TIP3    H140518   2.281   1.005   4.322
13525TIP3    H240519   2.370   0.917   4.408
13526TIP3   OH240520   4.650   1.402   2.115
13526TIP3    H140521   4.562   1.389   2.151
13526TIP3    H240522   4.680   1.314   2.092
13527TIP3   OH240523   3.066   0.658   4.749
13527TIP3    H140524   3.140   0.709   4.782
13527TIP3    H240525   2.997   0.670   4.815
13528TIP3   OH240526   5.892   6.474   6.101
13528TIP3    H140527   5.925   6.485   6.012
13528TIP3    H240528   5.879   6.379   6.110
13529TIP3   OH240529   2.703   2.917   6.576
13529TIP3    H140530   2.735   2.974   6.645
13529TIP3    H240531   2.625   2.961   6.542
13530TIP3   OH240532   0.026   5.635   5.636
13530TIP3    H140533   0.063   5.719   5.610
13530TIP3    H240534   0.025   5.583   5.556
13531TIP3   OH240535   4.880   5.547   4.695
13531TIP3    H140536   4.788   5.568   4.682
13531TIP3    H240537   4.922   5.632   4.709
13532TIP3   OH240538   7.390   0.158   2.705
13532TIP3    H140539   7.322   0.132   2.767
13532TIP3    H240540   7.470   0.116   2.737
13533TIP3   OH240541   7.420   4.744   2.591
13533TIP3    H140542   7.452   4.783   2.509
13533TIP3    H240543   7.457   4.799   2.660
13534TIP3   OH240544   4.994   5.187   3.847
13534TIP3    H140545   5.087   5.185   3.823
13534TIP3    H240546   4.953   5.121   3.792
13535TIP3   OH240547   3.161   0.086   4.862
13535TIP3    H140548   3.170   0.025   4.935
13535TIP3    H240549   3.070   0.076   4.833
13536TIP3   OH240550   0.345   1.389   1.089
13536TIP3    H140551   0.304   1.445   1.024
13536TIP3    H240552   0.407   1.335   1.039
13537TIP3   OH240553   4.435   5.758   6.310
13537TIP3    H140554   4.483   5.818   6.253
13537TIP3    H240555   4.467   5.671   6.285
13538TIP3   OH240556   4.489   5.008   5.153
13538TIP3    H140557   4.516   4.999   5.245
13538TIP3    H240558   4.396   5.027   5.157
13539TIP3   OH240559   0.514   2.988   3.725
13539TIP3    H140560   0.590   2.932   3.707
13539TIP3    H240561   0.505   3.041   3.646
13540TIP3   OH240562   1.835   7.667   4.533
13540TIP3    H140563   1.761   7.696   4.587
13540TIP3    H240564   1.877   7.598   4.584
13541TIP3   OH240565   0.745   2.912   2.586
13541TIP3    H140566   0.813   2.872   2.532
13541TIP3    H240567   0.785   2.920   2.673
13542TIP3   OH240568   1.314   7.542   0.970
13542TIP3    H140569   1.224   7.551   1.003
13542TIP3    H240570   1.368   7.535   1.048
13543TIP3   OH240571   2.860   2.538   5.099
13543TIP3    H140572   2.844   2.602   5.029
13543TIP3    H240573   2.917   2.472   5.058
13544TIP3   OH240574   2.949   7.560   0.363
13544TIP3    H140575   2.906   7.570   0.278
13544TIP3    H240576   2.978   7.649   0.386
13545TIP3   OH240577   7.713   0.535   3.885
13545TIP3    H140578   7.642   0.493   3.835
13545TIP3    H240579   7.723   0.480   3.962
13546TIP3   OH240580   8.091   0.901   1.847
13546TIP3    H140581   8.079   0.992   1.821
13546TIP3    H240582   8.168   0.903   1.905
13547TIP3   OH240583   5.110   3.071   0.177
13547TIP3    H140584   5.202   3.045   0.182
13547TIP3    H240585   5.104   3.149   0.232
13548TIP3   OH240586   3.940   7.305   0.286
13548TIP3    H140587   3.876   7.315   0.215
13548TIP3    H240588   3.994   7.232   0.259
13549TIP3   OH240589   3.722   3.199   2.477
13549TIP3    H140590   3.645   3.156   2.441
13549TIP3    H240591   3.750   3.260   2.408
13550TIP3   OH240592   4.721   2.878   3.866
13550TIP3    H140593   4.690   2.812   3.928
13550TIP3    H240594   4.744   2.953   3.920
13551TIP3   OH240595   3.468   4.814   2.801
13551TIP3    H140596   3.483   4.789   2.710
13551TIP3    H240597   3.397   4.756   2.830
13552TIP3   OH240598   2.235   1.085   6.306
13552TIP3    H140599   2.250   1.063   6.214
13552TIP3    H240600   2.289   1.023   6.355
13553TIP3   OH240601   6.969   3.499   5.074
13553TIP3    H140602   7.044   3.531   5.124
13553TIP3    H240603   7.008   3.441   5.008
13554TIP3   OH240604   6.378   5.349   5.503
13554TIP3    H140605   6.337   5.269   5.470
13554TIP3    H240606   6.371   5.342   5.598
13555TIP3   OH240607   0.697   6.264   0.649
13555TIP3    H140608   0.690   6.176   0.614
13555TIP3    H240609   0.775   6.263   0.704
13556TIP3   OH240610   2.599   4.207   1.163
13556TIP3    H140611   2.511   4.244   1.173
13556TIP3    H240612   2.620   4.173   1.250
13557TIP3   OH240613   0.766   0.697   4.315
13557TIP3    H140614   0.743   0.684   4.407
13557TIP3    H240615   0.860   0.714   4.316
13558TIP3   OH240616   2.466   7.448   0.911
13558TIP3    H140617   2.448   7.364   0.952
13558TIP3    H240618   2.475   7.427   0.818
13559TIP3   OH240619   6.519   7.366   6.150
13559TIP3    H140620   6.584   7.426   6.186
13559TIP3    H240621   6.487   7.411   6.071
13560TIP3   OH240622   4.466   2.766   3.358
13560TIP3    H140623   4.371   2.759   3.345
13560TIP3    H240624   4.503   2.698   3.300
13561TIP3   OH240625   0.719   6.384   5.877
13561TIP3    H140626   0.712   6.355   5.787
13561TIP3    H240627   0.696   6.477   5.874
13562TIP3   OH240628   4.348   6.783   3.850
13562TIP3    H140629   4.360   6.878   3.845
13562TIP3    H240630   4.415   6.754   3.912
13563TIP3   OH240631   7.837   6.887   4.806
13563TIP3    H140632   7.820   6.870   4.899
13563TIP3    H240633   7.816   6.804   4.762
13564TIP3   OH240634   5.324   4.583   1.603
13564TIP3    H140635   5.242   4.611   1.642
13564TIP3    H240636   5.328   4.628   1.519
13565TIP3   OH240637   4.812   0.519   1.182
13565TIP3    H140638   4.875   0.453   1.211
13565TIP3    H240639   4.751   0.471   1.125
13566TIP3   OH240640   0.993   0.918   5.345
13566TIP3    H140641   1.044   0.841   5.366
13566TIP3    H240642   0.920   0.886   5.292
13567TIP3   OH240643   1.401   3.562   6.203
13567TIP3    H140644   1.423   3.570   6.296
13567TIP3    H240645   1.310   3.533   6.202
13568TIP3   OH240646   0.763   3.453   0.552
13568TIP3    H140647   0.762   3.439   0.457
13568TIP3    H240648   0.749   3.548   0.562
13569TIP3   OH240649   0.983   4.433   6.368
13569TIP3    H140650   0.926   4.362   6.337
13569TIP3    H240651   1.006   4.408   6.458
13570TIP3   OH240652   4.607   2.758   6.369
13570TIP3    H140653   4.518   2.732   6.347
13570TIP3    H240654   4.649   2.678   6.400
13571TIP3   OH240655   3.100   2.326   2.470
13571TIP3    H140656   3.081   2.377   2.391
13571TIP3    H240657   3.111   2.236   2.439
13572TIP3   OH240658   1.161   7.589   6.557
13572TIP3    H140659   1.252   7.560   6.561
13572TIP3    H240660   1.162   7.666   6.501
13573TIP3   OH240661   0.042   5.128   6.152
13573TIP3    H140662   0.024   5.041   6.117
13573TIP3    H240663  -0.014   5.186   6.100
13574TIP3   OH240664   5.127   4.974   4.433
13574TIP3    H140665   5.116   4.959   4.527
13574TIP3    H240666   5.201   5.035   4.428
13575TIP3   OH240667   4.504   7.047   0.887
13575TIP3    H140668   4.577   7.051   0.948
13575TIP3    H240669   4.504   7.132   0.843
13576TIP3   OH240670   4.091   6.071   0.982
13576TIP3    H140671   4.011   6.038   1.022
13576TIP3    H240672   4.161   6.036   1.037
13577TIP3   OH240673   4.220   1.651   2.652
13577TIP3    H140674   4.217   1.644   2.556
13577TIP3    H240675   4.128   1.650   2.679
13578TIP3   OH240676   8.077   3.053   0.480
13578TIP3    H140677   8.084   3.092   0.393
13578TIP3    H240678   8.030   3.119   0.532
13579TIP3   OH240679   0.928   2.706   5.889
13579TIP3    H140680   0.835   2.684   5.890
13579TIP3    H240681   0.973   2.624   5.906
13580TIP3   OH240682   4.488   6.497   5.009
13580TIP3    H140683   4.514   6.561   4.943
13580TIP3    H240684   4.540   6.519   5.086
13581TIP3   OH240685   3.577   6.976   4.602
13581TIP3    H140686   3.640   7.017   4.543
13581TIP3    H240687   3.571   6.885   4.572
13582TIP3   OH240688   2.741   4.090   2.413
13582TIP3    H140689   2.689   4.167   2.388
13582TIP3    H240690   2.761   4.105   2.506
13583TIP3   OH240691   1.256   7.241   2.399
13583TIP3    H140692   1.165   7.239   2.431
13583TIP3    H240693   1.286   7.151   2.408
13584TIP3   OH240694   1.417   3.106   2.777
13584TIP3    H140695   1.473   3.035   2.809
13584TIP3    H240696   1.329   3.079   2.800
13585TIP3   OH240697   8.138   7.111   0.443
13585TIP3    H140698   8.088   7.042   0.398
13585TIP3    H240699   8.116   7.100   0.535
13586TIP3   OH240700   4.970   1.202   4.131
13586TIP3    H140701   4.932   1.174   4.048
13586TIP3    H240702   4.909   1.169   4.197
13587TIP3   OH240703   4.428   3.460   5.253
13587TIP3    H140704   4.476   3.537   5.283
13587TIP3    H240705   4.400   3.482   5.164
13588TIP3   OH240706   5.553   4.145   3.208
13588TIP3    H140707   5.520   4.126   3.120
13588TIP3    H240708   5.648   4.145   3.198
13589TIP3   OH240709   4.197   3.522   5.773
13589TIP3    H140710   4.229   3.551   5.859
13589TIP3    H240711   4.276   3.513   5.720
13590TIP3   OH240712   2.388   2.777   6.505
13590TIP3    H140713   2.360   2.689   6.479
13590TIP3    H240714   2.402   2.770   6.599
13591TIP3   OH240715   1.130   0.297   3.653
13591TIP3    H140716   1.160   0.388   3.651
13591TIP3    H240717   1.051   0.296   3.600
13592TIP3   OH240718   2.007   6.293   5.552
13592TIP3    H140719   1.940   6.307   5.619
13592TIP3    H240720   1.961   6.245   5.483
13593TIP3   OH240721   5.786   6.226   3.123
13593TIP3    H140722   5.720   6.226   3.193
13593TIP3    H240723   5.870   6.224   3.170
13594TIP3   OH240724   1.350   3.792   2.476
13594TIP3    H140725   1.292   3.741   2.532
13594TIP3    H240726   1.330   3.763   2.387
13595TIP3   OH240727   6.834   5.857   5.835
13595TIP3    H140728   6.859   5.818   5.751
13595TIP3    H240729   6.788   5.786   5.881
13596TIP3   OH240730   6.914   3.283   0.695
13596TIP3    H140731   6.844   3.236   0.739
13596TIP3    H240732   6.986   3.285   0.758
13597TIP3   OH240733   5.146   0.362   0.969
13597TIP3    H140734   5.145   0.267   0.979
13597TIP3    H240735   5.054   0.386   0.955
13598TIP3   OH240736   4.140   0.391   0.432
13598TIP3    H140737   4.090   0.464   0.468
13598TIP3    H240738   4.231   0.411   0.453
13599TIP3   OH240739   7.831   2.085   0.065
13599TIP3    H140740   7.857   2.058   0.153
13599TIP3    H240741   7.799   2.174   0.076
13600TIP3   OH240742   2.516   4.287   5.022
13600TIP3    H140743   2.585   4.290   5.088
13600TIP3    H240744   2.452   4.352   5.051
13601TIP3   OH240745   0.379   6.710   1.735
13601TIP3    H140746   0.474   6.716   1.727
13601TIP3    H240747   0.347   6.712   1.644
13602TIP3   OH240748   7.786   4.357   2.526
13602TIP3    H140749   7.720   4.425   2.532
13602TIP3    H240750   7.850   4.378   2.595
13603TIP3   OH240751   7.641   0.814   0.887
13603TIP3    H140752   7.555   0.780   0.911
13603TIP3    H240753   7.657   0.884   0.950
13604TIP3   OH240754   1.418   2.750   5.971
13604TIP3    H140755   1.417   2.843   5.993
13604TIP3    H240756   1.375   2.708   6.045
13605TIP3   OH240757   5.079   5.078   0.895
13605TIP3    H140758   4.988   5.097   0.872
13605TIP3    H240759   5.074   5.005   0.957
13606TIP3   OH240760   2.131   2.143   6.142
13606TIP3    H140761   2.049   2.169   6.184
13606TIP3    H240762   2.120   2.049   6.124
13607TIP3   OH240763   0.373   4.613   5.315
13607TIP3    H140764   0.300   4.662   5.278
13607TIP3    H240765   0.451   4.656   5.280
13608TIP3   OH240766   1.336   2.192   2.360
13608TIP3    H140767   1.281   2.115   2.346
13608TIP3    H240768   1.363   2.186   2.451
13609TIP3   OH240769   7.865   3.272   4.182
13609TIP3    H140770   7.839   3.219   4.106
13609TIP3    H240771   7.783   3.308   4.215
13610TIP3   OH240772   7.892   0.644   2.495
13610TIP3    H140773   7.862   0.696   2.569
13610TIP3    H240774   7.985   0.667   2.485
13611TIP3   OH240775   1.526   6.876   5.602
13611TIP3    H140776   1.592   6.819   5.563
13611TIP3    H240777   1.524   6.850   5.694
13612TIP3   OH240778   3.420   6.012   0.231
13612TIP3    H140779   3.427   6.100   0.270
13612TIP3    H240780   3.450   5.953   0.301
13613TIP3   OH240781   6.872   2.814   1.315
13613TIP3    H140782   6.925   2.888   1.346
13613TIP3    H240783   6.841   2.773   1.396
13614TIP3   OH240784   6.406   6.851   3.257
13614TIP3    H140785   6.442   6.913   3.320
13614TIP3    H240786   6.461   6.861   3.180
13615TIP3   OH240787   3.981   5.785   3.493
13615TIP3    H140788   4.011   5.841   3.564
13615TIP3    H240789   4.041   5.711   3.494
13616TIP3   OH240790   3.749   2.596   4.849
13616TIP3    H140791   3.785   2.530   4.789
13616TIP3    H240792   3.822   2.657   4.863
13617TIP3   OH240793   5.372   1.577   4.852
13617TIP3    H140794   5.448   1.541   4.806
13617TIP3    H240795   5.310   1.504   4.857
13618TIP3   OH240796   1.947   4.231   0.733
13618TIP3    H140797   1.922   4.139   0.729
13618TIP3    H240798   1.980   4.243   0.822
13619TIP3   OH240799   1.805   6.817   0.554
13619TIP3    H140800   1.766   6.746   0.606
13619TIP3    H240801   1.780   6.797   0.464
13620TIP3   OH240802   3.605   0.509   0.048
13620TIP3    H140803   3.516   0.496   0.079
13620TIP3    H240804   3.626   0.431  -0.003
13621TIP3   OH240805   7.667   3.673   4.301
13621TIP3    H140806   7.610   3.674   4.377
13621TIP3    H240807   7.751   3.641   4.334
13622TIP3   OH240808   7.154   1.374   0.095
13622TIP3    H140809   7.077   1.363   0.151
13622TIP3    H240810   7.185   1.285   0.078
13623TIP3   OH240811   7.620   2.426   0.883
13623TIP3    H140812   7.628   2.343   0.837
13623TIP3    H240813   7.528   2.430   0.909
13624TIP3   OH240814   4.722   3.813   3.663
13624TIP3    H140815   4.774   3.807   3.583
13624TIP3    H240816   4.677   3.897   3.657
13625TIP3   OH240817   4.391   6.935   4.824
13625TIP3    H140818   4.390   6.839   4.825
13625TIP3    H240819   4.466   6.957   4.769
13626TIP3   OH240820   3.116   5.477   2.290
13626TIP3    H140821   3.095   5.475   2.384
13626TIP3    H240822   3.078   5.560   2.259
13627TIP3   OH240823   5.160   6.367   2.813
13627TIP3    H140824   5.144   6.359   2.719
13627TIP3    H240825   5.138   6.457   2.834
13628TIP3   OH240826   5.156   2.236   5.755
13628TIP3    H140827   5.200   2.312   5.717
13628TIP3    H240828   5.175   2.164   5.695
13629TIP3   OH240829   5.735   6.073   2.450
13629TIP3    H140830   5.783   6.119   2.519
13629TIP3    H240831   5.802   6.031   2.398
13630TIP3   OH240832   3.549   3.275   5.998
13630TIP3    H140833   3.544   3.342   6.066
13630TIP3    H240834   3.585   3.321   5.922
13631TIP3   OH240835   5.080   0.963   4.889
13631TIP3    H140836   5.075   1.001   4.802
13631TIP3    H240837   5.107   0.872   4.873
13632TIP3   OH240838   5.979   1.280   4.196
13632TIP3    H140839   6.039   1.207   4.182
13632TIP3    H240840   5.909   1.265   4.132
13633TIP3   OH240841   0.806   1.230   2.532
13633TIP3    H140842   0.878   1.262   2.478
13633TIP3    H240843   0.753   1.176   2.474
13634TIP3   OH240844   8.104   7.508   5.730
13634TIP3    H140845   8.038   7.537   5.793
13634TIP3    H240846   8.060   7.514   5.645
13635TIP3   OH240847   1.959   3.632   3.122
13635TIP3    H140848   1.913   3.611   3.041
13635TIP3    H240849   1.895   3.679   3.175
13636TIP3   OH240850   3.455   4.437   1.425
13636TIP3    H140851   3.478   4.362   1.370
13636TIP3    H240852   3.458   4.512   1.364
13637TIP3   OH240853   6.717   2.027   2.095
13637TIP3    H140854   6.752   1.957   2.040
13637TIP3    H240855   6.700   2.100   2.035
13638TIP3   OH240856   3.437   0.909   1.799
13638TIP3    H140857   3.503   0.968   1.833
13638TIP3    H240858   3.354   0.951   1.819
13639TIP3   OH240859   7.526   5.852   4.748
13639TIP3    H140860   7.548   5.766   4.711
13639TIP3    H240861   7.455   5.834   4.809
13640TIP3   OH240862   3.613   0.294   4.456
13640TIP3    H140863   3.616   0.369   4.396
13640TIP3    H240864   3.555   0.232   4.413
13641TIP3   OH240865   1.557   4.524   4.527
13641TIP3    H140866   1.508   4.444   4.549
13641TIP3    H240867   1.641   4.492   4.495
13642TIP3   OH240868   0.876   1.322   0.446
13642TIP3    H140869   0.807   1.389   0.452
13642TIP3    H240870   0.905   1.325   0.355
13643TIP3   OH240871   3.598   3.852   2.697
13643TIP3    H140872   3.516   3.857   2.747
13643TIP3    H240873   3.583   3.784   2.632
13644TIP3   OH240874   3.989   0.214   0.873
13644TIP3    H140875   4.014   0.126   0.846
13644TIP3    H240876   4.070   0.265   0.868
13645TIP3   OH240877   5.629   6.722   5.710
13645TIP3    H140878   5.686   6.768   5.772
13645TIP3    H240879   5.685   6.705   5.634
13646TIP3   OH240880   4.137   5.952   5.717
13646TIP3    H140881   4.056   5.983   5.678
13646TIP3    H240882   4.142   5.997   5.801
13647TIP3   OH240883   3.918   4.002   4.826
13647TIP3    H140884   3.948   3.932   4.883
13647TIP3    H240885   3.838   3.968   4.786
13648TIP3   OH240886   6.836   3.212   6.296
13648TIP3    H140887   6.844   3.308   6.301
13648TIP3    H240888   6.926   3.181   6.295
13649TIP3   OH240889   4.056   7.391   0.540
13649TIP3    H140890   4.037   7.317   0.598
13649TIP3    H240891   4.012   7.369   0.458
13650TIP3   OH240892   2.192   6.069   3.465
13650TIP3    H140893   2.261   6.049   3.402
13650TIP3    H240894   2.200   6.163   3.482
13651TIP3   OH240895   3.777   2.951   4.579
13651TIP3    H140896   3.705   2.976   4.637
13651TIP3    H240897   3.758   2.861   4.554
13652TIP3   OH240898   4.955   0.496   0.124
13652TIP3    H140899   4.944   0.456   0.210
13652TIP3    H240900   4.872   0.539   0.106
13653TIP3   OH240901   5.876   3.098   6.720
13653TIP3    H140902   5.894   3.184   6.758
13653TIP3    H240903   5.822   3.054   6.785
13654TIP3   OH240904   6.697   7.242   1.137
13654TIP3    H140905   6.716   7.277   1.050
13654TIP3    H240906   6.778   7.253   1.187
13655TIP3   OH240907   7.203   3.480   0.738
13655TIP3    H140908   7.221   3.551   0.800
13655TIP3    H240909   7.223   3.400   0.785
13656TIP3   OH240910   2.602   0.565   4.284
13656TIP3    H140911   2.697   0.573   4.292
13656TIP3    H240912   2.575   0.517   4.363
13657TIP3   OH240913   2.161   2.874   5.663
13657TIP3    H140914   2.174   2.964   5.633
13657TIP3    H240915   2.066   2.863   5.668
13658TIP3   OH240916   1.511   7.765   1.955
13658TIP3    H140917   1.512   7.670   1.945
13658TIP3    H240918   1.424   7.784   1.991
13659TIP3   OH240919   6.697   6.172   3.460
13659TIP3    H140920   6.793   6.173   3.453
13659TIP3    H240921   6.666   6.182   3.370
13660TIP3   OH240922   7.058   3.010   1.432
13660TIP3    H140923   7.142   3.054   1.418
13660TIP3    H240924   7.081   2.930   1.479
13661TIP3   OH240925   1.256   1.493   1.839
13661TIP3    H140926   1.214   1.407   1.843
13661TIP3    H240927   1.184   1.556   1.849
13662TIP3   OH240928   6.354   0.904   5.215
13662TIP3    H140929   6.370   0.832   5.154
13662TIP3    H240930   6.312   0.863   5.290
13663TIP3   OH240931   5.328   4.586   3.633
13663TIP3    H140932   5.337   4.608   3.540
13663TIP3    H240933   5.347   4.668   3.678
13664TIP3   OH240934   2.872   0.588   1.932
13664TIP3    H140935   2.923   0.583   1.851
13664TIP3    H240936   2.936   0.609   2.000
13665TIP3   OH240937   0.747   2.409   4.826
13665TIP3    H140938   0.796   2.449   4.755
13665TIP3    H240939   0.812   2.395   4.895
13666TIP3   OH240940   2.315   3.369   1.285
13666TIP3    H140941   2.378   3.296   1.285
13666TIP3    H240942   2.370   3.447   1.297
13667TIP3   OH240943   0.080   4.528   0.083
13667TIP3    H140944   0.070   4.444   0.038
13667TIP3    H240945   0.134   4.508   0.159
13668TIP3   OH240946   8.047   3.860   5.393
13668TIP3    H140947   8.101   3.939   5.399
13668TIP3    H240948   7.958   3.893   5.381
13669TIP3   OH240949   0.396   5.723   5.663
13669TIP3    H140950   0.321   5.721   5.603
13669TIP3    H240951   0.424   5.814   5.662
13670TIP3   OH240952   7.383   0.950   1.065
13670TIP3    H140953   7.445   1.014   1.031
13670TIP3    H240954   7.298   0.993   1.059
13671TIP3   OH240955   0.792   4.033   4.763
13671TIP3    H140956   0.851   3.992   4.826
13671TIP3    H240957   0.707   4.035   4.806
13672TIP3   OH240958   0.989   3.455   1.530
13672TIP3    H140959   0.935   3.430   1.605
13672TIP3    H240960   0.926   3.482   1.463
13673TIP3   OH240961   0.402   6.263   4.341
13673TIP3    H140962   0.330   6.280   4.280
13673TIP3    H240963   0.382   6.316   4.418
13674TIP3   OH240964   8.335   2.790   1.657
13674TIP3    H140965   8.276   2.717   1.675
13674TIP3    H240966   8.345   2.834   1.742
13675TIP3   OH240967   1.280   6.860   2.446
13675TIP3    H140968   1.272   6.840   2.539
13675TIP3    H240969   1.215   6.929   2.430
13676TIP3   OH240970   4.303   0.567   0.564
13676TIP3    H140971   4.373   0.502   0.570
13676TIP3    H240972   4.348   0.651   0.574
13677TIP3   OH240973   6.692   1.469   3.344
13677TIP3    H140974   6.732   1.402   3.399
13677TIP3    H240975   6.673   1.541   3.404
13678TIP3   OH240976   5.060   0.757   0.220
13678TIP3    H140977   5.136   0.786   0.170
13678TIP3    H240978   5.017   0.692   0.165
13679TIP3   OH240979   5.505   7.420   6.739
13679TIP3    H140980   5.431   7.430   6.679
13679TIP3    H240981   5.566   7.363   6.692
13680TIP3   OH240982   0.293   4.182   6.691
13680TIP3    H140983   0.309   4.249   6.757
13680TIP3    H240984   0.380   4.154   6.663
13681TIP3   OH240985   4.670   7.325   0.080
13681TIP3    H140986   4.741   7.382   0.108
13681TIP3    H240987   4.620   7.309   0.160
13682TIP3   OH240988   5.141   7.068   5.427
13682TIP3    H140989   5.179   6.980   5.432
13682TIP3    H240990   5.166   7.100   5.340
13683TIP3   OH240991   4.626   6.549   5.491
13683TIP3    H140992   4.621   6.580   5.582
13683TIP3    H240993   4.545   6.500   5.478
13684TIP3   OH240994   7.023   0.084   2.472
13684TIP3    H140995   6.936   0.044   2.474
13684TIP3    H240996   7.080   0.021   2.517
13685TIP3   OH240997   3.241   3.265   0.889
13685TIP3    H140998   3.238   3.264   0.985
13685TIP3    H240999   3.281   3.181   0.866
13686TIP3   OH241000   2.905   3.900   2.724
13686TIP3    H141001   2.998   3.887   2.740
13686TIP3    H241002   2.895   3.995   2.712
13687TIP3   OH241003   4.954   3.203   5.670
13687TIP3    H141004   4.995   3.289   5.660
13687TIP3    H241005   4.957   3.165   5.582
13688TIP3   OH241006   3.297   0.999   3.746
13688TIP3    H141007   3.290   1.094   3.758
13688TIP3    H241008   3.386   0.986   3.713
13689TIP3   OH241009   0.257   2.793   3.907
13689TIP3    H141010   0.244   2.698   3.900
13689TIP3    H241011   0.230   2.827   3.822
13690TIP3   OH241012   7.723   2.839   3.712
13690TIP3    H141013   7.738   2.928   3.681
13690TIP3    H241014   7.809   2.798   3.710
13691TIP3   OH241015   5.514   2.358   4.020
13691TIP3    H141016   5.521   2.441   4.067
13691TIP3    H241017   5.427   2.326   4.040
13692TIP3   OH241018   6.704   2.775   5.106
13692TIP3    H141019   6.732   2.688   5.081
13692TIP3    H241020   6.619   2.787   5.063
13693TIP3   OH241021   5.213   3.428   4.978
13693TIP3    H141022   5.153   3.384   5.038
13693TIP3    H241023   5.231   3.363   4.910
13694TIP3   OH241024   3.796   6.831   5.050
13694TIP3    H141025   3.811   6.904   4.990
13694TIP3    H241026   3.720   6.859   5.102
13695TIP3   OH241027   1.876  -0.013   0.965
13695TIP3    H141028   1.903   0.075   0.992
13695TIP3    H241029   1.939  -0.037   0.898
13696TIP3   OH241030   0.486   2.325   5.114
13696TIP3    H141031   0.553   2.293   5.175
13696TIP3    H241032   0.513   2.289   5.029
13697TIP3   OH241033   7.470   6.190   6.353
13697TIP3    H141034   7.555   6.196   6.308
13697TIP3    H241035   7.406   6.199   6.283
13698TIP3   OH241036   1.035   3.908   5.352
13698TIP3    H141037   1.066   3.934   5.438
13698TIP3    H241038   1.065   3.978   5.293
13699TIP3   OH241039   7.073   4.769   6.207
13699TIP3    H141040   7.062   4.857   6.170
13699TIP3    H241041   7.146   4.731   6.158
13700TIP3   OH241042   4.996   3.672   4.539
13700TIP3    H141043   5.057   3.627   4.598
13700TIP3    H241044   5.012   3.632   4.453
13701TIP3   OH241045   0.231   3.929   5.908
13701TIP3    H141046   0.179   3.853   5.935
13701TIP3    H241047   0.302   3.892   5.855
13702TIP3   OH241048   7.734   3.944   2.299
13702TIP3    H141049   7.642   3.933   2.277
13702TIP3    H241050   7.736   3.947   2.394
13703TIP3   OH241051   4.253   2.257   1.553
13703TIP3    H141052   4.266   2.344   1.515
13703TIP3    H241053   4.187   2.216   1.496
13704TIP3   OH241054   3.221   5.236   6.639
13704TIP3    H141055   3.285   5.304   6.620
13704TIP3    H241056   3.184   5.261   6.724
13705TIP3   OH241057   3.381   1.344   1.884
13705TIP3    H141058   3.327   1.420   1.903
13705TIP3    H241059   3.469   1.379   1.871
13706TIP3   OH241060   8.094   4.391   1.734
13706TIP3    H141061   8.164   4.356   1.789
13706TIP3    H241062   8.014   4.352   1.769
13707TIP3   OH241063   4.195   6.024   5.367
13707TIP3    H141064   4.243   6.074   5.433
13707TIP3    H241065   4.106   6.059   5.369
13708TIP3   OH241066   7.836   5.306   1.877
13708TIP3    H141067   7.867   5.325   1.789
13708TIP3    H241068   7.907   5.337   1.934
13709TIP3   OH241069   7.693   3.053   6.653
13709TIP3    H141070   7.647   3.098   6.724
13709TIP3    H241071   7.739   2.981   6.696
13710TIP3   OH241072   5.281   5.427   1.965
13710TIP3    H141073   5.289   5.416   2.060
13710TIP3    H241074   5.217   5.361   1.939
13711TIP3   OH241075   5.295   0.003   1.214
13711TIP3    H141076   5.379   0.035   1.246
13711TIP3    H241077   5.317  -0.051   1.138
13712TIP3   OH241078   3.486   7.756   4.040
13712TIP3    H141079   3.507   7.664   4.055
13712TIP3    H241080   3.487   7.796   4.127
13713TIP3   OH241081   4.651   6.911   2.323
13713TIP3    H141082   4.621   6.869   2.404
13713TIP3    H241083   4.609   6.860   2.253
13714TIP3   OH241084   7.028   4.810   5.786
13714TIP3    H141085   6.951   4.769   5.746
13714TIP3    H241086   7.083   4.736   5.812
13715TIP3   OH241087   5.877   0.286   0.775
13715TIP3    H141088   5.815   0.329   0.715
13715TIP3    H241089   5.961   0.293   0.731
13716TIP3   OH241090   2.977   7.614   4.802
13716TIP3    H141091   2.948   7.694   4.845
13716TIP3    H241092   3.068   7.631   4.779
13717TIP3   OH241093   3.360   3.209   0.351
13717TIP3    H141094   3.287   3.152   0.328
13717TIP3    H241095   3.344   3.290   0.302
13718TIP3   OH241096   5.241   1.453   2.199
13718TIP3    H141097   5.277   1.383   2.252
13718TIP3    H241098   5.258   1.533   2.249
13719TIP3   OH241099   7.294   7.695   2.377
13719TIP3    H141100   7.278   7.618   2.321
13719TIP3    H241101   7.296   7.769   2.316
13720TIP3   OH241102   1.906   0.503   4.882
13720TIP3    H141103   1.995   0.534   4.895
13720TIP3    H241104   1.913   0.407   4.883
13721TIP3   OH241105   1.068   3.114   4.690
13721TIP3    H141106   1.042   3.154   4.772
13721TIP3    H241107   1.085   3.187   4.631
13722TIP3   OH241108   2.097   6.375   1.704
13722TIP3    H141109   2.055   6.461   1.715
13722TIP3    H241110   2.176   6.393   1.653
13723TIP3   OH241111   4.697   6.344   2.488
13723TIP3    H141112   4.765   6.381   2.432
13723TIP3    H241113   4.733   6.350   2.577
13724TIP3   OH241114   4.005   2.184   0.667
13724TIP3    H141115   3.952   2.263   0.663
13724TIP3    H241116   4.084   2.210   0.715
13725TIP3   OH241117   4.935   5.165   5.641
13725TIP3    H141118   4.913   5.085   5.689
13725TIP3    H241119   4.853   5.214   5.635
13726TIP3   OH241120   0.930   0.978   5.698
13726TIP3    H141121   0.872   0.979   5.622
13726TIP3    H241122   0.910   0.896   5.743
13727TIP3   OH241123   5.880   2.876   3.564
13727TIP3    H141124   5.817   2.918   3.505
13727TIP3    H241125   5.966   2.907   3.533
13728TIP3   OH241126   5.752   0.767   3.747
13728TIP3    H141127   5.833   0.716   3.756
13728TIP3    H241128   5.755   0.829   3.820
13729TIP3   OH241129   4.942   7.604   6.403
13729TIP3    H141130   4.995   7.542   6.453
13729TIP3    H241131   4.852   7.573   6.413
13730TIP3   OH241132   2.993   7.368   1.620
13730TIP3    H141133   2.942   7.424   1.678
13730TIP3    H241134   2.928   7.314   1.575
13731TIP3   OH241135   6.023   4.266   3.189
13731TIP3    H141136   6.078   4.328   3.141
13731TIP3    H241137   6.084   4.198   3.219
13732TIP3   OH241138   2.584   6.685   3.538
13732TIP3    H141139   2.635   6.608   3.515
13732TIP3    H241140   2.495   6.652   3.551
13733TIP3   OH241141   2.787   5.568   1.987
13733TIP3    H141142   2.765   5.534   1.900
13733TIP3    H241143   2.707   5.611   2.017
13734TIP3   OH241144   3.762   4.269   5.922
13734TIP3    H141145   3.829   4.204   5.943
13734TIP3    H241146   3.727   4.295   6.007
13735TIP3   OH241147   2.352   4.717   3.481
13735TIP3    H141148   2.347   4.809   3.456
13735TIP3    H241149   2.411   4.678   3.416
13736TIP3   OH241150   1.956   5.506   2.743
13736TIP3    H141151   1.887   5.515   2.678
13736TIP3    H241152   1.911   5.488   2.825
13737TIP3   OH241153   0.810   5.017   2.829
13737TIP3    H141154   0.730   5.038   2.877
13737TIP3    H241155   0.793   4.931   2.791
13738TIP3   OH241156   5.884   6.836   5.610
13738TIP3    H141157   5.916   6.925   5.591
13738TIP3    H241158   5.943   6.779   5.561
13739TIP3   OH241159   1.345   5.293   5.257
13739TIP3    H141160   1.254   5.272   5.234
13739TIP3    H241161   1.387   5.208   5.265
13740TIP3   OH241162   7.007   0.700   2.789
13740TIP3    H141163   7.077   0.678   2.850
13740TIP3    H241164   6.981   0.789   2.813
13741TIP3   OH241165   3.115   0.328   1.331
13741TIP3    H141166   3.140   0.254   1.276
13741TIP3    H241167   3.166   0.317   1.411
13742TIP3   OH241168   1.713   3.299   6.122
13742TIP3    H141169   1.713   3.316   6.027
13742TIP3    H241170   1.801   3.266   6.140
13743TIP3   OH241171   2.667   2.814   1.616
13743TIP3    H141172   2.693   2.902   1.591
13743TIP3    H241173   2.740   2.758   1.589
13744TIP3   OH241174   2.248   0.569   0.211
13744TIP3    H141175   2.251   0.663   0.194
13744TIP3    H241176   2.225   0.562   0.304
13745TIP3   OH241177   2.199   7.079   0.774
13745TIP3    H141178   2.116   7.032   0.768
13745TIP3    H241179   2.180   7.167   0.741
13746TIP3   OH241180   0.500   3.486   0.327
13746TIP3    H141181   0.510   3.558   0.264
13746TIP3    H241182   0.507   3.529   0.412
13747TIP3   OH241183   0.808   5.179   4.290
13747TIP3    H141184   0.796   5.244   4.360
13747TIP3    H241185   0.765   5.100   4.323
13748TIP3   OH241186   4.783   4.969   0.266
13748TIP3    H141187   4.782   4.906   0.338
13748TIP3    H241188   4.872   5.004   0.266
13749TIP3   OH241189   6.360   3.044   0.543
13749TIP3    H141190   6.449   3.074   0.563
13749TIP3    H241191   6.312   3.125   0.522
13750TIP3   OH241192   7.364   6.995   1.474
13750TIP3    H141193   7.375   6.983   1.380
13750TIP3    H241194   7.302   6.927   1.500
13751TIP3   OH241195   3.903   6.839   5.964
13751TIP3    H141196   3.819   6.878   5.989
13751TIP3    H241197   3.919   6.872   5.875
13752TIP3   OH241198   1.591   6.069   6.011
13752TIP3    H141199   1.682   6.072   5.982
13752TIP3    H241200   1.542   6.108   5.938
13753TIP3   OH241201   2.324   2.843   4.279
13753TIP3    H141202   2.274   2.896   4.216
13753TIP3    H241203   2.281   2.758   4.278
13754TIP3   OH241204   1.695   5.413   5.731
13754TIP3    H141205   1.602   5.395   5.743
13754TIP3    H241206   1.730   5.332   5.693
13755TIP3   OH241207   2.477   4.329   4.619
13755TIP3    H141208   2.397   4.349   4.570
13755TIP3    H241209   2.501   4.413   4.658
13756TIP3   OH241210   3.938   3.578   6.263
13756TIP3    H141211   3.994   3.631   6.207
13756TIP3    H241212   3.896   3.515   6.204
13757TIP3   OH241213   0.528   3.046   3.991
13757TIP3    H141214   0.549   2.953   3.997
13757TIP3    H241215   0.513   3.061   3.897
13758TIP3   OH241216   5.402   3.675   3.640
13758TIP3    H141217   5.391   3.594   3.690
13758TIP3    H241218   5.441   3.736   3.702
13759TIP3   OH241219   4.676   3.415   0.862
13759TIP3    H141220   4.679   3.346   0.796
13759TIP3    H241221   4.590   3.455   0.852
13760TIP3   OH241222   3.980   2.375   5.002
13760TIP3    H141223   3.897   2.363   4.957
13760TIP3    H241224   4.018   2.288   5.007
13761TIP3   OH241225   6.941   6.255   3.415
13761TIP3    H141226   7.029   6.218   3.412
13761TIP3    H241227   6.929   6.295   3.329
13762TIP3   OH241228   2.702   4.317   5.740
13762TIP3    H141229   2.797   4.328   5.741
13762TIP3    H241230   2.686   4.238   5.792
13763TIP3   OH241231   6.845   4.872   2.428
13763TIP3    H141232   6.806   4.950   2.468
13763TIP3    H241233   6.784   4.848   2.359
13764TIP3   OH241234   4.595   2.502   1.872
13764TIP3    H141235   4.554   2.418   1.893
13764TIP3    H241236   4.675   2.478   1.826
13765TIP3   OH241237   5.992   2.190   5.818
13765TIP3    H141238   5.935   2.153   5.886
13765TIP3    H241239   5.948   2.270   5.791
13766TIP3   OH241240   6.173   5.240   0.025
13766TIP3    H141241   6.083   5.247  -0.006
13766TIP3    H241242   6.167   5.237   0.120
13767TIP3   OH241243   1.672   1.999   6.599
13767TIP3    H141244   1.649   1.954   6.680
13767TIP3    H241245   1.731   2.069   6.626
13768TIP3   OH241246   7.994   1.293   1.265
13768TIP3    H141247   8.031   1.206   1.282
13768TIP3    H241248   7.964   1.324   1.350
13769TIP3   OH241249   6.950   7.064   0.742
13769TIP3    H141250   6.934   6.994   0.679
13769TIP3    H241251   7.009   7.025   0.807
13770TIP3   OH241252   4.206   3.015   0.134
13770TIP3    H141253   4.243   2.952   0.196
13770TIP3    H241254   4.143   3.065   0.187
13771TIP3   OH241255   6.307   1.855   1.323
13771TIP3    H141256   6.379   1.865   1.260
13771TIP3    H241257   6.323   1.770   1.363
13772TIP3   OH241258   3.583   6.114   1.174
13772TIP3    H141259   3.613   6.180   1.112
13772TIP3    H241260   3.491   6.136   1.190
13773TIP3   OH241261   3.592   7.008   6.272
13773TIP3    H141262   3.636   6.983   6.191
13773TIP3    H241263   3.528   6.939   6.287
13774TIP3   OH241264   1.316   0.279   2.819
13774TIP3    H141265   1.227   0.299   2.788
13774TIP3    H241266   1.371   0.289   2.742
13775TIP3   OH241267   5.470   2.502   2.539
13775TIP3    H141268   5.555   2.472   2.509
13775TIP3    H241269   5.468   2.481   2.633
13776TIP3   OH241270   6.249   7.659   1.476
13776TIP3    H141271   6.238   7.688   1.567
13776TIP3    H241272   6.276   7.738   1.429
13777TIP3   OH241273   7.972   0.738   4.451
13777TIP3    H141274   7.987   0.831   4.468
13777TIP3    H241275   8.016   0.693   4.524
13778TIP3   OH241276   4.083   0.084   4.052
13778TIP3    H141277   4.066   0.012   3.992
13778TIP3    H241278   3.996   0.121   4.071
13779TIP3   OH241279   5.154   0.362   2.540
13779TIP3    H141280   5.166   0.285   2.484
13779TIP3    H241281   5.219   0.351   2.610
13780TIP3   OH241282   1.135   5.373   3.223
13780TIP3    H141283   1.159   5.419   3.142
13780TIP3    H241284   1.201   5.304   3.231
13781TIP3   OH241285   2.525   3.836   5.723
13781TIP3    H141286   2.520   3.769   5.792
13781TIP3    H241287   2.435   3.844   5.691
13782TIP3   OH241288   2.017   1.423   3.598
13782TIP3    H141289   2.059   1.435   3.512
13782TIP3    H241290   1.984   1.510   3.620
13783TIP3   OH241291   4.033   2.913   1.694
13783TIP3    H141292   4.108   2.967   1.667
13783TIP3    H241293   4.070   2.825   1.703
13784TIP3   OH241294   5.058   4.619   3.725
13784TIP3    H141295   5.083   4.711   3.725
13784TIP3    H241296   5.139   4.572   3.703
13785TIP3   OH241297   5.370   1.991   6.066
13785TIP3    H141298   5.429   1.994   5.990
13785TIP3    H241299   5.289   2.032   6.035
13786TIP3   OH241300   3.609   1.975   0.515
13786TIP3    H141301   3.521   1.942   0.497
13786TIP3    H241302   3.617   1.971   0.611
13787TIP3   OH241303   6.493   5.802   5.600
13787TIP3    H141304   6.506   5.710   5.578
13787TIP3    H241305   6.553   5.849   5.543
13788TIP3   OH241306   3.322   1.351   0.687
13788TIP3    H141307   3.244   1.404   0.671
13788TIP3    H241308   3.390   1.389   0.632
13789TIP3   OH241309   5.798   0.213   2.925
13789TIP3    H141310   5.709   0.221   2.959
13789TIP3    H241311   5.819   0.301   2.893
13790TIP3   OH241312   1.304   2.892   2.152
13790TIP3    H141313   1.216   2.929   2.138
13790TIP3    H241314   1.363   2.967   2.146
13791TIP3   OH241315   7.606   6.343   4.277
13791TIP3    H141316   7.582   6.435   4.290
13791TIP3    H241317   7.694   6.335   4.314
13792TIP3   OH241318   2.708  -0.009   4.373
13792TIP3    H141319   2.680   0.011   4.462
13792TIP3    H241320   2.803   0.006   4.373
13793TIP3   OH241321   5.050   3.750   1.100
13793TIP3    H141322   4.995   3.690   1.050
13793TIP3    H241323   5.090   3.807   1.034
13794TIP3   OH241324   5.577   3.479   5.763
13794TIP3    H141325   5.505   3.439   5.812
13794TIP3    H241326   5.575   3.571   5.788
13795TIP3   OH241327   4.122   6.884   6.263
13795TIP3    H141328   4.128   6.825   6.188
13795TIP3    H241329   4.102   6.827   6.338
13796TIP3   OH241330   7.182   3.389   0.244
13796TIP3    H141331   7.127   3.404   0.320
13796TIP3    H241332   7.135   3.430   0.171
13797TIP3   OH241333   0.138   2.108   6.418
13797TIP3    H141334   0.208   2.071   6.472
13797TIP3    H241335   0.181   2.136   6.338
13798TIP3   OH241336   0.722   2.426   0.066
13798TIP3    H141337   0.794   2.403   0.006
13798TIP3    H241338   0.717   2.521   0.061
13799TIP3   OH241339   5.857   3.974   4.204
13799TIP3    H141340   5.823   3.964   4.115
13799TIP3    H241341   5.865   4.069   4.215
13800TIP3   OH241342   8.210   7.059   5.064
13800TIP3    H141343   8.232   7.124   4.997
13800TIP3    H241344   8.275   7.073   5.133
13801TIP3   OH241345   7.733   1.770   0.176
13801TIP3    H141346   7.735   1.854   0.222
13801TIP3    H241347   7.824   1.748   0.161
13802TIP3   OH241348   4.552   4.873   1.015
13802TIP3    H141349   4.553   4.843   1.106
13802TIP3    H241350   4.461   4.862   0.987
13803TIP3   OH241351   2.618   0.148   2.823
13803TIP3    H141352   2.611   0.224   2.882
13803TIP3    H241353   2.527   0.125   2.804
13804TIP3   OH241354   3.961   1.473   4.223
13804TIP3    H141355   3.881   1.478   4.276
13804TIP3    H241356   4.007   1.396   4.257
13805TIP3   OH241357   1.676   5.871   2.668
13805TIP3    H141358   1.648   5.957   2.699
13805TIP3    H241359   1.721   5.832   2.743
13806TIP3   OH241360   8.159   5.849   0.710
13806TIP3    H141361   8.241   5.802   0.725
13806TIP3    H241362   8.103   5.785   0.666
13807TIP3   OH241363   7.761   5.426   0.891
13807TIP3    H141364   7.835   5.486   0.884
13807TIP3    H241365   7.734   5.431   0.982
13808TIP3   OH241366   6.456   1.610   5.904
13808TIP3    H141367   6.456   1.548   5.978
13808TIP3    H241368   6.548   1.636   5.895
13809TIP3   OH241369   4.545   6.600   3.495
13809TIP3    H141370   4.584   6.612   3.408
13809TIP3    H241371   4.458   6.564   3.478
13810TIP3   OH241372   4.716   3.833   1.855
13810TIP3    H141373   4.788   3.894   1.843
13810TIP3    H241374   4.755   3.747   1.836
13811TIP3   OH241375   1.996   4.403   5.653
13811TIP3    H141376   1.923   4.422   5.594
13811TIP3    H241377   1.966   4.432   5.739
13812TIP3   OH241378   2.793   3.687   5.412
13812TIP3    H141379   2.807   3.693   5.507
13812TIP3    H241380   2.712   3.735   5.396
13813TIP3   OH241381   3.695   1.596   3.053
13813TIP3    H141382   3.682   1.524   2.992
13813TIP3    H241383   3.696   1.674   2.998
13814TIP3   OH241384   5.254   3.274   0.300
13814TIP3    H141385   5.345   3.303   0.309
13814TIP3    H241386   5.209   3.312   0.375
13815TIP3   OH241387   0.432   5.367   1.628
13815TIP3    H141388   0.336   5.365   1.627
13815TIP3    H241389   0.458   5.332   1.543
13816TIP3   OH241390   1.272   7.500   0.681
13816TIP3    H141391   1.216   7.429   0.650
13816TIP3    H241392   1.268   7.494   0.776
13817TIP3   OH241393   1.837   6.241   4.095
13817TIP3    H141394   1.874   6.233   4.007
13817TIP3    H241395   1.886   6.313   4.135
13818TIP3   OH241396   5.276   4.636   4.055
13818TIP3    H141397   5.257   4.702   3.988
13818TIP3    H241398   5.291   4.686   4.135
13819TIP3   OH241399   6.837   1.638   1.018
13819TIP3    H141400   6.753   1.671   0.987
13819TIP3    H241401   6.900   1.705   0.992
13820TIP3   OH241402   6.107   1.691   3.261
13820TIP3    H141403   6.087   1.637   3.337
13820TIP3    H241404   6.099   1.632   3.186
13821TIP3   OH241405   6.668   4.490   3.302
13821TIP3    H141406   6.648   4.534   3.219
13821TIP3    H241407   6.621   4.406   3.296
13822TIP3   OH241408   0.655   1.444   2.304
13822TIP3    H141409   0.727   1.382   2.297
13822TIP3    H241410   0.576   1.391   2.292
13823TIP3   OH241411   6.290   3.900   6.532
13823TIP3    H141412   6.317   3.977   6.482
13823TIP3    H241413   6.275   3.933   6.621
13824TIP3   OH241414   7.961   1.535   2.791
13824TIP3    H141415   7.916   1.555   2.873
13824TIP3    H241416   7.895   1.550   2.723
13825TIP3   OH241417   6.506   6.428   1.678
13825TIP3    H141418   6.539   6.423   1.588
13825TIP3    H241419   6.545   6.352   1.721
13826TIP3   OH241420   1.732   4.936   2.521
13826TIP3    H141421   1.778   4.973   2.446
13826TIP3    H241422   1.648   4.905   2.485
13827TIP3   OH241423   5.804   7.425   4.129
13827TIP3    H141424   5.885   7.382   4.157
13827TIP3    H241425   5.810   7.513   4.167
13828TIP3   OH241426   3.135   3.235   2.819
13828TIP3    H141427   3.084   3.220   2.739
13828TIP3    H241428   3.137   3.330   2.828
13829TIP3   OH241429   3.443   4.906   4.052
13829TIP3    H141430   3.363   4.891   4.104
13829TIP3    H241431   3.484   4.820   4.048
13830TIP3   OH241432   0.687   7.211   5.571
13830TIP3    H141433   0.707   7.141   5.633
13830TIP3    H241434   0.622   7.265   5.617
13831TIP3   OH241435   0.245   3.197   4.173
13831TIP3    H141436   0.327   3.229   4.135
13831TIP3    H241437   0.251   3.102   4.168
13832TIP3   OH241438   6.555   5.581   2.405
13832TIP3    H141439   6.492   5.557   2.473
13832TIP3    H241440   6.592   5.664   2.435
13833TIP3   OH241441   6.353   5.656   3.408
13833TIP3    H141442   6.385   5.686   3.323
13833TIP3    H241443   6.378   5.726   3.469
13834TIP3   OH241444   2.570   0.667   6.233
13834TIP3    H141445   2.622   0.589   6.255
13834TIP3    H241446   2.629   0.740   6.252
13835TIP3   OH241447   0.637   0.417   5.062
13835TIP3    H141448   0.638   0.470   5.141
13835TIP3    H241449   0.727   0.386   5.053
13836TIP3   OH241450   2.098   6.176   0.906
13836TIP3    H141451   2.129   6.085   0.902
13836TIP3    H241452   2.137   6.217   0.829
13837TIP3   OH241453   3.437   0.909   5.554
13837TIP3    H141454   3.488   0.923   5.633
13837TIP3    H241455   3.467   0.825   5.520
13838TIP3   OH241456   4.804   5.336   2.872
13838TIP3    H141457   4.821   5.413   2.817
13838TIP3    H241458   4.728   5.359   2.924
13839TIP3   OH241459   0.771   1.899   3.513
13839TIP3    H141460   0.839   1.965   3.505
13839TIP3    H241461   0.785   1.859   3.599
13840TIP3   OH241462   2.565   5.490   4.555
13840TIP3    H141463   2.539   5.489   4.463
13840TIP3    H241464   2.658   5.464   4.554
13841TIP3   OH241465   0.655   2.922   5.774
13841TIP3    H141466   0.679   2.842   5.726
13841TIP3    H241467   0.622   2.890   5.858
13842TIP3   OH241468   0.679   2.040   1.418
13842TIP3    H141469   0.655   2.075   1.332
13842TIP3    H241470   0.690   1.946   1.403
13843TIP3   OH241471   2.458   3.047   4.563
13843TIP3    H141472   2.400   3.025   4.636
13843TIP3    H241473   2.505   3.124   4.593
13844TIP3   OH241474   6.020   6.440   6.351
13844TIP3    H141475   5.948   6.381   6.372
13844TIP3    H241476   5.990   6.487   6.273
13845TIP3   OH241477   0.623   0.084   0.147
13845TIP3    H141478   0.603   0.055   0.236
13845TIP3    H241479   0.585   0.017   0.090
13846TIP3   OH241480   6.331   5.302   3.855
13846TIP3    H141481   6.342   5.260   3.770
13846TIP3    H241482   6.353   5.394   3.841
13847TIP3   OH241483   6.386   7.070   0.846
13847TIP3    H141484   6.331   7.026   0.911
13847TIP3    H241485   6.475   7.039   0.864
13848TIP3   OH241486   3.662   2.169   0.336
13848TIP3    H141487   3.571   2.198   0.330
13848TIP3    H241488   3.661   2.097   0.398
13849TIP3   OH241489   7.097   5.240   3.198
13849TIP3    H141490   7.041   5.277   3.130
13849TIP3    H241491   7.105   5.147   3.176
13850TIP3   OH241492   5.865   4.735   4.861
13850TIP3    H141493   5.915   4.710   4.939
13850TIP3    H241494   5.812   4.809   4.890
13851TIP3   OH241495   5.138   7.558   4.009
13851TIP3    H141496   5.093   7.559   4.093
13851TIP3    H241497   5.229   7.579   4.030
13852TIP3   OH241498   5.034   1.742   3.290
13852TIP3    H141499   5.126   1.737   3.265
13852TIP3    H241500   4.986   1.713   3.213
13853TIP3   OH241501   0.066   3.327   2.236
13853TIP3    H141502  -0.006   3.378   2.274
13853TIP3    H241503   0.023   3.269   2.173
13854TIP3   OH241504   4.448   6.988   5.809
13854TIP3    H141505   4.452   7.016   5.717
13854TIP3    H241506   4.360   7.013   5.837
13855TIP3   OH241507   3.392   0.457   5.498
13855TIP3    H141508   3.308   0.503   5.492
13855TIP3    H241509   3.385   0.406   5.579
13856TIP3   OH241510   8.200   1.921   4.877
13856TIP3    H141511   8.256   1.933   4.954
13856TIP3    H241512   8.249   1.862   4.820
13857TIP3   OH241513   4.663   6.037   5.631
13857TIP3    H141514   4.590   5.976   5.641
13857TIP3    H241515   4.623   6.123   5.638
13858TIP3   OH241516   5.773   0.197   3.906
13858TIP3    H141517   5.830   0.120   3.909
13858TIP3    H241518   5.730   0.199   3.992
13859TIP3   OH241519   1.026   0.987   1.076
13859TIP3    H141520   0.970   1.064   1.068
13859TIP3    H241521   1.034   0.973   1.171
13860TIP3   OH241522   6.983   4.971   2.221
13860TIP3    H141523   6.986   4.888   2.268
13860TIP3    H241524   6.967   5.036   2.288
13861TIP3   OH241525   4.261   1.637   3.392
13861TIP3    H141526   4.330   1.655   3.456
13861TIP3    H241527   4.264   1.711   3.331
13862TIP3   OH241528   5.854   4.738   2.116
13862TIP3    H141529   5.910   4.677   2.165
13862TIP3    H241530   5.859   4.709   2.025
13863TIP3   OH241531   0.598   3.246   0.595
13863TIP3    H141532   0.658   3.175   0.574
13863TIP3    H241533   0.653   3.324   0.598
13864TIP3   OH241534   6.242   1.026   4.875
13864TIP3    H141535   6.268   1.106   4.921
13864TIP3    H241536   6.256   0.957   4.939
13865TIP3   OH241537   5.442   6.711   4.181
13865TIP3    H141538   5.458   6.625   4.143
13865TIP3    H241539   5.353   6.732   4.155
13866TIP3   OH241540   2.569   7.705   5.331
13866TIP3    H141541   2.539   7.646   5.262
13866TIP3    H241542   2.589   7.648   5.405
13867TIP3   OH241543   3.303   0.448   0.328
13867TIP3    H141544   3.347   0.532   0.338
13867TIP3    H241545   3.372   0.387   0.302
13868TIP3   OH241546   0.215   7.319   6.109
13868TIP3    H141547   0.194   7.273   6.191
13868TIP3    H241548   0.220   7.249   6.044
13869TIP3   OH241549   1.077   7.419   0.102
13869TIP3    H141550   1.160   7.459   0.128
13869TIP3    H241551   1.016   7.442   0.172
13870TIP3   OH241552   2.058   2.287   1.664
13870TIP3    H141553   2.056   2.381   1.647
13870TIP3    H241554   2.142   2.257   1.629
13871TIP3   OH241555   1.824   1.239   6.545
13871TIP3    H141556   1.842   1.197   6.461
13871TIP3    H241557   1.734   1.270   6.537
13872TIP3   OH241558   5.852   5.817   1.283
13872TIP3    H141559   5.878   5.739   1.332
13872TIP3    H241560   5.770   5.845   1.325
13873TIP3   OH241561   5.413   5.640   0.802
13873TIP3    H141562   5.376   5.552   0.813
13873TIP3    H241563   5.338   5.699   0.812
13874TIP3   OH241564   1.920   5.576   1.359
13874TIP3    H141565   2.010   5.595   1.384
13874TIP3    H241566   1.881   5.536   1.437
13875TIP3   OH241567   3.899   7.179   1.750
13875TIP3    H141568   3.832   7.221   1.697
13875TIP3    H241569   3.951   7.252   1.784
13876TIP3   OH241570   7.786   0.187   3.080
13876TIP3    H141571   7.759   0.112   3.133
13876TIP3    H241572   7.718   0.253   3.097
13877TIP3   OH241573   7.817   1.594   5.897
13877TIP3    H141574   7.787   1.571   5.809
13877TIP3    H241575   7.891   1.653   5.883
13878TIP3   OH241576   2.951   6.339   6.089
13878TIP3    H141577   2.984   6.250   6.099
13878TIP3    H241578   2.950   6.354   5.995
13879TIP3   OH241579   3.854   1.102   5.399
13879TIP3    H141580   3.803   1.022   5.381
13879TIP3    H241581   3.905   1.081   5.477
13880TIP3   OH241582   2.177   7.663   5.896
13880TIP3    H141583   2.141   7.726   5.833
13880TIP3    H241584   2.185   7.712   5.978
13881TIP3   OH241585   4.669   1.388   4.641
13881TIP3    H141586   4.717   1.462   4.677
13881TIP3    H241587   4.591   1.426   4.601
13882TIP3   OH241588   0.504   4.394   3.257
13882TIP3    H141589   0.579   4.362   3.307
13882TIP3    H241590   0.429   4.375   3.312
13883TIP3   OH241591   5.956   6.347   2.269
13883TIP3    H141592   6.005   6.277   2.225
13883TIP3    H241593   5.885   6.368   2.207
13884TIP3   OH241594   1.962   1.624   0.921
13884TIP3    H141595   2.010   1.685   0.865
13884TIP3    H241596   1.973   1.539   0.878
13885TIP3   OH241597   2.936   6.893   4.703
13885TIP3    H141598   2.906   6.958   4.639
13885TIP3    H241599   2.880   6.908   4.780
13886TIP3   OH241600   4.477   3.433   2.866
13886TIP3    H141601   4.482   3.489   2.944
13886TIP3    H241602   4.439   3.490   2.799
13887TIP3   OH241603   5.715   5.898   5.452
13887TIP3    H141604   5.779   5.856   5.395
13887TIP3    H241605   5.765   5.966   5.498
13888TIP3   OH241606   3.425   4.451   4.188
13888TIP3    H141607   3.399   4.373   4.138
13888TIP3    H241608   3.441   4.518   4.122
13889TIP3   OH241609   7.850   4.287   1.845
13889TIP3    H141610   7.819   4.236   1.771
13889TIP3    H241611   7.823   4.238   1.922
13890TIP3   OH241612   2.501   5.457   4.840
13890TIP3    H141613   2.503   5.536   4.786
13890TIP3    H241614   2.547   5.481   4.920
13891TIP3   OH241615   3.214   7.639   4.396
13891TIP3    H141616   3.120   7.636   4.381
13891TIP3    H241617   3.251   7.583   4.328
13892TIP3   OH241618   7.750   2.059   1.653
13892TIP3    H141619   7.664   2.057   1.611
13892TIP3    H241620   7.775   2.151   1.652
13893TIP3   OH241621   7.116   0.562   0.704
13893TIP3    H141622   7.147   0.523   0.622
13893TIP3    H241623   7.136   0.655   0.695
13894TIP3   OH241624   4.862   4.234   5.399
13894TIP3    H141625   4.860   4.322   5.436
13894TIP3    H241626   4.919   4.241   5.323
13895TIP3   OH241627   5.823   3.936   2.845
13895TIP3    H141628   5.742   3.888   2.825
13895TIP3    H241629   5.859   3.957   2.760
13896TIP3   OH241630   4.320   6.633   5.653
13896TIP3    H141631   4.235   6.648   5.693
13896TIP3    H241632   4.383   6.665   5.718
13897TIP3   OH241633   1.847   3.516   1.740
13897TIP3    H141634   1.834   3.424   1.762
13897TIP3    H241635   1.788   3.532   1.666
13898TIP3   OH241636   6.698   0.358   5.164
13898TIP3    H141637   6.697   0.396   5.076
13898TIP3    H241638   6.677   0.265   5.150
13899TIP3   OH241639   5.454   7.865   5.495
13899TIP3    H141640   5.434   7.864   5.402
13899TIP3    H241641   5.497   7.781   5.511
13900TIP3   OH241642   2.926   0.132   6.317
13900TIP3    H141643   2.875   0.209   6.293
13900TIP3    H241644   2.892   0.063   6.260
13901TIP3   OH241645   8.093   4.151   2.447
13901TIP3    H141646   8.069   4.155   2.540
13901TIP3    H241647   8.118   4.060   2.432
13902TIP3   OH241648   3.702   6.038   4.402
13902TIP3    H141649   3.656   6.012   4.322
13902TIP3    H241650   3.724   5.955   4.445
13903TIP3   OH241651   0.116   6.726   3.111
13903TIP3    H141652   0.099   6.654   3.050
13903TIP3    H241653   0.207   6.713   3.139
13904TIP3   OH241654   5.198   1.389   4.775
13904TIP3    H141655   5.182   1.396   4.681
13904TIP3    H241656   5.111   1.376   4.813
13905TIP3   OH241657   1.063   1.003   2.157
13905TIP3    H141658   1.073   0.946   2.080
13905TIP3    H241659   1.011   0.952   2.218
13906TIP3   OH241660   1.915   2.671   1.923
13906TIP3    H141661   1.942   2.646   2.011
13906TIP3    H241662   1.966   2.749   1.903
13907TIP3   OH241663   5.604   3.628   0.011
13907TIP3    H141664   5.632   3.561   0.073
13907TIP3    H241665   5.508   3.623   0.011
13908TIP3   OH241666   2.681   1.561   3.835
13908TIP3    H141667   2.696   1.626   3.903
13908TIP3    H241668   2.606   1.595   3.785
13909TIP3   OH241669   5.813   2.207   1.996
13909TIP3    H141670   5.862   2.186   1.917
13909TIP3    H241671   5.865   2.275   2.039
13910TIP3   OH241672   1.909   5.949   3.694
13910TIP3    H141673   1.868   5.882   3.639
13910TIP3    H241674   2.002   5.924   3.697
13911TIP3   OH241675   7.411   4.150   4.255
13911TIP3    H141676   7.441   4.241   4.253
13911TIP3    H241677   7.490   4.099   4.235
13912TIP3   OH241678   7.015   3.139   2.215
13912TIP3    H141679   6.971   3.187   2.285
13912TIP3    H241680   7.070   3.075   2.260
13913TIP3   OH241681   2.194   7.243   1.176
13913TIP3    H141682   2.160   7.155   1.193
13913TIP3    H241683   2.259   7.230   1.107
13914TIP3   OH241684   2.780   1.941   3.544
13914TIP3    H141685   2.729   1.975   3.617
13914TIP3    H241686   2.817   1.859   3.575
13915TIP3   OH241687   4.464   6.518   0.213
13915TIP3    H141688   4.421   6.587   0.162
13915TIP3    H241689   4.398   6.448   0.218
13916TIP3   OH241690   7.180   1.678   6.548
13916TIP3    H141691   7.176   1.760   6.498
13916TIP3    H241692   7.142   1.700   6.633
13917TIP3   OH241693   3.245   2.930   0.538
13917TIP3    H141694   3.196   2.997   0.490
13917TIP3    H241695   3.178   2.876   0.579
13918TIP3   OH241696   1.621   3.736   4.810
13918TIP3    H141697   1.594   3.763   4.723
13918TIP3    H241698   1.553   3.770   4.868
13919TIP3   OH241699   3.771   3.747   0.514
13919TIP3    H141700   3.775   3.827   0.566
13919TIP3    H241701   3.779   3.776   0.423
13920TIP3   OH241702   4.144   6.251   3.654
13920TIP3    H141703   4.112   6.273   3.567
13920TIP3    H241704   4.166   6.335   3.694
13921TIP3   OH241705   0.862   5.294   1.818
13921TIP3    H141706   0.895   5.275   1.906
13921TIP3    H241707   0.769   5.311   1.831
13922TIP3   OH241708   6.724   5.493   3.109
13922TIP3    H141709   6.782   5.569   3.122
13922TIP3    H241710   6.644   5.530   3.073
13923TIP3   OH241711   4.479   2.057   4.620
13923TIP3    H141712   4.423   2.134   4.614
13923TIP3    H241713   4.490   2.028   4.529
13924TIP3   OH241714   0.535   2.895   2.885
13924TIP3    H141715   0.568   2.959   2.949
13924TIP3    H241716   0.589   2.817   2.900
13925TIP3   OH241717   5.109   0.609   3.846
13925TIP3    H141718   5.096   0.675   3.913
13925TIP3    H241719   5.199   0.580   3.858
13926TIP3   OH241720   1.853   3.488   4.148
13926TIP3    H141721   1.845   3.532   4.232
13926TIP3    H241722   1.894   3.404   4.168
13927TIP3   OH241723   2.450   5.677  -0.036
13927TIP3    H141724   2.532   5.641  -0.002
13927TIP3    H241725   2.381   5.628   0.009
13928TIP3   OH241726   5.293   4.722   1.878
13928TIP3    H141727   5.241   4.721   1.958
13928TIP3    H241728   5.228   4.719   1.807
13929TIP3   OH241729   2.194   6.726   2.397
13929TIP3    H141730   2.226   6.789   2.461
13929TIP3    H241731   2.235   6.643   2.422
13930TIP3   OH241732   7.281   6.369   0.738
13930TIP3    H141733   7.310   6.365   0.829
13930TIP3    H241734   7.199   6.319   0.736
13931TIP3   OH241735   3.550   0.535   4.344
13931TIP3    H141736   3.563   0.611   4.401
13931TIP3    H241737   3.455   0.520   4.345
13932TIP3   OH241738   0.745   7.304   2.599
13932TIP3    H141739   0.754   7.302   2.504
13932TIP3    H241740   0.678   7.239   2.618
13933TIP3   OH241741   0.100   6.167   1.171
13933TIP3    H141742   0.174   6.227   1.164
13933TIP3    H241743   0.093   6.127   1.084
13934TIP3   OH241744   3.226   5.892   3.499
13934TIP3    H141745   3.321   5.896   3.510
13934TIP3    H241746   3.194   5.972   3.541
13935TIP3   OH241747   8.153   4.861   1.732
13935TIP3    H141748   8.129   4.877   1.641
13935TIP3    H241749   8.111   4.778   1.754
13936TIP3   OH241750   4.345   5.149   4.036
13936TIP3    H141751   4.333   5.163   4.130
13936TIP3    H241752   4.440   5.150   4.024
13937TIP3   OH241753   4.627   0.457   4.455
13937TIP3    H141754   4.606   0.449   4.548
13937TIP3    H241755   4.550   0.497   4.416
13938TIP3   OH241756   4.383   0.574   4.187
13938TIP3    H141757   4.292   0.560   4.165
13938TIP3    H241758   4.381   0.608   4.277
13939TIP3   OH241759   3.979   4.173   5.053
13939TIP3    H141760   3.887   4.183   5.078
13939TIP3    H241761   3.976   4.132   4.966
13940TIP3   OH241762   8.052   4.366   2.305
13940TIP3    H141763   8.067   4.294   2.366
13940TIP3    H241764   8.019   4.325   2.226
13941TIP3   OH241765   3.674   4.658   2.021
13941TIP3    H141766   3.581   4.675   2.039
13941TIP3    H241767   3.719   4.737   2.052
13942TIP3   OH241768   5.325   3.798   1.888
13942TIP3    H141769   5.401   3.843   1.924
13942TIP3    H241770   5.358   3.712   1.861
13943TIP3   OH241771   0.738   2.240   5.234
13943TIP3    H141772   0.803   2.302   5.200
13943TIP3    H241773   0.778   2.206   5.314
13944TIP3   OH241774   3.833   5.986   6.017
13944TIP3    H141775   3.822   6.048   6.089
13944TIP3    H241776   3.922   5.952   6.027
13945TIP3   OH241777   3.781   5.545   5.992
13945TIP3    H141778   3.782   5.618   6.054
13945TIP3    H241779   3.854   5.563   5.933
13946TIP3   OH241780   4.062   0.887   2.756
13946TIP3    H141781   4.048   0.981   2.749
13946TIP3    H241782   4.021   0.863   2.839
13947TIP3   OH241783   1.538   6.507   0.131
13947TIP3    H141784   1.536   6.596   0.098
13947TIP3    H241785   1.631   6.490   0.148
13948TIP3   OH241786   0.915   7.579   2.238
13948TIP3    H141787   0.900   7.673   2.239
13948TIP3    H241788   0.835   7.541   2.273
13949TIP3   OH241789   5.102   5.825   1.653
13949TIP3    H141790   5.121   5.732   1.641
13949TIP3    H241791   5.041   5.847   1.582
13950TIP3   OH241792   7.041   7.775   2.560
13950TIP3    H141793   7.048   7.716   2.484
13950TIP3    H241794   7.132   7.795   2.582
13951TIP3   OH241795   0.605   5.082   1.669
13951TIP3    H141796   0.630   5.170   1.700
13951TIP3    H241797   0.679   5.027   1.696
13952TIP3   OH241798   4.525   0.549   6.246
13952TIP3    H141799   4.581   0.536   6.169
13952TIP3    H241800   4.511   0.461   6.281
13953TIP3   OH241801   5.501   0.137   1.004
13953TIP3    H141802   5.580   0.160   0.955
13953TIP3    H241803   5.529   0.138   1.096
13954TIP3   OH241804   5.563   3.904   4.642
13954TIP3    H141805   5.598   3.944   4.563
13954TIP3    H241806   5.487   3.855   4.612
13955TIP3   OH241807   2.233   1.759   2.529
13955TIP3    H141808   2.272   1.680   2.567
13955TIP3    H241809   2.254   1.752   2.435
13956TIP3   OH241810   6.936   7.588   3.018
13956TIP3    H141811   6.973   7.673   2.993
13956TIP3    H241812   6.974   7.569   3.103
13957TIP3   OH241813   3.508   6.668   5.291
13957TIP3    H141814   3.426   6.688   5.337
13957TIP3    H241815   3.482   6.656   5.200
13958TIP3   OH241816   7.725   3.910   4.857
13958TIP3    H141817   7.746   3.848   4.788
13958TIP3    H241818   7.700   3.990   4.811
13959TIP3   OH241819   7.253   7.327   1.704
13959TIP3    H141820   7.323   7.278   1.747
13959TIP3    H241821   7.252   7.294   1.614
13960TIP3   OH241822   5.478   4.371   1.544
13960TIP3    H141823   5.443   4.308   1.481
13960TIP3    H241824   5.413   4.442   1.545
13961TIP3   OH241825   1.220   3.658   3.448
13961TIP3    H141826   1.277   3.610   3.388
13961TIP3    H241827   1.154   3.593   3.474
13962TIP3   OH241828   5.598   1.683   0.148
13962TIP3    H141829   5.654   1.743   0.198
13962TIP3    H241830   5.515   1.730   0.138
13963TIP3   OH241831   3.286   0.002   1.530
13963TIP3    H141832   3.203  -0.046   1.525
13963TIP3    H241833   3.322  -0.023   1.616
13964TIP3   OH241834   5.988   0.625   5.213
13964TIP3    H141835   5.968   0.675   5.134
13964TIP3    H241836   5.973   0.687   5.284
13965TIP3   OH241837   2.735   3.734   2.894
13965TIP3    H141838   2.644   3.761   2.892
13965TIP3    H241839   2.777   3.784   2.824
13966TIP3   OH241840   7.653   5.923   1.992
13966TIP3    H141841   7.631   6.015   1.973
13966TIP3    H241842   7.707   5.927   2.070
13967TIP3   OH241843   3.145   1.725   1.494
13967TIP3    H141844   3.148   1.632   1.473
13967TIP3    H241845   3.169   1.769   1.412
13968TIP3   OH241846   1.034   0.070   0.276
13968TIP3    H141847   0.976   0.085   0.351
13968TIP3    H241848   1.039   0.155   0.232
13969TIP3   OH241849   4.500   4.304   1.727
13969TIP3    H141850   4.531   4.243   1.795
13969TIP3    H241851   4.558   4.380   1.735
13970TIP3   OH241852   1.441   2.852   4.597
13970TIP3    H141853   1.447   2.758   4.612
13970TIP3    H241854   1.352   2.865   4.563
13971TIP3   OH241855   4.454   4.383   0.921
13971TIP3    H141856   4.420   4.306   0.965
13971TIP3    H241857   4.392   4.453   0.942
13972TIP3   OH241858   0.969   7.752   0.116
13972TIP3    H141859   0.977   7.843   0.144
13972TIP3    H241860   0.963   7.703   0.198
13973TIP3   OH241861   2.878   7.562   6.302
13973TIP3    H141862   2.810   7.497   6.287
13973TIP3    H241863   2.844   7.618   6.372
13974TIP3   OH241864   0.842   6.740   6.490
13974TIP3    H141865   0.781   6.761   6.561
13974TIP3    H241866   0.880   6.824   6.465
13975TIP3   OH241867   5.380   7.391   4.877
13975TIP3    H141868   5.339   7.357   4.956
13975TIP3    H241869   5.437   7.461   4.908
13976TIP3   OH241870   2.790   1.570   0.530
13976TIP3    H141871   2.704   1.540   0.500
13976TIP3    H241872   2.821   1.628   0.460
13977TIP3   OH241873   0.239   6.721   1.497
13977TIP3    H141874   0.146   6.712   1.475
13977TIP3    H241875   0.284   6.666   1.434
13978TIP3   OH241876   5.195   5.651   0.317
13978TIP3    H141877   5.286   5.622   0.311
13978TIP3    H241878   5.162   5.645   0.227
13979TIP3   OH241879   1.283   1.905   6.610
13979TIP3    H141880   1.267   1.826   6.661
13979TIP3    H241881   1.198   1.950   6.607
13980TIP3   OH241882   4.778   0.867   5.588
13980TIP3    H141883   4.731   0.943   5.554
13980TIP3    H241884   4.712   0.796   5.587
13981TIP3   OH241885   0.828   2.636   3.346
13981TIP3    H141886   0.834   2.552   3.391
13981TIP3    H241887   0.740   2.668   3.368
13982TIP3   OH241888   0.363   6.358   0.085
13982TIP3    H141889   0.419   6.427   0.051
13982TIP3    H241890   0.317   6.397   0.159
13983TIP3   OH241891   7.324   1.925   5.562
13983TIP3    H141892   7.375   1.930   5.643
13983TIP3    H241893   7.290   1.836   5.561
13984TIP3   OH241894   1.793   2.437   4.120
13984TIP3    H141895   1.713   2.489   4.119
13984TIP3    H241896   1.836   2.457   4.037
13985TIP3   OH241897   7.403   0.408   3.500
13985TIP3    H141898   7.413   0.449   3.586
13985TIP3    H241899   7.474   0.344   3.495
13986TIP3   OH241900   1.259   0.291   3.988
13986TIP3    H141901   1.352   0.269   3.985
13986TIP3    H241902   1.214   0.210   3.963
13987TIP3   OH241903   1.285   2.815   5.754
13987TIP3    H141904   1.315   2.906   5.755
13987TIP3    H241905   1.331   2.774   5.827
13988TIP3   OH241906   2.889   1.162   4.904
13988TIP3    H141907   2.896   1.077   4.861
13988TIP3    H241908   2.822   1.150   4.971
13989TIP3   OH241909   7.823   7.429   0.447
13989TIP3    H141910   7.738   7.404   0.409
13989TIP3    H241911   7.835   7.520   0.422
13990TIP3   OH241912   5.221   3.599   0.461
13990TIP3    H141913   5.195   3.690   0.470
13990TIP3    H241914   5.158   3.561   0.400
13991TIP3   OH241915   3.979   1.925   5.858
13991TIP3    H141916   3.888   1.897   5.853
13991TIP3    H241917   4.023   1.855   5.907
13992TIP3   OH241918   7.428   0.309   6.245
13992TIP3    H141919   7.349   0.288   6.295
13992TIP3    H241920   7.496   0.323   6.311
13993TIP3   OH241921   3.329   3.533   5.892
13993TIP3    H141922   3.418   3.567   5.900
13993TIP3    H241923   3.273   3.610   5.896
13994TIP3   OH241924   4.021   0.417   3.276
13994TIP3    H141925   4.095   0.392   3.332
13994TIP3    H241926   3.988   0.334   3.242
13995TIP3   OH241927   8.112   7.754   5.596
13995TIP3    H141928   8.143   7.699   5.523
13995TIP3    H241929   8.130   7.843   5.568
13996TIP3   OH241930   7.899   6.697   1.601
13996TIP3    H141931   7.948   6.618   1.622
13996TIP3    H241932   7.809   6.676   1.626
13997TIP3   OH241933   0.566   3.455   4.761
13997TIP3    H141934   0.647   3.410   4.785
13997TIP3    H241935   0.562   3.445   4.666
13998TIP3   OH241936   7.933   2.566   2.599
13998TIP3    H141937   7.857   2.553   2.657
13998TIP3    H241938   7.963   2.477   2.580
13999TIP3   OH241939   7.275   2.442   5.192
13999TIP3    H141940   7.228   2.360   5.198
13999TIP3    H241941   7.218   2.506   5.234
14000TIP3   OH241942   3.555   5.040   5.442
14000TIP3    H141943   3.523   5.130   5.433
14000TIP3    H241944   3.599   5.021   5.360
14001TIP3   OH241945   3.018   4.473   1.051
14001TIP3    H141946   3.008   4.567   1.034
14001TIP3    H241947   3.019   4.433   0.964
14002TIP3   OH241948   1.940   5.822   3.168
14002TIP3    H141949   1.947   5.904   3.216
14002TIP3    H241950   1.852   5.823   3.131
14003TIP3   OH241951   0.040   5.949   1.337
14003TIP3    H141952   0.006   5.989   1.417
14003TIP3    H241953   0.111   6.008   1.309
14004TIP3   OH241954   0.437   1.312   4.560
14004TIP3    H141955   0.500   1.382   4.574
14004TIP3    H241956   0.444   1.257   4.638
14005TIP3   OH241957   6.053   5.468   4.584
14005TIP3    H141958   6.000   5.436   4.511
14005TIP3    H241959   6.139   5.486   4.547
14006TIP3   OH241960   0.488   5.431   2.078
14006TIP3    H141961   0.526   5.514   2.108
14006TIP3    H241962   0.396   5.451   2.062
14007TIP3   OH241963   2.345   6.773   1.223
14007TIP3    H141964   2.269   6.831   1.226
14007TIP3    H241965   2.365   6.753   1.314
14008TIP3   OH241966   3.044   6.825   5.633
14008TIP3    H141967   3.011   6.740   5.602
14008TIP3    H241968   2.996   6.889   5.581
14009TIP3   OH241969   5.154   3.839   0.596
14009TIP3    H141970   5.074   3.891   0.589
14009TIP3    H241971   5.169   3.830   0.690
14010TIP3   OH241972   4.467   0.071   5.673
14010TIP3    H141973   4.510   0.125   5.608
14010TIP3    H241974   4.490  -0.019   5.649
14011TIP3   OH241975   4.328   0.307   4.329
14011TIP3    H141976   4.355   0.380   4.273
14011TIP3    H241977   4.246   0.336   4.368
14012TIP3   OH241978   6.203   5.823   6.582
14012TIP3    H141979   6.199   5.730   6.604
14012TIP3    H241980   6.217   5.824   6.487
14013TIP3   OH241981   2.133   6.243   1.178
14013TIP3    H141982   2.155   6.328   1.139
14013TIP3    H241983   2.102   6.190   1.104
14014TIP3   OH241984   8.182   0.503   5.363
14014TIP3    H141985   8.139   0.479   5.281
14014TIP3    H241986   8.140   0.585   5.389
14015TIP3   OH241987   3.525   5.255   0.232
14015TIP3    H141988   3.479   5.331   0.267
14015TIP3    H241989   3.597   5.292   0.180
14016TIP3   OH241990   8.229   1.238   2.422
14016TIP3    H141991   8.307   1.210   2.469
14016TIP3    H241992   8.217   1.330   2.448
14017TIP3   OH241993   6.818   5.951   1.197
14017TIP3    H141994   6.793   5.890   1.128
14017TIP3    H241995   6.824   6.036   1.153
14018TIP3   OH241996   6.003   5.827   3.411
14018TIP3    H141997   5.958   5.743   3.419
14018TIP3    H241998   6.030   5.849   3.500
14019TIP3   OH241999   6.876   5.257   4.501
14019TIP3    H142000   6.834   5.185   4.455
14019TIP3    H242001   6.854   5.335   4.449
14020TIP3   OH242002   3.825   6.820   4.691
14020TIP3    H142003   3.916   6.795   4.672
14020TIP3    H242004   3.776   6.793   4.613
14021TIP3   OH242005   7.349   3.871   3.894
14021TIP3    H142006   7.444   3.857   3.895
14021TIP3    H242007   7.313   3.784   3.875
14022TIP3   OH242008   3.635   5.883   3.778
14022TIP3    H142009   3.716   5.932   3.779
14022TIP3    H242010   3.661   5.792   3.795
14023TIP3   OH242011   6.190   0.297   1.451
14023TIP3    H142012   6.255   0.229   1.432
14023TIP3    H242013   6.138   0.302   1.371
14024TIP3   OH242014   5.155   5.485   5.481
14024TIP3    H142015   5.078   5.477   5.537
14024TIP3    H242016   5.148   5.573   5.443
14025TIP3   OH242017   3.686   7.709   1.612
14025TIP3    H142018   3.702   7.785   1.556
14025TIP3    H242019   3.727   7.732   1.696
14026TIP3   OH242020   0.043   3.690   2.716
14026TIP3    H142021  -0.023   3.629   2.685
14026TIP3    H242022   0.089   3.718   2.636
14027TIP3   OH242023   1.013   2.950   4.216
14027TIP3    H142024   0.965   2.879   4.172
14027TIP3    H242025   1.059   2.995   4.146
14028TIP3   OH242026   6.316   4.959   2.842
14028TIP3    H142027   6.340   5.027   2.905
14028TIP3    H242028   6.270   5.006   2.772
14029TIP3   OH242029   0.714   4.341   6.480
14029TIP3    H142030   0.785   4.288   6.516
14029TIP3    H242031   0.641   4.280   6.469
14030TIP3   OH242032   6.006   5.183   5.110
14030TIP3    H142033   6.001   5.151   5.020
14030TIP3    H242034   5.916   5.210   5.131
14031TIP3   OH242035   4.567   6.772   2.520
14031TIP3    H142036   4.496   6.760   2.583
14031TIP3    H242037   4.572   6.689   2.473
14032TIP3   OH242038   1.526   5.336   0.665
14032TIP3    H142039   1.490   5.269   0.607
14032TIP3    H242040   1.606   5.298   0.699
14033TIP3   OH242041   6.332   2.557   4.561
14033TIP3    H142042   6.361   2.643   4.530
14033TIP3    H242043   6.250   2.574   4.607
14034TIP3   OH242044   0.336   0.899   1.922
14034TIP3    H142045   0.329   0.873   1.830
14034TIP3    H242046   0.343   0.994   1.919
14035TIP3   OH242047   1.258   4.077   1.265
14035TIP3    H142048   1.265   3.992   1.309
14035TIP3    H242049   1.221   4.135   1.331
14036TIP3   OH242050   4.163   1.215   5.068
14036TIP3    H142051   4.142   1.193   4.977
14036TIP3    H242052   4.176   1.310   5.067
14037TIP3   OH242053   3.429   1.464   1.528
14037TIP3    H142054   3.333   1.467   1.533
14037TIP3    H242055   3.454   1.407   1.601
14038TIP3   OH242056   4.560   2.787   1.736
14038TIP3    H142057   4.562   2.799   1.641
14038TIP3    H242058   4.553   2.693   1.748
14039TIP3   OH242059   4.083   7.427   3.188
14039TIP3    H142060   4.118   7.383   3.111
14039TIP3    H242061   4.074   7.519   3.162
14040TIP3   OH242062   1.304   2.922   5.353
14040TIP3    H142063   1.233   2.986   5.344
14040TIP3    H242064   1.378   2.972   5.386
14041TIP3   OH242065   0.528   7.639   3.031
14041TIP3    H142066   0.621   7.639   3.008
14041TIP3    H242067   0.521   7.579   3.105
14042TIP3   OH242068   3.845   5.491   1.742
14042TIP3    H142069   3.863   5.568   1.688
14042TIP3    H242070   3.774   5.446   1.696
14043TIP3   OH242071   3.043   5.282   3.514
14043TIP3    H142072   3.109   5.260   3.579
14043TIP3    H242073   3.067   5.231   3.437
14044TIP3   OH242074   3.451   4.942   3.644
14044TIP3    H142075   3.432   4.851   3.668
14044TIP3    H242076   3.409   4.994   3.712
14045TIP3   OH242077   2.555   2.630   6.159
14045TIP3    H142078   2.478   2.573   6.151
14045TIP3    H242079   2.593   2.606   6.243
14046TIP3   OH242080   1.161   2.116   4.279
14046TIP3    H142081   1.254   2.118   4.300
14046TIP3    H242082   1.145   2.195   4.228
14047TIP3   OH242083   0.635   3.915   3.417
14047TIP3    H142084   0.722   3.878   3.430
14047TIP3    H242085   0.580   3.871   3.482
14048TIP3   OH242086   5.101   3.143   5.901
14048TIP3    H142087   5.175   3.201   5.888
14048TIP3    H242088   5.040   3.165   5.830
14049TIP3   OH242089   6.444   4.102   1.032
14049TIP3    H142090   6.490   4.175   1.071
14049TIP3    H242091   6.474   4.100   0.941
14050TIP3   OH242092   5.040   6.767   5.752
14050TIP3    H142093   4.948   6.787   5.737
14050TIP3    H242094   5.078   6.762   5.664
14051TIP3   OH242095   7.472   3.546   2.625
14051TIP3    H142096   7.516   3.541   2.710
14051TIP3    H242097   7.426   3.630   2.626
14052TIP3   OH242098   1.258   7.729   1.446
14052TIP3    H142099   1.203   7.654   1.424
14052TIP3    H242100   1.346   7.693   1.456
14053TIP3   OH242101   6.854   3.666   0.475
14053TIP3    H142102   6.911   3.663   0.398
14053TIP3    H242103   6.901   3.617   0.542
14054TIP3   OH242104   7.032   4.114   3.957
14054TIP3    H142105   7.126   4.100   3.966
14054TIP3    H242106   6.996   4.028   3.936
14055TIP3   OH242107   2.486   4.497   3.734
14055TIP3    H142108   2.528   4.461   3.812
14055TIP3    H242109   2.525   4.585   3.726
14056TIP3   OH242110   1.559   6.094   0.542
14056TIP3    H142111   1.572   6.051   0.457
14056TIP3    H242112   1.647   6.116   0.572
14057TIP3   OH242113   3.714   2.577   6.535
14057TIP3    H142114   3.647   2.570   6.467
14057TIP3    H242115   3.768   2.499   6.524
14058TIP3   OH242116   3.177   2.478   6.008
14058TIP3    H142117   3.131   2.491   5.925
14058TIP3    H242118   3.109   2.448   6.069
14059TIP3   OH242119   2.818   1.376   2.267
14059TIP3    H142120   2.762   1.446   2.232
14059TIP3    H242121   2.838   1.405   2.357
14060TIP3   OH242122   2.923   7.540   4.521
14060TIP3    H142123   2.860   7.611   4.533
14060TIP3    H242124   2.986   7.551   4.592
14061TIP3   OH242125   1.297   0.664   3.430
14061TIP3    H142126   1.313   0.724   3.357
14061TIP3    H242127   1.324   0.579   3.397
14062TIP3   OH242128   3.283   0.656   3.167
14062TIP3    H142129   3.254   0.654   3.076
14062TIP3    H242130   3.248   0.738   3.202
14063TIP3   OH242131   0.177   5.484   4.236
14063TIP3    H142132   0.139   5.557   4.285
14063TIP3    H242133   0.102   5.437   4.201
14064TIP3   OH242134   4.787   3.203   0.426
14064TIP3    H142135   4.705   3.168   0.390
14064TIP3    H242136   4.771   3.297   0.433
14065TIP3   OH242137   1.674   2.475   5.591
14065TIP3    H142138   1.595   2.429   5.563
14065TIP3    H242139   1.643   2.538   5.656
14066TIP3   OH242140   6.257   6.342   2.106
14066TIP3    H142141   6.198   6.400   2.058
14066TIP3    H242142   6.205   6.264   2.123
14067TIP3   OH242143   3.306   2.285   4.856
14067TIP3    H142144   3.391   2.293   4.813
14067TIP3    H242145   3.260   2.217   4.806
14068TIP3   OH242146   5.619   7.705   0.413
14068TIP3    H142147   5.677   7.630   0.408
14068TIP3    H242148   5.579   7.711   0.326
14069TIP3   OH242149   2.916   0.120   3.782
14069TIP3    H142150   2.827   0.085   3.779
14069TIP3    H242151   2.944   0.108   3.873
14070TIP3   OH242152   7.294   4.653   4.268
14070TIP3    H142153   7.364   4.592   4.243
14070TIP3    H242154   7.296   4.720   4.199
14071TIP3   OH242155   4.777   2.496   5.658
14071TIP3    H142156   4.757   2.546   5.737
14071TIP3    H242157   4.867   2.519   5.637
14072TIP3   OH242158   3.731   1.045   6.159
14072TIP3    H142159   3.780   1.096   6.223
14072TIP3    H242160   3.650   1.022   6.204
14073TIP3   OH242161   4.847   0.466   5.551
14073TIP3    H142162   4.877   0.386   5.508
14073TIP3    H242163   4.801   0.435   5.630
14074TIP3   OH242164   8.095   3.087   1.809
14074TIP3    H142165   8.168   3.072   1.748
14074TIP3    H242166   8.030   3.134   1.757
14075TIP3   OH242167   2.040   6.392   2.814
14075TIP3    H142168   2.124   6.349   2.830
14075TIP3    H242169   2.045   6.474   2.862
14076TIP3   OH242170   2.824   0.254   0.174
14076TIP3    H142171   2.907   0.296   0.199
14076TIP3    H242172   2.812   0.185   0.239
14077TIP3   OH242173   6.828   0.609   0.088
14077TIP3    H142174   6.822   0.662   0.008
14077TIP3    H242175   6.920   0.582   0.092
14078TIP3   OH242176   2.593   2.724   2.311
14078TIP3    H142177   2.532   2.663   2.351
14078TIP3    H242178   2.665   2.731   2.374
14079TIP3   OH242179   5.216   3.273   6.509
14079TIP3    H142180   5.270   3.203   6.472
14079TIP3    H242181   5.188   3.240   6.594
14080TIP3   OH242182   1.631   5.512   3.579
14080TIP3    H142183   1.586   5.561   3.648
14080TIP3    H242184   1.660   5.431   3.622
14081TIP3   OH242185   1.103   1.030   3.076
14081TIP3    H142186   1.075   1.111   3.119
14081TIP3    H242187   1.178   1.056   3.023
14082TIP3   OH242188   0.960   6.212   2.323
14082TIP3    H142189   1.041   6.171   2.354
14082TIP3    H242190   0.897   6.199   2.394
14083TIP3   OH242191   7.046   4.004   4.341
14083TIP3    H142192   7.103   3.985   4.266
14083TIP3    H242193   6.991   4.076   4.311
14084TIP3   OH242194   4.069   5.410   5.679
14084TIP3    H142195   3.996   5.381   5.624
14084TIP3    H242196   4.052   5.503   5.692
14085TIP3   OH242197   2.904   1.813   1.404
14085TIP3    H142198   2.976   1.769   1.448
14085TIP3    H242199   2.899   1.899   1.445
14086TIP3   OH242200   0.316   6.255   3.204
14086TIP3    H142201   0.361   6.255   3.289
14086TIP3    H242202   0.347   6.176   3.161
14087TIP3   OH242203   7.805   3.232   0.585
14087TIP3    H142204   7.864   3.297   0.624
14087TIP3    H242205   7.774   3.274   0.505
14088TIP3   OH242206   6.329   1.218   5.028
14088TIP3    H142207   6.412   1.246   4.989
14088TIP3    H242208   6.350   1.201   5.119
14089TIP3   OH242209   7.403   6.209   4.414
14089TIP3    H142210   7.454   6.259   4.350
14089TIP3    H242211   7.433   6.243   4.499
14090TIP3   OH242212   2.116   5.336   1.519
14090TIP3    H142213   2.117   5.297   1.431
14090TIP3    H242214   2.031   5.381   1.524
14091TIP3   OH242215   4.975   2.869   5.831
14091TIP3    H142216   5.031   2.911   5.895
14091TIP3    H242217   5.034   2.842   5.761
14092TIP3   OH242218   8.109   3.696   1.287
14092TIP3    H142219   8.055   3.725   1.361
14092TIP3    H242220   8.048   3.650   1.229
14093TIP3   OH242221   6.092   3.298   5.763
14093TIP3    H142222   6.039   3.352   5.822
14093TIP3    H242223   6.172   3.348   5.751
14094TIP3   OH242224   3.616   5.986   0.864
14094TIP3    H142225   3.686   6.030   0.817
14094TIP3    H242226   3.540   5.994   0.807
14095TIP3   OH242227   6.090   4.588   3.505
14095TIP3    H142228   6.126   4.625   3.586
14095TIP3    H242229   6.148   4.620   3.436
14096TIP3   OH242230   5.833   1.973   3.074
14096TIP3    H142231   5.739   1.960   3.065
14096TIP3    H242232   5.871   1.887   3.057
14097TIP3   OH242233   0.173   1.780   1.364
14097TIP3    H142234   0.267   1.795   1.351
14097TIP3    H242235   0.143   1.857   1.413
14098TIP3   OH242236   5.616   0.117   2.193
14098TIP3    H142237   5.600   0.177   2.266
14098TIP3    H242238   5.705   0.138   2.164
14099TIP3   OH242239   2.454   3.292   3.737
14099TIP3    H142240   2.491   3.261   3.819
14099TIP3    H242241   2.526   3.288   3.674
14100TIP3   OH242242   2.565   1.543   6.178
14100TIP3    H142243   2.494   1.488   6.210
14100TIP3    H242244   2.593   1.501   6.097
14101TIP3   OH242245   1.702   2.006   6.256
14101TIP3    H142246   1.662   1.990   6.171
14101TIP3    H242247   1.630   1.996   6.319
14102TIP3   OH242248   0.046   1.776   0.276
14102TIP3    H142249   0.030   1.821   0.359
14102TIP3    H242250   0.050   1.846   0.211
14103TIP3   OH242251   7.582   6.319   5.433
14103TIP3    H142252   7.504   6.338   5.381
14103TIP3    H242253   7.549   6.302   5.521
14104TIP3   OH242254   5.797   7.679   4.219
14104TIP3    H142255   5.717   7.682   4.168
14104TIP3    H242256   5.844   7.760   4.196
14105TIP3   OH242257   2.724   7.525   2.890
14105TIP3    H142258   2.766   7.552   2.972
14105TIP3    H242259   2.761   7.584   2.824
14106TIP3   OH242260   1.291   3.300   4.188
14106TIP3    H142261   1.212   3.353   4.195
14106TIP3    H242262   1.287   3.263   4.100
14107TIP3   OH242263   5.820   5.819   4.132
14107TIP3    H142264   5.847   5.867   4.210
14107TIP3    H242265   5.725   5.811   4.141
14108TIP3   OH242266   2.874   5.087   0.369
14108TIP3    H142267   2.853   5.067   0.278
14108TIP3    H242268   2.966   5.112   0.368
14109TIP3   OH242269   0.909   0.272   4.680
14109TIP3    H142270   0.955   0.356   4.674
14109TIP3    H242271   0.950   0.228   4.754
14110TIP3   OH242272   1.229   2.192   6.520
14110TIP3    H142273   1.259   2.190   6.429
14110TIP3    H242274   1.288   2.253   6.564
14111TIP3   OH242275   5.211   1.829   1.245
14111TIP3    H142276   5.270   1.842   1.319
14111TIP3    H242277   5.193   1.918   1.213
14112TIP3   OH242278   3.853   4.382   5.456
14112TIP3    H142279   3.944   4.411   5.444
14112TIP3    H242280   3.836   4.397   5.549
14113TIP3   OH242281   6.729   0.282   2.020
14113TIP3    H142282   6.793   0.230   2.068
14113TIP3    H242283   6.716   0.360   2.073
14114TIP3   OH242284   3.295   1.493   4.170
14114TIP3    H142285   3.244   1.417   4.143
14114TIP3    H242286   3.386   1.463   4.167
14115TIP3   OH242287   5.034   7.732   4.686
14115TIP3    H142288   5.044   7.638   4.670
14115TIP3    H242289   5.118   7.759   4.722
14116TIP3   OH242290   1.584   6.909   1.946
14116TIP3    H142291   1.512   6.847   1.934
14116TIP3    H242292   1.600   6.943   1.859
14117TIP3   OH242293   7.274   7.297   4.584
14117TIP3    H142294   7.325   7.303   4.503
14117TIP3    H242295   7.310   7.365   4.641
14118TIP3   OH242296   2.353   0.122   2.024
14118TIP3    H142297   2.266   0.088   2.002
14118TIP3    H242298   2.414   0.059   1.987
14119TIP3   OH242299   3.974   6.079   1.937
14119TIP3    H142300   3.934   6.046   2.017
14119TIP3    H242301   4.018   6.003   1.900
14120TIP3   OH242302   7.996   1.763   4.165
14120TIP3    H142303   7.986   1.845   4.117
14120TIP3    H242304   8.066   1.781   4.228
14121TIP3   OH242305   4.297   0.575   5.275
14121TIP3    H142306   4.275   0.658   5.316
14121TIP3    H242307   4.218   0.522   5.285
14122TIP3   OH242308   7.520   7.315   6.485
14122TIP3    H142309   7.474   7.360   6.414
14122TIP3    H242310   7.492   7.224   6.477
14123TIP3   OH242311   6.118   1.116   6.566
14123TIP3    H142312   6.068   1.040   6.535
14123TIP3    H242313   6.189   1.079   6.617
14124TIP3   OH242314   5.777   1.517   6.213
14124TIP3    H142315   5.698   1.509   6.266
14124TIP3    H242316   5.848   1.498   6.274
14125TIP3   OH242317   6.601   4.476   5.293
14125TIP3    H142318   6.594   4.386   5.261
14125TIP3    H242319   6.602   4.530   5.214
14126TIP3   OH242320   4.132   5.820   6.320
14126TIP3    H142321   4.215   5.808   6.274
14126TIP3    H242322   4.135   5.909   6.354
14127TIP3   OH242323   3.057   1.788   6.173
14127TIP3    H142324   2.971   1.750   6.157
14127TIP3    H242325   3.110   1.762   6.097
14128TIP3   OH242326   1.272   6.012   6.579
14128TIP3    H142327   1.268   6.107   6.586
14128TIP3    H242328   1.273   5.995   6.484
14129TIP3   OH242329   5.113   6.022   1.243
14129TIP3    H142330   5.040   6.026   1.180
14129TIP3    H242331   5.189   5.999   1.189
14130TIP3   OH242332   4.922   5.576   5.605
14130TIP3    H142333   4.844   5.613   5.647
14130TIP3    H242334   4.888   5.519   5.536
14131TIP3   OH242335   1.371   2.837   6.768
14131TIP3    H142336   1.392   2.820   6.860
14131TIP3    H242337   1.278   2.861   6.769
14132TIP3   OH242338   4.759   0.767   0.487
14132TIP3    H142339   4.766   0.751   0.581
14132TIP3    H242340   4.841   0.812   0.464
14133TIP3   OH242341   6.186   7.326   5.237
14133TIP3    H142342   6.214   7.392   5.301
14133TIP3    H242343   6.147   7.377   5.166
14134TIP3   OH242344   0.539   5.682   2.678
14134TIP3    H142345   0.594   5.690   2.756
14134TIP3    H242346   0.583   5.615   2.625
14135TIP3   OH242347   5.295   5.699   2.457
14135TIP3    H142348   5.329   5.788   2.467
14135TIP3    H242349   5.361   5.643   2.498
14136TIP3   OH242350   0.316   5.670   6.295
14136TIP3    H142351   0.311   5.711   6.209
14136TIP3    H242352   0.347   5.581   6.277
14137TIP3   OH242353   7.882   2.838   5.592
14137TIP3    H142354   7.904   2.759   5.544
14137TIP3    H242355   7.872   2.905   5.524
14138TIP3   OH242356   6.729   4.335   1.355
14138TIP3    H142357   6.725   4.380   1.439
14138TIP3    H242358   6.751   4.403   1.292
14139TIP3   OH242359   7.303   6.256   4.778
14139TIP3    H142360   7.247   6.277   4.703
14139TIP3    H242361   7.254   6.191   4.827
14140TIP3   OH242362   5.109   7.081   6.603
14140TIP3    H142363   5.115   7.128   6.687
14140TIP3    H242364   5.200   7.060   6.581
14141TIP3   OH242365   4.941   1.959   6.418
14141TIP3    H142366   5.032   1.930   6.411
14141TIP3    H242367   4.894   1.880   6.445
14142TIP3   OH242368   2.590   6.992   3.183
14142TIP3    H142369   2.673   6.983   3.137
14142TIP3    H242370   2.580   7.086   3.197
14143TIP3   OH242371   0.479   6.071   3.081
14143TIP3    H142372   0.528   6.058   3.000
14143TIP3    H242373   0.482   5.986   3.124
14144TIP3   OH242374  -0.022   3.404   1.738
14144TIP3    H142375  -0.009   3.316   1.704
14144TIP3    H242376  -0.115   3.421   1.726
14145TIP3   OH242377   4.782   6.858   4.926
14145TIP3    H142378   4.868   6.820   4.906
14145TIP3    H242379   4.798   6.952   4.927
14146TIP3   OH242380   1.840   7.455   2.333
14146TIP3    H142381   1.918   7.433   2.385
14146TIP3    H242382   1.858   7.544   2.301
14147TIP3   OH242383   0.159   7.107   1.106
14147TIP3    H142384   0.241   7.090   1.151
14147TIP3    H242385   0.178   7.181   1.048
14148TIP3   OH242386   3.271   5.487   5.746
14148TIP3    H142387   3.221   5.567   5.762
14148TIP3    H242388   3.296   5.492   5.654
14149TIP3   OH242389   3.847   2.370   4.742
14149TIP3    H142390   3.939   2.358   4.720
14149TIP3    H242391   3.800   2.313   4.680
14150TIP3   OH242392   6.714   3.227   3.131
14150TIP3    H142393   6.785   3.289   3.144
14150TIP3    H242394   6.741   3.174   3.056
14151TIP3   OH242395   2.096   0.839   6.422
14151TIP3    H142396   2.186   0.849   6.391
14151TIP3    H242397   2.104   0.782   6.499
14152TIP3   OH242398   2.871   2.817   5.941
14152TIP3    H142399   2.942   2.820   5.877
14152TIP3    H242400   2.912   2.842   6.024
14153TIP3   OH242401   6.483   6.859   3.720
14153TIP3    H142402   6.515   6.909   3.645
14153TIP3    H242403   6.562   6.831   3.766
14154TIP3   OH242404   7.482   0.577   6.066
14154TIP3    H142405   7.409   0.608   6.118
14154TIP3    H242406   7.545   0.649   6.067
14155TIP3   OH242407   6.414   4.863   5.128
14155TIP3    H142408   6.319   4.861   5.129
14155TIP3    H242409   6.440   4.793   5.068
14156TIP3   OH242410   2.525   5.971   4.469
14156TIP3    H142411   2.586   5.900   4.490
14156TIP3    H242412   2.498   6.005   4.554
14157TIP3   OH242413   7.121   7.501   0.749
14157TIP3    H142414   7.046   7.509   0.690
14157TIP3    H242415   7.191   7.548   0.704
14158TIP3   OH242416   2.340   0.223   0.668
14158TIP3    H142417   2.366   0.304   0.714
14158TIP3    H242418   2.293   0.254   0.591
14159TIP3   OH242419   1.735   2.958   0.457
14159TIP3    H142420   1.665   3.012   0.421
14159TIP3    H242421   1.695   2.915   0.533
14160TIP3   OH242422   5.226   4.795   3.461
14160TIP3    H142423   5.170   4.718   3.471
14160TIP3    H242424   5.293   4.768   3.399
14161TIP3   OH242425   6.264   0.617   1.822
14161TIP3    H142426   6.173   0.589   1.821
14161TIP3    H242427   6.311   0.548   1.775
14162TIP3   OH242428   1.055   3.651   4.389
14162TIP3    H142429   1.087   3.676   4.475
14162TIP3    H242430   1.090   3.563   4.376
14163TIP3   OH242431   4.515   7.311   4.911
14163TIP3    H142432   4.449   7.276   4.851
14163TIP3    H242433   4.473   7.384   4.955
14164TIP3   OH242434   4.875   3.599   2.586
14164TIP3    H142435   4.788   3.637   2.599
14164TIP3    H242436   4.858   3.514   2.545
14165TIP3   OH242437   0.224   6.559   4.030
14165TIP3    H142438   0.161   6.555   3.958
14165TIP3    H242439   0.269   6.642   4.018
14166TIP3   OH242440   1.742   4.692   4.667
14166TIP3    H142441   1.674   4.648   4.616
14166TIP3    H242442   1.776   4.760   4.610
14167TIP3   OH242443   2.638   7.463   1.810
14167TIP3    H142444   2.690   7.398   1.858
14167TIP3    H242445   2.614   7.418   1.729
14168TIP3   OH242446   2.829   3.194   1.157
14168TIP3    H142447   2.826   3.281   1.198
14168TIP3    H242448   2.798   3.134   1.225
14169TIP3   OH242449   6.925   5.560   1.710
14169TIP3    H142450   6.837   5.597   1.704
14169TIP3    H242451   6.933   5.532   1.802
14170TIP3   OH242452   4.902   2.538   2.880
14170TIP3    H142453   4.896   2.462   2.939
14170TIP3    H242454   4.958   2.600   2.927
14171TIP3   OH242455   3.984   1.980   5.582
14171TIP3    H142456   3.968   1.990   5.676
14171TIP3    H242457   3.905   1.938   5.549
14172TIP3   OH242458   7.720   4.594   0.345
14172TIP3    H142459   7.670   4.512   0.344
14172TIP3    H242460   7.726   4.617   0.437
14173TIP3   OH242461   6.798   1.206   3.474
14173TIP3    H142462   6.837   1.139   3.530
14173TIP3    H242463   6.873   1.250   3.434
14174TIP3   OH242464   1.535   6.950   5.092
14174TIP3    H142465   1.447   6.962   5.127
14174TIP3    H242466   1.547   7.025   5.033
14175TIP3   OH242467   6.243   2.211   5.904
14175TIP3    H142468   6.276   2.300   5.892
14175TIP3    H242469   6.155   2.213   5.865
14176TIP3   OH242470   3.052   0.406   0.184
14176TIP3    H142471   3.098   0.425   0.266
14176TIP3    H242472   3.120   0.371   0.127
14177TIP3   OH242473   7.746   5.966   5.312
14177TIP3    H142474   7.781   6.055   5.308
14177TIP3    H242475   7.658   5.976   5.349
14178TIP3   OH242476   4.322   4.736   0.307
14178TIP3    H142477   4.395   4.792   0.333
14178TIP3    H242478   4.333   4.724   0.213
14179TIP3   OH242479   2.462   3.651   5.895
14179TIP3    H142480   2.543   3.606   5.916
14179TIP3    H242481   2.399   3.581   5.876
14180TIP3   OH242482   0.159   7.008   6.365
14180TIP3    H142483   0.156   7.100   6.339
14180TIP3    H242484   0.240   7.000   6.416
14181TIP3   OH242485   7.554   3.446   2.384
14181TIP3    H142486   7.517   3.489   2.461
14181TIP3    H242487   7.578   3.359   2.415
14182TIP3   OH242488   1.282   7.639   0.133
14182TIP3    H142489   1.262   7.732   0.141
14182TIP3    H242490   1.331   7.618   0.212
14183TIP3   OH242491   6.972   5.772   0.263
14183TIP3    H142492   6.995   5.801   0.351
14183TIP3    H242493   7.002   5.681   0.259
14184TIP3   OH242494   2.443   4.177   5.903
14184TIP3    H142495   2.368   4.134   5.861
14184TIP3    H242496   2.427   4.168   5.997
14185TIP3   OH242497   3.532   3.790   5.852
14185TIP3    H142498   3.454   3.825   5.809
14185TIP3    H242499   3.588   3.761   5.780
14186TIP3   OH242500   0.237   2.499   0.755
14186TIP3    H142501   0.163   2.559   0.744
14186TIP3    H242502   0.251   2.496   0.849
14187TIP3   OH242503   3.254   0.639   2.589
14187TIP3    H142504   3.259   0.544   2.587
14187TIP3    H242505   3.161   0.658   2.599
14188TIP3   OH242506   0.881   1.575   4.877
14188TIP3    H142507   0.843   1.496   4.838
14188TIP3    H242508   0.806   1.621   4.917
14189TIP3   OH242509   1.882   6.186   3.849
14189TIP3    H142510   1.890   6.104   3.800
14189TIP3    H242511   1.970   6.224   3.845
14190TIP3   OH242512   2.109   1.271   4.742
14190TIP3    H142513   2.142   1.181   4.738
14190TIP3    H242514   2.113   1.294   4.835
14191TIP3   OH242515   6.414   7.101   2.517
14191TIP3    H142516   6.455   7.137   2.438
14191TIP3    H242517   6.366   7.024   2.487
14192TIP3   OH242518   0.232   7.502   3.895
14192TIP3    H142519   0.239   7.420   3.846
14192TIP3    H242520   0.309   7.502   3.952
14193TIP3   OH242521   4.653   0.798   4.787
14193TIP3    H142522   4.691   0.774   4.703
14193TIP3    H242523   4.561   0.816   4.768
14194TIP3   OH242524   7.696   4.106   6.021
14194TIP3    H142525   7.717   4.133   5.931
14194TIP3    H242526   7.617   4.053   6.012
14195TIP3   OH242527   2.818   6.246   0.093
14195TIP3    H142528   2.833   6.300   0.171
14195TIP3    H242529   2.781   6.307   0.029
14196TIP3   OH242530   6.667   4.900   1.536
14196TIP3    H142531   6.653   4.994   1.534
14196TIP3    H242532   6.593   4.864   1.487
14197TIP3   OH242533   5.152   3.632   5.874
14197TIP3    H142534   5.110   3.708   5.833
14197TIP3    H242535   5.128   3.638   5.966
14198TIP3   OH242536   4.390   0.908   4.824
14198TIP3    H142537   4.354   0.825   4.856
14198TIP3    H242538   4.314   0.955   4.788
14199TIP3   OH242539   6.786   1.359   6.591
14199TIP3    H142540   6.803   1.429   6.528
14199TIP3    H242541   6.801   1.399   6.677
14200TIP3   OH242542   3.117   4.228   1.126
14200TIP3    H142543   3.128   4.207   1.219
14200TIP3    H242544   3.075   4.314   1.125
14201TIP3   OH242545   5.057   4.502   0.239
14201TIP3    H142546   5.002   4.570   0.202
14201TIP3    H242547   5.114   4.548   0.301
14202TIP3   OH242548   4.862   4.109   4.187
14202TIP3    H142549   4.915   4.159   4.126
14202TIP3    H242550   4.880   4.149   4.272
14203TIP3   OH242551   5.936   0.412   4.852
14203TIP3    H142552   5.936   0.479   4.784
14203TIP3    H242553   5.848   0.415   4.889
14204TIP3   OH242554   1.427   4.688   3.774
14204TIP3    H142555   1.499   4.742   3.741
14204TIP3    H242556   1.348   4.741   3.758
14205TIP3   OH242557   1.231   5.982   6.310
14205TIP3    H142558   1.182   5.900   6.310
14205TIP3    H242559   1.269   5.987   6.222
14206TIP3   OH242560   0.782   3.301   4.842
14206TIP3    H142561   0.726   3.251   4.902
14206TIP3    H242562   0.869   3.265   4.855
14207TIP3   OH242563   3.253   3.003   1.608
14207TIP3    H142564   3.276   3.094   1.628
14207TIP3    H242565   3.189   2.979   1.675
14208TIP3   OH242566   2.836   1.394   4.011
14208TIP3    H142567   2.787   1.338   4.070
14208TIP3    H242568   2.779   1.403   3.934
14209TIP3   OH242569   3.518   1.013   4.408
14209TIP3    H142570   3.538   0.956   4.333
14209TIP3    H242571   3.469   0.958   4.468
14210TIP3   OH242572   1.708   3.694   0.413
14210TIP3    H142573   1.756   3.762   0.366
14210TIP3    H242574   1.726   3.711   0.505
14211TIP3   OH242575   0.642   4.228   0.385
14211TIP3    H142576   0.627   4.148   0.436
14211TIP3    H242577   0.659   4.197   0.296
14212TIP3   OH242578   4.035   1.271   0.853
14212TIP3    H142579   4.091   1.206   0.895
14212TIP3    H242580   4.028   1.242   0.762
14213TIP3   OH242581   5.299   0.257   3.721
14213TIP3    H142582   5.322   0.326   3.658
14213TIP3    H242583   5.296   0.177   3.668
14214TIP3   OH242584   5.801   5.191   4.569
14214TIP3    H142585   5.842   5.250   4.632
14214TIP3    H242586   5.867   5.123   4.554
14215TIP3   OH242587   5.834   5.758   1.683
14215TIP3    H142588   5.826   5.812   1.762
14215TIP3    H242589   5.818   5.669   1.714
14216TIP3   OH242590   4.599   4.993   3.187
14216TIP3    H142591   4.677   4.960   3.143
14216TIP3    H242592   4.633   5.048   3.258
14217TIP3   OH242593   4.184   1.491   2.009
14217TIP3    H142594   4.241   1.446   2.072
14217TIP3    H242595   4.212   1.582   2.011
14218TIP3   OH242596   5.716   3.808   6.259
14218TIP3    H142597   5.747   3.866   6.189
14218TIP3    H242598   5.764   3.727   6.246
14219TIP3   OH242599   0.050   6.529   2.558
14219TIP3    H142600  -0.020   6.479   2.599
14219TIP3    H242601   0.042   6.508   2.465
14220TIP3   OH242602   3.633   6.375   3.852
14220TIP3    H142603   3.599   6.290   3.824
14220TIP3    H242604   3.571   6.438   3.814
14221TIP3   OH242605   2.318   1.552   1.189
14221TIP3    H142606   2.273   1.485   1.240
14221TIP3    H242607   2.395   1.574   1.241
14222TIP3   OH242608   6.862   5.529   3.426
14222TIP3    H142609   6.803   5.534   3.351
14222TIP3    H242610   6.894   5.618   3.438
14223TIP3   OH242611   0.646   2.797   4.422
14223TIP3    H142612   0.571   2.852   4.399
14223TIP3    H242613   0.700   2.853   4.478
14224TIP3   OH242614   3.726   2.582   3.023
14224TIP3    H142615   3.658   2.603   3.088
14224TIP3    H242616   3.718   2.651   2.957
14225TIP3   OH242617   1.932   1.087   5.812
14225TIP3    H142618   1.875   1.162   5.796
14225TIP3    H242619   2.015   1.111   5.771
14226TIP3   OH242620   5.074   0.650   0.982
14226TIP3    H142621   5.026   0.580   1.027
14226TIP3    H242622   5.102   0.709   1.053
14227TIP3   OH242623   5.002   1.210   6.303
14227TIP3    H142624   4.952   1.224   6.223
14227TIP3    H242625   5.083   1.170   6.274
14228TIP3   OH242626   3.777   4.460   6.503
14228TIP3    H142627   3.785   4.386   6.564
14228TIP3    H242628   3.864   4.469   6.465
14229TIP3   OH242629   7.416   5.277   3.904
14229TIP3    H142630   7.386   5.320   3.824
14229TIP3    H242631   7.492   5.328   3.932
14230TIP3   OH242632   3.800   2.019   1.956
14230TIP3    H142633   3.798   2.065   1.871
14230TIP3    H242634   3.879   1.966   1.952
14231TIP3   OH242635   1.236   6.001   2.109
14231TIP3    H142636   1.214   5.930   2.048
14231TIP3    H242637   1.308   6.047   2.067
14232TIP3   OH242638   3.176   4.537   2.039
14232TIP3    H142639   3.082   4.531   2.055
14232TIP3    H242640   3.184   4.600   1.968
14233TIP3   OH242641   0.386   7.672   6.222
14233TIP3    H142642   0.300   7.705   6.196
14233TIP3    H242643   0.419   7.737   6.284
14234TIP3   OH242644   3.828   1.577   2.457
14234TIP3    H142645   3.783   1.655   2.489
14234TIP3    H242646   3.920   1.604   2.448
14235TIP3   OH242647   5.198   7.122   4.275
14235TIP3    H142648   5.285   7.138   4.240
14235TIP3    H242649   5.150   7.203   4.260
14236TIP3   OH242650   4.065   0.427   5.262
14236TIP3    H142651   4.017   0.484   5.320
14236TIP3    H242652   4.116   0.370   5.320
14237TIP3   OH242653   1.278   0.779   6.176
14237TIP3    H142654   1.281   0.706   6.239
14237TIP3    H242655   1.271   0.737   6.091
14238TIP3   OH242656   5.877   2.941   2.523
14238TIP3    H142657   5.814   3.009   2.499
14238TIP3    H242658   5.910   2.908   2.440
14239TIP3   OH242659   6.261   7.365   0.306
14239TIP3    H142660   6.270   7.457   0.284
14239TIP3    H242661   6.350   7.334   0.319
14240TIP3   OH242662   4.751   7.328   4.769
14240TIP3    H142663   4.669   7.322   4.818
14240TIP3    H242664   4.762   7.421   4.752
14241TIP3   OH242665   1.419   4.334   1.230
14241TIP3    H142666   1.345   4.278   1.253
14241TIP3    H242667   1.379   4.420   1.214
14242TIP3   OH242668   6.801   0.124   5.491
14242TIP3    H142669   6.878   0.076   5.459
14242TIP3    H242670   6.728   0.083   5.446
14243TIP3   OH242671   4.535   4.255   2.432
14243TIP3    H142672   4.630   4.256   2.426
14243TIP3    H242673   4.510   4.164   2.417
14244TIP3   OH242674   1.926   5.684   4.798
14244TIP3    H142675   1.940   5.670   4.705
14244TIP3    H242676   1.917   5.596   4.835
14245TIP3   OH242677   3.597   4.990   1.190
14245TIP3    H142678   3.632   5.042   1.262
14245TIP3    H242679   3.515   5.033   1.167
14246TIP3   OH242680   7.376   7.036   6.391
14246TIP3    H142681   7.321   7.040   6.313
14246TIP3    H242682   7.317   7.058   6.463
14247TIP3   OH242683   1.783   5.233   1.772
14247TIP3    H142684   1.858   5.183   1.739
14247TIP3    H242685   1.724   5.166   1.807
14248TIP3   OH242686   2.614   6.728   1.112
14248TIP3    H142687   2.605   6.650   1.058
14248TIP3    H242688   2.545   6.720   1.178
14249TIP3   OH242689   0.759   6.978   0.085
14249TIP3    H142690   0.780   7.066   0.055
14249TIP3    H242691   0.711   6.991   0.167
14250TIP3   OH242692   3.846   1.816   0.608
14250TIP3    H142693   3.770   1.875   0.607
14250TIP3    H242694   3.850   1.782   0.519
14251TIP3   OH242695   1.252   3.772   0.749
14251TIP3    H142696   1.347   3.779   0.737
14251TIP3    H242697   1.239   3.687   0.790
14252TIP3   OH242698   5.550   6.399   1.082
14252TIP3    H142699   5.547   6.485   1.124
14252TIP3    H242700   5.494   6.344   1.136
14253TIP3   OH242701   2.057   1.931   5.089
14253TIP3    H142702   2.037   1.949   5.181
14253TIP3    H242703   2.152   1.920   5.087
14254TIP3   OH242704   6.383   3.658   6.417
14254TIP3    H142705   6.338   3.742   6.429
14254TIP3    H242706   6.332   3.613   6.350
14255TIP3   OH242707   0.532   4.347   2.531
14255TIP3    H142708   0.576   4.348   2.616
14255TIP3    H242709   0.594   4.390   2.472
14256TIP3   OH242710   3.201   7.079   2.161
14256TIP3    H142711   3.201   7.010   2.228
14256TIP3    H242712   3.287   7.119   2.168
14257TIP3   OH242713   7.149   3.988   0.649
14257TIP3    H142714   7.216   3.953   0.590
14257TIP3    H242715   7.070   3.991   0.595
14258TIP3   OH242716   6.040   4.138   4.460
14258TIP3    H142717   5.997   4.179   4.385
14258TIP3    H242718   6.061   4.049   4.430
14259TIP3   OH242719   2.823   0.329   4.286
14259TIP3    H142720   2.846   0.416   4.318
14259TIP3    H242721   2.893   0.307   4.224
14260TIP3   OH242722   3.330   3.750   3.580
14260TIP3    H142723   3.377   3.813   3.634
14260TIP3    H242724   3.322   3.792   3.495
14261TIP3   OH242725   5.264   2.402   2.850
14261TIP3    H142726   5.247   2.447   2.933
14261TIP3    H242727   5.266   2.472   2.785
14262TIP3   OH242728   2.481   4.975   4.940
14262TIP3    H142729   2.521   4.889   4.953
14262TIP3    H242730   2.457   5.004   5.029
14263TIP3   OH242731   2.344   1.429   0.902
14263TIP3    H142732   2.340   1.474   0.987
14263TIP3    H242733   2.290   1.351   0.914
14264TIP3   OH242734   2.589   1.446   1.286
14264TIP3    H142735   2.575   1.369   1.230
14264TIP3    H242736   2.645   1.414   1.357
14265TIP3   OH242737   2.764   2.993   3.423
14265TIP3    H142738   2.854   2.962   3.425
14265TIP3    H242739   2.710   2.915   3.438
14266TIP3   OH242740   5.862   3.582   6.190
14266TIP3    H142741   5.922   3.551   6.257
14266TIP3    H242742   5.897   3.546   6.108
14267TIP3   OH242743   2.559   6.718   5.993
14267TIP3    H142744   2.630   6.686   5.938
14267TIP3    H242745   2.504   6.770   5.934
14268TIP3   OH242746   3.221   5.557   0.469
14268TIP3    H142747   3.157   5.611   0.516
14268TIP3    H242748   3.212   5.471   0.508
14269TIP3   OH242749   6.562   7.582   2.215
14269TIP3    H142750   6.505   7.506   2.227
14269TIP3    H242751   6.638   7.548   2.167
14270TIP3   OH242752   2.930   3.483   5.659
14270TIP3    H142753   2.989   3.445   5.725
14270TIP3    H242754   2.911   3.571   5.691
14271TIP3   OH242755   6.707   5.741   4.753
14271TIP3    H142756   6.759   5.751   4.673
14271TIP3    H242757   6.656   5.662   4.739
14272TIP3   OH242758   2.735   6.050   5.514
14272TIP3    H142759   2.795   6.082   5.581
14272TIP3    H242760   2.694   5.973   5.552
14273TIP3   OH242761   5.380   1.536   3.413
14273TIP3    H142762   5.367   1.441   3.414
14273TIP3    H242763   5.297   1.571   3.447
14274TIP3   OH242764   4.776   3.881   5.353
14274TIP3    H142765   4.865   3.846   5.348
14274TIP3    H242766   4.768   3.935   5.275
14275TIP3   OH242767   1.014   2.586   1.225
14275TIP3    H142768   1.069   2.555   1.297
14275TIP3    H242769   1.076   2.620   1.160
14276TIP3   OH242770   3.110   4.676   3.391
14276TIP3    H142771   3.141   4.670   3.300
14276TIP3    H242772   3.120   4.768   3.414
14277TIP3   OH242773   4.912   5.367   3.506
14277TIP3    H142774   4.825   5.381   3.544
14277TIP3    H242775   4.930   5.447   3.458
14278TIP3   OH242776   5.807   3.257   5.490
14278TIP3    H142777   5.776   3.343   5.518
14278TIP3    H242778   5.738   3.224   5.433
14279TIP3   OH242779   7.284   4.053   3.385
14279TIP3    H142780   7.199   4.086   3.356
14279TIP3    H242781   7.269   4.024   3.475
14280TIP3   OH242782   2.342   7.154   6.331
14280TIP3    H142783   2.410   7.196   6.385
14280TIP3    H242784   2.313   7.224   6.272
14281TIP3   OH242785   3.568   6.805   0.126
14281TIP3    H142786   3.581   6.818   0.032
14281TIP3    H242787   3.479   6.770   0.133
14282TIP3   OH242788   5.747   7.576   0.927
14282TIP3    H142789   5.754   7.480   0.924
14282TIP3    H242790   5.837   7.607   0.917
14283TIP3   OH242791   1.342   3.907   3.315
14283TIP3    H142792   1.375   3.872   3.232
14283TIP3    H242793   1.344   3.832   3.375
14284TIP3   OH242794   0.122   2.732   4.308
14284TIP3    H142795   0.119   2.660   4.371
14284TIP3    H242796   0.032   2.739   4.275
14285TIP3   OH242797   0.943   1.635   0.220
14285TIP3    H142798   0.967   1.674   0.136
14285TIP3    H242799   0.954   1.541   0.207
14286TIP3   OH242800   4.062   4.245   3.709
14286TIP3    H142801   4.094   4.330   3.739
14286TIP3    H242802   3.973   4.239   3.744
14287TIP3   OH242803   7.486   3.772   5.475
14287TIP3    H142804   7.513   3.705   5.539
14287TIP3    H242805   7.470   3.722   5.395
14288TIP3   OH242806   8.181  -0.015   3.425
14288TIP3    H142807   8.218   0.067   3.393
14288TIP3    H242808   8.195  -0.078   3.354
14289TIP3   OH242809   1.240   4.885   3.701
14289TIP3    H142810   1.282   4.921   3.623
14289TIP3    H242811   1.180   4.954   3.730
14290TIP3   OH242812   1.015   1.685   1.973
14290TIP3    H142813   1.052   1.688   2.061
14290TIP3    H242814   0.921   1.695   1.986
14291TIP3   OH242815   2.991   2.880   3.795
14291TIP3    H142816   2.983   2.925   3.879
14291TIP3    H242817   3.028   2.795   3.816
14292TIP3   OH242818   5.337   3.037   6.381
14292TIP3    H142819   5.280   3.082   6.318
14292TIP3    H242820   5.359   2.954   6.339
14293TIP3   OH242821   4.457   5.943   3.290
14293TIP3    H142822   4.427   6.030   3.262
14293TIP3    H242823   4.449   5.889   3.212
14294TIP3   OH242824   2.114   7.437   4.906
14294TIP3    H142825   2.139   7.503   4.841
14294TIP3    H242826   2.187   7.374   4.905
14295TIP3   OH242827   0.008   1.059   5.873
14295TIP3    H142828   0.024   1.117   5.947
14295TIP3    H242829   0.048   0.976   5.899
14296TIP3   OH242830   2.403   3.290   3.317
14296TIP3    H142831   2.468   3.334   3.262
14296TIP3    H242832   2.380   3.355   3.384
14297TIP3   OH242833   7.356   1.272   6.241
14297TIP3    H142834   7.373   1.312   6.327
14297TIP3    H242835   7.280   1.215   6.257
14298TIP3   OH242836   5.050   3.737   5.574
14298TIP3    H142837   5.103   3.730   5.494
14298TIP3    H242838   5.003   3.654   5.579
14299TIP3   OH242839   4.378   3.130   2.987
14299TIP3    H142840   4.392   3.137   2.892
14299TIP3    H242841   4.456   3.170   3.025
14300TIP3   OH242842   7.228   5.057   6.060
14300TIP3    H142843   7.183   5.069   5.976
14300TIP3    H242844   7.312   5.101   6.048
14301TIP3   OH242845   0.983   6.444   2.674
14301TIP3    H142846   1.076   6.425   2.662
14301TIP3    H242847   0.958   6.491   2.594
14302TIP3   OH242848   4.351   6.093   6.728
14302TIP3    H142849   4.398   6.177   6.735
14302TIP3    H242850   4.421   6.028   6.718
14303TIP3   OH242851   6.820   6.147   3.919
14303TIP3    H142852   6.826   6.226   3.865
14303TIP3    H242853   6.792   6.078   3.859
14304TIP3   OH242854   7.260   2.691   5.687
14304TIP3    H142855   7.271   2.750   5.762
14304TIP3    H242856   7.293   2.607   5.719
14305TIP3   OH242857   7.486   7.441   1.873
14305TIP3    H142858   7.540   7.397   1.808
14305TIP3    H242859   7.416   7.379   1.894
14306TIP3   OH242860   3.359   3.285   5.385
14306TIP3    H142861   3.371   3.289   5.480
14306TIP3    H242862   3.442   3.316   5.349
14307TIP3   OH242863   5.141   4.116   6.726
14307TIP3    H142864   5.109   4.206   6.727
14307TIP3    H242865   5.222   4.119   6.776
14308TIP3   OH242866   4.637   7.420   0.631
14308TIP3    H142867   4.694   7.485   0.591
14308TIP3    H242868   4.601   7.371   0.557
14309TIP3   OH242869   0.835   2.509   6.119
14309TIP3    H142870   0.841   2.597   6.156
14309TIP3    H242871   0.756   2.472   6.158
14310TIP3   OH242872   1.077   1.377   2.371
14310TIP3    H142873   1.153   1.407   2.320
14310TIP3    H242874   1.027   1.456   2.388
14311TIP3   OH242875   0.095   0.195   4.031
14311TIP3    H142876   0.092   0.127   3.964
14311TIP3    H242877   0.092   0.277   3.981
14312TIP3   OH242878   1.852   5.126   2.964
14312TIP3    H142879   1.922   5.166   2.913
14312TIP3    H242880   1.775   5.131   2.908
14313TIP3   OH242881   7.742   3.132   4.734
14313TIP3    H142882   7.808   3.177   4.682
14313TIP3    H242883   7.717   3.056   4.681
14314TIP3   OH242884   4.728   0.435   1.627
14314TIP3    H142885   4.741   0.415   1.720
14314TIP3    H242886   4.715   0.350   1.586
14315TIP3   OH242887   1.850   5.575   6.270
14315TIP3    H142888   1.813   5.619   6.193
14315TIP3    H242889   1.807   5.616   6.345
14316TIP3   OH242890   6.552   5.419   3.995
14316TIP3    H142891   6.487   5.375   3.941
14316TIP3    H242892   6.526   5.398   4.085
14317TIP3   OH242893   7.941   7.039   2.708
14317TIP3    H142894   7.849   7.061   2.695
14317TIP3    H242895   7.988   7.116   2.674
14318TIP3   OH242896   8.307   2.238   2.362
14318TIP3    H142897   8.216   2.253   2.336
14318TIP3    H242898   8.350   2.211   2.281
14319TIP3   OH242899   2.529   6.622   5.225
14319TIP3    H142900   2.548   6.624   5.131
14319TIP3    H242901   2.615   6.609   5.266
14320TIP3   OH242902   1.042   3.380   4.290
14320TIP3    H142903   0.991   3.301   4.307
14320TIP3    H242904   0.992   3.425   4.221
14321TIP3   OH242905   3.481   3.923   2.391
14321TIP3    H142906   3.558   3.979   2.383
14321TIP3    H242907   3.417   3.961   2.331
14322TIP3   OH242908   0.695   6.530   5.636
14322TIP3    H142909   0.653   6.613   5.611
14322TIP3    H242910   0.747   6.506   5.559
14323TIP3   OH242911   1.302   6.303   3.482
14323TIP3    H142912   1.248   6.235   3.521
14323TIP3    H242913   1.337   6.263   3.402
14324TIP3   OH242914   0.190   4.743   2.221
14324TIP3    H142915   0.142   4.682   2.166
14324TIP3    H242916   0.278   4.745   2.184
14325TIP3   OH242917   4.202   5.009   6.042
14325TIP3    H142918   4.172   4.924   6.009
14325TIP3    H242919   4.123   5.049   6.079
14326TIP3   OH242920   3.059   3.158   6.665
14326TIP3    H142921   3.127   3.121   6.721
14326TIP3    H242922   3.047   3.093   6.596
14327TIP3   OH242923   0.350   3.293   2.770
14327TIP3    H142924   0.279   3.340   2.813
14327TIP3    H242925   0.308   3.216   2.732
14328TIP3   OH242926   6.432   6.919   5.136
14328TIP3    H142927   6.424   7.014   5.139
14328TIP3    H242928   6.500   6.899   5.202
14329TIP3   OH242929   4.446   1.478   6.688
14329TIP3    H142930   4.536   1.473   6.656
14329TIP3    H242931   4.417   1.387   6.692
14330TIP3   OH242932   6.147   2.586   3.307
14330TIP3    H142933   6.162   2.552   3.219
14330TIP3    H242934   6.121   2.677   3.293
14331TIP3   OH242935   5.429   5.823   1.834
14331TIP3    H142936   5.453   5.737   1.870
14331TIP3    H242937   5.392   5.871   1.908
14332TIP3   OH242938   1.760   3.070   4.585
14332TIP3    H142939   1.668   3.081   4.564
14332TIP3    H242940   1.770   3.111   4.671
14333TIP3   OH242941   5.687   3.005   1.793
14333TIP3    H142942   5.664   3.038   1.706
14333TIP3    H242943   5.734   3.078   1.834
14334TIP3   OH242944   4.103   6.315   1.072
14334TIP3    H142945   4.092   6.223   1.046
14334TIP3    H242946   4.018   6.341   1.106
14335TIP3   OH242947   2.319   2.040   2.099
14335TIP3    H142948   2.381   2.021   2.029
14335TIP3    H242949   2.263   1.962   2.104
14336TIP3   OH242950   5.317   4.505   0.203
14336TIP3    H142951   5.226   4.479   0.209
14336TIP3    H242952   5.366   4.429   0.234
14337TIP3   OH242953   1.996   7.509   0.782
14337TIP3    H142954   1.904   7.512   0.756
14337TIP3    H242955   1.996   7.463   0.866
14338TIP3   OH242956   6.784   7.762   0.430
14338TIP3    H142957   6.821   7.759   0.342
14338TIP3    H242958   6.707   7.818   0.421
14339TIP3   OH242959   7.122   2.374   2.712
14339TIP3    H142960   7.092   2.311   2.646
14339TIP3    H242961   7.066   2.359   2.788
14340TIP3   OH242962   1.064   7.832   3.513
14340TIP3    H142963   1.125   7.777   3.561
14340TIP3    H242964   0.998   7.771   3.479
14341TIP3   OH242965   5.221   1.040   4.183
14341TIP3    H142966   5.132   1.069   4.162
14341TIP3    H242967   5.212   0.992   4.265
14342TIP3   OH242968   6.533   5.231   4.651
14342TIP3    H142969   6.583   5.226   4.570
14342TIP3    H242970   6.443   5.213   4.625
14343TIP3   OH242971   5.958   3.525   4.947
14343TIP3    H142972   5.893   3.586   4.982
14343TIP3    H242973   5.917   3.439   4.954
14344TIP3   OH242974   3.006   1.415   0.568
14344TIP3    H142975   3.067   1.482   0.598
14344TIP3    H242976   2.929   1.463   0.539
14345TIP3   OH242977   1.044   5.555   5.193
14345TIP3    H142978   1.073   5.644   5.170
14345TIP3    H242979   0.952   5.565   5.218
14346TIP3   OH242980   5.049   4.454   0.708
14346TIP3    H142981   5.050   4.383   0.772
14346TIP3    H242982   4.990   4.519   0.746
14347TIP3   OH242983   6.275   7.403   3.755
14347TIP3    H142984   6.215   7.393   3.828
14347TIP3    H242985   6.313   7.316   3.742
14348TIP3   OH242986   6.104   1.208   1.130
14348TIP3    H142987   6.114   1.195   1.224
14348TIP3    H242988   6.120   1.302   1.117
14349TIP3   OH242989   5.374   1.310   6.328
14349TIP3    H142990   5.340   1.239   6.382
14349TIP3    H242991   5.368   1.388   6.383
14350TIP3   OH242992   7.994   2.002   1.500
14350TIP3    H142993   7.990   1.912   1.468
14350TIP3    H242994   7.913   2.014   1.550
14351TIP3   OH242995   4.798   1.993   1.606
14351TIP3    H142996   4.790   2.063   1.541
14351TIP3    H242997   4.717   1.943   1.598
14352TIP3   OH242998   2.414   0.126   5.972
14352TIP3    H142999   2.433   0.036   5.997
14352TIP3    H243000   2.375   0.119   5.885
14353TIP3   OH243001   4.757   0.077   2.278
14353TIP3    H143002   4.750  -0.004   2.329
14353TIP3    H243003   4.773   0.048   2.189
14354TIP3   OH243004   1.521   2.500   3.070
14354TIP3    H143005   1.602   2.546   3.047
14354TIP3    H243006   1.538   2.463   3.157
14355TIP3   OH243007   3.187   1.590   2.918
14355TIP3    H143008   3.244   1.666   2.929
14355TIP3    H243009   3.237   1.517   2.954
14356TIP3   OH243010   6.485   2.021   1.128
14356TIP3    H143011   6.440   2.075   1.192
14356TIP3    H243012   6.578   2.036   1.144
14357TIP3   OH243013   2.651   6.398   4.017
14357TIP3    H143014   2.724   6.348   3.979
14357TIP3    H243015   2.681   6.420   4.105
14358TIP3   OH243016   1.532   0.637   5.877
14358TIP3    H143017   1.501   0.691   5.804
14358TIP3    H243018   1.540   0.699   5.950
14359TIP3   OH243019   0.156   0.018   6.318
14359TIP3    H143020   0.114   0.103   6.334
14359TIP3    H243021   0.091  -0.047   6.345
14360TIP3   OH243022   1.452   4.837   5.958
14360TIP3    H143023   1.500   4.908   6.002
14360TIP3    H243024   1.360   4.860   5.970
14361TIP3   OH243025   0.988   5.797   3.569
14361TIP3    H143026   1.058   5.754   3.618
14361TIP3    H243027   0.975   5.742   3.492
14362TIP3   OH243028   4.023   2.016   0.466
14362TIP3    H143029   3.953   1.957   0.496
14362TIP3    H243030   4.029   2.082   0.535
14363TIP3   OH243031   6.971   0.733   1.456
14363TIP3    H143032   6.882   0.763   1.438
14363TIP3    H243033   6.961   0.642   1.486
14364TIP3   OH243034   3.959   3.211   5.440
14364TIP3    H143035   3.984   3.160   5.517
14364TIP3    H243036   3.903   3.281   5.474
14365TIP3   OH243037   4.479   4.076   5.684
14365TIP3    H143038   4.492   4.171   5.687
14365TIP3    H243039   4.542   4.046   5.619
14366TIP3   OH243040   2.219   7.045   3.316
14366TIP3    H143041   2.220   7.041   3.221
14366TIP3    H243042   2.253   7.132   3.337
14367TIP3   OH243043   2.701   7.725   5.776
14367TIP3    H143044   2.791   7.752   5.756
14367TIP3    H243045   2.702   7.710   5.871
14368TIP3   OH243046   6.662   7.464   3.257
14368TIP3    H143047   6.655   7.521   3.181
14368TIP3    H243048   6.731   7.401   3.235
14369TIP3   OH243049   0.533   4.117   6.093
14369TIP3    H143050   0.578   4.136   6.174
14369TIP3    H243051   0.460   4.179   6.091
14370TIP3   OH243052   1.814   3.237   1.747
14370TIP3    H143053   1.888   3.189   1.786
14370TIP3    H243054   1.804   3.199   1.660
14371TIP3   OH243055   1.700   6.999   1.707
14371TIP3    H143056   1.652   6.938   1.652
14371TIP3    H243057   1.792   6.975   1.696
14372TIP3   OH243058   3.123   0.530   5.519
14372TIP3    H143059   3.138   0.561   5.608
14372TIP3    H243060   3.085   0.605   5.474
14373TIP3   OH243061   4.323   0.113   2.858
14373TIP3    H143062   4.311   0.184   2.795
14373TIP3    H243063   4.249   0.122   2.918
14374TIP3   OH243064   3.712   4.361   3.722
14374TIP3    H143065   3.667   4.423   3.779
14374TIP3    H243066   3.718   4.405   3.638
14375TIP3   OH243067   4.389   2.231   3.853
14375TIP3    H143068   4.339   2.308   3.828
14375TIP3    H243069   4.473   2.240   3.807
14376TIP3   OH243070   7.271   0.178   0.896
14376TIP3    H143071   7.317   0.261   0.912
14376TIP3    H243072   7.178   0.200   0.903
14377TIP3   OH243073   7.035   4.617   2.393
14377TIP3    H143074   6.958   4.578   2.436
14377TIP3    H243075   6.999   4.661   2.316
14378TIP3   OH243076   3.583   3.509   3.699
14378TIP3    H143077   3.627   3.590   3.677
14378TIP3    H243078   3.630   3.442   3.649
14379TIP3   OH243079   6.023   2.200   2.310
14379TIP3    H143080   6.095   2.173   2.253
14379TIP3    H243081   5.969   2.257   2.256
14380TIP3   OH243082   0.041   3.162   1.655
14380TIP3    H143083   0.035   3.130   1.565
14380TIP3    H243084   0.102   3.102   1.698
14381TIP3   OH243085   5.787   2.436   4.280
14381TIP3    H143086   5.775   2.462   4.189
14381TIP3    H243087   5.876   2.462   4.302
14382TIP3   OH243088   8.298   6.824   6.247
14382TIP3    H143089   8.273   6.780   6.328
14382TIP3    H243090   8.329   6.910   6.275
14383TIP3   OH243091   7.931   2.304   2.817
14383TIP3    H143092   7.990   2.332   2.747
14383TIP3    H243093   7.943   2.209   2.822
14384TIP3   OH243094   1.467   6.983   0.984
14384TIP3    H143095   1.508   6.979   0.898
14384TIP3    H243096   1.471   7.075   1.009
14385TIP3   OH243097   1.631   5.249   3.220
14385TIP3    H143098   1.716   5.207   3.232
14385TIP3    H243099   1.642   5.337   3.254
14386TIP3   OH243100   1.809   4.835   1.804
14386TIP3    H143101   1.862   4.815   1.727
14386TIP3    H243102   1.794   4.929   1.800
14387TIP3   OH243103   0.866   5.001   2.137
14387TIP3    H143104   0.801   5.069   2.121
14387TIP3    H243105   0.937   5.020   2.076
14388TIP3   OH243106   8.238   0.386   2.786
14388TIP3    H143107   8.157   0.383   2.734
14388TIP3    H243108   8.259   0.294   2.802
14389TIP3   OH243109   5.976   5.668   4.737
14389TIP3    H143110   6.006   5.589   4.692
14389TIP3    H243111   5.966   5.733   4.668
14390TIP3   OH243112   6.235   7.601   2.163
14390TIP3    H143113   6.240   7.532   2.229
14390TIP3    H243114   6.143   7.604   2.138
14391TIP3   OH243115   7.452   3.140   0.039
14391TIP3    H143116   7.387   3.132   0.108
14391TIP3    H243117   7.445   3.231   0.010
14392TIP3   OH243118   3.845   7.214   2.103
14392TIP3    H143119   3.884   7.136   2.064
14392TIP3    H243120   3.800   7.257   2.031
14393TIP3   OH243121   3.559   1.994   2.072
14393TIP3    H143122   3.577   2.050   2.148
14393TIP3    H243123   3.645   1.984   2.030
14394TIP3   OH243124   1.692   7.465   6.363
14394TIP3    H143125   1.674   7.559   6.369
14394TIP3    H243126   1.608   7.426   6.341
14395TIP3   OH243127   1.745   3.263   5.854
14395TIP3    H143128   1.720   3.173   5.877
14395TIP3    H243129   1.728   3.270   5.760
14396TIP3   OH243130   0.793   1.461   4.413
14396TIP3    H143131   0.871   1.498   4.373
14396TIP3    H243132   0.730   1.454   4.342
14397TIP3   OH243133   3.898   2.324   1.322
14397TIP3    H143134   3.847   2.352   1.398
14397TIP3    H243135   3.891   2.397   1.260
14398TIP3   OH243136   5.419   1.340   0.492
14398TIP3    H143137   5.455   1.424   0.465
14398TIP3    H243138   5.347   1.363   0.551
14399TIP3   OH243139   0.925   1.366   6.337
14399TIP3    H143140   0.878   1.382   6.255
14399TIP3    H243141   1.016   1.387   6.317
14400TIP3   OH243142   8.082   3.487   6.331
14400TIP3    H143143   8.127   3.440   6.260
14400TIP3    H243144   8.096   3.579   6.311
14401TIP3   OH243145   6.410   3.580   4.825
14401TIP3    H143146   6.424   3.672   4.847
14401TIP3    H243147   6.337   3.553   4.882
14402TIP3   OH243148   0.925   2.097   5.020
14402TIP3    H143149   0.952   2.015   5.060
14402TIP3    H243150   0.831   2.101   5.033
14403TIP3   OH243151   6.345   5.548   4.882
14403TIP3    H143152   6.276   5.610   4.862
14403TIP3    H243153   6.304   5.462   4.871
14404TIP3   OH243154   1.158   2.573   6.739
14404TIP3    H143155   1.198   2.648   6.785
14404TIP3    H243156   1.226   2.543   6.679
14405TIP3   OH243157   4.424   3.966   6.550
14405TIP3    H143158   4.451   3.948   6.459
14405TIP3    H243159   4.492   4.025   6.583
14406TIP3   OH243160   0.472   1.061   2.148
14406TIP3    H143161   0.465   1.045   2.242
14406TIP3    H243162   0.386   1.093   2.123
14407TIP3   OH243163   4.914   2.524   3.816
14407TIP3    H143164   4.824   2.495   3.826
14407TIP3    H243165   4.948   2.530   3.906
14408TIP3   OH243166   4.961   4.269   0.000
14408TIP3    H143167   4.988   4.178   0.010
14408TIP3    H243168   5.001   4.315   0.074
14409TIP3   OH243169   4.954   3.306   4.689
14409TIP3    H143170   5.045   3.286   4.664
14409TIP3    H243171   4.960   3.336   4.780
14410TIP3   OH243172   6.797   1.612   2.016
14410TIP3    H143173   6.856   1.568   2.077
14410TIP3    H243174   6.752   1.541   1.971
14411TIP3   OH243175   1.068   5.592   4.873
14411TIP3    H143176   1.143   5.614   4.927
14411TIP3    H243177   1.049   5.500   4.894
14412TIP3   OH243178   6.407   0.756   6.094
14412TIP3    H143179   6.315   0.764   6.070
14412TIP3    H243180   6.440   0.846   6.095
14413TIP3   OH243181   1.641   5.305   4.841
14413TIP3    H143182   1.704   5.367   4.878
14413TIP3    H243183   1.670   5.220   4.873
14414TIP3   OH243184   2.565   0.500   1.070
14414TIP3    H143185   2.506   0.508   0.995
14414TIP3    H243186   2.512   0.523   1.146
14415TIP3   OH243187   0.669   2.627   4.214
14415TIP3    H143188   0.698   2.694   4.276
14415TIP3    H243189   0.593   2.665   4.171
14416TIP3   OH243190   3.067   6.611   2.539
14416TIP3    H143191   3.047   6.704   2.532
14416TIP3    H243192   3.118   6.603   2.620
14417TIP3   OH243193   5.392   0.339   0.830
14417TIP3    H143194   5.311   0.377   0.863
14417TIP3    H243195   5.419   0.278   0.898
14418TIP3   OH243196   4.616   6.870   3.629
14418TIP3    H143197   4.704   6.868   3.591
14418TIP3    H243198   4.562   6.820   3.568
14419TIP3   OH243199   2.622   2.264   2.468
14419TIP3    H143200   2.659   2.176   2.459
14419TIP3    H243201   2.603   2.272   2.561
14420TIP3   OH243202   4.765   1.439   1.692
14420TIP3    H143203   4.727   1.371   1.636
14420TIP3    H243204   4.690   1.490   1.723
14421TIP3   OH243205   0.742   3.540   6.590
14421TIP3    H143206   0.786   3.548   6.505
14421TIP3    H243207   0.810   3.507   6.649
14422TIP3   OH243208   5.653   0.447   4.880
14422TIP3    H143209   5.569   0.409   4.852
14422TIP3    H243210   5.657   0.531   4.835
14423TIP3   OH243211   7.381   2.569   1.583
14423TIP3    H143212   7.295   2.610   1.571
14423TIP3    H243213   7.392   2.514   1.506
14424TIP3   OH243214   3.127   6.907   4.091
14424TIP3    H143215   3.086   6.928   4.007
14424TIP3    H243216   3.138   6.992   4.134
14425TIP3   OH243217   2.669   2.929   2.165
14425TIP3    H143218   2.647   2.864   2.232
14425TIP3    H243219   2.689   2.878   2.087
14426TIP3   OH243220   1.081   2.312   5.508
14426TIP3    H143221   1.005   2.272   5.467
14426TIP3    H243222   1.153   2.298   5.446
14427TIP3   OH243223   4.213   6.776   2.274
14427TIP3    H143224   4.188   6.804   2.186
14427TIP3    H243225   4.266   6.848   2.308
14428TIP3   OH243226   6.606   4.283   2.202
14428TIP3    H143227   6.635   4.200   2.164
14428TIP3    H243228   6.511   4.280   2.197
14429TIP3   OH243229   5.959   1.250   1.455
14429TIP3    H143230   5.989   1.270   1.543
14429TIP3    H243231   5.937   1.336   1.418
14430TIP3   OH243232   5.527   0.956   6.007
14430TIP3    H143233   5.483   0.872   5.990
14430TIP3    H243234   5.510   0.972   6.100
14431TIP3   OH243235   2.089   5.129   1.934
14431TIP3    H143236   2.147   5.184   1.986
14431TIP3    H243237   2.024   5.097   1.997
14432TIP3   OH243238   4.129   4.334   1.853
14432TIP3    H143239   4.033   4.330   1.851
14432TIP3    H243240   4.151   4.394   1.781
14433TIP3   OH243241   8.061   7.264   4.824
14433TIP3    H143242   8.024   7.296   4.742
14433TIP3    H243243   7.987   7.223   4.869
14434TIP3   OH243244   4.044   5.345   6.326
14434TIP3    H143245   4.127   5.389   6.344
14434TIP3    H243246   3.980   5.415   6.321
14435TIP3   OH243247   4.268   5.661   4.534
14435TIP3    H143248   4.235   5.655   4.445
14435TIP3    H243249   4.207   5.720   4.579
14436TIP3   OH243250   4.718   1.746   5.254
14436TIP3    H143251   4.652   1.687   5.217
14436TIP3    H243252   4.768   1.691   5.315
14437TIP3   OH243253   4.780   2.161   6.370
14437TIP3    H143254   4.853   2.100   6.377
14437TIP3    H243255   4.756   2.180   6.460
14438TIP3   OH243256   3.304   1.088   4.866
14438TIP3    H143257   3.256   1.143   4.928
14438TIP3    H243258   3.396   1.100   4.891
14439TIP3   OH243259   3.813   5.006   1.679
14439TIP3    H143260   3.811   4.913   1.657
14439TIP3    H243261   3.723   5.027   1.706
14440TIP3   OH243262   5.509   3.398   0.307
14440TIP3    H143263   5.448   3.459   0.348
14440TIP3    H243264   5.563   3.366   0.379
14441TIP3   OH243265   6.185   1.440   3.080
14441TIP3    H143266   6.134   1.420   3.001
14441TIP3    H243267   6.157   1.375   3.144
14442TIP3   OH243268   0.596   0.775   1.449
14442TIP3    H143269   0.547   0.811   1.376
14442TIP3    H243270   0.626   0.852   1.498
14443TIP3   OH243271   2.959   4.116   1.950
14443TIP3    H143272   2.933   4.030   1.984
14443TIP3    H243273   2.942   4.111   1.856
14444TIP3   OH243274   4.055   4.231   2.807
14444TIP3    H143275   4.061   4.173   2.883
14444TIP3    H243276   3.963   4.225   2.780
14445TIP3   OH243277   3.825   1.209   1.714
14445TIP3    H143278   3.847   1.173   1.628
14445TIP3    H243279   3.772   1.286   1.696
14446TIP3   OH243280   1.531   3.079   1.759
14446TIP3    H143281   1.625   3.062   1.757
14446TIP3    H243282   1.506   3.087   1.668
14447TIP3   OH243283   6.901   1.733   0.289
14447TIP3    H143284   6.996   1.729   0.276
14447TIP3    H243285   6.883   1.669   0.359
14448TIP3   OH243286   0.243   6.987   1.601
14448TIP3    H143287   0.170   6.978   1.662
14448TIP3    H243288   0.252   6.899   1.562
14449TIP3   OH243289   4.519   6.475   1.880
14449TIP3    H143290   4.536   6.439   1.967
14449TIP3    H243291   4.475   6.405   1.833
14450TIP3   OH243292   5.707   7.515   3.034
14450TIP3    H143293   5.641   7.545   2.972
14450TIP3    H243294   5.784   7.495   2.981
14451TIP3   OH243295   0.275   1.895   3.312
14451TIP3    H143296   0.260   1.986   3.285
14451TIP3    H243297   0.337   1.901   3.384
14452TIP3   OH243298   6.058   0.937   0.107
14452TIP3    H143299   6.133   0.975   0.153
14452TIP3    H243300   5.981   0.977   0.149
14453TIP3   OH243301   0.968   7.195   3.576
14453TIP3    H143302   0.901   7.162   3.636
14453TIP3    H243303   1.047   7.148   3.600
14454TIP3   OH243304   5.282   3.041   2.651
14454TIP3    H143305   5.249   3.129   2.632
14454TIP3    H243306   5.369   3.039   2.610
14455TIP3   OH243307   0.035   0.579   2.231
14455TIP3    H143308   0.057   0.664   2.271
14455TIP3    H243309  -0.007   0.602   2.149
14456TIP3   OH243310   5.829   6.667   5.182
14456TIP3    H143311   5.850   6.640   5.092
14456TIP3    H243312   5.734   6.672   5.183
14457TIP3   OH243313   5.948   1.511   1.406
14457TIP3    H143314   5.925   1.584   1.348
14457TIP3    H243315   6.000   1.552   1.476
14458TIP3   OH243316   5.298   1.306   4.504
14458TIP3    H143317   5.224   1.251   4.479
14458TIP3    H243318   5.362   1.244   4.539
14459TIP3   OH243319   6.144   5.413   2.895
14459TIP3    H143320   6.079   5.364   2.846
14459TIP3    H243321   6.202   5.346   2.932
14460TIP3   OH243322   3.518   2.073   6.726
14460TIP3    H143323   3.443   2.050   6.780
14460TIP3    H243324   3.582   2.003   6.742
14461TIP3   OH243325   1.410   0.099   0.600
14461TIP3    H143326   1.499   0.088   0.568
14461TIP3    H243327   1.356   0.048   0.539
14462TIP3   OH243328   3.794   2.567   6.813
14462TIP3    H143329   3.889   2.577   6.808
14462TIP3    H243330   3.762   2.591   6.726
14463TIP3   OH243331   6.846   6.103   2.897
14463TIP3    H143332   6.916   6.153   2.940
14463TIP3    H243333   6.765   6.135   2.937
14464TIP3   OH243334   7.362   3.122   5.686
14464TIP3    H143335   7.377   3.123   5.591
14464TIP3    H243336   7.369   3.214   5.712
14465TIP3   OH243337   7.772   7.661   4.109
14465TIP3    H143338   7.732   7.723   4.048
14465TIP3    H243339   7.723   7.580   4.096
14466TIP3   OH243340   4.641   7.637   6.242
14466TIP3    H143341   4.609   7.649   6.331
14466TIP3    H243342   4.671   7.547   6.239
14467TIP3   OH243343   2.044   7.461   1.046
14467TIP3    H143344   2.045   7.365   1.053
14467TIP3    H243345   2.059   7.492   1.135
14468TIP3   OH243346   1.622   3.999   1.123
14468TIP3    H143347   1.537   4.005   1.080
14468TIP3    H243348   1.607   4.035   1.211
14469TIP3   OH243349   5.812   2.621   0.169
14469TIP3    H143350   5.831   2.564   0.093
14469TIP3    H243351   5.838   2.708   0.140
14470TIP3   OH243352   6.102   0.249   6.037
14470TIP3    H143353   6.071   0.339   6.047
14470TIP3    H243354   6.181   0.245   6.090
14471TIP3   OH243355   1.674  -0.015   2.916
14471TIP3    H143356   1.709  -0.020   2.827
14471TIP3    H243357   1.672   0.078   2.936
14472TIP3   OH243358   5.907   3.426   3.586
14472TIP3    H143359   5.876   3.436   3.496
14472TIP3    H243360   5.831   3.447   3.641
14473TIP3   OH243361   0.673   5.011   4.498
14473TIP3    H143362   0.708   4.984   4.583
14473TIP3    H243363   0.605   5.074   4.519
14474TIP3   OH243364   3.178   0.356   4.886
14474TIP3    H143365   3.241   0.393   4.825
14474TIP3    H243366   3.180   0.262   4.867
14475TIP3   OH243367   7.385   2.404   4.110
14475TIP3    H143368   7.379   2.342   4.038
14475TIP3    H243369   7.296   2.408   4.145
14476TIP3   OH243370   5.517   1.150   2.260
14476TIP3    H143371   5.430   1.118   2.233
14476TIP3    H243372   5.498   1.226   2.315
14477TIP3   OH243373   1.078   3.390   5.626
14477TIP3    H143374   1.059   3.296   5.630
14477TIP3    H243375   1.097   3.406   5.534
14478TIP3   OH243376   1.787   7.080   4.444
14478TIP3    H143377   1.764   7.062   4.535
14478TIP3    H243378   1.741   7.160   4.423
14479TIP3   OH243379   3.017   2.349   4.998
14479TIP3    H143380   2.975   2.264   5.012
14479TIP3    H243381   3.078   2.335   4.925
14480TIP3   OH243382   1.640   5.643   1.746
14480TIP3    H143383   1.634   5.734   1.773
14480TIP3    H243384   1.557   5.604   1.771
14481TIP3   OH243385   6.993   3.719   6.449
14481TIP3    H143386   7.034   3.680   6.526
14481TIP3    H243387   7.060   3.715   6.381
14482TIP3   OH243388   4.421   1.868   6.634
14482TIP3    H143389   4.378   1.954   6.628
14482TIP3    H243390   4.433   1.841   6.543
14483TIP3   OH243391   7.212   0.129   6.354
14483TIP3    H143392   7.187   0.197   6.416
14483TIP3    H243393   7.141   0.064   6.360
14484TIP3   OH243394   1.833   7.422   2.039
14484TIP3    H143395   1.841   7.398   2.131
14484TIP3    H243396   1.766   7.362   2.004
14485TIP3   OH243397   4.385   6.562   4.444
14485TIP3    H143398   4.402   6.642   4.395
14485TIP3    H243399   4.465   6.511   4.437
14486TIP3   OH243400   8.254   3.809   1.570
14486TIP3    H143401   8.174   3.760   1.589
14486TIP3    H243402   8.319   3.742   1.548
14487TIP3   OH243403   4.571   3.915   6.325
14487TIP3    H143404   4.646   3.963   6.292
14487TIP3    H243405   4.571   3.833   6.276
14488TIP3   OH243406   8.149   2.520   4.303
14488TIP3    H143407   8.093   2.571   4.245
14488TIP3    H243408   8.163   2.577   4.379
14489TIP3   OH243409   3.918   2.906   0.302
14489TIP3    H143410   3.959   2.887   0.217
14489TIP3    H243411   3.983   2.957   0.350
14490TIP3   OH243412   2.310   0.628   5.555
14490TIP3    H143413   2.244   0.694   5.536
14490TIP3    H243414   2.306   0.619   5.650
14491TIP3   OH243415   3.197   2.679   4.131
14491TIP3    H143416   3.137   2.627   4.185
14491TIP3    H243417   3.279   2.681   4.181
14492TIP3   OH243418   7.447   6.634   4.564
14492TIP3    H143419   7.356   6.644   4.592
14492TIP3    H243420   7.466   6.541   4.576
14493TIP3   OH243421   5.155   3.889   0.901
14493TIP3    H143422   5.250   3.900   0.889
14493TIP3    H243423   5.122   3.979   0.908
14494TIP3   OH243424   4.247   4.920   3.376
14494TIP3    H143425   4.258   5.015   3.378
14494TIP3    H243426   4.333   4.885   3.397
14495TIP3   OH243427   4.734   0.048   6.532
14495TIP3    H143428   4.641   0.069   6.531
14495TIP3    H243429   4.743  -0.026   6.472
14496TIP3   OH243430   4.722   4.027   5.561
14496TIP3    H143431   4.775   4.093   5.515
14496TIP3    H243432   4.724   3.951   5.503
14497TIP3   OH243433   4.628   2.185   5.975
14497TIP3    H143434   4.716   2.160   5.948
14497TIP3    H243435   4.606   2.261   5.920
14498TIP3   OH243436   0.090   7.229   3.842
14498TIP3    H143437   0.065   7.257   3.930
14498TIP3    H243438   0.073   7.134   3.841
14499TIP3   OH243439   7.735   6.274   0.842
14499TIP3    H143440   7.746   6.333   0.767
14499TIP3    H243441   7.807   6.211   0.834
14500TIP3   OH243442   0.799   5.422   5.890
14500TIP3    H143443   0.776   5.417   5.797
14500TIP3    H243444   0.714   5.429   5.935
14501TIP3   OH243445   6.349   0.245   6.183
14501TIP3    H143446   6.415   0.207   6.124
14501TIP3    H243447   6.358   0.195   6.264
14502TIP3   OH243448   5.969   6.414   0.063
14502TIP3    H143449   6.053   6.428   0.021
14502TIP3    H243450   5.991   6.375   0.148
14503TIP3   OH243451   7.938   1.886   2.274
14503TIP3    H143452   8.017   1.920   2.232
14503TIP3    H243453   7.970   1.844   2.354
14504TIP3   OH243454   7.915   2.303   4.137
14504TIP3    H143455   7.835   2.324   4.090
14504TIP3    H243456   7.982   2.359   4.095
14505TIP3   OH243457   7.867   3.496   2.803
14505TIP3    H143458   7.862   3.570   2.742
14505TIP3    H243459   7.777   3.486   2.835
14506TIP3   OH243460  -0.005   4.722   4.232
14506TIP3    H143461   0.071   4.766   4.195
14506TIP3    H243462   0.013   4.628   4.219
14507TIP3   OH243463   7.973   3.720   0.817
14507TIP3    H143464   7.911   3.791   0.799
14507TIP3    H243465   7.925   3.641   0.793
14508TIP3   OH243466   2.091   3.231   5.845
14508TIP3    H143467   2.062   3.219   5.935
14508TIP3    H243468   2.021   3.192   5.791
14509TIP3   OH243469   0.863   2.574   2.068
14509TIP3    H143470   0.848   2.541   2.156
14509TIP3    H243471   0.885   2.667   2.081
14510TIP3   OH243472   7.934   3.731   3.653
14510TIP3    H143473   7.849   3.689   3.670
14510TIP3    H243474   7.991   3.697   3.722
14511TIP3   OH243475   2.257   3.602   2.709
14511TIP3    H143476   2.291   3.691   2.697
14511TIP3    H243477   2.284   3.577   2.797
14512TIP3   OH243478   3.733   1.063   1.255
14512TIP3    H143479   3.794   1.016   1.311
14512TIP3    H243480   3.647   1.029   1.279
14513TIP3   OH243481   7.418   2.653   3.494
14513TIP3    H143482   7.420   2.737   3.539
14513TIP3    H243483   7.326   2.641   3.469
14514TIP3   OH243484   0.249   6.380   3.472
14514TIP3    H143485   0.221   6.290   3.481
14514TIP3    H243486   0.169   6.429   3.453
14515TIP3   OH243487   4.861   0.935   1.080
14515TIP3    H143488   4.950   0.968   1.090
14515TIP3    H243489   4.839   0.899   1.166
14516TIP3   OH243490   5.297   3.833   2.691
14516TIP3    H143491   5.297   3.906   2.629
14516TIP3    H243492   5.236   3.769   2.653
14517TIP3   OH243493   7.488   6.215   6.637
14517TIP3    H143494   7.476   6.225   6.542
14517TIP3    H243495   7.565   6.268   6.657
14518TIP3   OH243496   5.500   5.541   1.898
14518TIP3    H143497   5.547   5.523   1.980
14518TIP3    H243498   5.418   5.493   1.907
14519TIP3   OH243499   0.074   5.204   5.650
14519TIP3    H143500  -0.008   5.254   5.653
14519TIP3    H243501   0.140   5.268   5.622
14520TIP3   OH243502   7.132   2.758   1.985
14520TIP3    H143503   7.155   2.691   1.921
14520TIP3    H243504   7.172   2.729   2.067
14521TIP3   OH243505   4.922   1.497   1.011
14521TIP3    H143506   4.968   1.537   1.085
14521TIP3    H243507   4.938   1.403   1.021
14522TIP3   OH243508   6.675   6.050   2.452
14522TIP3    H143509   6.730   6.003   2.389
14522TIP3    H243510   6.738   6.095   2.508
14523TIP3   OH243511   2.393   6.306   3.661
14523TIP3    H143512   2.410   6.275   3.572
14523TIP3    H243513   2.420   6.234   3.717
14524TIP3   OH243514   3.479   5.642   2.467
14524TIP3    H143515   3.499   5.595   2.386
14524TIP3    H243516   3.560   5.689   2.488
14525TIP3   OH243517   1.128   5.830   3.218
14525TIP3    H143518   1.085   5.816   3.134
14525TIP3    H243519   1.089   5.765   3.277
14526TIP3   OH243520   1.446   0.553   2.088
14526TIP3    H143521   1.418   0.596   2.007
14526TIP3    H243522   1.431   0.460   2.071
14527TIP3   OH243523   4.019   5.024   5.682
14527TIP3    H143524   3.951   5.004   5.747
14527TIP3    H243525   4.071   4.944   5.677
14528TIP3   OH243526   2.661   3.756   1.875
14528TIP3    H143527   2.631   3.679   1.923
14528TIP3    H243528   2.756   3.746   1.869
14529TIP3   OH243529   0.816   4.643   6.302
14529TIP3    H143530   0.851   4.570   6.353
14529TIP3    H243531   0.861   4.637   6.218
14530TIP3   OH243532   1.772   3.371   6.599
14530TIP3    H143533   1.691   3.328   6.629
14530TIP3    H243534   1.813   3.404   6.679
14531TIP3   OH243535   6.942   4.806   3.808
14531TIP3    H143536   6.959   4.732   3.867
14531TIP3    H243537   6.851   4.831   3.826
14532TIP3   OH243538   8.073   6.620   3.884
14532TIP3    H143539   8.007   6.578   3.829
14532TIP3    H243540   8.024   6.687   3.933
14533TIP3   OH243541   3.461   7.791   4.340
14533TIP3    H143542   3.393   7.724   4.335
14533TIP3    H243543   3.526   7.755   4.401
14534TIP3   OH243544   3.690   3.270   4.075
14534TIP3    H143545   3.613   3.300   4.028
14534TIP3    H243546   3.751   3.241   4.007
14535TIP3   OH243547   6.767   2.226   3.953
14535TIP3    H143548   6.800   2.257   4.037
14535TIP3    H243549   6.829   2.260   3.889
14536TIP3   OH243550   6.208   0.440   4.753
14536TIP3    H143551   6.170   0.366   4.801
14536TIP3    H243552   6.251   0.400   4.678
14537TIP3   OH243553   3.835   0.902   1.686
14537TIP3    H143554   3.756   0.847   1.686
14537TIP3    H243555   3.838   0.940   1.599
14538TIP3   OH243556   7.610   6.417   2.547
14538TIP3    H143557   7.663   6.344   2.579
14538TIP3    H243558   7.583   6.463   2.626
14539TIP3   OH243559   2.518   2.224   3.540
14539TIP3    H143560   2.489   2.134   3.527
14539TIP3    H243561   2.437   2.274   3.547
14540TIP3   OH243562   4.318   4.962   1.222
14540TIP3    H143563   4.326   5.007   1.137
14540TIP3    H243564   4.356   4.875   1.206
14541TIP3   OH243565   2.520   2.785   4.806
14541TIP3    H143566   2.534   2.771   4.900
14541TIP3    H243567   2.591   2.844   4.780
14542TIP3   OH243568   4.424   2.914   2.679
14542TIP3    H143569   4.422   3.008   2.694
14542TIP3    H243570   4.480   2.903   2.602
14543TIP3   OH243571   1.981   5.081   5.100
14543TIP3    H143572   2.045   5.145   5.070
14543TIP3    H243573   2.014   4.997   5.067
14544TIP3   OH243574   7.414   2.218   0.273
14544TIP3    H143575   7.325   2.214   0.238
14544TIP3    H243576   7.418   2.302   0.317
14545TIP3   OH243577   1.537   2.187   5.547
14545TIP3    H143578   1.586   2.113   5.510
14545TIP3    H243579   1.470   2.207   5.482
14546TIP3   OH243580   2.174   1.961   4.522
14546TIP3    H143581   2.114   2.004   4.583
14546TIP3    H243582   2.259   2.002   4.538
14547TIP3   OH243583   7.669   3.412   6.552
14547TIP3    H143584   7.661   3.320   6.526
14547TIP3    H243585   7.700   3.457   6.474
14548TIP3   OH243586   1.697   4.439   4.972
14548TIP3    H143587   1.687   4.348   5.001
14548TIP3    H243588   1.738   4.433   4.886
14549TIP3   OH243589   7.601   1.085   6.239
14549TIP3    H143590   7.639   1.142   6.172
14549TIP3    H243591   7.510   1.114   6.246
14550TIP3   OH243592   1.689   1.273   0.044
14550TIP3    H143593   1.685   1.241  -0.046
14550TIP3    H243594   1.599   1.300   0.064
14551TIP3   OH243595   7.658   5.582   5.459
14551TIP3    H143596   7.620   5.495   5.470
14551TIP3    H243597   7.583   5.642   5.465
14552TIP3   OH243598   1.025   5.274   1.112
14552TIP3    H143599   1.104   5.221   1.102
14552TIP3    H243600   0.977   5.262   1.030
14553TIP3   OH243601   7.880   4.307   0.251
14553TIP3    H143602   7.922   4.387   0.220
14553TIP3    H243603   7.947   4.262   0.302
14554TIP3   OH243604   0.586   4.491   0.420
14554TIP3    H143605   0.558   4.516   0.331
14554TIP3    H243606   0.624   4.404   0.410
14555TIP3   OH243607   1.966   6.053   3.314
14555TIP3    H143608   2.038   6.076   3.373
14555TIP3    H243609   1.887   6.065   3.367
14556TIP3   OH243610   6.972   0.473   5.350
14556TIP3    H143611   6.943   0.413   5.282
14556TIP3    H243612   7.003   0.416   5.421
14557TIP3   OH243613   0.089   4.361   0.882
14557TIP3    H143614   0.085   4.278   0.929
14557TIP3    H243615   0.112   4.337   0.792
14558TIP3   OH243616   1.592   6.312   4.033
14558TIP3    H143617   1.572   6.348   4.119
14558TIP3    H243618   1.664   6.251   4.048
14559TIP3   OH243619   4.987   3.129   1.819
14559TIP3    H143620   5.055   3.078   1.863
14559TIP3    H243621   4.915   3.067   1.807
14560TIP3   OH243622   1.500   0.898   1.477
14560TIP3    H143623   1.579   0.851   1.452
14560TIP3    H243624   1.502   0.979   1.426
14561TIP3   OH243625   3.747   3.169   2.890
14561TIP3    H143626   3.817   3.234   2.884
14561TIP3    H243627   3.716   3.176   2.981
14562TIP3   OH243628   1.297   6.750   0.830
14562TIP3    H143629   1.375   6.706   0.796
14562TIP3    H243630   1.295   6.726   0.923
14563TIP3   OH243631   2.443   2.704   4.042
14563TIP3    H143632   2.383   2.655   4.097
14563TIP3    H243633   2.406   2.792   4.038
14564TIP3   OH243634   0.970   6.605   1.557
14564TIP3    H143635   1.025   6.574   1.485
14564TIP3    H243636   0.884   6.566   1.541
14565TIP3   OH243637   4.050   1.039   0.154
14565TIP3    H143638   4.013   1.091   0.083
14565TIP3    H243639   4.136   1.078   0.170
14566TIP3   OH243640   8.256   6.204   2.071
14566TIP3    H143641   8.300   6.128   2.109
14566TIP3    H243642   8.320   6.274   2.076
14567TIP3   OH243643   6.908   2.781   5.277
14567TIP3    H143644   6.889   2.862   5.326
14567TIP3    H243645   6.839   2.776   5.211
14568TIP3   OH243646   4.976   4.196   4.600
14568TIP3    H143647   4.979   4.201   4.695
14568TIP3    H243648   5.017   4.277   4.570
14569TIP3   OH243649   0.250   2.695   6.621
14569TIP3    H143650   0.334   2.740   6.632
14569TIP3    H243651   0.199   2.754   6.565
14570TIP3   OH243652   3.826   4.632   0.681
14570TIP3    H143653   3.749   4.604   0.631
14570TIP3    H243654   3.798   4.713   0.724
14571TIP3   OH243655   0.962   3.118   3.455
14571TIP3    H143656   0.929   3.029   3.443
14571TIP3    H243657   0.933   3.165   3.377
14572TIP3   OH243658   5.269   2.580   5.140
14572TIP3    H143659   5.262   2.645   5.071
14572TIP3    H243660   5.185   2.533   5.138
14573TIP3   OH243661   6.065   7.677   3.015
14573TIP3    H143662   6.073   7.737   3.089
14573TIP3    H243663   6.001   7.719   2.957
14574TIP3   OH243664   8.053   4.825   3.247
14574TIP3    H143665   8.103   4.743   3.243
14574TIP3    H243666   8.111   4.887   3.291
14575TIP3   OH243667   2.878   2.354   0.566
14575TIP3    H143668   2.959   2.369   0.614
14575TIP3    H243669   2.893   2.396   0.481
14576TIP3   OH243670   4.364   5.471   0.675
14576TIP3    H143671   4.352   5.540   0.610
14576TIP3    H243672   4.373   5.518   0.758
14577TIP3   OH243673   2.722   6.617   1.907
14577TIP3    H143674   2.669   6.678   1.959
14577TIP3    H243675   2.695   6.531   1.939
14578TIP3   OH243676   5.890   3.010   1.174
14578TIP3    H143677   5.815   2.984   1.227
14578TIP3    H243678   5.863   3.092   1.132
14579TIP3   OH243679   4.002   5.849   4.960
14579TIP3    H143680   3.965   5.825   5.044
14579TIP3    H243681   3.979   5.941   4.948
14580TIP3   OH243682   6.334   7.613   0.262
14580TIP3    H143683   6.371   7.682   0.317
14580TIP3    H243684   6.357   7.638   0.172
14581TIP3   OH243685   5.217   2.433   0.809
14581TIP3    H143686   5.146   2.438   0.745
14581TIP3    H243687   5.245   2.342   0.808
14582TIP3   OH243688   6.936   7.715   6.552
14582TIP3    H143689   7.017   7.757   6.525
14582TIP3    H243690   6.948   7.623   6.530
14583TIP3   OH243691   5.494   0.479   1.340
14583TIP3    H143692   5.455   0.472   1.427
14583TIP3    H243693   5.420   0.470   1.280
14584TIP3   OH243694   3.064   0.974   2.529
14584TIP3    H143695   3.109   1.008   2.607
14584TIP3    H243696   3.129   0.919   2.486
14585TIP3   OH243697   2.444   2.896   1.840
14585TIP3    H143698   2.377   2.881   1.907
14585TIP3    H243699   2.480   2.982   1.860
14586TIP3   OH243700   3.900   7.688   5.841
14586TIP3    H143701   3.828   7.734   5.798
14586TIP3    H243702   3.860   7.649   5.919
14587TIP3   OH243703   7.446   1.120   4.497
14587TIP3    H143704   7.457   1.031   4.466
14587TIP3    H243705   7.490   1.122   4.582
14588TIP3   OH243706   7.447   5.873   5.687
14588TIP3    H143707   7.420   5.783   5.706
14588TIP3    H243708   7.525   5.886   5.741
14589TIP3   OH243709   1.204   5.930   4.194
14589TIP3    H143710   1.291   5.916   4.155
14589TIP3    H243711   1.147   5.950   4.120
14590TIP3   OH243712   1.037   4.530   6.775
14590TIP3    H143713   1.025   4.620   6.744
14590TIP3    H243714   1.125   4.530   6.813
14591TIP3   OH243715   2.200   4.062   2.554
14591TIP3    H143716   2.274   4.050   2.495
14591TIP3    H243717   2.172   4.153   2.540
14592TIP3   OH243718   2.182   1.192   1.037
14592TIP3    H143719   2.093   1.157   1.024
14592TIP3    H243720   2.237   1.139   0.980
14593TIP3   OH243721   2.867   2.661   0.242
14593TIP3    H143722   2.800   2.666   0.310
14593TIP3    H243723   2.827   2.702   0.166
14594TIP3   OH243724   4.864   4.838   1.753
14594TIP3    H143725   4.839   4.852   1.844
14594TIP3    H243726   4.809   4.899   1.703
14595TIP3   OH243727   4.370   6.286   1.019
14595TIP3    H143728   4.404   6.234   1.092
14595TIP3    H243729   4.280   6.306   1.044
14596TIP3   OH243730   3.291   3.883   1.789
14596TIP3    H143731   3.363   3.859   1.731
14596TIP3    H243732   3.310   3.837   1.871
14597TIP3   OH243733   4.799   0.730   3.410
14597TIP3    H143734   4.851   0.702   3.486
14597TIP3    H243735   4.758   0.812   3.439
14598TIP3   OH243736   0.862   0.679   2.006
14598TIP3    H143737   0.830   0.660   1.917
14598TIP3    H243738   0.795   0.738   2.043
14599TIP3   OH243739   7.904   1.851   5.185
14599TIP3    H143740   7.848   1.914   5.138
14599TIP3    H243741   7.960   1.814   5.116
14600TIP3   OH243742   4.072   1.533   6.304
14600TIP3    H143743   4.083   1.444   6.270
14600TIP3    H243744   4.117   1.533   6.388
14601TIP3   OH243745   6.479   7.668   4.796
14601TIP3    H143746   6.512   7.621   4.719
14601TIP3    H243747   6.521   7.625   4.870
14602TIP3   OH243748   2.258   6.840   5.263
14602TIP3    H143749   2.270   6.746   5.277
14602TIP3    H243750   2.165   6.854   5.277
14603TIP3   OH243751   7.124   6.658   3.842
14603TIP3    H143752   7.214   6.683   3.822
14603TIP3    H243753   7.125   6.637   3.936
14604TIP3   OH243754   7.826   3.450   6.027
14604TIP3    H143755   7.894   3.388   6.054
14604TIP3    H243756   7.751   3.394   6.004
14605TIP3   OH243757   7.357   4.738   6.514
14605TIP3    H143758   7.325   4.650   6.533
14605TIP3    H243759   7.391   4.732   6.425
14606TIP3   OH243760   3.337   3.733   5.271
14606TIP3    H143761   3.307   3.684   5.194
14606TIP3    H243762   3.304   3.683   5.345
14607TIP3   OH243763   1.594   6.982   6.404
14607TIP3    H143764   1.599   7.078   6.412
14607TIP3    H243765   1.500   6.963   6.407
14608TIP3   OH243766   4.019   4.635   6.317
14608TIP3    H143767   4.020   4.678   6.403
14608TIP3    H243768   4.111   4.614   6.300
14609TIP3   OH243769   3.314   2.029   0.008
14609TIP3    H143770   3.379   2.011  -0.061
14609TIP3    H243771   3.274   1.944   0.026
14610TIP3   OH243772   4.931   4.011   2.288
14610TIP3    H143773   4.974   3.938   2.332
14610TIP3    H243774   4.915   4.075   2.358
14611TIP3   OH243775   4.521   6.686   4.041
14611TIP3    H143776   4.604   6.732   4.055
14611TIP3    H243777   4.545   6.594   4.032
14612TIP3   OH243778   2.803   1.899   6.373
14612TIP3    H143779   2.772   1.816   6.337
14612TIP3    H243780   2.819   1.954   6.297
14613TIP3   OH243781   2.410   7.286   3.015
14613TIP3    H143782   2.336   7.225   3.015
14613TIP3    H243783   2.441   7.285   3.106
14614TIP3   OH243784   7.296   4.500   2.343
14614TIP3    H143785   7.323   4.574   2.288
14614TIP3    H243786   7.203   4.515   2.359
14615TIP3   OH243787   0.991   2.779   4.503
14615TIP3    H143788   1.044   2.856   4.483
14615TIP3    H243789   1.039   2.706   4.463
14616TIP3   OH243790   2.825   1.666   6.165
14616TIP3    H143791   2.814   1.695   6.075
14616TIP3    H243792   2.739   1.634   6.191
14617TIP3   OH243793   3.989   7.565   1.185
14617TIP3    H143794   3.959   7.494   1.242
14617TIP3    H243795   3.944   7.549   1.102
14618TIP3   OH243796   6.544   7.306   1.483
14618TIP3    H143797   6.556   7.260   1.566
14618TIP3    H243798   6.569   7.242   1.416
14619TIP3   OH243799   5.941  -0.012   0.893
14619TIP3    H143800   6.033   0.013   0.900
14619TIP3    H243801   5.895   0.069   0.871
14620TIP3   OH243802   0.938   1.573   1.017
14620TIP3    H143803   0.926   1.487   1.057
14620TIP3    H243804   0.974   1.555   0.931
14621TIP3   OH243805   1.819   1.442   3.997
14621TIP3    H143806   1.756   1.384   3.956
14621TIP3    H243807   1.790   1.530   3.973
14622TIP3   OH243808   6.965   3.893   3.418
14622TIP3    H143809   7.048   3.899   3.371
14622TIP3    H243810   6.939   3.984   3.434
14623TIP3   OH243811   7.396   4.906   3.230
14623TIP3    H143812   7.317   4.922   3.281
14623TIP3    H243813   7.366   4.907   3.139
14624TIP3   OH243814   0.771   1.810   1.313
14624TIP3    H143815   0.724   1.837   1.234
14624TIP3    H243816   0.844   1.757   1.280
14625TIP3   OH243817   0.080   6.449   2.089
14625TIP3    H143818  -0.001   6.421   2.047
14625TIP3    H243819   0.065   6.435   2.182
14626TIP3   OH243820   0.766   0.217   5.314
14626TIP3    H143821   0.802   0.221   5.403
14626TIP3    H243822   0.717   0.299   5.304
14627TIP3   OH243823   7.340   4.637   3.968
14627TIP3    H143824   7.293   4.558   3.996
14627TIP3    H243825   7.376   4.614   3.882
14628TIP3   OH243826   1.499   4.008   2.559
14628TIP3    H143827   1.523   4.068   2.488
14628TIP3    H243828   1.452   3.937   2.516
14629TIP3   OH243829   7.298   1.612   1.325
14629TIP3    H143830   7.357   1.581   1.255
14629TIP3    H243831   7.354   1.666   1.381
14630TIP3   OH243832   0.129   7.562   0.693
14630TIP3    H143833   0.036   7.555   0.714
14630TIP3    H243834   0.135   7.543   0.600
14631TIP3   OH243835   5.916   5.035   0.511
14631TIP3    H143836   5.916   4.946   0.475
14631TIP3    H243837   5.969   5.086   0.450
14632TIP3   OH243838   0.793   0.633   0.859
14632TIP3    H143839   0.833   0.702   0.806
14632TIP3    H243840   0.751   0.681   0.932
14633TIP3   OH243841   4.636   0.756   2.124
14633TIP3    H143842   4.584   0.816   2.176
14633TIP3    H243843   4.681   0.701   2.188
14634TIP3   OH243844   2.535   4.448   1.856
14634TIP3    H143845   2.565   4.514   1.793
14634TIP3    H243846   2.543   4.492   1.941
14635TIP3   OH243847   3.195   2.354   4.069
14635TIP3    H143848   3.269   2.297   4.089
14635TIP3    H243849   3.171   2.331   3.979
14636TIP3   OH243850   7.424   2.726   5.446
14636TIP3    H143851   7.477   2.649   5.426
14636TIP3    H243852   7.408   2.721   5.540
14637TIP3   OH243853   8.258   1.433   2.924
14637TIP3    H143854   8.192   1.469   2.865
14637TIP3    H243855   8.284   1.350   2.884
14638TIP3   OH243856   4.579   5.386   3.015
14638TIP3    H143857   4.536   5.359   3.096
14638TIP3    H243858   4.521   5.453   2.979
14639TIP3   OH243859   7.326   7.261   3.942
14639TIP3    H143860   7.334   7.183   3.998
14639TIP3    H243861   7.328   7.226   3.853
14640TIP3   OH243862   8.038   4.924   4.523
14640TIP3    H143863   8.024   5.015   4.495
14640TIP3    H243864   8.030   4.927   4.618
14641TIP3   OH243865   1.463   1.148   1.987
14641TIP3    H143866   1.456   1.243   1.991
14641TIP3    H243867   1.417   1.117   2.065
14642TIP3   OH243868   2.688   2.147   5.220
14642TIP3    H143869   2.624   2.077   5.239
14642TIP3    H243870   2.762   2.102   5.180
14643TIP3   OH243871   2.706   0.922   2.311
14643TIP3    H143872   2.691   0.913   2.405
14643TIP3    H243873   2.792   0.882   2.296
14644TIP3   OH243874   2.395   0.930   2.429
14644TIP3    H143875   2.362   1.013   2.393
14644TIP3    H243876   2.404   0.947   2.522
14645TIP3   OH243877   5.696   3.935   0.113
14645TIP3    H143878   5.636   3.875   0.069
14645TIP3    H243879   5.639   4.001   0.154
14646TIP3   OH243880   5.610   0.424   3.814
14646TIP3    H143881   5.618   0.439   3.719
14646TIP3    H243882   5.649   0.338   3.828
14647TIP3   OH243883   2.140   1.180   1.631
14647TIP3    H143884   2.132   1.155   1.723
14647TIP3    H243885   2.190   1.262   1.633
14648TIP3   OH243886   6.779   3.011   0.569
14648TIP3    H143887   6.856   3.037   0.518
14648TIP3    H243888   6.705   3.050   0.523
14649TIP3   OH243889   2.893   7.485   4.022
14649TIP3    H143890   2.940   7.403   4.006
14649TIP3    H243891   2.893   7.530   3.938
14650TIP3   OH243892   5.315   7.442   1.076
14650TIP3    H143893   5.297   7.357   1.116
14650TIP3    H243894   5.303   7.428   0.982
14651TIP3   OH243895   1.014   3.766   1.868
14651TIP3    H143896   0.994   3.683   1.911
14651TIP3    H243897   0.929   3.805   1.850
14652TIP3   OH243898   6.541   5.497   2.124
14652TIP3    H143899   6.615   5.439   2.106
14652TIP3    H243900   6.565   5.543   2.204
14653TIP3   OH243901   3.649   5.830   4.762
14653TIP3    H143902   3.581   5.788   4.815
14653TIP3    H243903   3.625   5.923   4.761
14654TIP3   OH243904   7.112   4.406   3.562
14654TIP3    H143905   7.135   4.499   3.560
14654TIP3    H243906   7.044   4.396   3.496
14655TIP3   OH243907   4.254   6.769   1.997
14655TIP3    H143908   4.228   6.677   1.996
14655TIP3    H243909   4.247   6.797   1.906
14656TIP3   OH243910   2.718   0.754   2.833
14656TIP3    H143911   2.804   0.759   2.876
14656TIP3    H243912   2.658   0.792   2.898
14657TIP3   OH243913   7.330   0.578   5.243
14657TIP3    H143914   7.305   0.616   5.328
14657TIP3    H243915   7.249   0.578   5.192
14658TIP3   OH243916   5.782   4.976   5.339
14658TIP3    H143917   5.842   5.030   5.391
14658TIP3    H243918   5.701   4.975   5.390
14659TIP3   OH243919   0.412   4.016   2.543
14659TIP3    H143920   0.367   3.932   2.552
14659TIP3    H243921   0.482   4.000   2.480
14660TIP3   OH243922   3.399   0.245   6.132
14660TIP3    H143923   3.338   0.319   6.144
14660TIP3    H243924   3.476   0.284   6.091
14661TIP3   OH243925   3.948   4.453   0.896
14661TIP3    H143926   3.936   4.521   0.830
14661TIP3    H243927   3.864   4.448   0.941
14662TIP3   OH243928   5.097   3.693   3.578
14662TIP3    H143929   5.178   3.716   3.623
14662TIP3    H243930   5.052   3.776   3.566
14663TIP3   OH243931   4.590   4.661   5.296
14663TIP3    H143932   4.653   4.602   5.255
14663TIP3    H243933   4.637   4.744   5.305
14664TIP3   OH243934   5.126   5.107   4.123
14664TIP3    H143935   5.220   5.089   4.113
14664TIP3    H243936   5.091   5.100   4.034
14665TIP3   OH243937   0.753   0.451   4.134
14665TIP3    H143938   0.765   0.494   4.049
14665TIP3    H243939   0.768   0.520   4.198
14666TIP3   OH243940   3.805   4.402   2.726
14666TIP3    H143941   3.797   4.459   2.649
14666TIP3    H243942   3.877   4.440   2.776
14667TIP3   OH243943   5.604   2.226   4.655
14667TIP3    H143944   5.531   2.170   4.680
14667TIP3    H243945   5.613   2.213   4.561
14668TIP3   OH243946   4.999   5.799   2.706
14668TIP3    H143947   5.051   5.790   2.786
14668TIP3    H243948   5.048   5.861   2.652
14669TIP3   OH243949   0.559   6.794   6.339
14669TIP3    H143950   0.499   6.727   6.373
14669TIP3    H243951   0.558   6.863   6.405
14670TIP3   OH243952   5.620   0.496   1.111
14670TIP3    H143953   5.572   0.503   1.193
14670TIP3    H243954   5.595   0.574   1.062
14671TIP3   OH243955   0.565   2.658   1.702
14671TIP3    H143956   0.564   2.589   1.636
14671TIP3    H243957   0.642   2.637   1.756
14672TIP3   OH243958   7.367   7.452   1.291
14672TIP3    H143959   7.311   7.468   1.214
14672TIP3    H243960   7.436   7.394   1.258
14673TIP3   OH243961   0.790   7.380   6.497
14673TIP3    H143962   0.721   7.393   6.432
14673TIP3    H243963   0.745   7.385   6.581
14674TIP3   OH243964   4.060   3.454   3.995
14674TIP3    H143965   3.990   3.437   4.058
14674TIP3    H243966   4.025   3.423   3.912
14675TIP3   OH243967   7.350   3.658   2.054
14675TIP3    H143968   7.310   3.620   1.976
14675TIP3    H243969   7.402   3.587   2.092
14676TIP3   OH243970   5.110   7.123   3.241
14676TIP3    H143971   5.025   7.167   3.252
14676TIP3    H243972   5.087   7.031   3.227
14677TIP3   OH243973   8.074   6.681   3.074
14677TIP3    H143974   8.110   6.725   3.151
14677TIP3    H243975   8.059   6.751   3.011
14678TIP3   OH243976   3.808   6.315   2.815
14678TIP3    H143977   3.802   6.245   2.881
14678TIP3    H243978   3.902   6.324   2.798
14679TIP3   OH243979   0.962   1.767   4.421
14679TIP3    H143980   0.956   1.852   4.379
14679TIP3    H243981   0.894   1.769   4.489
14680TIP3   OH243982   2.196   6.281   2.397
14680TIP3    H143983   2.225   6.199   2.438
14680TIP3    H243984   2.104   6.289   2.423
14681TIP3   OH243985   1.858   3.117   2.210
14681TIP3    H143986   1.825   3.125   2.121
14681TIP3    H243987   1.851   3.023   2.230
14682TIP3   OH243988   1.827   3.978   0.681
14682TIP3    H143989   1.736   3.948   0.683
14682TIP3    H243990   1.869   3.931   0.754
14683TIP3   OH243991   1.765   3.320   5.570
14683TIP3    H143992   1.714   3.374   5.510
14683TIP3    H243993   1.856   3.345   5.552
14684TIP3   OH243994   6.063   0.928   5.673
14684TIP3    H143995   5.975   0.958   5.697
14684TIP3    H243996   6.116   1.008   5.674
14685TIP3   OH243997   5.485   1.539   2.034
14685TIP3    H143998   5.450   1.517   1.947
14685TIP3    H243999   5.413   1.582   2.079
14686TIP3   OH244000   0.231   5.665   3.896
14686TIP3    H144001   0.325   5.675   3.911
14686TIP3    H244002   0.203   5.750   3.865
14687TIP3   OH244003   2.159   5.558   5.350
14687TIP3    H144004   2.186   5.586   5.438
14687TIP3    H244005   2.196   5.625   5.292
14688TIP3   OH244006   1.176   3.593   2.594
14688TIP3    H144007   1.211   3.510   2.563
14688TIP3    H244008   1.099   3.609   2.539
14689TIP3   OH244009   4.914   7.713   3.495
14689TIP3    H144010   4.989   7.763   3.466
14689TIP3    H244011   4.911   7.637   3.437
14690TIP3   OH244012   3.413   6.863   5.907
14690TIP3    H144013   3.339   6.808   5.932
14690TIP3    H244014   3.385   6.907   5.827
14691TIP3   OH244015   8.035   3.045   5.070
14691TIP3    H144016   8.018   3.078   5.159
14691TIP3    H244017   8.053   3.123   5.018
14692TIP3   OH244018   3.959   7.519   2.005
14692TIP3    H144019   4.031   7.521   2.069
14692TIP3    H244020   3.968   7.434   1.963
14693TIP3   OH244021   4.437   4.743   5.664
14693TIP3    H144022   4.409   4.671   5.721
14693TIP3    H244023   4.403   4.719   5.578
14694TIP3   OH244024   2.140   1.127   2.255
14694TIP3    H144025   2.204   1.115   2.184
14694TIP3    H244026   2.055   1.115   2.212
14695TIP3   OH244027   4.427   0.866   0.503
14695TIP3    H144028   4.520   0.857   0.522
14695TIP3    H244029   4.423   0.924   0.427
14696TIP3   OH244030   0.937   5.505   3.818
14696TIP3    H144031   0.989   5.546   3.887
14696TIP3    H244032   0.917   5.417   3.851
14697TIP3   OH244033   5.997   1.971   5.663
14697TIP3    H144034   6.002   2.043   5.727
14697TIP3    H244035   5.992   1.892   5.717
14698TIP3   OH244036   6.999   5.085   2.575
14698TIP3    H144037   6.994   5.152   2.508
14698TIP3    H244038   7.047   5.013   2.534
14699TIP3   OH244039   1.069   5.743   2.327
14699TIP3    H144040   1.093   5.715   2.238
14699TIP3    H244041   1.068   5.662   2.378
14700TIP3   OH244042   7.176   3.687   5.175
14700TIP3    H144043   7.228   3.767   5.185
14700TIP3    H244044   7.085   3.717   5.182
14701TIP3   OH244045   7.655   3.986   3.669
14701TIP3    H144046   7.747   4.003   3.651
14701TIP3    H244047   7.609   4.058   3.625
14702TIP3   OH244048   0.959   4.312   5.432
14702TIP3    H144049   0.999   4.225   5.430
14702TIP3    H244050   0.880   4.303   5.378
14703TIP3   OH244051   7.944   4.025   5.617
14703TIP3    H144052   7.962   3.950   5.674
14703TIP3    H244053   7.910   3.986   5.537
14704TIP3   OH244054   1.093   4.898   4.470
14704TIP3    H144055   1.185   4.889   4.496
14704TIP3    H244056   1.065   4.810   4.448
14705TIP3   OH244057   7.537   7.264   1.133
14705TIP3    H144058   7.632   7.254   1.132
14705TIP3    H244059   7.520   7.339   1.076
14706TIP3   OH244060   8.180   6.916   5.344
14706TIP3    H144061   8.147   6.851   5.282
14706TIP3    H244062   8.273   6.925   5.322
14707TIP3   OH244063   6.933   3.204   3.664
14707TIP3    H144064   7.015   3.227   3.709
14707TIP3    H244065   6.905   3.122   3.705
14708TIP3   OH244066   0.253   4.598   5.573
14708TIP3    H144067   0.224   4.517   5.616
14708TIP3    H244068   0.320   4.568   5.511
14709TIP3   OH244069   5.316   7.544   1.913
14709TIP3    H144070   5.293   7.603   1.985
14709TIP3    H244071   5.398   7.580   1.878
14710TIP3   OH244072   6.333   6.740   4.261
14710TIP3    H144073   6.385   6.817   4.283
14710TIP3    H244074   6.245   6.760   4.295
14711TIP3   OH244075   4.671   3.239   5.784
14711TIP3    H144076   4.685   3.289   5.704
14711TIP3    H244077   4.708   3.153   5.766
14712TIP3   OH244078   1.525   4.686   0.783
14712TIP3    H144079   1.456   4.743   0.749
14712TIP3    H244080   1.594   4.689   0.716
14713TIP3   OH244081   6.918   3.750   6.071
14713TIP3    H144082   6.853   3.819   6.060
14713TIP3    H244083   6.971   3.778   6.145
14714TIP3   OH244084   8.171   3.927   0.903
14714TIP3    H144085   8.152   3.835   0.923
14714TIP3    H244086   8.084   3.967   0.893
14715TIP3   OH244087   3.602   3.289   2.700
14715TIP3    H144088   3.634   3.275   2.611
14715TIP3    H244089   3.659   3.234   2.755
14716TIP3   OH244090   2.931   6.081   4.117
14716TIP3    H144091   2.909   6.068   4.209
14716TIP3    H244092   3.015   6.128   4.119
14717TIP3   OH244093   2.604   6.414   5.938
14717TIP3    H144094   2.667   6.412   5.866
14717TIP3    H244095   2.657   6.399   6.017
14718TIP3   OH244096   2.429   7.519   1.259
14718TIP3    H144097   2.465   7.431   1.242
14718TIP3    H244098   2.478   7.576   1.200
14719TIP3   OH244099   6.429   2.827   3.973
14719TIP3    H144100   6.403   2.786   3.891
14719TIP3    H244101   6.428   2.921   3.954
14720TIP3   OH244102   1.921   4.974   1.480
14720TIP3    H144103   1.924   4.879   1.484
14720TIP3    H244104   1.992   5.003   1.537
14721TIP3   OH244105   7.483   6.300   2.320
14721TIP3    H144106   7.513   6.325   2.407
14721TIP3    H244107   7.563   6.298   2.267
14722TIP3   OH244108   7.718   3.073   1.345
14722TIP3    H144109   7.668   3.016   1.403
14722TIP3    H244110   7.673   3.158   1.351
14723TIP3   OH244111   5.646   5.144   1.301
14723TIP3    H144112   5.721   5.098   1.264
14723TIP3    H244113   5.634   5.105   1.388
14724TIP3   OH244114   1.041   4.394   2.959
14724TIP3    H144115   1.064   4.331   2.891
14724TIP3    H244116   0.977   4.349   3.013
14725TIP3   OH244117   5.278   4.546   0.965
14725TIP3    H144118   5.315   4.504   0.887
14725TIP3    H244119   5.233   4.624   0.931
14726TIP3   OH244120   4.414   7.002   5.124
14726TIP3    H144121   4.321   6.995   5.145
14726TIP3    H244122   4.423   7.087   5.083
14727TIP3   OH244123   7.506   5.875   6.349
14727TIP3    H144124   7.596   5.855   6.375
14727TIP3    H244125   7.486   5.957   6.395
14728TIP3   OH244126   2.556   0.444   5.137
14728TIP3    H144127   2.473   0.400   5.152
14728TIP3    H244128   2.594   0.400   5.061
14729TIP3   OH244129   1.976   2.504   4.429
14729TIP3    H144130   1.955   2.443   4.358
14729TIP3    H244131   2.052   2.465   4.472
14730TIP3   OH244132   5.288   6.196   5.198
14730TIP3    H144133   5.334   6.242   5.268
14730TIP3    H244134   5.231   6.263   5.159
14731TIP3   OH244135   7.846   3.807   1.375
14731TIP3    H144136   7.810   3.741   1.315
14731TIP3    H244137   7.776   3.871   1.385
14732TIP3   OH244138   0.149   0.650   2.519
14732TIP3    H144139   0.165   0.716   2.452
14732TIP3    H244140   0.235   0.611   2.535
14733TIP3   OH244141   4.523   1.474   0.531
14733TIP3    H144142   4.460   1.546   0.535
14733TIP3    H244143   4.481   1.402   0.580
14734TIP3   OH244144   0.893   4.541   0.919
14734TIP3    H144145   0.831   4.477   0.882
14734TIP3    H244146   0.932   4.582   0.842
14735TIP3   OH244147   6.430   5.516   0.382
14735TIP3    H144148   6.404   5.504   0.473
14735TIP3    H244149   6.513   5.468   0.373
14736TIP3   OH244150   1.846   5.273   5.318
14736TIP3    H144151   1.919   5.267   5.379
14736TIP3    H244152   1.859   5.201   5.257
14737TIP3   OH244153   2.388   1.535   1.484
14737TIP3    H144154   2.390   1.552   1.578
14737TIP3    H244155   2.441   1.456   1.473
14738TIP3   OH244156   7.846   2.985   0.703
14738TIP3    H144157   7.769   2.969   0.757
14738TIP3    H244158   7.828   3.069   0.660
14739TIP3   OH244159   2.351   6.589   6.696
14739TIP3    H144160   2.369   6.495   6.697
14739TIP3    H244161   2.279   6.598   6.633
14740TIP3   OH244162   5.654   2.746   3.283
14740TIP3    H144163   5.735   2.763   3.234
14740TIP3    H244164   5.645   2.821   3.342
14741TIP3   OH244165   0.547   1.277   1.277
14741TIP3    H144166   0.624   1.236   1.237
14741TIP3    H244167   0.484   1.285   1.205
14742TIP3   OH244168   4.116   1.817   1.642
14742TIP3    H144169   4.119   1.742   1.582
14742TIP3    H244170   4.057   1.879   1.601
14743TIP3   OH244171   0.732   4.804   2.636
14743TIP3    H144172   0.797   4.734   2.632
14743TIP3    H244173   0.676   4.789   2.560
14744TIP3   OH244174   0.139   7.553   4.972
14744TIP3    H144175   0.217   7.523   5.020
14744TIP3    H244176   0.093   7.610   5.034
14745TIP3   OH244177   0.330   0.085   0.545
14745TIP3    H144178   0.251   0.137   0.560
14745TIP3    H244179   0.312   0.036   0.465
14746TIP3   OH244180   7.762   3.918   5.424
14746TIP3    H144181   7.684   3.868   5.448
14746TIP3    H244182   7.737   3.963   5.343
14747TIP3   OH244183   7.941   0.296   0.983
14747TIP3    H144184   7.948   0.201   0.974
14747TIP3    H244185   8.029   0.328   0.963
14748TIP3   OH244186   1.147   7.457   4.455
14748TIP3    H144187   1.190   7.385   4.501
14748TIP3    H244188   1.155   7.531   4.515
14749TIP3   OH244189   1.432   2.091   0.164
14749TIP3    H144190   1.348   2.064   0.126
14749TIP3    H244191   1.481   2.128   0.091
14750TIP3   OH244192   3.620   2.308   1.177
14750TIP3    H144193   3.557   2.267   1.236
14750TIP3    H244194   3.669   2.369   1.231
14751TIP3   OH244195   6.373   2.630   0.212
14751TIP3    H144196   6.427   2.568   0.263
14751TIP3    H244197   6.318   2.574   0.157
14752TIP3   OH244198   7.664   5.546   1.125
14752TIP3    H144199   7.739   5.599   1.152
14752TIP3    H244200   7.598   5.611   1.098
14753TIP3   OH244201   7.328   0.151   1.284
14753TIP3    H144202   7.394   0.132   1.351
14753TIP3    H244203   7.371   0.132   1.201
14754TIP3   OH244204   2.799   3.222   3.547
14754TIP3    H144205   2.773   3.206   3.638
14754TIP3    H244206   2.763   3.147   3.499
14755TIP3   OH244207   3.921   4.320   2.362
14755TIP3    H144208   3.974   4.259   2.310
14755TIP3    H244209   3.840   4.331   2.312
14756TIP3   OH244210   6.352   3.169   0.252
14756TIP3    H144211   6.439   3.195   0.284
14756TIP3    H244212   6.366   3.082   0.214
14757TIP3   OH244213   3.559   5.588   5.498
14757TIP3    H144214   3.586   5.575   5.589
14757TIP3    H244215   3.620   5.535   5.447
14758TIP3   OH244216   4.759   5.630   1.379
14758TIP3    H144217   4.760   5.613   1.473
14758TIP3    H244218   4.711   5.556   1.341
14759TIP3   OH244219   0.153   1.277   5.747
14759TIP3    H144220   0.140   1.192   5.789
14759TIP3    H244221   0.216   1.322   5.803
14760TIP3   OH244222   7.777   2.254   1.352
14760TIP3    H144223   7.688   2.226   1.373
14760TIP3    H244224   7.765   2.326   1.290
14761TIP3   OH244225   5.567   1.621   3.685
14761TIP3    H144226   5.638   1.681   3.663
14761TIP3    H244227   5.534   1.591   3.600
14762TIP3   OH244228   0.817   1.554   5.912
14762TIP3    H144229   0.798   1.634   5.962
14762TIP3    H244230   0.907   1.566   5.881
14763TIP3   OH244231   4.485   2.703   5.947
14763TIP3    H144232   4.482   2.775   5.884
14763TIP3    H244233   4.569   2.660   5.929
14764TIP3   OH244234   2.795   2.427   4.749
14764TIP3    H144235   2.810   2.463   4.661
14764TIP3    H244236   2.867   2.364   4.761
14765TIP3   OH244237   0.474   7.693   3.946
14765TIP3    H144238   0.561   7.662   3.924
14765TIP3    H244239   0.481   7.724   4.036
14766TIP3   OH244240   3.070   7.664   1.771
14766TIP3    H144241   3.156   7.697   1.746
14766TIP3    H244242   3.055   7.699   1.858
14767TIP3   OH244243   4.062   4.834   0.359
14767TIP3    H144244   4.155   4.813   0.354
14767TIP3    H244245   4.060   4.930   0.367
14768TIP3   OH244246   7.213   6.043   3.853
14768TIP3    H144247   7.158   5.986   3.799
14768TIP3    H244248   7.180   6.030   3.942
14769TIP3   OH244249   1.991   5.545   0.317
14769TIP3    H144250   2.004   5.450   0.309
14769TIP3    H244251   1.993   5.561   0.411
14770TIP3   OH244252   1.233   6.604   3.201
14770TIP3    H144253   1.289   6.637   3.131
14770TIP3    H244254   1.286   6.613   3.280
14771TIP3   OH244255   4.619   5.104   3.995
14771TIP3    H144256   4.641   5.190   3.959
14771TIP3    H244257   4.696   5.079   4.046
14772TIP3   OH244258   6.034   5.667   4.217
14772TIP3    H144259   6.094   5.739   4.198
14772TIP3    H244260   5.954   5.688   4.168
14773TIP3   OH244261   2.131   6.655   6.158
14773TIP3    H144262   2.159   6.746   6.163
14773TIP3    H244263   2.173   6.621   6.079
14774TIP3   OH244264   3.689   7.169   0.892
14774TIP3    H144265   3.724   7.233   0.830
14774TIP3    H244266   3.692   7.086   0.845
14775TIP3   OH244267   4.373   3.978   2.545
14775TIP3    H144268   4.453   3.960   2.496
14775TIP3    H244269   4.399   3.978   2.637
14776TIP3   OH244270   2.663   1.772   6.574
14776TIP3    H144271   2.709   1.689   6.559
14776TIP3    H244272   2.693   1.829   6.503
14777TIP3   OH244273   4.712   1.612   0.880
14777TIP3    H144274   4.796   1.576   0.907
14777TIP3    H244275   4.683   1.557   0.808
14778TIP3   OH244276   0.540   6.174   5.417
14778TIP3    H144277   0.526   6.268   5.431
14778TIP3    H244278   0.572   6.167   5.327
14779TIP3   OH244279   6.944   1.369   0.952
14779TIP3    H144280   6.876   1.316   0.910
14779TIP3    H244281   6.897   1.445   0.985
14780TIP3   OH244282   6.885  -0.025   5.770
14780TIP3    H144283   6.807  -0.071   5.801
14780TIP3    H244284   6.852   0.046   5.716
14781TIP3   OH244285   5.351   5.972   5.056
14781TIP3    H144286   5.325   6.047   5.109
14781TIP3    H244287   5.398   5.915   5.116
14782TIP3   OH244288   7.168   6.429   3.217
14782TIP3    H144289   7.235   6.362   3.204
14782TIP3    H244290   7.187   6.464   3.304
14783TIP3   OH244291   6.141   2.953   3.508
14783TIP3    H144292   6.140   3.048   3.493
14783TIP3    H244293   6.214   2.922   3.454
14784TIP3   OH244294   6.726   5.869   5.436
14784TIP3    H144295   6.783   5.802   5.473
14784TIP3    H244296   6.784   5.923   5.382
14785TIP3   OH244297   1.210   3.497   5.828
14785TIP3    H144298   1.157   3.456   5.759
14785TIP3    H244299   1.163   3.577   5.849
14786TIP3   OH244300   1.698   0.624   0.375
14786TIP3    H144301   1.638   0.684   0.419
14786TIP3    H244302   1.747   0.679   0.314
14787TIP3   OH244303   4.815   5.914   3.597
14787TIP3    H144304   4.798   5.946   3.508
14787TIP3    H244305   4.883   5.971   3.631
14788TIP3   OH244306   2.454   1.205   0.082
14788TIP3    H144307   2.459   1.270   0.013
14788TIP3    H244308   2.454   1.121   0.036
14789TIP3   OH244309   3.738   4.429   2.178
14789TIP3    H144310   3.727   4.344   2.135
14789TIP3    H244311   3.695   4.491   2.120
14790TIP3   OH244312   2.354   0.538   5.807
14790TIP3    H144313   2.373   0.631   5.820
14790TIP3    H244314   2.415   0.493   5.866
14791TIP3   OH244315   6.494   6.955   4.305
14791TIP3    H144316   6.554   6.940   4.232
14791TIP3    H244317   6.550   6.947   4.383
14792TIP3   OH244318   4.795   4.940   6.407
14792TIP3    H144319   4.772   5.033   6.419
14792TIP3    H244320   4.761   4.898   6.486
14793TIP3   OH244321   3.448   4.529   1.859
14793TIP3    H144322   3.445   4.606   1.915
14793TIP3    H244323   3.537   4.496   1.868
14794TIP3   OH244324   6.725   3.268   5.334
14794TIP3    H144325   6.664   3.235   5.268
14794TIP3    H244326   6.811   3.238   5.304
14795TIP3   OH244327   0.645   6.320   4.951
14795TIP3    H144328   0.576   6.357   4.896
14795TIP3    H244329   0.620   6.228   4.963
14796TIP3   OH244330   6.259   5.133   1.823
14796TIP3    H144331   6.172   5.108   1.855
14796TIP3    H244332   6.281   5.212   1.873
14797TIP3   OH244333   3.263   4.231   6.678
14797TIP3    H144334   3.249   4.137   6.686
14797TIP3    H244335   3.355   4.240   6.653
14798TIP3   OH244336   5.123   6.803   2.534
14798TIP3    H144337   5.209   6.778   2.500
14798TIP3    H244338   5.139   6.828   2.624
14799TIP3   OH244339   0.950   3.549   2.463
14799TIP3    H144340   0.869   3.502   2.485
14799TIP3    H244341   0.965   3.528   2.370
14800TIP3   OH244342   2.671   7.292   4.982
14800TIP3    H144343   2.762   7.308   4.960
14800TIP3    H244344   2.628   7.275   4.898
14801TIP3   OH244345   5.947   4.536   0.800
14801TIP3    H144346   5.866   4.484   0.804
14801TIP3    H244347   5.917   4.627   0.809
14802TIP3   OH244348   4.878   0.310   0.615
14802TIP3    H144349   4.818   0.376   0.649
14802TIP3    H244350   4.946   0.304   0.681
14803TIP3   OH244351   2.941   2.485   0.924
14803TIP3    H144352   2.943   2.404   0.974
14803TIP3    H244353   2.950   2.554   0.989
14804TIP3   OH244354   1.493   7.259   6.386
14804TIP3    H144355   1.524   7.276   6.475
14804TIP3    H244356   1.401   7.286   6.387
14805TIP3   OH244357   6.690   0.207   0.572
14805TIP3    H144358   6.758   0.274   0.584
14805TIP3    H244359   6.664   0.215   0.480
14806TIP3   OH244360   6.065   5.158   3.045
14806TIP3    H144361   6.063   5.244   3.086
14806TIP3    H244362   5.972   5.132   3.041
14807TIP3   OH244363   0.491   0.024   4.801
14807TIP3    H144364   0.574   0.029   4.753
14807TIP3    H244365   0.453  -0.060   4.776
14808TIP3   OH244366   7.730   4.062   0.295
14808TIP3    H144367   7.771   4.147   0.313
14808TIP3    H244368   7.758   4.041   0.206
14809TIP3   OH244369   5.065   6.731   5.065
14809TIP3    H144370   5.017   6.652   5.038
14809TIP3    H244371   5.138   6.697   5.116
14810TIP3   OH244372   4.948   4.270   0.380
14810TIP3    H144373   4.856   4.292   0.396
14810TIP3    H244374   4.989   4.352   0.355
14811TIP3   OH244375   5.559   4.022   2.334
14811TIP3    H144376   5.554   4.117   2.345
14811TIP3    H244377   5.652   4.002   2.344
14812TIP3   OH244378   0.381   3.989   0.771
14812TIP3    H144379   0.384   4.069   0.823
14812TIP3    H244380   0.288   3.976   0.751
14813TIP3   OH244381   4.978   1.761   0.615
14813TIP3    H144382   4.935   1.847   0.621
14813TIP3    H244383   4.996   1.737   0.706
14814TIP3   OH244384   6.557   6.999   5.862
14814TIP3    H144385   6.608   6.973   5.785
14814TIP3    H244386   6.496   7.065   5.830
14815TIP3   OH244387   5.195   0.949   1.446
14815TIP3    H144388   5.141   0.986   1.515
14815TIP3    H244389   5.284   0.979   1.466
   8.29379   7.81946   6.77185   0.00000   0.00000  -2.76460   0.00000  -2.76460  -3.90973
