Title t= 347.00000 step= 173500
19942
    1ASP      N    1   2.089   2.066   3.195
    1ASP    HT1    2   2.073   1.969   3.162
    1ASP    HT2    3   2.131   2.066   3.290
    1ASP    HT3    4   2.151   2.113   3.126
    1ASP     CA    5   1.963   2.143   3.188
    1ASP     HA    6   1.981   2.236   3.241
    1ASP     CB    7   1.922   2.176   3.042
    1ASP    HB1    8   1.825   2.231   3.045
    1ASP    HB2    9   1.915   2.083   2.983
    1ASP     CG   10   2.021   2.269   2.972
    1ASP    OD1   11   1.974   2.332   2.869
    1ASP    OD2   12   2.140   2.273   3.016
    1ASP      C   13   1.848   2.076   3.262
    1ASP      O   14   1.874   1.971   3.321
    2ALA      N   15   1.734   2.135   3.277
    2ALA     HN   16   1.723   2.228   3.241
    2ALA     CA   17   1.625   2.085   3.350
    2ALA     HA   18   1.664   2.006   3.412
    2ALA     CB   19   1.566   2.199   3.436
    2ALA    HB1   20   1.633   2.237   3.516
    2ALA    HB2   21   1.476   2.162   3.490
    2ALA    HB3   22   1.527   2.288   3.382
    2ALA      C   23   1.523   2.018   3.248
    2ALA      O   24   1.470   2.085   3.168
    3ASP      N   25   1.496   1.883   3.249
    3ASP     HN   26   1.530   1.820   3.318
    3ASP     CA   27   1.436   1.817   3.135
    3ASP     HA   28   1.499   1.839   3.051
    3ASP     CB   29   1.420   1.661   3.168
    3ASP    HB1   30   1.354   1.604   3.100
    3ASP    HB2   31   1.379   1.654   3.271
    3ASP     CG   32   1.553   1.584   3.154
    3ASP    OD1   33   1.657   1.640   3.116
    3ASP    OD2   34   1.544   1.467   3.190
    3ASP      C   35   1.297   1.876   3.097
    3ASP      O   36   1.222   1.922   3.182
    4GLY      N   37   1.264   1.884   2.965
    4GLY     HN   38   1.329   1.852   2.897
    4GLY     CA   39   1.131   1.939   2.920
    4GLY    HA1   40   1.135   1.943   2.812
    4GLY    HA2   41   1.123   2.032   2.975
    4GLY      C   42   1.010   1.855   2.957
    4GLY      O   43   1.032   1.737   2.989
    5PRO      N   44   0.889   1.902   2.941
    5PRO     CD   45   0.856   2.039   2.904
    5PRO    HD1   46   0.903   2.057   2.806
    5PRO    HD2   47   0.884   2.101   2.992
    5PRO     CA   48   0.766   1.828   2.976
    5PRO     HA   49   0.781   1.774   3.068
    5PRO     CB   50   0.653   1.927   2.982
    5PRO    HB1   51   0.637   1.964   3.086
    5PRO    HB2   52   0.552   1.889   2.957
    5PRO     CG   53   0.698   2.040   2.896
    5PRO    HG1   54   0.667   2.018   2.792
    5PRO    HG2   55   0.654   2.138   2.925
    5PRO      C   56   0.733   1.710   2.884
    5PRO      O   57   0.637   1.648   2.909
    6GLY      N   58   0.816   1.674   2.783
    6GLY     HN   59   0.886   1.737   2.752
    6GLY     CA   60   0.809   1.552   2.707
    6GLY    HA1   61   0.900   1.537   2.651
    6GLY    HA2   62   0.729   1.569   2.636
    6GLY      C   63   0.783   1.428   2.778
    6GLY      O   64   0.828   1.413   2.891
    7ASP      N   65   0.714   1.328   2.711
    7ASP     HN   66   0.668   1.349   2.625
    7ASP     CA   67   0.680   1.206   2.772
    7ASP     HA   68   0.646   1.233   2.871
    7ASP     CB   69   0.561   1.144   2.692
    7ASP    HB1   70   0.608   1.104   2.599
    7ASP    HB2   71   0.493   1.221   2.651
    7ASP     CG   72   0.488   1.052   2.774
    7ASP    OD1   73   0.387   1.003   2.717
    7ASP    OD2   74   0.518   1.015   2.888
    7ASP      C   75   0.794   1.102   2.790
    7ASP      O   76   0.849   1.062   2.687
    8PRO      N   77   0.834   1.058   2.904
    8PRO     CD   78   0.795   1.102   3.038
    8PRO    HD1   79   0.686   1.112   3.053
    8PRO    HD2   80   0.842   1.203   3.042
    8PRO     CA   81   0.938   0.956   2.901
    8PRO     HA   82   1.014   0.990   2.833
    8PRO     CB   83   0.984   0.954   3.047
    8PRO    HB1   84   1.080   1.009   3.047
    8PRO    HB2   85   1.013   0.849   3.073
    8PRO     CG   86   0.867   1.000   3.127
    8PRO    HG1   87   0.797   0.916   3.148
    8PRO    HG2   88   0.906   1.038   3.223
    8PRO      C   89   0.887   0.821   2.849
    8PRO      O   90   0.967   0.728   2.836
    9ASP      N   91   0.756   0.809   2.819
    9ASP     HN   92   0.691   0.881   2.842
    9ASP     CA   93   0.691   0.695   2.770
    9ASP     HA   94   0.745   0.608   2.806
    9ASP     CB   95   0.548   0.677   2.814
    9ASP    HB1   96   0.494   0.597   2.760
    9ASP    HB2   97   0.487   0.767   2.793
    9ASP     CG   98   0.543   0.652   2.965
    9ASP    OD1   99   0.430   0.644   3.013
    9ASP    OD2  100   0.640   0.611   3.028
    9ASP      C  101   0.695   0.676   2.618
    9ASP      O  102   0.631   0.581   2.576
   10ALA      N  103   0.757   0.772   2.545
   10ALA     HN  104   0.815   0.843   2.583
   10ALA     CA  105   0.725   0.785   2.403
   10ALA     HA  106   0.715   0.681   2.375
   10ALA     CB  107   0.593   0.865   2.384
   10ALA    HB1  108   0.609   0.964   2.431
   10ALA    HB2  109   0.513   0.808   2.437
   10ALA    HB3  110   0.556   0.857   2.279
   10ALA      C  111   0.833   0.853   2.328
   10ALA      O  112   0.922   0.907   2.389
   11GLY      N  113   0.829   0.846   2.196
   11GLY     HN  114   0.762   0.790   2.148
   11GLY     CA  115   0.919   0.922   2.115
   11GLY    HA1  116   1.014   0.925   2.167
   11GLY    HA2  117   0.869   1.015   2.095
   11GLY      C  118   0.927   0.845   1.989
   11GLY    OT1  119   1.031   0.774   1.964
   11GLY    OT2  120   0.831   0.854   1.907
   12LIT    LIT  121   5.179   0.206   0.345
   13LIT    LIT  122   1.623   3.242   2.546
   14LIT    LIT  123   4.995   3.085   2.384
   15LIT    LIT  124   5.869   1.665   2.888
   16LIT    LIT  125   5.077   5.060   3.903
   17LIT    LIT  126   3.961   4.291   5.125
   18LIT    LIT  127   2.323   0.722   4.980
   19LIT    LIT  128   5.410   5.324   1.806
   20LIT    LIT  129   4.284   1.354   3.216
   21LIT    LIT  130   3.120   0.099   0.387
   22LIT    LIT  131   5.942   3.706   0.680
   23LIT    LIT  132   3.332   3.709   2.601
   24LIT    LIT  133   4.212   4.089   2.301
   25LIT    LIT  134   5.294   3.337   5.173
   26LIT    LIT  135   2.801   0.537   1.948
   27LIT    LIT  136   0.926   1.497   3.364
   28LIT    LIT  137   1.643   1.288   4.054
   29LIT    LIT  138   2.380   4.065   0.082
   30LIT    LIT  139   2.267   3.520   3.347
   31LIT    LIT  140   3.837   1.781   4.500
   32LIT    LIT  141   0.937   0.265   1.343
   33LIT    LIT  142   0.071   1.791   0.816
   34CLA    CLA  143   2.701   3.713   3.411
   35CLA    CLA  144   1.922   1.732   4.847
   36CLA    CLA  145   5.239   1.475   2.359
   37CLA    CLA  146   4.855   4.411   1.399
   38CLA    CLA  147   4.519   2.976   4.827
   39CLA    CLA  148   4.682   4.842   3.473
   40CLA    CLA  149   5.762   4.318   1.146
   41CLA    CLA  150   0.042   3.842   0.283
   42CLA    CLA  151   5.631   3.280   1.294
   43CLA    CLA  152   5.366   0.696   4.301
   44CLA    CLA  153   0.832   0.832   4.557
   45CLA    CLA  154   4.054   3.018   4.888
   46CLA    CLA  155   2.129   0.694   4.863
   47CLA    CLA  156   5.829   5.950   1.488
   48CLA    CLA  157   2.845   5.131   2.967
   49CLA    CLA  158   5.098   4.955   0.203
   50CLA    CLA  159   2.322   1.517   0.862
   51CLA    CLA  160   1.905   4.721   1.918
   52TIP3   OH2  161   0.421   0.076   4.617
   52TIP3    H1  162   0.460  -0.010   4.601
   52TIP3    H2  163   0.479   0.117   4.681
   53TIP3   OH2  164   4.504   1.948   3.393
   53TIP3    H1  165   4.477   1.954   3.302
   53TIP3    H2  166   4.439   1.999   3.441
   54TIP3   OH2  167   6.186   5.347   3.918
   54TIP3    H1  168   6.186   5.293   3.839
   54TIP3    H2  169   6.215   5.433   3.888
   55TIP3   OH2  170   3.429   1.727   2.493
   55TIP3    H1  171   3.453   1.640   2.461
   55TIP3    H2  172   3.335   1.721   2.511
   56TIP3   OH2  173   1.275   0.324  -0.002
   56TIP3    H1  174   1.301   0.275   0.076
   56TIP3    H2  175   1.312   0.274  -0.075
   57TIP3   OH2  176   1.868   3.520   2.332
   57TIP3    H1  177   1.889   3.550   2.244
   57TIP3    H2  178   1.822   3.594   2.372
   58TIP3   OH2  179   0.408   5.826   1.044
   58TIP3    H1  180   0.502   5.811   1.050
   58TIP3    H2  181   0.371   5.773   1.115
   59TIP3   OH2  182   2.455   0.118   4.110
   59TIP3    H1  183   2.435   0.207   4.082
   59TIP3    H2  184   2.396   0.102   4.184
   60TIP3   OH2  185   2.475   5.422   2.426
   60TIP3    H1  186   2.455   5.458   2.512
   60TIP3    H2  187   2.495   5.500   2.373
   61TIP3   OH2  188   2.705   4.530   2.029
   61TIP3    H1  189   2.727   4.550   2.120
   61TIP3    H2  190   2.775   4.472   1.999
   62TIP3   OH2  191   0.919   2.231   4.564
   62TIP3    H1  192   0.999   2.185   4.538
   62TIP3    H2  193   0.949   2.317   4.594
   63TIP3   OH2  194   1.461   3.394   3.163
   63TIP3    H1  195   1.535   3.430   3.113
   63TIP3    H2  196   1.445   3.459   3.232
   64TIP3   OH2  197   0.695   2.468   1.118
   64TIP3    H1  198   0.645   2.495   1.195
   64TIP3    H2  199   0.728   2.381   1.141
   65TIP3   OH2  200   2.986   1.083   2.385
   65TIP3    H1  201   2.967   1.135   2.307
   65TIP3    H2  202   2.986   0.993   2.354
   66TIP3   OH2  203   4.537   4.730   3.244
   66TIP3    H1  204   4.605   4.721   3.177
   66TIP3    H2  205   4.578   4.783   3.312
   67TIP3   OH2  206   1.463   5.564   0.628
   67TIP3    H1  207   1.540   5.607   0.666
   67TIP3    H2  208   1.458   5.480   0.673
   68TIP3   OH2  209   6.088   5.120   3.758
   68TIP3    H1  210   6.065   5.030   3.735
   68TIP3    H2  211   6.015   5.150   3.812
   69TIP3   OH2  212   0.648   4.137   3.084
   69TIP3    H1  213   0.646   4.179   2.998
   69TIP3    H2  214   0.657   4.044   3.065
   70TIP3   OH2  215   6.221   1.842   0.793
   70TIP3    H1  216   6.153   1.775   0.806
   70TIP3    H2  217   6.173   1.924   0.783
   71TIP3   OH2  218   2.557   1.602   4.249
   71TIP3    H1  219   2.469   1.596   4.285
   71TIP3    H2  220   2.611   1.633   4.321
   72TIP3   OH2  221   4.826   3.865   2.649
   72TIP3    H1  222   4.914   3.903   2.648
   72TIP3    H2  223   4.790   3.891   2.734
   73TIP3   OH2  224   5.375   0.936   1.581
   73TIP3    H1  225   5.409   0.876   1.515
   73TIP3    H2  226   5.324   0.881   1.640
   74TIP3   OH2  227   0.496   5.642   2.778
   74TIP3    H1  228   0.490   5.709   2.847
   74TIP3    H2  229   0.579   5.598   2.796
   75TIP3   OH2  230   0.259   0.695   2.638
   75TIP3    H1  231   0.291   0.776   2.677
   75TIP3    H2  232   0.320   0.628   2.668
   76TIP3   OH2  233   5.736   4.914   3.908
   76TIP3    H1  234   5.688   4.833   3.926
   76TIP3    H2  235   5.773   4.940   3.993
   77TIP3   OH2  236   3.283   3.147   2.622
   77TIP3    H1  237   3.264   3.088   2.549
   77TIP3    H2  238   3.370   3.182   2.603
   78TIP3   OH2  239   0.454   4.894   0.684
   78TIP3    H1  240   0.361   4.873   0.674
   78TIP3    H2  241   0.487   4.902   0.595
   79TIP3   OH2  242   3.898   4.470   1.688
   79TIP3    H1  243   3.815   4.467   1.640
   79TIP3    H2  244   3.918   4.563   1.697
   80TIP3   OH2  245   2.465   2.701   4.218
   80TIP3    H1  246   2.543   2.697   4.162
   80TIP3    H2  247   2.474   2.626   4.277
   81TIP3   OH2  248   5.396   4.536   4.805
   81TIP3    H1  249   5.303   4.553   4.788
   81TIP3    H2  250   5.431   4.622   4.831
   82TIP3   OH2  251   6.303   0.673   0.275
   82TIP3    H1  252   6.348   0.754   0.253
   82TIP3    H2  253   6.367   0.604   0.260
   83TIP3   OH2  254   4.281   1.054   3.676
   83TIP3    H1  255   4.363   1.088   3.712
   83TIP3    H2  256   4.308   0.977   3.625
   84TIP3   OH2  257   2.680   3.924   0.187
   84TIP3    H1  258   2.744   3.895   0.123
   84TIP3    H2  259   2.713   4.008   0.218
   85TIP3   OH2  260   2.570   4.755   2.254
   85TIP3    H1  261   2.589   4.785   2.165
   85TIP3    H2  262   2.478   4.779   2.269
   86TIP3   OH2  263   5.434   3.193   1.583
   86TIP3    H1  264   5.366   3.247   1.623
   86TIP3    H2  265   5.419   3.202   1.489
   87TIP3   OH2  266   1.961   4.968   2.414
   87TIP3    H1  267   1.944   4.887   2.462
   87TIP3    H2  268   2.025   4.944   2.348
   88TIP3   OH2  269   3.499   1.072   3.575
   88TIP3    H1  270   3.407   1.087   3.599
   88TIP3    H2  271   3.544   1.068   3.659
   89TIP3   OH2  272   4.604   0.314   3.625
   89TIP3    H1  273   4.550   0.393   3.620
   89TIP3    H2  274   4.551   0.246   3.585
   90TIP3   OH2  275   4.765   2.475   0.219
   90TIP3    H1  276   4.669   2.466   0.221
   90TIP3    H2  277   4.779   2.567   0.199
   91TIP3   OH2  278   0.072   3.555   1.126
   91TIP3    H1  279   0.078   3.460   1.130
   91TIP3    H2  280   0.108   3.585   1.210
   92TIP3   OH2  281   3.060   5.136   1.167
   92TIP3    H1  282   2.993   5.074   1.197
   92TIP3    H2  283   3.095   5.175   1.247
   93TIP3   OH2  284   5.644   2.414   0.189
   93TIP3    H1  285   5.557   2.428   0.152
   93TIP3    H2  286   5.698   2.385   0.115
   94TIP3   OH2  287   4.733   4.477   5.265
   94TIP3    H1  288   4.825   4.503   5.254
   94TIP3    H2  289   4.684   4.542   5.215
   95TIP3   OH2  290   5.171   1.198   2.139
   95TIP3    H1  291   5.196   1.285   2.107
   95TIP3    H2  292   5.112   1.216   2.213
   96TIP3   OH2  293   1.569   0.839   0.368
   96TIP3    H1  294   1.620   0.869   0.292
   96TIP3    H2  295   1.546   0.748   0.346
   97TIP3   OH2  296   3.270   0.882   1.688
   97TIP3    H1  297   3.310   0.960   1.727
   97TIP3    H2  298   3.189   0.914   1.649
   98TIP3   OH2  299   4.972   2.369   0.077
   98TIP3    H1  300   4.894   2.400   0.122
   98TIP3    H2  301   5.044   2.416   0.119
   99TIP3   OH2  302   4.036   5.496   2.179
   99TIP3    H1  303   4.085   5.484   2.097
   99TIP3    H2  304   3.987   5.414   2.189
  100TIP3   OH2  305   3.234   2.973   3.119
  100TIP3    H1  306   3.267   2.886   3.143
  100TIP3    H2  307   3.267   2.987   3.030
  101TIP3   OH2  308   4.066   5.225   1.461
  101TIP3    H1  309   4.129   5.237   1.532
  101TIP3    H2  310   4.048   5.314   1.430
  102TIP3   OH2  311   4.936   1.670   4.865
  102TIP3    H1  312   4.890   1.602   4.815
  102TIP3    H2  313   4.982   1.622   4.933
  103TIP3   OH2  314   4.997   0.185   0.426
  103TIP3    H1  315   4.981   0.139   0.509
  103TIP3    H2  316   4.911   0.218   0.401
  104TIP3   OH2  317   3.221   0.572   2.804
  104TIP3    H1  318   3.160   0.514   2.849
  104TIP3    H2  319   3.260   0.518   2.735
  105TIP3   OH2  320   5.890   4.614   1.228
  105TIP3    H1  321   5.849   4.672   1.164
  105TIP3    H2  322   5.876   4.526   1.193
  106TIP3   OH2  323   0.940   3.220   3.976
  106TIP3    H1  324   0.858   3.206   3.928
  106TIP3    H2  325   1.002   3.248   3.909
  107TIP3   OH2  326   3.795   4.022   4.353
  107TIP3    H1  327   3.822   3.944   4.402
  107TIP3    H2  328   3.874   4.076   4.348
  108TIP3   OH2  329   4.856   5.202   4.804
  108TIP3    H1  330   4.809   5.286   4.805
  108TIP3    H2  331   4.934   5.218   4.751
  109TIP3   OH2  332   3.002   1.775   1.610
  109TIP3    H1  333   2.925   1.780   1.553
  109TIP3    H2  334   2.993   1.849   1.670
  110TIP3   OH2  335   0.289   0.753   3.907
  110TIP3    H1  336   0.222   0.698   3.866
  110TIP3    H2  337   0.371   0.724   3.866
  111TIP3   OH2  338   5.013   5.970   3.741
  111TIP3    H1  339   5.102   5.935   3.736
  111TIP3    H2  340   5.012   6.042   3.678
  112TIP3   OH2  341   0.451   4.045   2.834
  112TIP3    H1  342   0.527   3.989   2.849
  112TIP3    H2  343   0.488   4.132   2.819
  113TIP3   OH2  344   0.772   5.459   2.234
  113TIP3    H1  345   0.700   5.427   2.179
  113TIP3    H2  346   0.818   5.380   2.262
  114TIP3   OH2  347   1.739   1.430   2.331
  114TIP3    H1  348   1.710   1.339   2.324
  114TIP3    H2  349   1.658   1.481   2.325
  115TIP3   OH2  350   3.575   5.586   2.495
  115TIP3    H1  351   3.658   5.634   2.497
  115TIP3    H2  352   3.600   5.495   2.512
  116TIP3   OH2  353   5.708   1.910   4.823
  116TIP3    H1  354   5.680   1.998   4.799
  116TIP3    H2  355   5.695   1.906   4.918
  117TIP3   OH2  356   2.737   0.099   0.223
  117TIP3    H1  357   2.776   0.121   0.138
  117TIP3    H2  358   2.670   0.165   0.237
  118TIP3   OH2  359   1.378   3.753   4.925
  118TIP3    H1  360   1.435   3.799   4.863
  118TIP3    H2  361   1.309   3.716   4.871
  119TIP3   OH2  362   4.772   4.147   1.859
  119TIP3    H1  363   4.861   4.130   1.829
  119TIP3    H2  364   4.730   4.193   1.787
  120TIP3   OH2  365   2.876   1.480   0.360
  120TIP3    H1  366   2.817   1.472   0.436
  120TIP3    H2  367   2.901   1.390   0.340
  121TIP3   OH2  368   5.311   5.091   0.798
  121TIP3    H1  369   5.294   5.099   0.892
  121TIP3    H2  370   5.231   5.054   0.762
  122TIP3   OH2  371   0.670   2.938   1.515
  122TIP3    H1  372   0.700   2.901   1.433
  122TIP3    H2  373   0.637   3.025   1.491
  123TIP3   OH2  374   3.622   5.174   3.744
  123TIP3    H1  375   3.587   5.259   3.771
  123TIP3    H2  376   3.562   5.144   3.675
  124TIP3   OH2  377   2.812   4.781   3.583
  124TIP3    H1  378   2.827   4.865   3.625
  124TIP3    H2  379   2.860   4.718   3.637
  125TIP3   OH2  380   2.315   1.249   2.162
  125TIP3    H1  381   2.313   1.258   2.258
  125TIP3    H2  382   2.388   1.304   2.135
  126TIP3   OH2  383   2.896   2.791   4.463
  126TIP3    H1  384   2.844   2.743   4.527
  126TIP3    H2  385   2.986   2.784   4.495
  127TIP3   OH2  386   1.989   3.887   2.125
  127TIP3    H1  387   1.935   3.932   2.190
  127TIP3    H2  388   2.069   3.862   2.173
  128TIP3   OH2  389   1.408   4.283   0.991
  128TIP3    H1  390   1.457   4.275   0.908
  128TIP3    H2  391   1.348   4.356   0.975
  129TIP3   OH2  392   3.888   2.270   5.141
  129TIP3    H1  393   3.818   2.217   5.179
  129TIP3    H2  394   3.946   2.207   5.097
  130TIP3   OH2  395   3.465   5.658   1.201
  130TIP3    H1  396   3.559   5.665   1.184
  130TIP3    H2  397   3.435   5.587   1.144
  131TIP3   OH2  398   4.480   3.792   3.207
  131TIP3    H1  399   4.568   3.825   3.189
  131TIP3    H2  400   4.490   3.738   3.286
  132TIP3   OH2  401   6.248   3.032   2.252
  132TIP3    H1  402   6.231   3.126   2.248
  132TIP3    H2  403   6.287   3.011   2.167
  133TIP3   OH2  404   4.631   3.676   2.611
  133TIP3    H1  405   4.613   3.706   2.522
  133TIP3    H2  406   4.705   3.729   2.640
  134TIP3   OH2  407   0.887   4.473   1.078
  134TIP3    H1  408   0.857   4.550   1.030
  134TIP3    H2  409   0.961   4.440   1.027
  135TIP3   OH2  410   4.016   3.098   3.759
  135TIP3    H1  411   4.089   3.128   3.705
  135TIP3    H2  412   4.038   3.127   3.847
  136TIP3   OH2  413   4.252   1.185   3.109
  136TIP3    H1  414   4.159   1.164   3.110
  136TIP3    H2  415   4.273   1.199   3.017
  137TIP3   OH2  416   2.575   0.883   2.942
  137TIP3    H1  417   2.549   0.949   3.006
  137TIP3    H2  418   2.556   0.924   2.857
  138TIP3   OH2  419   1.551   5.441   4.053
  138TIP3    H1  420   1.527   5.489   3.974
  138TIP3    H2  421   1.487   5.469   4.118
  139TIP3   OH2  422   1.650   1.239   2.567
  139TIP3    H1  423   1.663   1.207   2.478
  139TIP3    H2  424   1.590   1.313   2.557
  140TIP3   OH2  425   4.991   4.676   4.008
  140TIP3    H1  426   4.962   4.594   3.970
  140TIP3    H2  427   4.912   4.717   4.043
  141TIP3   OH2  428   3.292   5.243   0.224
  141TIP3    H1  429   3.274   5.165   0.275
  141TIP3    H2  430   3.300   5.212   0.134
  142TIP3   OH2  431   0.028   0.016   4.417
  142TIP3    H1  432  -0.011   0.031   4.504
  142TIP3    H2  433   0.067   0.100   4.393
  143TIP3   OH2  434   4.454   5.595   1.023
  143TIP3    H1  435   4.439   5.689   1.027
  143TIP3    H2  436   4.515   5.583   0.950
  144TIP3   OH2  437   4.135   5.348   2.476
  144TIP3    H1  438   4.134   5.443   2.465
  144TIP3    H2  439   4.198   5.333   2.546
  145TIP3   OH2  440   1.334   1.046   0.625
  145TIP3    H1  441   1.301   0.959   0.600
  145TIP3    H2  442   1.307   1.056   0.716
  146TIP3   OH2  443   3.971   3.267   0.255
  146TIP3    H1  444   3.964   3.172   0.254
  146TIP3    H2  445   3.953   3.294   0.165
  147TIP3   OH2  446   2.855   3.982   3.379
  147TIP3    H1  447   2.798   4.037   3.433
  147TIP3    H2  448   2.805   3.902   3.364
  148TIP3   OH2  449   1.199   1.199   1.470
  148TIP3    H1  450   1.199   1.283   1.515
  148TIP3    H2  451   1.174   1.220   1.380
  149TIP3   OH2  452   6.345   4.283   4.040
  149TIP3    H1  453   6.298   4.303   4.121
  149TIP3    H2  454   6.343   4.365   3.991
  150TIP3   OH2  455   1.204   5.185   4.963
  150TIP3    H1  456   1.149   5.144   5.030
  150TIP3    H2  457   1.188   5.133   4.884
  151TIP3   OH2  458   5.108   5.802   2.260
  151TIP3    H1  459   5.173   5.804   2.330
  151TIP3    H2  460   5.114   5.889   2.219
  152TIP3   OH2  461   3.636   3.186   3.221
  152TIP3    H1  462   3.646   3.191   3.126
  152TIP3    H2  463   3.705   3.127   3.249
  153TIP3   OH2  464   1.493   5.145   4.004
  153TIP3    H1  465   1.566   5.144   4.066
  153TIP3    H2  466   1.448   5.227   4.021
  154TIP3   OH2  467   0.068   4.089   1.573
  154TIP3    H1  468  -0.014   4.138   1.577
  154TIP3    H2  469   0.136   4.157   1.571
  155TIP3   OH2  470   2.942   3.218   4.393
  155TIP3    H1  471   2.932   3.230   4.298
  155TIP3    H2  472   3.033   3.193   4.405
  156TIP3   OH2  473   3.294   0.374   2.592
  156TIP3    H1  474   3.289   0.435   2.518
  156TIP3    H2  475   3.214   0.322   2.585
  157TIP3   OH2  476   6.262   0.071   4.949
  157TIP3    H1  477   6.187   0.088   5.006
  157TIP3    H2  478   6.297  -0.013   4.980
  158TIP3   OH2  479   4.293   3.931   5.071
  158TIP3    H1  480   4.290   3.949   5.165
  158TIP3    H2  481   4.346   4.002   5.035
  159TIP3   OH2  482   6.085   0.968   4.720
  159TIP3    H1  483   6.063   0.991   4.811
  159TIP3    H2  484   6.001   0.944   4.681
  160TIP3   OH2  485   5.319   1.092   3.529
  160TIP3    H1  486   5.311   1.016   3.587
  160TIP3    H2  487   5.412   1.115   3.533
  161TIP3   OH2  488   1.929   3.561   2.752
  161TIP3    H1  489   1.936   3.542   2.846
  161TIP3    H2  490   1.968   3.648   2.743
  162TIP3   OH2  491   0.636   4.955   3.116
  162TIP3    H1  492   0.551   4.910   3.113
  162TIP3    H2  493   0.684   4.909   3.184
  163TIP3   OH2  494   4.279   3.529   1.869
  163TIP3    H1  495   4.285   3.574   1.784
  163TIP3    H2  496   4.355   3.471   1.871
  164TIP3   OH2  497   5.850   0.078   3.457
  164TIP3    H1  498   5.939   0.084   3.425
  164TIP3    H2  499   5.859   0.047   3.548
  165TIP3   OH2  500   1.059   5.459   4.911
  165TIP3    H1  501   1.139   5.454   4.964
  165TIP3    H2  502   1.038   5.368   4.890
  166TIP3   OH2  503   0.354   5.943   4.911
  166TIP3    H1  504   0.325   6.003   4.842
  166TIP3    H2  505   0.450   5.942   4.905
  167TIP3   OH2  506   4.669   2.066   0.186
  167TIP3    H1  507   4.715   2.035   0.265
  167TIP3    H2  508   4.606   1.997   0.167
  168TIP3   OH2  509   6.109   0.300   1.103
  168TIP3    H1  510   6.127   0.393   1.091
  168TIP3    H2  511   6.015   0.295   1.118
  169TIP3   OH2  512   6.106   0.487   2.151
  169TIP3    H1  513   6.193   0.499   2.114
  169TIP3    H2  514   6.113   0.522   2.240
  170TIP3   OH2  515   3.739   0.572   3.588
  170TIP3    H1  516   3.666   0.620   3.548
  170TIP3    H2  517   3.780   0.635   3.647
  171TIP3   OH2  518   4.420   2.832   3.625
  171TIP3    H1  519   4.450   2.788   3.705
  171TIP3    H2  520   4.474   2.794   3.555
  172TIP3   OH2  521   6.327   4.696   0.868
  172TIP3    H1  522   6.262   4.707   0.936
  172TIP3    H2  523   6.282   4.647   0.799
  173TIP3   OH2  524   2.732   2.885   4.246
  173TIP3    H1  525   2.727   2.804   4.194
  173TIP3    H2  526   2.806   2.871   4.305
  174TIP3   OH2  527   4.060   4.955   4.467
  174TIP3    H1  528   4.114   4.876   4.466
  174TIP3    H2  529   4.106   5.014   4.526
  175TIP3   OH2  530   2.507   3.289   2.194
  175TIP3    H1  531   2.558   3.244   2.261
  175TIP3    H2  532   2.544   3.259   2.111
  176TIP3   OH2  533   2.322   0.414   0.286
  176TIP3    H1  534   2.263   0.439   0.357
  176TIP3    H2  535   2.265   0.401   0.211
  177TIP3   OH2  536   5.923   4.121   2.425
  177TIP3    H1  537   5.858   4.167   2.479
  177TIP3    H2  538   5.924   4.032   2.460
  178TIP3   OH2  539   3.406   5.571   4.887
  178TIP3    H1  540   3.334   5.520   4.850
  178TIP3    H2  541   3.467   5.506   4.921
  179TIP3   OH2  542   2.919   2.818   0.383
  179TIP3    H1  543   3.011   2.793   0.394
  179TIP3    H2  544   2.878   2.743   0.341
  180TIP3   OH2  545   3.958   1.959   0.535
  180TIP3    H1  546   3.879   1.939   0.484
  180TIP3    H2  547   3.929   2.023   0.600
  181TIP3   OH2  548   4.561   4.525   2.792
  181TIP3    H1  549   4.635   4.493   2.740
  181TIP3    H2  550   4.559   4.619   2.775
  182TIP3   OH2  551   1.742   0.385   4.418
  182TIP3    H1  552   1.697   0.336   4.488
  182TIP3    H2  553   1.757   0.472   4.455
  183TIP3   OH2  554   3.675   2.779   1.440
  183TIP3    H1  555   3.722   2.862   1.436
  183TIP3    H2  556   3.730   2.717   1.392
  184TIP3   OH2  557   2.418   5.416   4.618
  184TIP3    H1  558   2.365   5.477   4.668
  184TIP3    H2  559   2.405   5.442   4.527
  185TIP3   OH2  560   0.037   5.859   4.115
  185TIP3    H1  561  -0.043   5.879   4.065
  185TIP3    H2  562   0.037   5.764   4.123
  186TIP3   OH2  563   0.928   0.775   4.923
  186TIP3    H1  564   0.954   0.835   4.853
  186TIP3    H2  565   0.996   0.785   4.990
  187TIP3   OH2  566   0.353   1.170   1.833
  187TIP3    H1  567   0.363   1.237   1.766
  187TIP3    H2  568   0.263   1.141   1.826
  188TIP3   OH2  569   2.953   5.865   1.858
  188TIP3    H1  570   2.950   5.794   1.921
  188TIP3    H2  571   2.944   5.945   1.911
  189TIP3   OH2  572   3.096   0.026   0.785
  189TIP3    H1  573   3.092   0.122   0.790
  189TIP3    H2  574   3.187   0.005   0.805
  190TIP3   OH2  575   3.599   2.750   2.612
  190TIP3    H1  576   3.590   2.657   2.632
  190TIP3    H2  577   3.637   2.751   2.524
  191TIP3   OH2  578   2.958   4.616   4.936
  191TIP3    H1  579   3.025   4.588   4.873
  191TIP3    H2  580   2.913   4.689   4.892
  192TIP3   OH2  581   1.019   0.395   1.238
  192TIP3    H1  582   0.969   0.467   1.198
  192TIP3    H2  583   1.092   0.438   1.282
  193TIP3   OH2  584   4.753   0.650   4.927
  193TIP3    H1  585   4.762   0.744   4.946
  193TIP3    H2  586   4.800   0.638   4.844
  194TIP3   OH2  587   2.089   2.191   3.466
  194TIP3    H1  588   2.138   2.272   3.482
  194TIP3    H2  589   2.141   2.123   3.508
  195TIP3   OH2  590   2.849   1.086   1.961
  195TIP3    H1  591   2.779   1.090   2.026
  195TIP3    H2  592   2.927   1.060   2.010
  196TIP3   OH2  593   6.197   4.243   1.541
  196TIP3    H1  594   6.256   4.313   1.513
  196TIP3    H2  595   6.118   4.257   1.489
  197TIP3   OH2  596   1.476   3.013   1.112
  197TIP3    H1  597   1.472   3.095   1.062
  197TIP3    H2  598   1.409   3.023   1.179
  198TIP3   OH2  599   4.061   1.092   3.514
  198TIP3    H1  600   4.019   1.007   3.523
  198TIP3    H2  601   4.142   1.084   3.564
  199TIP3   OH2  602   1.081   1.337   1.853
  199TIP3    H1  603   1.007   1.277   1.864
  199TIP3    H2  604   1.044   1.424   1.867
  200TIP3   OH2  605   5.965   2.335   1.553
  200TIP3    H1  606   5.947   2.429   1.560
  200TIP3    H2  607   5.931   2.299   1.635
  201TIP3   OH2  608   0.706   1.835   0.785
  201TIP3    H1  609   0.710   1.744   0.756
  201TIP3    H2  610   0.695   1.829   0.880
  202TIP3   OH2  611   1.675   3.533   3.034
  202TIP3    H1  612   1.637   3.588   2.966
  202TIP3    H2  613   1.727   3.593   3.088
  203TIP3   OH2  614   0.177   4.102   3.973
  203TIP3    H1  615   0.101   4.155   3.999
  203TIP3    H2  616   0.143   4.013   3.968
  204TIP3   OH2  617   5.592   0.652   5.217
  204TIP3    H1  618   5.537   0.641   5.139
  204TIP3    H2  619   5.658   0.716   5.191
  205TIP3   OH2  620   0.251   4.229   0.981
  205TIP3    H1  621   0.201   4.310   0.971
  205TIP3    H2  622   0.222   4.174   0.908
  206TIP3   OH2  623   6.144   3.696   4.549
  206TIP3    H1  624   6.173   3.647   4.626
  206TIP3    H2  625   6.050   3.707   4.562
  207TIP3   OH2  626   2.066   3.830   4.517
  207TIP3    H1  627   2.154   3.804   4.544
  207TIP3    H2  628   2.019   3.747   4.505
  208TIP3   OH2  629   4.848   3.442   0.301
  208TIP3    H1  630   4.932   3.417   0.263
  208TIP3    H2  631   4.851   3.409   0.390
  209TIP3   OH2  632   2.658   0.634   2.030
  209TIP3    H1  633   2.629   0.635   2.122
  209TIP3    H2  634   2.579   0.615   1.980
  210TIP3   OH2  635   4.131   0.899   3.215
  210TIP3    H1  636   4.068   0.957   3.173
  210TIP3    H2  637   4.077   0.832   3.257
  211TIP3   OH2  638   5.906   5.594   4.223
  211TIP3    H1  639   5.893   5.576   4.316
  211TIP3    H2  640   5.921   5.689   4.219
  212TIP3   OH2  641   5.172   5.126   1.070
  212TIP3    H1  642   5.148   5.214   1.099
  212TIP3    H2  643   5.201   5.082   1.150
  213TIP3   OH2  644   2.923   3.465   5.105
  213TIP3    H1  645   2.947   3.380   5.142
  213TIP3    H2  646   2.983   3.477   5.031
  214TIP3   OH2  647   0.500   2.665   4.878
  214TIP3    H1  648   0.534   2.723   4.947
  214TIP3    H2  649   0.522   2.577   4.909
  215TIP3   OH2  650   1.555   4.917   0.742
  215TIP3    H1  651   1.472   4.896   0.700
  215TIP3    H2  652   1.594   4.986   0.688
  216TIP3   OH2  653   5.625   5.269   2.689
  216TIP3    H1  654   5.705   5.292   2.737
  216TIP3    H2  655   5.616   5.175   2.699
  217TIP3   OH2  656   3.086   3.792   0.637
  217TIP3    H1  657   3.051   3.704   0.647
  217TIP3    H2  658   3.119   3.795   0.547
  218TIP3   OH2  659   4.440   3.445   5.061
  218TIP3    H1  660   4.397   3.362   5.040
  218TIP3    H2  661   4.528   3.420   5.088
  219TIP3   OH2  662   4.815   2.819   4.448
  219TIP3    H1  663   4.728   2.854   4.466
  219TIP3    H2  664   4.844   2.866   4.370
  220TIP3   OH2  665   1.617   2.673   2.057
  220TIP3    H1  666   1.662   2.591   2.081
  220TIP3    H2  667   1.679   2.718   2.000
  221TIP3   OH2  668   1.667   4.548   3.260
  221TIP3    H1  669   1.606   4.622   3.256
  221TIP3    H2  670   1.753   4.589   3.266
  222TIP3   OH2  671   5.175   2.287   5.071
  222TIP3    H1  672   5.112   2.251   5.009
  222TIP3    H2  673   5.214   2.211   5.114
  223TIP3   OH2  674   2.168   1.731   3.636
  223TIP3    H1  675   2.234   1.742   3.704
  223TIP3    H2  676   2.138   1.641   3.646
  224TIP3   OH2  677   2.004   1.919   0.254
  224TIP3    H1  678   1.932   1.861   0.226
  224TIP3    H2  679   1.981   1.944   0.343
  225TIP3   OH2  680   3.390   4.421   3.966
  225TIP3    H1  681   3.419   4.369   3.892
  225TIP3    H2  682   3.306   4.383   3.992
  226TIP3   OH2  683   1.225   3.466   2.426
  226TIP3    H1  684   1.168   3.433   2.357
  226TIP3    H2  685   1.217   3.403   2.497
  227TIP3   OH2  686   5.822   4.064   1.585
  227TIP3    H1  687   5.817   3.996   1.518
  227TIP3    H2  688   5.898   4.039   1.638
  228TIP3   OH2  689   4.773   2.721   3.243
  228TIP3    H1  690   4.862   2.691   3.258
  228TIP3    H2  691   4.770   2.809   3.280
  229TIP3   OH2  692   1.497   2.543   2.731
  229TIP3    H1  693   1.510   2.465   2.785
  229TIP3    H2  694   1.438   2.513   2.661
  230TIP3   OH2  695   3.028   3.032   4.728
  230TIP3    H1  696   2.979   3.005   4.806
  230TIP3    H2  697   2.975   3.101   4.689
  231TIP3   OH2  698   4.063   3.164   1.656
  231TIP3    H1  699   4.006   3.087   1.658
  231TIP3    H2  700   4.125   3.149   1.728
  232TIP3   OH2  701   0.230   0.818   1.754
  232TIP3    H1  702   0.201   0.903   1.786
  232TIP3    H2  703   0.152   0.778   1.715
  233TIP3   OH2  704   3.044   2.029   3.775
  233TIP3    H1  705   3.071   2.103   3.720
  233TIP3    H2  706   3.050   2.063   3.865
  234TIP3   OH2  707   5.005   0.037   3.589
  234TIP3    H1  708   4.946  -0.032   3.621
  234TIP3    H2  709   5.010   0.022   3.494
  235TIP3   OH2  710   5.188   0.699   3.407
  235TIP3    H1  711   5.186   0.656   3.321
  235TIP3    H2  712   5.276   0.681   3.441
  236TIP3   OH2  713   1.717   4.157   5.151
  236TIP3    H1  714   1.776   4.218   5.106
  236TIP3    H2  715   1.634   4.203   5.156
  237TIP3   OH2  716   2.410   4.043   4.648
  237TIP3    H1  717   2.470   4.018   4.718
  237TIP3    H2  718   2.443   3.998   4.571
  238TIP3   OH2  719   0.261   1.073   0.905
  238TIP3    H1  720   0.320   1.022   0.960
  238TIP3    H2  721   0.267   1.031   0.819
  239TIP3   OH2  722   6.006   1.128   4.447
  239TIP3    H1  723   5.991   1.044   4.405
  239TIP3    H2  724   6.063   1.176   4.388
  240TIP3   OH2  725   3.599   2.965   2.819
  240TIP3    H1  726   3.507   2.955   2.843
  240TIP3    H2  727   3.616   2.895   2.756
  241TIP3   OH2  728   0.078   0.545   4.224
  241TIP3    H1  729   0.082   0.612   4.292
  241TIP3    H2  730   0.099   0.593   4.143
  242TIP3   OH2  731   3.414   0.261   4.195
  242TIP3    H1  732   3.416   0.341   4.141
  242TIP3    H2  733   3.432   0.292   4.283
  243TIP3   OH2  734   0.761   1.461   3.689
  243TIP3    H1  735   0.705   1.456   3.767
  243TIP3    H2  736   0.767   1.371   3.658
  244TIP3   OH2  737   1.818   4.131   3.789
  244TIP3    H1  738   1.815   4.035   3.784
  244TIP3    H2  739   1.811   4.160   3.698
  245TIP3   OH2  740   1.676   5.883   2.432
  245TIP3    H1  741   1.678   5.955   2.495
  245TIP3    H2  742   1.758   5.892   2.383
  246TIP3   OH2  743   0.623   0.314   4.566
  246TIP3    H1  744   0.535   0.286   4.592
  246TIP3    H2  745   0.677   0.236   4.578
  247TIP3   OH2  746   0.012   0.034   3.252
  247TIP3    H1  747   0.020   0.059   3.160
  247TIP3    H2  748   0.101   0.039   3.287
  248TIP3   OH2  749   5.463   5.782   3.433
  248TIP3    H1  750   5.487   5.875   3.440
  248TIP3    H2  751   5.526   5.745   3.372
  249TIP3   OH2  752   6.217   2.448   3.062
  249TIP3    H1  753   6.142   2.440   3.121
  249TIP3    H2  754   6.215   2.369   3.009
  250TIP3   OH2  755   2.034   4.381   4.153
  250TIP3    H1  756   2.129   4.383   4.148
  250TIP3    H2  757   2.005   4.426   4.073
  251TIP3   OH2  758   4.064   0.569   1.761
  251TIP3    H1  759   4.016   0.618   1.827
  251TIP3    H2  760   4.041   0.611   1.678
  252TIP3   OH2  761   0.251   3.331   1.794
  252TIP3    H1  762   0.280   3.245   1.822
  252TIP3    H2  763   0.231   3.377   1.876
  253TIP3   OH2  764   0.182   0.937   3.212
  253TIP3    H1  765   0.252   0.891   3.166
  253TIP3    H2  766   0.111   0.873   3.220
  254TIP3   OH2  767   0.516   0.084   1.464
  254TIP3    H1  768   0.424   0.110   1.466
  254TIP3    H2  769   0.531   0.040   1.547
  255TIP3   OH2  770   3.352   1.126   1.781
  255TIP3    H1  771   3.422   1.179   1.742
  255TIP3    H2  772   3.317   1.181   1.851
  256TIP3   OH2  773   2.335   1.217   1.026
  256TIP3    H1  774   2.303   1.163   0.953
  256TIP3    H2  775   2.294   1.302   1.014
  257TIP3   OH2  776   4.852   2.172   1.995
  257TIP3    H1  777   4.889   2.246   2.044
  257TIP3    H2  778   4.816   2.114   2.062
  258TIP3   OH2  779   2.593   0.402  -0.003
  258TIP3    H1  780   2.676   0.404   0.044
  258TIP3    H2  781   2.549   0.323   0.028
  259TIP3   OH2  782   5.008   4.157   1.355
  259TIP3    H1  783   5.084   4.178   1.409
  259TIP3    H2  784   4.945   4.226   1.375
  260TIP3   OH2  785   0.079   0.299   0.572
  260TIP3    H1  786   0.004   0.265   0.619
  260TIP3    H2  787   0.100   0.382   0.616
  261TIP3   OH2  788   2.030   1.200   3.470
  261TIP3    H1  789   1.963   1.261   3.501
  261TIP3    H2  790   2.044   1.224   3.378
  262TIP3   OH2  791   4.683   2.135   0.528
  262TIP3    H1  792   4.641   2.146   0.614
  262TIP3    H2  793   4.718   2.222   0.508
  263TIP3   OH2  794   0.435   3.897   4.452
  263TIP3    H1  795   0.434   3.952   4.374
  263TIP3    H2  796   0.509   3.929   4.503
  264TIP3   OH2  797   2.561   1.330   1.650
  264TIP3    H1  798   2.590   1.418   1.675
  264TIP3    H2  799   2.522   1.341   1.564
  265TIP3   OH2  800   2.412   1.875   2.273
  265TIP3    H1  801   2.330   1.923   2.276
  265TIP3    H2  802   2.391   1.793   2.227
  266TIP3   OH2  803   5.432   4.451   2.765
  266TIP3    H1  804   5.505   4.471   2.706
  266TIP3    H2  805   5.355   4.486   2.722
  267TIP3   OH2  806   5.070   1.633   1.818
  267TIP3    H1  807   5.009   1.681   1.874
  267TIP3    H2  808   5.132   1.594   1.879
  268TIP3   OH2  809   1.203   4.124   2.292
  268TIP3    H1  810   1.235   4.136   2.203
  268TIP3    H2  811   1.280   4.096   2.342
  269TIP3   OH2  812   2.656   4.486   1.673
  269TIP3    H1  813   2.591   4.485   1.744
  269TIP3    H2  814   2.682   4.395   1.662
  270TIP3   OH2  815   2.687   5.411   1.466
  270TIP3    H1  816   2.600   5.374   1.447
  270TIP3    H2  817   2.673   5.466   1.542
  271TIP3   OH2  818   1.513   3.891  -0.030
  271TIP3    H1  819   1.514   3.987  -0.020
  271TIP3    H2  820   1.597   3.863   0.006
  272TIP3   OH2  821   0.748   1.687   5.006
  272TIP3    H1  822   0.821   1.689   5.068
  272TIP3    H2  823   0.681   1.635   5.049
  273TIP3   OH2  824   0.036   5.710   5.042
  273TIP3    H1  825   0.057   5.707   5.135
  273TIP3    H2  826   0.113   5.672   4.999
  274TIP3   OH2  827   5.534   4.909   3.634
  274TIP3    H1  828   5.515   4.988   3.583
  274TIP3    H2  829   5.626   4.890   3.616
  275TIP3   OH2  830   2.965   1.479   1.456
  275TIP3    H1  831   2.934   1.415   1.392
  275TIP3    H2  832   2.902   1.551   1.450
  276TIP3   OH2  833   2.623   1.287   2.685
  276TIP3    H1  834   2.637   1.357   2.748
  276TIP3    H2  835   2.700   1.292   2.627
  277TIP3   OH2  836   2.394   0.250   1.558
  277TIP3    H1  837   2.354   0.163   1.556
  277TIP3    H2  838   2.406   0.273   1.466
  278TIP3   OH2  839   2.561   0.986   2.691
  278TIP3    H1  840   2.559   1.081   2.678
  278TIP3    H2  841   2.647   0.959   2.658
  279TIP3   OH2  842   3.083   1.827   4.205
  279TIP3    H1  843   3.110   1.791   4.290
  279TIP3    H2  844   3.162   1.869   4.171
  280TIP3   OH2  845   3.429   5.980   2.719
  280TIP3    H1  846   3.489   5.937   2.780
  280TIP3    H2  847   3.342   5.965   2.756
  281TIP3   OH2  848   4.680   1.832   1.372
  281TIP3    H1  849   4.677   1.785   1.455
  281TIP3    H2  850   4.673   1.924   1.397
  282TIP3   OH2  851   2.620   5.596   4.149
  282TIP3    H1  852   2.707   5.592   4.191
  282TIP3    H2  853   2.587   5.683   4.172
  283TIP3   OH2  854   4.557   4.300   0.886
  283TIP3    H1  855   4.489   4.233   0.884
  283TIP3    H2  856   4.629   4.260   0.933
  284TIP3   OH2  857   5.256   2.877   5.017
  284TIP3    H1  858   5.183   2.874   4.955
  284TIP3    H2  859   5.309   2.801   4.994
  285TIP3   OH2  860   0.027   2.473   3.461
  285TIP3    H1  861  -0.044   2.438   3.515
  285TIP3    H2  862   0.094   2.404   3.463
  286TIP3   OH2  863   5.787   2.296   4.207
  286TIP3    H1  864   5.823   2.335   4.127
  286TIP3    H2  865   5.858   2.243   4.242
  287TIP3   OH2  866   2.835   1.699   0.154
  287TIP3    H1  867   2.754   1.747   0.173
  287TIP3    H2  868   2.855   1.653   0.236
  288TIP3   OH2  869   3.665   5.949   1.050
  288TIP3    H1  870   3.573   5.975   1.042
  288TIP3    H2  871   3.694   5.988   1.133
  289TIP3   OH2  872   2.367   1.190   2.591
  289TIP3    H1  873   2.446   1.230   2.628
  289TIP3    H2  874   2.397   1.152   2.508
  290TIP3   OH2  875   6.181   2.008   1.191
  290TIP3    H1  876   6.206   2.020   1.283
  290TIP3    H2  877   6.091   2.038   1.187
  291TIP3   OH2  878   2.181   2.787   4.587
  291TIP3    H1  879   2.268   2.818   4.562
  291TIP3    H2  880   2.196   2.699   4.621
  292TIP3   OH2  881   0.901   1.083   1.761
  292TIP3    H1  882   0.888   1.009   1.820
  292TIP3    H2  883   0.953   1.047   1.689
  293TIP3   OH2  884   5.311   5.815   4.628
  293TIP3    H1  885   5.351   5.844   4.546
  293TIP3    H2  886   5.349   5.873   4.694
  294TIP3   OH2  887   1.638   2.303   2.091
  294TIP3    H1  888   1.615   2.316   1.999
  294TIP3    H2  889   1.731   2.324   2.096
  295TIP3   OH2  890   2.617   1.640   0.946
  295TIP3    H1  891   2.558   1.577   0.906
  295TIP3    H2  892   2.587   1.725   0.914
  296TIP3   OH2  893   1.936   1.247   3.132
  296TIP3    H1  894   1.984   1.225   3.051
  296TIP3    H2  895   1.986   1.319   3.170
  297TIP3   OH2  896   0.723   4.885   2.349
  297TIP3    H1  897   0.647   4.937   2.373
  297TIP3    H2  898   0.740   4.908   2.257
  298TIP3   OH2  899   2.770   4.256   3.178
  298TIP3    H1  900   2.725   4.314   3.116
  298TIP3    H2  901   2.752   4.168   3.146
  299TIP3   OH2  902   6.229   2.923   3.837
  299TIP3    H1  903   6.227   2.837   3.879
  299TIP3    H2  904   6.171   2.977   3.890
  300TIP3   OH2  905   3.256   1.208   3.606
  300TIP3    H1  906   3.287   1.288   3.562
  300TIP3    H2  907   3.216   1.238   3.687
  301TIP3   OH2  908   5.922   4.441   0.703
  301TIP3    H1  909   5.958   4.376   0.644
  301TIP3    H2  910   5.827   4.433   0.693
  302TIP3   OH2  911   1.308   0.189   1.150
  302TIP3    H1  912   1.365   0.112   1.146
  302TIP3    H2  913   1.369   0.262   1.162
  303TIP3   OH2  914   2.689   1.503   4.573
  303TIP3    H1  915   2.693   1.416   4.534
  303TIP3    H2  916   2.780   1.529   4.584
  304TIP3   OH2  917   5.351   3.214   3.167
  304TIP3    H1  918   5.417   3.186   3.230
  304TIP3    H2  919   5.340   3.308   3.185
  305TIP3   OH2  920   6.278   5.335   5.080
  305TIP3    H1  921   6.188   5.348   5.050
  305TIP3    H2  922   6.326   5.311   5.001
  306TIP3   OH2  923   0.246   2.770   4.812
  306TIP3    H1  924   0.290   2.823   4.745
  306TIP3    H2  925   0.314   2.709   4.843
  307TIP3   OH2  926   4.305   3.317   2.059
  307TIP3    H1  927   4.339   3.324   1.969
  307TIP3    H2  928   4.346   3.238   2.094
  308TIP3   OH2  929   3.877   2.190   1.016
  308TIP3    H1  930   3.818   2.254   0.977
  308TIP3    H2  931   3.845   2.179   1.105
  309TIP3   OH2  932   5.819   1.252   4.236
  309TIP3    H1  933   5.813   1.319   4.168
  309TIP3    H2  934   5.896   1.277   4.287
  310TIP3   OH2  935   0.716   2.440   3.732
  310TIP3    H1  936   0.761   2.465   3.651
  310TIP3    H2  937   0.689   2.523   3.771
  311TIP3   OH2  938   1.060   1.652   4.397
  311TIP3    H1  939   1.117   1.582   4.429
  311TIP3    H2  940   0.973   1.612   4.394
  312TIP3   OH2  941   5.314   2.750   0.315
  312TIP3    H1  942   5.266   2.821   0.272
  312TIP3    H2  943   5.384   2.729   0.253
  313TIP3   OH2  944   0.451   1.615   1.351
  313TIP3    H1  945   0.526   1.558   1.365
  313TIP3    H2  946   0.401   1.611   1.433
  314TIP3   OH2  947   2.784   4.434   3.640
  314TIP3    H1  948   2.794   4.456   3.548
  314TIP3    H2  949   2.822   4.347   3.649
  315TIP3   OH2  950   5.857   5.042   1.925
  315TIP3    H1  951   5.910   4.982   1.872
  315TIP3    H2  952   5.882   5.129   1.896
  316TIP3   OH2  953   3.573   1.092   2.799
  316TIP3    H1  954   3.483   1.086   2.768
  316TIP3    H2  955   3.606   1.002   2.792
  317TIP3   OH2  956   5.905   1.654   3.426
  317TIP3    H1  957   5.938   1.628   3.340
  317TIP3    H2  958   5.908   1.750   3.425
  318TIP3   OH2  959   1.196   5.717   4.796
  318TIP3    H1  960   1.112   5.679   4.825
  318TIP3    H2  961   1.262   5.668   4.846
  319TIP3   OH2  962   3.784   4.983   4.447
  319TIP3    H1  963   3.771   5.070   4.483
  319TIP3    H2  964   3.879   4.976   4.436
  320TIP3   OH2  965   1.428   3.210   2.950
  320TIP3    H1  966   1.436   3.236   3.041
  320TIP3    H2  967   1.370   3.134   2.952
  321TIP3   OH2  968   4.012   1.196   1.151
  321TIP3    H1  969   4.011   1.289   1.130
  321TIP3    H2  970   4.005   1.152   1.066
  322TIP3   OH2  971   0.173   2.239   0.700
  322TIP3    H1  972   0.188   2.237   0.606
  322TIP3    H2  973   0.232   2.307   0.732
  323TIP3   OH2  974   2.662   2.258   1.817
  323TIP3    H1  975   2.617   2.328   1.770
  323TIP3    H2  976   2.752   2.291   1.828
  324TIP3   OH2  977   4.402   0.780   4.360
  324TIP3    H1  978   4.342   0.766   4.433
  324TIP3    H2  979   4.423   0.874   4.363
  325TIP3   OH2  980   4.168   4.302   1.137
  325TIP3    H1  981   4.086   4.286   1.183
  325TIP3    H2  982   4.195   4.390   1.164
  326TIP3   OH2  983   1.034   2.808   1.313
  326TIP3    H1  984   0.991   2.858   1.244
  326TIP3    H2  985   1.022   2.717   1.288
  327TIP3   OH2  986   3.533   0.218   2.389
  327TIP3    H1  987   3.590   0.177   2.324
  327TIP3    H2  988   3.479   0.147   2.423
  328TIP3   OH2  989   4.929   4.818   0.428
  328TIP3    H1  990   4.973   4.882   0.372
  328TIP3    H2  991   4.955   4.733   0.393
  329TIP3   OH2  992   5.112   5.593   3.542
  329TIP3    H1  993   5.031   5.550   3.568
  329TIP3    H2  994   5.096   5.623   3.453
  330TIP3   OH2  995   3.123   5.408   4.325
  330TIP3    H1  996   3.206   5.416   4.279
  330TIP3    H2  997   3.060   5.384   4.257
  331TIP3   OH2  998   6.139   2.070   2.713
  331TIP3    H1  999   6.179   2.006   2.771
  331TIP3    H2 1000   6.127   2.148   2.768
  332TIP3   OH2 1001   0.189   3.558   3.713
  332TIP3    H1 1002   0.254   3.513   3.767
  332TIP3    H2 1003   0.222   3.648   3.706
  333TIP3   OH2 1004   3.085   4.684   1.853
  333TIP3    H1 1005   3.166   4.685   1.905
  333TIP3    H2 1006   3.097   4.753   1.788
  334TIP3   OH2 1007   2.525   2.099   4.175
  334TIP3    H1 1008   2.562   2.070   4.259
  334TIP3    H2 1009   2.436   2.064   4.175
  335TIP3   OH2 1010   2.380   3.981   1.956
  335TIP3    H1 1011   2.321   4.051   1.931
  335TIP3    H2 1012   2.433   3.966   1.877
  336TIP3   OH2 1013   1.006   5.153   1.524
  336TIP3    H1 1014   1.099   5.162   1.502
  336TIP3    H2 1015   1.006   5.104   1.606
  337TIP3   OH2 1016   1.315   1.304   3.221
  337TIP3    H1 1017   1.339   1.281   3.311
  337TIP3    H2 1018   1.383   1.365   3.193
  338TIP3   OH2 1019   3.876   0.783   1.231
  338TIP3    H1 1020   3.818   0.799   1.156
  338TIP3    H2 1021   3.817   0.753   1.300
  339TIP3   OH2 1022   2.702   5.532   3.130
  339TIP3    H1 1023   2.736   5.585   3.058
  339TIP3    H2 1024   2.774   5.474   3.154
  340TIP3   OH2 1025   5.611   5.814   0.046
  340TIP3    H1 1026   5.695   5.789   0.084
  340TIP3    H2 1027   5.546   5.768   0.099
  341TIP3   OH2 1028   3.902   2.174   0.722
  341TIP3    H1 1029   3.910   2.152   0.815
  341TIP3    H2 1030   3.827   2.234   0.718
  342TIP3   OH2 1031   0.847   4.426   0.430
  342TIP3    H1 1032   0.790   4.382   0.367
  342TIP3    H2 1033   0.931   4.434   0.385
  343TIP3   OH2 1034   0.955   1.668   0.717
  343TIP3    H1 1035   0.972   1.762   0.709
  343TIP3    H2 1036   0.875   1.654   0.666
  344TIP3   OH2 1037   0.632   4.621   2.817
  344TIP3    H1 1038   0.601   4.583   2.735
  344TIP3    H2 1039   0.693   4.690   2.790
  345TIP3   OH2 1040   1.867   3.447   4.806
  345TIP3    H1 1041   1.916   3.518   4.847
  345TIP3    H2 1042   1.776   3.461   4.834
  346TIP3   OH2 1043   2.076   4.001   3.270
  346TIP3    H1 1044   2.022   4.046   3.205
  346TIP3    H2 1045   2.063   4.050   3.351
  347TIP3   OH2 1046   5.277   0.907   0.313
  347TIP3    H1 1047   5.235   0.965   0.377
  347TIP3    H2 1048   5.284   0.960   0.234
  348TIP3   OH2 1049   5.893   5.112   2.406
  348TIP3    H1 1050   5.901   5.067   2.322
  348TIP3    H2 1051   5.815   5.074   2.446
  349TIP3   OH2 1052   0.576   4.962   0.430
  349TIP3    H1 1053   0.565   5.046   0.386
  349TIP3    H2 1054   0.647   4.919   0.382
  350TIP3   OH2 1055   0.696   3.790   4.114
  350TIP3    H1 1056   0.648   3.866   4.147
  350TIP3    H2 1057   0.768   3.828   4.063
  351TIP3   OH2 1058   3.785   0.370   1.435
  351TIP3    H1 1059   3.874   0.403   1.428
  351TIP3    H2 1060   3.739   0.407   1.360
  352TIP3   OH2 1061   3.969   5.749   3.948
  352TIP3    H1 1062   3.896   5.765   4.008
  352TIP3    H2 1063   3.930   5.699   3.876
  353TIP3   OH2 1064   4.501   5.790   4.941
  353TIP3    H1 1065   4.446   5.831   5.007
  353TIP3    H2 1066   4.457   5.809   4.858
  354TIP3   OH2 1067   3.382   3.687   3.032
  354TIP3    H1 1068   3.406   3.780   3.031
  354TIP3    H2 1069   3.296   3.684   3.075
  355TIP3   OH2 1070   5.651   3.690   4.722
  355TIP3    H1 1071   5.627   3.601   4.750
  355TIP3    H2 1072   5.608   3.748   4.785
  356TIP3   OH2 1073   2.048   0.173   3.585
  356TIP3    H1 1074   2.073   0.083   3.564
  356TIP3    H2 1075   2.080   0.187   3.674
  357TIP3   OH2 1076   4.025   3.824   3.900
  357TIP3    H1 1077   4.016   3.916   3.924
  357TIP3    H2 1078   3.985   3.776   3.972
  358TIP3   OH2 1079   6.123   4.186   3.055
  358TIP3    H1 1080   6.130   4.216   3.146
  358TIP3    H2 1081   6.213   4.183   3.023
  359TIP3   OH2 1082   2.029   0.159   0.276
  359TIP3    H1 1083   2.004   0.200   0.193
  359TIP3    H2 1084   1.955   0.103   0.299
  360TIP3   OH2 1085   5.513   2.521   4.132
  360TIP3    H1 1086   5.431   2.567   4.114
  360TIP3    H2 1087   5.540   2.485   4.048
  361TIP3   OH2 1088   6.085   5.037   2.568
  361TIP3    H1 1089   6.022   5.055   2.498
  361TIP3    H2 1090   6.088   4.942   2.574
  362TIP3   OH2 1091   2.140   4.050   4.684
  362TIP3    H1 1092   2.110   4.010   4.603
  362TIP3    H2 1093   2.235   4.044   4.681
  363TIP3   OH2 1094   5.487   2.218   2.243
  363TIP3    H1 1095   5.463   2.276   2.316
  363TIP3    H2 1096   5.444   2.135   2.264
  364TIP3   OH2 1097   4.010   1.444   2.079
  364TIP3    H1 1098   4.096   1.471   2.113
  364TIP3    H2 1099   3.976   1.386   2.147
  365TIP3   OH2 1100   3.249   2.295   2.033
  365TIP3    H1 1101   3.324   2.258   2.079
  365TIP3    H2 1102   3.257   2.264   1.943
  366TIP3   OH2 1103   4.191   3.459   0.258
  366TIP3    H1 1104   4.128   3.390   0.280
  366TIP3    H2 1105   4.157   3.496   0.177
  367TIP3   OH2 1106   2.588   5.236   3.158
  367TIP3    H1 1107   2.506   5.241   3.108
  367TIP3    H2 1108   2.656   5.228   3.091
  368TIP3   OH2 1109   1.323   5.018   4.472
  368TIP3    H1 1110   1.317   5.095   4.415
  368TIP3    H2 1111   1.339   4.945   4.412
  369TIP3   OH2 1112   2.150   1.817   2.440
  369TIP3    H1 1113   2.070   1.767   2.428
  369TIP3    H2 1114   2.153   1.878   2.366
  370TIP3   OH2 1115   2.255   5.690   3.497
  370TIP3    H1 1116   2.245   5.667   3.590
  370TIP3    H2 1117   2.267   5.605   3.453
  371TIP3   OH2 1118   0.542   3.492   1.811
  371TIP3    H1 1119   0.499   3.551   1.873
  371TIP3    H2 1120   0.508   3.405   1.832
  372TIP3   OH2 1121   4.238   2.865   0.663
  372TIP3    H1 1122   4.175   2.927   0.628
  372TIP3    H2 1123   4.242   2.885   0.757
  373TIP3   OH2 1124   0.291   4.836   1.850
  373TIP3    H1 1125   0.218   4.828   1.788
  373TIP3    H2 1126   0.251   4.871   1.930
  374TIP3   OH2 1127   1.253   3.248   0.935
  374TIP3    H1 1128   1.242   3.195   0.856
  374TIP3    H2 1129   1.347   3.251   0.950
  375TIP3   OH2 1130   2.757   0.857   2.505
  375TIP3    H1 1131   2.702   0.795   2.554
  375TIP3    H2 1132   2.743   0.834   2.413
  376TIP3   OH2 1133   5.822   1.798   2.172
  376TIP3    H1 1134   5.822   1.835   2.261
  376TIP3    H2 1135   5.753   1.732   2.174
  377TIP3   OH2 1136   0.995   4.951   4.831
  377TIP3    H1 1137   1.079   4.944   4.786
  377TIP3    H2 1138   1.005   4.899   4.911
  378TIP3   OH2 1139   1.446   2.518   3.629
  378TIP3    H1 1140   1.483   2.434   3.656
  378TIP3    H2 1141   1.498   2.583   3.677
  379TIP3   OH2 1142   2.672   0.187   3.954
  379TIP3    H1 1143   2.611   0.143   4.013
  379TIP3    H2 1144   2.619   0.216   3.881
  380TIP3   OH2 1145   1.433   2.773   2.222
  380TIP3    H1 1146   1.499   2.721   2.176
  380TIP3    H2 1147   1.476   2.799   2.303
  381TIP3   OH2 1148   1.901   5.091   4.471
  381TIP3    H1 1149   1.899   5.028   4.398
  381TIP3    H2 1150   1.811   5.095   4.502
  382TIP3   OH2 1151   4.044   3.385   4.570
  382TIP3    H1 1152   4.044   3.295   4.536
  382TIP3    H2 1153   3.988   3.382   4.648
  383TIP3   OH2 1154   6.223   1.685   1.777
  383TIP3    H1 1155   6.137   1.716   1.805
  383TIP3    H2 1156   6.283   1.714   1.846
  384TIP3   OH2 1157   4.139   1.332   3.365
  384TIP3    H1 1158   4.043   1.337   3.362
  384TIP3    H2 1159   4.158   1.274   3.439
  385TIP3   OH2 1160   4.626   2.808   2.563
  385TIP3    H1 1161   4.618   2.713   2.552
  385TIP3    H2 1162   4.666   2.838   2.482
  386TIP3   OH2 1163   4.384   5.399   3.580
  386TIP3    H1 1164   4.433   5.333   3.627
  386TIP3    H2 1165   4.408   5.482   3.622
  387TIP3   OH2 1166   4.214   1.879   3.766
  387TIP3    H1 1167   4.138   1.936   3.769
  387TIP3    H2 1168   4.178   1.790   3.769
  388TIP3   OH2 1169   3.014   2.513   3.755
  388TIP3    H1 1170   3.071   2.555   3.690
  388TIP3    H2 1171   3.074   2.463   3.810
  389TIP3   OH2 1172   0.603   1.262   4.395
  389TIP3    H1 1173   0.618   1.199   4.466
  389TIP3    H2 1174   0.686   1.267   4.348
  390TIP3   OH2 1175   2.748   3.208   2.397
  390TIP3    H1 1176   2.791   3.292   2.415
  390TIP3    H2 1177   2.814   3.156   2.351
  391TIP3   OH2 1178   4.985   0.266   3.141
  391TIP3    H1 1179   5.003   0.245   3.232
  391TIP3    H2 1180   4.894   0.298   3.141
  392TIP3   OH2 1181   2.502   4.968   4.149
  392TIP3    H1 1182   2.455   4.889   4.175
  392TIP3    H2 1183   2.592   4.953   4.177
  393TIP3   OH2 1184   0.551   4.376   5.176
  393TIP3    H1 1185   0.606   4.400   5.101
  393TIP3    H2 1186   0.488   4.314   5.139
  394TIP3   OH2 1187   2.068   2.276   4.326
  394TIP3    H1 1188   2.122   2.353   4.339
  394TIP3    H2 1189   2.016   2.296   4.248
  395TIP3   OH2 1190   1.599   2.423   0.276
  395TIP3    H1 1191   1.583   2.517   0.267
  395TIP3    H2 1192   1.525   2.381   0.232
  396TIP3   OH2 1193   1.934   2.805   1.671
  396TIP3    H1 1194   1.875   2.867   1.628
  396TIP3    H2 1195   2.020   2.846   1.664
  397TIP3   OH2 1196   1.574   4.259   4.405
  397TIP3    H1 1197   1.529   4.325   4.456
  397TIP3    H2 1198   1.648   4.305   4.366
  398TIP3   OH2 1199   4.518   1.650   1.281
  398TIP3    H1 1200   4.559   1.730   1.315
  398TIP3    H2 1201   4.578   1.620   1.213
  399TIP3   OH2 1202   2.410   1.419   5.016
  399TIP3    H1 1203   2.341   1.353   5.009
  399TIP3    H2 1204   2.444   1.429   4.927
  400TIP3   OH2 1205   4.181   3.613   1.243
  400TIP3    H1 1206   4.132   3.695   1.231
  400TIP3    H2 1207   4.135   3.568   1.314
  401TIP3   OH2 1208   2.361   4.470   4.735
  401TIP3    H1 1209   2.383   4.384   4.772
  401TIP3    H2 1210   2.296   4.506   4.796
  402TIP3   OH2 1211   0.255   1.155   0.228
  402TIP3    H1 1212   0.183   1.206   0.265
  402TIP3    H2 1213   0.300   1.216   0.170
  403TIP3   OH2 1214   3.429   1.411   3.503
  403TIP3    H1 1215   3.489   1.391   3.432
  403TIP3    H2 1216   3.421   1.507   3.501
  404TIP3   OH2 1217   1.691   1.815   2.308
  404TIP3    H1 1218   1.647   1.895   2.279
  404TIP3    H2 1219   1.692   1.759   2.230
  405TIP3   OH2 1220   2.182   5.335   0.973
  405TIP3    H1 1221   2.187   5.289   0.889
  405TIP3    H2 1222   2.259   5.304   1.022
  406TIP3   OH2 1223   3.378   2.624   2.374
  406TIP3    H1 1224   3.432   2.671   2.438
  406TIP3    H2 1225   3.297   2.606   2.422
  407TIP3   OH2 1226   5.562   3.594   0.044
  407TIP3    H1 1227   5.475   3.565   0.072
  407TIP3    H2 1228   5.559   3.689   0.049
  408TIP3   OH2 1229   5.700   1.773   0.403
  408TIP3    H1 1230   5.785   1.817   0.406
  408TIP3    H2 1231   5.705   1.706   0.471
  409TIP3   OH2 1232   4.459   0.352   3.335
  409TIP3    H1 1233   4.500   0.438   3.346
  409TIP3    H2 1234   4.435   0.325   3.423
  410TIP3   OH2 1235   4.751   0.895   1.496
  410TIP3    H1 1236   4.660   0.917   1.474
  410TIP3    H2 1237   4.759   0.918   1.589
  411TIP3   OH2 1238   4.871   2.375   3.926
  411TIP3    H1 1239   4.949   2.372   3.981
  411TIP3    H2 1240   4.886   2.310   3.858
  412TIP3   OH2 1241   5.334   5.882   3.067
  412TIP3    H1 1242   5.429   5.894   3.075
  412TIP3    H2 1243   5.305   5.952   3.008
  413TIP3   OH2 1244   1.231   5.182   2.051
  413TIP3    H1 1245   1.171   5.231   2.108
  413TIP3    H2 1246   1.210   5.090   2.069
  414TIP3   OH2 1247   6.303   5.747   0.086
  414TIP3    H1 1248   6.307   5.667   0.138
  414TIP3    H2 1249   6.370   5.804   0.123
  415TIP3   OH2 1250   2.331   3.911   5.092
  415TIP3    H1 1251   2.360   3.833   5.139
  415TIP3    H2 1252   2.398   3.976   5.110
  416TIP3   OH2 1253   0.542   2.614   0.936
  416TIP3    H1 1254   0.510   2.680   0.997
  416TIP3    H2 1255   0.592   2.553   0.990
  417TIP3   OH2 1256   5.112   3.713   4.772
  417TIP3    H1 1257   5.078   3.640   4.824
  417TIP3    H2 1258   5.054   3.717   4.696
  418TIP3   OH2 1259   1.169   0.863   0.820
  418TIP3    H1 1260   1.082   0.885   0.788
  418TIP3    H2 1261   1.178   0.911   0.902
  419TIP3   OH2 1262   1.063   3.724   2.482
  419TIP3    H1 1263   1.097   3.643   2.521
  419TIP3    H2 1264   0.982   3.698   2.439
  420TIP3   OH2 1265   3.924   4.794   5.086
  420TIP3    H1 1266   3.834   4.761   5.082
  420TIP3    H2 1267   3.951   4.777   5.176
  421TIP3   OH2 1268   6.324   3.132   2.798
  421TIP3    H1 1269   6.415   3.158   2.786
  421TIP3    H2 1270   6.299   3.093   2.714
  422TIP3   OH2 1271   5.528   1.846   1.659
  422TIP3    H1 1272   5.474   1.921   1.683
  422TIP3    H2 1273   5.480   1.804   1.588
  423TIP3   OH2 1274   2.061   1.427   4.877
  423TIP3    H1 1275   2.041   1.500   4.820
  423TIP3    H2 1276   2.062   1.464   4.965
  424TIP3   OH2 1277   4.704   3.549   4.858
  424TIP3    H1 1278   4.660   3.592   4.784
  424TIP3    H2 1279   4.642   3.483   4.888
  425TIP3   OH2 1280   4.064   5.897   0.538
  425TIP3    H1 1281   4.136   5.920   0.479
  425TIP3    H2 1282   4.107   5.867   0.618
  426TIP3   OH2 1283   3.423   5.356   3.877
  426TIP3    H1 1284   3.386   5.440   3.848
  426TIP3    H2 1285   3.348   5.297   3.882
  427TIP3   OH2 1286   3.722   4.909   3.177
  427TIP3    H1 1287   3.772   4.849   3.232
  427TIP3    H2 1288   3.773   4.916   3.096
  428TIP3   OH2 1289   2.889   0.484   2.373
  428TIP3    H1 1290   2.925   0.416   2.317
  428TIP3    H2 1291   2.794   0.475   2.365
  429TIP3   OH2 1292   5.841   5.895   0.910
  429TIP3    H1 1293   5.892   5.883   0.990
  429TIP3    H2 1294   5.809   5.985   0.915
  430TIP3   OH2 1295   5.391   2.405   0.083
  430TIP3    H1 1296   5.429   2.424  -0.002
  430TIP3    H2 1297   5.300   2.433   0.076
  431TIP3   OH2 1298   6.080   3.386   4.467
  431TIP3    H1 1299   6.168   3.369   4.501
  431TIP3    H2 1300   6.091   3.462   4.410
  432TIP3   OH2 1301   0.728   4.363   2.247
  432TIP3    H1 1302   0.708   4.451   2.279
  432TIP3    H2 1303   0.767   4.377   2.161
  433TIP3   OH2 1304   3.119   5.362   1.027
  433TIP3    H1 1305   3.177   5.362   1.104
  433TIP3    H2 1306   3.050   5.300   1.048
  434TIP3   OH2 1307   1.690   0.277   2.300
  434TIP3    H1 1308   1.726   0.269   2.211
  434TIP3    H2 1309   1.618   0.340   2.291
  435TIP3   OH2 1310   4.219   0.708   3.712
  435TIP3    H1 1311   4.239   0.668   3.797
  435TIP3    H2 1312   4.252   0.645   3.648
  436TIP3   OH2 1313   1.652   5.318   3.680
  436TIP3    H1 1314   1.720   5.358   3.735
  436TIP3    H2 1315   1.664   5.224   3.691
  437TIP3   OH2 1316   3.608   1.895   1.942
  437TIP3    H1 1317   3.674   1.831   1.915
  437TIP3    H2 1318   3.645   1.980   1.917
  438TIP3   OH2 1319   3.658   2.714   2.935
  438TIP3    H1 1320   3.700   2.753   2.858
  438TIP3    H2 1321   3.565   2.724   2.920
  439TIP3   OH2 1322   1.192   0.546   3.325
  439TIP3    H1 1323   1.265   0.605   3.303
  439TIP3    H2 1324   1.146   0.533   3.243
  440TIP3   OH2 1325   1.186   1.302   1.206
  440TIP3    H1 1326   1.259   1.242   1.187
  440TIP3    H2 1327   1.217   1.387   1.175
  441TIP3   OH2 1328   3.373   0.873   5.092
  441TIP3    H1 1329   3.287   0.901   5.125
  441TIP3    H2 1330   3.366   0.881   4.997
  442TIP3   OH2 1331   2.348   3.916   3.349
  442TIP3    H1 1332   2.409   3.980   3.312
  442TIP3    H2 1333   2.262   3.947   3.321
  443TIP3   OH2 1334   4.444   3.173   0.071
  443TIP3    H1 1335   4.366   3.152   0.019
  443TIP3    H2 1336   4.503   3.218   0.011
  444TIP3   OH2 1337   3.196   3.666   2.018
  444TIP3    H1 1338   3.142   3.708   2.084
  444TIP3    H2 1339   3.239   3.594   2.065
  445TIP3   OH2 1340   4.592   4.066   5.114
  445TIP3    H1 1341   4.553   4.027   5.192
  445TIP3    H2 1342   4.624   3.991   5.063
  446TIP3   OH2 1343   1.604   0.988   4.383
  446TIP3    H1 1344   1.674   1.005   4.445
  446TIP3    H2 1345   1.562   1.073   4.368
  447TIP3   OH2 1346   4.429   5.029   3.026
  447TIP3    H1 1347   4.500   5.028   3.090
  447TIP3    H2 1348   4.353   4.996   3.073
  448TIP3   OH2 1349   0.753   3.914   2.172
  448TIP3    H1 1350   0.830   3.866   2.142
  448TIP3    H2 1351   0.789   3.997   2.205
  449TIP3   OH2 1352   5.781   5.280   0.695
  449TIP3    H1 1353   5.732   5.257   0.774
  449TIP3    H2 1354   5.775   5.202   0.640
  450TIP3   OH2 1355   5.848   4.037   0.449
  450TIP3    H1 1356   5.834   4.042   0.355
  450TIP3    H2 1357   5.931   3.990   0.459
  451TIP3   OH2 1358   6.077   5.821   2.684
  451TIP3    H1 1359   6.079   5.728   2.659
  451TIP3    H2 1360   6.043   5.821   2.773
  452TIP3   OH2 1361   1.862   2.472   1.074
  452TIP3    H1 1362   1.805   2.398   1.097
  452TIP3    H2 1363   1.942   2.431   1.042
  453TIP3   OH2 1364   4.997   2.580   1.902
  453TIP3    H1 1365   4.939   2.537   1.839
  453TIP3    H2 1366   5.049   2.641   1.848
  454TIP3   OH2 1367   5.770   2.263   1.358
  454TIP3    H1 1368   5.760   2.335   1.296
  454TIP3    H2 1369   5.830   2.298   1.424
  455TIP3   OH2 1370   5.226   4.551   4.395
  455TIP3    H1 1371   5.291   4.599   4.446
  455TIP3    H2 1372   5.182   4.619   4.343
  456TIP3   OH2 1373   5.426   3.381   4.069
  456TIP3    H1 1374   5.509   3.394   4.113
  456TIP3    H2 1375   5.367   3.349   4.138
  457TIP3   OH2 1376   4.923   2.739   0.795
  457TIP3    H1 1377   4.841   2.754   0.842
  457TIP3    H2 1378   4.971   2.677   0.850
  458TIP3   OH2 1379   2.520   2.741   2.251
  458TIP3    H1 1380   2.555   2.805   2.189
  458TIP3    H2 1381   2.582   2.668   2.247
  459TIP3   OH2 1382   5.422   3.834   4.300
  459TIP3    H1 1383   5.472   3.781   4.237
  459TIP3    H2 1384   5.352   3.776   4.329
  460TIP3   OH2 1385   0.205   5.598   0.194
  460TIP3    H1 1386   0.275   5.541   0.229
  460TIP3    H2 1387   0.127   5.543   0.194
  461TIP3   OH2 1388   2.600   2.571   4.444
  461TIP3    H1 1389   2.642   2.486   4.455
  461TIP3    H2 1390   2.611   2.614   4.529
  462TIP3   OH2 1391   1.231   3.997   4.329
  462TIP3    H1 1392   1.294   3.963   4.391
  462TIP3    H2 1393   1.234   3.936   4.255
  463TIP3   OH2 1394   2.449   3.894   0.047
  463TIP3    H1 1395   2.394   3.828   0.005
  463TIP3    H2 1396   2.536   3.855   0.047
  464TIP3   OH2 1397   0.156   1.200   3.147
  464TIP3    H1 1398   0.241   1.233   3.118
  464TIP3    H2 1399   0.168   1.106   3.157
  465TIP3   OH2 1400   5.456   3.409   1.070
  465TIP3    H1 1401   5.512   3.376   1.140
  465TIP3    H2 1402   5.367   3.387   1.099
  466TIP3   OH2 1403   1.216   4.324   1.768
  466TIP3    H1 1404   1.205   4.362   1.681
  466TIP3    H2 1405   1.276   4.251   1.755
  467TIP3   OH2 1406   3.038   4.946   4.241
  467TIP3    H1 1407   3.110   4.909   4.293
  467TIP3    H2 1408   3.079   4.972   4.159
  468TIP3   OH2 1409   5.923   3.887   0.767
  468TIP3    H1 1410   5.946   3.976   0.741
  468TIP3    H2 1411   5.885   3.896   0.854
  469TIP3   OH2 1412   3.039   5.688   3.462
  469TIP3    H1 1413   2.948   5.682   3.433
  469TIP3    H2 1414   3.089   5.650   3.390
  470TIP3   OH2 1415   4.734   4.220   1.611
  470TIP3    H1 1416   4.781   4.138   1.596
  470TIP3    H2 1417   4.771   4.280   1.546
  471TIP3   OH2 1418   5.946   4.720   0.144
  471TIP3    H1 1419   5.948   4.640   0.197
  471TIP3    H2 1420   5.970   4.692   0.056
  472TIP3   OH2 1421   5.072   0.358   4.748
  472TIP3    H1 1422   5.135   0.342   4.819
  472TIP3    H2 1423   4.989   0.326   4.783
  473TIP3   OH2 1424   1.494   4.043   4.576
  473TIP3    H1 1425   1.428   4.110   4.559
  473TIP3    H2 1426   1.547   4.041   4.497
  474TIP3   OH2 1427   2.016   4.464   3.051
  474TIP3    H1 1428   2.079   4.418   3.106
  474TIP3    H2 1429   2.008   4.551   3.091
  475TIP3   OH2 1430   0.749   2.763   1.712
  475TIP3    H1 1431   0.723   2.828   1.646
  475TIP3    H2 1432   0.685   2.692   1.701
  476TIP3   OH2 1433   3.184   4.437   1.314
  476TIP3    H1 1434   3.165   4.484   1.395
  476TIP3    H2 1435   3.112   4.460   1.255
  477TIP3   OH2 1436   5.262   5.922   0.452
  477TIP3    H1 1437   5.348   5.943   0.416
  477TIP3    H2 1438   5.262   5.963   0.539
  478TIP3   OH2 1439   2.833   3.632   1.011
  478TIP3    H1 1440   2.905   3.600   1.066
  478TIP3    H2 1441   2.825   3.566   0.942
  479TIP3   OH2 1442   4.329   2.087   3.541
  479TIP3    H1 1443   4.356   2.178   3.552
  479TIP3    H2 1444   4.258   2.075   3.604
  480TIP3   OH2 1445   5.692   0.565   0.791
  480TIP3    H1 1446   5.615   0.608   0.754
  480TIP3    H2 1447   5.664   0.532   0.876
  481TIP3   OH2 1448   1.394   5.174   0.973
  481TIP3    H1 1449   1.318   5.232   0.986
  481TIP3    H2 1450   1.372   5.095   1.022
  482TIP3   OH2 1451   2.971   1.416   3.871
  482TIP3    H1 1452   2.997   1.486   3.930
  482TIP3    H2 1453   2.884   1.441   3.840
  483TIP3   OH2 1454   3.913   5.694   1.370
  483TIP3    H1 1455   3.880   5.604   1.370
  483TIP3    H2 1456   3.997   5.689   1.416
  484TIP3   OH2 1457   5.739   0.030   4.533
  484TIP3    H1 1458   5.693   0.111   4.558
  484TIP3    H2 1459   5.690  -0.039   4.578
  485TIP3   OH2 1460   2.658   5.298   0.745
  485TIP3    H1 1461   2.572   5.335   0.726
  485TIP3    H2 1462   2.696   5.283   0.659
  486TIP3   OH2 1463   1.366   3.762   0.907
  486TIP3    H1 1464   1.334   3.807   0.829
  486TIP3    H2 1465   1.293   3.706   0.934
  487TIP3   OH2 1466   2.225   0.966   1.878
  487TIP3    H1 1467   2.190   1.025   1.811
  487TIP3    H2 1468   2.222   0.879   1.838
  488TIP3   OH2 1469   3.288   4.990   0.370
  488TIP3    H1 1470   3.202   4.953   0.388
  488TIP3    H2 1471   3.334   4.922   0.322
  489TIP3   OH2 1472   1.357   5.365   4.629
  489TIP3    H1 1473   1.290   5.433   4.629
  489TIP3    H2 1474   1.311   5.286   4.657
  490TIP3   OH2 1475   1.393   2.696   4.045
  490TIP3    H1 1476   1.486   2.715   4.035
  490TIP3    H2 1477   1.387   2.601   4.034
  491TIP3   OH2 1478   2.322   3.532   1.550
  491TIP3    H1 1479   2.318   3.439   1.528
  491TIP3    H2 1480   2.241   3.568   1.515
  492TIP3   OH2 1481   1.329   4.818   1.530
  492TIP3    H1 1482   1.381   4.897   1.517
  492TIP3    H2 1483   1.288   4.830   1.616
  493TIP3   OH2 1484   0.381   2.533   4.652
  493TIP3    H1 1485   0.418   2.564   4.734
  493TIP3    H2 1486   0.288   2.551   4.659
  494TIP3   OH2 1487   2.563   5.905   1.392
  494TIP3    H1 1488   2.558   5.907   1.488
  494TIP3    H2 1489   2.655   5.890   1.373
  495TIP3   OH2 1490   5.389   5.131   0.213
  495TIP3    H1 1491   5.304   5.089   0.201
  495TIP3    H2 1492   5.451   5.059   0.210
  496TIP3   OH2 1493   1.984   1.373   5.147
  496TIP3    H1 1494   1.934   1.312   5.093
  496TIP3    H2 1495   1.927   1.392   5.222
  497TIP3   OH2 1496   2.391   0.887   2.105
  497TIP3    H1 1497   2.316   0.856   2.157
  497TIP3    H2 1498   2.354   0.904   2.018
  498TIP3   OH2 1499   2.503   5.155   4.652
  498TIP3    H1 1500   2.465   5.243   4.656
  498TIP3    H2 1501   2.493   5.120   4.741
  499TIP3   OH2 1502   0.325   3.131   3.719
  499TIP3    H1 1503   0.279   3.114   3.801
  499TIP3    H2 1504   0.327   3.046   3.674
  500TIP3   OH2 1505   0.088   2.619   1.557
  500TIP3    H1 1506   0.030   2.543   1.553
  500TIP3    H2 1507   0.093   2.650   1.466
  501TIP3   OH2 1508   3.566  -0.031   4.806
  501TIP3    H1 1509   3.561  -0.116   4.849
  501TIP3    H2 1510   3.595  -0.050   4.717
  502TIP3   OH2 1511   3.428   1.374   2.724
  502TIP3    H1 1512   3.335   1.354   2.721
  502TIP3    H2 1513   3.433   1.456   2.773
  503TIP3   OH2 1514   4.535   2.299   0.120
  503TIP3    H1 1515   4.567   2.211   0.143
  503TIP3    H2 1516   4.455   2.310   0.171
  504TIP3   OH2 1517   0.592   0.509   0.665
  504TIP3    H1 1518   0.497   0.516   0.660
  504TIP3    H2 1519   0.624   0.594   0.633
  505TIP3   OH2 1520   0.779   0.222   1.458
  505TIP3    H1 1521   0.775   0.259   1.547
  505TIP3    H2 1522   0.698   0.172   1.449
  506TIP3   OH2 1523   0.046   3.136   4.873
  506TIP3    H1 1524   0.074   3.213   4.824
  506TIP3    H2 1525  -0.045   3.123   4.849
  507TIP3   OH2 1526   4.254   3.998   3.338
  507TIP3    H1 1527   4.213   4.073   3.382
  507TIP3    H2 1528   4.203   3.923   3.366
  508TIP3   OH2 1529   6.288   0.954   1.605
  508TIP3    H1 1530   6.192   0.964   1.604
  508TIP3    H2 1531   6.321   1.044   1.594
  509TIP3   OH2 1532   2.041   0.084   0.626
  509TIP3    H1 1533   2.096   0.007   0.639
  509TIP3    H2 1534   1.952   0.054   0.643
  510TIP3   OH2 1535   6.208   1.047   0.385
  510TIP3    H1 1536   6.134   0.986   0.395
  510TIP3    H2 1537   6.189   1.094   0.304
  511TIP3   OH2 1538   2.236   1.742   4.817
  511TIP3    H1 1539   2.141   1.745   4.825
  511TIP3    H2 1540   2.256   1.796   4.741
  512TIP3   OH2 1541   2.528   3.013   4.927
  512TIP3    H1 1542   2.617   3.045   4.942
  512TIP3    H2 1543   2.484   3.083   4.879
  513TIP3   OH2 1544   2.311   0.277   2.821
  513TIP3    H1 1545   2.236   0.287   2.763
  513TIP3    H2 1546   2.317   0.182   2.836
  514TIP3   OH2 1547   2.206   3.382   2.543
  514TIP3    H1 1548   2.289   3.421   2.514
  514TIP3    H2 1549   2.225   3.344   2.628
  515TIP3   OH2 1550   4.042   3.058   2.331
  515TIP3    H1 1551   4.054   2.964   2.342
  515TIP3    H2 1552   4.070   3.096   2.414
  516TIP3   OH2 1553   3.235   1.269   2.148
  516TIP3    H1 1554   3.290   1.302   2.077
  516TIP3    H2 1555   3.274   1.185   2.173
  517TIP3   OH2 1556   0.998   5.947   0.521
  517TIP3    H1 1557   1.000   5.965   0.615
  517TIP3    H2 1558   0.992   5.851   0.515
  518TIP3   OH2 1559   4.600   5.062   3.895
  518TIP3    H1 1560   4.589   5.045   3.802
  518TIP3    H2 1561   4.577   5.155   3.906
  519TIP3   OH2 1562   5.627   0.765   0.303
  519TIP3    H1 1563   5.712   0.726   0.284
  519TIP3    H2 1564   5.644   0.859   0.308
  520TIP3   OH2 1565   1.891   4.984   0.891
  520TIP3    H1 1566   1.890   4.911   0.953
  520TIP3    H2 1567   1.823   5.043   0.924
  521TIP3   OH2 1568   1.521   3.272   0.981
  521TIP3    H1 1569   1.524   3.359   0.943
  521TIP3    H2 1570   1.612   3.242   0.981
  522TIP3   OH2 1571   4.931   4.221   4.581
  522TIP3    H1 1572   5.013   4.223   4.631
  522TIP3    H2 1573   4.870   4.273   4.633
  523TIP3   OH2 1574   1.359   1.203   3.474
  523TIP3    H1 1575   1.366   1.253   3.555
  523TIP3    H2 1576   1.433   1.143   3.476
  524TIP3   OH2 1577   5.735   3.315   2.826
  524TIP3    H1 1578   5.803   3.253   2.851
  524TIP3    H2 1579   5.653   3.266   2.838
  525TIP3   OH2 1580   2.088   3.576   5.164
  525TIP3    H1 1581   2.123   3.497   5.205
  525TIP3    H2 1582   2.080   3.554   5.071
  526TIP3   OH2 1583   4.400   3.138   3.207
  526TIP3    H1 1584   4.462   3.095   3.149
  526TIP3    H2 1585   4.425   3.109   3.295
  527TIP3   OH2 1586   3.860   2.023   2.809
  527TIP3    H1 1587   3.831   2.114   2.821
  527TIP3    H2 1588   3.812   1.993   2.732
  528TIP3   OH2 1589   0.534   0.304   1.266
  528TIP3    H1 1590   0.529   0.232   1.328
  528TIP3    H2 1591   0.565   0.378   1.318
  529TIP3   OH2 1592   0.728   2.186   1.523
  529TIP3    H1 1593   0.731   2.112   1.584
  529TIP3    H2 1594   0.788   2.251   1.560
  530TIP3   OH2 1595   1.602   3.654   4.609
  530TIP3    H1 1596   1.559   3.600   4.676
  530TIP3    H2 1597   1.587   3.744   4.637
  531TIP3   OH2 1598   4.395   2.458   4.040
  531TIP3    H1 1599   4.344   2.508   3.977
  531TIP3    H2 1600   4.460   2.412   3.988
  532TIP3   OH2 1601   0.235   0.294   2.442
  532TIP3    H1 1602   0.215   0.325   2.353
  532TIP3    H2 1603   0.220   0.200   2.439
  533TIP3   OH2 1604   3.283   2.864   0.684
  533TIP3    H1 1605   3.231   2.843   0.762
  533TIP3    H2 1606   3.360   2.807   0.691
  534TIP3   OH2 1607   0.213   4.185   4.599
  534TIP3    H1 1608   0.195   4.098   4.635
  534TIP3    H2 1609   0.174   4.184   4.512
  535TIP3   OH2 1610   3.515   4.737   4.765
  535TIP3    H1 1611   3.504   4.829   4.787
  535TIP3    H2 1612   3.563   4.737   4.682
  536TIP3   OH2 1613   2.692   4.444   0.574
  536TIP3    H1 1614   2.746   4.396   0.637
  536TIP3    H2 1615   2.604   4.412   0.589
  537TIP3   OH2 1616   4.320   5.229   1.966
  537TIP3    H1 1617   4.386   5.298   1.949
  537TIP3    H2 1618   4.314   5.182   1.883
  538TIP3   OH2 1619   0.170   4.869   0.934
  538TIP3    H1 1620   0.137   4.800   0.876
  538TIP3    H2 1621   0.095   4.893   0.988
  539TIP3   OH2 1622   3.585   1.325  -0.038
  539TIP3    H1 1623   3.680   1.313  -0.048
  539TIP3    H2 1624   3.573   1.339   0.056
  540TIP3   OH2 1625   1.076   0.396   3.964
  540TIP3    H1 1626   0.992   0.435   3.939
  540TIP3    H2 1627   1.093   0.430   4.052
  541TIP3   OH2 1628   3.727   5.648   1.922
  541TIP3    H1 1629   3.731   5.574   1.862
  541TIP3    H2 1630   3.772   5.719   1.876
  542TIP3   OH2 1631   3.130   2.505   0.061
  542TIP3    H1 1632   3.153   2.422   0.102
  542TIP3    H2 1633   3.036   2.514   0.075
  543TIP3   OH2 1634   3.289   1.479   4.143
  543TIP3    H1 1635   3.213   1.420   4.150
  543TIP3    H2 1636   3.301   1.490   4.048
  544TIP3   OH2 1637   2.488   4.279   4.878
  544TIP3    H1 1638   2.489   4.183   4.888
  544TIP3    H2 1639   2.579   4.305   4.888
  545TIP3   OH2 1640   4.743   2.565   5.078
  545TIP3    H1 1641   4.725   2.650   5.116
  545TIP3    H2 1642   4.830   2.541   5.113
  546TIP3   OH2 1643   0.413   4.791   3.112
  546TIP3    H1 1644   0.408   4.702   3.145
  546TIP3    H2 1645   0.355   4.841   3.168
  547TIP3   OH2 1646   3.494   1.842   1.626
  547TIP3    H1 1647   3.489   1.916   1.686
  547TIP3    H2 1648   3.423   1.785   1.653
  548TIP3   OH2 1649   0.466   4.539   4.517
  548TIP3    H1 1650   0.451   4.632   4.498
  548TIP3    H2 1651   0.408   4.521   4.591
  549TIP3   OH2 1652   5.072   3.246   1.337
  549TIP3    H1 1653   5.059   3.340   1.344
  549TIP3    H2 1654   5.040   3.211   1.421
  550TIP3   OH2 1655   1.723   2.680   2.734
  550TIP3    H1 1656   1.756   2.653   2.820
  550TIP3    H2 1657   1.642   2.630   2.724
  551TIP3   OH2 1658   0.439   0.416   1.024
  551TIP3    H1 1659   0.485   0.360   0.961
  551TIP3    H2 1660   0.431   0.361   1.103
  552TIP3   OH2 1661   2.117   4.836   4.687
  552TIP3    H1 1662   2.194   4.832   4.744
  552TIP3    H2 1663   2.133   4.911   4.630
  553TIP3   OH2 1664   4.747   0.029   4.727
  553TIP3    H1 1665   4.792  -0.054   4.708
  553TIP3    H2 1666   4.708   0.054   4.643
  554TIP3   OH2 1667   0.585   0.925   1.861
  554TIP3    H1 1668   0.575   0.998   1.922
  554TIP3    H2 1669   0.679   0.907   1.860
  555TIP3   OH2 1670   3.037   4.232   1.888
  555TIP3    H1 1671   3.067   4.142   1.883
  555TIP3    H2 1672   3.026   4.259   1.797
  556TIP3   OH2 1673   0.854   3.507   4.412
  556TIP3    H1 1674   0.837   3.487   4.320
  556TIP3    H2 1675   0.936   3.462   4.431
  557TIP3   OH2 1676   5.368   0.655   0.228
  557TIP3    H1 1677   5.462   0.649   0.245
  557TIP3    H2 1678   5.344   0.742   0.261
  558TIP3   OH2 1679   3.665   3.453   3.304
  558TIP3    H1 1680   3.649   3.360   3.318
  558TIP3    H2 1681   3.756   3.458   3.275
  559TIP3   OH2 1682   5.077   2.683   4.309
  559TIP3    H1 1683   5.108   2.744   4.376
  559TIP3    H2 1684   4.983   2.674   4.327
  560TIP3   OH2 1685   5.418   5.488   3.476
  560TIP3    H1 1686   5.382   5.400   3.465
  560TIP3    H2 1687   5.438   5.517   3.387
  561TIP3   OH2 1688   6.208   1.107   4.281
  561TIP3    H1 1689   6.211   1.053   4.202
  561TIP3    H2 1690   6.248   1.190   4.255
  562TIP3   OH2 1691   1.081   1.279   2.902
  562TIP3    H1 1692   0.988   1.296   2.917
  562TIP3    H2 1693   1.114   1.360   2.864
  563TIP3   OH2 1694   0.061   3.304   0.881
  563TIP3    H1 1695   0.103   3.374   0.831
  563TIP3    H2 1696   0.124   3.282   0.949
  564TIP3   OH2 1697   2.533   1.895   1.567
  564TIP3    H1 1698   2.603   1.960   1.563
  564TIP3    H2 1699   2.506   1.883   1.476
  565TIP3   OH2 1700   1.264   1.421   0.374
  565TIP3    H1 1701   1.228   1.464   0.452
  565TIP3    H2 1702   1.188   1.380   0.332
  566TIP3   OH2 1703   3.779   1.631   1.660
  566TIP3    H1 1704   3.757   1.547   1.700
  566TIP3    H2 1705   3.849   1.611   1.599
  567TIP3   OH2 1706   1.631   0.120   1.758
  567TIP3    H1 1707   1.724   0.140   1.746
  567TIP3    H2 1708   1.603   0.086   1.673
  568TIP3   OH2 1709   2.636   3.703   2.595
  568TIP3    H1 1710   2.716   3.736   2.554
  568TIP3    H2 1711   2.643   3.731   2.686
  569TIP3   OH2 1712   2.371   5.887   0.330
  569TIP3    H1 1713   2.421   5.936   0.395
  569TIP3    H2 1714   2.414   5.801   0.327
  570TIP3   OH2 1715   0.357   5.446   4.199
  570TIP3    H1 1716   0.453   5.442   4.208
  570TIP3    H2 1717   0.326   5.364   4.237
  571TIP3   OH2 1718   0.139   4.474   0.921
  571TIP3    H1 1719   0.168   4.470   0.830
  571TIP3    H2 1720   0.087   4.554   0.926
  572TIP3   OH2 1721   4.745   4.473   0.682
  572TIP3    H1 1722   4.810   4.507   0.620
  572TIP3    H2 1723   4.783   4.390   0.711
  573TIP3   OH2 1724   1.005   4.554   0.834
  573TIP3    H1 1725   1.092   4.540   0.873
  573TIP3    H2 1726   0.998   4.649   0.826
  574TIP3   OH2 1727   1.750   0.846   4.149
  574TIP3    H1 1728   1.767   0.754   4.169
  574TIP3    H2 1729   1.655   0.855   4.158
  575TIP3   OH2 1730   5.381   3.382   2.433
  575TIP3    H1 1731   5.438   3.458   2.433
  575TIP3    H2 1732   5.415   3.326   2.503
  576TIP3   OH2 1733   1.013   2.919   3.447
  576TIP3    H1 1734   1.082   2.888   3.506
  576TIP3    H2 1735   0.962   2.841   3.428
  577TIP3   OH2 1736   5.075   4.400   4.995
  577TIP3    H1 1737   5.099   4.466   5.059
  577TIP3    H2 1738   5.051   4.323   5.048
  578TIP3   OH2 1739   3.815   4.178   0.217
  578TIP3    H1 1740   3.811   4.119   0.142
  578TIP3    H2 1741   3.796   4.122   0.293
  579TIP3   OH2 1742   1.236   3.219   0.324
  579TIP3    H1 1743   1.155   3.266   0.343
  579TIP3    H2 1744   1.208   3.128   0.312
  580TIP3   OH2 1745   1.639   4.761   3.818
  580TIP3    H1 1746   1.564   4.743   3.875
  580TIP3    H2 1747   1.715   4.758   3.876
  581TIP3   OH2 1748   3.779   5.961   3.717
  581TIP3    H1 1749   3.820   5.880   3.686
  581TIP3    H2 1750   3.723   5.934   3.789
  582TIP3   OH2 1751   4.379   3.449   2.354
  582TIP3    H1 1752   4.409   3.359   2.364
  582TIP3    H2 1753   4.328   3.448   2.273
  583TIP3   OH2 1754   6.047   1.581   0.205
  583TIP3    H1 1755   6.110   1.510   0.197
  583TIP3    H2 1756   6.093   1.657   0.168
  584TIP3   OH2 1757   2.004   1.361   0.030
  584TIP3    H1 1758   2.079   1.420   0.018
  584TIP3    H2 1759   1.991   1.358   0.125
  585TIP3   OH2 1760   3.741   0.724   5.064
  585TIP3    H1 1761   3.660   0.672   5.068
  585TIP3    H2 1762   3.809   0.659   5.046
  586TIP3   OH2 1763   3.116   0.433   1.827
  586TIP3    H1 1764   3.118   0.345   1.864
  586TIP3    H2 1765   3.119   0.491   1.903
  587TIP3   OH2 1766   3.446   2.175   1.804
  587TIP3    H1 1767   3.371   2.148   1.751
  587TIP3    H2 1768   3.504   2.221   1.742
  588TIP3   OH2 1769   1.098   0.146   5.115
  588TIP3    H1 1770   1.122   0.226   5.068
  588TIP3    H2 1771   1.033   0.174   5.179
  589TIP3   OH2 1772   0.239   4.698   4.216
  589TIP3    H1 1773   0.255   4.605   4.201
  589TIP3    H2 1774   0.279   4.717   4.301
  590TIP3   OH2 1775   0.036   1.108   4.565
  590TIP3    H1 1776  -0.054   1.140   4.558
  590TIP3    H2 1777   0.077   1.132   4.482
  591TIP3   OH2 1778   3.030   3.834   1.271
  591TIP3    H1 1779   3.065   3.917   1.239
  591TIP3    H2 1780   3.078   3.768   1.221
  592TIP3   OH2 1781   5.073   1.711   2.259
  592TIP3    H1 1782   5.136   1.649   2.296
  592TIP3    H2 1783   5.064   1.779   2.325
  593TIP3   OH2 1784   1.471   0.364   5.088
  593TIP3    H1 1785   1.477   0.445   5.038
  593TIP3    H2 1786   1.480   0.392   5.180
  594TIP3   OH2 1787   2.235   1.180   5.010
  594TIP3    H1 1788   2.296   1.148   4.944
  594TIP3    H2 1789   2.158   1.206   4.961
  595TIP3   OH2 1790   0.799   2.972   3.027
  595TIP3    H1 1791   0.744   3.045   2.996
  595TIP3    H2 1792   0.785   2.903   2.963
  596TIP3   OH2 1793   1.812   5.153   1.828
  596TIP3    H1 1794   1.893   5.201   1.815
  596TIP3    H2 1795   1.820   5.114   1.915
  597TIP3   OH2 1796   6.201   2.186   0.776
  597TIP3    H1 1797   6.283   2.208   0.731
  597TIP3    H2 1798   6.228   2.161   0.864
  598TIP3   OH2 1799   3.060   4.422   1.619
  598TIP3    H1 1800   2.987   4.409   1.559
  598TIP3    H2 1801   3.040   4.504   1.664
  599TIP3   OH2 1802   3.799   2.157   4.837
  599TIP3    H1 1803   3.857   2.151   4.913
  599TIP3    H2 1804   3.858   2.171   4.762
  600TIP3   OH2 1805   2.222   3.058   3.014
  600TIP3    H1 1806   2.226   2.963   3.023
  600TIP3    H2 1807   2.309   3.088   3.041
  601TIP3   OH2 1808   5.333   3.963   3.241
  601TIP3    H1 1809   5.315   4.056   3.226
  601TIP3    H2 1810   5.294   3.919   3.165
  602TIP3   OH2 1811   3.184   0.969   3.109
  602TIP3    H1 1812   3.102   0.919   3.106
  602TIP3    H2 1813   3.219   0.951   3.196
  603TIP3   OH2 1814   0.609   0.688   3.626
  603TIP3    H1 1815   0.693   0.662   3.662
  603TIP3    H2 1816   0.550   0.616   3.648
  604TIP3   OH2 1817   6.142   1.059   1.168
  604TIP3    H1 1818   6.111   1.118   1.237
  604TIP3    H2 1819   6.207   1.110   1.121
  605TIP3   OH2 1820   3.654   0.519   2.153
  605TIP3    H1 1821   3.582   0.582   2.153
  605TIP3    H2 1822   3.646   0.474   2.237
  606TIP3   OH2 1823   6.016   1.819   4.185
  606TIP3    H1 1824   6.070   1.793   4.259
  606TIP3    H2 1825   6.079   1.837   4.115
  607TIP3   OH2 1826   6.252   2.443   0.141
  607TIP3    H1 1827   6.202   2.397   0.073
  607TIP3    H2 1828   6.252   2.382   0.216
  608TIP3   OH2 1829   3.955   3.386   3.046
  608TIP3    H1 1830   3.900   3.308   3.045
  608TIP3    H2 1831   4.043   3.355   3.023
  609TIP3   OH2 1832   0.489   0.589   5.191
  609TIP3    H1 1833   0.515   0.621   5.104
  609TIP3    H2 1834   0.494   0.494   5.183
  610TIP3   OH2 1835   0.330   4.315   4.812
  610TIP3    H1 1836   0.283   4.275   4.738
  610TIP3    H2 1837   0.302   4.264   4.888
  611TIP3   OH2 1838   4.266   0.844   1.250
  611TIP3    H1 1839   4.182   0.890   1.252
  611TIP3    H2 1840   4.244   0.755   1.226
  612TIP3   OH2 1841   0.212   2.092   2.521
  612TIP3    H1 1842   0.117   2.090   2.511
  612TIP3    H2 1843   0.229   2.038   2.598
  613TIP3   OH2 1844   3.426   3.298   0.703
  613TIP3    H1 1845   3.387   3.385   0.707
  613TIP3    H2 1846   3.406   3.260   0.788
  614TIP3   OH2 1847   0.955   4.369   4.032
  614TIP3    H1 1848   0.908   4.364   4.116
  614TIP3    H2 1849   1.044   4.340   4.053
  615TIP3   OH2 1850   1.986   1.434   1.501
  615TIP3    H1 1851   2.074   1.473   1.500
  615TIP3    H2 1852   1.933   1.496   1.551
  616TIP3   OH2 1853   5.753   0.302   2.877
  616TIP3    H1 1854   5.754   0.213   2.912
  616TIP3    H2 1855   5.784   0.293   2.787
  617TIP3   OH2 1856   0.502   2.398   4.972
  617TIP3    H1 1857   0.416   2.362   4.994
  617TIP3    H2 1858   0.529   2.350   4.894
  618TIP3   OH2 1859   2.263   1.818   0.937
  618TIP3    H1 1860   2.259   1.723   0.948
  618TIP3    H2 1861   2.245   1.832   0.844
  619TIP3   OH2 1862   3.158   4.517   4.170
  619TIP3    H1 1863   3.150   4.494   4.077
  619TIP3    H2 1864   3.068   4.511   4.203
  620TIP3   OH2 1865   0.965   5.019   2.460
  620TIP3    H1 1866   0.978   5.111   2.439
  620TIP3    H2 1867   0.888   4.993   2.410
  621TIP3   OH2 1868   2.180   2.878   3.890
  621TIP3    H1 1869   2.176   2.801   3.948
  621TIP3    H2 1870   2.270   2.879   3.859
  622TIP3   OH2 1871   2.974   4.893   2.276
  622TIP3    H1 1872   3.069   4.885   2.285
  622TIP3    H2 1873   2.957   4.875   2.184
  623TIP3   OH2 1874   2.218   2.122   0.957
  623TIP3    H1 1875   2.217   2.028   0.972
  623TIP3    H2 1876   2.130   2.151   0.981
  624TIP3   OH2 1877   3.523   5.355   0.089
  624TIP3    H1 1878   3.500   5.278   0.036
  624TIP3    H2 1879   3.441   5.403   0.097
  625TIP3   OH2 1880   5.051   3.933   3.043
  625TIP3    H1 1881   5.109   4.008   3.031
  625TIP3    H2 1882   4.963   3.969   3.036
  626TIP3   OH2 1883   2.341   4.546   4.248
  626TIP3    H1 1884   2.394   4.615   4.288
  626TIP3    H2 1885   2.299   4.502   4.322
  627TIP3   OH2 1886   0.631  -0.020   2.086
  627TIP3    H1 1887   0.723   0.003   2.098
  627TIP3    H2 1888   0.583   0.052   2.125
  628TIP3   OH2 1889   3.297   1.902   3.692
  628TIP3    H1 1890   3.256   1.944   3.767
  628TIP3    H2 1891   3.316   1.974   3.632
  629TIP3   OH2 1892   6.199   0.895   0.815
  629TIP3    H1 1893   6.197   0.837   0.738
  629TIP3    H2 1894   6.200   0.983   0.778
  630TIP3   OH2 1895   2.842   2.751   1.071
  630TIP3    H1 1896   2.811   2.840   1.055
  630TIP3    H2 1897   2.854   2.747   1.166
  631TIP3   OH2 1898   1.991   4.037   1.884
  631TIP3    H1 1899   1.895   4.035   1.885
  631TIP3    H2 1900   2.017   4.006   1.971
  632TIP3   OH2 1901   0.206   2.688   1.962
  632TIP3    H1 1902   0.287   2.684   1.912
  632TIP3    H2 1903   0.146   2.739   1.908
  633TIP3   OH2 1904   1.303   3.342   0.074
  633TIP3    H1 1905   1.251   3.416   0.107
  633TIP3    H2 1906   1.263   3.265   0.115
  634TIP3   OH2 1907   5.025   3.681   0.917
  634TIP3    H1 1908   4.970   3.701   0.841
  634TIP3    H2 1909   5.084   3.612   0.887
  635TIP3   OH2 1910   0.456   2.127   3.341
  635TIP3    H1 1911   0.431   2.186   3.270
  635TIP3    H2 1912   0.462   2.183   3.418
  636TIP3   OH2 1913   4.292   4.109   4.839
  636TIP3    H1 1914   4.347   4.032   4.825
  636TIP3    H2 1915   4.260   4.132   4.752
  637TIP3   OH2 1916   0.358   0.975   4.521
  637TIP3    H1 1917   0.393   0.892   4.489
  637TIP3    H2 1918   0.371   1.035   4.448
  638TIP3   OH2 1919   5.811   4.726   1.483
  638TIP3    H1 1920   5.864   4.697   1.408
  638TIP3    H2 1921   5.838   4.816   1.499
  639TIP3   OH2 1922   1.572   5.964   0.931
  639TIP3    H1 1923   1.636   5.930   0.994
  639TIP3    H2 1924   1.537   5.886   0.888
  640TIP3   OH2 1925   4.467   0.768   2.357
  640TIP3    H1 1926   4.429   0.816   2.283
  640TIP3    H2 1927   4.447   0.676   2.339
  641TIP3   OH2 1928   1.506   2.899   2.488
  641TIP3    H1 1929   1.598   2.924   2.474
  641TIP3    H2 1930   1.456   2.969   2.447
  642TIP3   OH2 1931   5.065   0.337   4.464
  642TIP3    H1 1932   5.114   0.313   4.542
  642TIP3    H2 1933   5.130   0.333   4.393
  643TIP3   OH2 1934   5.427   0.998   4.851
  643TIP3    H1 1935   5.462   0.926   4.903
  643TIP3    H2 1936   5.501   1.030   4.800
  644TIP3   OH2 1937   5.937   3.035   3.609
  644TIP3    H1 1938   5.986   3.051   3.528
  644TIP3    H2 1939   5.983   3.086   3.675
  645TIP3   OH2 1940   4.099   1.326   4.117
  645TIP3    H1 1941   4.163   1.304   4.185
  645TIP3    H2 1942   4.140   1.299   4.035
  646TIP3   OH2 1943   3.677   3.717   4.177
  646TIP3    H1 1944   3.621   3.639   4.185
  646TIP3    H2 1945   3.693   3.743   4.268
  647TIP3   OH2 1946   5.296   0.452   3.908
  647TIP3    H1 1947   5.266   0.461   3.818
  647TIP3    H2 1948   5.318   0.541   3.935
  648TIP3   OH2 1949   6.300   1.153   3.300
  648TIP3    H1 1950   6.381   1.188   3.262
  648TIP3    H2 1951   6.246   1.129   3.224
  649TIP3   OH2 1952   3.392   2.181   4.939
  649TIP3    H1 1953   3.319   2.130   4.976
  649TIP3    H2 1954   3.464   2.119   4.935
  650TIP3   OH2 1955   1.732   0.986   1.772
  650TIP3    H1 1956   1.765   0.960   1.686
  650TIP3    H2 1957   1.637   0.994   1.759
  651TIP3   OH2 1958   4.284   5.525   4.987
  651TIP3    H1 1959   4.230   5.522   4.908
  651TIP3    H2 1960   4.321   5.436   4.993
  652TIP3   OH2 1961   3.546   5.277   1.179
  652TIP3    H1 1962   3.467   5.275   1.125
  652TIP3    H2 1963   3.595   5.200   1.153
  653TIP3   OH2 1964   2.685   3.804   3.894
  653TIP3    H1 1965   2.615   3.762   3.844
  653TIP3    H2 1966   2.765   3.760   3.867
  654TIP3   OH2 1967   0.062   5.942   0.248
  654TIP3    H1 1968   0.154   5.954   0.272
  654TIP3    H2 1969   0.026   6.031   0.249
  655TIP3   OH2 1970   1.120   3.496   1.324
  655TIP3    H1 1971   1.215   3.500   1.313
  655TIP3    H2 1972   1.107   3.438   1.400
  656TIP3   OH2 1973   3.826   1.653   1.330
  656TIP3    H1 1974   3.898   1.620   1.385
  656TIP3    H2 1975   3.775   1.575   1.310
  657TIP3   OH2 1976   6.179   1.159   0.724
  657TIP3    H1 1977   6.088   1.172   0.695
  657TIP3    H2 1978   6.221   1.244   0.708
  658TIP3   OH2 1979   1.421   2.593   0.911
  658TIP3    H1 1980   1.435   2.500   0.895
  658TIP3    H2 1981   1.347   2.596   0.972
  659TIP3   OH2 1982   1.734   3.161   2.409
  659TIP3    H1 1983   1.828   3.177   2.404
  659TIP3    H2 1984   1.710   3.128   2.322
  660TIP3   OH2 1985   1.040   5.005   3.269
  660TIP3    H1 1986   1.065   5.033   3.358
  660TIP3    H2 1987   1.046   5.085   3.217
  661TIP3   OH2 1988   4.360   3.651   4.875
  661TIP3    H1 1989   4.421   3.624   4.806
  661TIP3    H2 1990   4.388   3.603   4.953
  662TIP3   OH2 1991   6.179   4.057   1.165
  662TIP3    H1 1992   6.230   4.008   1.101
  662TIP3    H2 1993   6.240   4.122   1.201
  663TIP3   OH2 1994   4.958   1.757   3.275
  663TIP3    H1 1995   5.005   1.795   3.201
  663TIP3    H2 1996   4.883   1.815   3.288
  664TIP3   OH2 1997   0.933   4.522   3.804
  664TIP3    H1 1998   0.972   4.603   3.836
  664TIP3    H2 1999   0.937   4.463   3.880
  665TIP3   OH2 2000   4.929   4.816   2.572
  665TIP3    H1 2001   4.961   4.901   2.541
  665TIP3    H2 2002   4.939   4.758   2.497
  666TIP3   OH2 2003   5.751   4.001   5.197
  666TIP3    H1 2004   5.691   4.044   5.135
  666TIP3    H2 2005   5.696   3.979   5.272
  667TIP3   OH2 2006   1.018   1.668   0.980
  667TIP3    H1 2007   1.012   1.647   0.887
  667TIP3    H2 2008   0.972   1.751   0.989
  668TIP3   OH2 2009   5.159   0.908   4.650
  668TIP3    H1 2010   5.142   1.000   4.668
  668TIP3    H2 2011   5.250   0.894   4.678
  669TIP3   OH2 2012   0.717   3.144   0.802
  669TIP3    H1 2013   0.632   3.124   0.762
  669TIP3    H2 2014   0.717   3.239   0.812
  670TIP3   OH2 2015   5.528   4.210   4.293
  670TIP3    H1 2016   5.530   4.195   4.199
  670TIP3    H2 2017   5.451   4.161   4.324
  671TIP3   OH2 2018   3.743   1.884   3.707
  671TIP3    H1 2019   3.729   1.810   3.648
  671TIP3    H2 2020   3.695   1.957   3.666
  672TIP3   OH2 2021   6.269   0.729   4.780
  672TIP3    H1 2022   6.237   0.798   4.722
  672TIP3    H2 2023   6.304   0.776   4.856
  673TIP3   OH2 2024   0.223   2.905   2.328
  673TIP3    H1 2025   0.147   2.846   2.325
  673TIP3    H2 2026   0.186   2.989   2.356
  674TIP3   OH2 2027   6.328   2.224   0.294
  674TIP3    H1 2028   6.379   2.205   0.373
  674TIP3    H2 2029   6.390   2.215   0.222
  675TIP3   OH2 2030   0.178   0.946   4.079
  675TIP3    H1 2031   0.225   0.883   4.024
  675TIP3    H2 2032   0.089   0.911   4.084
  676TIP3   OH2 2033   5.569   0.771   4.682
  676TIP3    H1 2034   5.636   0.767   4.750
  676TIP3    H2 2035   5.515   0.694   4.697
  677TIP3   OH2 2036   2.375   2.729   3.736
  677TIP3    H1 2037   2.451   2.755   3.788
  677TIP3    H2 2038   2.334   2.660   3.787
  678TIP3   OH2 2039   4.510   2.604   1.688
  678TIP3    H1 2040   4.559   2.684   1.703
  678TIP3    H2 2041   4.538   2.574   1.602
  679TIP3   OH2 2042   1.001   4.566   4.261
  679TIP3    H1 2043   1.054   4.546   4.337
  679TIP3    H2 2044   0.923   4.511   4.270
  680TIP3   OH2 2045   2.694   0.614   2.937
  680TIP3    H1 2046   2.645   0.695   2.952
  680TIP3    H2 2047   2.767   0.641   2.880
  681TIP3   OH2 2048   2.066   1.139   2.928
  681TIP3    H1 2049   1.975   1.134   2.898
  681TIP3    H2 2050   2.093   1.048   2.936
  682TIP3   OH2 2051   2.009   1.179   1.462
  682TIP3    H1 2052   1.986   1.271   1.471
  682TIP3    H2 2053   2.041   1.171   1.372
  683TIP3   OH2 2054   0.340   4.092   4.973
  683TIP3    H1 2055   0.435   4.077   4.979
  683TIP3    H2 2056   0.318   4.136   5.055
  684TIP3   OH2 2057   5.358   2.378   3.073
  684TIP3    H1 2058   5.324   2.468   3.067
  684TIP3    H2 2059   5.312   2.340   3.147
  685TIP3   OH2 2060   1.402   0.755   1.088
  685TIP3    H1 2061   1.330   0.777   1.148
  685TIP3    H2 2062   1.398   0.659   1.081
  686TIP3   OH2 2063   0.171   1.467   0.424
  686TIP3    H1 2064   0.129   1.384   0.446
  686TIP3    H2 2065   0.245   1.473   0.484
  687TIP3   OH2 2066   5.517   5.096   3.398
  687TIP3    H1 2067   5.429   5.132   3.394
  687TIP3    H2 2068   5.522   5.038   3.322
  688TIP3   OH2 2069   5.614   4.261   1.452
  688TIP3    H1 2070   5.700   4.245   1.491
  688TIP3    H2 2071   5.633   4.300   1.367
  689TIP3   OH2 2072   1.489   0.877   2.537
  689TIP3    H1 2073   1.416   0.815   2.534
  689TIP3    H2 2074   1.446   0.962   2.546
  690TIP3   OH2 2075   3.636   3.489   1.826
  690TIP3    H1 2076   3.675   3.525   1.746
  690TIP3    H2 2077   3.666   3.547   1.896
  691TIP3   OH2 2078   3.523   1.965   2.336
  691TIP3    H1 2079   3.499   1.876   2.363
  691TIP3    H2 2080   3.446   1.997   2.289
  692TIP3   OH2 2081   1.079   4.444   2.927
  692TIP3    H1 2082   1.045   4.446   3.016
  692TIP3    H2 2083   1.174   4.441   2.938
  693TIP3   OH2 2084   1.841   1.725   0.177
  693TIP3    H1 2085   1.905   1.670   0.222
  693TIP3    H2 2086   1.757   1.702   0.217
  694TIP3   OH2 2087   4.827   5.716   4.055
  694TIP3    H1 2088   4.757   5.739   3.994
  694TIP3    H2 2089   4.806   5.765   4.134
  695TIP3   OH2 2090   4.413   5.774   4.419
  695TIP3    H1 2091   4.358   5.718   4.474
  695TIP3    H2 2092   4.384   5.863   4.438
  696TIP3   OH2 2093   1.670   2.848   5.042
  696TIP3    H1 2094   1.666   2.753   5.034
  696TIP3    H2 2095   1.581   2.874   5.065
  697TIP3   OH2 2096   1.034   2.930   1.064
  697TIP3    H1 2097   0.969   2.908   0.998
  697TIP3    H2 2098   1.034   3.025   1.068
  698TIP3   OH2 2099   2.702   5.669   2.547
  698TIP3    H1 2100   2.723   5.617   2.469
  698TIP3    H2 2101   2.773   5.649   2.609
  699TIP3   OH2 2102   5.434   2.058   4.573
  699TIP3    H1 2103   5.510   2.072   4.629
  699TIP3    H2 2104   5.371   2.011   4.629
  700TIP3   OH2 2105   0.290   0.313   0.087
  700TIP3    H1 2106   0.252   0.274   0.166
  700TIP3    H2 2107   0.301   0.239   0.027
  701TIP3   OH2 2108   0.526   2.731   4.462
  701TIP3    H1 2109   0.526   2.643   4.501
  701TIP3    H2 2110   0.554   2.788   4.533
  702TIP3   OH2 2111   6.154   5.844   3.115
  702TIP3    H1 2112   6.191   5.912   3.058
  702TIP3    H2 2113   6.216   5.836   3.187
  703TIP3   OH2 2114   5.243   4.215   2.650
  703TIP3    H1 2115   5.281   4.249   2.569
  703TIP3    H2 2116   5.306   4.239   2.718
  704TIP3   OH2 2117   4.980   0.263   3.783
  704TIP3    H1 2118   5.049   0.249   3.848
  704TIP3    H2 2119   4.970   0.178   3.740
  705TIP3   OH2 2120   4.280   5.646   2.217
  705TIP3    H1 2121   4.301   5.630   2.309
  705TIP3    H2 2122   4.212   5.583   2.196
  706TIP3   OH2 2123   1.473   4.999   2.816
  706TIP3    H1 2124   1.556   4.953   2.830
  706TIP3    H2 2125   1.496   5.091   2.819
  707TIP3   OH2 2126   3.531   1.106   4.838
  707TIP3    H1 2127   3.592   1.169   4.876
  707TIP3    H2 2128   3.541   1.117   4.743
  708TIP3   OH2 2129   4.822   2.050   0.847
  708TIP3    H1 2130   4.828   1.998   0.927
  708TIP3    H2 2131   4.728   2.064   0.835
  709TIP3   OH2 2132   3.531   1.976   4.837
  709TIP3    H1 2133   3.486   1.894   4.857
  709TIP3    H2 2134   3.607   1.976   4.895
  710TIP3   OH2 2135   5.445   3.318   4.594
  710TIP3    H1 2136   5.373   3.309   4.532
  710TIP3    H2 2137   5.516   3.267   4.555
  711TIP3   OH2 2138   2.445   5.590   1.765
  711TIP3    H1 2139   2.528   5.543   1.760
  711TIP3    H2 2140   2.379   5.522   1.756
  712TIP3   OH2 2141   5.953   5.583   3.174
  712TIP3    H1 2142   6.026   5.642   3.195
  712TIP3    H2 2143   5.957   5.514   3.240
  713TIP3   OH2 2144   2.115   1.851   1.494
  713TIP3    H1 2145   2.057   1.781   1.464
  713TIP3    H2 2146   2.203   1.816   1.481
  714TIP3   OH2 2147   0.833   2.559   0.652
  714TIP3    H1 2148   0.742   2.582   0.634
  714TIP3    H2 2149   0.829   2.467   0.678
  715TIP3   OH2 2150   3.338   1.907   4.131
  715TIP3    H1 2151   3.375   1.965   4.066
  715TIP3    H2 2152   3.385   1.824   4.119
  716TIP3   OH2 2153   1.933   1.752   4.538
  716TIP3    H1 2154   1.999   1.822   4.543
  716TIP3    H2 2155   1.926   1.720   4.628
  717TIP3   OH2 2156   1.052   2.869   2.797
  717TIP3    H1 2157   1.044   2.961   2.825
  717TIP3    H2 2158   1.080   2.874   2.706
  718TIP3   OH2 2159   1.293   1.130   3.001
  718TIP3    H1 2160   1.308   1.173   3.086
  718TIP3    H2 2161   1.227   1.184   2.958
  719TIP3   OH2 2162   4.823   1.144   0.806
  719TIP3    H1 2163   4.894   1.090   0.771
  719TIP3    H2 2164   4.743   1.095   0.787
  720TIP3   OH2 2165   3.693   5.314   2.455
  720TIP3    H1 2166   3.757   5.353   2.515
  720TIP3    H2 2167   3.740   5.243   2.411
  721TIP3   OH2 2168   2.051   4.455   1.252
  721TIP3    H1 2169   1.956   4.457   1.258
  721TIP3    H2 2170   2.077   4.372   1.291
  722TIP3   OH2 2171   0.497   3.837   0.331
  722TIP3    H1 2172   0.517   3.914   0.278
  722TIP3    H2 2173   0.421   3.863   0.383
  723TIP3   OH2 2174   3.725   1.939   2.586
  723TIP3    H1 2175   3.670   1.985   2.522
  723TIP3    H2 2176   3.797   1.903   2.534
  724TIP3   OH2 2177   1.702   3.650   1.983
  724TIP3    H1 2178   1.648   3.727   1.999
  724TIP3    H2 2179   1.662   3.580   2.034
  725TIP3   OH2 2180   0.275   5.215   5.031
  725TIP3    H1 2181   0.222   5.232   5.109
  725TIP3    H2 2182   0.340   5.150   5.060
  726TIP3   OH2 2183   4.504   5.756   3.420
  726TIP3    H1 2184   4.498   5.845   3.453
  726TIP3    H2 2185   4.441   5.706   3.473
  727TIP3   OH2 2186   3.604   2.826   4.662
  727TIP3    H1 2187   3.697   2.849   4.672
  727TIP3    H2 2188   3.570   2.892   4.602
  728TIP3   OH2 2189   4.665   0.942   2.794
  728TIP3    H1 2190   4.677   0.860   2.841
  728TIP3    H2 2191   4.727   1.003   2.835
  729TIP3   OH2 2192   1.819   5.508   0.456
  729TIP3    H1 2193   1.911   5.533   0.448
  729TIP3    H2 2194   1.771   5.579   0.414
  730TIP3   OH2 2195   6.158   5.029   4.648
  730TIP3    H1 2196   6.191   4.950   4.692
  730TIP3    H2 2197   6.232   5.061   4.598
  731TIP3   OH2 2198   3.723   2.367   0.902
  731TIP3    H1 2199   3.710   2.394   0.811
  731TIP3    H2 2200   3.695   2.443   0.953
  732TIP3   OH2 2201   6.180   0.439   4.085
  732TIP3    H1 2202   6.215   0.355   4.056
  732TIP3    H2 2203   6.258   0.494   4.097
  733TIP3   OH2 2204   3.686   3.996   3.485
  733TIP3    H1 2205   3.605   3.977   3.532
  733TIP3    H2 2206   3.723   3.910   3.466
  734TIP3   OH2 2207   3.761   5.467   0.150
  734TIP3    H1 2208   3.805   5.397   0.197
  734TIP3    H2 2209   3.671   5.436   0.139
  735TIP3   OH2 2210   0.907   3.370   2.440
  735TIP3    H1 2211   0.976   3.368   2.373
  735TIP3    H2 2212   0.884   3.278   2.454
  736TIP3   OH2 2213   1.065   2.831   2.520
  736TIP3    H1 2214   1.006   2.776   2.468
  736TIP3    H2 2215   1.152   2.795   2.503
  737TIP3   OH2 2216   5.766   2.287   0.609
  737TIP3    H1 2217   5.750   2.247   0.523
  737TIP3    H2 2218   5.759   2.214   0.671
  738TIP3   OH2 2219   1.890   3.628   4.466
  738TIP3    H1 2220   1.809   3.601   4.510
  738TIP3    H2 2221   1.946   3.550   4.469
  739TIP3   OH2 2222   4.453   3.646   1.172
  739TIP3    H1 2223   4.362   3.621   1.190
  739TIP3    H2 2224   4.460   3.642   1.076
  740TIP3   OH2 2225   6.114   4.858   2.017
  740TIP3    H1 2226   6.072   4.780   2.052
  740TIP3    H2 2227   6.141   4.907   2.094
  741TIP3   OH2 2228   1.296   5.700   1.821
  741TIP3    H1 2229   1.220   5.652   1.789
  741TIP3    H2 2230   1.318   5.658   1.904
  742TIP3   OH2 2231   0.997   4.317   4.864
  742TIP3    H1 2232   1.066   4.372   4.901
  742TIP3    H2 2233   0.985   4.351   4.775
  743TIP3   OH2 2234   6.323   2.460   0.981
  743TIP3    H1 2235   6.318   2.365   0.976
  743TIP3    H2 2236   6.263   2.491   0.914
  744TIP3   OH2 2237   3.893   4.046   2.098
  744TIP3    H1 2238   3.814   4.081   2.059
  744TIP3    H2 2239   3.865   3.965   2.141
  745TIP3   OH2 2240   1.503   4.378   3.417
  745TIP3    H1 2241   1.455   4.441   3.471
  745TIP3    H2 2242   1.549   4.432   3.353
  746TIP3   OH2 2243   5.553   0.917   0.827
  746TIP3    H1 2244   5.472   0.968   0.830
  746TIP3    H2 2245   5.577   0.904   0.919
  747TIP3   OH2 2246   5.472   1.638   1.444
  747TIP3    H1 2247   5.508   1.578   1.510
  747TIP3    H2 2248   5.377   1.632   1.457
  748TIP3   OH2 2249   5.323   5.851   1.373
  748TIP3    H1 2250   5.387   5.900   1.425
  748TIP3    H2 2251   5.370   5.772   1.346
  749TIP3   OH2 2252   3.501   3.967   2.784
  749TIP3    H1 2253   3.537   3.879   2.781
  749TIP3    H2 2254   3.522   3.999   2.872
  750TIP3   OH2 2255   0.201   0.652   0.441
  750TIP3    H1 2256   0.179   0.601   0.518
  750TIP3    H2 2257   0.162   0.604   0.368
  751TIP3   OH2 2258   5.689   5.576   3.039
  751TIP3    H1 2259   5.781   5.565   3.061
  751TIP3    H2 2260   5.684   5.661   2.995
  752TIP3   OH2 2261   2.328   3.506   2.234
  752TIP3    H1 2262   2.258   3.445   2.212
  752TIP3    H2 2263   2.407   3.467   2.198
  753TIP3   OH2 2264   3.288   1.999   1.400
  753TIP3    H1 2265   3.360   1.947   1.436
  753TIP3    H2 2266   3.248   1.942   1.335
  754TIP3   OH2 2267   3.441   3.182   0.289
  754TIP3    H1 2268   3.486   3.162   0.371
  754TIP3    H2 2269   3.350   3.159   0.306
  755TIP3   OH2 2270   0.857   4.621   0.194
  755TIP3    H1 2271   0.940   4.603   0.238
  755TIP3    H2 2272   0.841   4.714   0.211
  756TIP3   OH2 2273   2.922   2.614   2.675
  756TIP3    H1 2274   2.911   2.575   2.762
  756TIP3    H2 2275   2.854   2.681   2.671
  757TIP3   OH2 2276   2.985   1.986   0.715
  757TIP3    H1 2277   2.903   2.011   0.673
  757TIP3    H2 2278   3.034   2.068   0.721
  758TIP3   OH2 2279   4.637   5.037   3.220
  758TIP3    H1 2280   4.727   5.062   3.200
  758TIP3    H2 2281   4.643   4.996   3.307
  759TIP3   OH2 2282   6.137   5.487   2.931
  759TIP3    H1 2283   6.065   5.522   2.984
  759TIP3    H2 2284   6.157   5.402   2.971
  760TIP3   OH2 2285   2.211   2.039   5.146
  760TIP3    H1 2286   2.166   1.955   5.150
  760TIP3    H2 2287   2.296   2.020   5.107
  761TIP3   OH2 2288   0.064   1.701   0.982
  761TIP3    H1 2289  -0.010   1.713   1.042
  761TIP3    H2 2290   0.124   1.643   1.030
  762TIP3   OH2 2291   2.959   0.809   3.274
  762TIP3    H1 2292   2.865   0.803   3.257
  762TIP3    H2 2293   2.997   0.737   3.222
  763TIP3   OH2 2294   2.175   4.425   2.404
  763TIP3    H1 2295   2.267   4.432   2.430
  763TIP3    H2 2296   2.161   4.332   2.388
  764TIP3   OH2 2297   0.475   2.504   3.950
  764TIP3    H1 2298   0.481   2.577   3.888
  764TIP3    H2 2299   0.461   2.546   4.035
  765TIP3   OH2 2300   5.793   3.665   1.033
  765TIP3    H1 2301   5.877   3.710   1.031
  765TIP3    H2 2302   5.774   3.653   1.126
  766TIP3   OH2 2303   0.295   3.287   2.245
  766TIP3    H1 2304   0.245   3.210   2.272
  766TIP3    H2 2305   0.383   3.254   2.229
  767TIP3   OH2 2306   0.118   2.803   1.309
  767TIP3    H1 2307   0.120   2.832   1.218
  767TIP3    H2 2308   0.113   2.884   1.360
  768TIP3   OH2 2309   1.225   2.366   3.054
  768TIP3    H1 2310   1.264   2.332   2.974
  768TIP3    H2 2311   1.183   2.290   3.094
  769TIP3   OH2 2312   1.751   0.567   0.191
  769TIP3    H1 2313   1.802   0.606   0.261
  769TIP3    H2 2314   1.660   0.586   0.214
  770TIP3   OH2 2315   0.295   3.236   3.204
  770TIP3    H1 2316   0.380   3.233   3.160
  770TIP3    H2 2317   0.280   3.147   3.234
  771TIP3   OH2 2318   0.300   0.684   0.055
  771TIP3    H1 2319   0.207   0.669   0.072
  771TIP3    H2 2320   0.337   0.596   0.049
  772TIP3   OH2 2321   5.579   3.538   3.751
  772TIP3    H1 2322   5.611   3.495   3.831
  772TIP3    H2 2323   5.658   3.558   3.702
  773TIP3   OH2 2324   5.441   2.316   2.824
  773TIP3    H1 2325   5.388   2.339   2.901
  773TIP3    H2 2326   5.456   2.221   2.833
  774TIP3   OH2 2327   6.217   3.620   4.295
  774TIP3    H1 2328   6.291   3.652   4.244
  774TIP3    H2 2329   6.236   3.649   4.385
  775TIP3   OH2 2330   0.680   4.761   3.321
  775TIP3    H1 2331   0.705   4.716   3.402
  775TIP3    H2 2332   0.598   4.804   3.342
  776TIP3   OH2 2333   2.560   2.676   4.965
  776TIP3    H1 2334   2.583   2.638   5.049
  776TIP3    H2 2335   2.549   2.770   4.983
  777TIP3   OH2 2336   1.970   4.452   3.890
  777TIP3    H1 2337   2.028   4.433   3.816
  777TIP3    H2 2338   1.883   4.455   3.853
  778TIP3   OH2 2339   6.081   0.591   1.089
  778TIP3    H1 2340   6.148   0.614   1.025
  778TIP3    H2 2341   6.069   0.672   1.140
  779TIP3   OH2 2342   0.398   1.770   4.958
  779TIP3    H1 2343   0.441   1.703   5.010
  779TIP3    H2 2344   0.404   1.739   4.868
  780TIP3   OH2 2345   1.642   0.719   3.270
  780TIP3    H1 2346   1.698   0.642   3.278
  780TIP3    H2 2347   1.703   0.793   3.266
  781TIP3   OH2 2348   2.317   5.820   4.671
  781TIP3    H1 2349   2.376   5.828   4.746
  781TIP3    H2 2350   2.375   5.819   4.595
  782TIP3   OH2 2351   4.411   5.619   2.479
  782TIP3    H1 2352   4.463   5.699   2.488
  782TIP3    H2 2353   4.459   5.553   2.529
  783TIP3   OH2 2354   2.805   5.519   3.649
  783TIP3    H1 2355   2.734   5.536   3.587
  783TIP3    H2 2356   2.766   5.537   3.735
  784TIP3   OH2 2357   6.049   3.160   0.563
  784TIP3    H1 2358   6.072   3.068   0.550
  784TIP3    H2 2359   6.046   3.197   0.474
  785TIP3   OH2 2360   4.886   3.286   1.018
  785TIP3    H1 2361   4.831   3.219   0.977
  785TIP3    H2 2362   4.832   3.322   1.088
  786TIP3   OH2 2363   5.321   0.646   4.640
  786TIP3    H1 2364   5.227   0.630   4.637
  786TIP3    H2 2365   5.343   0.679   4.552
  787TIP3   OH2 2366   5.132   4.632   5.121
  787TIP3    H1 2367   5.105   4.667   5.205
  787TIP3    H2 2368   5.081   4.681   5.056
  788TIP3   OH2 2369   0.081   2.094   3.478
  788TIP3    H1 2370   0.164   2.045   3.484
  788TIP3    H2 2371   0.099   2.163   3.414
  789TIP3   OH2 2372   1.772   4.281   0.302
  789TIP3    H1 2373   1.739   4.218   0.366
  789TIP3    H2 2374   1.770   4.365   0.347
  790TIP3   OH2 2375   3.806   3.206   2.504
  790TIP3    H1 2376   3.806   3.112   2.488
  790TIP3    H2 2377   3.820   3.245   2.418
  791TIP3   OH2 2378   0.069   0.913   2.375
  791TIP3    H1 2379   0.101   0.823   2.374
  791TIP3    H2 2380   0.042   0.928   2.465
  792TIP3   OH2 2381   4.078   4.907   1.927
  792TIP3    H1 2382   4.164   4.902   1.968
  792TIP3    H2 2383   4.033   4.828   1.956
  793TIP3   OH2 2384   0.039   0.548   5.037
  793TIP3    H1 2385   0.003   0.502   5.113
  793TIP3    H2 2386   0.008   0.497   4.961
  794TIP3   OH2 2387   4.481   4.003   1.128
  794TIP3    H1 2388   4.445   4.083   1.088
  794TIP3    H2 2389   4.442   4.001   1.215
  795TIP3   OH2 2390   2.802   1.025   0.845
  795TIP3    H1 2391   2.826   1.015   0.753
  795TIP3    H2 2392   2.741   1.099   0.846
  796TIP3   OH2 2393   5.785   4.307   3.370
  796TIP3    H1 2394   5.753   4.231   3.418
  796TIP3    H2 2395   5.710   4.335   3.317
  797TIP3   OH2 2396   2.510   4.513   4.469
  797TIP3    H1 2397   2.515   4.419   4.453
  797TIP3    H2 2398   2.444   4.523   4.538
  798TIP3   OH2 2399   1.373   0.055   4.555
  798TIP3    H1 2400   1.459   0.019   4.576
  798TIP3    H2 2401   1.391   0.128   4.497
  799TIP3   OH2 2402   5.811   1.610   3.094
  799TIP3    H1 2403   5.826   1.530   3.143
  799TIP3    H2 2404   5.733   1.648   3.134
  800TIP3   OH2 2405   5.733   3.146   0.072
  800TIP3    H1 2406   5.729   3.233   0.112
  800TIP3    H2 2407   5.738   3.085   0.146
  801TIP3   OH2 2408   1.760   2.871   1.900
  801TIP3    H1 2409   1.769   2.958   1.861
  801TIP3    H2 2410   1.851   2.843   1.916
  802TIP3   OH2 2411   2.199   2.471   2.800
  802TIP3    H1 2412   2.136   2.400   2.809
  802TIP3    H2 2413   2.180   2.509   2.714
  803TIP3   OH2 2414   5.479   0.374   3.127
  803TIP3    H1 2415   5.395   0.334   3.105
  803TIP3    H2 2416   5.511   0.409   3.044
  804TIP3   OH2 2417   2.711   4.165   0.831
  804TIP3    H1 2418   2.629   4.159   0.783
  804TIP3    H2 2419   2.730   4.075   0.858
  805TIP3   OH2 2420   5.283   3.577   0.088
  805TIP3    H1 2421   5.225   3.650   0.112
  805TIP3    H2 2422   5.237   3.499   0.120
  806TIP3   OH2 2423   3.725   1.886   0.938
  806TIP3    H1 2424   3.789   1.931   0.993
  806TIP3    H2 2425   3.650   1.872   0.996
  807TIP3   OH2 2426   4.988   1.363   2.882
  807TIP3    H1 2427   5.039   1.423   2.936
  807TIP3    H2 2428   5.042   1.350   2.804
  808TIP3   OH2 2429   1.623   2.130   0.298
  808TIP3    H1 2430   1.618   2.036   0.316
  808TIP3    H2 2431   1.642   2.169   0.383
  809TIP3   OH2 2432   1.148   5.990   2.826
  809TIP3    H1 2433   1.227   5.956   2.785
  809TIP3    H2 2434   1.155   5.962   2.917
  810TIP3   OH2 2435   2.506   4.919   2.583
  810TIP3    H1 2436   2.577   4.855   2.572
  810TIP3    H2 2437   2.505   4.968   2.501
  811TIP3   OH2 2438   4.717   5.394   1.694
  811TIP3    H1 2439   4.664   5.397   1.773
  811TIP3    H2 2440   4.744   5.485   1.679
  812TIP3   OH2 2441   1.883   1.949   4.208
  812TIP3    H1 2442   1.826   1.930   4.282
  812TIP3    H2 2443   1.824   1.963   4.134
  813TIP3   OH2 2444   4.530   3.883   4.106
  813TIP3    H1 2445   4.618   3.848   4.114
  813TIP3    H2 2446   4.481   3.815   4.060
  814TIP3   OH2 2447   0.976   2.645   4.350
  814TIP3    H1 2448   1.062   2.609   4.370
  814TIP3    H2 2449   0.950   2.691   4.430
  815TIP3   OH2 2450   4.517   5.283   2.856
  815TIP3    H1 2451   4.554   5.333   2.929
  815TIP3    H2 2452   4.477   5.207   2.897
  816TIP3   OH2 2453   5.936   5.009   5.089
  816TIP3    H1 2454   6.025   4.990   5.059
  816TIP3    H2 2455   5.947   5.036   5.180
  817TIP3   OH2 2456   4.406   1.302   0.246
  817TIP3    H1 2457   4.315   1.332   0.245
  817TIP3    H2 2458   4.435   1.314   0.336
  818TIP3   OH2 2459   5.051   4.028   1.753
  818TIP3    H1 2460   5.093   3.970   1.689
  818TIP3    H2 2461   5.118   4.041   1.820
  819TIP3   OH2 2462   3.128   5.579   0.566
  819TIP3    H1 2463   3.078   5.539   0.637
  819TIP3    H2 2464   3.218   5.547   0.579
  820TIP3   OH2 2465   6.370   1.322   2.789
  820TIP3    H1 2466   6.437   1.258   2.765
  820TIP3    H2 2467   6.296   1.269   2.819
  821TIP3   OH2 2468   1.710   2.021   2.043
  821TIP3    H1 2469   1.740   2.092   1.986
  821TIP3    H2 2470   1.628   2.054   2.081
  822TIP3   OH2 2471   2.554   0.596   0.775
  822TIP3    H1 2472   2.552   0.506   0.806
  822TIP3    H2 2473   2.486   0.600   0.708
  823TIP3   OH2 2474   2.421   0.567   1.877
  823TIP3    H1 2475   2.414   0.533   1.787
  823TIP3    H2 2476   2.353   0.634   1.882
  824TIP3   OH2 2477   6.080   1.594   0.884
  824TIP3    H1 2478   6.036   1.646   0.952
  824TIP3    H2 2479   6.016   1.526   0.861
  825TIP3   OH2 2480   3.733   5.044   3.413
  825TIP3    H1 2481   3.667   5.075   3.350
  825TIP3    H2 2482   3.786   4.982   3.364
  826TIP3   OH2 2483   0.187   4.768   4.668
  826TIP3    H1 2484   0.217   4.741   4.755
  826TIP3    H2 2485   0.125   4.700   4.642
  827TIP3   OH2 2486   3.344   4.779   1.557
  827TIP3    H1 2487   3.430   4.736   1.558
  827TIP3    H2 2488   3.317   4.776   1.465
  828TIP3   OH2 2489   2.893   3.778   3.146
  828TIP3    H1 2490   2.828   3.753   3.212
  828TIP3    H2 2491   2.875   3.722   3.071
  829TIP3   OH2 2492   4.718   1.599   3.783
  829TIP3    H1 2493   4.715   1.540   3.707
  829TIP3    H2 2494   4.791   1.658   3.765
  830TIP3   OH2 2495   2.105   4.374   3.655
  830TIP3    H1 2496   2.168   4.318   3.700
  830TIP3    H2 2497   2.096   4.336   3.568
  831TIP3   OH2 2498   1.281   3.020   4.783
  831TIP3    H1 2499   1.192   3.033   4.751
  831TIP3    H2 2500   1.279   3.052   4.874
  832TIP3   OH2 2501   3.013   0.757   3.822
  832TIP3    H1 2502   3.076   0.827   3.807
  832TIP3    H2 2503   2.944   0.798   3.875
  833TIP3   OH2 2504   1.666   1.268   3.087
  833TIP3    H1 2505   1.612   1.339   3.122
  833TIP3    H2 2506   1.756   1.292   3.110
  834TIP3   OH2 2507   5.141   3.439   1.111
  834TIP3    H1 2508   5.096   3.354   1.106
  834TIP3    H2 2509   5.163   3.460   1.020
  835TIP3   OH2 2510   0.359   3.791   3.051
  835TIP3    H1 2511   0.416   3.714   3.059
  835TIP3    H2 2512   0.411   3.853   3.000
  836TIP3   OH2 2513   3.865   0.742   3.749
  836TIP3    H1 2514   3.810   0.819   3.761
  836TIP3    H2 2515   3.896   0.721   3.838
  837TIP3   OH2 2516   0.427   5.409   0.241
  837TIP3    H1 2517   0.487   5.478   0.214
  837TIP3    H2 2518   0.483   5.339   0.274
  838TIP3   OH2 2519   0.787   1.587   3.469
  838TIP3    H1 2520   0.702   1.628   3.451
  838TIP3    H2 2521   0.782   1.561   3.561
  839TIP3   OH2 2522   5.706   2.526   2.143
  839TIP3    H1 2523   5.640   2.587   2.110
  839TIP3    H2 2524   5.788   2.576   2.141
  840TIP3   OH2 2525   4.934   2.026   0.318
  840TIP3    H1 2526   5.000   2.078   0.364
  840TIP3    H2 2527   4.883   1.985   0.387
  841TIP3   OH2 2528   2.730   2.654   0.781
  841TIP3    H1 2529   2.735   2.702   0.863
  841TIP3    H2 2530   2.670   2.705   0.726
  842TIP3   OH2 2531   3.179   3.025   1.438
  842TIP3    H1 2532   3.251   2.968   1.464
  842TIP3    H2 2533   3.174   3.091   1.507
  843TIP3   OH2 2534   4.750   0.592   1.679
  843TIP3    H1 2535   4.733   0.609   1.587
  843TIP3    H2 2536   4.685   0.525   1.704
  844TIP3   OH2 2537   3.165   1.769   4.448
  844TIP3    H1 2538   3.132   1.815   4.525
  844TIP3    H2 2539   3.260   1.773   4.456
  845TIP3   OH2 2540   1.391   2.197   4.942
  845TIP3    H1 2541   1.445   2.271   4.915
  845TIP3    H2 2542   1.302   2.221   4.917
  846TIP3   OH2 2543   4.285   4.149   0.932
  846TIP3    H1 2544   4.216   4.127   0.870
  846TIP3    H2 2545   4.243   4.204   0.997
  847TIP3   OH2 2546   3.785   1.257   2.883
  847TIP3    H1 2547   3.708   1.227   2.835
  847TIP3    H2 2548   3.804   1.343   2.847
  848TIP3   OH2 2549   2.008   4.664   3.580
  848TIP3    H1 2550   2.076   4.633   3.640
  848TIP3    H2 2551   2.044   4.649   3.493
  849TIP3   OH2 2552   0.625   0.041   3.425
  849TIP3    H1 2553   0.627  -0.053   3.439
  849TIP3    H2 2554   0.687   0.056   3.353
  850TIP3   OH2 2555   2.165   3.408   2.914
  850TIP3    H1 2556   2.196   3.342   2.853
  850TIP3    H2 2557   2.077   3.380   2.937
  851TIP3   OH2 2558   3.221   5.820   3.190
  851TIP3    H1 2559   3.245   5.727   3.184
  851TIP3    H2 2560   3.297   5.867   3.157
  852TIP3   OH2 2561   6.196   1.379   0.213
  852TIP3    H1 2562   6.166   1.291   0.235
  852TIP3    H2 2563   6.284   1.384   0.249
  853TIP3   OH2 2564   5.957   2.726   2.464
  853TIP3    H1 2565   5.988   2.815   2.443
  853TIP3    H2 2566   6.019   2.668   2.420
  854TIP3   OH2 2567   2.529   4.171   1.293
  854TIP3    H1 2568   2.547   4.254   1.337
  854TIP3    H2 2569   2.548   4.188   1.200
  855TIP3   OH2 2570   2.726   5.551   0.852
  855TIP3    H1 2571   2.724   5.531   0.945
  855TIP3    H2 2572   2.723   5.465   0.808
  856TIP3   OH2 2573   3.999   0.226   2.262
  856TIP3    H1 2574   4.016   0.280   2.339
  856TIP3    H2 2575   4.078   0.235   2.208
  857TIP3   OH2 2576   6.282   3.159   4.258
  857TIP3    H1 2577   6.283   3.069   4.290
  857TIP3    H2 2578   6.234   3.207   4.326
  858TIP3   OH2 2579   0.319   5.925   1.360
  858TIP3    H1 2580   0.369   5.845   1.345
  858TIP3    H2 2581   0.236   5.896   1.399
  859TIP3   OH2 2582   1.317   5.115   2.402
  859TIP3    H1 2583   1.336   5.087   2.312
  859TIP3    H2 2584   1.403   5.118   2.445
  860TIP3   OH2 2585   2.480   3.854   3.576
  860TIP3    H1 2586   2.437   3.890   3.498
  860TIP3    H2 2587   2.558   3.810   3.543
  861TIP3   OH2 2588   5.273   4.127   0.439
  861TIP3    H1 2589   5.221   4.051   0.466
  861TIP3    H2 2590   5.301   4.167   0.522
  862TIP3   OH2 2591   5.819   1.959   0.189
  862TIP3    H1 2592   5.900   1.986   0.233
  862TIP3    H2 2593   5.750   2.007   0.236
  863TIP3   OH2 2594   3.124   1.826   1.268
  863TIP3    H1 2595   3.047   1.847   1.321
  863TIP3    H2 2596   3.094   1.834   1.178
  864TIP3   OH2 2597   4.031   0.815   4.149
  864TIP3    H1 2598   3.953   0.775   4.188
  864TIP3    H2 2599   4.040   0.899   4.193
  865TIP3   OH2 2600   1.585   1.880   0.381
  865TIP3    H1 2601   1.607   1.835   0.463
  865TIP3    H2 2602   1.543   1.813   0.328
  866TIP3   OH2 2603   4.987   4.296   0.749
  866TIP3    H1 2604   4.938   4.246   0.684
  866TIP3    H2 2605   4.964   4.256   0.833
  867TIP3   OH2 2606   1.868   5.641   2.647
  867TIP3    H1 2607   1.883   5.735   2.643
  867TIP3    H2 2608   1.774   5.632   2.660
  868TIP3   OH2 2609   1.539   0.802   4.869
  868TIP3    H1 2610   1.465   0.857   4.894
  868TIP3    H2 2611   1.593   0.859   4.814
  869TIP3   OH2 2612   0.818   1.580   1.262
  869TIP3    H1 2613   0.750   1.590   1.329
  869TIP3    H2 2614   0.883   1.646   1.284
  870TIP3   OH2 2615   1.341   0.673   4.262
  870TIP3    H1 2616   1.301   0.647   4.344
  870TIP3    H2 2617   1.267   0.690   4.204
  871TIP3   OH2 2618   4.282   4.589   4.283
  871TIP3    H1 2619   4.256   4.511   4.234
  871TIP3    H2 2620   4.202   4.641   4.290
  872TIP3   OH2 2621   5.206   5.655   1.585
  872TIP3    H1 2622   5.278   5.688   1.530
  872TIP3    H2 2623   5.180   5.573   1.543
  873TIP3   OH2 2624   6.085   2.091   4.026
  873TIP3    H1 2625   6.176   2.067   4.043
  873TIP3    H2 2626   6.047   2.104   4.113
  874TIP3   OH2 2627   4.510   3.110   3.492
  874TIP3    H1 2628   4.436   3.081   3.545
  874TIP3    H2 2629   4.569   3.035   3.490
  875TIP3   OH2 2630   2.333   1.703   5.109
  875TIP3    H1 2631   2.330   1.718   5.015
  875TIP3    H2 2632   2.322   1.609   5.119
  876TIP3   OH2 2633   0.411   0.483   4.386
  876TIP3    H1 2634   0.407   0.522   4.298
  876TIP3    H2 2635   0.325   0.443   4.398
  877TIP3   OH2 2636   1.189   4.519   4.944
  877TIP3    H1 2637   1.169   4.577   5.018
  877TIP3    H2 2638   1.262   4.465   4.975
  878TIP3   OH2 2639   5.303   3.156   5.075
  878TIP3    H1 2640   5.261   3.071   5.065
  878TIP3    H2 2641   5.395   3.140   5.057
  879TIP3   OH2 2642   3.934   0.908   0.576
  879TIP3    H1 2643   4.027   0.899   0.597
  879TIP3    H2 2644   3.928   0.988   0.526
  880TIP3   OH2 2645   2.377   5.773   0.070
  880TIP3    H1 2646   2.312   5.762   0.001
  880TIP3    H2 2647   2.332   5.824   0.137
  881TIP3   OH2 2648   3.930   2.530   2.494
  881TIP3    H1 2649   3.986   2.538   2.571
  881TIP3    H2 2650   3.902   2.439   2.494
  882TIP3   OH2 2651   3.853   2.523   4.039
  882TIP3    H1 2652   3.935   2.520   4.089
  882TIP3    H2 2653   3.810   2.602   4.070
  883TIP3   OH2 2654   1.565   2.632   1.324
  883TIP3    H1 2655   1.506   2.691   1.370
  883TIP3    H2 2656   1.570   2.668   1.235
  884TIP3   OH2 2657   5.264   3.981   0.031
  884TIP3    H1 2658   5.231   4.062   0.070
  884TIP3    H2 2659   5.314   3.939   0.101
  885TIP3   OH2 2660   4.417   3.316   1.800
  885TIP3    H1 2661   4.490   3.259   1.826
  885TIP3    H2 2662   4.420   3.316   1.705
  886TIP3   OH2 2663   4.271   1.392   5.087
  886TIP3    H1 2664   4.215   1.403   5.010
  886TIP3    H2 2665   4.213   1.354   5.153
  887TIP3   OH2 2666   2.757   3.838   0.481
  887TIP3    H1 2667   2.665   3.831   0.455
  887TIP3    H2 2668   2.799   3.761   0.441
  888TIP3   OH2 2669   4.729   0.402   5.053
  888TIP3    H1 2670   4.761   0.475   5.001
  888TIP3    H2 2671   4.636   0.395   5.030
  889TIP3   OH2 2672   6.144   5.530   1.000
  889TIP3    H1 2673   6.134   5.599   0.934
  889TIP3    H2 2674   6.070   5.471   0.983
  890TIP3   OH2 2675   4.139   1.436   1.089
  890TIP3    H1 2676   4.178   1.499   1.149
  890TIP3    H2 2677   4.121   1.485   1.009
  891TIP3   OH2 2678   3.789   5.176   1.079
  891TIP3    H1 2679   3.864   5.136   1.122
  891TIP3    H2 2680   3.780   5.129   0.996
  892TIP3   OH2 2681   0.029   2.141   2.954
  892TIP3    H1 2682   0.082   2.064   2.930
  892TIP3    H2 2683   0.093   2.211   2.965
  893TIP3   OH2 2684   4.274   2.436   0.140
  893TIP3    H1 2685   4.218   2.395   0.207
  893TIP3    H2 2686   4.236   2.408   0.057
  894TIP3   OH2 2687   3.646   2.217   0.466
  894TIP3    H1 2688   3.692   2.134   0.459
  894TIP3    H2 2689   3.554   2.195   0.452
  895TIP3   OH2 2690   2.429   5.219   1.072
  895TIP3    H1 2691   2.480   5.141   1.053
  895TIP3    H2 2692   2.401   5.209   1.163
  896TIP3   OH2 2693   3.652  -0.030   4.532
  896TIP3    H1 2694   3.562  -0.037   4.500
  896TIP3    H2 2695   3.677   0.061   4.514
  897TIP3   OH2 2696   6.289   4.747   3.510
  897TIP3    H1 2697   6.332   4.746   3.424
  897TIP3    H2 2698   6.360   4.765   3.572
  898TIP3   OH2 2699   4.193   2.073   3.223
  898TIP3    H1 2700   4.130   2.022   3.274
  898TIP3    H2 2701   4.139   2.122   3.161
  899TIP3   OH2 2702   4.595   0.468   0.443
  899TIP3    H1 2703   4.511   0.422   0.432
  899TIP3    H2 2704   4.571   0.549   0.487
  900TIP3   OH2 2705   4.206   4.378   0.521
  900TIP3    H1 2706   4.282   4.429   0.497
  900TIP3    H2 2707   4.236   4.287   0.519
  901TIP3   OH2 2708   0.684   5.708   5.028
  901TIP3    H1 2709   0.632   5.662   5.094
  901TIP3    H2 2710   0.720   5.784   5.074
  902TIP3   OH2 2711   1.084   0.958   1.565
  902TIP3    H1 2712   1.141   0.952   1.641
  902TIP3    H2 2713   1.121   1.028   1.512
  903TIP3   OH2 2714   1.912   3.468   4.148
  903TIP3    H1 2715   1.870   3.382   4.149
  903TIP3    H2 2716   1.969   3.468   4.225
  904TIP3   OH2 2717   1.734   5.824   0.084
  904TIP3    H1 2718   1.715   5.779   0.166
  904TIP3    H2 2719   1.671   5.789   0.021
  905TIP3   OH2 2720   1.219   5.966   0.845
  905TIP3    H1 2721   1.306   5.982   0.808
  905TIP3    H2 2722   1.232   5.894   0.907
  906TIP3   OH2 2723   2.168   0.632   3.397
  906TIP3    H1 2724   2.137   0.693   3.464
  906TIP3    H2 2725   2.134   0.547   3.424
  907TIP3   OH2 2726   5.399   0.440   4.998
  907TIP3    H1 2727   5.328   0.378   5.016
  907TIP3    H2 2728   5.469   0.415   5.058
  908TIP3   OH2 2729   1.645   1.962   4.017
  908TIP3    H1 2730   1.573   2.021   4.039
  908TIP3    H2 2731   1.686   2.002   3.940
  909TIP3   OH2 2732   4.908   3.401   3.573
  909TIP3    H1 2733   4.926   3.311   3.546
  909TIP3    H2 2734   4.993   3.444   3.577
  910TIP3   OH2 2735   2.119   4.096   3.931
  910TIP3    H1 2736   2.181   4.158   3.967
  910TIP3    H2 2737   2.035   4.142   3.934
  911TIP3   OH2 2738   2.370   1.066   0.446
  911TIP3    H1 2739   2.394   1.158   0.455
  911TIP3    H2 2740   2.274   1.066   0.450
  912TIP3   OH2 2741   0.877   5.310   1.133
  912TIP3    H1 2742   0.841   5.375   1.072
  912TIP3    H2 2743   0.865   5.226   1.089
  913TIP3   OH2 2744   5.002   3.382   2.974
  913TIP3    H1 2745   4.955   3.441   3.033
  913TIP3    H2 2746   4.937   3.315   2.951
  914TIP3   OH2 2747   4.272   5.307   0.070
  914TIP3    H1 2748   4.261   5.291   0.163
  914TIP3    H2 2749   4.310   5.226   0.036
  915TIP3   OH2 2750   5.508   0.846   3.599
  915TIP3    H1 2751   5.523   0.763   3.644
  915TIP3    H2 2752   5.596   0.881   3.585
  916TIP3   OH2 2753   4.659   2.438   0.812
  916TIP3    H1 2754   4.672   2.468   0.901
  916TIP3    H2 2755   4.734   2.380   0.795
  917TIP3   OH2 2756   4.395   0.954   0.331
  917TIP3    H1 2757   4.449   1.028   0.359
  917TIP3    H2 2758   4.378   0.971   0.238
  918TIP3   OH2 2759   4.621   3.208   0.292
  918TIP3    H1 2760   4.569   3.278   0.331
  918TIP3    H2 2761   4.577   3.188   0.209
  919TIP3   OH2 2762   0.672   3.894   3.357
  919TIP3    H1 2763   0.721   3.976   3.352
  919TIP3    H2 2764   0.738   3.825   3.348
  920TIP3   OH2 2765   1.431   5.107   3.129
  920TIP3    H1 2766   1.398   5.018   3.115
  920TIP3    H2 2767   1.362   5.150   3.179
  921TIP3   OH2 2768   0.210   1.378   4.072
  921TIP3    H1 2769   0.231   1.469   4.093
  921TIP3    H2 2770   0.281   1.327   4.110
  922TIP3   OH2 2771   1.132   3.178   2.020
  922TIP3    H1 2772   1.184   3.099   2.023
  922TIP3    H2 2773   1.192   3.245   1.986
  923TIP3   OH2 2774   3.869   4.570   2.256
  923TIP3    H1 2775   3.784   4.531   2.237
  923TIP3    H2 2776   3.904   4.518   2.328
  924TIP3   OH2 2777   2.089   2.494   2.520
  924TIP3    H1 2778   1.995   2.505   2.504
  924TIP3    H2 2779   2.102   2.399   2.518
  925TIP3   OH2 2780   2.352   5.055   0.739
  925TIP3    H1 2781   2.259   5.066   0.758
  925TIP3    H2 2782   2.389   5.143   0.751
  926TIP3   OH2 2783   0.979   1.622   3.954
  926TIP3    H1 2784   1.060   1.670   3.973
  926TIP3    H2 2785   1.008   1.532   3.939
  927TIP3   OH2 2786   3.566   2.758   0.744
  927TIP3    H1 2787   3.616   2.706   0.806
  927TIP3    H2 2788   3.607   2.741   0.659
  928TIP3   OH2 2789   1.367   2.837   5.120
  928TIP3    H1 2790   1.348   2.769   5.056
  928TIP3    H2 2791   1.403   2.790   5.195
  929TIP3   OH2 2792   2.033   0.982   0.525
  929TIP3    H1 2793   2.029   1.064   0.476
  929TIP3    H2 2794   1.960   0.988   0.587
  930TIP3   OH2 2795   2.164   3.436   3.749
  930TIP3    H1 2796   2.236   3.449   3.810
  930TIP3    H2 2797   2.148   3.341   3.751
  931TIP3   OH2 2798   1.922   5.041   1.550
  931TIP3    H1 2799   1.904   5.070   1.640
  931TIP3    H2 2800   1.875   5.103   1.495
  932TIP3   OH2 2801   1.199   4.408   1.284
  932TIP3    H1 2802   1.294   4.400   1.277
  932TIP3    H2 2803   1.168   4.318   1.297
  933TIP3   OH2 2804   3.859   5.032   1.819
  933TIP3    H1 2805   3.792   4.993   1.875
  933TIP3    H2 2806   3.941   4.995   1.851
  934TIP3   OH2 2807   5.913   3.209   4.630
  934TIP3    H1 2808   5.948   3.290   4.593
  934TIP3    H2 2809   5.990   3.162   4.663
  935TIP3   OH2 2810   3.757   1.816   2.990
  935TIP3    H1 2811   3.802   1.900   2.986
  935TIP3    H2 2812   3.687   1.823   2.925
  936TIP3   OH2 2813   0.698  -0.045   4.405
  936TIP3    H1 2814   0.738  -0.101   4.471
  936TIP3    H2 2815   0.766  -0.034   4.338
  937TIP3   OH2 2816   2.607   3.250   1.954
  937TIP3    H1 2817   2.679   3.193   1.980
  937TIP3    H2 2818   2.605   3.243   1.858
  938TIP3   OH2 2819   5.468   3.291   0.471
  938TIP3    H1 2820   5.453   3.197   0.472
  938TIP3    H2 2821   5.392   3.327   0.425
  939TIP3   OH2 2822   5.955   5.736   2.899
  939TIP3    H1 2823   6.007   5.770   2.972
  939TIP3    H2 2824   5.884   5.799   2.888
  940TIP3   OH2 2825   0.529   0.393   3.134
  940TIP3    H1 2826   0.578   0.458   3.083
  940TIP3    H2 2827   0.559   0.407   3.224
  941TIP3   OH2 2828   4.787   1.955   2.213
  941TIP3    H1 2829   4.782   1.890   2.143
  941TIP3    H2 2830   4.741   1.914   2.287
  942TIP3   OH2 2831   3.065   0.986   4.851
  942TIP3    H1 2832   3.158   0.965   4.844
  942TIP3    H2 2833   3.038   0.947   4.934
  943TIP3   OH2 2834   3.224   0.627   2.184
  943TIP3    H1 2835   3.261   0.544   2.213
  943TIP3    H2 2836   3.300   0.682   2.164
  944TIP3   OH2 2837   0.732   3.119   1.156
  944TIP3    H1 2838   0.816   3.113   1.201
  944TIP3    H2 2839   0.754   3.112   1.063
  945TIP3   OH2 2840   3.336   0.225   3.311
  945TIP3    H1 2841   3.387   0.305   3.318
  945TIP3    H2 2842   3.271   0.231   3.381
  946TIP3   OH2 2843   1.302   2.982   2.890
  946TIP3    H1 2844   1.226   2.942   2.931
  946TIP3    H2 2845   1.332   2.918   2.826
  947TIP3   OH2 2846   2.496   2.421   1.657
  947TIP3    H1 2847   2.417   2.446   1.706
  947TIP3    H2 2848   2.464   2.359   1.592
  948TIP3   OH2 2849   5.028   0.260   1.594
  948TIP3    H1 2850   4.949   0.264   1.540
  948TIP3    H2 2851   5.076   0.184   1.561
  949TIP3   OH2 2852   6.299   4.774   2.920
  949TIP3    H1 2853   6.379   4.804   2.962
  949TIP3    H2 2854   6.285   4.686   2.955
  950TIP3   OH2 2855   5.923   0.556   5.083
  950TIP3    H1 2856   5.934   0.482   5.023
  950TIP3    H2 2857   5.966   0.629   5.040
  951TIP3   OH2 2858   0.975   0.087   0.708
  951TIP3    H1 2859   0.979   0.137   0.626
  951TIP3    H2 2860   0.996   0.151   0.776
  952TIP3   OH2 2861   1.862   2.233   3.636
  952TIP3    H1 2862   1.931   2.236   3.569
  952TIP3    H2 2863   1.833   2.324   3.643
  953TIP3   OH2 2864   0.774   4.274   0.061
  953TIP3    H1 2865   0.824   4.354   0.077
  953TIP3    H2 2866   0.791   4.220   0.138
  954TIP3   OH2 2867   1.909   5.282   1.020
  954TIP3    H1 2868   1.926   5.299   0.928
  954TIP3    H2 2869   1.995   5.283   1.062
  955TIP3   OH2 2870   2.397   3.612   0.197
  955TIP3    H1 2871   2.391   3.525   0.236
  955TIP3    H2 2872   2.430   3.596   0.108
  956TIP3   OH2 2873   4.200   0.991   0.571
  956TIP3    H1 2874   4.274   0.982   0.511
  956TIP3    H2 2875   4.228   0.945   0.651
  957TIP3   OH2 2876   5.595   3.721   2.092
  957TIP3    H1 2877   5.505   3.739   2.067
  957TIP3    H2 2878   5.622   3.648   2.036
  958TIP3   OH2 2879   0.852   2.584   1.899
  958TIP3    H1 2880   0.823   2.651   1.838
  958TIP3    H2 2881   0.790   2.589   1.972
  959TIP3   OH2 2882   2.563   1.748   3.964
  959TIP3    H1 2883   2.553   1.695   4.043
  959TIP3    H2 2884   2.623   1.818   3.989
  960TIP3   OH2 2885   0.737   1.728   1.899
  960TIP3    H1 2886   0.724   1.644   1.943
  960TIP3    H2 2887   0.672   1.786   1.939
  961TIP3   OH2 2888   1.668   2.268   0.806
  961TIP3    H1 2889   1.580   2.272   0.844
  961TIP3    H2 2890   1.725   2.305   0.874
  962TIP3   OH2 2891   0.085   3.297   3.690
  962TIP3    H1 2892   0.150   3.229   3.671
  962TIP3    H2 2893   0.133   3.379   3.682
  963TIP3   OH2 2894   3.582   0.627   2.783
  963TIP3    H1 2895   3.665   0.582   2.765
  963TIP3    H2 2896   3.536   0.568   2.844
  964TIP3   OH2 2897   1.515   3.220   0.256
  964TIP3    H1 2898   1.435   3.168   0.266
  964TIP3    H2 2899   1.492   3.286   0.190
  965TIP3   OH2 2900   1.108   1.788   2.035
  965TIP3    H1 2901   1.077   1.792   1.944
  965TIP3    H2 2902   1.028   1.792   2.087
  966TIP3   OH2 2903   5.910   5.861   4.304
  966TIP3    H1 2904   5.873   5.910   4.378
  966TIP3    H2 2905   5.867   5.898   4.227
  967TIP3   OH2 2906   4.412   2.877   2.839
  967TIP3    H1 2907   4.481   2.822   2.876
  967TIP3    H2 2908   4.454   2.962   2.826
  968TIP3   OH2 2909   0.775   1.387   4.168
  968TIP3    H1 2910   0.704   1.383   4.104
  968TIP3    H2 2911   0.797   1.480   4.173
  969TIP3   OH2 2912   5.428   0.717   1.382
  969TIP3    H1 2913   5.463   0.638   1.342
  969TIP3    H2 2914   5.334   0.713   1.366
  970TIP3   OH2 2915   1.907   0.849   3.681
  970TIP3    H1 2916   1.924   0.761   3.714
  970TIP3    H2 2917   1.824   0.874   3.720
  971TIP3   OH2 2918   4.532   4.420   2.150
  971TIP3    H1 2919   4.565   4.426   2.240
  971TIP3    H2 2920   4.584   4.484   2.101
  972TIP3   OH2 2921   5.531   0.884   0.014
  972TIP3    H1 2922   5.582   0.817  -0.032
  972TIP3    H2 2923   5.590   0.915   0.083
  973TIP3   OH2 2924   4.306   0.489   2.569
  973TIP3    H1 2925   4.329   0.418   2.509
  973TIP3    H2 2926   4.390   0.515   2.608
  974TIP3   OH2 2927   1.682   4.842   5.151
  974TIP3    H1 2928   1.717   4.907   5.091
  974TIP3    H2 2929   1.644   4.893   5.222
  975TIP3   OH2 2930   4.445   5.591   0.576
  975TIP3    H1 2931   4.362   5.583   0.622
  975TIP3    H2 2932   4.509   5.609   0.645
  976TIP3   OH2 2933   5.555   0.798   2.401
  976TIP3    H1 2934   5.500   0.824   2.475
  976TIP3    H2 2935   5.495   0.787   2.328
  977TIP3   OH2 2936   2.834   0.114   2.708
  977TIP3    H1 2937   2.784   0.169   2.769
  977TIP3    H2 2938   2.803   0.139   2.621
  978TIP3   OH2 2939   0.192   4.816   3.619
  978TIP3    H1 2940   0.246   4.850   3.690
  978TIP3    H2 2941   0.240   4.740   3.586
  979TIP3   OH2 2942   3.980   2.177   3.083
  979TIP3    H1 2943   3.909   2.115   3.069
  979TIP3    H2 2944   3.953   2.228   3.159
  980TIP3   OH2 2945   3.733   0.197   2.187
  980TIP3    H1 2946   3.732   0.247   2.105
  980TIP3    H2 2947   3.820   0.212   2.224
  981TIP3   OH2 2948   6.173   3.147   1.585
  981TIP3    H1 2949   6.144   3.159   1.494
  981TIP3    H2 2950   6.180   3.236   1.620
  982TIP3   OH2 2951   4.361   2.027   4.334
  982TIP3    H1 2952   4.406   1.962   4.281
  982TIP3    H2 2953   4.320   2.086   4.271
  983TIP3   OH2 2954   2.059   1.231   2.043
  983TIP3    H1 2955   2.027   1.184   2.120
  983TIP3    H2 2956   2.151   1.251   2.064
  984TIP3   OH2 2957   0.374   3.771   2.770
  984TIP3    H1 2958   0.306   3.815   2.718
  984TIP3    H2 2959   0.331   3.748   2.852
  985TIP3   OH2 2960   1.076   4.954   1.771
  985TIP3    H1 2961   1.155   4.899   1.771
  985TIP3    H2 2962   1.003   4.891   1.767
  986TIP3   OH2 2963   1.807   5.080   3.737
  986TIP3    H1 2964   1.780   5.018   3.804
  986TIP3    H2 2965   1.897   5.103   3.760
  987TIP3   OH2 2966   1.925   1.482   0.952
  987TIP3    H1 2967   2.017   1.470   0.927
  987TIP3    H2 2968   1.915   1.429   1.031
  988TIP3   OH2 2969   4.249   3.980   1.722
  988TIP3    H1 2970   4.303   3.921   1.775
  988TIP3    H2 2971   4.311   4.044   1.686
  989TIP3   OH2 2972   3.738   1.112   1.304
  989TIP3    H1 2973   3.768   1.092   1.392
  989TIP3    H2 2974   3.779   1.196   1.284
  990TIP3   OH2 2975   1.251   4.257   0.117
  990TIP3    H1 2976   1.229   4.171   0.082
  990TIP3    H2 2977   1.291   4.239   0.202
  991TIP3   OH2 2978   2.307   4.404   1.081
  991TIP3    H1 2979   2.243   4.377   1.146
  991TIP3    H2 2980   2.389   4.414   1.130
  992TIP3   OH2 2981   5.872   3.377   0.950
  992TIP3    H1 2982   5.934   3.333   1.008
  992TIP3    H2 2983   5.859   3.464   0.990
  993TIP3   OH2 2984   5.901   4.026   1.280
  993TIP3    H1 2985   5.845   4.102   1.267
  993TIP3    H2 2986   5.990   4.062   1.286
  994TIP3   OH2 2987   4.068   4.507   0.826
  994TIP3    H1 2988   4.030   4.440   0.770
  994TIP3    H2 2989   4.036   4.590   0.790
  995TIP3   OH2 2990   0.209   1.344   2.494
  995TIP3    H1 2991   0.124   1.374   2.464
  995TIP3    H2 2992   0.190   1.286   2.568
  996TIP3   OH2 2993   3.367   5.738   3.527
  996TIP3    H1 2994   3.281   5.742   3.486
  996TIP3    H2 2995   3.396   5.829   3.533
  997TIP3   OH2 2996   5.031   1.067   1.721
  997TIP3    H1 2997   4.994   1.011   1.789
  997TIP3    H2 2998   5.119   1.088   1.751
  998TIP3   OH2 2999   1.424   3.931   1.898
  998TIP3    H1 3000   1.471   3.890   1.969
  998TIP3    H2 3001   1.377   3.859   1.855
  999TIP3   OH2 3002   0.405   4.225   4.043
  999TIP3    H1 3003   0.440   4.167   3.975
  999TIP3    H2 3004   0.314   4.197   4.054
 1000TIP3   OH2 3005   2.422   5.743   2.003
 1000TIP3    H1 3006   2.449   5.703   1.921
 1000TIP3    H2 3007   2.327   5.746   1.999
 1001TIP3   OH2 3008   6.321   3.813   4.882
 1001TIP3    H1 3009   6.249   3.862   4.920
 1001TIP3    H2 3010   6.281   3.731   4.851
 1002TIP3   OH2 3011   4.433   3.717   0.475
 1002TIP3    H1 3012   4.466   3.784   0.536
 1002TIP3    H2 3013   4.460   3.748   0.388
 1003TIP3   OH2 3014   6.004   3.217   3.798
 1003TIP3    H1 3015   6.079   3.259   3.839
 1003TIP3    H2 3016   5.956   3.288   3.755
 1004TIP3   OH2 3017   0.684   0.167   4.202
 1004TIP3    H1 3018   0.746   0.121   4.145
 1004TIP3    H2 3019   0.674   0.110   4.278
 1005TIP3   OH2 3020   1.374   4.596   3.563
 1005TIP3    H1 3021   1.369   4.575   3.656
 1005TIP3    H2 3022   1.286   4.627   3.541
 1006TIP3   OH2 3023   3.449   5.333   2.022
 1006TIP3    H1 3024   3.532   5.328   1.973
 1006TIP3    H2 3025   3.455   5.263   2.086
 1007TIP3   OH2 3026   4.590   3.745   2.023
 1007TIP3    H1 3027   4.597   3.656   1.988
 1007TIP3    H2 3028   4.549   3.734   2.109
 1008TIP3   OH2 3029   2.306   4.585   2.096
 1008TIP3    H1 3030   2.347   4.505   2.130
 1008TIP3    H2 3031   2.303   4.645   2.170
 1009TIP3   OH2 3032   1.055   5.937   3.423
 1009TIP3    H1 3033   1.146   5.950   3.396
 1009TIP3    H2 3034   1.052   5.846   3.454
 1010TIP3   OH2 3035   5.098   4.073   3.567
 1010TIP3    H1 3036   5.075   3.988   3.603
 1010TIP3    H2 3037   5.191   4.066   3.545
 1011TIP3   OH2 3038   2.486   5.227   4.311
 1011TIP3    H1 3039   2.521   5.196   4.227
 1011TIP3    H2 3040   2.418   5.163   4.332
 1012TIP3   OH2 3041   6.340   0.691   1.598
 1012TIP3    H1 3042   6.247   0.671   1.610
 1012TIP3    H2 3043   6.342   0.786   1.583
 1013TIP3   OH2 3044   0.529   4.000   2.294
 1013TIP3    H1 3045   0.571   3.948   2.226
 1013TIP3    H2 3046   0.597   4.009   2.362
 1014TIP3   OH2 3047   5.751   4.412   4.222
 1014TIP3    H1 3048   5.764   4.431   4.315
 1014TIP3    H2 3049   5.776   4.493   4.178
 1015TIP3   OH2 3050   1.420   3.586   4.401
 1015TIP3    H1 3051   1.498   3.591   4.456
 1015TIP3    H2 3052   1.425   3.663   4.345
 1016TIP3   OH2 3053   1.611   4.641   2.713
 1016TIP3    H1 3054   1.605   4.546   2.717
 1016TIP3    H2 3055   1.527   4.672   2.744
 1017TIP3   OH2 3056   0.449   2.905   1.759
 1017TIP3    H1 3057   0.470   2.922   1.667
 1017TIP3    H2 3058   0.368   2.854   1.756
 1018TIP3   OH2 3059   4.409   5.372   4.181
 1018TIP3    H1 3060   4.367   5.356   4.265
 1018TIP3    H2 3061   4.423   5.467   4.179
 1019TIP3   OH2 3062   2.814   0.768   4.615
 1019TIP3    H1 3063   2.861   0.742   4.694
 1019TIP3    H2 3064   2.769   0.689   4.586
 1020TIP3   OH2 3065   2.820   3.260   4.694
 1020TIP3    H1 3066   2.771   3.211   4.627
 1020TIP3    H2 3067   2.782   3.348   4.690
 1021TIP3   OH2 3068   5.316   2.715   1.409
 1021TIP3    H1 3069   5.364   2.753   1.335
 1021TIP3    H2 3070   5.382   2.665   1.457
 1022TIP3   OH2 3071   5.806   3.226   5.093
 1022TIP3    H1 3072   5.894   3.201   5.065
 1022TIP3    H2 3073   5.813   3.319   5.115
 1023TIP3   OH2 3074   1.344   2.019   2.619
 1023TIP3    H1 3075   1.379   1.938   2.658
 1023TIP3    H2 3076   1.420   2.077   2.616
 1024TIP3   OH2 3077   3.972   0.552   0.110
 1024TIP3    H1 3078   4.026   0.539   0.032
 1024TIP3    H2 3079   4.032   0.591   0.174
 1025TIP3   OH2 3080   5.968   4.456   3.243
 1025TIP3    H1 3081   5.959   4.513   3.319
 1025TIP3    H2 3082   5.914   4.380   3.264
 1026TIP3   OH2 3083   2.174   5.909   0.722
 1026TIP3    H1 3084   2.177   5.927   0.628
 1026TIP3    H2 3085   2.261   5.936   0.754
 1027TIP3   OH2 3086   0.960   5.283   2.505
 1027TIP3    H1 3087   0.886   5.332   2.540
 1027TIP3    H2 3088   1.035   5.314   2.555
 1028TIP3   OH2 3089   1.225   0.988   4.331
 1028TIP3    H1 3090   1.320   0.977   4.331
 1028TIP3    H2 3091   1.202   0.999   4.423
 1029TIP3   OH2 3092   3.189   0.593   4.463
 1029TIP3    H1 3093   3.193   0.546   4.547
 1029TIP3    H2 3094   3.181   0.524   4.397
 1030TIP3   OH2 3095   2.037   6.064   3.691
 1030TIP3    H1 3096   1.983   5.987   3.710
 1030TIP3    H2 3097   2.019   6.084   3.599
 1031TIP3   OH2 3098   0.033   5.168   1.498
 1031TIP3    H1 3099   0.062   5.251   1.459
 1031TIP3    H2 3100   0.098   5.104   1.469
 1032TIP3   OH2 3101   5.979   2.083   3.731
 1032TIP3    H1 3102   5.999   2.100   3.823
 1032TIP3    H2 3103   6.014   1.995   3.715
 1033TIP3   OH2 3104   6.050   4.348   3.795
 1033TIP3    H1 3105   6.097   4.397   3.863
 1033TIP3    H2 3106   6.102   4.269   3.781
 1034TIP3   OH2 3107   0.708   4.805   0.743
 1034TIP3    H1 3108   0.623   4.842   0.722
 1034TIP3    H2 3109   0.729   4.749   0.668
 1035TIP3   OH2 3110   1.217   5.404   0.971
 1035TIP3    H1 3111   1.151   5.452   0.921
 1035TIP3    H2 3112   1.263   5.472   1.020
 1036TIP3   OH2 3113   5.286   4.653   3.966
 1036TIP3    H1 3114   5.191   4.641   3.977
 1036TIP3    H2 3115   5.325   4.582   4.016
 1037TIP3   OH2 3116   6.068   2.028   0.281
 1037TIP3    H1 3117   6.119   2.103   0.310
 1037TIP3    H2 3118   6.083   2.023   0.187
 1038TIP3   OH2 3119   2.488   5.613   1.373
 1038TIP3    H1 3120   2.408   5.618   1.322
 1038TIP3    H2 3121   2.512   5.704   1.389
 1039TIP3   OH2 3122   6.267   5.854   0.881
 1039TIP3    H1 3123   6.340   5.792   0.877
 1039TIP3    H2 3124   6.211   5.830   0.807
 1040TIP3   OH2 3125   3.377   5.163   1.400
 1040TIP3    H1 3126   3.310   5.104   1.433
 1040TIP3    H2 3127   3.439   5.105   1.354
 1041TIP3   OH2 3128   3.865   2.344   0.330
 1041TIP3    H1 3129   3.784   2.310   0.365
 1041TIP3    H2 3130   3.931   2.322   0.395
 1042TIP3   OH2 3131   6.002   3.006   2.390
 1042TIP3    H1 3132   6.045   2.970   2.312
 1042TIP3    H2 3133   5.931   3.060   2.355
 1043TIP3   OH2 3134   2.991   0.204   1.325
 1043TIP3    H1 3135   2.988   0.260   1.403
 1043TIP3    H2 3136   2.965   0.118   1.357
 1044TIP3   OH2 3137   6.001   0.934   0.983
 1044TIP3    H1 3138   6.072   0.905   0.927
 1044TIP3    H2 3139   6.035   1.011   1.029
 1045TIP3   OH2 3140   2.715   0.593   1.148
 1045TIP3    H1 3141   2.757   0.516   1.111
 1045TIP3    H2 3142   2.770   0.617   1.223
 1046TIP3   OH2 3143   6.032   0.301   3.777
 1046TIP3    H1 3144   5.941   0.295   3.805
 1046TIP3    H2 3145   6.077   0.231   3.824
 1047TIP3   OH2 3146   5.326   5.142   2.197
 1047TIP3    H1 3147   5.331   5.229   2.236
 1047TIP3    H2 3148   5.316   5.158   2.103
 1048TIP3   OH2 3149   2.032   1.834   5.136
 1048TIP3    H1 3150   1.986   1.798   5.213
 1048TIP3    H2 3151   2.031   1.763   5.072
 1049TIP3   OH2 3152   6.218   3.373   3.858
 1049TIP3    H1 3153   6.301   3.337   3.829
 1049TIP3    H2 3154   6.224   3.467   3.839
 1050TIP3   OH2 3155   1.443   4.612   4.332
 1050TIP3    H1 3156   1.430   4.706   4.324
 1050TIP3    H2 3157   1.536   4.602   4.352
 1051TIP3   OH2 3158   0.331   2.032   3.014
 1051TIP3    H1 3159   0.398   2.071   3.069
 1051TIP3    H2 3160   0.288   1.968   3.071
 1052TIP3   OH2 3161   4.012   5.218   4.257
 1052TIP3    H1 3162   4.057   5.139   4.229
 1052TIP3    H2 3163   3.924   5.188   4.282
 1053TIP3   OH2 3164   3.663   5.491   0.821
 1053TIP3    H1 3165   3.738   5.475   0.763
 1053TIP3    H2 3166   3.693   5.461   0.907
 1054TIP3   OH2 3167   3.380   5.610   0.889
 1054TIP3    H1 3168   3.346   5.524   0.864
 1054TIP3    H2 3169   3.475   5.601   0.879
 1055TIP3   OH2 3170   1.831   1.193   4.994
 1055TIP3    H1 3171   1.763   1.126   4.998
 1055TIP3    H2 3172   1.873   1.179   4.909
 1056TIP3   OH2 3173   0.595   1.408   1.733
 1056TIP3    H1 3174   0.550   1.491   1.720
 1056TIP3    H2 3175   0.539   1.343   1.691
 1057TIP3   OH2 3176   5.399   5.241   5.110
 1057TIP3    H1 3177   5.336   5.210   5.176
 1057TIP3    H2 3178   5.463   5.291   5.160
 1058TIP3   OH2 3179   0.624   4.419   1.475
 1058TIP3    H1 3180   0.664   4.360   1.538
 1058TIP3    H2 3181   0.661   4.393   1.391
 1059TIP3   OH2 3182   1.326   1.110   2.484
 1059TIP3    H1 3183   1.339   1.198   2.520
 1059TIP3    H2 3184   1.243   1.081   2.523
 1060TIP3   OH2 3185   0.182   1.329   3.755
 1060TIP3    H1 3186   0.119   1.288   3.696
 1060TIP3    H2 3187   0.147   1.316   3.843
 1061TIP3   OH2 3188   4.403   1.053   0.840
 1061TIP3    H1 3189   4.367   1.134   0.875
 1061TIP3    H2 3190   4.454   1.016   0.913
 1062TIP3   OH2 3191   1.794   2.928   3.243
 1062TIP3    H1 3192   1.731   2.857   3.226
 1062TIP3    H2 3193   1.783   2.988   3.169
 1063TIP3   OH2 3194   2.850   2.409   1.399
 1063TIP3    H1 3195   2.797   2.429   1.322
 1063TIP3    H2 3196   2.906   2.337   1.371
 1064TIP3   OH2 3197   4.135   1.403   2.876
 1064TIP3    H1 3198   4.090   1.350   2.810
 1064TIP3    H2 3199   4.098   1.490   2.866
 1065TIP3   OH2 3200   6.286   1.894   2.341
 1065TIP3    H1 3201   6.278   1.967   2.403
 1065TIP3    H2 3202   6.328   1.824   2.391
 1066TIP3   OH2 3203   3.299   4.734   1.293
 1066TIP3    H1 3204   3.346   4.796   1.237
 1066TIP3    H2 3205   3.243   4.684   1.233
 1067TIP3   OH2 3206   3.799   1.622   2.633
 1067TIP3    H1 3207   3.717   1.672   2.632
 1067TIP3    H2 3208   3.842   1.644   2.551
 1068TIP3   OH2 3209   4.293   5.631   1.259
 1068TIP3    H1 3210   4.359   5.627   1.189
 1068TIP3    H2 3211   4.240   5.552   1.247
 1069TIP3   OH2 3212   6.109   0.253   2.607
 1069TIP3    H1 3213   6.174   0.218   2.545
 1069TIP3    H2 3214   6.139   0.222   2.692
 1070TIP3   OH2 3215   0.164   5.462   3.082
 1070TIP3    H1 3216   0.149   5.538   3.139
 1070TIP3    H2 3217   0.204   5.499   3.004
 1071TIP3   OH2 3218   3.228   5.078   2.062
 1071TIP3    H1 3219   3.237   5.106   2.153
 1071TIP3    H2 3220   3.317   5.080   2.027
 1072TIP3   OH2 3221   4.515   1.196   4.701
 1072TIP3    H1 3222   4.539   1.280   4.739
 1072TIP3    H2 3223   4.542   1.202   4.609
 1073TIP3   OH2 3224   4.785   3.553   3.831
 1073TIP3    H1 3225   4.729   3.546   3.753
 1073TIP3    H2 3226   4.874   3.551   3.797
 1074TIP3   OH2 3227   1.481   5.887   1.754
 1074TIP3    H1 3228   1.407   5.834   1.783
 1074TIP3    H2 3229   1.522   5.918   1.835
 1075TIP3   OH2 3230   1.961   3.009   0.446
 1075TIP3    H1 3231   1.865   3.004   0.451
 1075TIP3    H2 3232   1.988   2.920   0.424
 1076TIP3   OH2 3233   0.545   5.640   3.741
 1076TIP3    H1 3234   0.549   5.553   3.700
 1076TIP3    H2 3235   0.576   5.700   3.674
 1077TIP3   OH2 3236   2.083   0.115   5.153
 1077TIP3    H1 3237   2.019   0.087   5.218
 1077TIP3    H2 3238   2.091   0.040   5.093
 1078TIP3   OH2 3239   2.158   0.034   4.548
 1078TIP3    H1 3240   2.221   0.089   4.594
 1078TIP3    H2 3241   2.072   0.067   4.576
 1079TIP3   OH2 3242   6.252   3.451   1.475
 1079TIP3    H1 3243   6.292   3.513   1.535
 1079TIP3    H2 3244   6.167   3.431   1.514
 1080TIP3   OH2 3245   0.668   5.391   3.202
 1080TIP3    H1 3246   0.620   5.469   3.173
 1080TIP3    H2 3247   0.631   5.369   3.287
 1081TIP3   OH2 3248   3.974   3.782   0.166
 1081TIP3    H1 3249   4.063   3.746   0.169
 1081TIP3    H2 3250   3.918   3.710   0.195
 1082TIP3   OH2 3251   5.989   5.366   2.384
 1082TIP3    H1 3252   5.933   5.305   2.433
 1082TIP3    H2 3253   5.989   5.332   2.295
 1083TIP3   OH2 3254   0.683  -0.019   2.807
 1083TIP3    H1 3255   0.650   0.062   2.846
 1083TIP3    H2 3256   0.643  -0.088   2.860
 1084TIP3   OH2 3257   3.412   2.472   0.030
 1084TIP3    H1 3258   3.316   2.479   0.030
 1084TIP3    H2 3259   3.443   2.561   0.040
 1085TIP3   OH2 3260   5.707   3.463   0.496
 1085TIP3    H1 3261   5.627   3.423   0.462
 1085TIP3    H2 3262   5.745   3.396   0.554
 1086TIP3   OH2 3263   4.308   0.514   3.549
 1086TIP3    H1 3264   4.315   0.460   3.628
 1086TIP3    H2 3265   4.244   0.468   3.495
 1087TIP3   OH2 3266   3.497   5.171   1.687
 1087TIP3    H1 3267   3.487   5.087   1.731
 1087TIP3    H2 3268   3.437   5.166   1.612
 1088TIP3   OH2 3269   1.512   4.781   3.230
 1088TIP3    H1 3270   1.512   4.821   3.317
 1088TIP3    H2 3271   1.431   4.813   3.189
 1089TIP3   OH2 3272   0.740   0.363   0.853
 1089TIP3    H1 3273   0.685   0.418   0.796
 1089TIP3    H2 3274   0.692   0.281   0.860
 1090TIP3   OH2 3275   1.086   2.270   1.616
 1090TIP3    H1 3276   0.996   2.272   1.649
 1090TIP3    H2 3277   1.082   2.315   1.532
 1091TIP3   OH2 3278   1.117   5.977   4.439
 1091TIP3    H1 3279   1.194   5.921   4.444
 1091TIP3    H2 3280   1.045   5.921   4.466
 1092TIP3   OH2 3281   4.152   5.265   3.157
 1092TIP3    H1 3282   4.216   5.331   3.184
 1092TIP3    H2 3283   4.081   5.316   3.117
 1093TIP3   OH2 3284   4.679   0.287   0.725
 1093TIP3    H1 3285   4.739   0.318   0.657
 1093TIP3    H2 3286   4.734   0.279   0.803
 1094TIP3   OH2 3287   1.771   0.671   2.497
 1094TIP3    H1 3288   1.831   0.596   2.492
 1094TIP3    H2 3289   1.684   0.632   2.491
 1095TIP3   OH2 3290   4.394   0.101   3.873
 1095TIP3    H1 3291   4.459   0.035   3.851
 1095TIP3    H2 3292   4.320   0.082   3.816
 1096TIP3   OH2 3293   1.893   5.816   4.339
 1096TIP3    H1 3294   1.848   5.899   4.324
 1096TIP3    H2 3295   1.852   5.755   4.277
 1097TIP3   OH2 3296   3.791   0.076   0.712
 1097TIP3    H1 3297   3.747   0.062   0.795
 1097TIP3    H2 3298   3.873   0.028   0.719
 1098TIP3   OH2 3299   0.883   4.976   4.439
 1098TIP3    H1 3300   0.816   4.911   4.462
 1098TIP3    H2 3301   0.961   4.924   4.419
 1099TIP3   OH2 3302   0.859   0.627   3.411
 1099TIP3    H1 3303   0.779   0.665   3.375
 1099TIP3    H2 3304   0.929   0.666   3.360
 1100TIP3   OH2 3305   5.479   5.833   1.009
 1100TIP3    H1 3306   5.538   5.878   1.070
 1100TIP3    H2 3307   5.427   5.904   0.970
 1101TIP3   OH2 3308   2.837   4.772   2.009
 1101TIP3    H1 3309   2.922   4.757   1.969
 1101TIP3    H2 3310   2.774   4.740   1.944
 1102TIP3   OH2 3311   5.771   1.548   0.570
 1102TIP3    H1 3312   5.711   1.478   0.541
 1102TIP3    H2 3313   5.811   1.514   0.650
 1103TIP3   OH2 3314   1.867   3.687   1.630
 1103TIP3    H1 3315   1.938   3.745   1.659
 1103TIP3    H2 3316   1.895   3.600   1.658
 1104TIP3   OH2 3317   0.659   0.728   3.262
 1104TIP3    H1 3318   0.671   0.680   3.180
 1104TIP3    H2 3319   0.582   0.783   3.247
 1105TIP3   OH2 3320   4.337   1.052   3.350
 1105TIP3    H1 3321   4.275   1.037   3.279
 1105TIP3    H2 3322   4.348   0.966   3.391
 1106TIP3   OH2 3323   1.222   0.086   2.872
 1106TIP3    H1 3324   1.288   0.122   2.813
 1106TIP3    H2 3325   1.240  -0.008   2.874
 1107TIP3   OH2 3326   1.205   0.577   4.467
 1107TIP3    H1 3327   1.121   0.596   4.508
 1107TIP3    H2 3328   1.245   0.511   4.523
 1108TIP3   OH2 3329   5.098   3.262   2.406
 1108TIP3    H1 3330   5.063   3.351   2.397
 1108TIP3    H2 3331   5.191   3.275   2.428
 1109TIP3   OH2 3332   0.641   5.841   4.094
 1109TIP3    H1 3333   0.731   5.854   4.066
 1109TIP3    H2 3334   0.590   5.900   4.038
 1110TIP3   OH2 3335   6.096   5.350   4.785
 1110TIP3    H1 3336   6.172   5.298   4.810
 1110TIP3    H2 3337   6.096   5.348   4.689
 1111TIP3   OH2 3338   5.002   2.572   4.891
 1111TIP3    H1 3339   4.948   2.516   4.836
 1111TIP3    H2 3340   5.082   2.584   4.841
 1112TIP3   OH2 3341   3.703   3.660   2.032
 1112TIP3    H1 3342   3.791   3.642   1.998
 1112TIP3    H2 3343   3.707   3.634   2.124
 1113TIP3   OH2 3344   2.108   5.175   4.266
 1113TIP3    H1 3345   2.126   5.091   4.223
 1113TIP3    H2 3346   2.084   5.151   4.356
 1114TIP3   OH2 3347   5.329   3.676   3.767
 1114TIP3    H1 3348   5.412   3.633   3.790
 1114TIP3    H2 3349   5.349   3.770   3.770
 1115TIP3   OH2 3350   3.750   1.047   2.038
 1115TIP3    H1 3351   3.744   1.030   2.132
 1115TIP3    H2 3352   3.708   1.132   2.026
 1116TIP3   OH2 3353   3.242   0.609   1.086
 1116TIP3    H1 3354   3.157   0.578   1.117
 1116TIP3    H2 3355   3.282   0.650   1.162
 1117TIP3   OH2 3356   4.043   3.451   0.769
 1117TIP3    H1 3357   4.048   3.500   0.686
 1117TIP3    H2 3358   4.010   3.515   0.832
 1118TIP3   OH2 3359   1.615   1.865   3.633
 1118TIP3    H1 3360   1.597   1.771   3.624
 1118TIP3    H2 3361   1.706   1.874   3.606
 1119TIP3   OH2 3362   2.579   1.722   3.319
 1119TIP3    H1 3363   2.654   1.773   3.349
 1119TIP3    H2 3364   2.606   1.631   3.327
 1120TIP3   OH2 3365   5.067   3.812   4.114
 1120TIP3    H1 3366   5.140   3.870   4.092
 1120TIP3    H2 3367   5.046   3.767   4.031
 1121TIP3   OH2 3368   3.298   5.646   5.121
 1121TIP3    H1 3369   3.228   5.712   5.124
 1121TIP3    H2 3370   3.315   5.634   5.028
 1122TIP3   OH2 3371   1.524   3.018   4.248
 1122TIP3    H1 3372   1.588   3.003   4.178
 1122TIP3    H2 3373   1.566   3.082   4.305
 1123TIP3   OH2 3374   2.380   1.843   3.779
 1123TIP3    H1 3375   2.427   1.807   3.854
 1123TIP3    H2 3376   2.432   1.918   3.752
 1124TIP3   OH2 3377   1.754   2.601   1.770
 1124TIP3    H1 3378   1.825   2.658   1.800
 1124TIP3    H2 3379   1.678   2.659   1.763
 1125TIP3   OH2 3380   4.515   2.332   5.184
 1125TIP3    H1 3381   4.578   2.262   5.199
 1125TIP3    H2 3382   4.520   2.387   5.263
 1126TIP3   OH2 3383   4.506   0.004   0.846
 1126TIP3    H1 3384   4.494   0.099   0.849
 1126TIP3    H2 3385   4.529  -0.020   0.936
 1127TIP3   OH2 3386   5.982   2.212   4.978
 1127TIP3    H1 3387   5.998   2.150   5.049
 1127TIP3    H2 3388   5.963   2.295   5.021
 1128TIP3   OH2 3389   2.841   5.333   3.916
 1128TIP3    H1 3390   2.898   5.337   3.839
 1128TIP3    H2 3391   2.778   5.404   3.904
 1129TIP3   OH2 3392   0.083   2.240   4.646
 1129TIP3    H1 3393   0.104   2.303   4.716
 1129TIP3    H2 3394   0.142   2.264   4.574
 1130TIP3   OH2 3395   0.744   5.045   4.743
 1130TIP3    H1 3396   0.825   4.994   4.750
 1130TIP3    H2 3397   0.772   5.136   4.749
 1131TIP3   OH2 3398   4.436   4.806   3.851
 1131TIP3    H1 3399   4.421   4.900   3.866
 1131TIP3    H2 3400   4.518   4.787   3.897
 1132TIP3   OH2 3401   4.434   1.155   1.714
 1132TIP3    H1 3402   4.419   1.072   1.761
 1132TIP3    H2 3403   4.424   1.132   1.622
 1133TIP3   OH2 3404   2.845   4.145   2.695
 1133TIP3    H1 3405   2.924   4.094   2.679
 1133TIP3    H2 3406   2.858   4.182   2.782
 1134TIP3   OH2 3407   2.474   4.149   1.698
 1134TIP3    H1 3408   2.433   4.234   1.712
 1134TIP3    H2 3409   2.416   4.104   1.637
 1135TIP3   OH2 3410   2.991   0.329   1.590
 1135TIP3    H1 3411   3.035   0.382   1.656
 1135TIP3    H2 3412   3.050   0.255   1.575
 1136TIP3   OH2 3413   2.039   3.777   3.083
 1136TIP3    H1 3414   1.943   3.769   3.089
 1136TIP3    H2 3415   2.061   3.847   3.145
 1137TIP3   OH2 3416   0.229   0.265   5.077
 1137TIP3    H1 3417   0.143   0.296   5.108
 1137TIP3    H2 3418   0.213   0.235   4.988
 1138TIP3   OH2 3419   4.650   4.467   2.412
 1138TIP3    H1 3420   4.598   4.409   2.467
 1138TIP3    H2 3421   4.692   4.528   2.473
 1139TIP3   OH2 3422   5.239   0.471   3.607
 1139TIP3    H1 3423   5.204   0.421   3.533
 1139TIP3    H2 3424   5.171   0.465   3.674
 1140TIP3   OH2 3425   1.068   0.134   3.879
 1140TIP3    H1 3426   1.059   0.144   3.784
 1140TIP3    H2 3427   1.044   0.219   3.914
 1141TIP3   OH2 3428   4.684   0.332   2.603
 1141TIP3    H1 3429   4.769   0.287   2.595
 1141TIP3    H2 3430   4.681   0.389   2.526
 1142TIP3   OH2 3431   4.158   5.151   3.442
 1142TIP3    H1 3432   4.095   5.207   3.396
 1142TIP3    H2 3433   4.163   5.189   3.530
 1143TIP3   OH2 3434   4.247   2.826   2.593
 1143TIP3    H1 3435   4.285   2.841   2.680
 1143TIP3    H2 3436   4.187   2.899   2.580
 1144TIP3   OH2 3437   2.546   5.393   4.885
 1144TIP3    H1 3438   2.492   5.433   4.953
 1144TIP3    H2 3439   2.521   5.438   4.804
 1145TIP3   OH2 3440   2.963   4.449   2.038
 1145TIP3    H1 3441   2.984   4.369   1.991
 1145TIP3    H2 3442   3.009   4.518   1.989
 1146TIP3   OH2 3443   5.361   5.428   4.632
 1146TIP3    H1 3444   5.369   5.493   4.562
 1146TIP3    H2 3445   5.423   5.457   4.699
 1147TIP3   OH2 3446   2.233   0.508   4.661
 1147TIP3    H1 3447   2.327   0.511   4.643
 1147TIP3    H2 3448   2.219   0.576   4.728
 1148TIP3   OH2 3449   0.699   1.526   4.769
 1148TIP3    H1 3450   0.736   1.439   4.783
 1148TIP3    H2 3451   0.723   1.574   4.848
 1149TIP3   OH2 3452   5.721   0.330   1.796
 1149TIP3    H1 3453   5.661   0.300   1.728
 1149TIP3    H2 3454   5.766   0.406   1.757
 1150TIP3   OH2 3455   3.578   2.496   1.799
 1150TIP3    H1 3456   3.534   2.581   1.798
 1150TIP3    H2 3457   3.671   2.517   1.809
 1151TIP3   OH2 3458   5.589   5.377   4.368
 1151TIP3    H1 3459   5.552   5.301   4.411
 1151TIP3    H2 3460   5.598   5.351   4.276
 1152TIP3   OH2 3461   2.450   5.531   5.102
 1152TIP3    H1 3462   2.407   5.552   5.185
 1152TIP3    H2 3463   2.542   5.557   5.115
 1153TIP3   OH2 3464   5.715   3.789   3.277
 1153TIP3    H1 3465   5.778   3.784   3.204
 1153TIP3    H2 3466   5.761   3.840   3.344
 1154TIP3   OH2 3467   2.121   5.000   1.068
 1154TIP3    H1 3468   2.134   5.078   1.123
 1154TIP3    H2 3469   2.059   5.029   1.001
 1155TIP3   OH2 3470   2.807   4.911   0.572
 1155TIP3    H1 3471   2.749   4.836   0.583
 1155TIP3    H2 3472   2.788   4.967   0.647
 1156TIP3   OH2 3473   1.450   5.134   5.118
 1156TIP3    H1 3474   1.372   5.132   5.063
 1156TIP3    H2 3475   1.446   5.052   5.168
 1157TIP3   OH2 3476   0.426   3.732   1.957
 1157TIP3    H1 3477   0.473   3.806   1.994
 1157TIP3    H2 3478   0.341   3.768   1.931
 1158TIP3   OH2 3479   1.164   4.339   3.657
 1158TIP3    H1 3480   1.230   4.402   3.687
 1158TIP3    H2 3481   1.108   4.390   3.598
 1159TIP3   OH2 3482   1.036   0.928   1.062
 1159TIP3    H1 3483   0.988   1.006   1.091
 1159TIP3    H2 3484   0.994   0.903   0.980
 1160TIP3   OH2 3485   2.816   1.858   3.784
 1160TIP3    H1 3486   2.787   1.855   3.876
 1160TIP3    H2 3487   2.906   1.890   3.789
 1161TIP3   OH2 3488   4.210   5.320   4.453
 1161TIP3    H1 3489   4.212   5.413   4.430
 1161TIP3    H2 3490   4.131   5.287   4.410
 1162TIP3   OH2 3491   2.766   4.791   1.052
 1162TIP3    H1 3492   2.712   4.734   0.998
 1162TIP3    H2 3493   2.856   4.772   1.025
 1163TIP3   OH2 3494   5.117   0.152   2.350
 1163TIP3    H1 3495   5.118   0.058   2.369
 1163TIP3    H2 3496   5.172   0.162   2.272
 1164TIP3   OH2 3497   5.740   2.764   1.227
 1164TIP3    H1 3498   5.722   2.857   1.216
 1164TIP3    H2 3499   5.801   2.743   1.156
 1165TIP3   OH2 3500   4.416   3.067   2.153
 1165TIP3    H1 3501   4.372   2.993   2.197
 1165TIP3    H2 3502   4.393   3.057   2.061
 1166TIP3   OH2 3503   5.960   3.672   3.933
 1166TIP3    H1 3504   5.959   3.759   3.893
 1166TIP3    H2 3505   5.926   3.686   4.022
 1167TIP3   OH2 3506   3.317   3.031   2.866
 1167TIP3    H1 3507   3.299   3.121   2.893
 1167TIP3    H2 3508   3.284   3.026   2.776
 1168TIP3   OH2 3509   0.182   0.619   1.076
 1168TIP3    H1 3510   0.275   0.610   1.094
 1168TIP3    H2 3511   0.140   0.615   1.162
 1169TIP3   OH2 3512   0.232   5.757   2.732
 1169TIP3    H1 3513   0.168   5.729   2.797
 1169TIP3    H2 3514   0.293   5.684   2.725
 1170TIP3   OH2 3515   4.273   0.384   1.578
 1170TIP3    H1 3516   4.210   0.439   1.624
 1170TIP3    H2 3517   4.221   0.335   1.514
 1171TIP3   OH2 3518   2.604   2.744   2.680
 1171TIP3    H1 3519   2.582   2.722   2.771
 1171TIP3    H2 3520   2.525   2.787   2.647
 1172TIP3   OH2 3521   3.774   1.520   3.138
 1172TIP3    H1 3522   3.819   1.484   3.062
 1172TIP3    H2 3523   3.819   1.602   3.157
 1173TIP3   OH2 3524   1.126   3.553   3.124
 1173TIP3    H1 3525   1.180   3.624   3.091
 1173TIP3    H2 3526   1.149   3.545   3.217
 1174TIP3   OH2 3527   2.392   3.054   5.173
 1174TIP3    H1 3528   2.454   3.010   5.232
 1174TIP3    H2 3529   2.440   3.066   5.092
 1175TIP3   OH2 3530   4.264   4.113   4.407
 1175TIP3    H1 3531   4.323   4.104   4.332
 1175TIP3    H2 3532   4.309   4.172   4.466
 1176TIP3   OH2 3533   1.446   0.417   4.182
 1176TIP3    H1 3534   1.366   0.374   4.214
 1176TIP3    H2 3535   1.451   0.498   4.233
 1177TIP3   OH2 3536   5.416   4.406   2.119
 1177TIP3    H1 3537   5.450   4.466   2.185
 1177TIP3    H2 3538   5.474   4.418   2.043
 1178TIP3   OH2 3539   4.182   5.458   1.975
 1178TIP3    H1 3540   4.202   5.364   1.972
 1178TIP3    H2 3541   4.268   5.500   1.980
 1179TIP3   OH2 3542   0.532   2.606   1.744
 1179TIP3    H1 3543   0.471   2.549   1.791
 1179TIP3    H2 3544   0.479   2.646   1.675
 1180TIP3   OH2 3545   3.201   2.927   4.273
 1180TIP3    H1 3546   3.122   2.940   4.220
 1180TIP3    H2 3547   3.169   2.930   4.364
 1181TIP3   OH2 3548   5.737   1.582   4.287
 1181TIP3    H1 3549   5.749   1.506   4.344
 1181TIP3    H2 3550   5.697   1.649   4.343
 1182TIP3   OH2 3551   5.139   2.901   2.060
 1182TIP3    H1 3552   5.180   2.976   2.017
 1182TIP3    H2 3553   5.152   2.829   1.998
 1183TIP3   OH2 3554   1.967   5.641   0.264
 1183TIP3    H1 3555   1.968   5.737   0.262
 1183TIP3    H2 3556   2.054   5.617   0.297
 1184TIP3   OH2 3557   5.279   4.372   2.428
 1184TIP3    H1 3558   5.263   4.360   2.335
 1184TIP3    H2 3559   5.368   4.409   2.433
 1185TIP3   OH2 3560   2.507   4.878   0.224
 1185TIP3    H1 3561   2.525   4.873   0.318
 1185TIP3    H2 3562   2.565   4.813   0.185
 1186TIP3   OH2 3563   2.169   5.939   2.352
 1186TIP3    H1 3564   2.169   5.844   2.338
 1186TIP3    H2 3565   2.084   5.968   2.319
 1187TIP3   OH2 3566   5.506   2.120   4.840
 1187TIP3    H1 3567   5.433   2.179   4.819
 1187TIP3    H2 3568   5.469   2.058   4.902
 1188TIP3   OH2 3569   4.678   2.745   0.973
 1188TIP3    H1 3570   4.681   2.652   0.993
 1188TIP3    H2 3571   4.592   2.758   0.932
 1189TIP3   OH2 3572   4.301   2.046   1.163
 1189TIP3    H1 3573   4.254   2.127   1.147
 1189TIP3    H2 3574   4.260   1.982   1.104
 1190TIP3   OH2 3575   5.272   0.354   1.333
 1190TIP3    H1 3576   5.208   0.422   1.313
 1190TIP3    H2 3577   5.238   0.275   1.290
 1191TIP3   OH2 3578   2.678   3.790   0.727
 1191TIP3    H1 3579   2.696   3.860   0.790
 1191TIP3    H2 3580   2.719   3.820   0.646
 1192TIP3   OH2 3581   1.461   5.959   1.494
 1192TIP3    H1 3582   1.375   5.935   1.461
 1192TIP3    H2 3583   1.456   5.944   1.589
 1193TIP3   OH2 3584   0.089   2.500   0.553
 1193TIP3    H1 3585   0.138   2.423   0.525
 1193TIP3    H2 3586   0.148   2.544   0.615
 1194TIP3   OH2 3587   0.937   0.244   1.950
 1194TIP3    H1 3588   0.958   0.329   1.989
 1194TIP3    H2 3589   0.842   0.246   1.938
 1195TIP3   OH2 3590   1.932   2.693   4.808
 1195TIP3    H1 3591   2.016   2.649   4.814
 1195TIP3    H2 3592   1.921   2.735   4.893
 1196TIP3   OH2 3593   4.187   0.394   5.000
 1196TIP3    H1 3594   4.178   0.368   5.092
 1196TIP3    H2 3595   4.097   0.408   4.971
 1197TIP3   OH2 3596   3.514   5.541   0.579
 1197TIP3    H1 3597   3.546   5.470   0.523
 1197TIP3    H2 3598   3.570   5.539   0.656
 1198TIP3   OH2 3599   1.712   2.420   4.401
 1198TIP3    H1 3600   1.634   2.472   4.381
 1198TIP3    H2 3601   1.724   2.431   4.496
 1199TIP3   OH2 3602   6.204   2.246   4.472
 1199TIP3    H1 3603   6.282   2.230   4.526
 1199TIP3    H2 3604   6.179   2.336   4.492
 1200TIP3   OH2 3605   5.765   5.109   0.034
 1200TIP3    H1 3606   5.761   5.067   0.120
 1200TIP3    H2 3607   5.720   5.193   0.046
 1201TIP3   OH2 3608   3.328   0.743   4.182
 1201TIP3    H1 3609   3.337   0.658   4.138
 1201TIP3    H2 3610   3.242   0.740   4.223
 1202TIP3   OH2 3611   0.968   3.439   5.117
 1202TIP3    H1 3612   0.894   3.464   5.063
 1202TIP3    H2 3613   1.027   3.515   5.113
 1203TIP3   OH2 3614   5.159   0.866   3.649
 1203TIP3    H1 3615   5.217   0.799   3.612
 1203TIP3    H2 3616   5.079   0.818   3.673
 1204TIP3   OH2 3617   4.793   3.427   2.627
 1204TIP3    H1 3618   4.729   3.496   2.643
 1204TIP3    H2 3619   4.877   3.472   2.625
 1205TIP3   OH2 3620   3.912   5.145   0.797
 1205TIP3    H1 3621   3.979   5.141   0.865
 1205TIP3    H2 3622   3.895   5.238   0.786
 1206TIP3   OH2 3623   4.373   0.488   2.236
 1206TIP3    H1 3624   4.426   0.461   2.162
 1206TIP3    H2 3625   4.385   0.418   2.301
 1207TIP3   OH2 3626   1.351   0.018   3.723
 1207TIP3    H1 3627   1.341   0.111   3.702
 1207TIP3    H2 3628   1.397  -0.018   3.647
 1208TIP3   OH2 3629   4.926   4.739   1.874
 1208TIP3    H1 3630   4.950   4.824   1.910
 1208TIP3    H2 3631   5.010   4.694   1.860
 1209TIP3   OH2 3632   5.879   5.306   1.899
 1209TIP3    H1 3633   5.845   5.373   1.959
 1209TIP3    H2 3634   5.866   5.343   1.812
 1210TIP3   OH2 3635   2.179   0.329   1.695
 1210TIP3    H1 3636   2.176   0.353   1.788
 1210TIP3    H2 3637   2.272   0.328   1.674
 1211TIP3   OH2 3638   0.218   3.750   0.048
 1211TIP3    H1 3639   0.282   3.822   0.044
 1211TIP3    H2 3640   0.152   3.781   0.110
 1212TIP3   OH2 3641   1.981   1.987   1.270
 1212TIP3    H1 3642   1.954   1.982   1.362
 1212TIP3    H2 3643   2.022   2.073   1.262
 1213TIP3   OH2 3644   0.246   4.590   4.862
 1213TIP3    H1 3645   0.197   4.545   4.930
 1213TIP3    H2 3646   0.295   4.521   4.818
 1214TIP3   OH2 3647   1.811   3.768   0.838
 1214TIP3    H1 3648   1.849   3.840   0.789
 1214TIP3    H2 3649   1.864   3.692   0.814
 1215TIP3   OH2 3650   1.603   5.361   5.161
 1215TIP3    H1 3651   1.534   5.295   5.151
 1215TIP3    H2 3652   1.678   5.326   5.113
 1216TIP3   OH2 3653   4.489   4.854   5.026
 1216TIP3    H1 3654   4.544   4.920   5.068
 1216TIP3    H2 3655   4.475   4.886   4.938
 1217TIP3   OH2 3656   4.878   2.327   0.465
 1217TIP3    H1 3657   4.844   2.372   0.388
 1217TIP3    H2 3658   4.962   2.290   0.437
 1218TIP3   OH2 3659   0.707   2.859   1.190
 1218TIP3    H1 3660   0.631   2.811   1.157
 1218TIP3    H2 3661   0.678   2.950   1.193
 1219TIP3   OH2 3662   5.721   3.748   1.346
 1219TIP3    H1 3663   5.687   3.837   1.357
 1219TIP3    H2 3664   5.654   3.692   1.385
 1220TIP3   OH2 3665   6.006   5.145   0.445
 1220TIP3    H1 3666   6.034   5.093   0.370
 1220TIP3    H2 3667   5.913   5.124   0.455
 1221TIP3   OH2 3668   6.086   2.142   1.937
 1221TIP3    H1 3669   6.032   2.167   1.862
 1221TIP3    H2 3670   6.024   2.136   2.010
 1222TIP3   OH2 3671   5.718   4.307   2.646
 1222TIP3    H1 3672   5.685   4.244   2.711
 1222TIP3    H2 3673   5.801   4.339   2.683
 1223TIP3   OH2 3674   0.376   4.901   2.231
 1223TIP3    H1 3675   0.335   4.858   2.306
 1223TIP3    H2 3676   0.444   4.840   2.203
 1224TIP3   OH2 3677   2.345   4.970   3.883
 1224TIP3    H1 3678   2.387   5.039   3.832
 1224TIP3    H2 3679   2.411   4.945   3.948
 1225TIP3   OH2 3680   0.331   1.022   2.178
 1225TIP3    H1 3681   0.324   1.029   2.273
 1225TIP3    H2 3682   0.305   0.932   2.158
 1226TIP3   OH2 3683   0.893   5.897   4.025
 1226TIP3    H1 3684   0.886   5.886   3.930
 1226TIP3    H2 3685   0.985   5.915   4.041
 1227TIP3   OH2 3686   1.030   3.743   3.883
 1227TIP3    H1 3687   0.964   3.673   3.885
 1227TIP3    H2 3688   0.990   3.815   3.932
 1228TIP3   OH2 3689   1.283   3.143   4.124
 1228TIP3    H1 3690   1.272   3.053   4.092
 1228TIP3    H2 3691   1.370   3.145   4.163
 1229TIP3   OH2 3692   1.384   1.831   2.008
 1229TIP3    H1 3693   1.304   1.805   2.053
 1229TIP3    H2 3694   1.417   1.905   2.059
 1230TIP3   OH2 3695   0.168   2.317   2.786
 1230TIP3    H1 3696   0.094   2.376   2.773
 1230TIP3    H2 3697   0.160   2.252   2.717
 1231TIP3   OH2 3698   6.035   1.562   2.859
 1231TIP3    H1 3699   6.062   1.499   2.925
 1231TIP3    H2 3700   6.083   1.536   2.780
 1232TIP3   OH2 3701   0.766   5.705   1.290
 1232TIP3    H1 3702   0.724   5.628   1.252
 1232TIP3    H2 3703   0.844   5.719   1.236
 1233TIP3   OH2 3704   1.209   0.005   0.229
 1233TIP3    H1 3705   1.273  -0.045   0.279
 1233TIP3    H2 3706   1.257   0.082   0.198
 1234TIP3   OH2 3707   1.196   4.496   4.444
 1234TIP3    H1 3708   1.193   4.404   4.418
 1234TIP3    H2 3709   1.281   4.527   4.412
 1235TIP3   OH2 3710   5.734   3.521   4.951
 1235TIP3    H1 3711   5.782   3.521   5.033
 1235TIP3    H2 3712   5.642   3.514   4.977
 1236TIP3   OH2 3713   4.531   3.601   3.436
 1236TIP3    H1 3714   4.474   3.659   3.487
 1236TIP3    H2 3715   4.571   3.544   3.501
 1237TIP3   OH2 3716   6.257   0.382   1.596
 1237TIP3    H1 3717   6.225   0.403   1.509
 1237TIP3    H2 3718   6.266   0.467   1.639
 1238TIP3   OH2 3719   0.481   1.515   4.442
 1238TIP3    H1 3720   0.485   1.547   4.352
 1238TIP3    H2 3721   0.513   1.425   4.437
 1239TIP3   OH2 3722   0.374   1.876   1.270
 1239TIP3    H1 3723   0.298   1.903   1.323
 1239TIP3    H2 3724   0.390   1.786   1.296
 1240TIP3   OH2 3725   0.446   1.624   4.706
 1240TIP3    H1 3726   0.411   1.572   4.633
 1240TIP3    H2 3727   0.527   1.581   4.730
 1241TIP3   OH2 3728   6.078   4.860   1.738
 1241TIP3    H1 3729   6.034   4.776   1.727
 1241TIP3    H2 3730   6.106   4.862   1.829
 1242TIP3   OH2 3731   0.303   3.075   1.905
 1242TIP3    H1 3732   0.374   3.087   1.968
 1242TIP3    H2 3733   0.345   3.034   1.829
 1243TIP3   OH2 3734   3.257   3.176   4.608
 1243TIP3    H1 3735   3.228   3.086   4.620
 1243TIP3    H2 3736   3.269   3.210   4.696
 1244TIP3   OH2 3737   6.171   2.727   2.992
 1244TIP3    H1 3738   6.195   2.637   3.013
 1244TIP3    H2 3739   6.206   2.740   2.904
 1245TIP3   OH2 3740   2.695   2.720   0.167
 1245TIP3    H1 3741   2.739   2.795   0.127
 1245TIP3    H2 3742   2.607   2.754   0.189
 1246TIP3   OH2 3743   0.245   0.208   3.349
 1246TIP3    H1 3744   0.312   0.151   3.312
 1246TIP3    H2 3745   0.253   0.290   3.300
 1247TIP3   OH2 3746   0.968   0.485   3.615
 1247TIP3    H1 3747   1.035   0.553   3.623
 1247TIP3    H2 3748   0.914   0.513   3.541
 1248TIP3   OH2 3749   2.764   1.335   2.426
 1248TIP3    H1 3750   2.782   1.309   2.335
 1248TIP3    H2 3751   2.849   1.331   2.469
 1249TIP3   OH2 3752   4.381   0.291   0.002
 1249TIP3    H1 3753   4.377   0.244   0.085
 1249TIP3    H2 3754   4.400   0.223  -0.063
 1250TIP3   OH2 3755   6.139   4.085   2.741
 1250TIP3    H1 3756   6.166   4.007   2.789
 1250TIP3    H2 3757   6.219   4.116   2.699
 1251TIP3   OH2 3758   4.500   4.550   4.832
 1251TIP3    H1 3759   4.575   4.594   4.790
 1251TIP3    H2 3760   4.423   4.596   4.798
 1252TIP3   OH2 3761   2.894   5.875   0.433
 1252TIP3    H1 3762   2.863   5.797   0.479
 1252TIP3    H2 3763   2.838   5.881   0.356
 1253TIP3   OH2 3764   5.547   0.466   1.307
 1253TIP3    H1 3765   5.466   0.416   1.311
 1253TIP3    H2 3766   5.578   0.469   1.398
 1254TIP3   OH2 3767   6.374   5.938   1.394
 1254TIP3    H1 3768   6.366   5.921   1.300
 1254TIP3    H2 3769   6.291   5.979   1.418
 1255TIP3   OH2 3770   4.216   5.016   5.205
 1255TIP3    H1 3771   4.204   4.983   5.293
 1255TIP3    H2 3772   4.264   4.947   5.159
 1256TIP3   OH2 3773   1.748   1.888   1.731
 1256TIP3    H1 3774   1.741   1.831   1.807
 1256TIP3    H2 3775   1.781   1.971   1.766
 1257TIP3   OH2 3776   1.472   0.212   2.730
 1257TIP3    H1 3777   1.511   0.299   2.723
 1257TIP3    H2 3778   1.468   0.181   2.640
 1258TIP3   OH2 3779   2.808   1.836   3.393
 1258TIP3    H1 3780   2.883   1.837   3.334
 1258TIP3    H2 3781   2.775   1.926   3.391
 1259TIP3   OH2 3782   4.042   0.516   1.315
 1259TIP3    H1 3783   3.992   0.524   1.234
 1259TIP3    H2 3784   4.121   0.468   1.289
 1260TIP3   OH2 3785   1.758   4.007   3.416
 1260TIP3    H1 3786   1.759   3.965   3.503
 1260TIP3    H2 3787   1.831   4.068   3.418
 1261TIP3   OH2 3788   3.144   0.836   2.784
 1261TIP3    H1 3789   3.168   0.745   2.769
 1261TIP3    H2 3790   3.168   0.853   2.875
 1262TIP3   OH2 3791   4.366   0.372   3.765
 1262TIP3    H1 3792   4.382   0.291   3.813
 1262TIP3    H2 3793   4.430   0.434   3.800
 1263TIP3   OH2 3794   3.789   0.309   3.519
 1263TIP3    H1 3795   3.772   0.398   3.551
 1263TIP3    H2 3796   3.835   0.266   3.591
 1264TIP3   OH2 3797   2.716   5.825   3.654
 1264TIP3    H1 3798   2.729   5.871   3.738
 1264TIP3    H2 3799   2.760   5.741   3.666
 1265TIP3   OH2 3800   1.947   4.187   0.764
 1265TIP3    H1 3801   1.986   4.100   0.761
 1265TIP3    H2 3802   1.927   4.202   0.856
 1266TIP3   OH2 3803   2.281   2.420   5.009
 1266TIP3    H1 3804   2.277   2.386   5.098
 1266TIP3    H2 3805   2.300   2.344   4.955
 1267TIP3   OH2 3806   1.647   3.211   4.401
 1267TIP3    H1 3807   1.735   3.173   4.394
 1267TIP3    H2 3808   1.624   3.204   4.493
 1268TIP3   OH2 3809   0.899   2.021   3.245
 1268TIP3    H1 3810   0.952   1.942   3.257
 1268TIP3    H2 3811   0.810   1.994   3.269
 1269TIP3   OH2 3812   5.559   1.396   1.953
 1269TIP3    H1 3813   5.478   1.431   1.990
 1269TIP3    H2 3814   5.560   1.304   1.980
 1270TIP3   OH2 3815   2.560   1.608   3.623
 1270TIP3    H1 3816   2.495   1.646   3.681
 1270TIP3    H2 3817   2.543   1.649   3.538
 1271TIP3   OH2 3818   3.559   3.638   0.052
 1271TIP3    H1 3819   3.543   3.725   0.015
 1271TIP3    H2 3820   3.650   3.619   0.030
 1272TIP3   OH2 3821   1.562   5.153   4.280
 1272TIP3    H1 3822   1.606   5.234   4.304
 1272TIP3    H2 3823   1.470   5.177   4.273
 1273TIP3   OH2 3824   2.437   5.286   0.428
 1273TIP3    H1 3825   2.515   5.315   0.475
 1273TIP3    H2 3826   2.468   5.213   0.373
 1274TIP3   OH2 3827   1.724   2.461   2.396
 1274TIP3    H1 3828   1.774   2.428   2.471
 1274TIP3    H2 3829   1.634   2.437   2.414
 1275TIP3   OH2 3830   3.011   1.625   3.137
 1275TIP3    H1 3831   3.077   1.682   3.099
 1275TIP3    H2 3832   2.933   1.639   3.084
 1276TIP3   OH2 3833   0.623   2.548   2.851
 1276TIP3    H1 3834   0.691   2.488   2.881
 1276TIP3    H2 3835   0.547   2.492   2.834
 1277TIP3   OH2 3836   1.114   0.825   4.134
 1277TIP3    H1 3837   1.028   0.794   4.161
 1277TIP3    H2 3838   1.145   0.877   4.209
 1278TIP3   OH2 3839   4.800   1.501   4.525
 1278TIP3    H1 3840   4.877   1.490   4.581
 1278TIP3    H2 3841   4.798   1.595   4.506
 1279TIP3   OH2 3842   6.328   5.479   0.177
 1279TIP3    H1 3843   6.260   5.466   0.110
 1279TIP3    H2 3844   6.309   5.413   0.244
 1280TIP3   OH2 3845   2.319   0.065   3.683
 1280TIP3    H1 3846   2.280   0.141   3.724
 1280TIP3    H2 3847   2.329   0.089   3.591
 1281TIP3   OH2 3848   3.442   4.996   4.822
 1281TIP3    H1 3849   3.400   5.073   4.861
 1281TIP3    H2 3850   3.535   5.016   4.826
 1282TIP3   OH2 3851   5.191   3.496   0.837
 1282TIP3    H1 3852   5.187   3.401   0.829
 1282TIP3    H2 3853   5.186   3.528   0.747
 1283TIP3   OH2 3854   2.467   4.019   3.781
 1283TIP3    H1 3855   2.478   3.960   3.706
 1283TIP3    H2 3856   2.429   3.964   3.850
 1284TIP3   OH2 3857   2.573   4.732   4.306
 1284TIP3    H1 3858   2.585   4.659   4.367
 1284TIP3    H2 3859   2.654   4.783   4.314
 1285TIP3   OH2 3860   0.800   2.668   1.352
 1285TIP3    H1 3861   0.713   2.657   1.390
 1285TIP3    H2 3862   0.791   2.741   1.291
 1286TIP3   OH2 3863   5.667   1.178   3.131
 1286TIP3    H1 3864   5.684   1.110   3.196
 1286TIP3    H2 3865   5.682   1.134   3.047
 1287TIP3   OH2 3866   2.017   0.504   4.488
 1287TIP3    H1 3867   1.938   0.559   4.481
 1287TIP3    H2 3868   2.055   0.528   4.573
 1288TIP3   OH2 3869   5.270   5.823   3.652
 1288TIP3    H1 3870   5.222   5.768   3.590
 1288TIP3    H2 3871   5.354   5.839   3.610
 1289TIP3   OH2 3872   4.675   0.469   4.105
 1289TIP3    H1 3873   4.649   0.470   4.197
 1289TIP3    H2 3874   4.631   0.545   4.067
 1290TIP3   OH2 3875   2.375   1.558   1.217
 1290TIP3    H1 3876   2.370   1.528   1.126
 1290TIP3    H2 3877   2.294   1.608   1.230
 1291TIP3   OH2 3878   0.592   0.754   4.736
 1291TIP3    H1 3879   0.537   0.751   4.658
 1291TIP3    H2 3880   0.681   0.766   4.702
 1292TIP3   OH2 3881   4.384   5.648   1.909
 1292TIP3    H1 3882   4.343   5.717   1.857
 1292TIP3    H2 3883   4.420   5.694   1.985
 1293TIP3   OH2 3884   6.326   4.660   1.918
 1293TIP3    H1 3885   6.315   4.657   1.823
 1293TIP3    H2 3886   6.279   4.738   1.945
 1294TIP3   OH2 3887   1.025   5.729   3.126
 1294TIP3    H1 3888   0.998   5.695   3.041
 1294TIP3    H2 3889   1.050   5.652   3.177
 1295TIP3   OH2 3890   5.163   3.248   0.547
 1295TIP3    H1 3891   5.114   3.168   0.532
 1295TIP3    H2 3892   5.176   3.251   0.642
 1296TIP3   OH2 3893   1.753   4.080   0.589
 1296TIP3    H1 3894   1.665   4.116   0.597
 1296TIP3    H2 3895   1.794   4.098   0.674
 1297TIP3   OH2 3896   2.527   0.383   3.021
 1297TIP3    H1 3897   2.537   0.314   2.955
 1297TIP3    H2 3898   2.610   0.431   3.020
 1298TIP3   OH2 3899   4.230   4.998   3.217
 1298TIP3    H1 3900   4.202   5.026   3.304
 1298TIP3    H2 3901   4.188   5.059   3.157
 1299TIP3   OH2 3902   5.304   0.199   4.560
 1299TIP3    H1 3903   5.287   0.110   4.530
 1299TIP3    H2 3904   5.362   0.236   4.494
 1300TIP3   OH2 3905   4.051   0.928   1.978
 1300TIP3    H1 3906   4.019   0.839   1.964
 1300TIP3    H2 3907   4.037   0.946   2.071
 1301TIP3   OH2 3908   2.137   2.458   2.167
 1301TIP3    H1 3909   2.183   2.540   2.150
 1301TIP3    H2 3910   2.187   2.415   2.236
 1302TIP3   OH2 3911   2.590   4.257   4.321
 1302TIP3    H1 3912   2.562   4.301   4.241
 1302TIP3    H2 3913   2.559   4.167   4.312
 1303TIP3   OH2 3914   3.756   4.992   1.357
 1303TIP3    H1 3915   3.831   4.997   1.297
 1303TIP3    H2 3916   3.768   5.065   1.417
 1304TIP3   OH2 3917   1.673   2.938   2.791
 1304TIP3    H1 3918   1.712   2.852   2.772
 1304TIP3    H2 3919   1.629   2.925   2.875
 1305TIP3   OH2 3920   2.730   3.788   2.215
 1305TIP3    H1 3921   2.637   3.809   2.205
 1305TIP3    H2 3922   2.733   3.693   2.217
 1306TIP3   OH2 3923   0.644   0.971   1.250
 1306TIP3    H1 3924   0.740   0.979   1.252
 1306TIP3    H2 3925   0.619   0.957   1.341
 1307TIP3   OH2 3926   0.968   3.776   0.053
 1307TIP3    H1 3927   0.890   3.737   0.012
 1307TIP3    H2 3928   1.032   3.780  -0.018
 1308TIP3   OH2 3929   5.766   5.702   3.812
 1308TIP3    H1 3930   5.674   5.686   3.790
 1308TIP3    H2 3931   5.813   5.688   3.730
 1309TIP3   OH2 3932   3.561   4.882   3.741
 1309TIP3    H1 3933   3.627   4.817   3.764
 1309TIP3    H2 3934   3.610   4.965   3.737
 1310TIP3   OH2 3935   5.002   5.901   0.086
 1310TIP3    H1 3936   5.007   5.889   0.181
 1310TIP3    H2 3937   5.092   5.919   0.059
 1311TIP3   OH2 3938   0.238   0.192   4.384
 1311TIP3    H1 3939   0.233   0.187   4.479
 1311TIP3    H2 3940   0.317   0.144   4.361
 1312TIP3   OH2 3941   5.976   1.920   4.754
 1312TIP3    H1 3942   5.881   1.915   4.762
 1312TIP3    H2 3943   5.998   2.009   4.782
 1313TIP3   OH2 3944   0.573   0.461   1.486
 1313TIP3    H1 3945   0.541   0.411   1.560
 1313TIP3    H2 3946   0.628   0.529   1.525
 1314TIP3   OH2 3947   3.744   2.425   0.652
 1314TIP3    H1 3948   3.687   2.395   0.581
 1314TIP3    H2 3949   3.802   2.490   0.612
 1315TIP3   OH2 3950   2.030   3.238   0.596
 1315TIP3    H1 3951   1.964   3.292   0.638
 1315TIP3    H2 3952   1.985   3.154   0.579
 1316TIP3   OH2 3953   5.104   0.130   0.173
 1316TIP3    H1 3954   5.026   0.076   0.175
 1316TIP3    H2 3955   5.140   0.116   0.085
 1317TIP3   OH2 3956   6.286   3.505   2.936
 1317TIP3    H1 3957   6.213   3.496   2.997
 1317TIP3    H2 3958   6.255   3.468   2.854
 1318TIP3   OH2 3959   0.320   4.322   1.599
 1318TIP3    H1 3960   0.306   4.291   1.688
 1318TIP3    H2 3961   0.316   4.418   1.606
 1319TIP3   OH2 3962   3.453   3.435   3.046
 1319TIP3    H1 3963   3.427   3.527   3.049
 1319TIP3    H2 3964   3.512   3.423   3.120
 1320TIP3   OH2 3965   1.724   3.225   3.488
 1320TIP3    H1 3966   1.664   3.259   3.555
 1320TIP3    H2 3967   1.713   3.130   3.492
 1321TIP3   OH2 3968   1.141   3.637   2.762
 1321TIP3    H1 3969   1.185   3.553   2.777
 1321TIP3    H2 3970   1.050   3.612   2.745
 1322TIP3   OH2 3971   4.983   2.553   1.226
 1322TIP3    H1 3972   5.010   2.613   1.295
 1322TIP3    H2 3973   4.974   2.469   1.269
 1323TIP3   OH2 3974   3.170   2.665   3.583
 1323TIP3    H1 3975   3.236   2.728   3.612
 1323TIP3    H2 3976   3.102   2.718   3.541
 1324TIP3   OH2 3977   5.985   3.194   2.833
 1324TIP3    H1 3978   5.993   3.099   2.832
 1324TIP3    H2 3979   6.034   3.223   2.756
 1325TIP3   OH2 3980   2.227   4.163   0.415
 1325TIP3    H1 3981   2.264   4.085   0.456
 1325TIP3    H2 3982   2.202   4.220   0.488
 1326TIP3   OH2 3983   4.083   0.241   4.466
 1326TIP3    H1 3984   4.097   0.247   4.560
 1326TIP3    H2 3985   4.157   0.289   4.428
 1327TIP3   OH2 3986   3.870   0.120   2.923
 1327TIP3    H1 3987   3.822   0.203   2.921
 1327TIP3    H2 3988   3.825   0.069   2.990
 1328TIP3   OH2 3989   3.530   4.366   4.403
 1328TIP3    H1 3990   3.539   4.323   4.488
 1328TIP3    H2 3991   3.547   4.297   4.339
 1329TIP3   OH2 3992   1.552   3.472   0.139
 1329TIP3    H1 3993   1.462   3.494   0.114
 1329TIP3    H2 3994   1.607   3.515   0.073
 1330TIP3   OH2 3995   2.619   2.271   4.465
 1330TIP3    H1 3996   2.532   2.308   4.451
 1330TIP3    H2 3997   2.613   2.182   4.430
 1331TIP3   OH2 3998   0.425   4.523   2.984
 1331TIP3    H1 3999   0.367   4.586   2.941
 1331TIP3    H2 4000   0.508   4.532   2.937
 1332TIP3   OH2 4001   0.206   1.515   3.409
 1332TIP3    H1 4002   0.266   1.444   3.384
 1332TIP3    H2 4003   0.138   1.472   3.460
 1333TIP3   OH2 4004   1.750   1.743   2.661
 1333TIP3    H1 4005   1.810   1.818   2.665
 1333TIP3    H2 4006   1.714   1.735   2.749
 1334TIP3   OH2 4007   5.898   4.082   2.926
 1334TIP3    H1 4008   5.931   4.112   2.841
 1334TIP3    H2 4009   5.974   4.086   2.984
 1335TIP3   OH2 4010   2.150   2.988   2.293
 1335TIP3    H1 4011   2.112   3.069   2.327
 1335TIP3    H2 4012   2.167   2.935   2.371
 1336TIP3   OH2 4013   0.216   5.558   4.612
 1336TIP3    H1 4014   0.203   5.633   4.553
 1336TIP3    H2 4015   0.134   5.552   4.661
 1337TIP3   OH2 4016   4.523   3.312   4.791
 1337TIP3    H1 4017   4.524   3.226   4.833
 1337TIP3    H2 4018   4.447   3.310   4.732
 1338TIP3   OH2 4019   5.109   2.788   1.045
 1338TIP3    H1 4020   5.091   2.694   1.048
 1338TIP3    H2 4021   5.024   2.828   1.065
 1339TIP3   OH2 4022   1.742   3.819   4.309
 1339TIP3    H1 4023   1.737   3.891   4.372
 1339TIP3    H2 4024   1.792   3.751   4.355
 1340TIP3   OH2 4025   5.503   5.192   1.705
 1340TIP3    H1 4026   5.554   5.191   1.624
 1340TIP3    H2 4027   5.535   5.117   1.754
 1341TIP3   OH2 4028   4.516   1.900   3.115
 1341TIP3    H1 4029   4.431   1.870   3.082
 1341TIP3    H2 4030   4.564   1.820   3.134
 1342TIP3   OH2 4031   0.120   4.352   0.363
 1342TIP3    H1 4032   0.173   4.413   0.310
 1342TIP3    H2 4033   0.179   4.279   0.382
 1343TIP3   OH2 4034   3.588   1.802   0.217
 1343TIP3    H1 4035   3.537   1.724   0.195
 1343TIP3    H2 4036   3.559   1.867   0.153
 1344TIP3   OH2 4037   3.234   4.147   0.973
 1344TIP3    H1 4038   3.274   4.094   0.905
 1344TIP3    H2 4039   3.154   4.100   0.996
 1345TIP3   OH2 4040   2.304   4.403   5.047
 1345TIP3    H1 4041   2.262   4.331   5.093
 1345TIP3    H2 4042   2.363   4.361   4.984
 1346TIP3   OH2 4043   5.079   2.663   2.620
 1346TIP3    H1 4044   5.085   2.591   2.556
 1346TIP3    H2 4045   5.170   2.678   2.647
 1347TIP3   OH2 4046   5.558   3.176   4.966
 1347TIP3    H1 4047   5.645   3.201   4.995
 1347TIP3    H2 4048   5.572   3.099   4.910
 1348TIP3   OH2 4049   1.147   4.779   1.102
 1348TIP3    H1 4050   1.075   4.829   1.064
 1348TIP3    H2 4051   1.120   4.764   1.193
 1349TIP3   OH2 4052   5.142   0.947   0.700
 1349TIP3    H1 4053   5.094   0.871   0.665
 1349TIP3    H2 4054   5.166   0.998   0.622
 1350TIP3   OH2 4055   2.279   3.408   0.331
 1350TIP3    H1 4056   2.186   3.384   0.331
 1350TIP3    H2 4057   2.325   3.325   0.332
 1351TIP3   OH2 4058   0.921   1.533   0.262
 1351TIP3    H1 4059   0.976   1.575   0.195
 1351TIP3    H2 4060   0.958   1.445   0.270
 1352TIP3   OH2 4061   5.118   5.004   2.299
 1352TIP3    H1 4062   5.061   5.080   2.298
 1352TIP3    H2 4063   5.205   5.038   2.280
 1353TIP3   OH2 4064   4.996   1.089   1.191
 1353TIP3    H1 4065   4.918   1.133   1.224
 1353TIP3    H2 4066   5.063   1.104   1.258
 1354TIP3   OH2 4067   4.850   2.553   2.384
 1354TIP3    H1 4068   4.791   2.572   2.457
 1354TIP3    H2 4069   4.904   2.632   2.375
 1355TIP3   OH2 4070   3.645   4.754   4.523
 1355TIP3    H1 4071   3.693   4.823   4.475
 1355TIP3    H2 4072   3.627   4.688   4.457
 1356TIP3   OH2 4073   6.036   5.181   2.115
 1356TIP3    H1 4074   6.031   5.201   2.022
 1356TIP3    H2 4075   5.991   5.098   2.125
 1357TIP3   OH2 4076   5.196   2.644   0.575
 1357TIP3    H1 4077   5.233   2.644   0.487
 1357TIP3    H2 4078   5.101   2.643   0.561
 1358TIP3   OH2 4079   5.588   4.806   3.241
 1358TIP3    H1 4080   5.495   4.828   3.240
 1358TIP3    H2 4081   5.612   4.799   3.148
 1359TIP3   OH2 4082   0.989   3.064   0.211
 1359TIP3    H1 4083   0.984   2.978   0.169
 1359TIP3    H2 4084   0.898   3.084   0.234
 1360TIP3   OH2 4085   4.573   0.120   4.932
 1360TIP3    H1 4086   4.528   0.201   4.910
 1360TIP3    H2 4087   4.627   0.100   4.855
 1361TIP3   OH2 4088   1.559   0.121   2.478
 1361TIP3    H1 4089   1.575   0.030   2.455
 1361TIP3    H2 4090   1.601   0.171   2.407
 1362TIP3   OH2 4091   2.632   0.433   2.356
 1362TIP3    H1 4092   2.570   0.370   2.394
 1362TIP3    H2 4093   2.579   0.484   2.295
 1363TIP3   OH2 4094   3.726   0.494   0.012
 1363TIP3    H1 4095   3.820   0.509   0.027
 1363TIP3    H2 4096   3.683   0.546   0.079
 1364TIP3   OH2 4097   2.614   0.647   4.244
 1364TIP3    H1 4098   2.703   0.625   4.216
 1364TIP3    H2 4099   2.559   0.615   4.172
 1365TIP3   OH2 4100   2.916   5.068   3.661
 1365TIP3    H1 4101   2.934   5.079   3.567
 1365TIP3    H2 4102   2.861   5.143   3.684
 1366TIP3   OH2 4103   6.095   4.392   3.517
 1366TIP3    H1 4104   6.049   4.469   3.482
 1366TIP3    H2 4105   6.069   4.390   3.609
 1367TIP3   OH2 4106   4.548   2.522   1.413
 1367TIP3    H1 4107   4.503   2.594   1.369
 1367TIP3    H2 4108   4.564   2.458   1.343
 1368TIP3   OH2 4109   2.578   3.385   3.016
 1368TIP3    H1 4110   2.612   3.382   2.926
 1368TIP3    H2 4111   2.499   3.440   3.010
 1369TIP3   OH2 4112   1.891   1.511   3.466
 1369TIP3    H1 4113   1.975   1.536   3.430
 1369TIP3    H2 4114   1.836   1.589   3.455
 1370TIP3   OH2 4115   3.857   1.837   4.087
 1370TIP3    H1 4116   3.817   1.854   4.173
 1370TIP3    H2 4117   3.819   1.903   4.029
 1371TIP3   OH2 4118   6.166   3.435   3.434
 1371TIP3    H1 4119   6.215   3.498   3.487
 1371TIP3    H2 4120   6.167   3.471   3.346
 1372TIP3   OH2 4121   1.655   4.857   2.232
 1372TIP3    H1 4122   1.677   4.796   2.302
 1372TIP3    H2 4123   1.573   4.897   2.260
 1373TIP3   OH2 4124   0.179   1.553   2.865
 1373TIP3    H1 4125   0.123   1.487   2.824
 1373TIP3    H2 4126   0.240   1.503   2.918
 1374TIP3   OH2 4127   3.747   0.024   3.397
 1374TIP3    H1 4128   3.747   0.101   3.455
 1374TIP3    H2 4129   3.791  -0.044   3.448
 1375TIP3   OH2 4130   1.697   2.947   1.579
 1375TIP3    H1 4131   1.687   3.007   1.653
 1375TIP3    H2 4132   1.712   3.004   1.504
 1376TIP3   OH2 4133   0.111   1.727   2.478
 1376TIP3    H1 4134   0.058   1.731   2.558
 1376TIP3    H2 4135   0.198   1.701   2.508
 1377TIP3   OH2 4136   3.132   5.785   1.653
 1377TIP3    H1 4137   3.212   5.760   1.700
 1377TIP3    H2 4138   3.069   5.803   1.723
 1378TIP3   OH2 4139   3.131   5.251   3.957
 1378TIP3    H1 4140   3.091   5.164   3.964
 1378TIP3    H2 4141   3.094   5.288   3.877
 1379TIP3   OH2 4142   1.164   2.136   1.893
 1379TIP3    H1 4143   1.077   2.150   1.857
 1379TIP3    H2 4144   1.151   2.133   1.988
 1380TIP3   OH2 4145   4.961   5.354   1.157
 1380TIP3    H1 4146   5.017   5.424   1.191
 1380TIP3    H2 4147   4.937   5.303   1.235
 1381TIP3   OH2 4148   6.318   1.941   4.388
 1381TIP3    H1 4149   6.342   1.990   4.466
 1381TIP3    H2 4150   6.226   1.920   4.400
 1382TIP3   OH2 4151   5.968   5.342   0.925
 1382TIP3    H1 4152   6.039   5.307   0.872
 1382TIP3    H2 4153   5.890   5.334   0.870
 1383TIP3   OH2 4154   2.448   4.166   0.242
 1383TIP3    H1 4155   2.391   4.194   0.314
 1383TIP3    H2 4156   2.532   4.206   0.261
 1384TIP3   OH2 4157   2.174   4.271   2.117
 1384TIP3    H1 4158   2.079   4.277   2.107
 1384TIP3    H2 4159   2.203   4.219   2.042
 1385TIP3   OH2 4160   0.702   3.902   2.503
 1385TIP3    H1 4161   0.700   3.818   2.550
 1385TIP3    H2 4162   0.760   3.885   2.428
 1386TIP3   OH2 4163   4.620   3.004   4.518
 1386TIP3    H1 4164   4.566   3.027   4.594
 1386TIP3    H2 4165   4.611   3.078   4.458
 1387TIP3   OH2 4166   4.752   3.982   4.736
 1387TIP3    H1 4167   4.799   3.994   4.654
 1387TIP3    H2 4168   4.809   4.021   4.802
 1388TIP3   OH2 4169   1.315   3.273   3.413
 1388TIP3    H1 4170   1.275   3.360   3.403
 1388TIP3    H2 4171   1.258   3.215   3.362
 1389TIP3   OH2 4172   0.596   0.446   3.400
 1389TIP3    H1 4173   0.674   0.499   3.418
 1389TIP3    H2 4174   0.588   0.389   3.477
 1390TIP3   OH2 4175   3.056   2.183   4.617
 1390TIP3    H1 4176   3.087   2.096   4.642
 1390TIP3    H2 4177   3.122   2.214   4.554
 1391TIP3   OH2 4178   2.372   4.947   3.240
 1391TIP3    H1 4179   2.393   4.934   3.333
 1391TIP3    H2 4180   2.309   5.019   3.240
 1392TIP3   OH2 4181   2.757   5.962   0.205
 1392TIP3    H1 4182   2.738   5.898   0.136
 1392TIP3    H2 4183   2.675   6.012   0.213
 1393TIP3   OH2 4184   0.311   5.843   3.971
 1393TIP3    H1 4185   0.260   5.923   3.978
 1393TIP3    H2 4186   0.342   5.826   4.060
 1394TIP3   OH2 4187   3.060   0.360   2.184
 1394TIP3    H1 4188   3.046   0.266   2.170
 1394TIP3    H2 4189   3.152   0.366   2.211
 1395TIP3   OH2 4190   4.714   0.152   2.177
 1395TIP3    H1 4191   4.706   0.181   2.086
 1395TIP3    H2 4192   4.753   0.225   2.223
 1396TIP3   OH2 4193   0.157   5.798   3.704
 1396TIP3    H1 4194   0.169   5.893   3.697
 1396TIP3    H2 4195   0.190   5.777   3.792
 1397TIP3   OH2 4196   1.312   5.243   4.290
 1397TIP3    H1 4197   1.244   5.201   4.237
 1397TIP3    H2 4198   1.278   5.332   4.305
 1398TIP3   OH2 4199   0.734   1.937   1.679
 1398TIP3    H1 4200   0.732   1.898   1.766
 1398TIP3    H2 4201   0.752   1.864   1.620
 1399TIP3   OH2 4202   3.429   3.571   0.611
 1399TIP3    H1 4203   3.371   3.631   0.564
 1399TIP3    H2 4204   3.505   3.561   0.554
 1400TIP3   OH2 4205   5.169   1.897   4.137
 1400TIP3    H1 4206   5.222   1.954   4.193
 1400TIP3    H2 4207   5.222   1.819   4.124
 1401TIP3   OH2 4208   4.961   2.293   1.351
 1401TIP3    H1 4209   4.875   2.282   1.392
 1401TIP3    H2 4210   5.001   2.206   1.353
 1402TIP3   OH2 4211   5.535   1.337   3.537
 1402TIP3    H1 4212   5.449   1.369   3.565
 1402TIP3    H2 4213   5.572   1.295   3.614
 1403TIP3   OH2 4214   0.395   6.001   2.395
 1403TIP3    H1 4215   0.352   5.927   2.352
 1403TIP3    H2 4216   0.437   5.962   2.472
 1404TIP3   OH2 4217   4.426   2.874   1.276
 1404TIP3    H1 4218   4.436   2.902   1.185
 1404TIP3    H2 4219   4.414   2.779   1.270
 1405TIP3   OH2 4220   4.880   4.929   4.696
 1405TIP3    H1 4221   4.967   4.919   4.658
 1405TIP3    H2 4222   4.878   5.019   4.728
 1406TIP3   OH2 4223   4.539   2.888   0.091
 1406TIP3    H1 4224   4.510   2.977   0.108
 1406TIP3    H2 4225   4.458   2.839   0.076
 1407TIP3   OH2 4226   2.396   1.097   1.428
 1407TIP3    H1 4227   2.431   1.181   1.398
 1407TIP3    H2 4228   2.331   1.120   1.495
 1408TIP3   OH2 4229   6.265   1.756   2.079
 1408TIP3    H1 4230   6.347   1.706   2.071
 1408TIP3    H2 4231   6.270   1.795   2.166
 1409TIP3   OH2 4232   1.028   5.345   4.298
 1409TIP3    H1 4233   1.061   5.290   4.369
 1409TIP3    H2 4234   1.000   5.426   4.341
 1410TIP3   OH2 4235   4.531   3.395   3.065
 1410TIP3    H1 4236   4.607   3.453   3.059
 1410TIP3    H2 4237   4.568   3.310   3.088
 1411TIP3   OH2 4238   5.534   5.720   4.091
 1411TIP3    H1 4239   5.487   5.729   4.008
 1411TIP3    H2 4240   5.612   5.775   4.080
 1412TIP3   OH2 4241   4.857   5.073   3.566
 1412TIP3    H1 4242   4.830   5.006   3.503
 1412TIP3    H2 4243   4.775   5.102   3.606
 1413TIP3   OH2 4244   0.049   4.369   2.366
 1413TIP3    H1 4245  -0.041   4.341   2.384
 1413TIP3    H2 4246   0.073   4.423   2.441
 1414TIP3   OH2 4247   5.155   4.250   1.571
 1414TIP3    H1 4248   5.247   4.277   1.577
 1414TIP3    H2 4249   5.151   4.169   1.621
 1415TIP3   OH2 4250   4.638   5.477   3.407
 1415TIP3    H1 4251   4.555   5.432   3.397
 1415TIP3    H2 4252   4.615   5.570   3.409
 1416TIP3   OH2 4253   3.648   3.226   0.936
 1416TIP3    H1 4254   3.696   3.283   0.876
 1416TIP3    H2 4255   3.710   3.205   1.005
 1417TIP3   OH2 4256   2.684   2.793   3.785
 1417TIP3    H1 4257   2.652   2.713   3.744
 1417TIP3    H2 4258   2.753   2.824   3.727
 1418TIP3   OH2 4259   3.749   1.900   1.557
 1418TIP3    H1 4260   3.776   1.809   1.550
 1418TIP3    H2 4261   3.653   1.897   1.554
 1419TIP3   OH2 4262   0.821   5.534   2.492
 1419TIP3    H1 4263   0.815   5.517   2.398
 1419TIP3    H2 4264   0.891   5.599   2.500
 1420TIP3   OH2 4265   0.275   3.121   4.391
 1420TIP3    H1 4266   0.248   3.166   4.311
 1420TIP3    H2 4267   0.363   3.153   4.408
 1421TIP3   OH2 4268   4.521   5.496   2.681
 1421TIP3    H1 4269   4.545   5.415   2.727
 1421TIP3    H2 4270   4.477   5.549   2.748
 1422TIP3   OH2 4271   5.657   4.675   4.015
 1422TIP3    H1 4272   5.749   4.695   4.034
 1422TIP3    H2 4273   5.628   4.621   4.089
 1423TIP3   OH2 4274   3.177   5.428   2.669
 1423TIP3    H1 4275   3.093   5.436   2.716
 1423TIP3    H2 4276   3.241   5.465   2.730
 1424TIP3   OH2 4277   2.949   2.084   0.977
 1424TIP3    H1 4278   2.856   2.085   0.952
 1424TIP3    H2 4279   2.995   2.073   0.894
 1425TIP3   OH2 4280   3.414   1.708   2.022
 1425TIP3    H1 4281   3.362   1.725   2.101
 1425TIP3    H2 4282   3.475   1.781   2.018
 1426TIP3   OH2 4283   3.702   3.480   2.610
 1426TIP3    H1 4284   3.741   3.417   2.670
 1426TIP3    H2 4285   3.610   3.487   2.638
 1427TIP3   OH2 4286   5.508   1.270   2.767
 1427TIP3    H1 4287   5.454   1.228   2.834
 1427TIP3    H2 4288   5.456   1.264   2.687
 1428TIP3   OH2 4289   3.831   4.668   3.669
 1428TIP3    H1 4290   3.786   4.608   3.729
 1428TIP3    H2 4291   3.914   4.625   3.650
 1429TIP3   OH2 4292   2.295   2.709   5.119
 1429TIP3    H1 4293   2.312   2.726   5.027
 1429TIP3    H2 4294   2.340   2.626   5.137
 1430TIP3   OH2 4295   2.913   3.341   4.111
 1430TIP3    H1 4296   2.822   3.356   4.138
 1430TIP3    H2 4297   2.905   3.299   4.025
 1431TIP3   OH2 4298   1.422   4.156   1.720
 1431TIP3    H1 4299   1.432   4.084   1.783
 1431TIP3    H2 4300   1.400   4.113   1.637
 1432TIP3   OH2 4301   5.996   5.436   0.613
 1432TIP3    H1 4302   5.921   5.377   0.622
 1432TIP3    H2 4303   5.990   5.469   0.523
 1433TIP3   OH2 4304   3.668   3.195   1.370
 1433TIP3    H1 4305   3.740   3.144   1.406
 1433TIP3    H2 4306   3.681   3.283   1.406
 1434TIP3   OH2 4307   5.021   1.508   4.669
 1434TIP3    H1 4308   5.072   1.580   4.633
 1434TIP3    H2 4309   5.085   1.456   4.718
 1435TIP3   OH2 4310   1.277   3.072   2.463
 1435TIP3    H1 4311   1.245   3.130   2.533
 1435TIP3    H2 4312   1.199   3.023   2.436
 1436TIP3   OH2 4313   2.251   5.302   5.117
 1436TIP3    H1 4314   2.245   5.389   5.158
 1436TIP3    H2 4315   2.222   5.316   5.027
 1437TIP3   OH2 4316   1.961   5.058   0.208
 1437TIP3    H1 4317   2.053   5.082   0.212
 1437TIP3    H2 4318   1.914   5.141   0.210
 1438TIP3   OH2 4319   5.607   5.248   1.461
 1438TIP3    H1 4320   5.653   5.184   1.408
 1438TIP3    H2 4321   5.655   5.330   1.448
 1439TIP3   OH2 4322   4.737   5.762   1.982
 1439TIP3    H1 4323   4.659   5.786   2.032
 1439TIP3    H2 4324   4.801   5.830   2.003
 1440TIP3   OH2 4325   1.610   3.648   1.235
 1440TIP3    H1 4326   1.620   3.712   1.165
 1440TIP3    H2 4327   1.539   3.590   1.206
 1441TIP3   OH2 4328   3.080   4.870   0.470
 1441TIP3    H1 4329   3.017   4.877   0.542
 1441TIP3    H2 4330   3.158   4.831   0.510
 1442TIP3   OH2 4331   2.763   5.965   3.879
 1442TIP3    H1 4332   2.699   6.036   3.879
 1442TIP3    H2 4333   2.779   5.947   3.972
 1443TIP3   OH2 4334   1.721   3.192   4.697
 1443TIP3    H1 4335   1.721   3.220   4.788
 1443TIP3    H2 4336   1.804   3.146   4.686
 1444TIP3   OH2 4337   5.965   0.915   0.343
 1444TIP3    H1 4338   5.944   0.830   0.381
 1444TIP3    H2 4339   5.955   0.903   0.249
 1445TIP3   OH2 4340   5.320   2.776   2.544
 1445TIP3    H1 4341   5.282   2.863   2.537
 1445TIP3    H2 4342   5.337   2.749   2.454
 1446TIP3   OH2 4343   4.380   2.639   1.173
 1446TIP3    H1 4344   4.363   2.553   1.135
 1446TIP3    H2 4345   4.390   2.697   1.097
 1447TIP3   OH2 4346   3.575   3.173   2.220
 1447TIP3    H1 4347   3.556   3.099   2.163
 1447TIP3    H2 4348   3.670   3.180   2.221
 1448TIP3   OH2 4349   3.068   4.098   2.290
 1448TIP3    H1 4350   3.140   4.147   2.251
 1448TIP3    H2 4351   2.999   4.164   2.303
 1449TIP3   OH2 4352   5.585   1.181   2.170
 1449TIP3    H1 4353   5.523   1.204   2.240
 1449TIP3    H2 4354   5.667   1.222   2.196
 1450TIP3   OH2 4355   4.872   5.949   0.822
 1450TIP3    H1 4356   4.942   5.917   0.879
 1450TIP3    H2 4357   4.876   5.894   0.745
 1451TIP3   OH2 4358   3.078   5.151   1.736
 1451TIP3    H1 4359   3.156   5.184   1.780
 1451TIP3    H2 4360   3.090   5.056   1.733
 1452TIP3   OH2 4361   2.784   0.355   2.033
 1452TIP3    H1 4362   2.757   0.292   1.966
 1452TIP3    H2 4363   2.845   0.306   2.088
 1453TIP3   OH2 4364   0.630   5.173   0.233
 1453TIP3    H1 4365   0.672   5.150   0.150
 1453TIP3    H2 4366   0.695   5.226   0.279
 1454TIP3   OH2 4367   2.947   2.720   3.418
 1454TIP3    H1 4368   2.942   2.772   3.338
 1454TIP3    H2 4369   2.958   2.630   3.387
 1455TIP3   OH2 4370   0.159   3.794   1.956
 1455TIP3    H1 4371   0.123   3.813   2.043
 1455TIP3    H2 4372   0.143   3.874   1.906
 1456TIP3   OH2 4373   4.298   2.204   4.143
 1456TIP3    H1 4374   4.326   2.296   4.141
 1456TIP3    H2 4375   4.319   2.170   4.056
 1457TIP3   OH2 4376   3.300   2.113   2.260
 1457TIP3    H1 4377   3.299   2.158   2.344
 1457TIP3    H2 4378   3.208   2.113   2.232
 1458TIP3   OH2 4379   3.254   5.202   2.325
 1458TIP3    H1 4380   3.345   5.185   2.302
 1458TIP3    H2 4381   3.250   5.185   2.419
 1459TIP3   OH2 4382   0.546   5.867   2.953
 1459TIP3    H1 4383   0.531   5.935   3.018
 1459TIP3    H2 4384   0.629   5.890   2.911
 1460TIP3   OH2 4385   3.171   3.902   2.938
 1460TIP3    H1 4386   3.109   3.909   2.865
 1460TIP3    H2 4387   3.117   3.915   3.016
 1461TIP3   OH2 4388   0.109   1.722   1.904
 1461TIP3    H1 4389   0.147   1.635   1.896
 1461TIP3    H2 4390   0.145   1.771   1.830
 1462TIP3   OH2 4391   2.373   3.370   3.327
 1462TIP3    H1 4392   2.376   3.275   3.321
 1462TIP3    H2 4393   2.464   3.398   3.320
 1463TIP3   OH2 4394   6.316   3.169   0.340
 1463TIP3    H1 4395   6.294   3.144   0.250
 1463TIP3    H2 4396   6.311   3.088   0.390
 1464TIP3   OH2 4397   5.860   2.384   3.706
 1464TIP3    H1 4398   5.873   2.434   3.626
 1464TIP3    H2 4399   5.791   2.321   3.685
 1465TIP3   OH2 4400   1.570   3.904   4.793
 1465TIP3    H1 4401   1.522   3.952   4.725
 1465TIP3    H2 4402   1.660   3.936   4.786
 1466TIP3   OH2 4403   0.384   5.228   0.599
 1466TIP3    H1 4404   0.372   5.177   0.679
 1466TIP3    H2 4405   0.316   5.196   0.540
 1467TIP3   OH2 4406   0.802   4.390   4.247
 1467TIP3    H1 4407   0.708   4.407   4.249
 1467TIP3    H2 4408   0.816   4.324   4.315
 1468TIP3   OH2 4409   2.126   5.839   2.714
 1468TIP3    H1 4410   2.114   5.773   2.645
 1468TIP3    H2 4411   2.059   5.905   2.694
 1469TIP3   OH2 4412   4.079   4.720   0.617
 1469TIP3    H1 4413   4.051   4.811   0.611
 1469TIP3    H2 4414   4.166   4.718   0.578
 1470TIP3   OH2 4415   6.098   0.138   3.314
 1470TIP3    H1 4416   6.187   0.102   3.320
 1470TIP3    H2 4417   6.109   0.231   3.333
 1471TIP3   OH2 4418   0.275   0.335   4.074
 1471TIP3    H1 4419   0.242   0.309   4.160
 1471TIP3    H2 4420   0.202   0.318   4.014
 1472TIP3   OH2 4421   3.470   3.931   3.668
 1472TIP3    H1 4422   3.422   3.979   3.736
 1472TIP3    H2 4423   3.407   3.923   3.596
 1473TIP3   OH2 4424   6.205   2.967   2.606
 1473TIP3    H1 4425   6.125   2.933   2.644
 1473TIP3    H2 4426   6.180   2.996   2.518
 1474TIP3   OH2 4427   6.190   1.049   2.138
 1474TIP3    H1 4428   6.268   1.092   2.174
 1474TIP3    H2 4429   6.201   0.956   2.160
 1475TIP3   OH2 4430   3.376   4.340   2.446
 1475TIP3    H1 4431   3.333   4.319   2.363
 1475TIP3    H2 4432   3.305   4.333   2.511
 1476TIP3   OH2 4433   2.853   0.488   0.861
 1476TIP3    H1 4434   2.841   0.583   0.857
 1476TIP3    H2 4435   2.765   0.452   0.848
 1477TIP3   OH2 4436   1.506   2.933   1.881
 1477TIP3    H1 4437   1.491   2.863   1.818
 1477TIP3    H2 4438   1.600   2.928   1.900
 1478TIP3   OH2 4439   2.115   2.147   3.932
 1478TIP3    H1 4440   2.046   2.162   3.996
 1478TIP3    H2 4441   2.095   2.208   3.861
 1479TIP3   OH2 4442   4.300   5.249   3.962
 1479TIP3    H1 4443   4.330   5.270   4.050
 1479TIP3    H2 4444   4.253   5.327   3.933
 1480TIP3   OH2 4445   4.515   1.949   4.104
 1480TIP3    H1 4446   4.527   1.874   4.045
 1480TIP3    H2 4447   4.483   2.019   4.048
 1481TIP3   OH2 4448   1.214   5.382   0.308
 1481TIP3    H1 4449   1.132   5.416   0.344
 1481TIP3    H2 4450   1.261   5.460   0.277
 1482TIP3   OH2 4451   5.933   2.956   4.910
 1482TIP3    H1 4452   5.853   2.989   4.871
 1482TIP3    H2 4453   5.906   2.881   4.962
 1483TIP3   OH2 4454   1.636   1.251   1.085
 1483TIP3    H1 4455   1.606   1.252   0.994
 1483TIP3    H2 4456   1.725   1.216   1.080
 1484TIP3   OH2 4457   6.236   1.260   3.808
 1484TIP3    H1 4458   6.228   1.247   3.713
 1484TIP3    H2 4459   6.253   1.354   3.819
 1485TIP3   OH2 4460   5.935   3.584   2.169
 1485TIP3    H1 4461   5.931   3.511   2.107
 1485TIP3    H2 4462   5.985   3.550   2.243
 1486TIP3   OH2 4463   6.264   0.835   3.814
 1486TIP3    H1 4464   6.216   0.777   3.756
 1486TIP3    H2 4465   6.341   0.861   3.764
 1487TIP3   OH2 4466   2.744   2.259   3.197
 1487TIP3    H1 4467   2.725   2.352   3.195
 1487TIP3    H2 4468   2.772   2.238   3.108
 1488TIP3   OH2 4469   5.807   4.899   3.647
 1488TIP3    H1 4470   5.786   4.893   3.741
 1488TIP3    H2 4471   5.899   4.876   3.641
 1489TIP3   OH2 4472   2.183   4.485   4.469
 1489TIP3    H1 4473   2.180   4.390   4.460
 1489TIP3    H2 4474   2.219   4.499   4.557
 1490TIP3   OH2 4475   3.507   5.333   0.394
 1490TIP3    H1 4476   3.519   5.410   0.339
 1490TIP3    H2 4477   3.437   5.283   0.352
 1491TIP3   OH2 4478   3.729   2.107   1.838
 1491TIP3    H1 4479   3.824   2.122   1.832
 1491TIP3    H2 4480   3.701   2.091   1.748
 1492TIP3   OH2 4481   3.365   2.203   3.681
 1492TIP3    H1 4482   3.322   2.260   3.617
 1492TIP3    H2 4483   3.400   2.263   3.747
 1493TIP3   OH2 4484   1.609   1.488   1.198
 1493TIP3    H1 4485   1.566   1.433   1.264
 1493TIP3    H2 4486   1.639   1.426   1.132
 1494TIP3   OH2 4487   0.342   2.800   0.622
 1494TIP3    H1 4488   0.329   2.706   0.633
 1494TIP3    H2 4489   0.272   2.840   0.675
 1495TIP3   OH2 4490   0.700   1.593   1.503
 1495TIP3    H1 4491   0.654   1.588   1.587
 1495TIP3    H2 4492   0.760   1.667   1.513
 1496TIP3   OH2 4493   0.959   5.119   0.314
 1496TIP3    H1 4494   0.954   5.099   0.407
 1496TIP3    H2 4495   0.913   5.202   0.305
 1497TIP3   OH2 4496   5.891   1.410   0.790
 1497TIP3    H1 4497   5.875   1.377   0.878
 1497TIP3    H2 4498   5.902   1.331   0.737
 1498TIP3   OH2 4499   1.935   3.626   0.387
 1498TIP3    H1 4500   1.873   3.677   0.440
 1498TIP3    H2 4501   1.881   3.558   0.347
 1499TIP3   OH2 4502   2.432   0.764   1.367
 1499TIP3    H1 4503   2.483   0.822   1.423
 1499TIP3    H2 4504   2.355   0.815   1.343
 1500TIP3   OH2 4505   0.886   3.749   0.723
 1500TIP3    H1 4506   0.828   3.795   0.663
 1500TIP3    H2 4507   0.832   3.680   0.761
 1501TIP3   OH2 4508   0.505   3.865   3.641
 1501TIP3    H1 4509   0.500   3.820   3.557
 1501TIP3    H2 4510   0.570   3.816   3.691
 1502TIP3   OH2 4511   4.371   4.029   3.102
 1502TIP3    H1 4512   4.422   3.949   3.108
 1502TIP3    H2 4513   4.328   4.037   3.187
 1503TIP3   OH2 4514   2.376   0.671   4.414
 1503TIP3    H1 4515   2.450   0.661   4.354
 1503TIP3    H2 4516   2.302   0.635   4.366
 1504TIP3   OH2 4517   0.136   3.744   0.951
 1504TIP3    H1 4518   0.119   3.661   0.994
 1504TIP3    H2 4519   0.176   3.799   1.019
 1505TIP3   OH2 4520   4.899   3.448   1.268
 1505TIP3    H1 4521   4.841   3.508   1.315
 1505TIP3    H2 4522   4.962   3.505   1.224
 1506TIP3   OH2 4523   2.308   4.256   3.784
 1506TIP3    H1 4524   2.347   4.168   3.792
 1506TIP3    H2 4525   2.384   4.315   3.780
 1507TIP3   OH2 4526   4.369   0.650   0.461
 1507TIP3    H1 4527   4.364   0.690   0.547
 1507TIP3    H2 4528   4.295   0.589   0.459
 1508TIP3   OH2 4529   1.111   3.851   2.132
 1508TIP3    H1 4530   1.193   3.809   2.158
 1508TIP3    H2 4531   1.125   3.944   2.147
 1509TIP3   OH2 4532   1.832   1.150   2.761
 1509TIP3    H1 4533   1.847   1.056   2.751
 1509TIP3    H2 4534   1.766   1.171   2.695
 1510TIP3   OH2 4535   5.551   4.453   2.468
 1510TIP3    H1 4536   5.590   4.514   2.405
 1510TIP3    H2 4537   5.624   4.427   2.524
 1511TIP3   OH2 4538   2.645   2.008   1.123
 1511TIP3    H1 4539   2.635   2.089   1.173
 1511TIP3    H2 4540   2.670   1.943   1.188
 1512TIP3   OH2 4541   4.878   4.694   4.420
 1512TIP3    H1 4542   4.958   4.711   4.371
 1512TIP3    H2 4543   4.908   4.681   4.510
 1513TIP3   OH2 4544   4.556   1.200   4.427
 1513TIP3    H1 4545   4.603   1.273   4.386
 1513TIP3    H2 4546   4.597   1.122   4.390
 1514TIP3   OH2 4547   0.385   3.480   2.490
 1514TIP3    H1 4548   0.309   3.480   2.432
 1514TIP3    H2 4549   0.349   3.457   2.576
 1515TIP3   OH2 4550   4.131   0.323   4.719
 1515TIP3    H1 4551   4.196   0.353   4.783
 1515TIP3    H2 4552   4.072   0.268   4.770
 1516TIP3   OH2 4553   2.061   2.269   1.154
 1516TIP3    H1 4554   2.106   2.349   1.126
 1516TIP3    H2 4555   2.042   2.283   1.246
 1517TIP3   OH2 4556   3.455   1.694   5.070
 1517TIP3    H1 4557   3.482   1.604   5.056
 1517TIP3    H2 4558   3.525   1.747   5.031
 1518TIP3   OH2 4559   1.344   2.844   3.229
 1518TIP3    H1 4560   1.391   2.878   3.305
 1518TIP3    H2 4561   1.285   2.915   3.204
 1519TIP3   OH2 4562   1.348   3.327   3.902
 1519TIP3    H1 4563   1.363   3.264   3.831
 1519TIP3    H2 4564   1.378   3.282   3.981
 1520TIP3   OH2 4565   1.209   2.611   1.954
 1520TIP3    H1 4566   1.171   2.623   2.041
 1520TIP3    H2 4567   1.172   2.683   1.901
 1521TIP3   OH2 4568   5.974   4.752   3.144
 1521TIP3    H1 4569   6.017   4.673   3.176
 1521TIP3    H2 4570   6.014   4.823   3.194
 1522TIP3   OH2 4571   5.494   5.273   1.986
 1522TIP3    H1 4572   5.537   5.190   1.963
 1522TIP3    H2 4573   5.549   5.310   2.055
 1523TIP3   OH2 4574   0.838   2.065   0.376
 1523TIP3    H1 4575   0.871   1.978   0.357
 1523TIP3    H2 4576   0.748   2.065   0.342
 1524TIP3   OH2 4577   5.214   3.703   3.106
 1524TIP3    H1 4578   5.156   3.777   3.088
 1524TIP3    H2 4579   5.232   3.664   3.021
 1525TIP3   OH2 4580   3.507   3.906   4.058
 1525TIP3    H1 4581   3.557   3.972   4.010
 1525TIP3    H2 4582   3.569   3.835   4.074
 1526TIP3   OH2 4583   1.112   3.133   3.299
 1526TIP3    H1 4584   1.090   3.051   3.257
 1526TIP3    H2 4585   1.099   3.117   3.392
 1527TIP3   OH2 4586   4.427   1.599   2.651
 1527TIP3    H1 4587   4.394   1.511   2.638
 1527TIP3    H2 4588   4.522   1.591   2.642
 1528TIP3   OH2 4589   1.037   3.515   0.555
 1528TIP3    H1 4590   1.002   3.596   0.593
 1528TIP3    H2 4591   0.982   3.498   0.479
 1529TIP3   OH2 4592   2.751   0.343   2.862
 1529TIP3    H1 4593   2.679   0.356   2.801
 1529TIP3    H2 4594   2.789   0.430   2.873
 1530TIP3   OH2 4595   3.206   0.531   3.454
 1530TIP3    H1 4596   3.237   0.621   3.456
 1530TIP3    H2 4597   3.144   0.525   3.526
 1531TIP3   OH2 4598   1.735   3.428   0.320
 1531TIP3    H1 4599   1.699   3.424   0.409
 1531TIP3    H2 4600   1.663   3.461   0.267
 1532TIP3   OH2 4601   0.118   1.109   4.825
 1532TIP3    H1 4602   0.066   1.177   4.869
 1532TIP3    H2 4603   0.105   1.125   4.732
 1533TIP3   OH2 4604   2.536   5.050   2.074
 1533TIP3    H1 4605   2.471   4.983   2.053
 1533TIP3    H2 4606   2.487   5.118   2.120
 1534TIP3   OH2 4607   2.086   3.281   3.495
 1534TIP3    H1 4608   1.991   3.269   3.495
 1534TIP3    H2 4609   2.115   3.248   3.410
 1535TIP3   OH2 4610   2.312   4.367   2.678
 1535TIP3    H1 4611   2.373   4.419   2.626
 1535TIP3    H2 4612   2.262   4.432   2.729
 1536TIP3   OH2 4613   1.347   3.535   0.329
 1536TIP3    H1 4614   1.264   3.521   0.284
 1536TIP3    H2 4615   1.411   3.483   0.280
 1537TIP3   OH2 4616   4.757   5.922   4.989
 1537TIP3    H1 4617   4.670   5.891   4.966
 1537TIP3    H2 4618   4.813   5.844   4.983
 1538TIP3   OH2 4619   2.066   5.978   4.482
 1538TIP3    H1 4620   2.023   5.933   4.410
 1538TIP3    H2 4621   2.046   6.070   4.469
 1539TIP3   OH2 4622   5.750   4.799   1.058
 1539TIP3    H1 4623   5.664   4.790   1.098
 1539TIP3    H2 4624   5.738   4.770   0.968
 1540TIP3   OH2 4625   5.446   2.861   4.303
 1540TIP3    H1 4626   5.445   2.936   4.244
 1540TIP3    H2 4627   5.531   2.821   4.289
 1541TIP3   OH2 4628   0.045   2.641   2.496
 1541TIP3    H1 4629   0.048   2.634   2.401
 1541TIP3    H2 4630  -0.018   2.574   2.523
 1542TIP3   OH2 4631   2.776   0.548   1.761
 1542TIP3    H1 4632   2.773   0.636   1.724
 1542TIP3    H2 4633   2.819   0.495   1.693
 1543TIP3   OH2 4634   1.444   3.824   3.275
 1543TIP3    H1 4635   1.475   3.830   3.184
 1543TIP3    H2 4636   1.440   3.915   3.305
 1544TIP3   OH2 4637   4.844   0.641   3.155
 1544TIP3    H1 4638   4.939   0.659   3.158
 1544TIP3    H2 4639   4.831   0.570   3.217
 1545TIP3   OH2 4640   1.533   3.991   3.935
 1545TIP3    H1 4641   1.438   4.003   3.928
 1545TIP3    H2 4642   1.561   4.063   3.992
 1546TIP3   OH2 4643   5.595   0.147   4.846
 1546TIP3    H1 4644   5.643   0.169   4.926
 1546TIP3    H2 4645   5.631   0.205   4.779
 1547TIP3   OH2 4646   6.126   2.317   1.325
 1547TIP3    H1 4647   6.063   2.316   1.396
 1547TIP3    H2 4648   6.211   2.299   1.366
 1548TIP3   OH2 4649   2.156   3.152   3.866
 1548TIP3    H1 4650   2.154   3.058   3.883
 1548TIP3    H2 4651   2.100   3.191   3.933
 1549TIP3   OH2 4652   1.050   3.409   1.618
 1549TIP3    H1 4653   1.028   3.500   1.637
 1549TIP3    H2 4654   1.136   3.396   1.659
 1550TIP3   OH2 4655   0.434   0.915   0.198
 1550TIP3    H1 4656   0.408   0.848   0.135
 1550TIP3    H2 4657   0.363   0.980   0.195
 1551TIP3   OH2 4658   3.945   2.595   0.557
 1551TIP3    H1 4659   4.023   2.573   0.607
 1551TIP3    H2 4660   3.975   2.601   0.466
 1552TIP3   OH2 4661   5.190   3.287   2.800
 1552TIP3    H1 4662   5.197   3.193   2.817
 1552TIP3    H2 4663   5.131   3.320   2.868
 1553TIP3   OH2 4664   2.993   0.973   1.651
 1553TIP3    H1 4665   2.996   1.002   1.559
 1553TIP3    H2 4666   2.932   1.034   1.693
 1554TIP3   OH2 4667   5.029   2.925   3.033
 1554TIP3    H1 4668   4.989   2.839   3.019
 1554TIP3    H2 4669   4.990   2.958   3.114
 1555TIP3   OH2 4670   5.930   3.754   2.772
 1555TIP3    H1 4671   5.875   3.676   2.775
 1555TIP3    H2 4672   5.931   3.787   2.862
 1556TIP3   OH2 4673   2.273   1.200   0.137
 1556TIP3    H1 4674   2.269   1.290   0.169
 1556TIP3    H2 4675   2.262   1.207   0.043
 1557TIP3   OH2 4676   5.846   1.085   2.434
 1557TIP3    H1 4677   5.784   1.047   2.495
 1557TIP3    H2 4678   5.859   1.018   2.367
 1558TIP3   OH2 4679   4.453   5.864   1.040
 1558TIP3    H1 4680   4.473   5.947   1.084
 1558TIP3    H2 4681   4.486   5.875   0.951
 1559TIP3   OH2 4682   0.762   5.537   0.971
 1559TIP3    H1 4683   0.737   5.629   0.975
 1559TIP3    H2 4684   0.715   5.502   0.896
 1560TIP3   OH2 4685   3.140   0.196   3.520
 1560TIP3    H1 4686   3.117   0.106   3.501
 1560TIP3    H2 4687   3.062   0.232   3.562
 1561TIP3   OH2 4688   5.836   5.666   0.134
 1561TIP3    H1 4689   5.878   5.666   0.047
 1561TIP3    H2 4690   5.909   5.661   0.195
 1562TIP3   OH2 4691   1.670   4.189   1.381
 1562TIP3    H1 4692   1.693   4.176   1.473
 1562TIP3    H2 4693   1.634   4.105   1.353
 1563TIP3   OH2 4694   4.280   1.468   1.963
 1563TIP3    H1 4695   4.327   1.542   1.923
 1563TIP3    H2 4696   4.348   1.403   1.980
 1564TIP3   OH2 4697   2.018   2.270   0.235
 1564TIP3    H1 4698   2.048   2.205   0.171
 1564TIP3    H2 4699   1.929   2.291   0.208
 1565TIP3   OH2 4700   5.742   4.576   4.489
 1565TIP3    H1 4701   5.773   4.650   4.438
 1565TIP3    H2 4702   5.740   4.608   4.579
 1566TIP3   OH2 4703   2.141   1.046   1.175
 1566TIP3    H1 4704   2.226   1.085   1.153
 1566TIP3    H2 4705   2.144   0.958   1.137
 1567TIP3   OH2 4706   4.236   5.479   3.351
 1567TIP3    H1 4707   4.203   5.560   3.390
 1567TIP3    H2 4708   4.282   5.434   3.422
 1568TIP3   OH2 4709   2.187   0.252   0.482
 1568TIP3    H1 4710   2.155   0.184   0.541
 1568TIP3    H2 4711   2.135   0.242   0.403
 1569TIP3   OH2 4712   2.702   3.447   2.731
 1569TIP3    H1 4713   2.641   3.517   2.709
 1569TIP3    H2 4714   2.748   3.429   2.648
 1570TIP3   OH2 4715   0.887   5.844   5.171
 1570TIP3    H1 4716   0.888   5.922   5.115
 1570TIP3    H2 4717   0.906   5.877   5.258
 1571TIP3   OH2 4718   2.709   5.302   4.484
 1571TIP3    H1 4719   2.721   5.267   4.395
 1571TIP3    H2 4720   2.621   5.274   4.509
 1572TIP3   OH2 4721   5.754   0.676   3.475
 1572TIP3    H1 4722   5.670   0.631   3.468
 1572TIP3    H2 4723   5.793   0.670   3.388
 1573TIP3   OH2 4724   5.791   4.655   2.524
 1573TIP3    H1 4725   5.777   4.667   2.618
 1573TIP3    H2 4726   5.729   4.715   2.482
 1574TIP3   OH2 4727   1.314   2.022   3.825
 1574TIP3    H1 4728   1.230   1.979   3.807
 1574TIP3    H2 4729   1.368   1.954   3.864
 1575TIP3   OH2 4730   4.908   0.705   3.547
 1575TIP3    H1 4731   4.978   0.684   3.485
 1575TIP3    H2 4732   4.928   0.652   3.624
 1576TIP3   OH2 4733   1.787   2.497   4.668
 1576TIP3    H1 4734   1.713   2.542   4.709
 1576TIP3    H2 4735   1.864   2.547   4.694
 1577TIP3   OH2 4736   0.007   1.346   1.344
 1577TIP3    H1 4737   0.013   1.390   1.260
 1577TIP3    H2 4738   0.095   1.311   1.360
 1578TIP3   OH2 4739   3.917   1.966   2.096
 1578TIP3    H1 4740   3.951   1.916   2.170
 1578TIP3    H2 4741   3.877   1.901   2.038
 1579TIP3   OH2 4742   5.545   2.587   2.370
 1579TIP3    H1 4743   5.577   2.543   2.292
 1579TIP3    H2 4744   5.457   2.616   2.348
 1580TIP3   OH2 4745   1.017   5.582   0.941
 1580TIP3    H1 4746   0.947   5.535   0.985
 1580TIP3    H2 4747   0.971   5.640   0.880
 1581TIP3   OH2 4748   0.821   3.661   2.376
 1581TIP3    H1 4749   0.745   3.688   2.324
 1581TIP3    H2 4750   0.807   3.568   2.393
 1582TIP3   OH2 4751   3.894   0.099   4.268
 1582TIP3    H1 4752   3.803   0.101   4.297
 1582TIP3    H2 4753   3.942   0.149   4.334
 1583TIP3   OH2 4754   1.589   0.202   3.313
 1583TIP3    H1 4755   1.650   0.197   3.388
 1583TIP3    H2 4756   1.552   0.290   3.318
 1584TIP3   OH2 4757   5.497   0.993   4.523
 1584TIP3    H1 4758   5.553   1.055   4.571
 1584TIP3    H2 4759   5.506   0.911   4.571
 1585TIP3   OH2 4760   3.028   1.339   4.167
 1585TIP3    H1 4761   2.944   1.322   4.124
 1585TIP3    H2 4762   3.008   1.337   4.261
 1586TIP3   OH2 4763   0.426   1.144   4.762
 1586TIP3    H1 4764   0.453   1.120   4.674
 1586TIP3    H2 4765   0.333   1.122   4.766
 1587TIP3   OH2 4766   2.524   0.565   3.976
 1587TIP3    H1 4767   2.503   0.658   3.978
 1587TIP3    H2 4768   2.619   0.562   3.965
 1588TIP3   OH2 4769   1.197   2.120   3.356
 1588TIP3    H1 4770   1.186   2.054   3.288
 1588TIP3    H2 4771   1.270   2.087   3.409
 1589TIP3   OH2 4772   4.839   2.928   4.022
 1589TIP3    H1 4773   4.761   2.874   4.009
 1589TIP3    H2 4774   4.836   2.951   4.115
 1590TIP3   OH2 4775   4.983   1.421   0.338
 1590TIP3    H1 4776   4.923   1.436   0.411
 1590TIP3    H2 4777   4.992   1.507   0.296
 1591TIP3   OH2 4778   5.625   2.414   1.135
 1591TIP3    H1 4779   5.549   2.466   1.162
 1591TIP3    H2 4780   5.667   2.467   1.068
 1592TIP3   OH2 4781   3.916   3.877   1.812
 1592TIP3    H1 4782   3.997   3.836   1.841
 1592TIP3    H2 4783   3.939   3.920   1.730
 1593TIP3   OH2 4784   4.948   0.590   1.987
 1593TIP3    H1 4785   4.874   0.583   2.046
 1593TIP3    H2 4786   4.954   0.504   1.945
 1594TIP3   OH2 4787   0.674   4.887   2.707
 1594TIP3    H1 4788   0.653   4.978   2.687
 1594TIP3    H2 4789   0.686   4.846   2.621
 1595TIP3   OH2 4790   2.021   3.144   3.253
 1595TIP3    H1 4791   2.009   3.073   3.316
 1595TIP3    H2 4792   2.066   3.104   3.179
 1596TIP3   OH2 4793   5.177   0.571   0.943
 1596TIP3    H1 4794   5.186   0.561   0.848
 1596TIP3    H2 4795   5.126   0.495   0.970
 1597TIP3   OH2 4796   0.282   0.111   1.158
 1597TIP3    H1 4797   0.228   0.190   1.154
 1597TIP3    H2 4798   0.353   0.133   1.218
 1598TIP3   OH2 4799   1.180   5.849   5.075
 1598TIP3    H1 4800   1.176   5.905   4.998
 1598TIP3    H2 4801   1.089   5.844   5.106
 1599TIP3   OH2 4802   5.984   1.935   0.565
 1599TIP3    H1 4803   6.021   1.990   0.496
 1599TIP3    H2 4804   5.993   1.845   0.532
 1600TIP3   OH2 4805   6.328   5.310   4.554
 1600TIP3    H1 4806   6.382   5.389   4.551
 1600TIP3    H2 4807   6.293   5.302   4.465
 1601TIP3   OH2 4808   2.078   5.076   3.937
 1601TIP3    H1 4809   2.120   5.157   3.967
 1601TIP3    H2 4810   2.149   5.013   3.929
 1602TIP3   OH2 4811   2.101   1.218   0.827
 1602TIP3    H1 4812   2.139   1.287   0.772
 1602TIP3    H2 4813   2.089   1.144   0.769
 1603TIP3   OH2 4814   0.136   2.608   4.510
 1603TIP3    H1 4815   0.131   2.514   4.493
 1603TIP3    H2 4816   0.185   2.643   4.436
 1604TIP3   OH2 4817   1.694   4.074   0.981
 1604TIP3    H1 4818   1.657   3.988   1.005
 1604TIP3    H2 4819   1.620   4.134   0.989
 1605TIP3   OH2 4820   0.487   2.026   5.005
 1605TIP3    H1 4821   0.565   2.036   5.059
 1605TIP3    H2 4822   0.486   1.934   4.980
 1606TIP3   OH2 4823   4.427   0.036   1.382
 1606TIP3    H1 4824   4.520   0.033   1.362
 1606TIP3    H2 4825   4.411  -0.045   1.431
 1607TIP3   OH2 4826   3.140   3.598   4.201
 1607TIP3    H1 4827   3.170   3.507   4.204
 1607TIP3    H2 4828   3.197   3.643   4.263
 1608TIP3   OH2 4829   3.840   0.629   0.574
 1608TIP3    H1 4830   3.848   0.720   0.603
 1608TIP3    H2 4831   3.840   0.579   0.655
 1609TIP3   OH2 4832   6.129   3.836   0.136
 1609TIP3    H1 4833   6.214   3.806   0.167
 1609TIP3    H2 4834   6.119   3.794   0.050
 1610TIP3   OH2 4835   0.397   6.066   0.631
 1610TIP3    H1 4836   0.341   6.037   0.703
 1610TIP3    H2 4837   0.413   5.987   0.580
 1611TIP3   OH2 4838   0.861   5.776   0.800
 1611TIP3    H1 4839   0.864   5.724   0.720
 1611TIP3    H2 4840   0.899   5.861   0.775
 1612TIP3   OH2 4841   1.118   4.101   3.061
 1612TIP3    H1 4842   1.093   4.025   3.115
 1612TIP3    H2 4843   1.126   4.173   3.123
 1613TIP3   OH2 4844   2.553   5.097   2.786
 1613TIP3    H1 4845   2.537   5.041   2.711
 1613TIP3    H2 4846   2.648   5.105   2.792
 1614TIP3   OH2 4847   2.417   5.188   0.084
 1614TIP3    H1 4848   2.478   5.258   0.109
 1614TIP3    H2 4849   2.473   5.121   0.044
 1615TIP3   OH2 4850   4.154   3.213   3.947
 1615TIP3    H1 4851   4.122   3.286   4.001
 1615TIP3    H2 4852   4.246   3.236   3.930
 1616TIP3   OH2 4853   0.174   2.208   3.244
 1616TIP3    H1 4854   0.104   2.238   3.186
 1616TIP3    H2 4855   0.254   2.247   3.208
 1617TIP3   OH2 4856   0.471   2.232   4.244
 1617TIP3    H1 4857   0.470   2.279   4.328
 1617TIP3    H2 4858   0.534   2.280   4.190
 1618TIP3   OH2 4859   5.132   3.368   0.192
 1618TIP3    H1 4860   5.197   3.312   0.235
 1618TIP3    H2 4861   5.077   3.307   0.143
 1619TIP3   OH2 4862   4.231   4.420   1.719
 1619TIP3    H1 4863   4.206   4.504   1.679
 1619TIP3    H2 4864   4.202   4.427   1.810
 1620TIP3   OH2 4865   0.734   5.500   2.931
 1620TIP3    H1 4866   0.773   5.413   2.943
 1620TIP3    H2 4867   0.809   5.559   2.930
 1621TIP3   OH2 4868   0.148   5.865   0.631
 1621TIP3    H1 4869   0.208   5.811   0.580
 1621TIP3    H2 4870   0.145   5.823   0.717
 1622TIP3   OH2 4871   4.654   1.162   1.029
 1622TIP3    H1 4872   4.640   1.067   1.028
 1622TIP3    H2 4873   4.725   1.176   0.966
 1623TIP3   OH2 4874   4.387   2.813   3.213
 1623TIP3    H1 4875   4.400   2.750   3.143
 1623TIP3    H2 4876   4.313   2.866   3.184
 1624TIP3   OH2 4877   6.002   3.826   1.107
 1624TIP3    H1 4878   5.947   3.873   1.169
 1624TIP3    H2 4879   6.071   3.887   1.085
 1625TIP3   OH2 4880   0.625   1.433   2.435
 1625TIP3    H1 4881   0.575   1.362   2.394
 1625TIP3    H2 4882   0.682   1.466   2.365
 1626TIP3   OH2 4883   5.257   4.730   0.610
 1626TIP3    H1 4884   5.178   4.682   0.584
 1626TIP3    H2 4885   5.248   4.815   0.567
 1627TIP3   OH2 4886   0.444   1.388   3.708
 1627TIP3    H1 4887   0.351   1.369   3.723
 1627TIP3    H2 4888   0.455   1.377   3.614
 1628TIP3   OH2 4889   5.376   1.264   1.328
 1628TIP3    H1 4890   5.352   1.173   1.310
 1628TIP3    H2 4891   5.312   1.316   1.278
 1629TIP3   OH2 4892   5.093   5.483   1.414
 1629TIP3    H1 4893   5.020   5.428   1.444
 1629TIP3    H2 4894   5.166   5.423   1.404
 1630TIP3   OH2 4895   2.501   5.937   1.096
 1630TIP3    H1 4896   2.554   5.984   1.160
 1630TIP3    H2 4897   2.565   5.893   1.039
 1631TIP3   OH2 4898   4.703   5.391   3.027
 1631TIP3    H1 4899   4.758   5.440   2.965
 1631TIP3    H2 4900   4.761   5.371   3.100
 1632TIP3   OH2 4901   4.011   0.824   3.544
 1632TIP3    H1 4902   4.106   0.816   3.549
 1632TIP3    H2 4903   3.978   0.780   3.622
 1633TIP3   OH2 4904   0.623   1.178   3.360
 1633TIP3    H1 4905   0.559   1.135   3.303
 1633TIP3    H2 4906   0.655   1.108   3.417
 1634TIP3   OH2 4907   5.579   1.781   2.798
 1634TIP3    H1 4908   5.646   1.714   2.788
 1634TIP3    H2 4909   5.508   1.737   2.845
 1635TIP3   OH2 4910   2.974   5.084   3.372
 1635TIP3    H1 4911   2.911   5.157   3.374
 1635TIP3    H2 4912   3.013   5.087   3.285
 1636TIP3   OH2 4913   2.100   5.583   1.925
 1636TIP3    H1 4914   2.113   5.670   1.964
 1636TIP3    H2 4915   2.142   5.524   1.987
 1637TIP3   OH2 4916   2.331   1.090   4.763
 1637TIP3    H1 4917   2.367   1.006   4.736
 1637TIP3    H2 4918   2.339   1.146   4.686
 1638TIP3   OH2 4919   5.750   4.158   4.119
 1638TIP3    H1 4920   5.742   4.248   4.150
 1638TIP3    H2 4921   5.668   4.141   4.072
 1639TIP3   OH2 4922   2.954   3.052   2.280
 1639TIP3    H1 4923   3.032   3.086   2.237
 1639TIP3    H2 4924   2.980   2.965   2.312
 1640TIP3   OH2 4925   3.941   2.497   5.272
 1640TIP3    H1 4926   3.873   2.536   5.217
 1640TIP3    H2 4927   3.939   2.404   5.251
 1641TIP3   OH2 4928   1.103   4.593   1.877
 1641TIP3    H1 4929   1.100   4.529   1.805
 1641TIP3    H2 4930   1.034   4.656   1.855
 1642TIP3   OH2 4931   0.074   4.129   0.732
 1642TIP3    H1 4932  -0.009   4.177   0.740
 1642TIP3    H2 4933   0.049   4.037   0.743
 1643TIP3   OH2 4934   6.023   1.739   5.187
 1643TIP3    H1 4935   5.948   1.680   5.190
 1643TIP3    H2 4936   6.060   1.727   5.100
 1644TIP3   OH2 4937   3.458   4.918   1.823
 1644TIP3    H1 4938   3.466   4.886   1.913
 1644TIP3    H2 4939   3.422   4.844   1.774
 1645TIP3   OH2 4940   5.220   4.126   2.961
 1645TIP3    H1 4941   5.198   4.209   3.002
 1645TIP3    H2 4942   5.313   4.133   2.939
 1646TIP3   OH2 4943   5.654   3.372   1.588
 1646TIP3    H1 4944   5.695   3.353   1.504
 1646TIP3    H2 4945   5.614   3.289   1.614
 1647TIP3   OH2 4946   2.700   2.360   4.979
 1647TIP3    H1 4947   2.642   2.432   4.953
 1647TIP3    H2 4948   2.732   2.385   5.065
 1648TIP3   OH2 4949   1.077   3.562   3.627
 1648TIP3    H1 4950   1.136   3.575   3.701
 1648TIP3    H2 4951   1.012   3.499   3.659
 1649TIP3   OH2 4952   6.182   3.671   1.645
 1649TIP3    H1 4953   6.176   3.710   1.558
 1649TIP3    H2 4954   6.099   3.693   1.688
 1650TIP3   OH2 4955   2.864   2.549   0.045
 1650TIP3    H1 4956   2.800   2.587   0.105
 1650TIP3    H2 4957   2.851   2.596  -0.037
 1651TIP3   OH2 4958   0.520   2.743   2.516
 1651TIP3    H1 4959   0.440   2.732   2.568
 1651TIP3    H2 4960   0.544   2.655   2.489
 1652TIP3   OH2 4961   5.584   0.326   0.481
 1652TIP3    H1 4962   5.573   0.421   0.490
 1652TIP3    H2 4963   5.669   0.308   0.522
 1653TIP3   OH2 4964   6.163   5.072   1.391
 1653TIP3    H1 4965   6.240   5.110   1.433
 1653TIP3    H2 4966   6.141   5.135   1.321
 1654TIP3   OH2 4967   5.999   4.764   4.680
 1654TIP3    H1 4968   5.938   4.722   4.741
 1654TIP3    H2 4969   5.947   4.777   4.600
 1655TIP3   OH2 4970   4.142   0.962   2.682
 1655TIP3    H1 4971   4.224   0.954   2.634
 1655TIP3    H2 4972   4.126   0.874   2.716
 1656TIP3   OH2 4973   5.176   3.135   4.420
 1656TIP3    H1 4974   5.203   3.085   4.343
 1656TIP3    H2 4975   5.104   3.085   4.458
 1657TIP3   OH2 4976   4.013   0.732   1.511
 1657TIP3    H1 4977   3.940   0.768   1.459
 1657TIP3    H2 4978   4.051   0.665   1.454
 1658TIP3   OH2 4979   3.010   3.872   3.590
 1658TIP3    H1 4980   2.938   3.888   3.529
 1658TIP3    H2 4981   3.089   3.896   3.542
 1659TIP3   OH2 4982   4.192   5.102   0.952
 1659TIP3    H1 4983   4.230   5.152   0.880
 1659TIP3    H2 4984   4.235   5.136   1.030
 1660TIP3   OH2 4985   2.209   5.167   0.284
 1660TIP3    H1 4986   2.252   5.222   0.350
 1660TIP3    H2 4987   2.270   5.169   0.209
 1661TIP3   OH2 4988   1.476   1.432   2.247
 1661TIP3    H1 4989   1.433   1.513   2.220
 1661TIP3    H2 4990   1.410   1.364   2.235
 1662TIP3   OH2 4991   3.804   4.869   0.080
 1662TIP3    H1 4992   3.800   4.965   0.080
 1662TIP3    H2 4993   3.831   4.847  -0.010
 1663TIP3   OH2 4994   1.257   4.688   0.378
 1663TIP3    H1 4995   1.229   4.766   0.331
 1663TIP3    H2 4996   1.199   4.619   0.346
 1664TIP3   OH2 4997   2.282   4.609   2.952
 1664TIP3    H1 4998   2.209   4.670   2.966
 1664TIP3    H2 4999   2.321   4.637   2.869
 1665TIP3   OH2 5000   1.605   4.874   1.075
 1665TIP3    H1 5001   1.680   4.815   1.064
 1665TIP3    H2 5002   1.621   4.944   1.012
 1666TIP3   OH2 5003   5.931   3.117   2.018
 1666TIP3    H1 5004   5.946   3.188   1.956
 1666TIP3    H2 5005   5.893   3.160   2.095
 1667TIP3   OH2 5006   5.865   4.900   2.954
 1667TIP3    H1 5007   5.945   4.946   2.927
 1667TIP3    H2 5008   5.892   4.849   3.030
 1668TIP3   OH2 5009   2.948   0.194   0.392
 1668TIP3    H1 5010   2.867   0.185   0.342
 1668TIP3    H2 5011   2.918   0.214   0.481
 1669TIP3   OH2 5012   3.611   0.839   4.837
 1669TIP3    H1 5013   3.703   0.817   4.850
 1669TIP3    H2 5014   3.604   0.932   4.859
 1670TIP3   OH2 5015   1.108   1.168   3.348
 1670TIP3    H1 5016   1.127   1.205   3.262
 1670TIP3    H2 5017   1.193   1.168   3.393
 1671TIP3   OH2 5018   1.829   4.000   4.715
 1671TIP3    H1 5019   1.870   4.063   4.775
 1671TIP3    H2 5020   1.900   3.941   4.690
 1672TIP3   OH2 5021   1.251   3.514   4.125
 1672TIP3    H1 5022   1.271   3.477   4.039
 1672TIP3    H2 5023   1.213   3.441   4.174
 1673TIP3   OH2 5024   0.721   4.421   4.935
 1673TIP3    H1 5025   0.736   4.514   4.953
 1673TIP3    H2 5026   0.807   4.381   4.939
 1674TIP3   OH2 5027   5.161   0.223   3.997
 1674TIP3    H1 5028   5.203   0.309   3.994
 1674TIP3    H2 5029   5.160   0.200   4.090
 1675TIP3   OH2 5030   3.631   5.764   4.439
 1675TIP3    H1 5031   3.612   5.858   4.439
 1675TIP3    H2 5032   3.629   5.738   4.531
 1676TIP3   OH2 5033   1.972   3.680   1.177
 1676TIP3    H1 5034   1.909   3.720   1.236
 1676TIP3    H2 5035   1.961   3.727   1.095
 1677TIP3   OH2 5036   3.665   4.402   3.719
 1677TIP3    H1 5037   3.584   4.365   3.684
 1677TIP3    H2 5038   3.724   4.328   3.728
 1678TIP3   OH2 5039   3.401   4.600   2.292
 1678TIP3    H1 5040   3.358   4.549   2.361
 1678TIP3    H2 5041   3.412   4.687   2.330
 1679TIP3   OH2 5042   5.212   1.418   1.112
 1679TIP3    H1 5043   5.154   1.344   1.092
 1679TIP3    H2 5044   5.198   1.434   1.205
 1680TIP3   OH2 5045   4.678   3.462   1.846
 1680TIP3    H1 5046   4.770   3.484   1.863
 1680TIP3    H2 5047   4.657   3.396   1.912
 1681TIP3   OH2 5048   4.846   0.558   1.097
 1681TIP3    H1 5049   4.833   0.649   1.124
 1681TIP3    H2 5050   4.761   0.516   1.112
 1682TIP3   OH2 5051   5.525   2.791   0.122
 1682TIP3    H1 5052   5.614   2.759   0.107
 1682TIP3    H2 5053   5.485   2.793   0.035
 1683TIP3   OH2 5054   2.261   2.679   1.778
 1683TIP3    H1 5055   2.203   2.720   1.843
 1683TIP3    H2 5056   2.241   2.724   1.696
 1684TIP3   OH2 5057   4.622   4.536   0.273
 1684TIP3    H1 5058   4.580   4.494   0.349
 1684TIP3    H2 5059   4.598   4.628   0.280
 1685TIP3   OH2 5060   6.135   5.556   2.654
 1685TIP3    H1 5061   6.146   5.525   2.743
 1685TIP3    H2 5062   6.205   5.513   2.604
 1686TIP3   OH2 5063   3.544   4.662   1.722
 1686TIP3    H1 5064   3.620   4.705   1.683
 1686TIP3    H2 5065   3.578   4.623   1.803
 1687TIP3   OH2 5066   3.048   4.669   1.452
 1687TIP3    H1 5067   2.954   4.654   1.440
 1687TIP3    H2 5068   3.070   4.737   1.389
 1688TIP3   OH2 5069   0.551   5.399   2.116
 1688TIP3    H1 5070   0.456   5.395   2.127
 1688TIP3    H2 5071   0.577   5.311   2.090
 1689TIP3   OH2 5072   5.658   0.640   2.163
 1689TIP3    H1 5073   5.690   0.730   2.157
 1689TIP3    H2 5074   5.595   0.643   2.236
 1690TIP3   OH2 5075   5.468   0.428   4.708
 1690TIP3    H1 5076   5.456   0.432   4.802
 1690TIP3    H2 5077   5.414   0.499   4.674
 1691TIP3   OH2 5078   0.610   0.169   0.068
 1691TIP3    H1 5079   0.686   0.209   0.026
 1691TIP3    H2 5080   0.626   0.075   0.062
 1692TIP3   OH2 5081   2.785   5.032   0.824
 1692TIP3    H1 5082   2.699   5.068   0.845
 1692TIP3    H2 5083   2.806   4.975   0.897
 1693TIP3   OH2 5084   2.275   4.387   3.134
 1693TIP3    H1 5085   2.241   4.430   3.055
 1693TIP3    H2 5086   2.356   4.433   3.155
 1694TIP3   OH2 5087   3.767   4.084   2.465
 1694TIP3    H1 5088   3.796   4.013   2.408
 1694TIP3    H2 5089   3.797   4.058   2.553
 1695TIP3   OH2 5090   4.049   1.093   1.757
 1695TIP3    H1 5091   4.041   1.183   1.787
 1695TIP3    H2 5092   4.045   1.040   1.837
 1696TIP3   OH2 5093   3.221   2.957   2.443
 1696TIP3    H1 5094   3.231   2.949   2.348
 1696TIP3    H2 5095   3.164   2.884   2.467
 1697TIP3   OH2 5096   1.429   1.387   2.522
 1697TIP3    H1 5097   1.469   1.453   2.466
 1697TIP3    H2 5098   1.348   1.427   2.553
 1698TIP3   OH2 5099   3.966   3.085   3.059
 1698TIP3    H1 5100   3.937   3.057   3.145
 1698TIP3    H2 5101   3.888   3.123   3.018
 1699TIP3   OH2 5102   1.284   4.493   2.122
 1699TIP3    H1 5103   1.376   4.494   2.094
 1699TIP3    H2 5104   1.235   4.464   2.046
 1700TIP3   OH2 5105   3.592   0.420   3.784
 1700TIP3    H1 5106   3.515   0.371   3.753
 1700TIP3    H2 5107   3.625   0.464   3.706
 1701TIP3   OH2 5108   2.595   4.103   4.022
 1701TIP3    H1 5109   2.556   4.042   3.960
 1701TIP3    H2 5110   2.645   4.048   4.082
 1702TIP3   OH2 5111   3.449   4.449   3.331
 1702TIP3    H1 5112   3.397   4.528   3.342
 1702TIP3    H2 5113   3.536   4.474   3.362
 1703TIP3   OH2 5114   5.350   2.746   4.666
 1703TIP3    H1 5115   5.370   2.732   4.758
 1703TIP3    H2 5116   5.423   2.706   4.619
 1704TIP3   OH2 5117   0.276   3.614   4.952
 1704TIP3    H1 5118   0.358   3.581   4.990
 1704TIP3    H2 5119   0.304   3.681   4.889
 1705TIP3   OH2 5120   0.530   3.249   2.935
 1705TIP3    H1 5121   0.563   3.225   2.848
 1705TIP3    H2 5122   0.609   3.264   2.987
 1706TIP3   OH2 5123   4.766   4.766   3.021
 1706TIP3    H1 5124   4.812   4.800   3.097
 1706TIP3    H2 5125   4.831   4.767   2.951
 1707TIP3   OH2 5126   6.246   3.893   0.898
 1707TIP3    H1 5127   6.321   3.837   0.915
 1707TIP3    H2 5128   6.191   3.842   0.838
 1708TIP3   OH2 5129   5.727   1.097   1.738
 1708TIP3    H1 5130   5.785   1.028   1.770
 1708TIP3    H2 5131   5.779   1.177   1.747
 1709TIP3   OH2 5132   0.715   3.543   0.793
 1709TIP3    H1 5133   0.743   3.508   0.877
 1709TIP3    H2 5134   0.624   3.567   0.806
 1710TIP3   OH2 5135   1.249   1.633   2.609
 1710TIP3    H1 5136   1.244   1.590   2.523
 1710TIP3    H2 5137   1.175   1.694   2.609
 1711TIP3   OH2 5138   1.282   0.766   3.914
 1711TIP3    H1 5139   1.210   0.787   3.975
 1711TIP3    H2 5140   1.361   0.785   3.964
 1712TIP3   OH2 5141   2.024   3.386   4.406
 1712TIP3    H1 5142   2.106   3.396   4.454
 1712TIP3    H2 5143   1.985   3.307   4.442
 1713TIP3   OH2 5144   3.728   4.904   2.011
 1713TIP3    H1 5145   3.725   4.954   2.092
 1713TIP3    H2 5146   3.640   4.869   2.001
 1714TIP3   OH2 5147   4.972   0.624   2.432
 1714TIP3    H1 5148   5.064   0.648   2.432
 1714TIP3    H2 5149   4.957   0.583   2.517
 1715TIP3   OH2 5150   0.707   5.593   3.962
 1715TIP3    H1 5151   0.683   5.645   4.039
 1715TIP3    H2 5152   0.644   5.618   3.895
 1716TIP3   OH2 5153   3.645   5.970   5.136
 1716TIP3    H1 5154   3.647   5.946   5.043
 1716TIP3    H2 5155   3.625   6.064   5.136
 1717TIP3   OH2 5156   1.277   5.762   1.004
 1717TIP3    H1 5157   1.266   5.780   1.097
 1717TIP3    H2 5158   1.350   5.701   1.000
 1718TIP3   OH2 5159   5.057   3.467   4.871
 1718TIP3    H1 5160   4.966   3.439   4.860
 1718TIP3    H2 5161   5.108   3.404   4.820
 1719TIP3   OH2 5162   4.871   1.223   1.570
 1719TIP3    H1 5163   4.889   1.143   1.619
 1719TIP3    H2 5164   4.936   1.286   1.601
 1720TIP3   OH2 5165   2.360   5.237   2.233
 1720TIP3    H1 5166   2.398   5.296   2.299
 1720TIP3    H2 5167   2.350   5.292   2.156
 1721TIP3   OH2 5168   6.264   4.996   1.013
 1721TIP3    H1 5169   6.187   5.045   1.039
 1721TIP3    H2 5170   6.274   5.014   0.919
 1722TIP3   OH2 5171   4.313   2.619   0.496
 1722TIP3    H1 5172   4.268   2.647   0.576
 1722TIP3    H2 5173   4.361   2.696   0.467
 1723TIP3   OH2 5174   2.192   4.145   5.084
 1723TIP3    H1 5175   2.146   4.145   5.168
 1723TIP3    H2 5176   2.225   4.056   5.074
 1724TIP3   OH2 5177   3.257   2.143   1.624
 1724TIP3    H1 5178   3.274   2.069   1.566
 1724TIP3    H2 5179   3.241   2.217   1.565
 1725TIP3   OH2 5180   1.854   3.344   3.270
 1725TIP3    H1 5181   1.789   3.308   3.331
 1725TIP3    H2 5182   1.899   3.267   3.235
 1726TIP3   OH2 5183   4.170  -0.018   1.275
 1726TIP3    H1 5184   4.248   0.032   1.299
 1726TIP3    H2 5185   4.193  -0.058   1.191
 1727TIP3   OH2 5186   2.114   0.946   0.257
 1727TIP3    H1 5187   2.046   0.974   0.317
 1727TIP3    H2 5188   2.153   1.027   0.224
 1728TIP3   OH2 5189   3.324   1.205   0.368
 1728TIP3    H1 5190   3.286   1.247   0.290
 1728TIP3    H2 5191   3.248   1.179   0.420
 1729TIP3   OH2 5192   4.560   4.891   1.812
 1729TIP3    H1 5193   4.510   4.813   1.836
 1729TIP3    H2 5194   4.633   4.859   1.760
 1730TIP3   OH2 5195   2.209   3.520   1.841
 1730TIP3    H1 5196   2.237   3.530   1.750
 1730TIP3    H2 5197   2.250   3.592   1.887
 1731TIP3   OH2 5198   0.352   1.596   4.188
 1731TIP3    H1 5199   0.276   1.650   4.207
 1731TIP3    H2 5200   0.422   1.658   4.167
 1732TIP3   OH2 5201   4.425   0.339   5.114
 1732TIP3    H1 5202   4.378   0.336   5.031
 1732TIP3    H2 5203   4.421   0.431   5.140
 1733TIP3   OH2 5204   1.808   4.564   0.632
 1733TIP3    H1 5205   1.825   4.658   0.621
 1733TIP3    H2 5206   1.862   4.539   0.707
 1734TIP3   OH2 5207   1.558   2.636   3.252
 1734TIP3    H1 5208   1.533   2.720   3.290
 1734TIP3    H2 5209   1.517   2.636   3.165
 1735TIP3   OH2 5210   1.061   4.315   2.684
 1735TIP3    H1 5211   1.047   4.365   2.764
 1735TIP3    H2 5212   1.011   4.234   2.697
 1736TIP3   OH2 5213   4.772   0.565   0.179
 1736TIP3    H1 5214   4.855   0.592   0.139
 1736TIP3    H2 5215   4.739   0.644   0.223
 1737TIP3   OH2 5216   2.207   1.098   4.483
 1737TIP3    H1 5217   2.186   1.010   4.514
 1737TIP3    H2 5218   2.257   1.085   4.403
 1738TIP3   OH2 5219   4.622   3.892   0.898
 1738TIP3    H1 5220   4.609   3.906   0.992
 1738TIP3    H2 5221   4.717   3.904   0.886
 1739TIP3   OH2 5222   5.656   0.778   3.866
 1739TIP3    H1 5223   5.633   0.863   3.829
 1739TIP3    H2 5224   5.721   0.797   3.933
 1740TIP3   OH2 5225   3.737   2.932   0.343
 1740TIP3    H1 5226   3.734   2.984   0.263
 1740TIP3    H2 5227   3.764   2.994   0.411
 1741TIP3   OH2 5228   3.822   5.574   3.788
 1741TIP3    H1 5229   3.801   5.545   3.876
 1741TIP3    H2 5230   3.738   5.577   3.743
 1742TIP3   OH2 5231   6.297   5.212   3.629
 1742TIP3    H1 5232   6.233   5.165   3.684
 1742TIP3    H2 5233   6.276   5.185   3.540
 1743TIP3   OH2 5234   1.607   0.388   3.596
 1743TIP3    H1 5235   1.601   0.484   3.593
 1743TIP3    H2 5236   1.532   0.361   3.649
 1744TIP3   OH2 5237   0.789   0.429   2.346
 1744TIP3    H1 5238   0.693   0.428   2.343
 1744TIP3    H2 5239   0.813   0.342   2.377
 1745TIP3   OH2 5240   1.397   0.065   3.995
 1745TIP3    H1 5241   1.313   0.101   4.023
 1745TIP3    H2 5242   1.386   0.048   3.901
 1746TIP3   OH2 5243   5.014   4.947   3.763
 1746TIP3    H1 5244   4.961   4.868   3.776
 1746TIP3    H2 5245   4.973   4.990   3.688
 1747TIP3   OH2 5246   0.565   1.744   3.423
 1747TIP3    H1 5247   0.512   1.696   3.359
 1747TIP3    H2 5248   0.518   1.736   3.505
 1748TIP3   OH2 5249   5.273   5.513   3.760
 1748TIP3    H1 5250   5.238   5.540   3.845
 1748TIP3    H2 5251   5.228   5.569   3.697
 1749TIP3   OH2 5252   1.533   4.428   4.040
 1749TIP3    H1 5253   1.571   4.507   4.077
 1749TIP3    H2 5254   1.607   4.368   4.029
 1750TIP3   OH2 5255   1.027   3.154   2.806
 1750TIP3    H1 5256   1.036   3.191   2.894
 1750TIP3    H2 5257   0.957   3.205   2.766
 1751TIP3   OH2 5258   0.892   0.622   1.789
 1751TIP3    H1 5259   0.972   0.650   1.745
 1751TIP3    H2 5260   0.876   0.690   1.855
 1752TIP3   OH2 5261   5.955   5.705   3.425
 1752TIP3    H1 5262   5.920   5.764   3.493
 1752TIP3    H2 5263   6.007   5.641   3.474
 1753TIP3   OH2 5264   2.487   4.123   0.714
 1753TIP3    H1 5265   2.426   4.112   0.787
 1753TIP3    H2 5266   2.454   4.066   0.645
 1754TIP3   OH2 5267   6.104   0.571   3.753
 1754TIP3    H1 5268   6.028   0.628   3.744
 1754TIP3    H2 5269   6.069   0.492   3.794
 1755TIP3   OH2 5270   0.682   3.514   4.665
 1755TIP3    H1 5271   0.591   3.494   4.642
 1755TIP3    H2 5272   0.734   3.470   4.598
 1756TIP3   OH2 5273   2.682   0.535   3.622
 1756TIP3    H1 5274   2.632   0.616   3.611
 1756TIP3    H2 5275   2.670   0.488   3.540
 1757TIP3   OH2 5276   5.224   2.064   3.620
 1757TIP3    H1 5277   5.258   2.065   3.531
 1757TIP3    H2 5278   5.252   1.980   3.655
 1758TIP3   OH2 5279   5.417   3.528   3.506
 1758TIP3    H1 5280   5.453   3.517   3.594
 1758TIP3    H2 5281   5.441   3.617   3.482
 1759TIP3   OH2 5282   5.473   5.178   4.576
 1759TIP3    H1 5283   5.443   5.263   4.606
 1759TIP3    H2 5284   5.410   5.151   4.510
 1760TIP3   OH2 5285   0.407   5.125   3.648
 1760TIP3    H1 5286   0.352   5.177   3.707
 1760TIP3    H2 5287   0.349   5.097   3.579
 1761TIP3   OH2 5288   5.091   0.266   0.723
 1761TIP3    H1 5289   5.024   0.198   0.712
 1761TIP3    H2 5290   5.043   0.343   0.753
 1762TIP3   OH2 5291   2.606   4.707   3.086
 1762TIP3    H1 5292   2.556   4.761   3.025
 1762TIP3    H2 5293   2.672   4.766   3.123
 1763TIP3   OH2 5294   0.920   5.809   4.600
 1763TIP3    H1 5295   0.875   5.736   4.643
 1763TIP3    H2 5296   0.872   5.887   4.629
 1764TIP3   OH2 5297   4.392   4.807   2.222
 1764TIP3    H1 5298   4.486   4.793   2.210
 1764TIP3    H2 5299   4.351   4.733   2.178
 1765TIP3   OH2 5300   4.108   4.668   1.231
 1765TIP3    H1 5301   4.026   4.688   1.274
 1765TIP3    H2 5302   4.119   4.739   1.167
 1766TIP3   OH2 5303   2.590   4.241   1.956
 1766TIP3    H1 5304   2.533   4.301   2.003
 1766TIP3    H2 5305   2.533   4.197   1.894
 1767TIP3   OH2 5306   2.106   2.541   3.531
 1767TIP3    H1 5307   2.044   2.594   3.581
 1767TIP3    H2 5308   2.191   2.559   3.571
 1768TIP3   OH2 5309   2.783   4.010   4.198
 1768TIP3    H1 5310   2.840   4.086   4.201
 1768TIP3    H2 5311   2.840   3.938   4.171
 1769TIP3   OH2 5312   2.404   2.204   3.228
 1769TIP3    H1 5313   2.438   2.241   3.146
 1769TIP3    H2 5314   2.463   2.237   3.296
 1770TIP3   OH2 5315   2.896   1.247   3.110
 1770TIP3    H1 5316   2.876   1.167   3.060
 1770TIP3    H2 5317   2.841   1.314   3.070
 1771TIP3   OH2 5318   5.425   5.528   0.953
 1771TIP3    H1 5319   5.393   5.534   0.863
 1771TIP3    H2 5320   5.464   5.614   0.970
 1772TIP3   OH2 5321   5.800   0.073   3.007
 1772TIP3    H1 5322   5.856   0.062   3.084
 1772TIP3    H2 5323   5.820  -0.003   2.952
 1773TIP3   OH2 5324   0.685   5.136   2.610
 1773TIP3    H1 5325   0.668   5.219   2.655
 1773TIP3    H2 5326   0.635   5.143   2.528
 1774TIP3   OH2 5327   4.191   1.291   3.863
 1774TIP3    H1 5328   4.284   1.307   3.878
 1774TIP3    H2 5329   4.188   1.238   3.784
 1775TIP3   OH2 5330   5.931   3.951   4.155
 1775TIP3    H1 5331   5.931   3.860   4.184
 1775TIP3    H2 5332   5.859   3.991   4.204
 1776TIP3   OH2 5333   1.714   1.922   4.965
 1776TIP3    H1 5334   1.630   1.882   4.943
 1776TIP3    H2 5335   1.778   1.853   4.950
 1777TIP3   OH2 5336   1.174   4.900   0.213
 1777TIP3    H1 5337   1.191   4.865   0.125
 1777TIP3    H2 5338   1.129   4.983   0.196
 1778TIP3   OH2 5339   4.901   5.284   1.434
 1778TIP3    H1 5340   4.831   5.332   1.478
 1778TIP3    H2 5341   4.876   5.192   1.443
 1779TIP3   OH2 5342   3.047   2.587   1.470
 1779TIP3    H1 5343   2.980   2.522   1.447
 1779TIP3    H2 5344   3.080   2.557   1.554
 1780TIP3   OH2 5345   2.841   0.600   0.472
 1780TIP3    H1 5346   2.745   0.601   0.475
 1780TIP3    H2 5347   2.866   0.519   0.518
 1781TIP3   OH2 5348   5.412   3.074   1.314
 1781TIP3    H1 5349   5.480   3.134   1.285
 1781TIP3    H2 5350   5.420   2.997   1.257
 1782TIP3   OH2 5351   4.321   3.076   4.476
 1782TIP3    H1 5352   4.246   3.135   4.476
 1782TIP3    H2 5353   4.296   3.005   4.535
 1783TIP3   OH2 5354   4.020   0.673   0.892
 1783TIP3    H1 5355   4.074   0.751   0.891
 1783TIP3    H2 5356   3.931   0.705   0.906
 1784TIP3   OH2 5357   0.105   3.626   2.723
 1784TIP3    H1 5358   0.103   3.681   2.801
 1784TIP3    H2 5359   0.167   3.556   2.745
 1785TIP3   OH2 5360   3.774   5.893   1.496
 1785TIP3    H1 5361   3.701   5.859   1.548
 1785TIP3    H2 5362   3.813   5.816   1.455
 1786TIP3   OH2 5363   4.563   3.042   0.540
 1786TIP3    H1 5364   4.503   2.980   0.499
 1786TIP3    H2 5365   4.589   3.101   0.470
 1787TIP3   OH2 5366   2.129   4.979   3.497
 1787TIP3    H1 5367   2.083   4.919   3.439
 1787TIP3    H2 5368   2.123   4.937   3.584
 1788TIP3   OH2 5369   6.152   3.847   3.554
 1788TIP3    H1 5370   6.161   3.907   3.629
 1788TIP3    H2 5371   6.205   3.771   3.577
 1789TIP3   OH2 5372   3.179   5.857   2.811
 1789TIP3    H1 5373   3.128   5.819   2.739
 1789TIP3    H2 5374   3.191   5.784   2.872
 1790TIP3   OH2 5375   0.482   3.787   1.624
 1790TIP3    H1 5376   0.399   3.760   1.583
 1790TIP3    H2 5377   0.530   3.829   1.553
 1791TIP3   OH2 5378   1.541   5.032   0.031
 1791TIP3    H1 5379   1.519   5.122   0.008
 1791TIP3    H2 5380   1.636   5.033   0.040
 1792TIP3   OH2 5381   4.074   4.370   1.487
 1792TIP3    H1 5382   4.146   4.353   1.548
 1792TIP3    H2 5383   4.003   4.405   1.541
 1793TIP3   OH2 5384   3.127   4.984   4.001
 1793TIP3    H1 5385   3.216   4.976   3.967
 1793TIP3    H2 5386   3.074   4.927   3.944
 1794TIP3   OH2 5387   4.056   4.792   3.065
 1794TIP3    H1 5388   4.130   4.794   3.005
 1794TIP3    H2 5389   4.083   4.847   3.138
 1795TIP3   OH2 5390   2.957   0.598   2.048
 1795TIP3    H1 5391   3.012   0.671   2.021
 1795TIP3    H2 5392   3.000   0.563   2.126
 1796TIP3   OH2 5393   2.848   4.564   2.756
 1796TIP3    H1 5394   2.847   4.480   2.710
 1796TIP3    H2 5395   2.757   4.595   2.752
 1797TIP3   OH2 5396   0.251   2.377   2.448
 1797TIP3    H1 5397   0.234   2.300   2.502
 1797TIP3    H2 5398   0.166   2.401   2.412
 1798TIP3   OH2 5399   1.565   0.132   4.214
 1798TIP3    H1 5400   1.514   0.078   4.153
 1798TIP3    H2 5401   1.524   0.219   4.210
 1799TIP3   OH2 5402   5.235   3.155   1.113
 1799TIP3    H1 5403   5.161   3.154   1.174
 1799TIP3    H2 5404   5.312   3.140   1.167
 1800TIP3   OH2 5405   1.808   3.227   0.976
 1800TIP3    H1 5406   1.819   3.281   0.898
 1800TIP3    H2 5407   1.857   3.147   0.957
 1801TIP3   OH2 5408   3.129   4.948   4.888
 1801TIP3    H1 5409   3.040   4.914   4.889
 1801TIP3    H2 5410   3.123   5.031   4.842
 1802TIP3   OH2 5411   0.804   0.281   3.238
 1802TIP3    H1 5412   0.711   0.274   3.216
 1802TIP3    H2 5413   0.836   0.355   3.185
 1803TIP3   OH2 5414   0.499   1.845   4.136
 1803TIP3    H1 5415   0.586   1.886   4.132
 1803TIP3    H2 5416   0.461   1.879   4.217
 1804TIP3   OH2 5417   3.923   2.106   3.514
 1804TIP3    H1 5418   3.951   2.073   3.428
 1804TIP3    H2 5419   3.830   2.084   3.519
 1805TIP3   OH2 5420   4.614   4.228   4.093
 1805TIP3    H1 5421   4.664   4.205   4.170
 1805TIP3    H2 5422   4.664   4.191   4.020
 1806TIP3   OH2 5423   6.048   2.504   4.155
 1806TIP3    H1 5424   6.123   2.451   4.128
 1806TIP3    H2 5425   5.973   2.462   4.113
 1807TIP3   OH2 5426   3.679   1.876   5.066
 1807TIP3    H1 5427   3.771   1.850   5.067
 1807TIP3    H2 5428   3.669   1.934   5.142
 1808TIP3   OH2 5429   6.171   5.789   0.438
 1808TIP3    H1 5430   6.221   5.857   0.392
 1808TIP3    H2 5431   6.081   5.821   0.437
 1809TIP3   OH2 5432   1.957   2.377   5.026
 1809TIP3    H1 5433   2.047   2.384   5.059
 1809TIP3    H2 5434   1.935   2.284   5.037
 1810TIP3   OH2 5435   4.464   5.006   4.756
 1810TIP3    H1 5436   4.461   5.038   4.666
 1810TIP3    H2 5437   4.378   5.028   4.791
 1811TIP3   OH2 5438   5.553   1.650   3.202
 1811TIP3    H1 5439   5.575   1.557   3.195
 1811TIP3    H2 5440   5.484   1.654   3.268
 1812TIP3   OH2 5441   4.555   2.709   3.417
 1812TIP3    H1 5442   4.626   2.699   3.354
 1812TIP3    H2 5443   4.479   2.734   3.364
 1813TIP3   OH2 5444   0.703   3.768   1.814
 1813TIP3    H1 5445   0.609   3.764   1.792
 1813TIP3    H2 5446   0.732   3.851   1.776
 1814TIP3   OH2 5447   1.143   0.597   4.776
 1814TIP3    H1 5448   1.085   0.551   4.715
 1814TIP3    H2 5449   1.100   0.681   4.792
 1815TIP3   OH2 5450   0.365   3.469   0.150
 1815TIP3    H1 5451   0.405   3.393   0.107
 1815TIP3    H2 5452   0.272   3.447   0.155
 1816TIP3   OH2 5453   5.871   2.014   2.647
 1816TIP3    H1 5454   5.958   1.999   2.684
 1816TIP3    H2 5455   5.838   2.091   2.693
 1817TIP3   OH2 5456   2.724   2.353   2.491
 1817TIP3    H1 5457   2.668   2.381   2.563
 1817TIP3    H2 5458   2.668   2.295   2.439
 1818TIP3   OH2 5459   5.815   0.070   1.288
 1818TIP3    H1 5460   5.735   0.101   1.329
 1818TIP3    H2 5461   5.856   0.016   1.355
 1819TIP3   OH2 5462   2.275   2.678   2.069
 1819TIP3    H1 5463   2.334   2.708   2.139
 1819TIP3    H2 5464   2.331   2.674   1.991
 1820TIP3   OH2 5465   3.347   0.715   1.356
 1820TIP3    H1 5466   3.415   0.774   1.325
 1820TIP3    H2 5467   3.361   0.708   1.450
 1821TIP3   OH2 5468   6.265   4.738   4.624
 1821TIP3    H1 5469   6.263   4.664   4.563
 1821TIP3    H2 5470   6.173   4.754   4.645
 1822TIP3   OH2 5471   0.318   4.495   0.248
 1822TIP3    H1 5472   0.362   4.567   0.295
 1822TIP3    H2 5473   0.333   4.515   0.156
 1823TIP3   OH2 5474   3.325   2.906   3.457
 1823TIP3    H1 5475   3.390   2.848   3.419
 1823TIP3    H2 5476   3.339   2.990   3.413
 1824TIP3   OH2 5477   5.895   2.650   1.046
 1824TIP3    H1 5478   5.860   2.588   0.983
 1824TIP3    H2 5479   5.967   2.603   1.089
 1825TIP3   OH2 5480   5.464   1.200   0.128
 1825TIP3    H1 5481   5.386   1.145   0.130
 1825TIP3    H2 5482   5.439   1.275   0.074
 1826TIP3   OH2 5483   2.041   0.279   4.016
 1826TIP3    H1 5484   1.982   0.266   4.090
 1826TIP3    H2 5485   1.984   0.270   3.939
 1827TIP3   OH2 5486   5.036   1.404   1.674
 1827TIP3    H1 5487   5.052   1.498   1.676
 1827TIP3    H2 5488   5.098   1.367   1.738
 1828TIP3   OH2 5489   0.497   2.573   3.254
 1828TIP3    H1 5490   0.571   2.529   3.213
 1828TIP3    H2 5491   0.436   2.590   3.182
 1829TIP3   OH2 5492   6.062   0.428   3.224
 1829TIP3    H1 5493   6.053   0.475   3.307
 1829TIP3    H2 5494   5.972   0.419   3.192
 1830TIP3   OH2 5495   3.505   5.019   2.538
 1830TIP3    H1 5496   3.525   4.994   2.628
 1830TIP3    H2 5497   3.411   5.038   2.538
 1831TIP3   OH2 5498   5.323   0.722   5.003
 1831TIP3    H1 5499   5.236   0.739   4.966
 1831TIP3    H2 5500   5.333   0.627   4.996
 1832TIP3   OH2 5501   0.638   2.847   4.700
 1832TIP3    H1 5502   0.593   2.784   4.757
 1832TIP3    H2 5503   0.731   2.828   4.713
 1833TIP3   OH2 5504   0.917   4.961   1.368
 1833TIP3    H1 5505   0.952   5.025   1.429
 1833TIP3    H2 5506   0.972   4.884   1.378
 1834TIP3   OH2 5507  -0.002   4.936   5.133
 1834TIP3    H1 5508   0.067   4.951   5.070
 1834TIP3    H2 5509  -0.083   4.957   5.086
 1835TIP3   OH2 5510   3.371   4.162   0.609
 1835TIP3    H1 5511   3.435   4.172   0.679
 1835TIP3    H2 5512   3.304   4.105   0.645
 1836TIP3   OH2 5513  -0.015   4.525   3.941
 1836TIP3    H1 5514  -0.053   4.606   3.907
 1836TIP3    H2 5515   0.079   4.537   3.935
 1837TIP3   OH2 5516   4.347   3.514   3.228
 1837TIP3    H1 5517   4.381   3.546   3.312
 1837TIP3    H2 5518   4.422   3.470   3.187
 1838TIP3   OH2 5519   6.154   4.854   0.318
 1838TIP3    H1 5520   6.091   4.800   0.270
 1838TIP3    H2 5521   6.129   4.843   0.410
 1839TIP3   OH2 5522   4.870   1.926   4.969
 1839TIP3    H1 5523   4.889   1.857   4.906
 1839TIP3    H2 5524   4.781   1.908   4.999
 1840TIP3   OH2 5525   4.618   1.730   2.213
 1840TIP3    H1 5526   4.608   1.645   2.172
 1840TIP3    H2 5527   4.553   1.786   2.170
 1841TIP3   OH2 5528   1.124   2.300   0.965
 1841TIP3    H1 5529   1.085   2.283   0.880
 1841TIP3    H2 5530   1.050   2.303   1.026
 1842TIP3   OH2 5531   3.419   4.824   0.144
 1842TIP3    H1 5532   3.491   4.829   0.207
 1842TIP3    H2 5533   3.422   4.734   0.113
 1843TIP3   OH2 5534   0.249   3.848   1.176
 1843TIP3    H1 5535   0.256   3.885   1.263
 1843TIP3    H2 5536   0.318   3.783   1.171
 1844TIP3   OH2 5537   1.673   1.349   3.380
 1844TIP3    H1 5538   1.751   1.403   3.388
 1844TIP3    H2 5539   1.615   1.398   3.321
 1845TIP3   OH2 5540   0.077   4.010   3.149
 1845TIP3    H1 5541   0.128   4.054   3.217
 1845TIP3    H2 5542   0.004   3.970   3.196
 1846TIP3   OH2 5543   4.405   0.008   4.145
 1846TIP3    H1 5544   4.390   0.051   4.061
 1846TIP3    H2 5545   4.396   0.078   4.210
 1847TIP3   OH2 5546   1.658   4.757   1.699
 1847TIP3    H1 5547   1.623   4.821   1.761
 1847TIP3    H2 5548   1.750   4.748   1.723
 1848TIP3   OH2 5549   2.031   0.567   2.170
 1848TIP3    H1 5550   2.061   0.502   2.107
 1848TIP3    H2 5551   1.935   0.568   2.160
 1849TIP3   OH2 5552   5.075   2.106   0.108
 1849TIP3    H1 5553   5.039   2.195   0.109
 1849TIP3    H2 5554   5.028   2.060   0.178
 1850TIP3   OH2 5555   2.261   3.658   2.708
 1850TIP3    H1 5556   2.196   3.593   2.736
 1850TIP3    H2 5557   2.299   3.621   2.628
 1851TIP3   OH2 5558   1.140   0.547   0.496
 1851TIP3    H1 5559   1.160   0.618   0.558
 1851TIP3    H2 5560   1.056   0.572   0.458
 1852TIP3   OH2 5561   4.301   0.799   4.894
 1852TIP3    H1 5562   4.322   0.706   4.905
 1852TIP3    H2 5563   4.386   0.843   4.893
 1853TIP3   OH2 5564   5.083   1.285   2.603
 1853TIP3    H1 5565   5.127   1.218   2.655
 1853TIP3    H2 5566   5.154   1.326   2.553
 1854TIP3   OH2 5567   4.462   0.531   0.132
 1854TIP3    H1 5568   4.448   0.444   0.093
 1854TIP3    H2 5569   4.374   0.563   0.151
 1855TIP3   OH2 5570   0.085   4.644   3.265
 1855TIP3    H1 5571   0.176   4.621   3.287
 1855TIP3    H2 5572   0.070   4.603   3.180
 1856TIP3   OH2 5573   5.617   1.281   0.787
 1856TIP3    H1 5574   5.525   1.258   0.800
 1856TIP3    H2 5575   5.662   1.241   0.862
 1857TIP3   OH2 5576   2.370   5.028   1.713
 1857TIP3    H1 5577   2.281   5.000   1.694
 1857TIP3    H2 5578   2.410   4.953   1.758
 1858TIP3   OH2 5579   4.122   3.067   2.632
 1858TIP3    H1 5580   4.133   3.147   2.581
 1858TIP3    H2 5581   4.130   3.095   2.723
 1859TIP3   OH2 5582   0.548   4.368   3.380
 1859TIP3    H1 5583   0.540   4.278   3.413
 1859TIP3    H2 5584   0.619   4.363   3.316
 1860TIP3   OH2 5585   4.009   0.806   2.921
 1860TIP3    H1 5586   3.915   0.784   2.921
 1860TIP3    H2 5587   4.052   0.724   2.946
 1861TIP3   OH2 5588   1.680   1.588   3.717
 1861TIP3    H1 5589   1.726   1.650   3.774
 1861TIP3    H2 5590   1.733   1.508   3.722
 1862TIP3   OH2 5591   2.000   1.054   3.907
 1862TIP3    H1 5592   2.014   0.965   3.874
 1862TIP3    H2 5593   2.069   1.106   3.866
 1863TIP3   OH2 5594   3.617   4.206   4.634
 1863TIP3    H1 5595   3.577   4.212   4.720
 1863TIP3    H2 5596   3.588   4.121   4.600
 1864TIP3   OH2 5597   0.551   3.696   2.318
 1864TIP3    H1 5598   0.501   3.777   2.326
 1864TIP3    H2 5599   0.502   3.631   2.368
 1865TIP3   OH2 5600   2.192   5.399   2.755
 1865TIP3    H1 5601   2.268   5.451   2.726
 1865TIP3    H2 5602   2.164   5.442   2.836
 1866TIP3   OH2 5603   5.773   2.298   4.846
 1866TIP3    H1 5604   5.861   2.270   4.871
 1866TIP3    H2 5605   5.761   2.263   4.758
 1867TIP3   OH2 5606   1.838   2.564   2.962
 1867TIP3    H1 5607   1.908   2.629   2.963
 1867TIP3    H2 5608   1.877   2.487   2.920
 1868TIP3   OH2 5609   2.548   0.926   4.741
 1868TIP3    H1 5610   2.543   0.871   4.663
 1868TIP3    H2 5611   2.588   0.869   4.807
 1869TIP3   OH2 5612   5.932   1.240   1.010
 1869TIP3    H1 5613   5.976   1.260   1.093
 1869TIP3    H2 5614   5.843   1.214   1.035
 1870TIP3   OH2 5615   1.910   5.884   3.879
 1870TIP3    H1 5616   1.939   5.812   3.936
 1870TIP3    H2 5617   1.834   5.849   3.833
 1871TIP3   OH2 5618   1.630   0.283   1.385
 1871TIP3    H1 5619   1.691   0.291   1.458
 1871TIP3    H2 5620   1.614   0.189   1.376
 1872TIP3   OH2 5621   0.875   0.733   4.268
 1872TIP3    H1 5622   0.782   0.718   4.247
 1872TIP3    H2 5623   0.875   0.760   4.359
 1873TIP3   OH2 5624   1.663   1.282   4.704
 1873TIP3    H1 5625   1.687   1.349   4.768
 1873TIP3    H2 5626   1.596   1.230   4.748
 1874TIP3   OH2 5627   1.644   1.679   2.040
 1874TIP3    H1 5628   1.649   1.589   2.005
 1874TIP3    H2 5629   1.552   1.703   2.031
 1875TIP3   OH2 5630   2.822   1.020   2.988
 1875TIP3    H1 5631   2.847   0.983   2.903
 1875TIP3    H2 5632   2.741   0.974   3.011
 1876TIP3   OH2 5633   3.164   5.949   0.776
 1876TIP3    H1 5634   3.246   5.903   0.793
 1876TIP3    H2 5635   3.165   5.963   0.681
 1877TIP3   OH2 5636   5.048   0.700   4.362
 1877TIP3    H1 5637   5.139   0.728   4.374
 1877TIP3    H2 5638   5.048   0.661   4.274
 1878TIP3   OH2 5639   4.700   0.967   4.369
 1878TIP3    H1 5640   4.746   0.936   4.447
 1878TIP3    H2 5641   4.706   0.894   4.307
 1879TIP3   OH2 5642   0.963   4.600   2.381
 1879TIP3    H1 5643   1.016   4.526   2.352
 1879TIP3    H2 5644   0.883   4.594   2.330
 1880TIP3   OH2 5645   5.559   4.655   2.966
 1880TIP3    H1 5646   5.479   4.608   2.990
 1880TIP3    H2 5647   5.627   4.617   3.020
 1881TIP3   OH2 5648   5.738   4.876   4.930
 1881TIP3    H1 5649   5.764   4.817   5.001
 1881TIP3    H2 5650   5.807   4.943   4.928
 1882TIP3   OH2 5651   4.620   5.725   3.151
 1882TIP3    H1 5652   4.551   5.662   3.131
 1882TIP3    H2 5653   4.592   5.766   3.233
 1883TIP3   OH2 5654   1.795   5.071   4.031
 1883TIP3    H1 5655   1.889   5.059   4.033
 1883TIP3    H2 5656   1.760   5.004   4.090
 1884TIP3   OH2 5657   1.789   2.150   1.824
 1884TIP3    H1 5658   1.711   2.194   1.789
 1884TIP3    H2 5659   1.861   2.208   1.800
 1885TIP3   OH2 5660   3.140   3.491   0.292
 1885TIP3    H1 5661   3.195   3.431   0.343
 1885TIP3    H2 5662   3.051   3.473   0.321
 1886TIP3   OH2 5663   6.338   4.732   4.187
 1886TIP3    H1 5664   6.292   4.654   4.218
 1886TIP3    H2 5665   6.431   4.714   4.204
 1887TIP3   OH2 5666   6.040   2.201   3.133
 1887TIP3    H1 5667   5.959   2.155   3.153
 1887TIP3    H2 5668   6.103   2.168   3.197
 1888TIP3   OH2 5669   0.836   5.925   2.868
 1888TIP3    H1 5670   0.880   5.976   2.936
 1888TIP3    H2 5671   0.808   5.990   2.804
 1889TIP3   OH2 5672   1.501   1.356   0.845
 1889TIP3    H1 5673   1.588   1.321   0.825
 1889TIP3    H2 5674   1.453   1.348   0.763
 1890TIP3   OH2 5675   2.027   4.446   2.757
 1890TIP3    H1 5676   2.019   4.351   2.761
 1890TIP3    H2 5677   2.004   4.476   2.845
 1891TIP3   OH2 5678   2.271   2.634   4.030
 1891TIP3    H1 5679   2.305   2.559   3.982
 1891TIP3    H2 5680   2.303   2.621   4.119
 1892TIP3   OH2 5681   0.160   1.485   4.803
 1892TIP3    H1 5682   0.066   1.471   4.803
 1892TIP3    H2 5683   0.173   1.567   4.755
 1893TIP3   OH2 5684   5.409   2.290   0.338
 1893TIP3    H1 5685   5.435   2.368   0.389
 1893TIP3    H2 5686   5.394   2.324   0.250
 1894TIP3   OH2 5687   4.135   5.720   3.436
 1894TIP3    H1 5688   4.047   5.735   3.470
 1894TIP3    H2 5689   4.189   5.786   3.480
 1895TIP3   OH2 5690   4.724   5.928   0.458
 1895TIP3    H1 5691   4.772   5.858   0.503
 1895TIP3    H2 5692   4.786   6.000   0.453
 1896TIP3   OH2 5693   4.339   5.032   1.744
 1896TIP3    H1 5694   4.421   4.987   1.765
 1896TIP3    H2 5695   4.281   4.962   1.713
 1897TIP3   OH2 5696   3.234   2.489   3.942
 1897TIP3    H1 5697   3.317   2.476   3.987
 1897TIP3    H2 5698   3.232   2.582   3.919
 1898TIP3   OH2 5699   3.586   5.415   3.255
 1898TIP3    H1 5700   3.642   5.358   3.203
 1898TIP3    H2 5701   3.618   5.405   3.345
 1899TIP3   OH2 5702   0.868   2.091   1.937
 1899TIP3    H1 5703   0.780   2.104   1.903
 1899TIP3    H2 5704   0.896   2.178   1.966
 1900TIP3   OH2 5705   3.227   1.128   4.143
 1900TIP3    H1 5706   3.195   1.081   4.221
 1900TIP3    H2 5707   3.147   1.158   4.100
 1901TIP3   OH2 5708   4.269   2.453   3.390
 1901TIP3    H1 5709   4.276   2.548   3.392
 1901TIP3    H2 5710   4.206   2.432   3.459
 1902TIP3   OH2 5711   0.873   5.206   2.139
 1902TIP3    H1 5712   0.949   5.150   2.121
 1902TIP3    H2 5713   0.816   5.194   2.063
 1903TIP3   OH2 5714   5.924   1.131   2.119
 1903TIP3    H1 5715   5.899   1.216   2.154
 1903TIP3    H2 5716   6.016   1.121   2.144
 1904TIP3   OH2 5717   2.681   1.295   0.938
 1904TIP3    H1 5718   2.632   1.274   0.858
 1904TIP3    H2 5719   2.614   1.301   1.006
 1905TIP3   OH2 5720   6.095   1.647   4.421
 1905TIP3    H1 5721   6.062   1.573   4.370
 1905TIP3    H2 5722   6.154   1.607   4.485
 1906TIP3   OH2 5723   3.643   2.650   4.858
 1906TIP3    H1 5724   3.622   2.731   4.811
 1906TIP3    H2 5725   3.575   2.589   4.831
 1907TIP3   OH2 5726   3.869   1.846   1.834
 1907TIP3    H1 5727   3.958   1.846   1.799
 1907TIP3    H2 5728   3.814   1.825   1.759
 1908TIP3   OH2 5729   2.614   3.113   1.403
 1908TIP3    H1 5730   2.707   3.104   1.380
 1908TIP3    H2 5731   2.586   3.192   1.356
 1909TIP3   OH2 5732   4.198   1.703   0.358
 1909TIP3    H1 5733   4.110   1.686   0.391
 1909TIP3    H2 5734   4.185   1.716   0.264
 1910TIP3   OH2 5735   1.429   2.663   3.009
 1910TIP3    H1 5736   1.338   2.694   3.008
 1910TIP3    H2 5737   1.431   2.593   2.944
 1911TIP3   OH2 5738   0.170   1.980   2.167
 1911TIP3    H1 5739   0.142   1.977   2.075
 1911TIP3    H2 5740   0.094   1.952   2.217
 1912TIP3   OH2 5741   5.204   3.044   1.816
 1912TIP3    H1 5742   5.214   3.047   1.721
 1912TIP3    H2 5743   5.160   3.126   1.838
 1913TIP3   OH2 5744   3.764   2.940   1.865
 1913TIP3    H1 5745   3.835   2.919   1.926
 1913TIP3    H2 5746   3.690   2.962   1.922
 1914TIP3   OH2 5747   3.216   5.650   4.526
 1914TIP3    H1 5748   3.168   5.687   4.601
 1914TIP3    H2 5749   3.157   5.584   4.490
 1915TIP3   OH2 5750   0.343   3.001   0.977
 1915TIP3    H1 5751   0.262   3.051   0.970
 1915TIP3    H2 5752   0.385   3.010   0.892
 1916TIP3   OH2 5753   0.998   5.611   0.253
 1916TIP3    H1 5754   0.970   5.637   0.341
 1916TIP3    H2 5755   0.947   5.666   0.194
 1917TIP3   OH2 5756   5.823   0.978   4.028
 1917TIP3    H1 5757   5.806   1.005   4.118
 1917TIP3    H2 5758   5.908   1.019   4.007
 1918TIP3   OH2 5759   1.460   3.712   0.518
 1918TIP3    H1 5760   1.428   3.675   0.436
 1918TIP3    H2 5761   1.383   3.755   0.556
 1919TIP3   OH2 5762   1.392   3.526   4.728
 1919TIP3    H1 5763   1.316   3.526   4.787
 1919TIP3    H2 5764   1.412   3.433   4.715
 1920TIP3   OH2 5765   5.712   1.246   3.740
 1920TIP3    H1 5766   5.666   1.230   3.822
 1920TIP3    H2 5767   5.795   1.285   3.767
 1921TIP3   OH2 5768   0.350   2.303   1.781
 1921TIP3    H1 5769   0.360   2.267   1.692
 1921TIP3    H2 5770   0.266   2.348   1.779
 1922TIP3   OH2 5771   3.248   3.677   2.769
 1922TIP3    H1 5772   3.161   3.715   2.785
 1922TIP3    H2 5773   3.282   3.659   2.857
 1923TIP3   OH2 5774   5.792   4.142   0.733
 1923TIP3    H1 5775   5.755   4.229   0.743
 1923TIP3    H2 5776   5.789   4.126   0.638
 1924TIP3   OH2 5777   4.025   3.384   2.088
 1924TIP3    H1 5778   4.021   3.433   2.171
 1924TIP3    H2 5779   4.117   3.359   2.080
 1925TIP3   OH2 5780   3.347   1.187   1.351
 1925TIP3    H1 5781   3.307   1.220   1.432
 1925TIP3    H2 5782   3.391   1.106   1.378
 1926TIP3   OH2 5783   2.450   0.659   0.314
 1926TIP3    H1 5784   2.499   0.675   0.233
 1926TIP3    H2 5785   2.393   0.585   0.293
 1927TIP3   OH2 5786   1.831   0.565   4.836
 1927TIP3    H1 5787   1.829   0.615   4.754
 1927TIP3    H2 5788   1.915   0.586   4.876
 1928TIP3   OH2 5789   2.622   3.338   3.863
 1928TIP3    H1 5790   2.708   3.294   3.866
 1928TIP3    H2 5791   2.601   3.343   3.770
 1929TIP3   OH2 5792   3.022   2.714   4.957
 1929TIP3    H1 5793   3.008   2.632   4.909
 1929TIP3    H2 5794   3.117   2.717   4.971
 1930TIP3   OH2 5795   1.942   1.221   1.060
 1930TIP3    H1 5796   2.011   1.171   1.103
 1930TIP3    H2 5797   1.976   1.236   0.971
 1931TIP3   OH2 5798   2.410   3.158   4.740
 1931TIP3    H1 5799   2.423   3.178   4.647
 1931TIP3    H2 5800   2.358   3.231   4.773
 1932TIP3   OH2 5801   6.252   2.439   1.627
 1932TIP3    H1 5802   6.197   2.515   1.644
 1932TIP3    H2 5803   6.192   2.372   1.595
 1933TIP3   OH2 5804   3.743   2.110   1.255
 1933TIP3    H1 5805   3.725   2.024   1.218
 1933TIP3    H2 5806   3.658   2.140   1.289
 1934TIP3   OH2 5807   0.041   5.209   4.835
 1934TIP3    H1 5808   0.137   5.213   4.842
 1934TIP3    H2 5809   0.021   5.255   4.753
 1935TIP3   OH2 5810   2.294   1.561   2.237
 1935TIP3    H1 5811   2.249   1.489   2.283
 1935TIP3    H2 5812   2.386   1.548   2.258
 1936TIP3   OH2 5813   3.848   3.847   2.309
 1936TIP3    H1 5814   3.821   3.757   2.324
 1936TIP3    H2 5815   3.917   3.863   2.373
 1937TIP3   OH2 5816   0.647   0.770   0.621
 1937TIP3    H1 5817   0.656   0.825   0.699
 1937TIP3    H2 5818   0.555   0.780   0.596
 1938TIP3   OH2 5819   1.938   4.567   4.400
 1938TIP3    H1 5820   2.030   4.543   4.410
 1938TIP3    H2 5821   1.910   4.523   4.320
 1939TIP3   OH2 5822   4.154   2.407   1.590
 1939TIP3    H1 5823   4.123   2.368   1.508
 1939TIP3    H2 5824   4.244   2.376   1.599
 1940TIP3   OH2 5825   5.510   1.940   3.152
 1940TIP3    H1 5826   5.494   1.846   3.165
 1940TIP3    H2 5827   5.453   1.964   3.079
 1941TIP3   OH2 5828   2.557   4.405   1.419
 1941TIP3    H1 5829   2.603   4.449   1.490
 1941TIP3    H2 5830   2.538   4.474   1.356
 1942TIP3   OH2 5831   4.546   3.817   0.248
 1942TIP3    H1 5832   4.633   3.780   0.264
 1942TIP3    H2 5833   4.563   3.905   0.215
 1943TIP3   OH2 5834   5.468   2.954   2.160
 1943TIP3    H1 5835   5.554   2.920   2.134
 1943TIP3    H2 5836   5.414   2.876   2.170
 1944TIP3   OH2 5837   1.368   5.027   3.477
 1944TIP3    H1 5838   1.415   5.068   3.549
 1944TIP3    H2 5839   1.335   5.101   3.425
 1945TIP3   OH2 5840   2.658   3.860   1.548
 1945TIP3    H1 5841   2.635   3.944   1.588
 1945TIP3    H2 5842   2.605   3.796   1.594
 1946TIP3   OH2 5843   3.263   0.031   4.172
 1946TIP3    H1 5844   3.319   0.108   4.160
 1946TIP3    H2 5845   3.222   0.044   4.257
 1947TIP3   OH2 5846   0.835   3.369   3.425
 1947TIP3    H1 5847   0.896   3.341   3.493
 1947TIP3    H2 5848   0.803   3.287   3.386
 1948TIP3   OH2 5849   2.502   3.123   3.073
 1948TIP3    H1 5850   2.523   3.215   3.057
 1948TIP3    H2 5851   2.504   3.083   2.986
 1949TIP3   OH2 5852   3.858   4.351   2.444
 1949TIP3    H1 5853   3.871   4.370   2.537
 1949TIP3    H2 5854   3.816   4.265   2.442
 1950TIP3   OH2 5855   4.506   0.149   2.654
 1950TIP3    H1 5856   4.558   0.069   2.664
 1950TIP3    H2 5857   4.568   0.213   2.618
 1951TIP3   OH2 5858   2.385   3.208   0.613
 1951TIP3    H1 5859   2.475   3.187   0.588
 1951TIP3    H2 5860   2.392   3.287   0.666
 1952TIP3   OH2 5861   4.403   2.842   1.000
 1952TIP3    H1 5862   4.446   2.885   0.926
 1952TIP3    H2 5863   4.309   2.856   0.985
 1953TIP3   OH2 5864   3.448   2.096   0.825
 1953TIP3    H1 5865   3.433   2.079   0.918
 1953TIP3    H2 5866   3.519   2.037   0.801
 1954TIP3   OH2 5867   0.341   0.115   1.845
 1954TIP3    H1 5868   0.355   0.025   1.815
 1954TIP3    H2 5869   0.250   0.116   1.875
 1955TIP3   OH2 5870   4.200   5.540   0.698
 1955TIP3    H1 5871   4.138   5.599   0.741
 1955TIP3    H2 5872   4.152   5.505   0.623
 1956TIP3   OH2 5873   0.493   3.501   1.332
 1956TIP3    H1 5874   0.402   3.497   1.361
 1956TIP3    H2 5875   0.498   3.438   1.261
 1957TIP3   OH2 5876   5.160   4.061   2.077
 1957TIP3    H1 5877   5.129   4.150   2.061
 1957TIP3    H2 5878   5.156   4.051   2.172
 1958TIP3   OH2 5879   5.051   5.148   2.909
 1958TIP3    H1 5880   4.958   5.131   2.927
 1958TIP3    H2 5881   5.051   5.200   2.829
 1959TIP3   OH2 5882   6.074   2.174   4.725
 1959TIP3    H1 5883   6.044   2.208   4.809
 1959TIP3    H2 5884   6.064   2.248   4.665
 1960TIP3   OH2 5885   1.189   1.537   0.611
 1960TIP3    H1 5886   1.240   1.575   0.683
 1960TIP3    H2 5887   1.098   1.557   0.633
 1961TIP3   OH2 5888   0.957   5.881   3.776
 1961TIP3    H1 5889   0.972   5.820   3.703
 1961TIP3    H2 5890   0.898   5.947   3.740
 1962TIP3   OH2 5891   0.366   2.931   3.529
 1962TIP3    H1 5892   0.305   2.949   3.458
 1962TIP3    H2 5893   0.339   2.846   3.563
 1963TIP3   OH2 5894   3.400   4.881   0.773
 1963TIP3    H1 5895   3.394   4.835   0.689
 1963TIP3    H2 5896   3.331   4.947   0.770
 1964TIP3   OH2 5897   5.767   2.015   0.751
 1964TIP3    H1 5898   5.831   2.014   0.680
 1964TIP3    H2 5899   5.685   1.985   0.710
 1965TIP3   OH2 5900   1.784   1.345   0.725
 1965TIP3    H1 5901   1.831   1.263   0.709
 1965TIP3    H2 5902   1.829   1.384   0.800
 1966TIP3   OH2 5903   5.583   4.324   3.172
 1966TIP3    H1 5904   5.582   4.233   3.204
 1966TIP3    H2 5905   5.619   4.317   3.083
 1967TIP3   OH2 5906   4.818   1.262   2.031
 1967TIP3    H1 5907   4.888   1.318   2.066
 1967TIP3    H2 5908   4.862   1.181   2.007
 1968TIP3   OH2 5909   5.189   2.385   1.924
 1968TIP3    H1 5910   5.175   2.295   1.894
 1968TIP3    H2 5911   5.103   2.427   1.915
 1969TIP3   OH2 5912   3.072   2.012   2.160
 1969TIP3    H1 5913   3.116   1.984   2.080
 1969TIP3    H2 5914   3.012   2.081   2.132
 1970TIP3   OH2 5915   0.009   2.967   2.011
 1970TIP3    H1 5916   0.086   3.013   1.980
 1970TIP3    H2 5917  -0.011   2.904   1.941
 1971TIP3   OH2 5918   4.295   4.596   2.084
 1971TIP3    H1 5919   4.212   4.594   2.035
 1971TIP3    H2 5920   4.360   4.561   2.022
 1972TIP3   OH2 5921   3.591   2.489   2.700
 1972TIP3    H1 5922   3.591   2.440   2.618
 1972TIP3    H2 5923   3.524   2.447   2.754
 1973TIP3   OH2 5924   6.239   5.708   1.362
 1973TIP3    H1 5925   6.299   5.764   1.411
 1973TIP3    H2 5926   6.295   5.653   1.308
 1974TIP3   OH2 5927   1.149   2.028   4.135
 1974TIP3    H1 5928   1.110   1.984   4.210
 1974TIP3    H2 5929   1.082   2.023   4.067
 1975TIP3   OH2 5930   4.076   4.504   1.963
 1975TIP3    H1 5931   4.004   4.556   1.997
 1975TIP3    H2 5932   4.046   4.414   1.970
 1976TIP3   OH2 5933   2.233   1.314   2.829
 1976TIP3    H1 5934   2.168   1.248   2.854
 1976TIP3    H2 5935   2.262   1.288   2.742
 1977TIP3   OH2 5936   0.683   2.387   3.162
 1977TIP3    H1 5937   0.733   2.398   3.081
 1977TIP3    H2 5938   0.732   2.321   3.212
 1978TIP3   OH2 5939   1.522   5.051   1.536
 1978TIP3    H1 5940   1.559   4.984   1.594
 1978TIP3    H2 5941   1.565   5.132   1.563
 1979TIP3   OH2 5942   4.215   1.951   0.442
 1979TIP3    H1 5943   4.220   1.866   0.398
 1979TIP3    H2 5944   4.125   1.957   0.473
 1980TIP3   OH2 5945   1.889   4.767   3.965
 1980TIP3    H1 5946   1.929   4.842   3.921
 1980TIP3    H2 5947   1.960   4.726   4.013
 1981TIP3   OH2 5948   6.011   3.812   2.029
 1981TIP3    H1 5949   6.019   3.731   2.079
 1981TIP3    H2 5950   5.952   3.867   2.080
 1982TIP3   OH2 5951   1.549   4.481   0.392
 1982TIP3    H1 5952   1.531   4.388   0.398
 1982TIP3    H2 5953   1.580   4.506   0.479
 1983TIP3   OH2 5954   0.532   4.274   1.159
 1983TIP3    H1 5955   0.496   4.356   1.124
 1983TIP3    H2 5956   0.510   4.208   1.093
 1984TIP3   OH2 5957   0.490   4.683   1.134
 1984TIP3    H1 5958   0.457   4.651   1.218
 1984TIP3    H2 5959   0.485   4.607   1.076
 1985TIP3   OH2 5960   0.461   5.293   4.838
 1985TIP3    H1 5961   0.400   5.310   4.910
 1985TIP3    H2 5962   0.537   5.252   4.880
 1986TIP3   OH2 5963   5.727   1.173   4.561
 1986TIP3    H1 5964   5.734   1.152   4.654
 1986TIP3    H2 5965   5.815   1.202   4.536
 1987TIP3   OH2 5966   0.649   1.929   3.741
 1987TIP3    H1 5967   0.697   1.849   3.764
 1987TIP3    H2 5968   0.682   1.953   3.655
 1988TIP3   OH2 5969   5.407   4.971   2.740
 1988TIP3    H1 5970   5.479   5.001   2.796
 1988TIP3    H2 5971   5.369   5.052   2.705
 1989TIP3   OH2 5972   3.766   1.226   2.554
 1989TIP3    H1 5973   3.670   1.232   2.553
 1989TIP3    H2 5974   3.784   1.141   2.593
 1990TIP3   OH2 5975   3.263   1.716   1.690
 1990TIP3    H1 5976   3.235   1.644   1.747
 1990TIP3    H2 5977   3.182   1.755   1.658
 1991TIP3   OH2 5978   3.623   2.729   4.161
 1991TIP3    H1 5979   3.682   2.706   4.233
 1991TIP3    H2 5980   3.540   2.751   4.204
 1992TIP3   OH2 5981   4.794   3.958   4.442
 1992TIP3    H1 5982   4.726   3.922   4.384
 1992TIP3    H2 5983   4.816   4.043   4.403
 1993TIP3   OH2 5984   2.026   1.644   0.373
 1993TIP3    H1 5985   2.099   1.703   0.350
 1993TIP3    H2 5986   2.022   1.648   0.469
 1994TIP3   OH2 5987   5.006   0.563   3.757
 1994TIP3    H1 5988   4.960   0.621   3.817
 1994TIP3    H2 5989   4.959   0.480   3.764
 1995TIP3   OH2 5990   5.795   3.107   1.757
 1995TIP3    H1 5991   5.830   3.196   1.763
 1995TIP3    H2 5992   5.767   3.099   1.666
 1996TIP3   OH2 5993   3.552   2.758   3.336
 1996TIP3    H1 5994   3.484   2.748   3.269
 1996TIP3    H2 5995   3.634   2.766   3.286
 1997TIP3   OH2 5996   5.949   0.680   1.942
 1997TIP3    H1 5997   5.945   0.620   2.016
 1997TIP3    H2 5998   5.858   0.692   1.916
 1998TIP3   OH2 5999   0.015   5.856   3.328
 1998TIP3    H1 6000   0.059   5.775   3.354
 1998TIP3    H2 6001  -0.044   5.877   3.400
 1999TIP3   OH2 6002   0.565   3.201   2.321
 1999TIP3    H1 6003   0.655   3.176   2.339
 1999TIP3    H2 6004   0.548   3.274   2.381
 2000TIP3   OH2 6005   5.233   5.779   4.182
 2000TIP3    H1 6006   5.205   5.693   4.152
 2000TIP3    H2 6007   5.182   5.841   4.130
 2001TIP3   OH2 6008   3.374   1.713   1.276
 2001TIP3    H1 6009   3.284   1.745   1.266
 2001TIP3    H2 6010   3.369   1.649   1.347
 2002TIP3   OH2 6011   3.073   5.789   4.210
 2002TIP3    H1 6012   3.135   5.737   4.158
 2002TIP3    H2 6013   3.124   5.864   4.240
 2003TIP3   OH2 6014   4.912   3.032   2.220
 2003TIP3    H1 6015   4.850   2.968   2.185
 2003TIP3    H2 6016   4.938   3.084   2.144
 2004TIP3   OH2 6017   2.273   0.012   1.612
 2004TIP3    H1 6018   2.226   0.046   1.688
 2004TIP3    H2 6019   2.204  -0.003   1.547
 2005TIP3   OH2 6020   3.361   0.575   4.964
 2005TIP3    H1 6021   3.379   0.631   5.039
 2005TIP3    H2 6022   3.384   0.627   4.888
 2006TIP3   OH2 6023   3.155   4.352   2.609
 2006TIP3    H1 6024   3.153   4.380   2.700
 2006TIP3    H2 6025   3.117   4.425   2.560
 2007TIP3   OH2 6026   2.748   3.175   4.943
 2007TIP3    H1 6027   2.809   3.109   4.976
 2007TIP3    H2 6028   2.773   3.187   4.851
 2008TIP3   OH2 6029   2.059   0.125   0.935
 2008TIP3    H1 6030   1.987   0.179   0.902
 2008TIP3    H2 6031   2.046   0.040   0.893
 2009TIP3   OH2 6032   0.197   4.864   0.075
 2009TIP3    H1 6033   0.280   4.829   0.043
 2009TIP3    H2 6034   0.132   4.831   0.013
 2010TIP3   OH2 6035   0.380   2.273   3.797
 2010TIP3    H1 6036   0.407   2.353   3.843
 2010TIP3    H2 6037   0.422   2.202   3.846
 2011TIP3   OH2 6038   2.373   3.554   3.010
 2011TIP3    H1 6039   2.296   3.511   2.972
 2011TIP3    H2 6040   2.341   3.590   3.093
 2012TIP3   OH2 6041   2.721   1.514   3.814
 2012TIP3    H1 6042   2.713   1.590   3.872
 2012TIP3    H2 6043   2.669   1.537   3.737
 2013TIP3   OH2 6044   1.884   4.521   1.670
 2013TIP3    H1 6045   1.871   4.577   1.746
 2013TIP3    H2 6046   1.873   4.579   1.595
 2014TIP3   OH2 6047   2.435   4.897   2.990
 2014TIP3    H1 6048   2.397   4.923   3.074
 2014TIP3    H2 6049   2.458   4.979   2.947
 2015TIP3   OH2 6050   2.464   2.036   2.489
 2015TIP3    H1 6051   2.453   1.977   2.415
 2015TIP3    H2 6052   2.473   2.123   2.449
 2016TIP3   OH2 6053   6.215   1.258   1.554
 2016TIP3    H1 6054   6.120   1.269   1.547
 2016TIP3    H2 6055   6.247   1.272   1.465
 2017TIP3   OH2 6056   3.449   0.889   0.934
 2017TIP3    H1 6057   3.487   0.818   0.883
 2017TIP3    H2 6058   3.357   0.864   0.946
 2018TIP3   OH2 6059   5.646   5.884   0.449
 2018TIP3    H1 6060   5.570   5.873   0.506
 2018TIP3    H2 6061   5.682   5.969   0.473
 2019TIP3   OH2 6062   0.436   1.963   4.393
 2019TIP3    H1 6063   0.447   1.957   4.488
 2019TIP3    H2 6064   0.448   2.056   4.373
 2020TIP3   OH2 6065   3.640   4.011   1.483
 2020TIP3    H1 6066   3.681   3.928   1.459
 2020TIP3    H2 6067   3.556   4.011   1.437
 2021TIP3   OH2 6068   0.711   5.557   1.567
 2021TIP3    H1 6069   0.721   5.620   1.495
 2021TIP3    H2 6070   0.757   5.478   1.536
 2022TIP3   OH2 6071   1.208   1.566   1.120
 2022TIP3    H1 6072   1.172   1.583   1.207
 2022TIP3    H2 6073   1.151   1.615   1.060
 2023TIP3   OH2 6074   2.422   2.741   1.075
 2023TIP3    H1 6075   2.329   2.759   1.083
 2023TIP3    H2 6076   2.461   2.775   1.156
 2024TIP3   OH2 6077   2.122   1.302   4.080
 2024TIP3    H1 6078   2.071   1.346   4.012
 2024TIP3    H2 6079   2.100   1.209   4.070
 2025TIP3   OH2 6080   6.098   0.542   2.412
 2025TIP3    H1 6081   6.161   0.544   2.484
 2025TIP3    H2 6082   6.073   0.634   2.400
 2026TIP3   OH2 6083   3.734   4.851   1.619
 2026TIP3    H1 6084   3.746   4.900   1.537
 2026TIP3    H2 6085   3.776   4.906   1.686
 2027TIP3   OH2 6086   4.018   5.786   4.848
 2027TIP3    H1 6087   3.945   5.795   4.909
 2027TIP3    H2 6088   4.093   5.824   4.894
 2028TIP3   OH2 6089   3.090   2.389   0.871
 2028TIP3    H1 6090   3.047   2.407   0.787
 2028TIP3    H2 6091   3.125   2.474   0.899
 2029TIP3   OH2 6092   4.308   5.893   0.714
 2029TIP3    H1 6093   4.353   5.900   0.630
 2029TIP3    H2 6094   4.377   5.912   0.778
 2030TIP3   OH2 6095   3.900   0.447   4.947
 2030TIP3    H1 6096   3.824   0.450   5.006
 2030TIP3    H2 6097   3.866   0.409   4.866
 2031TIP3   OH2 6098   0.526   3.315   1.098
 2031TIP3    H1 6099   0.595   3.374   1.069
 2031TIP3    H2 6100   0.571   3.232   1.115
 2032TIP3   OH2 6101   3.772   1.353   1.748
 2032TIP3    H1 6102   3.710   1.364   1.820
 2032TIP3    H2 6103   3.857   1.345   1.791
 2033TIP3   OH2 6104   3.866   2.840   2.102
 2033TIP3    H1 6105   3.790   2.784   2.118
 2033TIP3    H2 6106   3.923   2.825   2.178
 2034TIP3   OH2 6107   4.780   2.901   1.986
 2034TIP3    H1 6108   4.804   2.810   2.003
 2034TIP3    H2 6109   4.828   2.925   1.907
 2035TIP3   OH2 6110   2.202   2.754   0.736
 2035TIP3    H1 6111   2.174   2.710   0.656
 2035TIP3    H2 6112   2.132   2.737   0.799
 2036TIP3   OH2 6113   3.885   5.919   4.313
 2036TIP3    H1 6114   3.846   5.907   4.400
 2036TIP3    H2 6115   3.826   5.980   4.269
 2037TIP3   OH2 6116   2.330   1.842   3.230
 2037TIP3    H1 6117   2.397   1.777   3.253
 2037TIP3    H2 6118   2.376   1.908   3.179
 2038TIP3   OH2 6119   0.206   3.780   4.580
 2038TIP3    H1 6120   0.208   3.830   4.662
 2038TIP3    H2 6121   0.274   3.820   4.526
 2039TIP3   OH2 6122   1.055   3.031   2.294
 2039TIP3    H1 6123   1.033   2.958   2.237
 2039TIP3    H2 6124   1.093   3.097   2.236
 2040TIP3   OH2 6125   0.250   2.542   0.940
 2040TIP3    H1 6126   0.163   2.520   0.973
 2040TIP3    H2 6127   0.262   2.635   0.961
 2041TIP3   OH2 6128   4.119   5.840   2.022
 2041TIP3    H1 6129   4.139   5.913   2.081
 2041TIP3    H2 6130   4.120   5.762   2.078
 2042TIP3   OH2 6131   0.272   0.956   0.660
 2042TIP3    H1 6132   0.343   0.899   0.631
 2042TIP3    H2 6133   0.204   0.946   0.594
 2043TIP3   OH2 6134   2.987   5.192   0.644
 2043TIP3    H1 6135   2.928   5.132   0.689
 2043TIP3    H2 6136   2.966   5.278   0.681
 2044TIP3   OH2 6137   3.734   4.366   0.415
 2044TIP3    H1 6138   3.658   4.417   0.386
 2044TIP3    H2 6139   3.767   4.324   0.335
 2045TIP3   OH2 6140   5.045   0.519   1.308
 2045TIP3    H1 6141   4.971   0.485   1.359
 2045TIP3    H2 6142   5.019   0.505   1.217
 2046TIP3   OH2 6143   4.922   2.027   4.609
 2046TIP3    H1 6144   4.859   1.955   4.606
 2046TIP3    H2 6145   4.871   2.105   4.586
 2047TIP3   OH2 6146   2.981   1.196   2.627
 2047TIP3    H1 6147   2.942   1.129   2.683
 2047TIP3    H2 6148   2.979   1.157   2.539
 2048TIP3   OH2 6149   3.851   4.583   4.024
 2048TIP3    H1 6150   3.781   4.623   3.972
 2048TIP3    H2 6151   3.813   4.503   4.060
 2049TIP3   OH2 6152   2.099   1.204   0.361
 2049TIP3    H1 6153   2.057   1.290   0.361
 2049TIP3    H2 6154   2.166   1.210   0.293
 2050TIP3   OH2 6155   0.470   5.552   2.377
 2050TIP3    H1 6156   0.415   5.483   2.341
 2050TIP3    H2 6157   0.522   5.583   2.303
 2051TIP3   OH2 6158   5.000   4.181   4.132
 2051TIP3    H1 6159   5.073   4.151   4.186
 2051TIP3    H2 6160   4.932   4.205   4.194
 2052TIP3   OH2 6161   2.483   2.749   2.917
 2052TIP3    H1 6162   2.472   2.838   2.952
 2052TIP3    H2 6163   2.438   2.694   2.981
 2053TIP3   OH2 6164   0.285   0.049   2.251
 2053TIP3    H1 6165   0.218   0.105   2.210
 2053TIP3    H2 6166   0.368   0.083   2.218
 2054TIP3   OH2 6167   4.200   2.121   1.754
 2054TIP3    H1 6168   4.282   2.170   1.745
 2054TIP3    H2 6169   4.153   2.166   1.824
 2055TIP3   OH2 6170   5.692   5.832   2.157
 2055TIP3    H1 6171   5.766   5.857   2.101
 2055TIP3    H2 6172   5.689   5.736   2.150
 2056TIP3   OH2 6173   3.467   3.564   1.548
 2056TIP3    H1 6174   3.407   3.633   1.520
 2056TIP3    H2 6175   3.468   3.570   1.644
 2057TIP3   OH2 6176   3.958   2.818   0.845
 2057TIP3    H1 6177   3.890   2.847   0.784
 2057TIP3    H2 6178   3.993   2.738   0.805
 2058TIP3   OH2 6179   5.424   5.506   1.748
 2058TIP3    H1 6180   5.392   5.524   1.659
 2058TIP3    H2 6181   5.430   5.592   1.789
 2059TIP3   OH2 6182   4.602   1.451   4.719
 2059TIP3    H1 6183   4.529   1.498   4.680
 2059TIP3    H2 6184   4.667   1.445   4.648
 2060TIP3   OH2 6185   2.131   4.150   4.336
 2060TIP3    H1 6186   2.052   4.151   4.390
 2060TIP3    H2 6187   2.115   4.082   4.271
 2061TIP3   OH2 6188   5.529   2.083   3.412
 2061TIP3    H1 6189   5.541   2.019   3.342
 2061TIP3    H2 6190   5.448   2.129   3.388
 2062TIP3   OH2 6191   3.025   5.426   2.251
 2062TIP3    H1 6192   3.109   5.401   2.289
 2062TIP3    H2 6193   3.012   5.364   2.180
 2063TIP3   OH2 6194   4.499   4.287   2.541
 2063TIP3    H1 6195   4.445   4.295   2.619
 2063TIP3    H2 6196   4.536   4.199   2.545
 2064TIP3   OH2 6197   3.047   4.241   0.758
 2064TIP3    H1 6198   2.996   4.301   0.813
 2064TIP3    H2 6199   3.098   4.189   0.820
 2065TIP3   OH2 6200   4.522   0.921   1.068
 2065TIP3    H1 6201   4.575   0.846   1.043
 2065TIP3    H2 6202   4.480   0.895   1.150
 2066TIP3   OH2 6203  -0.055   3.561   4.741
 2066TIP3    H1 6204  -0.051   3.481   4.690
 2066TIP3    H2 6205  -0.017   3.538   4.826
 2067TIP3   OH2 6206   0.720   5.909   2.349
 2067TIP3    H1 6207   0.702   5.994   2.389
 2067TIP3    H2 6208   0.704   5.846   2.419
 2068TIP3   OH2 6209   4.943   2.924   1.401
 2068TIP3    H1 6210   4.901   2.933   1.315
 2068TIP3    H2 6211   4.927   3.008   1.444
 2069TIP3   OH2 6212   5.908   2.490   5.128
 2069TIP3    H1 6213   5.980   2.490   5.190
 2069TIP3    H2 6214   5.839   2.439   5.171
 2070TIP3   OH2 6215   3.007   4.723   0.921
 2070TIP3    H1 6216   3.090   4.746   0.962
 2070TIP3    H2 6217   3.013   4.628   0.907
 2071TIP3   OH2 6218   0.173   2.846   1.707
 2071TIP3    H1 6219   0.106   2.779   1.698
 2071TIP3    H2 6220   0.132   2.926   1.673
 2072TIP3   OH2 6221   1.348   4.840   3.931
 2072TIP3    H1 6222   1.296   4.773   3.976
 2072TIP3    H2 6223   1.289   4.874   3.863
 2073TIP3   OH2 6224   5.229   1.296   1.836
 2073TIP3    H1 6225   5.243   1.377   1.885
 2073TIP3    H2 6226   5.309   1.284   1.785
 2074TIP3   OH2 6227   1.481   2.906   0.482
 2074TIP3    H1 6228   1.459   2.826   0.529
 2074TIP3    H2 6229   1.399   2.933   0.440
 2075TIP3   OH2 6230   0.315   5.401   2.685
 2075TIP3    H1 6231   0.344   5.347   2.758
 2075TIP3    H2 6232   0.388   5.461   2.669
 2076TIP3   OH2 6233   1.322   2.499   1.252
 2076TIP3    H1 6234   1.288   2.566   1.194
 2076TIP3    H2 6235   1.411   2.527   1.272
 2077TIP3   OH2 6236   3.704   0.974   1.045
 2077TIP3    H1 6237   3.714   1.025   1.125
 2077TIP3    H2 6238   3.615   0.994   1.014
 2078TIP3   OH2 6239   2.721   1.146   3.358
 2078TIP3    H1 6240   2.804   1.155   3.405
 2078TIP3    H2 6241   2.746   1.136   3.267
 2079TIP3   OH2 6242   5.560   4.708   1.912
 2079TIP3    H1 6243   5.494   4.704   1.981
 2079TIP3    H2 6244   5.590   4.618   1.902
 2080TIP3   OH2 6245   3.611   2.755   1.717
 2080TIP3    H1 6246   3.673   2.808   1.767
 2080TIP3    H2 6247   3.613   2.793   1.629
 2081TIP3   OH2 6248   5.253   5.308   0.358
 2081TIP3    H1 6249   5.272   5.397   0.328
 2081TIP3    H2 6250   5.293   5.252   0.292
 2082TIP3   OH2 6251   4.184   3.302   3.159
 2082TIP3    H1 6252   4.239   3.225   3.146
 2082TIP3    H2 6253   4.239   3.364   3.206
 2083TIP3   OH2 6254   3.091   0.414   3.240
 2083TIP3    H1 6255   3.120   0.446   3.325
 2083TIP3    H2 6256   3.148   0.340   3.222
 2084TIP3   OH2 6257   3.856   5.400   0.651
 2084TIP3    H1 6258   3.926   5.411   0.586
 2084TIP3    H2 6259   3.811   5.320   0.623
 2085TIP3   OH2 6260   0.174   1.144   1.217
 2085TIP3    H1 6261   0.199   1.052   1.203
 2085TIP3    H2 6262   0.106   1.160   1.151
 2086TIP3   OH2 6263   4.322   2.703   0.112
 2086TIP3    H1 6264   4.286   2.716   0.200
 2086TIP3    H2 6265   4.327   2.608   0.102
 2087TIP3   OH2 6266   1.618   1.384   5.133
 2087TIP3    H1 6267   1.682   1.372   5.062
 2087TIP3    H2 6268   1.658   1.450   5.189
 2088TIP3   OH2 6269   1.126   5.682   2.637
 2088TIP3    H1 6270   1.098   5.729   2.559
 2088TIP3    H2 6271   1.221   5.694   2.640
 2089TIP3   OH2 6272   4.530   2.883   0.749
 2089TIP3    H1 6273   4.442   2.871   0.714
 2089TIP3    H2 6274   4.569   2.951   0.694
 2090TIP3   OH2 6275   1.397   3.473   1.183
 2090TIP3    H1 6276   1.356   3.446   1.100
 2090TIP3    H2 6277   1.367   3.408   1.246
 2091TIP3   OH2 6278   1.058   4.112   4.533
 2091TIP3    H1 6279   0.984   4.169   4.512
 2091TIP3    H2 6280   1.109   4.108   4.451
 2092TIP3   OH2 6281   1.178   5.009   2.901
 2092TIP3    H1 6282   1.092   5.030   2.866
 2092TIP3    H2 6283   1.229   4.982   2.824
 2093TIP3   OH2 6284   3.187   0.802   0.919
 2093TIP3    H1 6285   3.168   0.781   0.828
 2093TIP3    H2 6286   3.174   0.720   0.966
 2094TIP3   OH2 6287   1.740   4.403   3.045
 2094TIP3    H1 6288   1.835   4.412   3.036
 2094TIP3    H2 6289   1.717   4.460   3.118
 2095TIP3   OH2 6290   5.737   0.502   4.162
 2095TIP3    H1 6291   5.680   0.506   4.086
 2095TIP3    H2 6292   5.707   0.573   4.218
 2096TIP3   OH2 6293   4.070   2.237   4.327
 2096TIP3    H1 6294   4.083   2.145   4.305
 2096TIP3    H2 6295   4.157   2.268   4.351
 2097TIP3   OH2 6296   2.224   3.114   0.367
 2097TIP3    H1 6297   2.280   3.097   0.442
 2097TIP3    H2 6298   2.138   3.081   0.392
 2098TIP3   OH2 6299   3.462   4.654   4.116
 2098TIP3    H1 6300   3.398   4.706   4.165
 2098TIP3    H2 6301   3.414   4.575   4.091
 2099TIP3   OH2 6302   3.720   2.484   3.715
 2099TIP3    H1 6303   3.715   2.575   3.746
 2099TIP3    H2 6304   3.760   2.490   3.629
 2100TIP3   OH2 6305   5.853   5.562   2.109
 2100TIP3    H1 6306   5.899   5.611   2.041
 2100TIP3    H2 6307   5.911   5.566   2.185
 2101TIP3   OH2 6308   0.194   4.866   3.972
 2101TIP3    H1 6309   0.105   4.902   3.966
 2101TIP3    H2 6310   0.209   4.855   4.066
 2102TIP3   OH2 6311   1.720   1.142   2.300
 2102TIP3    H1 6312   1.739   1.159   2.207
 2102TIP3    H2 6313   1.790   1.084   2.329
 2103TIP3   OH2 6314   2.820   2.320   4.737
 2103TIP3    H1 6315   2.785   2.289   4.820
 2103TIP3    H2 6316   2.872   2.247   4.703
 2104TIP3   OH2 6317   3.890   0.731   3.296
 2104TIP3    H1 6318   3.897   0.636   3.287
 2104TIP3    H2 6319   3.922   0.749   3.385
 2105TIP3   OH2 6320   5.492   4.593   0.974
 2105TIP3    H1 6321   5.422   4.630   1.028
 2105TIP3    H2 6322   5.526   4.520   1.026
 2106TIP3   OH2 6323   3.303   3.135   1.902
 2106TIP3    H1 6324   3.227   3.085   1.873
 2106TIP3    H2 6325   3.351   3.155   1.822
 2107TIP3   OH2 6326   0.481   5.202   1.210
 2107TIP3    H1 6327   0.464   5.111   1.187
 2107TIP3    H2 6328   0.398   5.235   1.243
 2108TIP3   OH2 6329   4.798   2.040   3.909
 2108TIP3    H1 6330   4.872   2.075   3.860
 2108TIP3    H2 6331   4.724   2.044   3.848
 2109TIP3   OH2 6332   2.540   0.374   2.692
 2109TIP3    H1 6333   2.458   0.360   2.738
 2109TIP3    H2 6334   2.525   0.338   2.605
 2110TIP3   OH2 6335   0.440   2.065   0.432
 2110TIP3    H1 6336   0.472   2.073   0.342
 2110TIP3    H2 6337   0.517   2.039   0.483
 2111TIP3   OH2 6338   4.707   4.144   1.208
 2111TIP3    H1 6339   4.725   4.206   1.278
 2111TIP3    H2 6340   4.612   4.148   1.196
 2112TIP3   OH2 6341   5.218   2.080   1.952
 2112TIP3    H1 6342   5.259   2.006   1.997
 2112TIP3    H2 6343   5.169   2.125   2.021
 2113TIP3   OH2 6344   2.798   5.039   4.668
 2113TIP3    H1 6345   2.719   5.078   4.631
 2113TIP3    H2 6346   2.841   5.111   4.714
 2114TIP3   OH2 6347   2.569   0.078   3.110
 2114TIP3    H1 6348   2.474   0.089   3.112
 2114TIP3    H2 6349   2.595   0.076   3.202
 2115TIP3   OH2 6350   4.778   2.614   2.081
 2115TIP3    H1 6351   4.853   2.555   2.076
 2115TIP3    H2 6352   4.704   2.562   2.052
 2116TIP3   OH2 6353   1.451   5.023   3.751
 2116TIP3    H1 6354   1.502   4.947   3.780
 2116TIP3    H2 6355   1.473   5.092   3.813
 2117TIP3   OH2 6356   1.452   1.166   4.864
 2117TIP3    H1 6357   1.433   1.078   4.898
 2117TIP3    H2 6358   1.412   1.225   4.928
 2118TIP3   OH2 6359   1.126   0.529   0.098
 2118TIP3    H1 6360   1.159   0.439   0.089
 2118TIP3    H2 6361   1.138   0.568   0.011
 2119TIP3   OH2 6362   5.540   0.009   3.144
 2119TIP3    H1 6363   5.550   0.052   3.229
 2119TIP3    H2 6364   5.625   0.020   3.101
 2120TIP3   OH2 6365   1.254   2.924   0.281
 2120TIP3    H1 6366   1.160   2.905   0.273
 2120TIP3    H2 6367   1.291   2.895   0.197
 2121TIP3   OH2 6368   3.109   1.902   4.680
 2121TIP3    H1 6369   3.014   1.902   4.690
 2121TIP3    H2 6370   3.142   1.871   4.765
 2122TIP3   OH2 6371   1.411   0.836   2.002
 2122TIP3    H1 6372   1.479   0.870   2.060
 2122TIP3    H2 6373   1.336   0.821   2.060
 2123TIP3   OH2 6374   4.092   3.065   1.936
 2123TIP3    H1 6375   4.049   3.028   2.012
 2123TIP3    H2 6376   4.104   3.158   1.958
 2124TIP3   OH2 6377   4.051   3.318   5.006
 2124TIP3    H1 6378   3.994   3.312   5.083
 2124TIP3    H2 6379   4.075   3.227   4.987
 2125TIP3   OH2 6380   4.188   2.467   2.973
 2125TIP3    H1 6381   4.275   2.457   3.013
 2125TIP3    H2 6382   4.134   2.401   3.016
 2126TIP3   OH2 6383   1.811   5.390   4.423
 2126TIP3    H1 6384   1.812   5.295   4.430
 2126TIP3    H2 6385   1.892   5.418   4.466
 2127TIP3   OH2 6386   6.139   5.888   4.016
 2127TIP3    H1 6387   6.097   5.922   3.937
 2127TIP3    H2 6388   6.075   5.904   4.086
 2128TIP3   OH2 6389   1.210   5.320   2.586
 2128TIP3    H1 6390   1.254   5.310   2.671
 2128TIP3    H2 6391   1.241   5.247   2.533
 2129TIP3   OH2 6392   5.744   1.978   1.014
 2129TIP3    H1 6393   5.710   2.064   1.040
 2129TIP3    H2 6394   5.758   1.985   0.919
 2130TIP3   OH2 6395   1.074   1.500   3.497
 2130TIP3    H1 6396   1.121   1.571   3.541
 2130TIP3    H2 6397   1.127   1.422   3.514
 2131TIP3   OH2 6398   0.217   2.059   1.055
 2131TIP3    H1 6399   0.260   2.009   1.125
 2131TIP3    H2 6400   0.283   2.123   1.028
 2132TIP3   OH2 6401   1.920   2.467   3.323
 2132TIP3    H1 6402   1.991   2.470   3.259
 2132TIP3    H2 6403   1.956   2.512   3.400
 2133TIP3   OH2 6404   4.968   1.953   2.767
 2133TIP3    H1 6405   5.056   1.965   2.803
 2133TIP3    H2 6406   4.938   2.041   2.747
 2134TIP3   OH2 6407   5.354   4.313   4.993
 2134TIP3    H1 6408   5.375   4.388   4.937
 2134TIP3    H2 6409   5.266   4.331   5.025
 2135TIP3   OH2 6410   1.826   2.606   1.434
 2135TIP3    H1 6411   1.733   2.596   1.411
 2135TIP3    H2 6412   1.824   2.643   1.522
 2136TIP3   OH2 6413   5.114   1.098   4.058
 2136TIP3    H1 6414   5.095   1.035   4.127
 2136TIP3    H2 6415   5.196   1.067   4.019
 2137TIP3   OH2 6416   0.944   4.836   3.060
 2137TIP3    H1 6417   0.969   4.908   3.118
 2137TIP3    H2 6418   0.891   4.878   2.992
 2138TIP3   OH2 6419   6.355   4.055   4.383
 2138TIP3    H1 6420   6.299   4.049   4.461
 2138TIP3    H2 6421   6.293   4.056   4.309
 2139TIP3   OH2 6422   0.631   2.390   0.264
 2139TIP3    H1 6423   0.719   2.393   0.301
 2139TIP3    H2 6424   0.619   2.299   0.237
 2140TIP3   OH2 6425   4.609   1.871   2.459
 2140TIP3    H1 6426   4.621   1.810   2.386
 2140TIP3    H2 6427   4.599   1.815   2.536
 2141TIP3   OH2 6428   4.581   0.687   4.656
 2141TIP3    H1 6429   4.569   0.729   4.741
 2141TIP3    H2 6430   4.641   0.745   4.609
 2142TIP3   OH2 6431   4.726   1.422   4.014
 2142TIP3    H1 6432   4.695   1.457   3.931
 2142TIP3    H2 6433   4.816   1.394   3.996
 2143TIP3   OH2 6434   0.950   2.350   4.158
 2143TIP3    H1 6435   0.855   2.348   4.169
 2143TIP3    H2 6436   0.962   2.360   4.063
 2144TIP3   OH2 6437   3.926   0.073   1.261
 2144TIP3    H1 6438   4.017   0.056   1.288
 2144TIP3    H2 6439   3.879  -0.008   1.280
 2145TIP3   OH2 6440   0.249   5.508   3.939
 2145TIP3    H1 6441   0.256   5.601   3.918
 2145TIP3    H2 6442   0.308   5.496   4.014
 2146TIP3   OH2 6443   0.962   2.270   5.116
 2146TIP3    H1 6444   0.903   2.237   5.185
 2146TIP3    H2 6445   0.950   2.208   5.044
 2147TIP3   OH2 6446   2.258   3.257   1.549
 2147TIP3    H1 6447   2.222   3.213   1.625
 2147TIP3    H2 6448   2.326   3.198   1.516
 2148TIP3   OH2 6449   2.163   2.502   3.145
 2148TIP3    H1 6450   2.157   2.421   3.095
 2148TIP3    H2 6451   2.248   2.497   3.190
 2149TIP3   OH2 6452   0.876   5.715   2.124
 2149TIP3    H1 6453   0.829   5.634   2.148
 2149TIP3    H2 6454   0.808   5.773   2.090
 2150TIP3   OH2 6455   2.802   5.305   4.738
 2150TIP3    H1 6456   2.783   5.314   4.644
 2150TIP3    H2 6457   2.721   5.330   4.781
 2151TIP3   OH2 6458   4.699   1.518   3.537
 2151TIP3    H1 6459   4.647   1.564   3.471
 2151TIP3    H2 6460   4.784   1.505   3.495
 2152TIP3   OH2 6461   4.815   5.739   2.306
 2152TIP3    H1 6462   4.889   5.781   2.261
 2152TIP3    H2 6463   4.766   5.811   2.344
 2153TIP3   OH2 6464   4.882   0.020   2.891
 2153TIP3    H1 6465   4.975   0.021   2.913
 2153TIP3    H2 6466   4.837   0.019   2.975
 2154TIP3   OH2 6467   4.965   0.511   2.701
 2154TIP3    H1 6468   4.956   0.425   2.659
 2154TIP3    H2 6469   5.043   0.503   2.755
 2155TIP3   OH2 6470   3.044   4.752   2.716
 2155TIP3    H1 6471   2.997   4.682   2.762
 2155TIP3    H2 6472   3.005   4.753   2.628
 2156TIP3   OH2 6473   5.477   0.683   0.508
 2156TIP3    H1 6474   5.508   0.731   0.432
 2156TIP3    H2 6475   5.484   0.745   0.581
 2157TIP3   OH2 6476   6.214   4.221   3.322
 2157TIP3    H1 6477   6.162   4.256   3.394
 2157TIP3    H2 6478   6.299   4.263   3.330
 2158TIP3   OH2 6479   1.234   4.895   2.591
 2158TIP3    H1 6480   1.218   4.969   2.532
 2158TIP3    H2 6481   1.151   4.882   2.636
 2159TIP3   OH2 6482   1.918   3.320   2.987
 2159TIP3    H1 6483   1.855   3.382   3.024
 2159TIP3    H2 6484   1.869   3.239   2.978
 2160TIP3   OH2 6485   6.095   1.425   2.176
 2160TIP3    H1 6486   6.092   1.521   2.185
 2160TIP3    H2 6487   6.066   1.409   2.086
 2161TIP3   OH2 6488  -0.042   4.991   2.193
 2161TIP3    H1 6489  -0.040   4.958   2.283
 2161TIP3    H2 6490   0.048   4.981   2.162
 2162TIP3   OH2 6491   2.413   4.828   1.977
 2162TIP3    H1 6492   2.335   4.878   1.955
 2162TIP3    H2 6493   2.392   4.738   1.955
 2163TIP3   OH2 6494   3.635   4.188   2.075
 2163TIP3    H1 6495   3.676   4.222   1.995
 2163TIP3    H2 6496   3.609   4.099   2.052
 2164TIP3   OH2 6497   3.947   3.410   1.666
 2164TIP3    H1 6498   3.998   3.329   1.660
 2164TIP3    H2 6499   3.877   3.399   1.601
 2165TIP3   OH2 6500   0.561   1.411   0.428
 2165TIP3    H1 6501   0.485   1.369   0.467
 2165TIP3    H2 6502   0.625   1.340   0.417
 2166TIP3   OH2 6503   0.748   5.005   3.501
 2166TIP3    H1 6504   0.768   4.952   3.424
 2166TIP3    H2 6505   0.772   5.094   3.476
 2167TIP3   OH2 6506   6.058   4.470   4.244
 2167TIP3    H1 6507   6.152   4.460   4.261
 2167TIP3    H2 6508   6.038   4.402   4.180
 2168TIP3   OH2 6509   2.986   0.055   4.990
 2168TIP3    H1 6510   2.902   0.053   4.943
 2168TIP3    H2 6511   3.045   0.101   4.929
 2169TIP3   OH2 6512   4.094   4.326   3.208
 2169TIP3    H1 6513   4.167   4.319   3.270
 2169TIP3    H2 6514   4.016   4.312   3.261
 2170TIP3   OH2 6515   2.890   1.657   3.609
 2170TIP3    H1 6516   2.864   1.725   3.671
 2170TIP3    H2 6517   2.810   1.640   3.558
 2171TIP3   OH2 6518   0.871   3.670   2.727
 2171TIP3    H1 6519   0.775   3.667   2.724
 2171TIP3    H2 6520   0.895   3.742   2.669
 2172TIP3   OH2 6521   6.089   0.475   0.358
 2172TIP3    H1 6522   6.152   0.533   0.316
 2172TIP3    H2 6523   6.133   0.390   0.362
 2173TIP3   OH2 6524   1.674   1.887   4.673
 2173TIP3    H1 6525   1.674   1.940   4.753
 2173TIP3    H2 6526   1.757   1.839   4.677
 2174TIP3   OH2 6527   3.792   4.425   4.638
 2174TIP3    H1 6528   3.807   4.435   4.544
 2174TIP3    H2 6529   3.731   4.351   4.645
 2175TIP3   OH2 6530   3.062   1.663   3.999
 2175TIP3    H1 6531   3.048   1.739   4.055
 2175TIP3    H2 6532   3.150   1.633   4.021
 2176TIP3   OH2 6533   3.919   0.487   1.082
 2176TIP3    H1 6534   3.825   0.488   1.066
 2176TIP3    H2 6535   3.957   0.530   1.005
 2177TIP3   OH2 6536   4.923   1.711   4.213
 2177TIP3    H1 6537   4.987   1.772   4.175
 2177TIP3    H2 6538   4.839   1.756   4.203
 2178TIP3   OH2 6539   4.593   4.023   2.547
 2178TIP3    H1 6540   4.652   3.971   2.601
 2178TIP3    H2 6541   4.638   4.033   2.463
 2179TIP3   OH2 6542   0.059   3.070   4.582
 2179TIP3    H1 6543   0.121   3.077   4.510
 2179TIP3    H2 6544   0.111   3.087   4.661
 2180TIP3   OH2 6545   3.438   2.663   0.391
 2180TIP3    H1 6546   3.525   2.667   0.430
 2180TIP3    H2 6547   3.451   2.689   0.300
 2181TIP3   OH2 6548   4.011   2.780   1.290
 2181TIP3    H1 6549   4.056   2.862   1.267
 2181TIP3    H2 6550   3.927   2.809   1.327
 2182TIP3   OH2 6551   5.885   1.706   1.504
 2182TIP3    H1 6552   5.815   1.702   1.440
 2182TIP3    H2 6553   5.949   1.642   1.473
 2183TIP3   OH2 6554   6.297   1.345   2.363
 2183TIP3    H1 6555   6.213   1.347   2.316
 2183TIP3    H2 6556   6.347   1.277   2.319
 2184TIP3   OH2 6557   0.839   0.836   3.869
 2184TIP3    H1 6558   0.872   0.906   3.926
 2184TIP3    H2 6559   0.811   0.881   3.790
 2185TIP3   OH2 6560   3.738   1.074   4.245
 2185TIP3    H1 6561   3.643   1.087   4.240
 2185TIP3    H2 6562   3.754   0.992   4.197
 2186TIP3   OH2 6563   2.644   1.438   0.584
 2186TIP3    H1 6564   2.592   1.519   0.586
 2186TIP3    H2 6565   2.597   1.378   0.641
 2187TIP3   OH2 6566   0.022   5.886   1.131
 2187TIP3    H1 6567   0.098   5.944   1.143
 2187TIP3    H2 6568  -0.015   5.912   1.046
 2188TIP3   OH2 6569   1.681   5.237   2.159
 2188TIP3    H1 6570   1.704   5.152   2.121
 2188TIP3    H2 6571   1.744   5.250   2.229
 2189TIP3   OH2 6572   3.240   0.093   1.318
 2189TIP3    H1 6573   3.285   0.110   1.235
 2189TIP3    H2 6574   3.147   0.096   1.296
 2190TIP3   OH2 6575   5.779   3.610   0.716
 2190TIP3    H1 6576   5.745   3.557   0.643
 2190TIP3    H2 6577   5.727   3.582   0.792
 2191TIP3   OH2 6578   0.708   4.716   4.989
 2191TIP3    H1 6579   0.640   4.707   5.055
 2191TIP3    H2 6580   0.679   4.789   4.935
 2192TIP3   OH2 6581   5.180   2.278   2.724
 2192TIP3    H1 6582   5.213   2.354   2.772
 2192TIP3    H2 6583   5.185   2.206   2.787
 2193TIP3   OH2 6584   0.503   0.310   4.807
 2193TIP3    H1 6585   0.441   0.382   4.814
 2193TIP3    H2 6586   0.587   0.352   4.790
 2194TIP3   OH2 6587   5.248   4.388   4.141
 2194TIP3    H1 6588   5.169   4.410   4.190
 2194TIP3    H2 6589   5.319   4.433   4.188
 2195TIP3   OH2 6590   3.531   5.809   0.512
 2195TIP3    H1 6591   3.615   5.806   0.558
 2195TIP3    H2 6592   3.497   5.720   0.518
 2196TIP3   OH2 6593   2.158   1.920   2.188
 2196TIP3    H1 6594   2.079   1.872   2.162
 2196TIP3    H2 6595   2.164   1.991   2.125
 2197TIP3   OH2 6596   1.534   0.945   0.936
 2197TIP3    H1 6597   1.627   0.933   0.953
 2197TIP3    H2 6598   1.491   0.879   0.990
 2198TIP3   OH2 6599   4.540   1.242   1.961
 2198TIP3    H1 6600   4.632   1.216   1.971
 2198TIP3    H2 6601   4.517   1.216   1.872
 2199TIP3   OH2 6602   1.532   4.594   0.704
 2199TIP3    H1 6603   1.520   4.687   0.725
 2199TIP3    H2 6604   1.617   4.590   0.659
 2200TIP3   OH2 6605   4.354   3.125   5.027
 2200TIP3    H1 6606   4.266   3.105   4.995
 2200TIP3    H2 6607   4.412   3.076   4.969
 2201TIP3   OH2 6608   1.854   5.647   4.811
 2201TIP3    H1 6609   1.926   5.699   4.776
 2201TIP3    H2 6610   1.781   5.664   4.751
 2202TIP3   OH2 6611   0.548   3.199   1.402
 2202TIP3    H1 6612   0.588   3.224   1.318
 2202TIP3    H2 6613   0.547   3.279   1.453
 2203TIP3   OH2 6614   1.688   5.183   4.600
 2203TIP3    H1 6615   1.727   5.226   4.676
 2203TIP3    H2 6616   1.610   5.140   4.635
 2204TIP3   OH2 6617   5.060   5.054   0.676
 2204TIP3    H1 6618   5.022   5.049   0.764
 2204TIP3    H2 6619   5.013   4.987   0.626
 2205TIP3   OH2 6620   5.956   1.202   0.334
 2205TIP3    H1 6621   5.967   1.109   0.352
 2205TIP3    H2 6622   5.875   1.208   0.284
 2206TIP3   OH2 6623   4.763   4.479   3.170
 2206TIP3    H1 6624   4.721   4.393   3.174
 2206TIP3    H2 6625   4.717   4.524   3.098
 2207TIP3   OH2 6626   0.991   5.688   3.540
 2207TIP3    H1 6627   1.080   5.680   3.575
 2207TIP3    H2 6628   0.977   5.606   3.491
 2208TIP3   OH2 6629   4.467   1.434   1.499
 2208TIP3    H1 6630   4.515   1.502   1.454
 2208TIP3    H2 6631   4.435   1.376   1.430
 2209TIP3   OH2 6632   4.374   2.401   4.924
 2209TIP3    H1 6633   4.405   2.343   4.994
 2209TIP3    H2 6634   4.390   2.489   4.957
 2210TIP3   OH2 6635   5.702   3.525   1.918
 2210TIP3    H1 6636   5.655   3.535   1.835
 2210TIP3    H2 6637   5.777   3.469   1.897
 2211TIP3   OH2 6638   3.332   2.291   2.485
 2211TIP3    H1 6639   3.412   2.344   2.480
 2211TIP3    H2 6640   3.266   2.350   2.522
 2212TIP3   OH2 6641   4.380   1.586   4.569
 2212TIP3    H1 6642   4.341   1.626   4.647
 2212TIP3    H2 6643   4.330   1.622   4.496
 2213TIP3   OH2 6644   4.050   4.204   4.958
 2213TIP3    H1 6645   4.132   4.189   4.910
 2213TIP3    H2 6646   3.982   4.167   4.902
 2214TIP3   OH2 6647   3.371   3.061   4.101
 2214TIP3    H1 6648   3.305   3.013   4.152
 2214TIP3    H2 6649   3.432   3.094   4.167
 2215TIP3   OH2 6650   2.549   5.870   1.662
 2215TIP3    H1 6651   2.547   5.779   1.690
 2215TIP3    H2 6652   2.642   5.894   1.666
 2216TIP3   OH2 6653   1.285   1.182   1.827
 2216TIP3    H1 6654   1.252   1.095   1.849
 2216TIP3    H2 6655   1.208   1.238   1.824
 2217TIP3   OH2 6656   5.563   2.463   3.848
 2217TIP3    H1 6657   5.604   2.404   3.785
 2217TIP3    H2 6658   5.497   2.511   3.798
 2218TIP3   OH2 6659   4.015   5.173   3.881
 2218TIP3    H1 6660   4.016   5.117   3.804
 2218TIP3    H2 6661   4.066   5.250   3.856
 2219TIP3   OH2 6662   0.467   4.924   3.403
 2219TIP3    H1 6663   0.512   4.963   3.478
 2219TIP3    H2 6664   0.422   4.997   3.362
 2220TIP3   OH2 6665   3.650   3.764   4.455
 2220TIP3    H1 6666   3.638   3.837   4.517
 2220TIP3    H2 6667   3.591   3.696   4.486
 2221TIP3   OH2 6668   6.126   5.827   1.811
 2221TIP3    H1 6669   6.215   5.794   1.814
 2221TIP3    H2 6670   6.082   5.772   1.745
 2222TIP3   OH2 6671   0.436   5.449   5.085
 2222TIP3    H1 6672   0.378   5.442   5.161
 2222TIP3    H2 6673   0.383   5.489   5.017
 2223TIP3   OH2 6674   3.821   5.137   2.279
 2223TIP3    H1 6675   3.853   5.207   2.221
 2223TIP3    H2 6676   3.900   5.102   2.319
 2224TIP3   OH2 6677   3.824   0.227   0.284
 2224TIP3    H1 6678   3.827   0.268   0.198
 2224TIP3    H2 6679   3.754   0.273   0.331
 2225TIP3   OH2 6680   4.700   1.214   3.351
 2225TIP3    H1 6681   4.769   1.177   3.406
 2225TIP3    H2 6682   4.672   1.140   3.297
 2226TIP3   OH2 6683   4.160   2.242   2.023
 2226TIP3    H1 6684   4.215   2.226   2.100
 2226TIP3    H2 6685   4.096   2.308   2.052
 2227TIP3   OH2 6686   2.493   4.981   1.296
 2227TIP3    H1 6687   2.439   4.920   1.245
 2227TIP3    H2 6688   2.435   5.010   1.367
 2228TIP3   OH2 6689   4.670   1.383   2.344
 2228TIP3    H1 6690   4.579   1.396   2.320
 2228TIP3    H2 6691   4.720   1.411   2.267
 2229TIP3   OH2 6692   1.670   4.711   1.294
 2229TIP3    H1 6693   1.599   4.752   1.245
 2229TIP3    H2 6694   1.748   4.761   1.269
 2230TIP3   OH2 6695   1.029   3.998   1.238
 2230TIP3    H1 6696   1.036   3.995   1.143
 2230TIP3    H2 6697   1.062   3.913   1.267
 2231TIP3   OH2 6698   5.986   0.859   4.313
 2231TIP3    H1 6699   6.071   0.871   4.357
 2231TIP3    H2 6700   5.995   0.776   4.267
 2232TIP3   OH2 6701   2.638   2.482   2.157
 2232TIP3    H1 6702   2.561   2.438   2.122
 2232TIP3    H2 6703   2.698   2.488   2.082
 2233TIP3   OH2 6704   0.827   4.118   3.321
 2233TIP3    H1 6705   0.915   4.138   3.291
 2233TIP3    H2 6706   0.770   4.148   3.250
 2234TIP3   OH2 6707   0.217   3.479   2.040
 2234TIP3    H1 6708   0.279   3.443   2.103
 2234TIP3    H2 6709   0.226   3.574   2.049
 2235TIP3   OH2 6710   3.358   1.356   1.118
 2235TIP3    H1 6711   3.270   1.388   1.100
 2235TIP3    H2 6712   3.352   1.317   1.206
 2236TIP3   OH2 6713   0.101   3.116   1.632
 2236TIP3    H1 6714   0.137   3.203   1.652
 2236TIP3    H2 6715   0.007   3.124   1.647
 2237TIP3   OH2 6716   4.055   4.213   1.932
 2237TIP3    H1 6717   4.112   4.169   1.869
 2237TIP3    H2 6718   4.039   4.148   2.000
 2238TIP3   OH2 6719   0.913   4.085   4.996
 2238TIP3    H1 6720   0.909   4.037   4.913
 2238TIP3    H2 6721   0.956   4.167   4.974
 2239TIP3   OH2 6722   4.611   3.801   5.003
 2239TIP3    H1 6723   4.522   3.817   4.970
 2239TIP3    H2 6724   4.654   3.752   4.932
 2240TIP3   OH2 6725   3.059   2.997   3.986
 2240TIP3    H1 6726   3.081   3.056   3.914
 2240TIP3    H2 6727   2.963   3.001   3.991
 2241TIP3   OH2 6728   2.128   4.959   0.464
 2241TIP3    H1 6729   2.072   5.021   0.510
 2241TIP3    H2 6730   2.163   5.009   0.389
 2242TIP3   OH2 6731   2.017   0.348   5.021
 2242TIP3    H1 6732   2.014   0.300   4.939
 2242TIP3    H2 6733   2.087   0.305   5.071
 2243TIP3   OH2 6734   2.188   3.316   1.152
 2243TIP3    H1 6735   2.193   3.360   1.068
 2243TIP3    H2 6736   2.101   3.338   1.185
 2244TIP3   OH2 6737   2.237   0.850   4.583
 2244TIP3    H1 6738   2.295   0.797   4.529
 2244TIP3    H2 6739   2.198   0.788   4.645
 2245TIP3   OH2 6740   1.799   1.694   0.841
 2245TIP3    H1 6741   1.870   1.720   0.782
 2245TIP3    H2 6742   1.832   1.617   0.886
 2246TIP3   OH2 6743   0.620   4.263   2.818
 2246TIP3    H1 6744   0.677   4.242   2.744
 2246TIP3    H2 6745   0.671   4.324   2.870
 2247TIP3   OH2 6746   0.507   0.223   0.822
 2247TIP3    H1 6747   0.464   0.236   0.738
 2247TIP3    H2 6748   0.524   0.129   0.826
 2248TIP3   OH2 6749   0.835   1.666   4.196
 2248TIP3    H1 6750   0.898   1.659   4.124
 2248TIP3    H2 6751   0.796   1.753   4.186
 2249TIP3   OH2 6752   1.481   5.716   4.948
 2249TIP3    H1 6753   1.513   5.636   4.907
 2249TIP3    H2 6754   1.529   5.721   5.030
 2250TIP3   OH2 6755   4.318   1.469   0.490
 2250TIP3    H1 6756   4.256   1.397   0.481
 2250TIP3    H2 6757   4.286   1.536   0.429
 2251TIP3   OH2 6758   4.838   3.048   3.246
 2251TIP3    H1 6759   4.918   3.097   3.263
 2251TIP3    H2 6760   4.815   3.009   3.330
 2252TIP3   OH2 6761   0.720   0.875   5.124
 2252TIP3    H1 6762   0.638   0.855   5.079
 2252TIP3    H2 6763   0.789   0.851   5.062
 2253TIP3   OH2 6764   1.565   2.037   1.579
 2253TIP3    H1 6765   1.635   2.000   1.633
 2253TIP3    H2 6766   1.491   2.047   1.640
 2254TIP3   OH2 6767   1.953   3.417   1.141
 2254TIP3    H1 6768   1.960   3.511   1.156
 2254TIP3    H2 6769   1.859   3.402   1.128
 2255TIP3   OH2 6770   2.170   5.330   4.861
 2255TIP3    H1 6771   2.183   5.421   4.833
 2255TIP3    H2 6772   2.168   5.280   4.780
 2256TIP3   OH2 6773   5.725   3.010   3.416
 2256TIP3    H1 6774   5.741   2.926   3.372
 2256TIP3    H2 6775   5.783   3.008   3.492
 2257TIP3   OH2 6776   0.268   3.601   1.687
 2257TIP3    H1 6777   0.291   3.517   1.727
 2257TIP3    H2 6778   0.336   3.661   1.717
 2258TIP3   OH2 6779   3.005   4.034   3.153
 2258TIP3    H1 6780   2.975   3.947   3.177
 2258TIP3    H2 6781   2.992   4.087   3.233
 2259TIP3   OH2 6782   3.396   3.441   3.780
 2259TIP3    H1 6783   3.425   3.404   3.863
 2259TIP3    H2 6784   3.310   3.478   3.799
 2260TIP3   OH2 6785   0.834   3.695   3.057
 2260TIP3    H1 6786   0.872   3.676   3.142
 2260TIP3    H2 6787   0.909   3.708   2.999
 2261TIP3   OH2 6788   5.001   1.443   4.296
 2261TIP3    H1 6789   4.921   1.452   4.348
 2261TIP3    H2 6790   5.040   1.530   4.297
 2262TIP3   OH2 6791   5.130   3.415   3.961
 2262TIP3    H1 6792   5.118   3.497   3.912
 2262TIP3    H2 6793   5.215   3.425   4.003
 2263TIP3   OH2 6794   3.190   4.318   2.215
 2263TIP3    H1 6795   3.264   4.306   2.156
 2263TIP3    H2 6796   3.117   4.339   2.157
 2264TIP3   OH2 6797   3.804   2.286   4.376
 2264TIP3    H1 6798   3.822   2.355   4.439
 2264TIP3    H2 6799   3.889   2.246   4.359
 2265TIP3   OH2 6800   4.386   3.502   2.632
 2265TIP3    H1 6801   4.347   3.498   2.545
 2265TIP3    H2 6802   4.479   3.520   2.616
 2266TIP3   OH2 6803   3.712  -0.012   1.976
 2266TIP3    H1 6804   3.677  -0.026   2.064
 2266TIP3    H2 6805   3.732   0.081   1.973
 2267TIP3   OH2 6806   4.831   3.797   0.727
 2267TIP3    H1 6807   4.887   3.806   0.650
 2267TIP3    H2 6808   4.754   3.749   0.695
 2268TIP3   OH2 6809   4.098   4.962   0.304
 2268TIP3    H1 6810   4.005   4.949   0.289
 2268TIP3    H2 6811   4.140   4.884   0.268
 2269TIP3   OH2 6812   3.807   2.790   3.173
 2269TIP3    H1 6813   3.780   2.791   3.081
 2269TIP3    H2 6814   3.880   2.729   3.176
 2270TIP3   OH2 6815   5.808   5.324   4.837
 2270TIP3    H1 6816   5.736   5.367   4.790
 2270TIP3    H2 6817   5.843   5.261   4.774
 2271TIP3   OH2 6818   0.178   1.937   0.760
 2271TIP3    H1 6819   0.274   1.943   0.764
 2271TIP3    H2 6820   0.148   2.027   0.773
 2272TIP3   OH2 6821   3.821   5.533   4.876
 2272TIP3    H1 6822   3.746   5.542   4.817
 2272TIP3    H2 6823   3.827   5.617   4.921
 2273TIP3   OH2 6824   4.710   3.306   0.549
 2273TIP3    H1 6825   4.730   3.254   0.471
 2273TIP3    H2 6826   4.792   3.310   0.598
 2274TIP3   OH2 6827   5.457   2.308   4.505
 2274TIP3    H1 6828   5.431   2.216   4.509
 2274TIP3    H2 6829   5.382   2.355   4.543
 2275TIP3   OH2 6830   1.382   1.992   1.785
 2275TIP3    H1 6831   1.295   2.028   1.805
 2275TIP3    H2 6832   1.400   1.931   1.856
 2276TIP3   OH2 6833   4.674   4.453   1.743
 2276TIP3    H1 6834   4.740   4.389   1.716
 2276TIP3    H2 6835   4.703   4.483   1.829
 2277TIP3   OH2 6836   6.082   2.667   1.640
 2277TIP3    H1 6837   6.025   2.642   1.567
 2277TIP3    H2 6838   6.047   2.750   1.671
 2278TIP3   OH2 6839   5.880   1.375   4.839
 2278TIP3    H1 6840   5.940   1.393   4.767
 2278TIP3    H2 6841   5.812   1.443   4.831
 2279TIP3   OH2 6842   0.590   1.857   2.477
 2279TIP3    H1 6843   0.526   1.864   2.406
 2279TIP3    H2 6844   0.584   1.766   2.505
 2280TIP3   OH2 6845   1.970   4.003   0.442
 2280TIP3    H1 6846   2.034   4.063   0.405
 2280TIP3    H2 6847   1.921   4.056   0.505
 2281TIP3   OH2 6848   0.971   2.461   3.912
 2281TIP3    H1 6849   0.924   2.451   3.829
 2281TIP3    H2 6850   0.921   2.526   3.961
 2282TIP3   OH2 6851   1.638   2.148   0.577
 2282TIP3    H1 6852   1.683   2.184   0.653
 2282TIP3    H2 6853   1.646   2.053   0.587
 2283TIP3   OH2 6854   3.190   3.322   4.184
 2283TIP3    H1 6855   3.111   3.343   4.134
 2283TIP3    H2 6856   3.233   3.253   4.132
 2284TIP3   OH2 6857   1.961   2.338   0.778
 2284TIP3    H1 6858   2.047   2.364   0.812
 2284TIP3    H2 6859   1.920   2.420   0.750
 2285TIP3   OH2 6860   1.696   2.198   4.805
 2285TIP3    H1 6861   1.788   2.207   4.781
 2285TIP3    H2 6862   1.689   2.109   4.838
 2286TIP3   OH2 6863   6.338   4.843   2.653
 2286TIP3    H1 6864   6.332   4.834   2.748
 2286TIP3    H2 6865   6.254   4.810   2.621
 2287TIP3   OH2 6866   2.657   4.492   0.191
 2287TIP3    H1 6867   2.716   4.428   0.230
 2287TIP3    H2 6868   2.576   4.484   0.241
 2288TIP3   OH2 6869   4.997   5.251   3.867
 2288TIP3    H1 6870   4.945   5.327   3.894
 2288TIP3    H2 6871   5.042   5.280   3.787
 2289TIP3   OH2 6872   0.964   0.179   0.337
 2289TIP3    H1 6873   0.991   0.250   0.395
 2289TIP3    H2 6874   0.999   0.099   0.378
 2290TIP3   OH2 6875   2.467   0.338   0.569
 2290TIP3    H1 6876   2.429   0.255   0.598
 2290TIP3    H2 6877   2.392   0.397   0.562
 2291TIP3   OH2 6878   6.328   1.980   4.130
 2291TIP3    H1 6879   6.349   2.002   4.221
 2291TIP3    H2 6880   6.406   2.006   4.080
 2292TIP3   OH2 6881   2.534   2.896   2.032
 2292TIP3    H1 6882   2.458   2.952   2.046
 2292TIP3    H2 6883   2.520   2.858   1.945
 2293TIP3   OH2 6884   2.111   2.839   4.318
 2293TIP3    H1 6885   2.186   2.897   4.331
 2293TIP3    H2 6886   2.074   2.828   4.406
 2294TIP3   OH2 6887   1.555   4.380   2.730
 2294TIP3    H1 6888   1.470   4.394   2.690
 2294TIP3    H2 6889   1.535   4.356   2.821
 2295TIP3   OH2 6890   1.597   1.912   0.748
 2295TIP3    H1 6891   1.548   1.923   0.830
 2295TIP3    H2 6892   1.645   1.830   0.759
 2296TIP3   OH2 6893   3.914   5.012   2.691
 2296TIP3    H1 6894   3.901   4.968   2.776
 2296TIP3    H2 6895   3.953   4.945   2.635
 2297TIP3   OH2 6896   0.849   2.193   4.869
 2297TIP3    H1 6897   0.888   2.160   4.788
 2297TIP3    H2 6898   0.782   2.255   4.841
 2298TIP3   OH2 6899   4.116   2.028   2.510
 2298TIP3    H1 6900   4.130   2.101   2.571
 2298TIP3    H2 6901   4.145   1.951   2.558
 2299TIP3   OH2 6902   3.659   4.737   2.767
 2299TIP3    H1 6903   3.679   4.720   2.675
 2299TIP3    H2 6904   3.599   4.667   2.792
 2300TIP3   OH2 6905   4.651   1.770   5.121
 2300TIP3    H1 6906   4.732   1.732   5.155
 2300TIP3    H2 6907   4.600   1.694   5.092
 2301TIP3   OH2 6908   4.324   5.049   4.269
 2301TIP3    H1 6909   4.398   5.046   4.209
 2301TIP3    H2 6910   4.247   5.043   4.213
 2302TIP3   OH2 6911   3.447   2.062   3.916
 2302TIP3    H1 6912   3.419   2.021   3.835
 2302TIP3    H2 6913   3.479   2.148   3.890
 2303TIP3   OH2 6914   2.141   2.881   2.742
 2303TIP3    H1 6915   2.222   2.840   2.711
 2303TIP3    H2 6916   2.111   2.825   2.814
 2304TIP3   OH2 6917   4.709   0.346   3.183
 2304TIP3    H1 6918   4.702   0.335   3.089
 2304TIP3    H2 6919   4.618   0.350   3.214
 2305TIP3   OH2 6920   1.392   1.101   1.192
 2305TIP3    H1 6921   1.463   1.163   1.177
 2305TIP3    H2 6922   1.435   1.021   1.221
 2306TIP3   OH2 6923   2.510   2.244   0.487
 2306TIP3    H1 6924   2.486   2.333   0.513
 2306TIP3    H2 6925   2.548   2.254   0.400
 2307TIP3   OH2 6926   3.906   3.636   0.471
 2307TIP3    H1 6927   4.000   3.619   0.463
 2307TIP3    H2 6928   3.901   3.728   0.495
 2308TIP3   OH2 6929   4.837   5.477   2.809
 2308TIP3    H1 6930   4.833   5.556   2.755
 2308TIP3    H2 6931   4.930   5.464   2.826
 2309TIP3   OH2 6932   2.506   4.473   3.727
 2309TIP3    H1 6933   2.519   4.537   3.658
 2309TIP3    H2 6934   2.586   4.420   3.727
 2310TIP3   OH2 6935   1.928   0.930   4.905
 2310TIP3    H1 6936   1.992   0.866   4.875
 2310TIP3    H2 6937   1.975   1.014   4.902
 2311TIP3   OH2 6938   1.478   2.042   2.212
 2311TIP3    H1 6939   1.483   2.138   2.207
 2311TIP3    H2 6940   1.399   2.025   2.263
 2312TIP3   OH2 6941   4.503   3.355   4.227
 2312TIP3    H1 6942   4.423   3.406   4.215
 2312TIP3    H2 6943   4.550   3.364   4.144
 2313TIP3   OH2 6944   3.392   5.630   1.753
 2313TIP3    H1 6945   3.480   5.629   1.715
 2313TIP3    H2 6946   3.368   5.538   1.761
 2314TIP3   OH2 6947   6.316   5.145   0.710
 2314TIP3    H1 6948   6.221   5.154   0.717
 2314TIP3    H2 6949   6.344   5.220   0.658
 2315TIP3   OH2 6950   2.174   2.527   4.409
 2315TIP3    H1 6951   2.127   2.522   4.492
 2315TIP3    H2 6952   2.159   2.617   4.379
 2316TIP3   OH2 6953   0.259   0.701   5.043
 2316TIP3    H1 6954   0.279   0.648   4.966
 2316TIP3    H2 6955   0.184   0.658   5.084
 2317TIP3   OH2 6956   5.108   4.757   4.260
 2317TIP3    H1 6957   5.104   4.768   4.165
 2317TIP3    H2 6958   5.163   4.830   4.290
 2318TIP3   OH2 6959   4.900   0.992   2.071
 2318TIP3    H1 6960   4.914   0.905   2.032
 2318TIP3    H2 6961   4.879   0.974   2.162
 2319TIP3   OH2 6962   0.215   5.081   3.471
 2319TIP3    H1 6963   0.212   5.042   3.383
 2319TIP3    H2 6964   0.166   5.020   3.526
 2320TIP3   OH2 6965   4.565   0.482   2.017
 2320TIP3    H1 6966   4.626   0.520   2.080
 2320TIP3    H2 6967   4.593   0.391   2.008
 2321TIP3   OH2 6968   1.326   1.324   3.719
 2321TIP3    H1 6969   1.259   1.267   3.759
 2321TIP3    H2 6970   1.306   1.411   3.753
 2322TIP3   OH2 6971   3.737   2.701   4.433
 2322TIP3    H1 6972   3.728   2.772   4.497
 2322TIP3    H2 6973   3.799   2.640   4.474
 2323TIP3   OH2 6974   0.666   5.203   2.983
 2323TIP3    H1 6975   0.655   5.275   3.046
 2323TIP3    H2 6976   0.645   5.124   3.033
 2324TIP3   OH2 6977   3.742   1.855   4.666
 2324TIP3    H1 6978   3.663   1.816   4.701
 2324TIP3    H2 6979   3.738   1.947   4.692
 2325TIP3   OH2 6980   5.677   3.330   2.130
 2325TIP3    H1 6981   5.706   3.398   2.069
 2325TIP3    H2 6982   5.626   3.270   2.076
 2326TIP3   OH2 6983   2.420   3.682   3.782
 2326TIP3    H1 6984   2.473   3.604   3.767
 2326TIP3    H2 6985   2.425   3.731   3.700
 2327TIP3   OH2 6986   1.297   5.291   2.849
 2327TIP3    H1 6987   1.283   5.213   2.903
 2327TIP3    H2 6988   1.392   5.301   2.845
 2328TIP3   OH2 6989   2.784   0.118   0.641
 2328TIP3    H1 6990   2.689   0.113   0.631
 2328TIP3    H2 6991   2.804   0.057   0.712
 2329TIP3   OH2 6992   4.119   1.903   2.860
 2329TIP3    H1 6993   4.124   1.847   2.782
 2329TIP3    H2 6994   4.027   1.932   2.862
 2330TIP3   OH2 6995   4.616   5.841   2.826
 2330TIP3    H1 6996   4.539   5.788   2.848
 2330TIP3    H2 6997   4.685   5.777   2.809
 2331TIP3   OH2 6998   1.784   0.708   2.083
 2331TIP3    H1 6999   1.839   0.783   2.059
 2331TIP3    H2 7000   1.711   0.747   2.131
 2332TIP3   OH2 7001   3.362   4.143   1.808
 2332TIP3    H1 7002   3.335   4.196   1.733
 2332TIP3    H2 7003   3.349   4.053   1.779
 2333TIP3   OH2 7004   5.047   2.675   3.253
 2333TIP3    H1 7005   5.082   2.593   3.288
 2333TIP3    H2 7006   5.083   2.743   3.310
 2334TIP3   OH2 7007   1.458   1.921   1.000
 2334TIP3    H1 7008   1.444   1.850   1.062
 2334TIP3    H2 7009   1.536   1.966   1.032
 2335TIP3   OH2 7010   3.257   1.276   0.111
 2335TIP3    H1 7011   3.312   1.299   0.037
 2335TIP3    H2 7012   3.168   1.296   0.082
 2336TIP3   OH2 7013   4.112   0.084   1.584
 2336TIP3    H1 7014   4.138   0.098   1.493
 2336TIP3    H2 7015   4.027   0.128   1.591
 2337TIP3   OH2 7016   1.870   0.265   1.238
 2337TIP3    H1 7017   1.790   0.316   1.253
 2337TIP3    H2 7018   1.866   0.193   1.301
 2338TIP3   OH2 7019   0.180   0.361   1.290
 2338TIP3    H1 7020   0.104   0.303   1.278
 2338TIP3    H2 7021   0.143   0.443   1.321
 2339TIP3   OH2 7022   4.480   5.338   0.460
 2339TIP3    H1 7023   4.450   5.418   0.503
 2339TIP3    H2 7024   4.547   5.302   0.518
 2340TIP3   OH2 7025   1.994   0.566   4.067
 2340TIP3    H1 7026   1.992   0.483   4.020
 2340TIP3    H2 7027   1.908   0.572   4.109
 2341TIP3   OH2 7028   1.132   4.066   3.990
 2341TIP3    H1 7029   1.176   3.984   4.014
 2341TIP3    H2 7030   1.192   4.135   4.018
 2342TIP3   OH2 7031   0.986   0.184   3.618
 2342TIP3    H1 7032   0.963   0.275   3.635
 2342TIP3    H2 7033   1.008   0.182   3.525
 2343TIP3   OH2 7034   1.040   1.822   0.050
 2343TIP3    H1 7035   1.104   1.754   0.028
 2343TIP3    H2 7036   1.060   1.894  -0.009
 2344TIP3   OH2 7037   2.836   5.903   1.629
 2344TIP3    H1 7038   2.865   5.891   1.719
 2344TIP3    H2 7039   2.914   5.934   1.583
 2345TIP3   OH2 7040   2.833   2.890   2.610
 2345TIP3    H1 7041   2.859   2.978   2.637
 2345TIP3    H2 7042   2.739   2.886   2.628
 2346TIP3   OH2 7043   5.211   0.993   2.370
 2346TIP3    H1 7044   5.230   0.975   2.278
 2346TIP3    H2 7045   5.150   1.067   2.369
 2347TIP3   OH2 7046   0.008   0.885   2.930
 2347TIP3    H1 7047   0.098   0.898   2.959
 2347TIP3    H2 7048  -0.002   0.790   2.925
 2348TIP3   OH2 7049   0.640   2.691   3.781
 2348TIP3    H1 7050   0.607   2.707   3.692
 2348TIP3    H2 7051   0.713   2.751   3.790
 2349TIP3   OH2 7052   5.965   2.604   0.474
 2349TIP3    H1 7053   6.000   2.548   0.543
 2349TIP3    H2 7054   5.872   2.581   0.470
 2350TIP3   OH2 7055   2.513   0.867   3.989
 2350TIP3    H1 7056   2.492   0.906   3.905
 2350TIP3    H2 7057   2.477   0.929   4.053
 2351TIP3   OH2 7058   1.236   5.771   1.538
 2351TIP3    H1 7059   1.272   5.760   1.626
 2351TIP3    H2 7060   1.160   5.714   1.536
 2352TIP3   OH2 7061   0.685   2.327   4.065
 2352TIP3    H1 7062   0.626   2.396   4.034
 2352TIP3    H2 7063   0.709   2.279   3.986
 2353TIP3   OH2 7064   6.067   1.012   4.982
 2353TIP3    H1 7065   6.050   1.101   5.012
 2353TIP3    H2 7066   6.162   1.006   4.976
 2354TIP3   OH2 7067   1.475   0.941   3.047
 2354TIP3    H1 7068   1.456   0.935   3.140
 2354TIP3    H2 7069   1.400   0.987   3.009
 2355TIP3   OH2 7070   5.551   4.215   0.470
 2355TIP3    H1 7071   5.478   4.268   0.438
 2355TIP3    H2 7072   5.518   4.173   0.548
 2356TIP3   OH2 7073   1.399   0.077   4.987
 2356TIP3    H1 7074   1.346   0.032   5.053
 2356TIP3    H2 7075   1.412   0.164   5.023
 2357TIP3   OH2 7076   5.461   1.747   4.424
 2357TIP3    H1 7077   5.522   1.737   4.497
 2357TIP3    H2 7078   5.458   1.841   4.408
 2358TIP3   OH2 7079   6.196   4.689   2.281
 2358TIP3    H1 7080   6.164   4.604   2.249
 2358TIP3    H2 7081   6.291   4.684   2.272
 2359TIP3   OH2 7082   3.812   3.391   0.454
 2359TIP3    H1 7083   3.831   3.352   0.368
 2359TIP3    H2 7084   3.851   3.478   0.449
 2360TIP3   OH2 7085   4.028   1.490   4.311
 2360TIP3    H1 7086   4.033   1.434   4.233
 2360TIP3    H2 7087   4.079   1.444   4.377
 2361TIP3   OH2 7088   5.976   3.820   3.122
 2361TIP3    H1 7089   6.010   3.869   3.197
 2361TIP3    H2 7090   6.000   3.729   3.139
 2362TIP3   OH2 7091   3.404   0.513   3.009
 2362TIP3    H1 7092   3.413   0.430   2.961
 2362TIP3    H2 7093   3.316   0.543   2.988
 2363TIP3   OH2 7094   6.183   2.015   3.310
 2363TIP3    H1 7095   6.115   1.948   3.317
 2363TIP3    H2 7096   6.244   1.994   3.381
 2364TIP3   OH2 7097   3.587   0.911   1.864
 2364TIP3    H1 7098   3.662   0.959   1.899
 2364TIP3    H2 7099   3.595   0.918   1.769
 2365TIP3   OH2 7100   0.128   1.821   4.997
 2365TIP3    H1 7101   0.089   1.737   5.024
 2365TIP3    H2 7102   0.210   1.796   4.955
 2366TIP3   OH2 7103   3.565   1.379   3.266
 2366TIP3    H1 7104   3.633   1.412   3.207
 2366TIP3    H2 7105   3.486   1.375   3.212
 2367TIP3   OH2 7106   0.338   1.566   1.951
 2367TIP3    H1 7107   0.424   1.545   1.987
 2367TIP3    H2 7108   0.278   1.505   1.993
 2368TIP3   OH2 7109   0.225   1.965   4.008
 2368TIP3    H1 7110   0.307   1.960   3.959
 2368TIP3    H2 7111   0.235   2.044   4.062
 2369TIP3   OH2 7112   0.546   3.019   3.185
 2369TIP3    H1 7113   0.540   2.952   3.118
 2369TIP3    H2 7114   0.634   3.009   3.222
 2370TIP3   OH2 7115   0.362   3.648   4.265
 2370TIP3    H1 7116   0.400   3.730   4.298
 2370TIP3    H2 7117   0.436   3.603   4.224
 2371TIP3   OH2 7118   2.313   1.412   3.676
 2371TIP3    H1 7119   2.319   1.408   3.581
 2371TIP3    H2 7120   2.403   1.429   3.705
 2372TIP3   OH2 7121   1.420   1.852   4.324
 2372TIP3    H1 7122   1.437   1.780   4.263
 2372TIP3    H2 7123   1.507   1.885   4.347
 2373TIP3   OH2 7124   2.879   2.054   1.668
 2373TIP3    H1 7125   2.899   2.145   1.690
 2373TIP3    H2 7126   2.793   2.058   1.624
 2374TIP3   OH2 7127   5.512   2.993   4.616
 2374TIP3    H1 7128   5.504   2.963   4.526
 2374TIP3    H2 7129   5.437   2.954   4.661
 2375TIP3   OH2 7130   3.441   0.300   1.969
 2375TIP3    H1 7131   3.396   0.226   2.011
 2375TIP3    H2 7132   3.533   0.288   1.991
 2376TIP3   OH2 7133   3.244   1.096   2.468
 2376TIP3    H1 7134   3.283   1.071   2.384
 2376TIP3    H2 7135   3.151   1.077   2.459
 2377TIP3   OH2 7136   6.019   4.234   4.469
 2377TIP3    H1 7137   6.016   4.309   4.409
 2377TIP3    H2 7138   5.951   4.253   4.534
 2378TIP3   OH2 7139   4.510   1.397   3.659
 2378TIP3    H1 7140   4.571   1.441   3.600
 2378TIP3    H2 7141   4.473   1.467   3.712
 2379TIP3   OH2 7142   3.981   1.757   0.930
 2379TIP3    H1 7143   3.898   1.796   0.901
 2379TIP3    H2 7144   3.998   1.687   0.867
 2380TIP3   OH2 7145   5.997   2.875   0.556
 2380TIP3    H1 7146   5.978   2.794   0.509
 2380TIP3    H2 7147   5.968   2.859   0.645
 2381TIP3   OH2 7148   6.031   3.445   2.383
 2381TIP3    H1 7149   6.121   3.477   2.381
 2381TIP3    H2 7150   6.001   3.462   2.473
 2382TIP3   OH2 7151   0.429   4.474   0.980
 2382TIP3    H1 7152   0.472   4.431   0.907
 2382TIP3    H2 7153   0.335   4.458   0.966
 2383TIP3   OH2 7154   0.042   5.351   2.696
 2383TIP3    H1 7155   0.011   5.354   2.605
 2383TIP3    H2 7156   0.137   5.351   2.688
 2384TIP3   OH2 7157   3.511   0.943   1.350
 2384TIP3    H1 7158   3.530   0.937   1.444
 2384TIP3    H2 7159   3.581   0.998   1.315
 2385TIP3   OH2 7160   3.230   1.552   1.464
 2385TIP3    H1 7161   3.139   1.538   1.438
 2385TIP3    H2 7162   3.224   1.607   1.542
 2386TIP3   OH2 7163   0.076   5.869   2.068
 2386TIP3    H1 7164   0.044   5.780   2.058
 2386TIP3    H2 7165   0.169   5.864   2.046
 2387TIP3   OH2 7166   4.465   1.615   4.226
 2387TIP3    H1 7167   4.487   1.642   4.137
 2387TIP3    H2 7168   4.547   1.580   4.261
 2388TIP3   OH2 7169   0.557   4.033   0.137
 2388TIP3    H1 7170   0.541   4.127   0.143
 2388TIP3    H2 7171   0.639   4.025   0.090
 2389TIP3   OH2 7172   4.409   4.190   1.621
 2389TIP3    H1 7173   4.367   4.271   1.649
 2389TIP3    H2 7174   4.493   4.218   1.586
 2390TIP3   OH2 7175   5.950   2.103   2.175
 2390TIP3    H1 7176   5.904   2.021   2.191
 2390TIP3    H2 7177   5.880   2.169   2.172
 2391TIP3   OH2 7178   4.769   0.027   5.170
 2391TIP3    H1 7179   4.779  -0.004   5.080
 2391TIP3    H2 7180   4.678   0.056   5.175
 2392TIP3   OH2 7181   1.488   5.852   2.889
 2392TIP3    H1 7182   1.494   5.916   2.959
 2392TIP3    H2 7183   1.572   5.805   2.893
 2393TIP3   OH2 7184   4.065   0.908   4.785
 2393TIP3    H1 7185   4.155   0.900   4.818
 2393TIP3    H2 7186   4.053   0.829   4.731
 2394TIP3   OH2 7187   4.648   1.091   0.438
 2394TIP3    H1 7188   4.734   1.053   0.417
 2394TIP3    H2 7189   4.656   1.183   0.413
 2395TIP3   OH2 7190   2.089   3.016   0.124
 2395TIP3    H1 7191   2.113   3.054   0.208
 2395TIP3    H2 7192   2.039   3.085   0.080
 2396TIP3   OH2 7193   1.564   2.402   4.939
 2396TIP3    H1 7194   1.631   2.459   4.975
 2396TIP3    H2 7195   1.611   2.346   4.877
 2397TIP3   OH2 7196   0.719   5.876   1.958
 2397TIP3    H1 7197   0.800   5.904   1.915
 2397TIP3    H2 7198   0.670   5.831   1.888
 2398TIP3   OH2 7199   3.977   1.667   3.345
 2398TIP3    H1 7200   4.064   1.650   3.381
 2398TIP3    H2 7201   3.917   1.631   3.410
 2399TIP3   OH2 7202   1.301   0.953   4.907
 2399TIP3    H1 7203   1.232   0.911   4.856
 2399TIP3    H2 7204   1.257   1.020   4.959
 2400TIP3   OH2 7205   0.211   5.172   0.405
 2400TIP3    H1 7206   0.153   5.247   0.401
 2400TIP3    H2 7207   0.171   5.107   0.348
 2401TIP3   OH2 7208   2.357   2.311   4.452
 2401TIP3    H1 7209   2.304   2.389   4.438
 2401TIP3    H2 7210   2.299   2.249   4.496
 2402TIP3   OH2 7211   0.597   3.923   1.413
 2402TIP3    H1 7212   0.684   3.960   1.397
 2402TIP3    H2 7213   0.541   4.000   1.427
 2403TIP3   OH2 7214   3.217   5.059   3.698
 2403TIP3    H1 7215   3.195   4.973   3.733
 2403TIP3    H2 7216   3.138   5.112   3.712
 2404TIP3   OH2 7217   2.046   1.159   4.799
 2404TIP3    H1 7218   2.045   1.253   4.818
 2404TIP3    H2 7219   2.139   1.137   4.790
 2405TIP3   OH2 7220   3.820   0.434   3.289
 2405TIP3    H1 7221   3.748   0.481   3.248
 2405TIP3    H2 7222   3.778   0.369   3.345
 2406TIP3   OH2 7223   2.007   4.859   2.728
 2406TIP3    H1 7224   2.101   4.851   2.743
 2406TIP3    H2 7225   1.989   4.798   2.657
 2407TIP3   OH2 7226   1.847   5.915   2.680
 2407TIP3    H1 7227   1.844   5.909   2.775
 2407TIP3    H2 7228   1.779   5.978   2.658
 2408TIP3   OH2 7229   4.667   4.516   3.447
 2408TIP3    H1 7230   4.662   4.609   3.468
 2408TIP3    H2 7231   4.713   4.512   3.363
 2409TIP3   OH2 7232   5.116   4.844   1.270
 2409TIP3    H1 7233   5.145   4.932   1.297
 2409TIP3    H2 7234   5.056   4.817   1.340
 2410TIP3   OH2 7235   3.275   3.566   0.067
 2410TIP3    H1 7236   3.365   3.594   0.080
 2410TIP3    H2 7237   3.244   3.543   0.155
 2411TIP3   OH2 7238   4.939   5.657   3.285
 2411TIP3    H1 7239   4.874   5.698   3.342
 2411TIP3    H2 7240   5.019   5.709   3.297
 2412TIP3   OH2 7241   4.994   5.061   4.091
 2412TIP3    H1 7242   5.030   5.042   4.177
 2412TIP3    H2 7243   4.907   5.098   4.109
 2413TIP3   OH2 7244   1.700   5.712   2.979
 2413TIP3    H1 7245   1.718   5.619   2.964
 2413TIP3    H2 7246   1.786   5.751   2.989
 2414TIP3   OH2 7247   3.300   5.849   1.330
 2414TIP3    H1 7248   3.221   5.795   1.326
 2414TIP3    H2 7249   3.368   5.794   1.290
 2415TIP3   OH2 7250   3.298   5.891   4.414
 2415TIP3    H1 7251   3.333   5.906   4.502
 2415TIP3    H2 7252   3.256   5.805   4.419
 2416TIP3   OH2 7253   4.159   1.516   2.527
 2416TIP3    H1 7254   4.070   1.504   2.561
 2416TIP3    H2 7255   4.211   1.448   2.570
 2417TIP3   OH2 7256   1.571   1.430   4.468
 2417TIP3    H1 7257   1.654   1.470   4.442
 2417TIP3    H2 7258   1.594   1.373   4.541
 2418TIP3   OH2 7259   0.959   0.387   5.197
 2418TIP3    H1 7260   1.028   0.449   5.220
 2418TIP3    H2 7261   0.963   0.382   5.101
 2419TIP3   OH2 7262   1.676   5.163   3.197
 2419TIP3    H1 7263   1.702   5.128   3.282
 2419TIP3    H2 7264   1.582   5.145   3.192
 2420TIP3   OH2 7265   1.351   4.031   1.073
 2420TIP3    H1 7266   1.357   4.027   0.977
 2420TIP3    H2 7267   1.346   4.125   1.092
 2421TIP3   OH2 7268   1.057   4.093   3.721
 2421TIP3    H1 7269   1.084   4.073   3.810
 2421TIP3    H2 7270   1.081   4.185   3.708
 2422TIP3   OH2 7271   5.416   5.401   1.177
 2422TIP3    H1 7272   5.445   5.310   1.186
 2422TIP3    H2 7273   5.420   5.418   1.082
 2423TIP3   OH2 7274   4.719   2.478   1.083
 2423TIP3    H1 7275   4.801   2.483   1.131
 2423TIP3    H2 7276   4.659   2.433   1.143
 2424TIP3   OH2 7277   0.754   4.787   1.014
 2424TIP3    H1 7278   0.671   4.761   1.054
 2424TIP3    H2 7279   0.736   4.787   0.920
 2425TIP3   OH2 7280   4.254   5.976   0.369
 2425TIP3    H1 7281   4.216   5.923   0.299
 2425TIP3    H2 7282   4.326   5.923   0.403
 2426TIP3   OH2 7283   6.394   0.524   1.879
 2426TIP3    H1 7284   6.355   0.608   1.903
 2426TIP3    H2 7285   6.324   0.461   1.895
 2427TIP3   OH2 7286   2.037   3.937   0.728
 2427TIP3    H1 7287   2.118   3.896   0.760
 2427TIP3    H2 7288   2.024   3.899   0.641
 2428TIP3   OH2 7289   2.995   2.990   1.231
 2428TIP3    H1 7290   3.058   2.981   1.303
 2428TIP3    H2 7291   3.044   2.968   1.153
 2429TIP3   OH2 7292   0.101   4.724   0.292
 2429TIP3    H1 7293   0.036   4.692   0.229
 2429TIP3    H2 7294   0.163   4.774   0.239
 2430TIP3   OH2 7295   0.911   1.945   2.170
 2430TIP3    H1 7296   0.984   2.003   2.190
 2430TIP3    H2 7297   0.862   1.991   2.101
 2431TIP3   OH2 7298   4.261   5.056   0.551
 2431TIP3    H1 7299   4.180   5.009   0.568
 2431TIP3    H2 7300   4.325   5.015   0.611
 2432TIP3   OH2 7301   1.475   1.051   1.664
 2432TIP3    H1 7302   1.476   1.118   1.595
 2432TIP3    H2 7303   1.420   1.088   1.733
 2433TIP3   OH2 7304   3.081   1.356   4.634
 2433TIP3    H1 7305   3.040   1.303   4.566
 2433TIP3    H2 7306   3.039   1.327   4.715
 2434TIP3   OH2 7307   0.101   2.206   1.267
 2434TIP3    H1 7308   0.101   2.196   1.172
 2434TIP3    H2 7309   0.177   2.156   1.297
 2435TIP3   OH2 7310   2.473   0.754   3.557
 2435TIP3    H1 7311   2.543   0.819   3.566
 2435TIP3    H2 7312   2.453   0.754   3.463
 2436TIP3   OH2 7313   4.887   3.628   5.067
 2436TIP3    H1 7314   4.844   3.592   4.989
 2436TIP3    H2 7315   4.884   3.556   5.130
 2437TIP3   OH2 7316   0.726   0.678   1.578
 2437TIP3    H1 7317   0.681   0.746   1.629
 2437TIP3    H2 7318   0.784   0.635   1.642
 2438TIP3   OH2 7319   0.953   5.357   3.177
 2438TIP3    H1 7320   0.867   5.400   3.173
 2438TIP3    H2 7321   0.966   5.323   3.088
 2439TIP3   OH2 7322   0.812   1.310   1.311
 2439TIP3    H1 7323   0.815   1.272   1.399
 2439TIP3    H2 7324   0.824   1.404   1.325
 2440TIP3   OH2 7325   2.465   3.586   4.176
 2440TIP3    H1 7326   2.533   3.525   4.147
 2440TIP3    H2 7327   2.504   3.673   4.165
 2441TIP3   OH2 7328   1.551   3.693   2.851
 2441TIP3    H1 7329   1.462   3.710   2.880
 2441TIP3    H2 7330   1.544   3.678   2.757
 2442TIP3   OH2 7331   2.858   2.768   1.339
 2442TIP3    H1 7332   2.923   2.741   1.404
 2442TIP3    H2 7333   2.876   2.861   1.325
 2443TIP3   OH2 7334   2.396   2.225   1.509
 2443TIP3    H1 7335   2.368   2.291   1.446
 2443TIP3    H2 7336   2.323   2.163   1.513
 2444TIP3   OH2 7337   5.333   1.916   2.277
 2444TIP3    H1 7338   5.311   1.963   2.358
 2444TIP3    H2 7339   5.376   1.836   2.306
 2445TIP3   OH2 7340   1.066   3.566   2.045
 2445TIP3    H1 7341   0.989   3.545   1.993
 2445TIP3    H2 7342   1.062   3.661   2.057
 2446TIP3   OH2 7343   5.967   0.484   0.707
 2446TIP3    H1 7344   5.974   0.391   0.728
 2446TIP3    H2 7345   5.886   0.512   0.749
 2447TIP3   OH2 7346   2.217   1.360   2.444
 2447TIP3    H1 7347   2.272   1.296   2.489
 2447TIP3    H2 7348   2.128   1.338   2.470
 2448TIP3   OH2 7349   1.439   0.932   5.161
 2448TIP3    H1 7350   1.444   1.009   5.218
 2448TIP3    H2 7351   1.523   0.929   5.117
 2449TIP3   OH2 7352   2.843   0.388   3.321
 2449TIP3    H1 7353   2.919   0.415   3.269
 2449TIP3    H2 7354   2.853   0.294   3.332
 2450TIP3   OH2 7355   1.116   3.726   4.260
 2450TIP3    H1 7356   1.175   3.689   4.195
 2450TIP3    H2 7357   1.029   3.694   4.234
 2451TIP3   OH2 7358   4.167   4.872   1.582
 2451TIP3    H1 7359   4.180   4.780   1.605
 2451TIP3    H2 7360   4.213   4.884   1.499
 2452TIP3   OH2 7361   3.811   1.507   4.765
 2452TIP3    H1 7362   3.829   1.487   4.673
 2452TIP3    H2 7363   3.722   1.540   4.765
 2453TIP3   OH2 7364   4.860   3.953   1.423
 2453TIP3    H1 7365   4.923   4.010   1.378
 2453TIP3    H2 7366   4.776   3.997   1.411
 2454TIP3   OH2 7367   2.464   5.647   0.420
 2454TIP3    H1 7368   2.460   5.685   0.508
 2454TIP3    H2 7369   2.551   5.606   0.416
 2455TIP3   OH2 7370   1.802   1.169   4.516
 2455TIP3    H1 7371   1.739   1.207   4.576
 2455TIP3    H2 7372   1.877   1.228   4.518
 2456TIP3   OH2 7373   3.455   3.773   0.819
 2456TIP3    H1 7374   3.442   3.712   0.746
 2456TIP3    H2 7375   3.476   3.717   0.894
 2457TIP3   OH2 7376   5.912   1.618   4.700
 2457TIP3    H1 7377   5.834   1.644   4.651
 2457TIP3    H2 7378   5.936   1.696   4.750
 2458TIP3   OH2 7379   2.280   1.805   0.413
 2458TIP3    H1 7380   2.279   1.893   0.452
 2458TIP3    H2 7381   2.312   1.819   0.324
 2459TIP3   OH2 7382   4.911   5.668   2.610
 2459TIP3    H1 7383   4.979   5.736   2.609
 2459TIP3    H2 7384   4.948   5.598   2.556
 2460TIP3   OH2 7385   2.972   3.293   0.643
 2460TIP3    H1 7386   2.903   3.248   0.595
 2460TIP3    H2 7387   3.043   3.228   0.649
 2461TIP3   OH2 7388   0.410   3.502   4.632
 2461TIP3    H1 7389   0.374   3.520   4.546
 2461TIP3    H2 7390   0.414   3.587   4.675
 2462TIP3   OH2 7391   0.837   1.849   4.552
 2462TIP3    H1 7392   0.814   1.759   4.526
 2462TIP3    H2 7393   0.792   1.862   4.636
 2463TIP3   OH2 7394   1.188   0.619   3.700
 2463TIP3    H1 7395   1.247   0.547   3.720
 2463TIP3    H2 7396   1.188   0.673   3.779
 2464TIP3   OH2 7397   4.201   4.473   2.320
 2464TIP3    H1 7398   4.199   4.396   2.263
 2464TIP3    H2 7399   4.242   4.541   2.267
 2465TIP3   OH2 7400   4.804   5.451   3.980
 2465TIP3    H1 7401   4.829   5.539   4.010
 2465TIP3    H2 7402   4.767   5.409   4.058
 2466TIP3   OH2 7403   1.473   3.821   4.251
 2466TIP3    H1 7404   1.448   3.843   4.161
 2466TIP3    H2 7405   1.569   3.821   4.249
 2467TIP3   OH2 7406   2.145   5.152   2.863
 2467TIP3    H1 7407   2.151   5.227   2.805
 2467TIP3    H2 7408   2.100   5.085   2.811
 2468TIP3   OH2 7409   4.283   2.592   2.450
 2468TIP3    H1 7410   4.284   2.672   2.503
 2468TIP3    H2 7411   4.320   2.619   2.366
 2469TIP3   OH2 7412   4.632   1.001   0.689
 2469TIP3    H1 7413   4.633   1.032   0.599
 2469TIP3    H2 7414   4.540   1.011   0.717
 2470TIP3   OH2 7415   0.873   0.558   3.879
 2470TIP3    H1 7416   0.897   0.549   3.786
 2470TIP3    H2 7417   0.863   0.652   3.892
 2471TIP3   OH2 7418   1.056   0.532   2.658
 2471TIP3    H1 7419   1.049   0.449   2.706
 2471TIP3    H2 7420   1.056   0.599   2.725
 2472TIP3   OH2 7421   1.514   0.132   0.537
 2472TIP3    H1 7422   1.489   0.127   0.629
 2472TIP3    H2 7423   1.609   0.139   0.539
 2473TIP3   OH2 7424   3.654   1.507   4.052
 2473TIP3    H1 7425   3.589   1.559   4.004
 2473TIP3    H2 7426   3.738   1.545   4.027
 2474TIP3   OH2 7427   5.983   0.525   4.705
 2474TIP3    H1 7428   5.944   0.557   4.624
 2474TIP3    H2 7429   6.076   0.513   4.685
 2475TIP3   OH2 7430   1.101   1.993   4.939
 2475TIP3    H1 7431   1.081   1.945   4.859
 2475TIP3    H2 7432   1.114   2.084   4.911
 2476TIP3   OH2 7433   0.754   4.458   3.226
 2476TIP3    H1 7434   0.697   4.534   3.236
 2476TIP3    H2 7435   0.738   4.427   3.136
 2477TIP3   OH2 7436   6.260   1.555   0.521
 2477TIP3    H1 7437   6.184   1.608   0.497
 2477TIP3    H2 7438   6.313   1.552   0.441
 2478TIP3   OH2 7439   2.237   1.510   4.469
 2478TIP3    H1 7440   2.278   1.596   4.479
 2478TIP3    H2 7441   2.263   1.481   4.381
 2479TIP3   OH2 7442   0.343   2.070   1.935
 2479TIP3    H1 7443   0.352   2.153   1.887
 2479TIP3    H2 7444   0.336   2.097   2.027
 2480TIP3   OH2 7445   1.339   0.124   1.864
 2480TIP3    H1 7446   1.415   0.075   1.834
 2480TIP3    H2 7447   1.265   0.067   1.845
 2481TIP3   OH2 7448   5.050   4.459   3.190
 2481TIP3    H1 7449   5.073   4.545   3.226
 2481TIP3    H2 7450   4.956   4.464   3.175
 2482TIP3   OH2 7451   2.092   3.637   1.446
 2482TIP3    H1 7452   2.102   3.723   1.485
 2482TIP3    H2 7453   2.048   3.654   1.362
 2483TIP3   OH2 7454   3.375   2.652   0.884
 2483TIP3    H1 7455   3.433   2.695   0.821
 2483TIP3    H2 7456   3.405   2.684   0.969
 2484TIP3   OH2 7457   3.236   1.750   2.244
 2484TIP3    H1 7458   3.159   1.803   2.267
 2484TIP3    H2 7459   3.207   1.660   2.256
 2485TIP3   OH2 7460   0.303   0.502   1.802
 2485TIP3    H1 7461   0.295   0.594   1.826
 2485TIP3    H2 7462   0.213   0.471   1.793
 2486TIP3   OH2 7463   3.573   4.517   1.166
 2486TIP3    H1 7464   3.491   4.499   1.120
 2486TIP3    H2 7465   3.606   4.597   1.124
 2487TIP3   OH2 7466   4.339   4.351   2.763
 2487TIP3    H1 7467   4.276   4.393   2.823
 2487TIP3    H2 7468   4.423   4.390   2.785
 2488TIP3   OH2 7469   6.334   0.472   3.221
 2488TIP3    H1 7470   6.355   0.501   3.310
 2488TIP3    H2 7471   6.249   0.430   3.228
 2489TIP3   OH2 7472   1.207   0.356   4.967
 2489TIP3    H1 7473   1.196   0.438   4.919
 2489TIP3    H2 7474   1.295   0.362   5.005
 2490TIP3   OH2 7475   0.872   0.224   0.072
 2490TIP3    H1 7476   0.875   0.255   0.162
 2490TIP3    H2 7477   0.928   0.146   0.071
 2491TIP3   OH2 7478   0.217   0.879   1.246
 2491TIP3    H1 7479   0.123   0.870   1.256
 2491TIP3    H2 7480   0.253   0.794   1.271
 2492TIP3   OH2 7481   4.368   1.345   2.590
 2492TIP3    H1 7482   4.429   1.272   2.602
 2492TIP3    H2 7483   4.354   1.348   2.495
 2493TIP3   OH2 7484   6.010   4.404   0.964
 2493TIP3    H1 7485   5.942   4.345   0.996
 2493TIP3    H2 7486   5.979   4.432   0.878
 2494TIP3   OH2 7487   2.986   2.532   0.378
 2494TIP3    H1 7488   3.065   2.576   0.348
 2494TIP3    H2 7489   3.017   2.447   0.411
 2495TIP3   OH2 7490   5.472   1.680   2.473
 2495TIP3    H1 7491   5.416   1.619   2.425
 2495TIP3    H2 7492   5.542   1.626   2.508
 2496TIP3   OH2 7493   0.651   3.009   3.544
 2496TIP3    H1 7494   0.585   3.073   3.573
 2496TIP3    H2 7495   0.604   2.926   3.541
 2497TIP3   OH2 7496   4.568   3.670   1.712
 2497TIP3    H1 7497   4.602   3.750   1.752
 2497TIP3    H2 7498   4.625   3.601   1.746
 2498TIP3   OH2 7499   1.476   1.644   4.824
 2498TIP3    H1 7500   1.411   1.698   4.869
 2498TIP3    H2 7501   1.475   1.674   4.734
 2499TIP3   OH2 7502   2.944   2.306   3.547
 2499TIP3    H1 7503   2.936   2.390   3.594
 2499TIP3    H2 7504   2.867   2.256   3.575
 2500TIP3   OH2 7505   2.183   1.741   2.871
 2500TIP3    H1 7506   2.261   1.742   2.815
 2500TIP3    H2 7507   2.117   1.695   2.820
 2501TIP3   OH2 7508   4.024   4.066   0.743
 2501TIP3    H1 7509   3.997   4.010   0.671
 2501TIP3    H2 7510   3.973   4.146   0.731
 2502TIP3   OH2 7511   5.499   1.951   2.497
 2502TIP3    H1 7512   5.507   1.856   2.487
 2502TIP3    H2 7513   5.405   1.966   2.502
 2503TIP3   OH2 7514   0.593   2.090   2.166
 2503TIP3    H1 7515   0.509   2.113   2.206
 2503TIP3    H2 7516   0.591   1.994   2.160
 2504TIP3   OH2 7517   1.829   4.599   5.062
 2504TIP3    H1 7518   1.751   4.608   5.117
 2504TIP3    H2 7519   1.862   4.688   5.052
 2505TIP3   OH2 7520   5.141   2.762   1.726
 2505TIP3    H1 7521   5.127   2.854   1.701
 2505TIP3    H2 7522   5.127   2.713   1.645
 2506TIP3   OH2 7523   3.307   1.486   3.127
 2506TIP3    H1 7524   3.306   1.394   3.101
 2506TIP3    H2 7525   3.226   1.498   3.177
 2507TIP3   OH2 7526   1.375   3.733   2.613
 2507TIP3    H1 7527   1.367   3.828   2.617
 2507TIP3    H2 7528   1.298   3.700   2.659
 2508TIP3   OH2 7529   4.227   5.788   5.028
 2508TIP3    H1 7530   4.262   5.706   4.993
 2508TIP3    H2 7531   4.182   5.762   5.108
 2509TIP3   OH2 7532   6.226   3.952   4.623
 2509TIP3    H1 7533   6.291   3.972   4.690
 2509TIP3    H2 7534   6.241   3.861   4.601
 2510TIP3   OH2 7535   3.319   1.171   4.573
 2510TIP3    H1 7536   3.412   1.176   4.550
 2510TIP3    H2 7537   3.286   1.260   4.561
 2511TIP3   OH2 7538   4.496   3.650   0.914
 2511TIP3    H1 7539   4.536   3.735   0.896
 2511TIP3    H2 7540   4.528   3.593   0.844
 2512TIP3   OH2 7541   4.893   2.157   4.155
 2512TIP3    H1 7542   4.909   2.249   4.133
 2512TIP3    H2 7543   4.859   2.118   4.074
 2513TIP3   OH2 7544   1.221   3.780   0.648
 2513TIP3    H1 7545   1.151   3.801   0.586
 2513TIP3    H2 7546   1.186   3.710   0.702
 2514TIP3   OH2 7547   6.039   1.261   1.302
 2514TIP3    H1 7548   6.073   1.350   1.295
 2514TIP3    H2 7549   5.956   1.270   1.349
 2515TIP3   OH2 7550   6.333   4.094   0.430
 2515TIP3    H1 7551   6.409   4.144   0.398
 2515TIP3    H2 7552   6.346   4.006   0.394
 2516TIP3   OH2 7553   1.891   5.327   5.078
 2516TIP3    H1 7554   1.863   5.293   4.992
 2516TIP3    H2 7555   1.929   5.413   5.059
 2517TIP3   OH2 7556   3.369   2.716   3.152
 2517TIP3    H1 7557   3.362   2.713   3.057
 2517TIP3    H2 7558   3.341   2.629   3.181
 2518TIP3   OH2 7559   5.027   3.981   0.597
 2518TIP3    H1 7560   4.958   4.043   0.573
 2518TIP3    H2 7561   5.074   4.024   0.668
 2519TIP3   OH2 7562   2.058   0.288   2.659
 2519TIP3    H1 7563   2.038   0.195   2.660
 2519TIP3    H2 7564   2.006   0.323   2.586
 2520TIP3   OH2 7565   5.660   5.421   3.721
 2520TIP3    H1 7566   5.664   5.462   3.808
 2520TIP3    H2 7567   5.600   5.476   3.671
 2521TIP3   OH2 7568   5.988   4.921   1.128
 2521TIP3    H1 7569   5.995   5.016   1.122
 2521TIP3    H2 7570   5.903   4.900   1.091
 2522TIP3   OH2 7571   1.571   0.892   1.274
 2522TIP3    H1 7572   1.666   0.902   1.266
 2522TIP3    H2 7573   1.546   0.842   1.196
 2523TIP3   OH2 7574   6.347   5.562   4.746
 2523TIP3    H1 7575   6.328   5.582   4.838
 2523TIP3    H2 7576   6.297   5.628   4.698
 2524TIP3   OH2 7577   5.545   4.654   0.161
 2524TIP3    H1 7578   5.592   4.572   0.178
 2524TIP3    H2 7579   5.573   4.679   0.073
 2525TIP3   OH2 7580   1.499   0.407   1.133
 2525TIP3    H1 7581   1.539   0.484   1.093
 2525TIP3    H2 7582   1.530   0.408   1.224
 2526TIP3   OH2 7583   3.276   4.177   3.275
 2526TIP3    H1 7584   3.206   4.238   3.254
 2526TIP3    H2 7585   3.353   4.232   3.290
 2527TIP3   OH2 7586   4.571   4.249   0.582
 2527TIP3    H1 7587   4.536   4.288   0.662
 2527TIP3    H2 7588   4.567   4.320   0.517
 2528TIP3   OH2 7589   4.733   1.793   4.528
 2528TIP3    H1 7590   4.650   1.802   4.574
 2528TIP3    H2 7591   4.719   1.837   4.444
 2529TIP3   OH2 7592   1.295   3.461   0.585
 2529TIP3    H1 7593   1.200   3.472   0.578
 2529TIP3    H2 7594   1.329   3.497   0.503
 2530TIP3   OH2 7595   0.117   3.674   4.124
 2530TIP3    H1 7596   0.154   3.598   4.078
 2530TIP3    H2 7597   0.186   3.702   4.184
 2531TIP3   OH2 7598   5.874   0.956   2.779
 2531TIP3    H1 7599   5.785   0.919   2.778
 2531TIP3    H2 7600   5.927   0.889   2.823
 2532TIP3   OH2 7601   5.236   0.723   2.418
 2532TIP3    H1 7602   5.227   0.819   2.415
 2532TIP3    H2 7603   5.282   0.701   2.337
 2533TIP3   OH2 7604   5.171   3.417   3.518
 2533TIP3    H1 7605   5.186   3.347   3.582
 2533TIP3    H2 7606   5.256   3.460   3.510
 2534TIP3   OH2 7607   5.636   1.760   0.763
 2534TIP3    H1 7608   5.671   1.800   0.843
 2534TIP3    H2 7609   5.695   1.687   0.745
 2535TIP3   OH2 7610   6.250   3.644   3.866
 2535TIP3    H1 7611   6.164   3.658   3.904
 2535TIP3    H2 7612   6.303   3.717   3.899
 2536TIP3   OH2 7613   6.149   3.244   3.209
 2536TIP3    H1 7614   6.240   3.272   3.205
 2536TIP3    H2 7615   6.103   3.303   3.149
 2537TIP3   OH2 7616   4.829   4.161   0.530
 2537TIP3    H1 7617   4.749   4.205   0.561
 2537TIP3    H2 7618   4.814   4.147   0.437
 2538TIP3   OH2 7619   0.880   3.256   4.636
 2538TIP3    H1 7620   0.854   3.280   4.725
 2538TIP3    H2 7621   0.949   3.318   4.613
 2539TIP3   OH2 7622   6.030   1.445   3.552
 2539TIP3    H1 7623   5.987   1.529   3.535
 2539TIP3    H2 7624   5.986   1.384   3.493
 2540TIP3   OH2 7625   0.667   3.190   2.707
 2540TIP3    H1 7626   0.632   3.139   2.634
 2540TIP3    H2 7627   0.733   3.247   2.667
 2541TIP3   OH2 7628   2.110   2.006   4.341
 2541TIP3    H1 7629   2.106   2.101   4.329
 2541TIP3    H2 7630   2.023   1.975   4.318
 2542TIP3   OH2 7631   0.483   0.479   0.108
 2542TIP3    H1 7632   0.536   0.456   0.185
 2542TIP3    H2 7633   0.436   0.399   0.085
 2543TIP3   OH2 7634   4.303   3.673   1.634
 2543TIP3    H1 7635   4.388   3.700   1.670
 2543TIP3    H2 7636   4.291   3.729   1.557
 2544TIP3   OH2 7637   5.613   1.169   0.513
 2544TIP3    H1 7638   5.518   1.173   0.509
 2544TIP3    H2 7639   5.635   1.204   0.599
 2545TIP3   OH2 7640   5.433   2.303   0.808
 2545TIP3    H1 7641   5.456   2.252   0.886
 2545TIP3    H2 7642   5.376   2.373   0.841
 2546TIP3   OH2 7643   0.386   2.972   1.414
 2546TIP3    H1 7644   0.432   3.056   1.423
 2546TIP3    H2 7645   0.300   2.996   1.378
 2547TIP3   OH2 7646   4.688   5.323   4.182
 2547TIP3    H1 7647   4.694   5.236   4.219
 2547TIP3    H2 7648   4.597   5.329   4.151
 2548TIP3   OH2 7649   2.662   4.441   2.992
 2548TIP3    H1 7650   2.631   4.515   3.043
 2548TIP3    H2 7651   2.585   4.409   2.946
 2549TIP3   OH2 7652   2.652   2.074   3.367
 2549TIP3    H1 7653   2.682   2.152   3.320
 2549TIP3    H2 7654   2.562   2.061   3.338
 2550TIP3   OH2 7655   4.820   4.506   2.653
 2550TIP3    H1 7656   4.881   4.579   2.640
 2550TIP3    H2 7657   4.875   4.429   2.663
 2551TIP3   OH2 7658   1.153   3.680   4.510
 2551TIP3    H1 7659   1.243   3.651   4.499
 2551TIP3    H2 7660   1.135   3.733   4.432
 2552TIP3   OH2 7661   3.584   1.556   1.868
 2552TIP3    H1 7662   3.662   1.608   1.851
 2552TIP3    H2 7663   3.523   1.617   1.910
 2553TIP3   OH2 7664   5.520   1.357   3.262
 2553TIP3    H1 7665   5.551   1.269   3.240
 2553TIP3    H2 7666   5.527   1.362   3.357
 2554TIP3   OH2 7667   0.543   5.488   1.849
 2554TIP3    H1 7668   0.625   5.461   1.810
 2554TIP3    H2 7669   0.566   5.510   1.940
 2555TIP3   OH2 7670   6.203   0.343   4.624
 2555TIP3    H1 7671   6.130   0.323   4.565
 2555TIP3    H2 7672   6.280   0.348   4.567
 2556TIP3   OH2 7673   3.703   2.967   5.079
 2556TIP3    H1 7674   3.737   2.878   5.068
 2556TIP3    H2 7675   3.650   2.963   5.159
 2557TIP3   OH2 7676   0.282   5.678   4.929
 2557TIP3    H1 7677   0.297   5.772   4.939
 2557TIP3    H2 7678   0.330   5.654   4.849
 2558TIP3   OH2 7679   4.539   3.666   2.312
 2558TIP3    H1 7680   4.495   3.583   2.329
 2558TIP3    H2 7681   4.629   3.640   2.289
 2559TIP3   OH2 7682   5.958   0.138   4.699
 2559TIP3    H1 7683   5.972   0.044   4.709
 2559TIP3    H2 7684   5.915   0.148   4.615
 2560TIP3   OH2 7685   3.969   5.251   0.186
 2560TIP3    H1 7686   4.032   5.235   0.256
 2560TIP3    H2 7687   4.009   5.213   0.108
 2561TIP3   OH2 7688   5.736   4.684   0.790
 2561TIP3    H1 7689   5.791   4.617   0.751
 2561TIP3    H2 7690   5.657   4.637   0.817
 2562TIP3   OH2 7691   3.114   3.341   2.721
 2562TIP3    H1 7692   3.173   3.310   2.653
 2562TIP3    H2 7693   3.154   3.313   2.803
 2563TIP3   OH2 7694   5.196   1.656   1.396
 2563TIP3    H1 7695   5.119   1.712   1.390
 2563TIP3    H2 7696   5.162   1.567   1.398
 2564TIP3   OH2 7697   5.345   4.700   2.126
 2564TIP3    H1 7698   5.261   4.684   2.170
 2564TIP3    H2 7699   5.339   4.789   2.094
 2565TIP3   OH2 7700   1.640   4.922   4.465
 2565TIP3    H1 7701   1.596   4.999   4.427
 2565TIP3    H2 7702   1.569   4.869   4.501
 2566TIP3   OH2 7703   1.132   3.661   4.803
 2566TIP3    H1 7704   1.143   3.686   4.711
 2566TIP3    H2 7705   1.040   3.679   4.822
 2567TIP3   OH2 7706   4.080   0.613   2.703
 2567TIP3    H1 7707   4.169   0.580   2.696
 2567TIP3    H2 7708   4.040   0.562   2.774
 2568TIP3   OH2 7709   6.150   0.442   2.927
 2568TIP3    H1 7710   6.139   0.350   2.903
 2568TIP3    H2 7711   6.126   0.446   3.019
 2569TIP3   OH2 7712   6.226   5.152   3.359
 2569TIP3    H1 7713   6.251   5.139   3.268
 2569TIP3    H2 7714   6.158   5.219   3.356
 2570TIP3   OH2 7715   1.082   3.542   0.204
 2570TIP3    H1 7716   1.076   3.630   0.169
 2570TIP3    H2 7717   0.996   3.526   0.244
 2571TIP3   OH2 7718   5.176   4.742   2.394
 2571TIP3    H1 7719   5.235   4.735   2.469
 2571TIP3    H2 7720   5.162   4.836   2.383
 2572TIP3   OH2 7721   3.570   4.865   0.988
 2572TIP3    H1 7722   3.507   4.865   0.916
 2572TIP3    H2 7723   3.653   4.842   0.946
 2573TIP3   OH2 7724   4.601   2.451   4.253
 2573TIP3    H1 7725   4.558   2.435   4.169
 2573TIP3    H2 7726   4.534   2.493   4.306
 2574TIP3   OH2 7727   5.548   1.941   4.175
 2574TIP3    H1 7728   5.571   2.017   4.122
 2574TIP3    H2 7729   5.478   1.971   4.233
 2575TIP3   OH2 7730   0.221   0.137   4.853
 2575TIP3    H1 7731   0.313   0.149   4.830
 2575TIP3    H2 7732   0.193   0.060   4.804
 2576TIP3   OH2 7733   5.220   1.062   0.084
 2576TIP3    H1 7734   5.204   1.060  -0.011
 2576TIP3    H2 7735   5.159   1.127   0.118
 2577TIP3   OH2 7736   2.973   3.080   2.768
 2577TIP3    H1 7737   3.022   3.152   2.728
 2577TIP3    H2 7738   3.041   3.021   2.802
 2578TIP3   OH2 7739   1.416   1.298   0.578
 2578TIP3    H1 7740   1.369   1.221   0.608
 2578TIP3    H2 7741   1.358   1.337   0.512
 2579TIP3   OH2 7742   4.044   1.556   1.487
 2579TIP3    H1 7743   4.112   1.543   1.420
 2579TIP3    H2 7744   4.012   1.468   1.506
 2580TIP3   OH2 7745   2.582   3.513   3.606
 2580TIP3    H1 7746   2.608   3.567   3.531
 2580TIP3    H2 7747   2.574   3.425   3.569
 2581TIP3   OH2 7748   1.044   5.853   1.953
 2581TIP3    H1 7749   1.007   5.809   2.030
 2581TIP3    H2 7750   1.035   5.789   1.883
 2582TIP3   OH2 7751   3.408   5.236   4.640
 2582TIP3    H1 7752   3.394   5.162   4.581
 2582TIP3    H2 7753   3.412   5.312   4.582
 2583TIP3   OH2 7754   1.745   4.595   4.635
 2583TIP3    H1 7755   1.794   4.551   4.564
 2583TIP3    H2 7756   1.765   4.542   4.712
 2584TIP3   OH2 7757   3.507   0.711   2.315
 2584TIP3    H1 7758   3.550   0.792   2.287
 2584TIP3    H2 7759   3.491   0.723   2.409
 2585TIP3   OH2 7760   3.119   1.532   1.869
 2585TIP3    H1 7761   3.064   1.592   1.920
 2585TIP3    H2 7762   3.088   1.445   1.892
 2586TIP3   OH2 7763   5.316   3.866   1.971
 2586TIP3    H1 7764   5.298   3.886   1.880
 2586TIP3    H2 7765   5.284   3.942   2.020
 2587TIP3   OH2 7766   3.959   5.938   2.367
 2587TIP3    H1 7767   3.877   5.977   2.396
 2587TIP3    H2 7768   3.934   5.876   2.299
 2588TIP3   OH2 7769   0.089   4.481   4.613
 2588TIP3    H1 7770   0.017   4.419   4.609
 2588TIP3    H2 7771   0.168   4.427   4.618
 2589TIP3   OH2 7772   5.843   2.806   4.429
 2589TIP3    H1 7773   5.924   2.795   4.379
 2589TIP3    H2 7774   5.775   2.770   4.372
 2590TIP3   OH2 7775   0.261   0.497   2.889
 2590TIP3    H1 7776   0.189   0.558   2.873
 2590TIP3    H2 7777   0.320   0.543   2.948
 2591TIP3   OH2 7778   1.856   0.322   0.953
 2591TIP3    H1 7779   1.865   0.298   1.046
 2591TIP3    H2 7780   1.766   0.297   0.931
 2592TIP3   OH2 7781   0.115   4.684   2.217
 2592TIP3    H1 7782   0.199   4.639   2.226
 2592TIP3    H2 7783   0.107   4.702   2.123
 2593TIP3   OH2 7784   0.536   5.824   0.226
 2593TIP3    H1 7785   0.456   5.816   0.175
 2593TIP3    H2 7786   0.558   5.917   0.223
 2594TIP3   OH2 7787   2.211   5.741   4.371
 2594TIP3    H1 7788   2.203   5.737   4.276
 2594TIP3    H2 7789   2.205   5.834   4.392
 2595TIP3   OH2 7790   2.539   3.376   5.011
 2595TIP3    H1 7791   2.545   3.416   5.098
 2595TIP3    H2 7792   2.618   3.323   5.003
 2596TIP3   OH2 7793   5.874   3.702   4.526
 2596TIP3    H1 7794   5.829   3.781   4.497
 2596TIP3    H2 7795   5.803   3.644   4.556
 2597TIP3   OH2 7796   4.080   0.411   3.428
 2597TIP3    H1 7797   3.996   0.436   3.389
 2597TIP3    H2 7798   4.074   0.316   3.438
 2598TIP3   OH2 7799   0.700   1.162   0.940
 2598TIP3    H1 7800   0.659   1.232   0.991
 2598TIP3    H2 7801   0.783   1.146   0.983
 2599TIP3   OH2 7802   3.117   4.138   0.276
 2599TIP3    H1 7803   3.062   4.169   0.348
 2599TIP3    H2 7804   3.089   4.047   0.262
 2600TIP3   OH2 7805   2.585   1.270   3.082
 2600TIP3    H1 7806   2.645   1.293   3.011
 2600TIP3    H2 7807   2.508   1.324   3.067
 2601TIP3   OH2 7808   5.074   5.890   1.724
 2601TIP3    H1 7809   5.147   5.950   1.711
 2601TIP3    H2 7810   5.096   5.814   1.670
 2602TIP3   OH2 7811   1.113   3.869   3.227
 2602TIP3    H1 7812   1.088   3.886   3.318
 2602TIP3    H2 7813   1.201   3.832   3.233
 2603TIP3   OH2 7814   0.850   2.394   1.689
 2603TIP3    H1 7815   0.891   2.472   1.726
 2603TIP3    H2 7816   0.766   2.388   1.733
 2604TIP3   OH2 7817   2.111   3.132   4.151
 2604TIP3    H1 7818   2.193   3.084   4.138
 2604TIP3    H2 7819   2.138   3.220   4.176
 2605TIP3   OH2 7820   0.503   4.022   4.189
 2605TIP3    H1 7821   0.480   4.114   4.173
 2605TIP3    H2 7822   0.462   3.975   4.117
 2606TIP3   OH2 7823   1.747   4.294   3.547
 2606TIP3    H1 7824   1.662   4.297   3.504
 2606TIP3    H2 7825   1.765   4.385   3.571
 2607TIP3   OH2 7826   1.921   0.930   1.304
 2607TIP3    H1 7827   1.937   0.839   1.329
 2607TIP3    H2 7828   2.005   0.960   1.269
 2608TIP3   OH2 7829   2.979   3.098   0.893
 2608TIP3    H1 7830   3.075   3.107   0.893
 2608TIP3    H2 7831   2.960   3.041   0.818
 2609TIP3   OH2 7832   5.611   4.641   2.263
 2609TIP3    H1 7833   5.680   4.704   2.284
 2609TIP3    H2 7834   5.535   4.694   2.242
 2610TIP3   OH2 7835   2.567   1.456   2.163
 2610TIP3    H1 7836   2.616   1.400   2.103
 2610TIP3    H2 7837   2.632   1.516   2.198
 2611TIP3   OH2 7838   0.773   2.809   2.795
 2611TIP3    H1 7839   0.744   2.719   2.779
 2611TIP3    H2 7840   0.868   2.805   2.786
 2612TIP3   OH2 7841   5.529   4.781   1.311
 2612TIP3    H1 7842   5.445   4.747   1.341
 2612TIP3    H2 7843   5.592   4.747   1.375
 2613TIP3   OH2 7844   2.383   2.172   3.654
 2613TIP3    H1 7845   2.409   2.163   3.746
 2613TIP3    H2 7846   2.368   2.083   3.624
 2614TIP3   OH2 7847   4.223   1.769   2.646
 2614TIP3    H1 7848   4.305   1.731   2.677
 2614TIP3    H2 7849   4.179   1.697   2.602
 2615TIP3   OH2 7850   3.031   2.011   3.217
 2615TIP3    H1 7851   3.104   1.955   3.243
 2615TIP3    H2 7852   3.069   2.073   3.154
 2616TIP3   OH2 7853   1.895   1.830   2.073
 2616TIP3    H1 7854   1.817   1.883   2.057
 2616TIP3    H2 7855   1.861   1.743   2.092
 2617TIP3   OH2 7856   0.462   0.315   1.690
 2617TIP3    H1 7857   0.411   0.388   1.726
 2617TIP3    H2 7858   0.432   0.238   1.740
 2618TIP3   OH2 7859   2.540   4.715   3.476
 2618TIP3    H1 7860   2.630   4.732   3.505
 2618TIP3    H2 7861   2.491   4.791   3.506
 2619TIP3   OH2 7862   1.853   4.713   0.995
 2619TIP3    H1 7863   1.856   4.632   0.945
 2619TIP3    H2 7864   1.931   4.711   1.051
 2620TIP3   OH2 7865   2.114   3.344   2.150
 2620TIP3    H1 7866   2.063   3.425   2.150
 2620TIP3    H2 7867   2.085   3.298   2.230
 2621TIP3   OH2 7868   5.149   2.952   0.238
 2621TIP3    H1 7869   5.068   2.943   0.288
 2621TIP3    H2 7870   5.192   3.030   0.275
 2622TIP3   OH2 7871   5.517   2.058   2.744
 2622TIP3    H1 7872   5.508   2.051   2.649
 2622TIP3    H2 7873   5.579   1.989   2.767
 2623TIP3   OH2 7874   5.649   5.377   2.225
 2623TIP3    H1 7875   5.703   5.446   2.187
 2623TIP3    H2 7876   5.633   5.405   2.315
 2624TIP3   OH2 7877   5.394   4.896   4.006
 2624TIP3    H1 7878   5.350   4.813   3.989
 2624TIP3    H2 7879   5.485   4.880   3.982
 2625TIP3   OH2 7880   1.723   3.345   5.100
 2625TIP3    H1 7881   1.674   3.414   5.057
 2625TIP3    H2 7882   1.690   3.264   5.061
 2626TIP3   OH2 7883   1.260   3.893   0.261
 2626TIP3    H1 7884   1.321   3.967   0.264
 2626TIP3    H2 7885   1.284   3.845   0.182
 2627TIP3   OH2 7886   4.483   5.323   1.078
 2627TIP3    H1 7887   4.480   5.417   1.065
 2627TIP3    H2 7888   4.563   5.308   1.128
 2628TIP3   OH2 7889   2.928   1.863   2.987
 2628TIP3    H1 7890   3.000   1.862   2.924
 2628TIP3    H2 7891   2.960   1.915   3.060
 2629TIP3   OH2 7892   2.407   2.564   0.867
 2629TIP3    H1 7893   2.420   2.653   0.899
 2629TIP3    H2 7894   2.405   2.572   0.772
 2630TIP3   OH2 7895   5.052   0.620   1.640
 2630TIP3    H1 7896   4.962   0.590   1.644
 2630TIP3    H2 7897   5.047   0.706   1.597
 2631TIP3   OH2 7898   3.763   1.634   0.667
 2631TIP3    H1 7899   3.674   1.669   0.673
 2631TIP3    H2 7900   3.774   1.581   0.746
 2632TIP3   OH2 7901   1.181   6.004   4.841
 2632TIP3    H1 7902   1.168   5.917   4.803
 2632TIP3    H2 7903   1.275   6.018   4.838
 2633TIP3   OH2 7904   2.385   5.327   0.701
 2633TIP3    H1 7905   2.365   5.292   0.615
 2633TIP3    H2 7906   2.320   5.395   0.716
 2634TIP3   OH2 7907   5.934   0.824   2.323
 2634TIP3    H1 7908   5.998   0.851   2.258
 2634TIP3    H2 7909   5.850   0.829   2.278
 2635TIP3   OH2 7910   1.994   1.060   2.310
 2635TIP3    H1 7911   2.054   0.994   2.274
 2635TIP3    H2 7912   1.972   1.026   2.397
 2636TIP3   OH2 7913   1.219   4.864   3.684
 2636TIP3    H1 7914   1.213   4.803   3.610
 2636TIP3    H2 7915   1.282   4.929   3.657
 2637TIP3   OH2 7916   4.331   4.227   2.232
 2637TIP3    H1 7917   4.404   4.275   2.194
 2637TIP3    H2 7918   4.346   4.231   2.326
 2638TIP3   OH2 7919   5.317   2.208   1.216
 2638TIP3    H1 7920   5.275   2.160   1.145
 2638TIP3    H2 7921   5.282   2.168   1.296
 2639TIP3   OH2 7922   3.593   5.810   2.894
 2639TIP3    H1 7923   3.666   5.754   2.866
 2639TIP3    H2 7924   3.543   5.755   2.954
 2640TIP3   OH2 7925   1.159   0.759   0.255
 2640TIP3    H1 7926   1.077   0.804   0.231
 2640TIP3    H2 7927   1.150   0.671   0.219
 2641TIP3   OH2 7928   4.851   4.820   0.034
 2641TIP3    H1 7929   4.891   4.817  -0.053
 2641TIP3    H2 7930   4.920   4.853   0.092
 2642TIP3   OH2 7931   3.972   2.957   5.208
 2642TIP3    H1 7932   4.059   2.921   5.228
 2642TIP3    H2 7933   3.982   2.995   5.121
 2643TIP3   OH2 7934   0.863   0.470   3.021
 2643TIP3    H1 7935   0.781   0.518   3.029
 2643TIP3    H2 7936   0.929   0.536   2.999
 2644TIP3   OH2 7937   0.946   5.060   2.739
 2644TIP3    H1 7938   0.852   5.042   2.742
 2644TIP3    H2 7939   0.970   5.051   2.647
 2645TIP3   OH2 7940   0.630   2.280   1.907
 2645TIP3    H1 7941   0.547   2.275   1.860
 2645TIP3    H2 7942   0.608   2.316   1.992
 2646TIP3   OH2 7943   2.528   3.979   2.974
 2646TIP3    H1 7944   2.511   4.070   2.949
 2646TIP3    H2 7945   2.443   3.937   2.968
 2647TIP3   OH2 7946   3.209   2.778   3.900
 2647TIP3    H1 7947   3.295   2.814   3.880
 2647TIP3    H2 7948   3.167   2.846   3.954
 2648TIP3   OH2 7949   5.879   1.738   2.672
 2648TIP3    H1 7950   5.882   1.826   2.635
 2648TIP3    H2 7951   5.886   1.680   2.597
 2649TIP3   OH2 7952   3.645   0.570   1.111
 2649TIP3    H1 7953   3.588   0.570   1.188
 2649TIP3    H2 7954   3.586   0.557   1.037
 2650TIP3   OH2 7955   1.984   5.519   1.278
 2650TIP3    H1 7956   2.017   5.435   1.310
 2650TIP3    H2 7957   2.053   5.582   1.301
 2651TIP3   OH2 7958   4.534   5.860   2.450
 2651TIP3    H1 7959   4.536   5.923   2.377
 2651TIP3    H2 7960   4.611   5.882   2.502
 2652TIP3   OH2 7961   5.473   4.786   4.899
 2652TIP3    H1 7962   5.566   4.782   4.918
 2652TIP3    H2 7963   5.456   4.879   4.883
 2653TIP3   OH2 7964   5.429   1.033   2.567
 2653TIP3    H1 7965   5.344   1.028   2.525
 2653TIP3    H2 7966   5.475   1.103   2.520
 2654TIP3   OH2 7967   4.101   4.991   4.119
 2654TIP3    H1 7968   4.087   4.897   4.107
 2654TIP3    H2 7969   4.089   5.027   4.031
 2655TIP3   OH2 7970   4.341   4.531   1.245
 2655TIP3    H1 7971   4.403   4.598   1.215
 2655TIP3    H2 7972   4.259   4.579   1.258
 2656TIP3   OH2 7973   4.418   5.911   4.699
 2656TIP3    H1 7974   4.478   5.898   4.626
 2656TIP3    H2 7975   4.344   5.853   4.679
 2657TIP3   OH2 7976   5.677   0.751   4.311
 2657TIP3    H1 7977   5.581   0.740   4.313
 2657TIP3    H2 7978   5.690   0.834   4.265
 2658TIP3   OH2 7979   5.485   4.175   4.018
 2658TIP3    H1 7980   5.393   4.183   4.041
 2658TIP3    H2 7981   5.507   4.258   3.976
 2659TIP3   OH2 7982   4.988   4.053   3.875
 2659TIP3    H1 7983   4.997   4.103   3.956
 2659TIP3    H2 7984   4.894   4.036   3.867
 2660TIP3   OH2 7985   3.358   4.687   3.721
 2660TIP3    H1 7986   3.378   4.635   3.798
 2660TIP3    H2 7987   3.415   4.764   3.729
 2661TIP3   OH2 7988   0.368   4.818   1.506
 2661TIP3    H1 7989   0.339   4.731   1.534
 2661TIP3    H2 7990   0.450   4.802   1.459
 2662TIP3   OH2 7991   5.253   5.843   0.846
 2662TIP3    H1 7992   5.202   5.860   0.925
 2662TIP3    H2 7993   5.219   5.905   0.782
 2663TIP3   OH2 7994   0.834   5.381   4.726
 2663TIP3    H1 7995   0.802   5.359   4.814
 2663TIP3    H2 7996   0.790   5.463   4.705
 2664TIP3   OH2 7997   2.730   2.524   2.907
 2664TIP3    H1 7998   2.638   2.501   2.905
 2664TIP3    H2 7999   2.750   2.537   3.000
 2665TIP3   OH2 8000   3.887   1.060   1.542
 2665TIP3    H1 8001   3.947   1.055   1.468
 2665TIP3    H2 8002   3.944   1.069   1.619
 2666TIP3   OH2 8003   0.768   1.815   1.090
 2666TIP3    H1 8004   0.771   1.725   1.124
 2666TIP3    H2 8005   0.860   1.841   1.083
 2667TIP3   OH2 8006   4.796   5.907   1.653
 2667TIP3    H1 8007   4.773   5.817   1.628
 2667TIP3    H2 8008   4.876   5.898   1.704
 2668TIP3   OH2 8009   2.458   3.177   0.945
 2668TIP3    H1 8010   2.472   3.264   0.907
 2668TIP3    H2 8011   2.391   3.137   0.889
 2669TIP3   OH2 8012   4.774   2.744   0.169
 2669TIP3    H1 8013   4.687   2.777   0.145
 2669TIP3    H2 8014   4.821   2.821   0.202
 2670TIP3   OH2 8015   1.895   4.897   3.314
 2670TIP3    H1 8016   1.847   4.873   3.235
 2670TIP3    H2 8017   1.829   4.900   3.382
 2671TIP3   OH2 8018   1.985   2.690   0.873
 2671TIP3    H1 8019   1.917   2.676   0.807
 2671TIP3    H2 8020   1.937   2.709   0.954
 2672TIP3   OH2 8021   1.198   2.274   4.589
 2672TIP3    H1 8022   1.294   2.283   4.591
 2672TIP3    H2 8023   1.175   2.291   4.497
 2673TIP3   OH2 8024   5.591   4.418   1.896
 2673TIP3    H1 8025   5.567   4.369   1.817
 2673TIP3    H2 8026   5.677   4.383   1.921
 2674TIP3   OH2 8027   1.767   2.500   3.533
 2674TIP3    H1 8028   1.671   2.491   3.528
 2674TIP3    H2 8029   1.796   2.488   3.442
 2675TIP3   OH2 8030   4.831   2.025   1.158
 2675TIP3    H1 8031   4.736   2.023   1.152
 2675TIP3    H2 8032   4.855   1.941   1.197
 2676TIP3   OH2 8033   4.088   2.534   2.704
 2676TIP3    H1 8034   4.177   2.563   2.683
 2676TIP3    H2 8035   4.099   2.475   2.779
 2677TIP3   OH2 8036   1.967   3.572   2.057
 2677TIP3    H1 8037   1.882   3.589   2.015
 2677TIP3    H2 8038   2.008   3.658   2.062
 2678TIP3   OH2 8039   3.827   5.652   2.928
 2678TIP3    H1 8040   3.813   5.563   2.896
 2678TIP3    H2 8041   3.872   5.641   3.012
 2679TIP3   OH2 8042   2.194   2.164   4.600
 2679TIP3    H1 8043   2.161   2.139   4.686
 2679TIP3    H2 8044   2.116   2.183   4.548
 2680TIP3   OH2 8045   6.318   2.742   2.748
 2680TIP3    H1 8046   6.346   2.668   2.694
 2680TIP3    H2 8047   6.300   2.812   2.685
 2681TIP3   OH2 8048   1.106   2.863   0.759
 2681TIP3    H1 8049   1.120   2.779   0.803
 2681TIP3    H2 8050   1.021   2.893   0.791
 2682TIP3   OH2 8051   1.264   2.469   0.121
 2682TIP3    H1 8052   1.275   2.545   0.064
 2682TIP3    H2 8053   1.288   2.394   0.066
 2683TIP3   OH2 8054   5.538   3.657   5.147
 2683TIP3    H1 8055   5.583   3.703   5.076
 2683TIP3    H2 8056   5.445   3.673   5.131
 2684TIP3   OH2 8057   3.680   0.853   2.509
 2684TIP3    H1 8058   3.647   0.835   2.597
 2684TIP3    H2 8059   3.761   0.902   2.523
 2685TIP3   OH2 8060   1.043   1.912   4.377
 2685TIP3    H1 8061   0.971   1.946   4.430
 2685TIP3    H2 8062   1.039   1.817   4.388
 2686TIP3   OH2 8063   4.991   5.937   5.185
 2686TIP3    H1 8064   4.944   5.998   5.128
 2686TIP3    H2 8065   5.035   5.992   5.249
 2687TIP3   OH2 8066   4.755   1.967   3.621
 2687TIP3    H1 8067   4.666   1.935   3.636
 2687TIP3    H2 8068   4.768   1.957   3.527
 2688TIP3   OH2 8069   3.586   2.511   3.473
 2688TIP3    H1 8070   3.592   2.540   3.564
 2688TIP3    H2 8071   3.571   2.591   3.423
 2689TIP3   OH2 8072   3.846   0.397   3.965
 2689TIP3    H1 8073   3.907   0.438   3.904
 2689TIP3    H2 8074   3.763   0.395   3.918
 2690TIP3   OH2 8075   4.830   5.250   0.945
 2690TIP3    H1 8076   4.822   5.315   0.876
 2690TIP3    H2 8077   4.869   5.298   1.018
 2691TIP3   OH2 8078   3.014   4.141   4.104
 2691TIP3    H1 8079   2.980   4.169   4.019
 2691TIP3    H2 8080   3.077   4.071   4.082
 2692TIP3   OH2 8081   2.703   1.314   4.206
 2692TIP3    H1 8082   2.643   1.270   4.266
 2692TIP3    H2 8083   2.678   1.407   4.210
 2693TIP3   OH2 8084   1.247   2.579   0.364
 2693TIP3    H1 8085   1.212   2.664   0.338
 2693TIP3    H2 8086   1.248   2.528   0.283
 2694TIP3   OH2 8087   4.609   3.385   1.110
 2694TIP3    H1 8088   4.589   3.392   1.017
 2694TIP3    H2 8089   4.675   3.452   1.126
 2695TIP3   OH2 8090   4.326   2.205   4.687
 2695TIP3    H1 8091   4.346   2.118   4.721
 2695TIP3    H2 8092   4.349   2.265   4.758
 2696TIP3   OH2 8093   1.456   5.340   2.013
 2696TIP3    H1 8094   1.400   5.263   2.025
 2696TIP3    H2 8095   1.543   5.311   2.038
 2697TIP3   OH2 8096   2.667   0.232   1.600
 2697TIP3    H1 8097   2.736   0.273   1.549
 2697TIP3    H2 8098   2.592   0.292   1.592
 2698TIP3   OH2 8099   0.793   4.642   1.557
 2698TIP3    H1 8100   0.725   4.575   1.560
 2698TIP3    H2 8101   0.780   4.687   1.474
 2699TIP3   OH2 8102   1.205   2.451   2.182
 2699TIP3    H1 8103   1.219   2.468   2.089
 2699TIP3    H2 8104   1.203   2.537   2.223
 2700TIP3   OH2 8105   5.229   4.390   2.988
 2700TIP3    H1 8106   5.294   4.450   2.952
 2700TIP3    H2 8107   5.181   4.442   3.052
 2701TIP3   OH2 8108   6.091   3.045   4.098
 2701TIP3    H1 8109   6.020   3.106   4.080
 2701TIP3    H2 8110   6.163   3.100   4.128
 2702TIP3   OH2 8111   3.376   5.667   2.324
 2702TIP3    H1 8112   3.448   5.657   2.385
 2702TIP3    H2 8113   3.415   5.656   2.237
 2703TIP3   OH2 8114   0.099   5.859   2.487
 2703TIP3    H1 8115   0.142   5.842   2.570
 2703TIP3    H2 8116   0.152   5.813   2.422
 2704TIP3   OH2 8117   5.582   5.032   0.885
 2704TIP3    H1 8118   5.563   4.999   0.973
 2704TIP3    H2 8119   5.499   5.066   0.853
 2705TIP3   OH2 8120   1.302   1.534   2.021
 2705TIP3    H1 8121   1.251   1.585   1.958
 2705TIP3    H2 8122   1.328   1.455   1.973
 2706TIP3   OH2 8123   0.050   3.868   3.925
 2706TIP3    H1 8124   0.129   3.858   3.872
 2706TIP3    H2 8125   0.070   3.822   4.007
 2707TIP3   OH2 8126   3.951   5.466   4.189
 2707TIP3    H1 8127   4.001   5.385   4.183
 2707TIP3    H2 8128   3.957   5.490   4.282
 2708TIP3   OH2 8129   6.130   2.684   3.921
 2708TIP3    H1 8130   6.042   2.698   3.955
 2708TIP3    H2 8131   6.170   2.619   3.979
 2709TIP3   OH2 8132   1.260   2.275   3.962
 2709TIP3    H1 8133   1.178   2.319   3.939
 2709TIP3    H2 8134   1.250   2.186   3.926
 2710TIP3   OH2 8135   5.965   3.990   4.570
 2710TIP3    H1 8136   5.958   4.074   4.523
 2710TIP3    H2 8137   6.059   3.981   4.588
 2711TIP3   OH2 8138   5.889   0.055   1.870
 2711TIP3    H1 8139   5.795   0.054   1.888
 2711TIP3    H2 8140   5.926   0.108   1.941
 2712TIP3   OH2 8141   0.124   0.761   4.426
 2712TIP3    H1 8142   0.179   0.826   4.469
 2712TIP3    H2 8143   0.035   0.795   4.434
 2713TIP3   OH2 8144   5.009   0.873   1.534
 2713TIP3    H1 8145   4.929   0.892   1.485
 2713TIP3    H2 8146   5.016   0.944   1.598
 2714TIP3   OH2 8147   0.765   2.200   0.089
 2714TIP3    H1 8148   0.779   2.148   0.010
 2714TIP3    H2 8149   0.716   2.277   0.059
 2715TIP3   OH2 8150   4.480   5.256   3.314
 2715TIP3    H1 8151   4.429   5.200   3.372
 2715TIP3    H2 8152   4.541   5.196   3.271
 2716TIP3   OH2 8153   3.025   0.745   4.291
 2716TIP3    H1 8154   2.981   0.665   4.261
 2716TIP3    H2 8155   3.070   0.720   4.371
 2717TIP3   OH2 8156   5.739   5.093   0.484
 2717TIP3    H1 8157   5.652   5.060   0.507
 2717TIP3    H2 8158   5.753   5.066   0.393
 2718TIP3   OH2 8159   2.955   1.297   2.195
 2718TIP3    H1 8160   2.899   1.320   2.120
 2718TIP3    H2 8161   3.044   1.302   2.161
 2719TIP3   OH2 8162   0.030   4.193   1.244
 2719TIP3    H1 8163   0.117   4.164   1.216
 2719TIP3    H2 8164   0.003   4.255   1.176
 2720TIP3   OH2 8165   4.600   5.095   0.926
 2720TIP3    H1 8166   4.684   5.140   0.935
 2720TIP3    H2 8167   4.540   5.144   0.982
 2721TIP3   OH2 8168   3.255   3.951   3.449
 2721TIP3    H1 8169   3.292   3.881   3.394
 2721TIP3    H2 8170   3.270   4.031   3.399
 2722TIP3   OH2 8171   4.255   1.652   3.420
 2722TIP3    H1 8172   4.347   1.648   3.394
 2722TIP3    H2 8173   4.248   1.593   3.495
 2723TIP3   OH2 8174   3.343   2.591   1.300
 2723TIP3    H1 8175   3.259   2.636   1.299
 2723TIP3    H2 8176   3.399   2.643   1.243
 2724TIP3   OH2 8177   2.740   2.536   1.639
 2724TIP3    H1 8178   2.771   2.477   1.570
 2724TIP3    H2 8179   2.645   2.525   1.639
 2725TIP3   OH2 8180   4.811   2.159   1.734
 2725TIP3    H1 8181   4.787   2.151   1.827
 2725TIP3    H2 8182   4.902   2.189   1.736
 2726TIP3   OH2 8183   3.727   2.948   3.980
 2726TIP3    H1 8184   3.809   2.928   4.026
 2726TIP3    H2 8185   3.661   2.894   4.024
 2727TIP3   OH2 8186   1.040   1.279   4.297
 2727TIP3    H1 8187   0.968   1.314   4.244
 2727TIP3    H2 8188   1.003   1.273   4.385
 2728TIP3   OH2 8189   6.277   3.538   0.320
 2728TIP3    H1 8190   6.260   3.541   0.414
 2728TIP3    H2 8191   6.323   3.619   0.301
 2729TIP3   OH2 8192   0.280   3.929   0.478
 2729TIP3    H1 8193   0.216   3.903   0.412
 2729TIP3    H2 8194   0.248   3.890   0.559
 2730TIP3   OH2 8195   4.883   3.000   1.751
 2730TIP3    H1 8196   4.950   3.058   1.786
 2730TIP3    H2 8197   4.835   3.054   1.687
 2731TIP3   OH2 8198   2.820   3.677   4.403
 2731TIP3    H1 8199   2.852   3.693   4.314
 2731TIP3    H2 8200   2.810   3.764   4.441
 2732TIP3   OH2 8201   3.062   0.193   1.904
 2732TIP3    H1 8202   3.029   0.150   1.825
 2732TIP3    H2 8203   3.039   0.133   1.975
 2733TIP3   OH2 8204   1.620   4.167   0.057
 2733TIP3    H1 8205   1.665   4.224  -0.006
 2733TIP3    H2 8206   1.668   4.180   0.138
 2734TIP3   OH2 8207   2.126   3.264   1.884
 2734TIP3    H1 8208   2.098   3.277   1.975
 2734TIP3    H2 8209   2.173   3.345   1.862
 2735TIP3   OH2 8210   1.083   0.900   4.722
 2735TIP3    H1 8211   1.111   0.968   4.662
 2735TIP3    H2 8212   1.003   0.865   4.683
 2736TIP3   OH2 8213   4.733   2.295   1.496
 2736TIP3    H1 8214   4.749   2.234   1.569
 2736TIP3    H2 8215   4.736   2.381   1.537
 2737TIP3   OH2 8216   1.631   3.044   3.995
 2737TIP3    H1 8217   1.650   3.130   3.959
 2737TIP3    H2 8218   1.576   3.002   3.929
 2738TIP3   OH2 8219   5.476   3.082   0.705
 2738TIP3    H1 8220   5.561   3.062   0.667
 2738TIP3    H2 8221   5.468   3.177   0.698
 2739TIP3   OH2 8222   3.700   4.521   3.410
 2739TIP3    H1 8223   3.690   4.596   3.469
 2739TIP3    H2 8224   3.721   4.561   3.325
 2740TIP3   OH2 8225   5.083   2.496   4.087
 2740TIP3    H1 8226   5.076   2.569   4.148
 2740TIP3    H2 8227   5.160   2.447   4.115
 2741TIP3   OH2 8228   3.842   3.639   2.948
 2741TIP3    H1 8229   3.869   3.550   2.971
 2741TIP3    H2 8230   3.860   3.691   3.026
 2742TIP3   OH2 8231   2.908   5.125   2.649
 2742TIP3    H1 8232   2.889   5.157   2.738
 2742TIP3    H2 8233   2.852   5.178   2.592
 2743TIP3   OH2 8234   3.943   1.047   0.899
 2743TIP3    H1 8235   3.919   1.081   0.813
 2743TIP3    H2 8236   3.861   1.047   0.948
 2744TIP3   OH2 8237   2.120   5.495   0.719
 2744TIP3    H1 8238   2.128   5.547   0.799
 2744TIP3    H2 8239   2.035   5.451   0.726
 2745TIP3   OH2 8240   2.242   0.796   0.725
 2745TIP3    H1 8241   2.186   0.739   0.779
 2745TIP3    H2 8242   2.221   0.771   0.635
 2746TIP3   OH2 8243   4.972   5.680   4.995
 2746TIP3    H1 8244   4.896   5.659   4.941
 2746TIP3    H2 8245   5.043   5.628   4.958
 2747TIP3   OH2 8246   1.481   0.821   3.461
 2747TIP3    H1 8247   1.537   0.898   3.450
 2747TIP3    H2 8248   1.507   0.761   3.391
 2748TIP3   OH2 8249   6.132   0.342   3.517
 2748TIP3    H1 8250   6.102   0.317   3.604
 2748TIP3    H2 8251   6.121   0.437   3.514
 2749TIP3   OH2 8252   2.838   0.182   4.361
 2749TIP3    H1 8253   2.838   0.178   4.265
 2749TIP3    H2 8254   2.764   0.238   4.382
 2750TIP3   OH2 8255   5.526   1.440   3.008
 2750TIP3    H1 8256   5.540   1.415   3.099
 2750TIP3    H2 8257   5.507   1.357   2.964
 2751TIP3   OH2 8258   2.285   4.761   2.331
 2751TIP3    H1 8259   2.275   4.855   2.317
 2751TIP3    H2 8260   2.196   4.730   2.348
 2752TIP3   OH2 8261   6.154   5.406   1.651
 2752TIP3    H1 8262   6.131   5.409   1.558
 2752TIP3    H2 8263   6.090   5.463   1.693
 2753TIP3   OH2 8264   5.147   5.585   1.037
 2753TIP3    H1 8265   5.114   5.671   1.064
 2753TIP3    H2 8266   5.241   5.590   1.049
 2754TIP3   OH2 8267   5.272   3.395   4.283
 2754TIP3    H1 8268   5.199   3.373   4.341
 2754TIP3    H2 8269   5.327   3.454   4.334
 2755TIP3   OH2 8270   1.466   2.376   2.282
 2755TIP3    H1 8271   1.386   2.385   2.230
 2755TIP3    H2 8272   1.533   2.352   2.217
 2756TIP3   OH2 8273   6.008   4.019   4.952
 2756TIP3    H1 8274   5.957   3.970   4.887
 2756TIP3    H2 8275   6.031   3.954   5.018
 2757TIP3   OH2 8276   6.219   5.398   1.228
 2757TIP3    H1 8277   6.184   5.447   1.154
 2757TIP3    H2 8278   6.292   5.451   1.259
 2758TIP3   OH2 8279   3.543   2.957   2.039
 2758TIP3    H1 8280   3.525   2.868   2.069
 2758TIP3    H2 8281   3.463   2.984   1.995
 2759TIP3   OH2 8282   1.488   4.288   2.999
 2759TIP3    H1 8283   1.575   4.323   3.015
 2759TIP3    H2 8284   1.429   4.360   3.019
 2760TIP3   OH2 8285   4.839   3.160   2.473
 2760TIP3    H1 8286   4.762   3.104   2.469
 2760TIP3    H2 8287   4.806   3.246   2.497
 2761TIP3   OH2 8288   2.428   2.555   3.291
 2761TIP3    H1 8289   2.451   2.513   3.374
 2761TIP3    H2 8290   2.488   2.629   3.285
 2762TIP3   OH2 8291   6.230   3.561   2.575
 2762TIP3    H1 8292   6.144   3.562   2.616
 2762TIP3    H2 8293   6.288   3.604   2.637
 2763TIP3   OH2 8294   2.448   0.563   1.138
 2763TIP3    H1 8295   2.543   0.574   1.133
 2763TIP3    H2 8296   2.421   0.620   1.209
 2764TIP3   OH2 8297   4.676   1.751   0.714
 2764TIP3    H1 8298   4.701   1.797   0.794
 2764TIP3    H2 8299   4.593   1.708   0.736
 2765TIP3   OH2 8300   2.390   3.076   1.786
 2765TIP3    H1 8301   2.343   3.080   1.870
 2765TIP3    H2 8302   2.351   3.002   1.740
 2766TIP3   OH2 8303   4.788   5.684   0.245
 2766TIP3    H1 8304   4.779   5.716   0.335
 2766TIP3    H2 8305   4.881   5.690   0.226
 2767TIP3   OH2 8306   4.921   2.154   3.469
 2767TIP3    H1 8307   4.862   2.133   3.396
 2767TIP3    H2 8308   4.997   2.195   3.428
 2768TIP3   OH2 8309   0.747   0.289   3.819
 2768TIP3    H1 8310   0.804   0.362   3.843
 2768TIP3    H2 8311   0.670   0.298   3.876
 2769TIP3   OH2 8312   2.974   3.135   0.145
 2769TIP3    H1 8313   3.004   3.222   0.117
 2769TIP3    H2 8314   2.888   3.152   0.184
 2770TIP3   OH2 8315   5.821   4.933   0.259
 2770TIP3    H1 8316   5.854   4.857   0.211
 2770TIP3    H2 8317   5.730   4.910   0.280
 2771TIP3   OH2 8318   1.420   0.534   1.609
 2771TIP3    H1 8319   1.439   0.628   1.610
 2771TIP3    H2 8320   1.413   0.509   1.701
 2772TIP3   OH2 8321   3.146   1.684   2.522
 2772TIP3    H1 8322   3.145   1.601   2.474
 2772TIP3    H2 8323   3.096   1.744   2.467
 2773TIP3   OH2 8324   5.259   5.950   0.039
 2773TIP3    H1 8325   5.295   5.889  -0.025
 2773TIP3    H2 8326   5.329   5.959   0.105
 2774TIP3   OH2 8327   3.633   0.647   1.744
 2774TIP3    H1 8328   3.604   0.707   1.813
 2774TIP3    H2 8329   3.673   0.574   1.791
 2775TIP3   OH2 8330   3.932   3.567   1.885
 2775TIP3    H1 8331   3.938   3.524   1.799
 2775TIP3    H2 8332   3.974   3.506   1.945
 2776TIP3   OH2 8333   3.347   0.755   3.301
 2776TIP3    H1 8334   3.323   0.802   3.380
 2776TIP3    H2 8335   3.435   0.786   3.280
 2777TIP3   OH2 8336   3.420   5.906   3.840
 2777TIP3    H1 8337   3.420   5.957   3.759
 2777TIP3    H2 8338   3.331   5.873   3.848
 2778TIP3   OH2 8339   1.790   4.864   4.708
 2778TIP3    H1 8340   1.782   4.930   4.639
 2778TIP3    H2 8341   1.793   4.781   4.660
 2779TIP3   OH2 8342   1.890   0.562   3.649
 2779TIP3    H1 8343   1.910   0.536   3.559
 2779TIP3    H2 8344   1.801   0.598   3.645
 2780TIP3   OH2 8345   2.835   4.279   4.421
 2780TIP3    H1 8346   2.819   4.339   4.494
 2780TIP3    H2 8347   2.754   4.282   4.370
 2781TIP3   OH2 8348   4.856   4.185   0.982
 2781TIP3    H1 8349   4.923   4.118   0.995
 2781TIP3    H2 8350   4.790   4.166   1.049
 2782TIP3   OH2 8351   5.382   0.845   2.161
 2782TIP3    H1 8352   5.423   0.883   2.084
 2782TIP3    H2 8353   5.304   0.800   2.128
 2783TIP3   OH2 8354   0.936   1.708   2.311
 2783TIP3    H1 8355   0.917   1.792   2.269
 2783TIP3    H2 8356   0.885   1.644   2.261
 2784TIP3   OH2 8357   1.021   4.799   3.866
 2784TIP3    H1 8358   0.939   4.842   3.842
 2784TIP3    H2 8359   1.085   4.832   3.802
 2785TIP3   OH2 8360   0.044   1.763   3.384
 2785TIP3    H1 8361   0.085   1.678   3.390
 2785TIP3    H2 8362   0.116   1.825   3.378
 2786TIP3   OH2 8363   0.164   1.929   1.465
 2786TIP3    H1 8364   0.121   2.013   1.483
 2786TIP3    H2 8365   0.094   1.865   1.468
 2787TIP3   OH2 8366   2.986   2.329   2.125
 2787TIP3    H1 8367   3.074   2.309   2.094
 2787TIP3    H2 8368   2.995   2.337   2.220
 2788TIP3   OH2 8369   2.039   1.827   3.088
 2788TIP3    H1 8370   1.960   1.774   3.079
 2788TIP3    H2 8371   2.095   1.800   3.016
 2789TIP3   OH2 8372   3.347   1.622   0.244
 2789TIP3    H1 8373   3.320   1.630   0.153
 2789TIP3    H2 8374   3.267   1.600   0.291
 2790TIP3   OH2 8375   3.368   5.938   2.282
 2790TIP3    H1 8376   3.294   5.974   2.233
 2790TIP3    H2 8377   3.342   5.848   2.302
 2791TIP3   OH2 8378   3.775   1.619   4.428
 2791TIP3    H1 8379   3.853   1.570   4.402
 2791TIP3    H2 8380   3.702   1.559   4.408
 2792TIP3   OH2 8381   5.289   4.883   1.943
 2792TIP3    H1 8382   5.245   4.808   1.903
 2792TIP3    H2 8383   5.217   4.936   1.978
 2793TIP3   OH2 8384   3.949   1.216   0.280
 2793TIP3    H1 8385   3.925   1.163   0.204
 2793TIP3    H2 8386   3.901   1.298   0.268
 2794TIP3   OH2 8387   2.198   0.087   1.884
 2794TIP3    H1 8388   2.186   0.023   1.954
 2794TIP3    H2 8389   2.247   0.159   1.925
 2795TIP3   OH2 8390   4.342   1.876   0.693
 2795TIP3    H1 8391   4.350   1.789   0.656
 2795TIP3    H2 8392   4.311   1.930   0.620
 2796TIP3   OH2 8393   3.893   0.459   4.441
 2796TIP3    H1 8394   3.886   0.520   4.513
 2796TIP3    H2 8395   3.967   0.403   4.464
 2797TIP3   OH2 8396   5.769   3.862   3.701
 2797TIP3    H1 8397   5.840   3.903   3.750
 2797TIP3    H2 8398   5.694   3.864   3.761
 2798TIP3   OH2 8399   0.169   1.134   2.685
 2798TIP3    H1 8400   0.257   1.107   2.710
 2798TIP3    H2 8401   0.121   1.051   2.674
 2799TIP3   OH2 8402   5.376   5.237   3.706
 2799TIP3    H1 8403   5.331   5.223   3.622
 2799TIP3    H2 8404   5.363   5.330   3.724
 2800TIP3   OH2 8405   2.732   0.333   4.998
 2800TIP3    H1 8406   2.767   0.250   5.030
 2800TIP3    H2 8407   2.808   0.390   4.986
 2801TIP3   OH2 8408   4.844   5.376   3.268
 2801TIP3    H1 8409   4.875   5.466   3.258
 2801TIP3    H2 8410   4.761   5.383   3.315
 2802TIP3   OH2 8411   3.646   3.594   3.789
 2802TIP3    H1 8412   3.675   3.588   3.698
 2802TIP3    H2 8413   3.557   3.558   3.788
 2803TIP3   OH2 8414   4.730   5.073   0.112
 2803TIP3    H1 8415   4.771   4.987   0.123
 2803TIP3    H2 8416   4.660   5.075   0.176
 2804TIP3   OH2 8417   4.625   4.618   5.070
 2804TIP3    H1 8418   4.604   4.580   4.985
 2804TIP3    H2 8419   4.583   4.705   5.068
 2805TIP3   OH2 8420   3.542   5.621   2.124
 2805TIP3    H1 8421   3.518   5.536   2.088
 2805TIP3    H2 8422   3.602   5.658   2.059
 2806TIP3   OH2 8423   3.501   2.219   1.373
 2806TIP3    H1 8424   3.553   2.222   1.453
 2806TIP3    H2 8425   3.410   2.217   1.403
 2807TIP3   OH2 8426   0.291   3.978   2.134
 2807TIP3    H1 8427   0.213   4.007   2.181
 2807TIP3    H2 8428   0.359   3.972   2.201
 2808TIP3   OH2 8429   1.784   3.755   3.142
 2808TIP3    H1 8430   1.746   3.842   3.136
 2808TIP3    H2 8431   1.779   3.732   3.235
 2809TIP3   OH2 8432   4.772   2.450   2.781
 2809TIP3    H1 8433   4.815   2.394   2.717
 2809TIP3    H2 8434   4.690   2.475   2.739
 2810TIP3   OH2 8435   5.759   5.017   4.149
 2810TIP3    H1 8436   5.805   5.038   4.230
 2810TIP3    H2 8437   5.671   4.992   4.177
 2811TIP3   OH2 8438   2.510   4.754   1.707
 2811TIP3    H1 8439   2.533   4.688   1.773
 2811TIP3    H2 8440   2.505   4.706   1.625
 2812TIP3   OH2 8441   6.400   3.781   2.212
 2812TIP3    H1 8442   6.433   3.778   2.302
 2812TIP3    H2 8443   6.340   3.855   2.211
 2813TIP3   OH2 8444   2.287   4.713   0.369
 2813TIP3    H1 8445   2.208   4.761   0.390
 2813TIP3    H2 8446   2.347   4.778   0.332
 2814TIP3   OH2 8447   2.062   5.735   0.897
 2814TIP3    H1 8448   2.087   5.782   0.818
 2814TIP3    H2 8449   2.133   5.753   0.959
 2815TIP3   OH2 8450   5.528   0.606   3.275
 2815TIP3    H1 8451   5.521   0.557   3.357
 2815TIP3    H2 8452   5.491   0.547   3.209
 2816TIP3   OH2 8453   3.471   1.260   2.475
 2816TIP3    H1 8454   3.461   1.296   2.563
 2816TIP3    H2 8455   3.401   1.196   2.466
 2817TIP3   OH2 8456   5.803   4.467   2.200
 2817TIP3    H1 8457   5.722   4.518   2.205
 2817TIP3    H2 8458   5.775   4.383   2.163
 2818TIP3   OH2 8459   3.495   1.441   0.895
 2818TIP3    H1 8460   3.459   1.394   0.970
 2818TIP3    H2 8461   3.508   1.374   0.828
 2819TIP3   OH2 8462   3.270   1.484   4.803
 2819TIP3    H1 8463   3.252   1.424   4.876
 2819TIP3    H2 8464   3.204   1.462   4.737
 2820TIP3   OH2 8465   3.062   2.268   3.948
 2820TIP3    H1 8466   3.135   2.326   3.927
 2820TIP3    H2 8467   3.030   2.299   4.033
 2821TIP3   OH2 8468   4.227   4.547   2.566
 2821TIP3    H1 8469   4.268   4.478   2.617
 2821TIP3    H2 8470   4.227   4.513   2.476
 2822TIP3   OH2 8471   1.661   0.596   1.408
 2822TIP3    H1 8472   1.634   0.509   1.437
 2822TIP3    H2 8473   1.634   0.655   1.478
 2823TIP3   OH2 8474   3.624   4.207   3.293
 2823TIP3    H1 8475   3.641   4.136   3.354
 2823TIP3    H2 8476   3.591   4.278   3.347
 2824TIP3   OH2 8477   5.763   4.369   0.411
 2824TIP3    H1 8478   5.695   4.429   0.442
 2824TIP3    H2 8479   5.718   4.286   0.398
 2825TIP3   OH2 8480   5.100   2.842   3.970
 2825TIP3    H1 8481   5.115   2.861   3.878
 2825TIP3    H2 8482   5.005   2.833   3.979
 2826TIP3   OH2 8483   3.479   5.894   1.628
 2826TIP3    H1 8484   3.457   5.932   1.543
 2826TIP3    H2 8485   3.442   5.806   1.626
 2827TIP3   OH2 8486   2.797   0.333   1.140
 2827TIP3    H1 8487   2.848   0.302   1.215
 2827TIP3    H2 8488   2.779   0.255   1.089
 2828TIP3   OH2 8489   0.351   3.853   4.023
 2828TIP3    H1 8490   0.412   3.825   3.955
 2828TIP3    H2 8491   0.300   3.775   4.044
 2829TIP3   OH2 8492   3.944   4.008   4.774
 2829TIP3    H1 8493   3.992   3.940   4.821
 2829TIP3    H2 8494   3.953   3.985   4.682
 2830TIP3   OH2 8495   2.050   3.896   4.208
 2830TIP3    H1 8496   2.035   3.874   4.300
 2830TIP3    H2 8497   2.119   3.837   4.180
 2831TIP3   OH2 8498   3.487   2.725   0.130
 2831TIP3    H1 8499   3.473   2.818   0.147
 2831TIP3    H2 8500   3.582   2.716   0.120
 2832TIP3   OH2 8501   3.781   2.294   2.816
 2832TIP3    H1 8502   3.742   2.328   2.896
 2832TIP3    H2 8503   3.739   2.344   2.746
 2833TIP3   OH2 8504   5.908   3.377   3.601
 2833TIP3    H1 8505   5.990   3.383   3.552
 2833TIP3    H2 8506   5.897   3.465   3.639
 2834TIP3   OH2 8507   1.112   0.656   1.609
 2834TIP3    H1 8508   1.171   0.630   1.539
 2834TIP3    H2 8509   1.099   0.750   1.597
 2835TIP3   OH2 8510   5.508   0.948   1.930
 2835TIP3    H1 8511   5.516   0.956   1.835
 2835TIP3    H2 8512   5.548   1.028   1.964
 2836TIP3   OH2 8513   3.915   5.666   0.331
 2836TIP3    H1 8514   3.875   5.705   0.409
 2836TIP3    H2 8515   3.845   5.663   0.266
 2837TIP3   OH2 8516   3.535   1.697   4.708
 2837TIP3    H1 8517   3.520   1.603   4.703
 2837TIP3    H2 8518   3.492   1.732   4.630
 2838TIP3   OH2 8519   3.096   0.299   3.872
 2838TIP3    H1 8520   3.101   0.238   3.799
 2838TIP3    H2 8521   3.004   0.324   3.876
 2839TIP3   OH2 8522   1.565   3.969   3.648
 2839TIP3    H1 8523   1.477   3.945   3.675
 2839TIP3    H2 8524   1.611   3.987   3.730
 2840TIP3   OH2 8525   5.016   5.099   2.568
 2840TIP3    H1 8526   5.100   5.145   2.574
 2840TIP3    H2 8527   4.972   5.140   2.493
 2841TIP3   OH2 8528   5.907   1.189   0.637
 2841TIP3    H1 8529   5.870   1.107   0.671
 2841TIP3    H2 8530   5.890   1.186   0.543
 2842TIP3   OH2 8531   4.918   3.148   5.148
 2842TIP3    H1 8532   4.834   3.145   5.102
 2842TIP3    H2 8533   4.980   3.108   5.087
 2843TIP3   OH2 8534   0.455   2.424   4.422
 2843TIP3    H1 8535   0.428   2.476   4.498
 2843TIP3    H2 8536   0.545   2.399   4.441
 2844TIP3   OH2 8537   0.831   2.754   3.307
 2844TIP3    H1 8538   0.853   2.798   3.225
 2844TIP3    H2 8539   0.869   2.667   3.299
 2845TIP3   OH2 8540   5.201   2.008   4.706
 2845TIP3    H1 8541   5.114   1.979   4.679
 2845TIP3    H2 8542   5.187   2.091   4.750
 2846TIP3   OH2 8543  -0.077   3.291   2.220
 2846TIP3    H1 8544  -0.078   3.376   2.266
 2846TIP3    H2 8545  -0.001   3.296   2.162
 2847TIP3   OH2 8546   5.171   1.107   0.492
 2847TIP3    H1 8547   5.237   1.176   0.488
 2847TIP3    H2 8548   5.088   1.151   0.472
 2848TIP3   OH2 8549   2.908   4.076   0.545
 2848TIP3    H1 8550   2.895   3.982   0.542
 2848TIP3    H2 8551   2.963   4.091   0.622
 2849TIP3   OH2 8552   2.249   5.468   3.079
 2849TIP3    H1 8553   2.283   5.418   3.005
 2849TIP3    H2 8554   2.157   5.483   3.059
 2850TIP3   OH2 8555   5.511   2.336   1.500
 2850TIP3    H1 8556   5.526   2.424   1.465
 2850TIP3    H2 8557   5.593   2.289   1.482
 2851TIP3   OH2 8558   3.978   0.307   2.669
 2851TIP3    H1 8559   4.019   0.260   2.596
 2851TIP3    H2 8560   4.039   0.296   2.742
 2852TIP3   OH2 8561   5.883   0.276   0.502
 2852TIP3    H1 8562   5.919   0.203   0.452
 2852TIP3    H2 8563   5.946   0.347   0.489
 2853TIP3   OH2 8564   2.671   1.458   3.293
 2853TIP3    H1 8565   2.766   1.468   3.303
 2853TIP3    H2 8566   2.659   1.365   3.272
 2854TIP3   OH2 8567   4.166   2.589   0.844
 2854TIP3    H1 8568   4.133   2.500   0.826
 2854TIP3    H2 8569   4.260   2.583   0.829
 2855TIP3   OH2 8570   3.109   2.135   1.833
 2855TIP3    H1 8571   3.158   2.146   1.751
 2855TIP3    H2 8572   3.140   2.052   1.869
 2856TIP3   OH2 8573   3.098   3.033   3.513
 2856TIP3    H1 8574   3.061   3.052   3.427
 2856TIP3    H2 8575   3.175   2.980   3.495
 2857TIP3   OH2 8576   2.486   3.694   0.904
 2857TIP3    H1 8577   2.554   3.714   0.840
 2857TIP3    H2 8578   2.533   3.682   0.986
 2858TIP3   OH2 8579   0.787   2.055   2.466
 2858TIP3    H1 8580   0.799   2.108   2.387
 2858TIP3    H2 8581   0.706   2.006   2.449
 2859TIP3   OH2 8582   3.891   5.593   4.414
 2859TIP3    H1 8583   3.856   5.673   4.452
 2859TIP3    H2 8584   3.817   5.553   4.368
 2860TIP3   OH2 8585   5.992   3.499   4.820
 2860TIP3    H1 8586   5.978   3.511   4.726
 2860TIP3    H2 8587   5.904   3.504   4.858
 2861TIP3   OH2 8588   0.991   1.013   3.534
 2861TIP3    H1 8589   1.073   0.968   3.551
 2861TIP3    H2 8590   1.006   1.062   3.454
 2862TIP3   OH2 8591   4.350   2.947   1.636
 2862TIP3    H1 8592   4.292   2.873   1.623
 2862TIP3    H2 8593   4.359   2.987   1.550
 2863TIP3   OH2 8594   0.327   3.529   3.979
 2863TIP3    H1 8595   0.414   3.557   3.952
 2863TIP3    H2 8596   0.342   3.454   4.036
 2864TIP3   OH2 8597   0.207   2.961   3.300
 2864TIP3    H1 8598   0.139   2.962   3.232
 2864TIP3    H2 8599   0.200   2.875   3.340
 2865TIP3   OH2 8600   3.400   1.008   0.547
 2865TIP3    H1 8601   3.390   1.095   0.507
 2865TIP3    H2 8602   3.473   1.019   0.609
 2866TIP3   OH2 8603   5.014   1.810   1.258
 2866TIP3    H1 8604   4.942   1.774   1.206
 2866TIP3    H2 8605   5.092   1.800   1.204
 2867TIP3   OH2 8606   0.753   1.891   4.803
 2867TIP3    H1 8607   0.766   1.815   4.859
 2867TIP3    H2 8608   0.712   1.956   4.860
 2868TIP3   OH2 8609   2.528   5.874   4.222
 2868TIP3    H1 8610   2.459   5.900   4.161
 2868TIP3    H2 8611   2.594   5.943   4.214
 2869TIP3   OH2 8612   4.939   3.051   4.577
 2869TIP3    H1 8613   4.869   3.074   4.638
 2869TIP3    H2 8614   4.906   2.974   4.531
 2870TIP3   OH2 8615   5.080   0.779   4.888
 2870TIP3    H1 8616   5.086   0.829   4.807
 2870TIP3    H2 8617   5.010   0.717   4.873
 2871TIP3   OH2 8618   1.641   1.574   0.285
 2871TIP3    H1 8619   1.554   1.598   0.255
 2871TIP3    H2 8620   1.626   1.516   0.360
 2872TIP3   OH2 8621   6.234   1.753   4.015
 2872TIP3    H1 8622   6.266   1.828   4.065
 2872TIP3    H2 8623   6.307   1.691   4.014
 2873TIP3   OH2 8624   6.061   4.857   3.698
 2873TIP3    H1 8625   6.098   4.810   3.773
 2873TIP3    H2 8626   6.126   4.845   3.629
 2874TIP3   OH2 8627   1.885   3.849   3.853
 2874TIP3    H1 8628   1.977   3.824   3.864
 2874TIP3    H2 8629   1.843   3.822   3.934
 2875TIP3   OH2 8630   4.421   3.240   3.906
 2875TIP3    H1 8631   4.452   3.150   3.919
 2875TIP3    H2 8632   4.496   3.286   3.868
 2876TIP3   OH2 8633   0.349   1.027   2.464
 2876TIP3    H1 8634   0.380   1.017   2.554
 2876TIP3    H2 8635   0.256   1.050   2.473
 2877TIP3   OH2 8636   2.326   5.459   3.349
 2877TIP3    H1 8637   2.282   5.386   3.392
 2877TIP3    H2 8638   2.304   5.449   3.256
 2878TIP3   OH2 8639   6.286   3.258   1.242
 2878TIP3    H1 8640   6.217   3.230   1.182
 2878TIP3    H2 8641   6.241   3.315   1.305
 2879TIP3   OH2 8642   3.026   0.952   2.110
 2879TIP3    H1 8643   3.067   0.898   2.042
 2879TIP3    H2 8644   3.067   0.922   2.192
 2880TIP3   OH2 8645   2.090   3.812   1.748
 2880TIP3    H1 8646   2.139   3.763   1.814
 2880TIP3    H2 8647   2.048   3.883   1.796
 2881TIP3   OH2 8648   2.092   5.211   1.841
 2881TIP3    H1 8649   2.174   5.227   1.793
 2881TIP3    H2 8650   2.079   5.291   1.892
 2882TIP3   OH2 8651   0.977   4.234   0.984
 2882TIP3    H1 8652   0.999   4.147   0.949
 2882TIP3    H2 8653   0.977   4.222   1.079
 2883TIP3   OH2 8654   1.000   4.581   3.164
 2883TIP3    H1 8655   0.967   4.670   3.149
 2883TIP3    H2 8656   0.921   4.526   3.162
 2884TIP3   OH2 8657   2.232   3.041   1.157
 2884TIP3    H1 8658   2.209   3.134   1.157
 2884TIP3    H2 8659   2.273   3.027   1.072
 2885TIP3   OH2 8660   1.893   2.975   4.026
 2885TIP3    H1 8661   1.945   3.026   4.088
 2885TIP3    H2 8662   1.803   3.004   4.040
 2886TIP3   OH2 8663   2.447   3.575   0.568
 2886TIP3    H1 8664   2.489   3.515   0.507
 2886TIP3    H2 8665   2.437   3.657   0.519
 2887TIP3   OH2 8666   4.024   0.226   1.079
 2887TIP3    H1 8667   3.972   0.306   1.073
 2887TIP3    H2 8668   3.969   0.165   1.128
 2888TIP3   OH2 8669   2.869   4.469   4.120
 2888TIP3    H1 8670   2.780   4.435   4.126
 2888TIP3    H2 8671   2.876   4.530   4.194
 2889TIP3   OH2 8672   6.134   4.760   3.950
 2889TIP3    H1 8673   6.044   4.754   3.981
 2889TIP3    H2 8674   6.187   4.765   4.030
 2890TIP3   OH2 8675   1.490   4.798   2.510
 2890TIP3    H1 8676   1.510   4.746   2.588
 2890TIP3    H2 8677   1.414   4.850   2.534
 2891TIP3   OH2 8678   3.264   0.299   4.990
 2891TIP3    H1 8679   3.311   0.249   5.056
 2891TIP3    H2 8680   3.313   0.382   4.985
 2892TIP3   OH2 8681   4.808   2.246   4.465
 2892TIP3    H1 8682   4.846   2.301   4.396
 2892TIP3    H2 8683   4.719   2.228   4.435
 2893TIP3   OH2 8684   2.102   1.704   1.242
 2893TIP3    H1 8685   2.079   1.794   1.220
 2893TIP3    H2 8686   2.024   1.653   1.221
 2894TIP3   OH2 8687   4.674   2.057   2.967
 2894TIP3    H1 8688   4.623   1.998   3.023
 2894TIP3    H2 8689   4.657   2.026   2.878
 2895TIP3   OH2 8690   5.579   0.924   2.799
 2895TIP3    H1 8691   5.533   0.920   2.715
 2895TIP3    H2 8692   5.509   0.925   2.864
 2896TIP3   OH2 8693   6.339   2.114   3.733
 2896TIP3    H1 8694   6.362   2.084   3.645
 2896TIP3    H2 8695   6.288   2.042   3.770
 2897TIP3   OH2 8696   4.967   4.247   2.692
 2897TIP3    H1 8697   5.049   4.294   2.675
 2897TIP3    H2 8698   4.984   4.158   2.662
 2898TIP3   OH2 8699   0.307   4.858   5.019
 2898TIP3    H1 8700   0.285   4.777   4.972
 2898TIP3    H2 8701   0.390   4.886   4.981
 2899TIP3   OH2 8702   2.222   2.777   0.119
 2899TIP3    H1 8703   2.160   2.723   0.071
 2899TIP3    H2 8704   2.181   2.864   0.121
 2900TIP3   OH2 8705   0.764   3.400   0.062
 2900TIP3    H1 8706   0.712   3.329   0.024
 2900TIP3    H2 8707   0.716   3.480   0.041
 2901TIP3   OH2 8708   2.480   5.823   3.303
 2901TIP3    H1 8709   2.397   5.800   3.262
 2901TIP3    H2 8710   2.517   5.740   3.332
 2902TIP3   OH2 8711   5.243   1.598   4.528
 2902TIP3    H1 8712   5.277   1.518   4.567
 2902TIP3    H2 8713   5.315   1.631   4.475
 2903TIP3   OH2 8714   3.588   4.253   1.129
 2903TIP3    H1 8715   3.592   4.348   1.126
 2903TIP3    H2 8716   3.523   4.234   1.198
 2904TIP3   OH2 8717   4.826   0.876   4.625
 2904TIP3    H1 8718   4.891   0.808   4.640
 2904TIP3    H2 8719   4.864   0.954   4.665
 2905TIP3   OH2 8720   1.593   3.423   3.654
 2905TIP3    H1 8721   1.670   3.473   3.679
 2905TIP3    H2 8722   1.556   3.471   3.580
 2906TIP3   OH2 8723   6.044   0.091   0.367
 2906TIP3    H1 8724   6.003   0.056   0.288
 2906TIP3    H2 8725   6.038   0.020   0.431
 2907TIP3   OH2 8726   2.121   0.730   0.483
 2907TIP3    H1 8727   2.172   0.742   0.403
 2907TIP3    H2 8728   2.089   0.817   0.505
 2908TIP3   OH2 8729   2.002   3.335   0.312
 2908TIP3    H1 8730   1.911   3.359   0.296
 2908TIP3    H2 8731   2.009   3.326   0.407
 2909TIP3   OH2 8732   3.647   3.418   4.876
 2909TIP3    H1 8733   3.735   3.456   4.873
 2909TIP3    H2 8734   3.662   3.325   4.895
 2910TIP3   OH2 8735   1.688   5.113   0.994
 2910TIP3    H1 8736   1.598   5.140   0.976
 2910TIP3    H2 8737   1.734   5.195   1.009
 2911TIP3   OH2 8738   1.272   4.260   4.662
 2911TIP3    H1 8739   1.204   4.197   4.636
 2911TIP3    H2 8740   1.284   4.244   4.756
 2912TIP3   OH2 8741   4.873   2.200   2.370
 2912TIP3    H1 8742   4.862   2.122   2.316
 2912TIP3    H2 8743   4.794   2.252   2.354
 2913TIP3   OH2 8744   3.605   5.610   3.625
 2913TIP3    H1 8745   3.570   5.521   3.618
 2913TIP3    H2 8746   3.558   5.659   3.558
 2914TIP3   OH2 8747   4.151   5.759   3.142
 2914TIP3    H1 8748   4.121   5.685   3.195
 2914TIP3    H2 8749   4.191   5.819   3.205
 2915TIP3   OH2 8750   1.981   2.768   0.300
 2915TIP3    H1 8751   2.066   2.731   0.278
 2915TIP3    H2 8752   1.942   2.793   0.216
 2916TIP3   OH2 8753   2.489   3.797   0.373
 2916TIP3    H1 8754   2.455   3.727   0.316
 2916TIP3    H2 8755   2.548   3.847   0.317
 2917TIP3   OH2 8756   2.281   4.379   1.667
 2917TIP3    H1 8757   2.204   4.335   1.630
 2917TIP3    H2 8758   2.245   4.445   1.726
 2918TIP3   OH2 8759   4.887   0.207   4.902
 2918TIP3    H1 8760   4.841   0.152   4.838
 2918TIP3    H2 8761   4.817   0.254   4.947
 2919TIP3   OH2 8762   6.197   1.860   3.777
 2919TIP3    H1 8763   6.177   1.794   3.710
 2919TIP3    H2 8764   6.202   1.811   3.859
 2920TIP3   OH2 8765   2.854   3.263   1.308
 2920TIP3    H1 8766   2.913   3.194   1.339
 2920TIP3    H2 8767   2.844   3.247   1.214
 2921TIP3   OH2 8768   4.447   0.121   2.139
 2921TIP3    H1 8769   4.542   0.130   2.146
 2921TIP3    H2 8770   4.430   0.027   2.146
 2922TIP3   OH2 8771   2.841   3.178   2.081
 2922TIP3    H1 8772   2.927   3.215   2.058
 2922TIP3    H2 8773   2.861   3.112   2.147
 2923TIP3   OH2 8774   3.702   0.785   4.177
 2923TIP3    H1 8775   3.665   0.777   4.265
 2923TIP3    H2 8776   3.765   0.714   4.171
 2924TIP3   OH2 8777   3.211   4.206   1.588
 2924TIP3    H1 8778   3.154   4.282   1.601
 2924TIP3    H2 8779   3.151   4.132   1.580
 2925TIP3   OH2 8780   3.651   1.836   1.219
 2925TIP3    H1 8781   3.721   1.777   1.247
 2925TIP3    H2 8782   3.576   1.812   1.274
 2926TIP3   OH2 8783   0.685   2.384   4.769
 2926TIP3    H1 8784   0.602   2.348   4.737
 2926TIP3    H2 8785   0.711   2.447   4.702
 2927TIP3   OH2 8786   4.221   4.085   0.079
 2927TIP3    H1 8787   4.136   4.097   0.035
 2927TIP3    H2 8788   4.285   4.112   0.013
 2928TIP3   OH2 8789   1.751   2.843   0.183
 2928TIP3    H1 8790   1.751   2.912   0.250
 2928TIP3    H2 8791   1.691   2.776   0.217
 2929TIP3   OH2 8792   1.732   2.433   3.880
 2929TIP3    H1 8793   1.642   2.421   3.849
 2929TIP3    H2 8794   1.784   2.373   3.826
 2930TIP3   OH2 8795   6.013   5.399   1.395
 2930TIP3    H1 8796   6.092   5.412   1.343
 2930TIP3    H2 8797   5.941   5.429   1.339
 2931TIP3   OH2 8798   4.048   2.373   3.886
 2931TIP3    H1 8799   4.015   2.283   3.884
 2931TIP3    H2 8800   3.980   2.422   3.932
 2932TIP3   OH2 8801   6.176   1.520   5.067
 2932TIP3    H1 8802   6.230   1.539   5.145
 2932TIP3    H2 8803   6.175   1.602   5.018
 2933TIP3   OH2 8804   5.667   0.264   3.560
 2933TIP3    H1 8805   5.715   0.291   3.639
 2933TIP3    H2 8806   5.730   0.215   3.509
 2934TIP3   OH2 8807   5.401   4.408   0.284
 2934TIP3    H1 8808   5.338   4.464   0.239
 2934TIP3    H2 8809   5.452   4.468   0.338
 2935TIP3   OH2 8810   1.480   1.289   1.408
 2935TIP3    H1 8811   1.565   1.285   1.451
 2935TIP3    H2 8812   1.457   1.197   1.392
 2936TIP3   OH2 8813   4.412   3.625  -0.036
 2936TIP3    H1 8814   4.328   3.621   0.009
 2936TIP3    H2 8815   4.477   3.601   0.030
 2937TIP3   OH2 8816   3.603   0.867   5.231
 2937TIP3    H1 8817   3.534   0.904   5.175
 2937TIP3    H2 8818   3.653   0.810   5.173
 2938TIP3   OH2 8819   0.365   0.778   3.525
 2938TIP3    H1 8820   0.449   0.741   3.553
 2938TIP3    H2 8821   0.341   0.726   3.448
 2939TIP3   OH2 8822   4.009   0.205   5.165
 2939TIP3    H1 8823   4.069   0.132   5.152
 2939TIP3    H2 8824   3.925   0.172   5.135
 2940TIP3   OH2 8825   1.390   5.417   3.667
 2940TIP3    H1 8826   1.380   5.499   3.716
 2940TIP3    H2 8827   1.484   5.398   3.672
 2941TIP3   OH2 8828   1.555   3.319   0.532
 2941TIP3    H1 8829   1.469   3.347   0.562
 2941TIP3    H2 8830   1.540   3.288   0.443
 2942TIP3   OH2 8831   4.887   4.525   0.471
 2942TIP3    H1 8832   4.860   4.546   0.381
 2942TIP3    H2 8833   4.981   4.512   0.465
 2943TIP3   OH2 8834   1.390   1.637   0.829
 2943TIP3    H1 8835   1.441   1.557   0.826
 2943TIP3    H2 8836   1.412   1.677   0.914
 2944TIP3   OH2 8837   1.990   4.242   0.073
 2944TIP3    H1 8838   2.051   4.308   0.108
 2944TIP3    H2 8839   1.910   4.254   0.125
 2945TIP3   OH2 8840   5.281   3.385   1.720
 2945TIP3    H1 8841   5.261   3.478   1.712
 2945TIP3    H2 8842   5.318   3.377   1.809
 2946TIP3   OH2 8843   0.484   5.078   2.430
 2946TIP3    H1 8844   0.431   5.064   2.351
 2946TIP3    H2 8845   0.429   5.046   2.501
 2947TIP3   OH2 8846   0.909   5.538   4.431
 2947TIP3    H1 8847   0.818   5.536   4.461
 2947TIP3    H2 8848   0.918   5.621   4.384
 2948TIP3   OH2 8849   5.968   3.254   4.241
 2948TIP3    H1 8850   6.025   3.311   4.190
 2948TIP3    H2 8851   5.985   3.279   4.332
 2949TIP3   OH2 8852   0.422   3.207   4.962
 2949TIP3    H1 8853   0.498   3.152   4.982
 2949TIP3    H2 8854   0.348   3.163   5.004
 2950TIP3   OH2 8855   2.502   0.839   0.504
 2950TIP3    H1 8856   2.446   0.907   0.467
 2950TIP3    H2 8857   2.497   0.767   0.441
 2951TIP3   OH2 8858   0.837   1.312   1.611
 2951TIP3    H1 8859   0.841   1.243   1.677
 2951TIP3    H2 8860   0.769   1.371   1.642
 2952TIP3   OH2 8861   4.578   3.098   2.572
 2952TIP3    H1 8862   4.538   3.131   2.652
 2952TIP3    H2 8863   4.574   3.002   2.582
 2953TIP3   OH2 8864   2.722   5.327   2.712
 2953TIP3    H1 8865   2.680   5.274   2.644
 2953TIP3    H2 8866   2.666   5.404   2.720
 2954TIP3   OH2 8867   5.118   2.056   3.926
 2954TIP3    H1 8868   5.121   2.030   4.018
 2954TIP3    H2 8869   5.180   1.997   3.883
 2955TIP3   OH2 8870   0.287   0.486   4.840
 2955TIP3    H1 8871   0.216   0.519   4.786
 2955TIP3    H2 8872   0.244   0.432   4.906
 2956TIP3   OH2 8873   3.113   3.785   0.362
 2956TIP3    H1 8874   3.058   3.809   0.288
 2956TIP3    H2 8875   3.131   3.692   0.349
 2957TIP3   OH2 8876   6.307   0.824   1.197
 2957TIP3    H1 8877   6.273   0.899   1.148
 2957TIP3    H2 8878   6.231   0.786   1.239
 2958TIP3   OH2 8879   1.058   2.306   3.509
 2958TIP3    H1 8880   1.119   2.239   3.479
 2958TIP3    H2 8881   1.111   2.385   3.516
 2959TIP3   OH2 8882   6.312   1.403   1.068
 2959TIP3    H1 8883   6.334   1.336   1.004
 2959TIP3    H2 8884   6.234   1.446   1.032
 2960TIP3   OH2 8885   2.363   3.396   3.956
 2960TIP3    H1 8886   2.442   3.372   3.908
 2960TIP3    H2 8887   2.389   3.392   4.048
 2961TIP3   OH2 8888   5.166   1.060   2.756
 2961TIP3    H1 8889   5.126   0.980   2.792
 2961TIP3    H2 8890   5.222   1.092   2.827
 2962TIP3   OH2 8891   2.412   3.994   1.499
 2962TIP3    H1 8892   2.419   3.901   1.480
 2962TIP3    H2 8893   2.444   4.038   1.420
 2963TIP3   OH2 8894   4.723   5.500   1.394
 2963TIP3    H1 8895   4.732   5.593   1.373
 2963TIP3    H2 8896   4.731   5.455   1.309
 2964TIP3   OH2 8897   2.108   0.313   1.158
 2964TIP3    H1 8898   2.029   0.279   1.201
 2964TIP3    H2 8899   2.111   0.268   1.074
 2965TIP3   OH2 8900   3.531   4.554   0.413
 2965TIP3    H1 8901   3.570   4.568   0.499
 2965TIP3    H2 8902   3.572   4.620   0.356
 2966TIP3   OH2 8903   0.738   5.377   5.000
 2966TIP3    H1 8904   0.701   5.465   5.005
 2966TIP3    H2 8905   0.744   5.347   5.090
 2967TIP3   OH2 8906   0.479   3.755   4.787
 2967TIP3    H1 8907   0.544   3.772   4.854
 2967TIP3    H2 8908   0.500   3.817   4.717
 2968TIP3   OH2 8909   1.858   2.730   2.516
 2968TIP3    H1 8910   1.823   2.699   2.599
 2968TIP3    H2 8911   1.796   2.699   2.450
 2969TIP3   OH2 8912   6.002   4.074   5.238
 2969TIP3    H1 8913   6.044   3.992   5.212
 2969TIP3    H2 8914   5.911   4.064   5.211
 2970TIP3   OH2 8915   5.289   4.245   1.106
 2970TIP3    H1 8916   5.270   4.233   1.013
 2970TIP3    H2 8917   5.224   4.307   1.137
 2971TIP3   OH2 8918   0.084   5.456   1.456
 2971TIP3    H1 8919   0.163   5.501   1.486
 2971TIP3    H2 8920   0.035   5.440   1.536
 2972TIP3   OH2 8921   1.745   3.117   1.802
 2972TIP3    H1 8922   1.839   3.132   1.790
 2972TIP3    H2 8923   1.709   3.205   1.815
 2973TIP3   OH2 8924   5.853   0.705   2.560
 2973TIP3    H1 8925   5.861   0.770   2.490
 2973TIP3    H2 8926   5.940   0.666   2.566
 2974TIP3   OH2 8927   1.063   0.574   2.390
 2974TIP3    H1 8928   0.993   0.522   2.350
 2974TIP3    H2 8929   1.049   0.566   2.484
 2975TIP3   OH2 8930   1.920   3.690   4.950
 2975TIP3    H1 8931   1.898   3.753   5.018
 2975TIP3    H2 8932   2.000   3.724   4.910
 2976TIP3   OH2 8933   1.021   5.973   0.238
 2976TIP3    H1 8934   0.948   5.947   0.181
 2976TIP3    H2 8935   1.094   5.920   0.208
 2977TIP3   OH2 8936   5.281   4.691   0.232
 2977TIP3    H1 8937   5.375   4.706   0.239
 2977TIP3    H2 8938   5.244   4.778   0.215
 2978TIP3   OH2 8939   5.479   4.898   1.085
 2978TIP3    H1 8940   5.392   4.861   1.067
 2978TIP3    H2 8941   5.502   4.862   1.171
 2979TIP3   OH2 8942   2.808   6.041   0.702
 2979TIP3    H1 8943   2.772   6.020   0.788
 2979TIP3    H2 8944   2.833   5.956   0.665
 2980TIP3   OH2 8945   0.861   3.721   4.623
 2980TIP3    H1 8946   0.882   3.670   4.545
 2980TIP3    H2 8947   0.782   3.680   4.658
 2981TIP3   OH2 8948   0.652   1.189   0.056
 2981TIP3    H1 8949   0.709   1.187  -0.021
 2981TIP3    H2 8950   0.650   1.281   0.082
 2982TIP3   OH2 8951   1.334   4.897   0.585
 2982TIP3    H1 8952   1.332   4.833   0.514
 2982TIP3    H2 8953   1.279   4.969   0.554
 2983TIP3   OH2 8954   3.037   4.813   3.099
 2983TIP3    H1 8955   3.026   4.875   3.026
 2983TIP3    H2 8956   2.964   4.834   3.158
 2984TIP3   OH2 8957   3.237   4.823   2.360
 2984TIP3    H1 8958   3.261   4.830   2.453
 2984TIP3    H2 8959   3.209   4.732   2.350
 2985TIP3   OH2 8960   6.307   0.825   3.326
 2985TIP3    H1 8961   6.223   0.784   3.305
 2985TIP3    H2 8962   6.287   0.919   3.331
 2986TIP3   OH2 8963   3.731   2.164   2.373
 2986TIP3    H1 8964   3.776   2.171   2.289
 2986TIP3    H2 8965   3.667   2.094   2.361
 2987TIP3   OH2 8966   5.971   4.329   2.746
 2987TIP3    H1 8967   6.017   4.385   2.683
 2987TIP3    H2 8968   6.033   4.258   2.765
 2988TIP3   OH2 8969   5.761   1.671   1.747
 2988TIP3    H1 8970   5.822   1.698   1.678
 2988TIP3    H2 8971   5.674   1.691   1.711
 2989TIP3   OH2 8972   3.472   3.631   1.056
 2989TIP3    H1 8973   3.540   3.575   1.092
 2989TIP3    H2 8974   3.438   3.679   1.133
 2990TIP3   OH2 8975   6.325   5.198   1.760
 2990TIP3    H1 8976   6.252   5.261   1.762
 2990TIP3    H2 8977   6.349   5.194   1.667
 2991TIP3   OH2 8978   2.445   3.138   0.155
 2991TIP3    H1 8979   2.386   3.136   0.231
 2991TIP3    H2 8980   2.395   3.184   0.088
 2992TIP3   OH2 8981   2.584   1.082   2.093
 2992TIP3    H1 8982   2.566   1.110   2.003
 2992TIP3    H2 8983   2.524   1.008   2.107
 2993TIP3   OH2 8984   4.332   2.390   1.010
 2993TIP3    H1 8985   4.337   2.384   0.914
 2993TIP3    H2 8986   4.247   2.351   1.032
 2994TIP3   OH2 8987   2.014   3.986   1.254
 2994TIP3    H1 8988   1.925   4.001   1.284
 2994TIP3    H2 8989   2.062   3.957   1.332
 2995TIP3   OH2 8990   6.026   1.434   1.922
 2995TIP3    H1 8991   5.966   1.400   1.856
 2995TIP3    H2 8992   6.026   1.529   1.908
 2996TIP3   OH2 8993   6.040   2.344   0.583
 2996TIP3    H1 8994   6.081   2.288   0.649
 2996TIP3    H2 8995   5.950   2.312   0.578
 2997TIP3   OH2 8996   0.753   4.885   2.060
 2997TIP3    H1 8997   0.760   4.789   2.059
 2997TIP3    H2 8998   0.680   4.904   2.001
 2998TIP3   OH2 8999   5.367   2.340   2.469
 2998TIP3    H1 9000   5.272   2.351   2.475
 2998TIP3    H2 9001   5.393   2.304   2.554
 2999TIP3   OH2 9002   1.034   0.316   1.511
 2999TIP3    H1 9003   0.991   0.348   1.590
 2999TIP3    H2 9004   1.127   0.311   1.535
 3000TIP3   OH2 9005   3.539   5.028   4.208
 3000TIP3    H1 9006   3.599   4.989   4.145
 3000TIP3    H2 9007   3.557   5.121   4.205
 3001TIP3   OH2 9008   1.305   3.403   5.133
 3001TIP3    H1 9009   1.350   3.413   5.217
 3001TIP3    H2 9010   1.271   3.490   5.113
 3002TIP3   OH2 9011   2.701   5.290   0.457
 3002TIP3    H1 9012   2.780   5.239   0.437
 3002TIP3    H2 9013   2.684   5.339   0.376
 3003TIP3   OH2 9014   0.819   1.542   4.483
 3003TIP3    H1 9015   0.840   1.450   4.494
 3003TIP3    H2 9016   0.760   1.563   4.556
 3004TIP3   OH2 9017   4.946   2.274   1.069
 3004TIP3    H1 9018   4.942   2.284   1.165
 3004TIP3    H2 9019   4.883   2.204   1.050
 3005TIP3   OH2 9020   3.087   5.820   5.162
 3005TIP3    H1 9021   3.006   5.819   5.212
 3005TIP3    H2 9022   3.073   5.884   5.093
 3006TIP3   OH2 9023   5.184   3.943   1.521
 3006TIP3    H1 9024   5.155   3.890   1.447
 3006TIP3    H2 9025   5.266   3.984   1.492
 3007TIP3   OH2 9026   4.799   3.699   0.279
 3007TIP3    H1 9027   4.805   3.604   0.286
 3007TIP3    H2 9028   4.854   3.732   0.350
 3008TIP3   OH2 9029   0.674   3.502   3.653
 3008TIP3    H1 9030   0.724   3.469   3.578
 3008TIP3    H2 9031   0.614   3.566   3.614
 3009TIP3   OH2 9032   2.418   5.916   3.594
 3009TIP3    H1 9033   2.509   5.889   3.594
 3009TIP3    H2 9034   2.375   5.857   3.532
 3010TIP3   OH2 9035   1.814   2.306   2.674
 3010TIP3    H1 9036   1.876   2.247   2.631
 3010TIP3    H2 9037   1.860   2.337   2.752
 3011TIP3   OH2 9038   0.278   4.494   3.648
 3011TIP3    H1 9039   0.295   4.402   3.669
 3011TIP3    H2 9040   0.198   4.491   3.596
 3012TIP3   OH2 9041   5.780   1.286   2.703
 3012TIP3    H1 9042   5.686   1.267   2.700
 3012TIP3    H2 9043   5.820   1.203   2.727
 3013TIP3   OH2 9044   4.521   0.676   0.918
 3013TIP3    H1 9045   4.461   0.697   0.846
 3013TIP3    H2 9046   4.608   0.687   0.879
 3014TIP3   OH2 9047   6.204   0.906   4.477
 3014TIP3    H1 9048   6.180   0.956   4.555
 3014TIP3    H2 9049   6.219   0.972   4.409
 3015TIP3   OH2 9050   5.601   0.155   0.169
 3015TIP3    H1 9051   5.574   0.246   0.159
 3015TIP3    H2 9052   5.697   0.158   0.169
 3016TIP3   OH2 9053   3.203   2.204   0.722
 3016TIP3    H1 9054   3.285   2.175   0.761
 3016TIP3    H2 9055   3.169   2.270   0.783
 3017TIP3   OH2 9056   0.370   5.516   0.565
 3017TIP3    H1 9057   0.380   5.421   0.569
 3017TIP3    H2 9058   0.279   5.529   0.537
 3018TIP3   OH2 9059   3.172   5.540   3.201
 3018TIP3    H1 9060   3.098   5.494   3.162
 3018TIP3    H2 9061   3.247   5.484   3.182
 3019TIP3   OH2 9062   4.782   3.750   4.177
 3019TIP3    H1 9063   4.823   3.668   4.203
 3019TIP3    H2 9064   4.854   3.813   4.173
 3020TIP3   OH2 9065   4.918   0.468   0.828
 3020TIP3    H1 9066   4.903   0.487   0.921
 3020TIP3    H2 9067   4.857   0.525   0.781
 3021TIP3   OH2 9068   3.058   2.284   5.044
 3021TIP3    H1 9069   3.066   2.189   5.031
 3021TIP3    H2 9070   2.970   2.296   5.080
 3022TIP3   OH2 9071   2.779   2.116   4.925
 3022TIP3    H1 9072   2.731   2.187   4.968
 3022TIP3    H2 9073   2.811   2.062   4.997
 3023TIP3   OH2 9074   5.578   2.602   1.414
 3023TIP3    H1 9075   5.606   2.661   1.483
 3023TIP3    H2 9076   5.627   2.630   1.336
 3024TIP3   OH2 9077   0.823   4.651   3.599
 3024TIP3    H1 9078   0.852   4.609   3.680
 3024TIP3    H2 9079   0.728   4.659   3.610
 3025TIP3   OH2 9080   1.830   5.856   3.507
 3025TIP3    H1 9081   1.910   5.850   3.455
 3025TIP3    H2 9082   1.821   5.770   3.548
 3026TIP3   OH2 9083   0.141   4.902   1.328
 3026TIP3    H1 9084   0.218   4.875   1.378
 3026TIP3    H2 9085   0.171   4.978   1.278
 3027TIP3   OH2 9086   2.920   0.336   4.618
 3027TIP3    H1 9087   2.930   0.295   4.532
 3027TIP3    H2 9088   3.004   0.319   4.662
 3028TIP3   OH2 9089   2.288   4.252   4.125
 3028TIP3    H1 9090   2.341   4.176   4.151
 3028TIP3    H2 9091   2.234   4.270   4.202
 3029TIP3   OH2 9092   1.205   1.720   3.559
 3029TIP3    H1 9093   1.258   1.670   3.622
 3029TIP3    H2 9094   1.254   1.802   3.547
 3030TIP3   OH2 9095   1.157   0.757   1.264
 3030TIP3    H1 9096   1.143   0.851   1.251
 3030TIP3    H2 9097   1.070   0.718   1.254
 3031TIP3   OH2 9098   5.597   5.062   2.209
 3031TIP3    H1 9099   5.631   5.150   2.223
 3031TIP3    H2 9100   5.520   5.074   2.153
 3032TIP3   OH2 9101   0.824   5.082   0.565
 3032TIP3    H1 9102   0.832   4.987   0.564
 3032TIP3    H2 9103   0.730   5.098   0.573
 3033TIP3   OH2 9104   2.714   3.509   0.604
 3033TIP3    H1 9105   2.656   3.581   0.627
 3033TIP3    H2 9106   2.778   3.505   0.675
 3034TIP3   OH2 9107   4.671   4.871   4.442
 3034TIP3    H1 9108   4.597   4.841   4.495
 3034TIP3    H2 9109   4.730   4.795   4.439
 3035TIP3   OH2 9110   3.298   5.246   4.188
 3035TIP3    H1 9111   3.322   5.153   4.182
 3035TIP3    H2 9112   3.256   5.264   4.104
 3036TIP3   OH2 9113   0.324   2.635   3.071
 3036TIP3    H1 9114   0.278   2.689   3.006
 3036TIP3    H2 9115   0.253   2.588   3.116
 3037TIP3   OH2 9116   3.383   4.987   3.966
 3037TIP3    H1 9117   3.435   4.974   3.886
 3037TIP3    H2 9118   3.434   4.943   4.035
 3038TIP3   OH2 9119   2.308   2.444   1.348
 3038TIP3    H1 9120   2.330   2.478   1.261
 3038TIP3    H2 9121   2.232   2.496   1.375
 3039TIP3   OH2 9122   5.416   5.430   2.680
 3039TIP3    H1 9123   5.485   5.364   2.682
 3039TIP3    H2 9124   5.454   5.502   2.629
 3040TIP3   OH2 9125   3.562   1.872   0.726
 3040TIP3    H1 9126   3.486   1.829   0.766
 3040TIP3    H2 9127   3.630   1.869   0.794
 3041TIP3   OH2 9128   5.357   1.648   2.928
 3041TIP3    H1 9129   5.323   1.664   3.016
 3041TIP3    H2 9130   5.411   1.570   2.938
 3042TIP3   OH2 9131   0.631   5.186   1.970
 3042TIP3    H1 9132   0.656   5.193   1.878
 3042TIP3    H2 9133   0.605   5.094   1.981
 3043TIP3   OH2 9134   5.971   0.715   2.872
 3043TIP3    H1 9135   5.898   0.677   2.920
 3043TIP3    H2 9136   5.985   0.655   2.799
 3044TIP3   OH2 9137   1.179   3.835   1.456
 3044TIP3    H1 9138   1.231   3.786   1.392
 3044TIP3    H2 9139   1.099   3.783   1.467
 3045TIP3   OH2 9140   5.080   3.580   2.679
 3045TIP3    H1 9141   5.140   3.643   2.719
 3045TIP3    H2 9142   5.100   3.497   2.721
 3046TIP3   OH2 9143   5.670   1.043   4.278
 3046TIP3    H1 9144   5.618   1.027   4.357
 3046TIP3    H2 9145   5.721   1.121   4.299
 3047TIP3   OH2 9146   2.502   2.961   3.892
 3047TIP3    H1 9147   2.574   2.905   3.863
 3047TIP3    H2 9148   2.467   2.998   3.811
 3048TIP3   OH2 9149   3.447   0.581   0.906
 3048TIP3    H1 9150   3.376   0.574   0.970
 3048TIP3    H2 9151   3.407   0.557   0.823
 3049TIP3   OH2 9152   2.977   2.466   3.327
 3049TIP3    H1 9153   3.052   2.432   3.279
 3049TIP3    H2 9154   2.947   2.392   3.380
 3050TIP3   OH2 9155   5.898   1.845   2.955
 3050TIP3    H1 9156   5.991   1.855   2.937
 3050TIP3    H2 9157   5.884   1.892   3.037
 3051TIP3   OH2 9158   2.844   5.933   4.141
 3051TIP3    H1 9159   2.848   5.993   4.216
 3051TIP3    H2 9160   2.910   5.866   4.160
 3052TIP3   OH2 9161   1.334   5.580   2.072
 3052TIP3    H1 9162   1.244   5.547   2.071
 3052TIP3    H2 9163   1.389   5.502   2.067
 3053TIP3   OH2 9164   1.074   0.043   1.765
 3053TIP3    H1 9165   1.027   0.115   1.808
 3053TIP3    H2 9166   1.096   0.077   1.678
 3054TIP3   OH2 9167   0.537   0.923   3.953
 3054TIP3    H1 9168   0.446   0.931   3.925
 3054TIP3    H2 9169   0.553   0.829   3.960
 3055TIP3   OH2 9170   4.156   5.836   1.022
 3055TIP3    H1 9171   4.142   5.807   1.113
 3055TIP3    H2 9172   4.250   5.822   1.007
 3056TIP3   OH2 9173   3.725   1.508   2.187
 3056TIP3    H1 9174   3.788   1.555   2.133
 3056TIP3    H2 9175   3.771   1.429   2.214
 3057TIP3   OH2 9176   0.326   4.219   3.662
 3057TIP3    H1 9177   0.413   4.229   3.625
 3057TIP3    H2 9178   0.295   4.134   3.628
 3058TIP3   OH2 9179   4.253   1.608   1.276
 3058TIP3    H1 9180   4.348   1.612   1.269
 3058TIP3    H2 9181   4.223   1.697   1.256
 3059TIP3   OH2 9182  -0.035   2.813   4.635
 3059TIP3    H1 9183   0.008   2.735   4.598
 3059TIP3    H2 9184   0.037   2.873   4.653
 3060TIP3   OH2 9185   0.303   4.208   0.545
 3060TIP3    H1 9186   0.225   4.214   0.599
 3060TIP3    H2 9187   0.310   4.115   0.522
 3061TIP3   OH2 9188   4.060   5.427   0.471
 3061TIP3    H1 9189   4.120   5.367   0.427
 3061TIP3    H2 9190   4.070   5.510   0.425
 3062TIP3   OH2 9191   1.901   1.567   2.163
 3062TIP3    H1 9192   1.823   1.535   2.208
 3062TIP3    H2 9193   1.957   1.599   2.234
 3063TIP3   OH2 9194   5.774   4.203   1.835
 3063TIP3    H1 9195   5.818   4.170   1.756
 3063TIP3    H2 9196   5.720   4.130   1.864
 3064TIP3   OH2 9197   3.731   5.025   3.993
 3064TIP3    H1 9198   3.826   5.029   4.006
 3064TIP3    H2 9199   3.718   5.049   3.902
 3065TIP3   OH2 9200   0.597   3.548   4.195
 3065TIP3    H1 9201   0.679   3.499   4.194
 3065TIP3    H2 9202   0.623   3.640   4.201
 3066TIP3   OH2 9203   3.756   1.535   0.913
 3066TIP3    H1 9204   3.664   1.507   0.905
 3066TIP3    H2 9205   3.766   1.558   1.005
 3067TIP3   OH2 9206   0.392   4.791   4.454
 3067TIP3    H1 9207   0.378   4.877   4.414
 3067TIP3    H2 9208   0.324   4.785   4.522
 3068TIP3   OH2 9209   4.783   5.241   0.502
 3068TIP3    H1 9210   4.776   5.147   0.516
 3068TIP3    H2 9211   4.846   5.249   0.430
 3069TIP3   OH2 9212   1.479   4.263   2.058
 3069TIP3    H1 9213   1.534   4.338   2.082
 3069TIP3    H2 9214   1.499   4.197   2.125
 3070TIP3   OH2 9215   1.651   0.598   5.034
 3070TIP3    H1 9216   1.621   0.683   5.002
 3070TIP3    H2 9217   1.707   0.564   4.964
 3071TIP3   OH2 9218   0.692   4.525   3.993
 3071TIP3    H1 9219   0.646   4.508   3.910
 3071TIP3    H2 9220   0.710   4.438   4.028
 3072TIP3   OH2 9221   3.837   0.432   0.806
 3072TIP3    H1 9222   3.878   0.371   0.745
 3072TIP3    H2 9223   3.771   0.381   0.852
 3073TIP3   OH2 9224   1.694   2.670   4.033
 3073TIP3    H1 9225   1.784   2.691   4.058
 3073TIP3    H2 9226   1.700   2.581   3.997
 3074TIP3   OH2 9227   0.550   4.129   3.535
 3074TIP3    H1 9228   0.542   4.033   3.536
 3074TIP3    H2 9229   0.643   4.146   3.550
 3075TIP3   OH2 9230   3.097   4.551   2.368
 3075TIP3    H1 9231   3.030   4.597   2.318
 3075TIP3    H2 9232   3.088   4.459   2.342
 3076TIP3   OH2 9233   4.014   3.674   0.964
 3076TIP3    H1 9234   4.092   3.685   1.020
 3076TIP3    H2 9235   3.977   3.761   0.957
 3077TIP3   OH2 9236   4.724   3.628   1.174
 3077TIP3    H1 9237   4.632   3.649   1.158
 3077TIP3    H2 9238   4.731   3.619   1.269
 3078TIP3   OH2 9239   1.415   3.346   1.549
 3078TIP3    H1 9240   1.398   3.263   1.594
 3078TIP3    H2 9241   1.510   3.351   1.543
 3079TIP3   OH2 9242   4.025   1.002   1.320
 3079TIP3    H1 9243   3.998   1.076   1.266
 3079TIP3    H2 9244   3.997   0.925   1.271
 3080TIP3   OH2 9245   4.533   0.699   4.012
 3080TIP3    H1 9246   4.542   0.790   4.039
 3080TIP3    H2 9247   4.450   0.671   4.050
 3081TIP3   OH2 9248   3.462   5.118   3.529
 3081TIP3    H1 9249   3.473   5.077   3.443
 3081TIP3    H2 9250   3.385   5.076   3.566
 3082TIP3   OH2 9251   2.123   4.524   0.736
 3082TIP3    H1 9252   2.147   4.607   0.693
 3082TIP3    H2 9253   2.133   4.458   0.667
 3083TIP3   OH2 9254   5.488   3.002   2.841
 3083TIP3    H1 9255   5.501   3.022   2.748
 3083TIP3    H2 9256   5.400   3.037   2.860
 3084TIP3   OH2 9257   3.749   4.023   3.079
 3084TIP3    H1 9258   3.708   4.046   3.163
 3084TIP3    H2 9259   3.703   4.076   3.014
 3085TIP3   OH2 9260   1.116   5.321   3.678
 3085TIP3    H1 9261   1.048   5.378   3.643
 3085TIP3    H2 9262   1.195   5.376   3.680
 3086TIP3   OH2 9263   0.244   3.266   1.076
 3086TIP3    H1 9264   0.339   3.279   1.078
 3086TIP3    H2 9265   0.225   3.218   1.156
 3087TIP3   OH2 9266   3.696   2.644   0.972
 3087TIP3    H1 9267   3.664   2.709   1.035
 3087TIP3    H2 9268   3.791   2.659   0.968
 3088TIP3   OH2 9269   4.079   5.902   1.598
 3088TIP3    H1 9270   4.099   5.809   1.583
 3088TIP3    H2 9271   4.000   5.900   1.653
 3089TIP3   OH2 9272   2.980   0.548   3.616
 3089TIP3    H1 9273   2.913   0.604   3.577
 3089TIP3    H2 9274   3.017   0.601   3.686
 3090TIP3   OH2 9275   0.013   0.103   1.584
 3090TIP3    H1 9276  -0.063   0.048   1.606
 3090TIP3    H2 9277  -0.025   0.183   1.548
 3091TIP3   OH2 9278   1.272   2.872   4.380
 3091TIP3    H1 9279   1.347   2.927   4.358
 3091TIP3    H2 9280   1.290   2.788   4.339
 3092TIP3   OH2 9281   4.234   3.721   3.098
 3092TIP3    H1 9282   4.241   3.625   3.094
 3092TIP3    H2 9283   4.318   3.749   3.135
 3093TIP3   OH2 9284   5.154   4.473   0.478
 3093TIP3    H1 9285   5.182   4.409   0.543
 3093TIP3    H2 9286   5.196   4.446   0.397
 3094TIP3   OH2 9287   2.905   5.874   4.517
 3094TIP3    H1 9288   2.840   5.838   4.576
 3094TIP3    H2 9289   2.858   5.884   4.433
 3095TIP3   OH2 9290   4.124   3.283   0.958
 3095TIP3    H1 9291   4.119   3.336   0.879
 3095TIP3    H2 9292   4.173   3.337   1.020
 3096TIP3   OH2 9293   3.012   5.889   2.432
 3096TIP3    H1 9294   3.019   5.928   2.519
 3096TIP3    H2 9295   3.051   5.802   2.441
 3097TIP3   OH2 9296   4.194   3.073   4.174
 3097TIP3    H1 9297   4.204   3.115   4.089
 3097TIP3    H2 9298   4.282   3.076   4.213
 3098TIP3   OH2 9299   6.010   0.283   4.438
 3098TIP3    H1 9300   5.951   0.280   4.363
 3098TIP3    H2 9301   6.096   0.264   4.402
 3099TIP3   OH2 9302   0.313   2.684   3.716
 3099TIP3    H1 9303   0.226   2.674   3.755
 3099TIP3    H2 9304   0.309   2.630   3.637
 3100TIP3   OH2 9305   3.697   3.555   2.293
 3100TIP3    H1 9306   3.632   3.486   2.281
 3100TIP3    H2 9307   3.747   3.528   2.370
 3101TIP3   OH2 9308   5.405   5.823   3.884
 3101TIP3    H1 9309   5.328   5.800   3.831
 3101TIP3    H2 9310   5.451   5.888   3.831
 3102TIP3   OH2 9311   2.362   1.628   2.535
 3102TIP3    H1 9312   2.320   1.697   2.484
 3102TIP3    H2 9313   2.294   1.561   2.545
 3103TIP3   OH2 9314   0.509   0.210   2.187
 3103TIP3    H1 9315   0.525   0.251   2.272
 3103TIP3    H2 9316   0.509   0.283   2.125
 3104TIP3   OH2 9317   3.902   5.881   3.183
 3104TIP3    H1 9318   3.975   5.850   3.129
 3104TIP3    H2 9319   3.936   5.961   3.225
 3105TIP3   OH2 9320   3.823   3.910   0.533
 3105TIP3    H1 9321   3.791   3.888   0.620
 3105TIP3    H2 9322   3.747   3.945   0.487
 3106TIP3   OH2 9323   1.289   0.289   1.608
 3106TIP3    H1 9324   1.352   0.353   1.574
 3106TIP3    H2 9325   1.314   0.277   1.699
 3107TIP3   OH2 9326   2.390   2.481   0.164
 3107TIP3    H1 9327   2.441   2.442   0.093
 3107TIP3    H2 9328   2.363   2.566   0.131
 3108TIP3   OH2 9329   5.866   5.611   1.792
 3108TIP3    H1 9330   5.829   5.687   1.836
 3108TIP3    H2 9331   5.889   5.642   1.704
 3109TIP3   OH2 9332   4.148   2.746   4.971
 3109TIP3    H1 9333   4.133   2.751   5.065
 3109TIP3    H2 9334   4.122   2.831   4.938
 3110TIP3   OH2 9335   0.399   5.110   0.093
 3110TIP3    H1 9336   0.353   5.049   0.151
 3110TIP3    H2 9337   0.488   5.113   0.127
 3111TIP3   OH2 9338   4.691   5.001   2.707
 3111TIP3    H1 9339   4.633   5.075   2.688
 3111TIP3    H2 9340   4.761   5.008   2.642
 3112TIP3   OH2 9341   5.794   0.251   4.255
 3112TIP3    H1 9342   5.798   0.339   4.219
 3112TIP3    H2 9343   5.746   0.200   4.189
 3113TIP3   OH2 9344   0.124   0.597   1.381
 3113TIP3    H1 9345   0.216   0.613   1.403
 3113TIP3    H2 9346   0.076   0.619   1.462
 3114TIP3   OH2 9347   4.126   5.840   4.255
 3114TIP3    H1 9348   4.174   5.919   4.280
 3114TIP3    H2 9349   4.034   5.869   4.249
 3115TIP3   OH2 9350   5.685   4.056   0.217
 3115TIP3    H1 9351   5.707   4.000   0.143
 3115TIP3    H2 9352   5.595   4.032   0.239
 3116TIP3   OH2 9353   6.349   4.622   1.260
 3116TIP3    H1 9354   6.401   4.694   1.296
 3116TIP3    H2 9355   6.306   4.660   1.183
 3117TIP3   OH2 9356   1.569   4.428   4.835
 3117TIP3    H1 9357   1.646   4.375   4.855
 3117TIP3    H2 9358   1.596   4.518   4.853
 3118TIP3   OH2 9359   3.165   3.756   0.990
 3118TIP3    H1 9360   3.106   3.681   0.999
 3118TIP3    H2 9361   3.134   3.801   0.912
 3119TIP3   OH2 9362   2.125   4.778   0.659
 3119TIP3    H1 9363   2.031   4.786   0.675
 3119TIP3    H2 9364   2.143   4.839   0.588
 3120TIP3   OH2 9365   0.376   3.354   3.457
 3120TIP3    H1 9366   0.381   3.306   3.374
 3120TIP3    H2 9367   0.285   3.385   3.461
 3121TIP3   OH2 9368   5.521   0.275   0.827
 3121TIP3    H1 9369   5.435   0.245   0.857
 3121TIP3    H2 9370   5.527   0.365   0.858
 3122TIP3   OH2 9371   1.084   3.338   2.221
 3122TIP3    H1 9372   1.108   3.265   2.164
 3122TIP3    H2 9373   1.080   3.414   2.163
 3123TIP3   OH2 9374   2.412   1.006   0.740
 3123TIP3    H1 9375   2.431   1.013   0.646
 3123TIP3    H2 9376   2.352   0.931   0.747
 3124TIP3   OH2 9377   4.814   0.318   1.419
 3124TIP3    H1 9378   4.817   0.406   1.457
 3124TIP3    H2 9379   4.725   0.312   1.383
 3125TIP3   OH2 9380   1.431   3.123   2.231
 3125TIP3    H1 9381   1.392   3.127   2.318
 3125TIP3    H2 9382   1.372   3.067   2.180
 3126TIP3   OH2 9383   1.020   3.276   3.073
 3126TIP3    H1 9384   1.061   3.230   3.146
 3126TIP3    H2 9385   1.042   3.368   3.088
 3127TIP3   OH2 9386   4.801   3.579   2.268
 3127TIP3    H1 9387   4.851   3.551   2.345
 3127TIP3    H2 9388   4.833   3.667   2.250
 3128TIP3   OH2 9389   1.062   2.959   3.113
 3128TIP3    H1 9390   0.979   2.997   3.084
 3128TIP3    H2 9391   1.045   2.864   3.116
 3129TIP3   OH2 9392   2.237   5.741   3.128
 3129TIP3    H1 9393   2.264   5.652   3.145
 3129TIP3    H2 9394   2.282   5.765   3.047
 3130TIP3   OH2 9395   4.839   1.439   1.104
 3130TIP3    H1 9396   4.824   1.380   1.178
 3130TIP3    H2 9397   4.767   1.420   1.044
 3131TIP3   OH2 9398   5.884   1.739   1.018
 3131TIP3    H1 9399   5.858   1.830   1.010
 3131TIP3    H2 9400   5.802   1.690   1.024
 3132TIP3   OH2 9401   4.626   0.570   2.470
 3132TIP3    H1 9402   4.578   0.606   2.545
 3132TIP3    H2 9403   4.634   0.644   2.409
 3133TIP3   OH2 9404   5.621   2.734   3.668
 3133TIP3    H1 9405   5.713   2.719   3.689
 3133TIP3    H2 9406   5.582   2.763   3.751
 3134TIP3   OH2 9407   3.402   3.987   3.085
 3134TIP3    H1 9408   3.409   4.076   3.118
 3134TIP3    H2 9409   3.316   3.983   3.044
 3135TIP3   OH2 9410   3.090   4.256   4.352
 3135TIP3    H1 9411   3.088   4.231   4.259
 3135TIP3    H2 9412   3.000   4.279   4.373
 3136TIP3   OH2 9413   2.704   3.199   0.199
 3136TIP3    H1 9414   2.706   3.282   0.151
 3136TIP3    H2 9415   2.623   3.156   0.172
 3137TIP3   OH2 9416   1.899   5.953   2.269
 3137TIP3    H1 9417   1.870   6.044   2.268
 3137TIP3    H2 9418   1.902   5.928   2.177
 3138TIP3   OH2 9419   1.884   1.878   3.596
 3138TIP3    H1 9420   1.930   1.919   3.522
 3138TIP3    H2 9421   1.916   1.787   3.596
 3139TIP3   OH2 9422   5.921   2.378   2.599
 3139TIP3    H1 9423   5.858   2.335   2.657
 3139TIP3    H2 9424   5.888   2.468   2.592
 3140TIP3   OH2 9425   1.517   2.578   4.299
 3140TIP3    H1 9426   1.541   2.662   4.259
 3140TIP3    H2 9427   1.478   2.528   4.228
 3141TIP3   OH2 9428   3.470   1.165   0.816
 3141TIP3    H1 9429   3.544   1.136   0.761
 3141TIP3    H2 9430   3.448   1.088   0.868
 3142TIP3   OH2 9431   1.129   0.615   3.018
 3142TIP3    H1 9432   1.105   0.661   2.937
 3142TIP3    H2 9433   1.192   0.548   2.989
 3143TIP3   OH2 9434   1.758   4.780   3.095
 3143TIP3    H1 9435   1.665   4.793   3.116
 3143TIP3    H2 9436   1.760   4.765   3.001
 3144TIP3   OH2 9437   2.059   4.132   2.512
 3144TIP3    H1 9438   2.151   4.143   2.536
 3144TIP3    H2 9439   2.011   4.185   2.575
 3145TIP3   OH2 9440   0.327   5.071   0.845
 3145TIP3    H1 9441   0.396   5.020   0.804
 3145TIP3    H2 9442   0.259   5.007   0.866
 3146TIP3   OH2 9443   1.879   4.448   0.910
 3146TIP3    H1 9444   1.966   4.441   0.871
 3146TIP3    H2 9445   1.885   4.396   0.990
 3147TIP3   OH2 9446   3.124   0.252   4.775
 3147TIP3    H1 9447   3.168   0.171   4.749
 3147TIP3    H2 9448   3.168   0.278   4.856
 3148TIP3   OH2 9449   5.260   5.228   2.544
 3148TIP3    H1 9450   5.303   5.308   2.575
 3148TIP3    H2 9451   5.261   5.237   2.448
 3149TIP3   OH2 9452   1.350   2.284   1.707
 3149TIP3    H1 9453   1.256   2.279   1.690
 3149TIP3    H2 9454   1.367   2.216   1.772
 3150TIP3   OH2 9455   5.430   0.226   2.564
 3150TIP3    H1 9456   5.462   0.254   2.478
 3150TIP3    H2 9457   5.489   0.155   2.589
 3151TIP3   OH2 9458   5.150   0.762   1.315
 3151TIP3    H1 9459   5.100   0.800   1.387
 3151TIP3    H2 9460   5.110   0.675   1.302
 3152TIP3   OH2 9461   4.013   3.838   1.225
 3152TIP3    H1 9462   4.030   3.904   1.158
 3152TIP3    H2 9463   4.015   3.886   1.308
 3153TIP3   OH2 9464   1.995   0.939   4.196
 3153TIP3    H1 9465   2.063   0.945   4.129
 3153TIP3    H2 9466   1.922   0.896   4.152
 3154TIP3   OH2 9467   4.385   5.136   4.522
 3154TIP3    H1 9468   4.384   5.103   4.432
 3154TIP3    H2 9469   4.328   5.213   4.521
 3155TIP3   OH2 9470   5.907   5.794   0.430
 3155TIP3    H1 9471   5.911   5.698   0.421
 3155TIP3    H2 9472   5.813   5.813   0.435
 3156TIP3   OH2 9473   1.947   4.350   1.906
 3156TIP3    H1 9474   1.916   4.386   1.823
 3156TIP3    H2 9475   1.975   4.426   1.956
 3157TIP3   OH2 9476   6.184   5.055   4.938
 3157TIP3    H1 9477   6.139   5.051   4.853
 3157TIP3    H2 9478   6.271   5.088   4.917
 3158TIP3   OH2 9479   4.171   0.884   0.840
 3158TIP3    H1 9480   4.089   0.933   0.831
 3158TIP3    H2 9481   4.240   0.950   0.828
 3159TIP3   OH2 9482   3.974   2.794   2.716
 3159TIP3    H1 9483   4.023   2.716   2.743
 3159TIP3    H2 9484   4.033   2.867   2.734
 3160TIP3   OH2 9485   1.894   5.845   1.690
 3160TIP3    H1 9486   1.908   5.915   1.627
 3160TIP3    H2 9487   1.952   5.867   1.763
 3161TIP3   OH2 9488   3.529   3.051   1.169
 3161TIP3    H1 9489   3.608   3.003   1.146
 3161TIP3    H2 9490   3.560   3.123   1.225
 3162TIP3   OH2 9491   2.192   0.694   0.132
 3162TIP3    H1 9492   2.175   0.780   0.172
 3162TIP3    H2 9493   2.279   0.703   0.093
 3163TIP3   OH2 9494   4.159   3.957   2.160
 3163TIP3    H1 9495   4.201   3.886   2.112
 3163TIP3    H2 9496   4.076   3.972   2.114
 3164TIP3   OH2 9497   6.000   0.235   2.034
 3164TIP3    H1 9498   5.942   0.312   2.034
 3164TIP3    H2 9499   6.073   0.260   2.091
 3165TIP3   OH2 9500   0.411   3.871   3.333
 3165TIP3    H1 9501   0.389   3.847   3.243
 3165TIP3    H2 9502   0.507   3.865   3.336
 3166TIP3   OH2 9503   1.353   3.376   2.167
 3166TIP3    H1 9504   1.384   3.293   2.204
 3166TIP3    H2 9505   1.325   3.353   2.078
 3167TIP3   OH2 9506   6.295   0.222   1.306
 3167TIP3    H1 9507   6.254   0.223   1.219
 3167TIP3    H2 9508   6.279   0.133   1.338
 3168TIP3   OH2 9509   5.609   0.498   3.922
 3168TIP3    H1 9510   5.621   0.592   3.910
 3168TIP3    H2 9511   5.519   0.482   3.892
 3169TIP3   OH2 9512   0.868   3.974   4.019
 3169TIP3    H1 9513   0.950   4.022   4.019
 3169TIP3    H2 9514   0.804   4.035   3.983
 3170TIP3   OH2 9515   4.426   4.272   4.556
 3170TIP3    H1 9516   4.430   4.339   4.624
 3170TIP3    H2 9517   4.457   4.316   4.477
 3171TIP3   OH2 9518   5.186   2.437   4.460
 3171TIP3    H1 9519   5.150   2.516   4.418
 3171TIP3    H2 9520   5.163   2.366   4.402
 3172TIP3   OH2 9521   0.861   2.914   0.857
 3172TIP3    H1 9522   0.834   3.001   0.829
 3172TIP3    H2 9523   0.789   2.856   0.832
 3173TIP3   OH2 9524   0.589   1.076   3.736
 3173TIP3    H1 9525   0.507   1.097   3.693
 3173TIP3    H2 9526   0.563   1.036   3.819
 3174TIP3   OH2 9527   4.915   2.998   2.768
 3174TIP3    H1 9528   4.880   3.082   2.797
 3174TIP3    H2 9529   4.964   2.965   2.844
 3175TIP3   OH2 9530   4.404   5.580   3.925
 3175TIP3    H1 9531   4.399   5.648   3.993
 3175TIP3    H2 9532   4.322   5.532   3.933
 3176TIP3   OH2 9533   4.316   5.086   3.757
 3176TIP3    H1 9534   4.293   5.150   3.824
 3176TIP3    H2 9535   4.256   5.012   3.772
 3177TIP3   OH2 9536   0.262   2.752   2.602
 3177TIP3    H1 9537   0.196   2.717   2.542
 3177TIP3    H2 9538   0.212   2.795   2.671
 3178TIP3   OH2 9539   2.523   1.102   3.557
 3178TIP3    H1 9540   2.592   1.093   3.492
 3178TIP3    H2 9541   2.455   1.153   3.513
 3179TIP3   OH2 9542   2.175   5.646   0.474
 3179TIP3    H1 9543   2.269   5.631   0.459
 3179TIP3    H2 9544   2.163   5.624   0.567
 3180TIP3   OH2 9545   3.063   3.962   1.935
 3180TIP3    H1 9546   3.117   3.917   1.869
 3180TIP3    H2 9547   3.088   3.921   2.018
 3181TIP3   OH2 9548   4.501   5.489   1.553
 3181TIP3    H1 9549   4.561   5.515   1.483
 3181TIP3    H2 9550   4.558   5.480   1.630
 3182TIP3   OH2 9551   0.848   3.426   4.149
 3182TIP3    H1 9552   0.928   3.475   4.130
 3182TIP3    H2 9553   0.870   3.335   4.131
 3183TIP3   OH2 9554   3.698   0.275   0.969
 3183TIP3    H1 9555   3.699   0.182   0.947
 3183TIP3    H2 9556   3.684   0.277   1.064
 3184TIP3   OH2 9557   5.761   2.216   0.330
 3184TIP3    H1 9558   5.818   2.274   0.280
 3184TIP3    H2 9559   5.673   2.247   0.311
 3185TIP3   OH2 9560   4.583   0.064   0.517
 3185TIP3    H1 9561   4.607   0.040   0.606
 3185TIP3    H2 9562   4.636   0.140   0.497
 3186TIP3   OH2 9563   0.938   3.687   1.696
 3186TIP3    H1 9564   0.909   3.730   1.616
 3186TIP3    H2 9565   0.866   3.699   1.758
 3187TIP3   OH2 9566   4.938   1.801   3.798
 3187TIP3    H1 9567   4.910   1.838   3.882
 3187TIP3    H2 9568   4.886   1.849   3.733
 3188TIP3   OH2 9569   1.184   4.799   0.785
 3188TIP3    H1 9570   1.264   4.819   0.834
 3188TIP3    H2 9571   1.195   4.845   0.702
 3189TIP3   OH2 9572   5.471   2.454   0.556
 3189TIP3    H1 9573   5.474   2.404   0.638
 3189TIP3    H2 9574   5.403   2.519   0.570
 3190TIP3   OH2 9575   5.389   1.356   4.184
 3190TIP3    H1 9576   5.369   1.442   4.146
 3190TIP3    H2 9577   5.306   1.309   4.185
 3191TIP3   OH2 9578   3.594   3.408   1.160
 3191TIP3    H1 9579   3.565   3.338   1.101
 3191TIP3    H2 9580   3.589   3.369   1.247
 3192TIP3   OH2 9581   3.351   5.603   3.810
 3192TIP3    H1 9582   3.419   5.617   3.744
 3192TIP3    H2 9583   3.275   5.649   3.776
 3193TIP3   OH2 9584   6.078   0.658   1.685
 3193TIP3    H1 9585   6.032   0.613   1.615
 3193TIP3    H2 9586   6.022   0.645   1.762
 3194TIP3   OH2 9587   5.096   5.508   4.532
 3194TIP3    H1 9588   5.120   5.432   4.586
 3194TIP3    H2 9589   5.177   5.532   4.487
 3195TIP3   OH2 9590   1.414   5.240   0.696
 3195TIP3    H1 9591   1.413   5.226   0.791
 3195TIP3    H2 9592   1.404   5.153   0.659
 3196TIP3   OH2 9593   1.036   4.989   2.099
 3196TIP3    H1 9594   1.062   4.926   2.167
 3196TIP3    H2 9595   0.961   4.947   2.056
 3197TIP3   OH2 9596   5.359   2.596   1.839
 3197TIP3    H1 9597   5.297   2.524   1.853
 3197TIP3    H2 9598   5.306   2.665   1.798
 3198TIP3   OH2 9599   0.592   5.482   1.253
 3198TIP3    H1 9600   0.649   5.414   1.217
 3198TIP3    H2 9601   0.557   5.442   1.333
 3199TIP3   OH2 9602   2.455   2.856   0.191
 3199TIP3    H1 9603   2.453   2.949   0.169
 3199TIP3    H2 9604   2.367   2.824   0.169
 3200TIP3   OH2 9605   2.392   2.412   2.022
 3200TIP3    H1 9606   2.395   2.380   1.932
 3200TIP3    H2 9607   2.301   2.439   2.035
 3201TIP3   OH2 9608   6.026   1.282   5.048
 3201TIP3    H1 9609   5.977   1.315   4.973
 3201TIP3    H2 9610   6.065   1.359   5.088
 3202TIP3   OH2 9611   4.362   0.583   1.816
 3202TIP3    H1 9612   4.433   0.546   1.869
 3202TIP3    H2 9613   4.283   0.568   1.868
 3203TIP3   OH2 9614   1.927   4.547   0.364
 3203TIP3    H1 9615   1.892   4.546   0.453
 3203TIP3    H2 9616   1.896   4.630   0.327
 3204TIP3   OH2 9617   3.222   3.578   3.416
 3204TIP3    H1 9618   3.201   3.487   3.438
 3204TIP3    H2 9619   3.310   3.591   3.451
 3205TIP3   OH2 9620   4.140   5.629   2.534
 3205TIP3    H1 9621   4.230   5.617   2.503
 3205TIP3    H2 9622   4.146   5.699   2.599
 3206TIP3   OH2 9623   4.969   4.422   1.686
 3206TIP3    H1 9624   5.041   4.363   1.667
 3206TIP3    H2 9625   4.937   4.450   1.600
 3207TIP3   OH2 9626   0.952   1.184   1.133
 3207TIP3    H1 9627   1.025   1.227   1.177
 3207TIP3    H2 9628   0.876   1.205   1.187
 3208TIP3   OH2 9629   5.993   4.626   3.462
 3208TIP3    H1 9630   6.068   4.685   3.471
 3208TIP3    H2 9631   5.920   4.683   3.439
 3209TIP3   OH2 9632   4.156   1.212   0.438
 3209TIP3    H1 9633   4.097   1.184   0.367
 3209TIP3    H2 9634   4.176   1.131   0.486
 3210TIP3   OH2 9635   1.607   5.673   2.051
 3210TIP3    H1 9636   1.597   5.758   2.094
 3210TIP3    H2 9637   1.518   5.639   2.043
 3211TIP3   OH2 9638   1.484   0.881   4.115
 3211TIP3    H1 9639   1.440   0.813   4.166
 3211TIP3    H2 9640   1.416   0.947   4.098
 3212TIP3   OH2 9641   3.312   0.905   4.828
 3212TIP3    H1 9642   3.358   0.986   4.808
 3212TIP3    H2 9643   3.328   0.849   4.752
 3213TIP3   OH2 9644   5.892   3.847   2.520
 3213TIP3    H1 9645   5.857   3.778   2.464
 3213TIP3    H2 9646   5.913   3.803   2.602
 3214TIP3   OH2 9647   6.301   1.366   3.493
 3214TIP3    H1 9648   6.214   1.386   3.527
 3214TIP3    H2 9649   6.287   1.295   3.430
 3215TIP3   OH2 9650   0.288   5.064   2.682
 3215TIP3    H1 9651   0.301   5.137   2.742
 3215TIP3    H2 9652   0.331   4.990   2.725
 3216TIP3   OH2 9653   3.626   3.088   4.249
 3216TIP3    H1 9654   3.655   3.175   4.276
 3216TIP3    H2 9655   3.684   3.066   4.176
 3217TIP3   OH2 9656   0.578   3.638   2.624
 3217TIP3    H1 9657   0.511   3.685   2.672
 3217TIP3    H2 9658   0.533   3.562   2.588
 3218TIP3   OH2 9659   6.291   2.005   4.696
 3218TIP3    H1 9660   6.209   2.051   4.718
 3218TIP3    H2 9661   6.356   2.075   4.693
 3219TIP3   OH2 9662   4.487   4.963   0.683
 3219TIP3    H1 9663   4.504   4.979   0.776
 3219TIP3    H2 9664   4.575   4.963   0.644
 3220TIP3   OH2 9665   5.897   3.343   1.851
 3220TIP3    H1 9666   5.980   3.361   1.895
 3220TIP3    H2 9667   5.896   3.402   1.776
 3221TIP3   OH2 9668   6.187   2.797   4.917
 3221TIP3    H1 9669   6.233   2.781   4.834
 3221TIP3    H2 9670   6.104   2.751   4.907
 3222TIP3   OH2 9671   0.157   0.299   3.824
 3222TIP3    H1 9672   0.165   0.368   3.758
 3222TIP3    H2 9673   0.089   0.241   3.789
 3223TIP3   OH2 9674   5.650   1.596   3.548
 3223TIP3    H1 9675   5.604   1.516   3.525
 3223TIP3    H2 9676   5.728   1.596   3.492
 3224TIP3   OH2 9677   5.911   3.767   1.770
 3224TIP3    H1 9678   5.818   3.782   1.759
 3224TIP3    H2 9679   5.926   3.774   1.864
 3225TIP3   OH2 9680   2.035   4.771   2.988
 3225TIP3    H1 9681   2.015   4.826   2.912
 3225TIP3    H2 9682   1.955   4.772   3.040
 3226TIP3   OH2 9683   5.021   1.367   3.275
 3226TIP3    H1 9684   5.095   1.306   3.272
 3226TIP3    H2 9685   4.949   1.317   3.236
 3227TIP3   OH2 9686   4.295   0.021   0.139
 3227TIP3    H1 9687   4.250   0.070   0.208
 3227TIP3    H2 9688   4.225  -0.016   0.086
 3228TIP3   OH2 9689   5.719   5.246   3.485
 3228TIP3    H1 9690   5.718   5.275   3.576
 3228TIP3    H2 9691   5.634   5.201   3.474
 3229TIP3   OH2 9692   2.318   4.090   2.566
 3229TIP3    H1 9693   2.406   4.052   2.558
 3229TIP3    H2 9694   2.333   4.182   2.586
 3230TIP3   OH2 9695   4.980   1.583   2.582
 3230TIP3    H1 9696   5.039   1.603   2.654
 3230TIP3    H2 9697   5.016   1.503   2.543
 3231TIP3   OH2 9698   4.467   4.538   3.055
 3231TIP3    H1 9699   4.460   4.620   3.104
 3231TIP3    H2 9700   4.504   4.564   2.970
 3232TIP3   OH2 9701   4.344   1.337   2.314
 3232TIP3    H1 9702   4.288   1.413   2.297
 3232TIP3    H2 9703   4.294   1.262   2.279
 3233TIP3   OH2 9704   0.216   3.365   0.645
 3233TIP3    H1 9705   0.248   3.285   0.605
 3233TIP3    H2 9706   0.220   3.431   0.575
 3234TIP3   OH2 9707   1.035   2.765   0.256
 3234TIP3    H1 9708   0.990   2.758   0.340
 3234TIP3    H2 9709   1.011   2.685   0.209
 3235TIP3   OH2 9710   1.054   5.363   4.002
 3235TIP3    H1 9711   1.082   5.279   3.966
 3235TIP3    H2 9712   1.062   5.353   4.096
 3236TIP3   OH2 9713   2.930   3.312   3.465
 3236TIP3    H1 9714   2.943   3.395   3.509
 3236TIP3    H2 9715   2.856   3.272   3.511
 3237TIP3   OH2 9716   2.715   3.101   4.481
 3237TIP3    H1 9717   2.787   3.151   4.444
 3237TIP3    H2 9718   2.736   3.010   4.460
 3238TIP3   OH2 9719   3.879   3.025   1.399
 3238TIP3    H1 9720   3.942   3.013   1.470
 3238TIP3    H2 9721   3.922   3.087   1.339
 3239TIP3   OH2 9722   3.247   1.754   4.874
 3239TIP3    H1 9723   3.264   1.666   4.840
 3239TIP3    H2 9724   3.284   1.752   4.963
 3240TIP3   OH2 9725   4.967   2.427   2.174
 3240TIP3    H1 9726   4.921   2.457   2.252
 3240TIP3    H2 9727   5.020   2.503   2.147
 3241TIP3   OH2 9728   1.035   5.087   3.891
 3241TIP3    H1 9729   0.943   5.069   3.871
 3241TIP3    H2 9730   1.068   5.136   3.816
 3242TIP3   OH2 9731   6.166   3.295   0.985
 3242TIP3    H1 9732   6.243   3.273   0.932
 3242TIP3    H2 9733   6.160   3.390   0.980
 3243TIP3   OH2 9734   0.088   2.687   3.894
 3243TIP3    H1 9735   0.068   2.673   3.986
 3243TIP3    H2 9736   0.008   2.663   3.848
 3244TIP3   OH2 9737   6.198   3.582   1.019
 3244TIP3    H1 9738   6.147   3.631   1.084
 3244TIP3    H2 9739   6.285   3.574   1.057
 3245TIP3   OH2 9740   3.036   4.714   0.252
 3245TIP3    H1 9741   3.088   4.642   0.288
 3245TIP3    H2 9742   3.041   4.783   0.317
 3246TIP3   OH2 9743   5.782   4.321   4.572
 3246TIP3    H1 9744   5.697   4.293   4.605
 3246TIP3    H2 9745   5.766   4.407   4.533
 3247TIP3   OH2 9746   1.543   3.154   2.698
 3247TIP3    H1 9747   1.562   3.060   2.709
 3247TIP3    H2 9748   1.485   3.175   2.770
 3248TIP3   OH2 9749   2.896   0.116   3.279
 3248TIP3    H1 9750   2.955   0.052   3.319
 3248TIP3    H2 9751   2.809   0.078   3.289
 3249TIP3   OH2 9752   3.047   3.554   1.479
 3249TIP3    H1 9753   3.134   3.594   1.480
 3249TIP3    H2 9754   2.990   3.619   1.519
 3250TIP3   OH2 9755   3.833   2.498   4.597
 3250TIP3    H1 9756   3.786   2.422   4.630
 3250TIP3    H2 9757   3.882   2.531   4.673
 3251TIP3   OH2 9758   5.905   0.159   1.599
 3251TIP3    H1 9759   5.900   0.147   1.694
 3251TIP3    H2 9760   5.893   0.071   1.563
 3252TIP3   OH2 9761   5.368   1.873   0.692
 3252TIP3    H1 9762   5.458   1.866   0.722
 3252TIP3    H2 9763   5.369   1.837   0.603
 3253TIP3   OH2 9764   0.815   0.394   1.687
 3253TIP3    H1 9765   0.732   0.386   1.735
 3253TIP3    H2 9766   0.860   0.467   1.729
 3254TIP3   OH2 9767   4.532   0.418   1.669
 3254TIP3    H1 9768   4.438   0.429   1.651
 3254TIP3    H2 9769   4.538   0.333   1.712
 3255TIP3   OH2 9770   3.120   5.680   1.058
 3255TIP3    H1 9771   3.186   5.637   1.004
 3255TIP3    H2 9772   3.132   5.642   1.145
 3256TIP3   OH2 9773   2.366   5.592   1.009
 3256TIP3    H1 9774   2.447   5.542   0.998
 3256TIP3    H2 9775   2.297   5.533   0.979
 3257TIP3   OH2 9776   1.814   2.371   0.123
 3257TIP3    H1 9777   1.732   2.362   0.172
 3257TIP3    H2 9778   1.787   2.372   0.031
 3258TIP3   OH2 9779   1.303   3.366   4.447
 3258TIP3    H1 9780   1.356   3.442   4.425
 3258TIP3    H2 9781   1.342   3.332   4.528
 3259TIP3   OH2 9782   5.283   2.484   0.949
 3259TIP3    H1 9783   5.300   2.478   1.043
 3259TIP3    H2 9784   5.188   2.493   0.942
 3260TIP3   OH2 9785   3.108   0.818   2.346
 3260TIP3    H1 9786   3.120   0.773   2.430
 3260TIP3    H2 9787   3.124   0.751   2.280
 3261TIP3   OH2 9788   0.934   3.960   4.718
 3261TIP3    H1 9789   0.993   4.002   4.655
 3261TIP3    H2 9790   0.915   3.874   4.679
 3262TIP3   OH2 9791   4.552   5.613   4.204
 3262TIP3    H1 9792   4.625   5.574   4.254
 3262TIP3    H2 9793   4.515   5.678   4.263
 3263TIP3   OH2 9794   0.029   5.618   1.151
 3263TIP3    H1 9795   0.063   5.707   1.145
 3263TIP3    H2 9796   0.058   5.576   1.070
 3264TIP3   OH2 9797   0.558   1.689   0.320
 3264TIP3    H1 9798   0.489   1.707   0.256
 3264TIP3    H2 9799   0.559   1.594   0.329
 3265TIP3   OH2 9800   2.763   4.916   3.172
 3265TIP3    H1 9801   2.701   4.963   3.227
 3265TIP3    H2 9802   2.778   4.975   3.098
 3266TIP3   OH2 9803   3.618   2.072   3.551
 3266TIP3    H1 9804   3.587   2.160   3.574
 3266TIP3    H2 9805   3.554   2.040   3.487
 3267TIP3   OH2 9806   4.732   4.593   2.010
 3267TIP3    H1 9807   4.720   4.636   2.095
 3267TIP3    H2 9808   4.769   4.660   1.953
 3268TIP3   OH2 9809   5.188   1.799   5.005
 3268TIP3    H1 9810   5.097   1.783   5.032
 3268TIP3    H2 9811   5.201   1.742   4.930
 3269TIP3   OH2 9812   4.118   1.701   4.037
 3269TIP3    H1 9813   4.170   1.777   4.061
 3269TIP3    H2 9814   4.029   1.735   4.025
 3270TIP3   OH2 9815   0.086   1.596   0.193
 3270TIP3    H1 9816   0.132   1.559   0.268
 3270TIP3    H2 9817   0.096   1.691   0.203
 3271TIP3   OH2 9818   1.726   1.298   4.236
 3271TIP3    H1 9819   1.747   1.387   4.265
 3271TIP3    H2 9820   1.798   1.245   4.268
 3272TIP3   OH2 9821   1.612   3.976   3.089
 3272TIP3    H1 9822   1.534   3.959   3.037
 3272TIP3    H2 9823   1.595   4.059   3.132
 3273TIP3   OH2 9824   0.194   1.131   4.322
 3273TIP3    H1 9825   0.188   1.061   4.258
 3273TIP3    H2 9826   0.277   1.175   4.302
 3274TIP3   OH2 9827   5.734   5.147   3.181
 3274TIP3    H1 9828   5.789   5.072   3.202
 3274TIP3    H2 9829   5.697   5.174   3.265
 3275TIP3   OH2 9830   4.465   4.651   3.638
 3275TIP3    H1 9831   4.512   4.722   3.594
 3275TIP3    H2 9832   4.443   4.686   3.724
 3276TIP3   OH2 9833   3.797   4.990   0.390
 3276TIP3    H1 9834   3.772   5.051   0.459
 3276TIP3    H2 9835   3.765   5.030   0.310
 3277TIP3   OH2 9836   2.219   0.916   2.955
 3277TIP3    H1 9837   2.304   0.957   2.972
 3277TIP3    H2 9838   2.239   0.838   2.904
 3278TIP3   OH2 9839   0.267   2.177   4.938
 3278TIP3    H1 9840   0.183   2.132   4.943
 3278TIP3    H2 9841   0.327   2.120   4.987
 3279TIP3   OH2 9842   2.742   3.062   2.924
 3279TIP3    H1 9843   2.827   3.082   2.886
 3279TIP3    H2 9844   2.680   3.072   2.851
 3280TIP3   OH2 9845   1.259   0.535   1.378
 3280TIP3    H1 9846   1.249   0.617   1.329
 3280TIP3    H2 9847   1.336   0.550   1.434
 3281TIP3   OH2 9848   5.501   3.663   0.908
 3281TIP3    H1 9849   5.470   3.578   0.941
 3281TIP3    H2 9850   5.584   3.677   0.953
 3282TIP3   OH2 9851   2.566   2.218   1.256
 3282TIP3    H1 9852   2.592   2.298   1.210
 3282TIP3    H2 9853   2.473   2.231   1.275
 3283TIP3   OH2 9854   1.412   3.259   4.684
 3283TIP3    H1 9855   1.501   3.225   4.700
 3283TIP3    H2 9856   1.354   3.192   4.721
 3284TIP3   OH2 9857   0.696   3.882   0.561
 3284TIP3    H1 9858   0.639   3.873   0.485
 3284TIP3    H2 9859   0.752   3.957   0.540
 3285TIP3   OH2 9860   3.745   4.698   2.486
 3285TIP3    H1 9861   3.815   4.759   2.464
 3285TIP3    H2 9862   3.746   4.634   2.415
 3286TIP3   OH2 9863   0.197   5.731   3.041
 3286TIP3    H1 9864   0.122   5.709   2.985
 3286TIP3    H2 9865   0.183   5.824   3.062
 3287TIP3   OH2 9866   5.075   3.673   3.855
 3287TIP3    H1 9867   5.024   3.725   3.793
 3287TIP3    H2 9868   5.164   3.675   3.821
 3288TIP3   OH2 9869   5.871   2.794   3.990
 3288TIP3    H1 9870   5.874   2.791   3.894
 3288TIP3    H2 9871   5.875   2.887   4.011
 3289TIP3   OH2 9872   2.606   3.824   4.164
 3289TIP3    H1 9873   2.633   3.837   4.072
 3289TIP3    H2 9874   2.655   3.890   4.212
 3290TIP3   OH2 9875   5.000   1.169   2.361
 3290TIP3    H1 9876   5.011   1.216   2.444
 3290TIP3    H2 9877   4.905   1.167   2.349
 3291TIP3   OH2 9878   0.861   5.239   3.432
 3291TIP3    H1 9879   0.928   5.175   3.458
 3291TIP3    H2 9880   0.871   5.247   3.337
 3292TIP3   OH2 9881   5.481   5.501   3.200
 3292TIP3    H1 9882   5.397   5.541   3.177
 3292TIP3    H2 9883   5.539   5.523   3.127
 3293TIP3   OH2 9884   1.568   4.098   2.260
 3293TIP3    H1 9885   1.527   4.175   2.301
 3293TIP3    H2 9886   1.657   4.098   2.295
 3294TIP3   OH2 9887   5.973   2.904   2.750
 3294TIP3    H1 9888   5.899   2.915   2.690
 3294TIP3    H2 9889   5.937   2.854   2.823
 3295TIP3   OH2 9890   2.922   0.858   0.395
 3295TIP3    H1 9891   2.915   0.929   0.459
 3295TIP3    H2 9892   2.863   0.790   0.428
 3296TIP3   OH2 9893   1.287   5.856   0.143
 3296TIP3    H1 9894   1.310   5.926   0.081
 3296TIP3    H2 9895   1.343   5.872   0.219
 3297TIP3   OH2 9896   4.445   1.296   3.295
 3297TIP3    H1 9897   4.418   1.207   3.318
 3297TIP3    H2 9898   4.531   1.306   3.337
 3298TIP3   OH2 9899   3.280   4.586   2.022
 3298TIP3    H1 9900   3.316   4.526   1.958
 3298TIP3    H2 9901   3.314   4.555   2.106
 3299TIP3   OH2 9902   0.880   0.034   2.120
 3299TIP3    H1 9903   0.941   0.106   2.139
 3299TIP3    H2 9904   0.912  -0.003   2.038
 3300TIP3   OH2 9905   2.181   1.159   3.708
 3300TIP3    H1 9906   2.228   1.239   3.686
 3300TIP3    H2 9907   2.120   1.146   3.635
 3301TIP3   OH2 9908   5.275   5.506   0.173
 3301TIP3    H1 9909   5.348   5.567   0.188
 3301TIP3    H2 9910   5.309   5.443   0.109
 3302TIP3   OH2 9911   3.413   1.655   3.636
 3302TIP3    H1 9912   3.372   1.741   3.645
 3302TIP3    H2 9913   3.340   1.593   3.637
 3303TIP3   OH2 9914   4.263   1.702   4.361
 3303TIP3    H1 9915   4.324   1.700   4.287
 3303TIP3    H2 9916   4.184   1.660   4.329
 3304TIP3   OH2 9917   4.811   5.467   2.335
 3304TIP3    H1 9918   4.726   5.425   2.348
 3304TIP3    H2 9919   4.793   5.561   2.344
 3305TIP3   OH2 9920   1.497   1.182   3.977
 3305TIP3    H1 9921   1.402   1.174   3.986
 3305TIP3    H2 9922   1.519   1.129   3.900
 3306TIP3   OH2 9923   4.635   3.602   0.643
 3306TIP3    H1 9924   4.577   3.619   0.569
 3306TIP3    H2 9925   4.694   3.534   0.613
 3307TIP3   OH2 9926   3.498   2.998   4.481
 3307TIP3    H1 9927   3.539   3.008   4.395
 3307TIP3    H2 9928   3.411   2.964   4.462
 3308TIP3   OH2 9929   5.005   2.519   5.141
 3308TIP3    H1 9930   5.064   2.443   5.151
 3308TIP3    H2 9931   5.004   2.536   5.047
 3309TIP3   OH2 9932   3.492   2.792   1.148
 3309TIP3    H1 9933   3.441   2.873   1.141
 3309TIP3    H2 9934   3.581   2.821   1.165
 3310TIP3   OH2 9935   4.612   0.116   0.175
 3310TIP3    H1 9936   4.549   0.056   0.215
 3310TIP3    H2 9937   4.576   0.134   0.088
 3311TIP3   OH2 9938   6.150   2.774   1.250
 3311TIP3    H1 9939   6.241   2.803   1.254
 3311TIP3    H2 9940   6.153   2.689   1.207
 3312TIP3   OH2 9941   6.221   0.314   1.856
 3312TIP3    H1 9942   6.133   0.280   1.870
 3312TIP3    H2 9943   6.237   0.302   1.763
 3313TIP3   OH2 9944   1.876   0.349   0.107
 3313TIP3    H1 9945   1.964   0.383   0.096
 3313TIP3    H2 9946   1.823   0.425   0.130
 3314TIP3   OH2 9947   3.154   1.723   3.539
 3314TIP3    H1 9948   3.192   1.791   3.595
 3314TIP3    H2 9949   3.060   1.731   3.552
 3315TIP3   OH2 9950   4.726   1.115   2.425
 3315TIP3    H1 9951   4.669   1.140   2.353
 3315TIP3    H2 9952   4.677   1.138   2.504
 3316TIP3   OH2 9953   2.843   4.878   1.666
 3316TIP3    H1 9954   2.771   4.895   1.727
 3316TIP3    H2 9955   2.887   4.962   1.657
 3317TIP3   OH2 9956   4.412   2.176   0.433
 3317TIP3    H1 9957   4.393   2.083   0.419
 3317TIP3    H2 9958   4.499   2.177   0.474
 3318TIP3   OH2 9959   2.487   4.619   3.977
 3318TIP3    H1 9960   2.503   4.577   4.061
 3318TIP3    H2 9961   2.461   4.547   3.919
 3319TIP3   OH2 9962   2.722   3.479   2.153
 3319TIP3    H1 9963   2.662   3.519   2.090
 3319TIP3    H2 9964   2.722   3.386   2.131
 3320TIP3   OH2 9965   1.462   2.956   3.788
 3320TIP3    H1 9966   1.393   2.947   3.854
 3320TIP3    H2 9967   1.441   3.038   3.743
 3321TIP3   OH2 9968   1.023   5.686   1.194
 3321TIP3    H1 9969   1.108   5.680   1.237
 3321TIP3    H2 9970   1.036   5.645   1.108
 3322TIP3   OH2 9971   2.048   2.207   0.502
 3322TIP3    H1 9972   2.003   2.270   0.558
 3322TIP3    H2 9973   2.029   2.236   0.413
 3323TIP3   OH2 9974   5.564   2.182   1.962
 3323TIP3    H1 9975   5.551   2.201   2.055
 3323TIP3    H2 9976   5.591   2.266   1.924
 3324TIP3   OH2 9977   1.212   2.556   4.427
 3324TIP3    H1 9978   1.257   2.545   4.511
 3324TIP3    H2 9979   1.205   2.467   4.392
 3325TIP3   OH2 9980   3.017   0.943   4.566
 3325TIP3    H1 9981   3.015   0.975   4.656
 3325TIP3    H2 9982   2.951   0.873   4.565
 3326TIP3   OH2 9983   0.300   5.129   4.676
 3326TIP3    H1 9984   0.351   5.125   4.595
 3326TIP3    H2 9985   0.356   5.176   4.738
 3327TIP3   OH2 9986   3.089   0.099   3.075
 3327TIP3    H1 9987   3.027   0.097   3.148
 3327TIP3    H2 9988   3.170   0.063   3.111
 3328TIP3   OH2 9989   5.687   2.567   0.427
 3328TIP3    H1 9990   5.620   2.535   0.488
 3328TIP3    H2 9991   5.672   2.517   0.347
 3329TIP3   OH2 9992   3.947   4.384   2.796
 3329TIP3    H1 9993   4.025   4.411   2.844
 3329TIP3    H2 9994   3.877   4.388   2.861
 3330TIP3   OH2 9995   5.035   3.493   1.574
 3330TIP3    H1 9996   4.986   3.575   1.580
 3330TIP3    H2 9997   5.112   3.515   1.521
 3331TIP3   OH2 9998   2.448   4.244   2.897
 3331TIP3    H1 9999   2.360   4.236   2.935
 3331TIP3    H210000   2.435   4.232   2.803
 3332TIP3   OH210001   1.307   3.239   1.297
 3332TIP3    H110002   1.343   3.257   1.384
 3332TIP3    H210003   1.280   3.147   1.301
 3333TIP3   OH210004   3.086   5.192   4.741
 3333TIP3    H110005   3.060   5.277   4.777
 3333TIP3    H210006   3.164   5.210   4.689
 3334TIP3   OH210007   2.083   0.035   3.010
 3334TIP3    H110008   2.127  -0.004   2.934
 3334TIP3    H210009   2.021   0.097   2.972
 3335TIP3   OH210010   5.874   0.586   4.466
 3335TIP3    H110011   5.784   0.606   4.440
 3335TIP3    H210012   5.926   0.600   4.386
 3336TIP3   OH210013   4.257   0.681   4.031
 3336TIP3    H110014   4.239   0.594   4.067
 3336TIP3    H210015   4.200   0.740   4.080
 3337TIP3   OH210016   1.367   0.412   0.456
 3337TIP3    H110017   1.403   0.376   0.538
 3337TIP3    H210018   1.286   0.455   0.483
 3338TIP3   OH210019   5.392   2.080   1.757
 3338TIP3    H110020   5.327   2.078   1.828
 3338TIP3    H210021   5.470   2.117   1.797
 3339TIP3   OH210022   4.002   0.454   3.742
 3339TIP3    H110023   3.983   0.526   3.681
 3339TIP3    H210024   4.093   0.432   3.724
 3340TIP3   OH210025   6.001   0.757   4.909
 3340TIP3    H110026   6.041   0.747   4.823
 3340TIP3    H210027   6.027   0.844   4.938
 3341TIP3   OH210028   2.465   3.250   1.205
 3341TIP3    H110029   2.380   3.294   1.204
 3341TIP3    H210030   2.492   3.247   1.114
 3342TIP3   OH210031   4.633   5.684   1.746
 3342TIP3    H110032   4.657   5.695   1.839
 3342TIP3    H210033   4.558   5.741   1.734
 3343TIP3   OH210034   2.487   2.770   0.668
 3343TIP3    H110035   2.396   2.760   0.697
 3343TIP3    H210036   2.496   2.707   0.596
 3344TIP3   OH210037   3.262   3.338   0.467
 3344TIP3    H110038   3.229   3.259   0.509
 3344TIP3    H210039   3.302   3.389   0.538
 3345TIP3   OH210040   5.232   4.861   2.941
 3345TIP3    H110041   5.292   4.899   2.877
 3345TIP3    H210042   5.145   4.880   2.905
 3346TIP3   OH210043   5.727   0.770   4.922
 3346TIP3    H110044   5.822   0.760   4.922
 3346TIP3    H210045   5.706   0.809   5.007
 3347TIP3   OH210046   0.178   2.333   4.408
 3347TIP3    H110047   0.156   2.284   4.329
 3347TIP3    H210048   0.265   2.369   4.390
 3348TIP3   OH210049   5.670   3.948   2.979
 3348TIP3    H110050   5.755   3.983   2.953
 3348TIP3    H210051   5.654   3.986   3.065
 3349TIP3   OH210052   4.755   0.251   0.357
 3349TIP3    H110053   4.717   0.231   0.272
 3349TIP3    H210054   4.709   0.329   0.387
 3350TIP3   OH210055   0.425   0.261   0.561
 3350TIP3    H110056   0.370   0.338   0.575
 3350TIP3    H210057   0.409   0.237   0.469
 3351TIP3   OH210058   2.276   1.507   1.577
 3351TIP3    H110059   2.350   1.468   1.531
 3351TIP3    H210060   2.315   1.541   1.658
 3352TIP3   OH210061   2.234   1.703   3.986
 3352TIP3    H110062   2.164   1.766   3.967
 3352TIP3    H210063   2.287   1.746   4.054
 3353TIP3   OH210064   4.100   4.712   0.188
 3353TIP3    H110065   4.085   4.670   0.273
 3353TIP3    H210066   4.076   4.646   0.123
 3354TIP3   OH210067   4.978   1.465   2.157
 3354TIP3    H110068   4.998   1.553   2.189
 3354TIP3    H210069   5.039   1.408   2.203
 3355TIP3   OH210070   4.782   4.920   1.197
 3355TIP3    H110071   4.735   4.855   1.146
 3355TIP3    H210072   4.858   4.942   1.143
 3356TIP3   OH210073   3.141   0.674   3.131
 3356TIP3    H110074   3.216   0.703   3.183
 3356TIP3    H210075   3.133   0.581   3.150
 3357TIP3   OH210076   3.076   3.620   4.609
 3357TIP3    H110077   2.983   3.618   4.586
 3357TIP3    H210078   3.111   3.538   4.575
 3358TIP3   OH210079   5.819   5.130   1.329
 3358TIP3    H110080   5.890   5.165   1.275
 3358TIP3    H210081   5.862   5.109   1.413
 3359TIP3   OH210082   1.917   1.684   2.435
 3359TIP3    H110083   1.848   1.713   2.375
 3359TIP3    H210084   1.872   1.670   2.518
 3360TIP3   OH210085   4.789   5.694   4.750
 3360TIP3    H110086   4.726   5.729   4.686
 3360TIP3    H210087   4.875   5.713   4.713
 3361TIP3   OH210088   2.079   4.039   3.652
 3361TIP3    H110089   2.115   3.951   3.665
 3361TIP3    H210090   2.048   4.064   3.739
 3362TIP3   OH210091   4.169   3.615   0.480
 3362TIP3    H110092   4.224   3.694   0.482
 3362TIP3    H210093   4.192   3.572   0.398
 3363TIP3   OH210094   0.074   4.828   1.667
 3363TIP3    H110095   0.024   4.910   1.661
 3363TIP3    H210096   0.010   4.760   1.647
 3364TIP3   OH210097   3.359   4.422   3.030
 3364TIP3    H110098   3.409   4.427   3.112
 3364TIP3    H210099   3.333   4.513   3.012
 3365TIP3   OH210100   3.678   1.866   3.301
 3365TIP3    H110101   3.635   1.787   3.268
 3365TIP3    H210102   3.675   1.856   3.396
 3366TIP3   OH210103   0.543   4.307   0.413
 3366TIP3    H110104   0.499   4.270   0.489
 3366TIP3    H210105   0.474   4.351   0.363
 3367TIP3   OH210106   1.209   0.156   0.541
 3367TIP3    H110107   1.271   0.200   0.483
 3367TIP3    H210108   1.228   0.192   0.628
 3368TIP3   OH210109   5.976   4.481   2.447
 3368TIP3    H110110   5.913   4.538   2.491
 3368TIP3    H210111   5.953   4.487   2.354
 3369TIP3   OH210112   6.067   3.239   0.251
 3369TIP3    H110113   6.127   3.291   0.304
 3369TIP3    H210114   6.117   3.218   0.172
 3370TIP3   OH210115   6.119   2.525   1.169
 3370TIP3    H110116   6.182   2.510   1.099
 3370TIP3    H210117   6.104   2.439   1.207
 3371TIP3   OH210118   1.825   3.574   3.689
 3371TIP3    H110119   1.823   3.662   3.727
 3371TIP3    H210120   1.905   3.534   3.724
 3372TIP3   OH210121   0.445   4.277   2.241
 3372TIP3    H110122   0.487   4.193   2.263
 3372TIP3    H210123   0.517   4.340   2.237
 3373TIP3   OH210124   5.610   0.591   2.644
 3373TIP3    H110125   5.690   0.636   2.618
 3373TIP3    H210126   5.614   0.507   2.598
 3374TIP3   OH210127   4.483   0.367   4.848
 3374TIP3    H110128   4.539   0.384   4.772
 3374TIP3    H210129   4.467   0.454   4.886
 3375TIP3   OH210130   5.349   3.213   0.198
 3375TIP3    H110131   5.368   3.190   0.107
 3375TIP3    H210132   5.402   3.152   0.250
 3376TIP3   OH210133   5.698   4.020   2.628
 3376TIP3    H110134   5.655   3.945   2.667
 3376TIP3    H210135   5.770   3.983   2.577
 3377TIP3   OH210136   5.124   4.101   4.370
 3377TIP3    H110137   5.162   4.185   4.397
 3377TIP3    H210138   5.084   4.067   4.451
 3378TIP3   OH210139   0.732   2.238   1.263
 3378TIP3    H110140   0.687   2.171   1.211
 3378TIP3    H210141   0.710   2.216   1.353
 3379TIP3   OH210142   3.405   5.905   4.716
 3379TIP3    H110143   3.416   5.991   4.756
 3379TIP3    H210144   3.327   5.869   4.759
 3380TIP3   OH210145   4.662   0.962   0.067
 3380TIP3    H110146   4.685   0.954  -0.026
 3380TIP3    H210147   4.598   0.892   0.082
 3381TIP3   OH210148   3.268   3.775   1.470
 3381TIP3    H110149   3.314   3.841   1.418
 3381TIP3    H210150   3.199   3.824   1.516
 3382TIP3   OH210151   2.561   1.226   0.174
 3382TIP3    H110152   2.587   1.307   0.130
 3382TIP3    H210153   2.474   1.207   0.140
 3383TIP3   OH210154   5.902   4.696   4.151
 3383TIP3    H110155   5.973   4.638   4.179
 3383TIP3    H210156   5.892   4.758   4.223
 3384TIP3   OH210157   6.213   2.960   0.160
 3384TIP3    H110158   6.230   2.951   0.066
 3384TIP3    H210159   6.172   2.877   0.184
 3385TIP3   OH210160   5.718   3.013   0.538
 3385TIP3    H110161   5.667   3.022   0.457
 3385TIP3    H210162   5.799   2.972   0.510
 3386TIP3   OH210163   3.203   0.553   3.870
 3386TIP3    H110164   3.158   0.470   3.856
 3386TIP3    H210165   3.139   0.620   3.847
 3387TIP3   OH210166   4.160   3.427   1.471
 3387TIP3    H110167   4.253   3.444   1.487
 3387TIP3    H210168   4.115   3.470   1.544
 3388TIP3   OH210169   3.963   5.472   3.533
 3388TIP3    H110170   3.920   5.537   3.588
 3388TIP3    H210171   3.898   5.402   3.523
 3389TIP3   OH210172   1.005   1.262   0.641
 3389TIP3    H110173   1.057   1.329   0.597
 3389TIP3    H210174   1.014   1.282   0.734
 3390TIP3   OH210175   2.016   3.215   2.403
 3390TIP3    H110176   2.063   3.296   2.426
 3390TIP3    H210177   2.030   3.157   2.477
 3391TIP3   OH210178   1.299   4.452   0.620
 3391TIP3    H110179   1.367   4.505   0.662
 3391TIP3    H210180   1.282   4.496   0.537
 3392TIP3   OH210181   2.044   0.404   1.461
 3392TIP3    H110182   2.088   0.387   1.544
 3392TIP3    H210183   2.110   0.383   1.395
 3393TIP3   OH210184   0.156   2.515   0.125
 3393TIP3    H110185   0.067   2.480   0.136
 3393TIP3    H210186   0.211   2.460   0.181
 3394TIP3   OH210187   1.074   3.414   4.608
 3394TIP3    H110188   1.090   3.502   4.572
 3394TIP3    H210189   1.133   3.357   4.558
 3395TIP3   OH210190   3.131   2.108   3.457
 3395TIP3    H110191   3.056   2.068   3.413
 3395TIP3    H210192   3.106   2.199   3.469
 3396TIP3   OH210193   6.139   2.561   2.316
 3396TIP3    H110194   6.158   2.468   2.310
 3396TIP3    H210195   6.225   2.603   2.317
 3397TIP3   OH210196   4.320   2.588   1.896
 3397TIP3    H110197   4.391   2.620   1.840
 3397TIP3    H210198   4.261   2.542   1.837
 3398TIP3   OH210199   4.297   3.515   4.217
 3398TIP3    H110200   4.208   3.481   4.202
 3398TIP3    H210201   4.308   3.584   4.153
 3399TIP3   OH210202   3.509   4.940   1.244
 3399TIP3    H110203   3.535   4.930   1.153
 3399TIP3    H210204   3.591   4.932   1.293
 3400TIP3   OH210205   3.836   2.908   2.506
 3400TIP3    H110206   3.793   2.833   2.464
 3400TIP3    H210207   3.868   2.873   2.590
 3401TIP3   OH210208   4.532   3.912   0.628
 3401TIP3    H110209   4.586   3.974   0.581
 3401TIP3    H210210   4.559   3.921   0.720
 3402TIP3   OH210211   3.168   3.409   4.494
 3402TIP3    H110212   3.197   3.328   4.535
 3402TIP3    H210213   3.179   3.394   4.400
 3403TIP3   OH210214   5.927   4.585   1.765
 3403TIP3    H110215   5.883   4.557   1.684
 3403TIP3    H210216   5.986   4.513   1.785
 3404TIP3   OH210217   1.914   2.198   4.090
 3404TIP3    H110218   1.865   2.144   4.152
 3404TIP3    H210219   1.862   2.278   4.081
 3405TIP3   OH210220   1.276   0.817   0.499
 3405TIP3    H110221   1.226   0.766   0.435
 3405TIP3    H210222   1.359   0.836   0.455
 3406TIP3   OH210223   5.206   3.321   2.033
 3406TIP3    H110224   5.254   3.263   2.093
 3406TIP3    H210225   5.269   3.387   2.007
 3407TIP3   OH210226   0.410   0.909   1.064
 3407TIP3    H110227   0.340   0.874   1.119
 3407TIP3    H210228   0.471   0.950   1.125
 3408TIP3   OH210229   4.932   3.818   2.196
 3408TIP3    H110230   4.879   3.888   2.158
 3408TIP3    H210231   5.001   3.864   2.244
 3409TIP3   OH210232   4.922   0.706   5.236
 3409TIP3    H110233   4.911   0.738   5.146
 3409TIP3    H210234   4.836   0.718   5.277
 3410TIP3   OH210235   1.961   3.303   1.564
 3410TIP3    H110236   2.051   3.308   1.531
 3410TIP3    H210237   1.961   3.357   1.643
 3411TIP3   OH210238   5.280   2.569   3.812
 3411TIP3    H110239   5.257   2.479   3.835
 3411TIP3    H210240   5.262   2.620   3.891
 3412TIP3   OH210241   1.598   1.438   1.902
 3412TIP3    H110242   1.534   1.461   1.835
 3412TIP3    H210243   1.565   1.357   1.940
 3413TIP3   OH210244   5.982   3.685   0.492
 3413TIP3    H110245   6.027   3.761   0.454
 3413TIP3    H210246   5.915   3.663   0.428
 3414TIP3   OH210247   0.964   2.519   3.278
 3414TIP3    H110248   1.050   2.561   3.272
 3414TIP3    H210249   0.974   2.436   3.232
 3415TIP3   OH210250   3.729   3.723   1.677
 3415TIP3    H110251   3.798   3.737   1.743
 3415TIP3    H210252   3.775   3.733   1.594
 3416TIP3   OH210253   1.985   4.223   3.447
 3416TIP3    H110254   2.010   4.167   3.520
 3416TIP3    H210255   1.896   4.252   3.469
 3417TIP3   OH210256   4.659   1.441   4.288
 3417TIP3    H110257   4.700   1.461   4.372
 3417TIP3    H210258   4.733   1.420   4.230
 3418TIP3   OH210259   6.190   0.778   2.210
 3418TIP3    H110260   6.261   0.715   2.225
 3418TIP3    H210261   6.135   0.736   2.143
 3419TIP3   OH210262   5.571   4.174   2.422
 3419TIP3    H110263   5.596   4.264   2.444
 3419TIP3    H210264   5.606   4.121   2.495
 3420TIP3   OH210265   2.911   1.835   1.045
 3420TIP3    H110266   2.911   1.925   1.012
 3420TIP3    H210267   2.824   1.801   1.023
 3421TIP3   OH210268  -0.079   3.625   3.597
 3421TIP3    H110269  -0.088   3.634   3.692
 3421TIP3    H210270   0.015   3.613   3.583
 3422TIP3   OH210271   0.130   3.086   1.342
 3422TIP3    H110272   0.067   3.133   1.288
 3422TIP3    H210273   0.099   3.099   1.432
 3423TIP3   OH210274   1.003   5.635   1.485
 3423TIP3    H110275   1.005   5.540   1.474
 3423TIP3    H210276   0.965   5.669   1.404
 3424TIP3   OH210277   4.107   2.159   4.998
 3424TIP3    H110278   4.092   2.241   4.953
 3424TIP3    H210279   4.176   2.179   5.062
 3425TIP3   OH210280   0.829   4.365   0.749
 3425TIP3    H110281   0.867   4.330   0.830
 3425TIP3    H210282   0.885   4.440   0.728
 3426TIP3   OH210283   1.262   4.115   2.007
 3426TIP3    H110284   1.301   4.031   1.981
 3426TIP3    H210285   1.337   4.174   2.014
 3427TIP3   OH210286   5.344   2.448   2.141
 3427TIP3    H110287   5.279   2.431   2.072
 3427TIP3    H210288   5.381   2.362   2.160
 3428TIP3   OH210289   5.266   5.112   3.912
 3428TIP3    H110290   5.328   5.053   3.955
 3428TIP3    H210291   5.319   5.162   3.850
 3429TIP3   OH210292   1.908   5.956   1.983
 3429TIP3    H110293   1.933   6.048   1.989
 3429TIP3    H210294   1.814   5.958   1.966
 3430TIP3   OH210295   0.630   5.787   4.359
 3430TIP3    H110296   0.618   5.811   4.267
 3430TIP3    H210297   0.588   5.702   4.368
 3431TIP3   OH210298   2.737   2.944   3.173
 3431TIP3    H110299   2.748   2.998   3.095
 3431TIP3    H210300   2.709   3.005   3.241
 3432TIP3   OH210301   0.389   1.361   0.090
 3432TIP3    H110302   0.481   1.380   0.106
 3432TIP3    H210303   0.358   1.435   0.038
 3433TIP3   OH210304   2.018   5.521   2.942
 3433TIP3    H110305   1.950   5.480   2.996
 3433TIP3    H210306   1.983   5.607   2.920
 3434TIP3   OH210307   5.370   0.120   1.813
 3434TIP3    H110308   5.331   0.162   1.889
 3434TIP3    H210309   5.301   0.122   1.747
 3435TIP3   OH210310   2.342   5.822   2.893
 3435TIP3    H110311   2.420   5.812   2.839
 3435TIP3    H210312   2.270   5.830   2.831
 3436TIP3   OH210313   5.788   2.692   0.040
 3436TIP3    H110314   5.836   2.723   0.117
 3436TIP3    H210315   5.784   2.597   0.050
 3437TIP3   OH210316   5.899   2.444   3.426
 3437TIP3    H110317   5.912   2.447   3.331
 3437TIP3    H210318   5.949   2.518   3.459
 3438TIP3   OH210319   0.689   5.848   0.981
 3438TIP3    H110320   0.762   5.895   1.021
 3438TIP3    H210321   0.724   5.820   0.896
 3439TIP3   OH210322   2.201   0.812   1.054
 3439TIP3    H110323   2.270   0.819   0.987
 3439TIP3    H210324   2.200   0.720   1.077
 3440TIP3   OH210325   3.661   5.849   4.887
 3440TIP3    H110326   3.614   5.917   4.840
 3440TIP3    H210327   3.678   5.781   4.821
 3441TIP3   OH210328   6.222   2.445   2.580
 3441TIP3    H110329   6.166   2.402   2.515
 3441TIP3    H210330   6.203   2.399   2.662
 3442TIP3   OH210331   0.667   0.434   0.416
 3442TIP3    H110332   0.624   0.455   0.499
 3442TIP3    H210333   0.660   0.339   0.410
 3443TIP3   OH210334   3.628   1.483   5.083
 3443TIP3    H110335   3.715   1.498   5.121
 3443TIP3    H210336   3.635   1.397   5.041
 3444TIP3   OH210337   1.843   1.544   4.389
 3444TIP3    H110338   1.873   1.615   4.446
 3444TIP3    H210339   1.890   1.467   4.420
 3445TIP3   OH210340   4.849   0.408   3.500
 3445TIP3    H110341   4.779   0.438   3.441
 3445TIP3    H210342   4.804   0.356   3.566
 3446TIP3   OH210343   4.479   2.303   1.795
 3446TIP3    H110344   4.477   2.396   1.771
 3446TIP3    H210345   4.529   2.261   1.726
 3447TIP3   OH210346   4.005   5.075   1.217
 3447TIP3    H110347   4.022   5.119   1.300
 3447TIP3    H210348   4.086   5.085   1.168
 3448TIP3   OH210349   1.095   2.674   2.996
 3448TIP3    H110350   1.080   2.743   2.931
 3448TIP3    H210351   1.079   2.593   2.949
 3449TIP3   OH210352   1.639   2.109   2.604
 3449TIP3    H110353   1.678   2.189   2.640
 3449TIP3    H210354   1.708   2.043   2.610
 3450TIP3   OH210355   3.829   5.979   0.112
 3450TIP3    H110356   3.802   5.888   0.126
 3450TIP3    H210357   3.864   5.980   0.023
 3451TIP3   OH210358   5.593   5.132   3.881
 3451TIP3    H110359   5.567   5.185   3.806
 3451TIP3    H210360   5.601   5.043   3.847
 3452TIP3   OH210361   5.545   3.718   0.412
 3452TIP3    H110362   5.503   3.678   0.488
 3452TIP3    H210363   5.623   3.664   0.397
 3453TIP3   OH210364   1.436   1.226   4.304
 3453TIP3    H110365   1.451   1.297   4.366
 3453TIP3    H210366   1.357   1.252   4.256
 3454TIP3   OH210367   2.482   1.173   1.850
 3454TIP3    H110368   2.495   1.237   1.781
 3454TIP3    H210369   2.399   1.130   1.828
 3455TIP3   OH210370   3.755   2.701   0.051
 3455TIP3    H110371   3.771   2.719  -0.042
 3455TIP3    H210372   3.805   2.621   0.068
 3456TIP3   OH210373   0.095   5.772   4.450
 3456TIP3    H110374   0.023   5.783   4.388
 3456TIP3    H210375   0.085   5.844   4.512
 3457TIP3   OH210376   5.270   2.307   4.190
 3457TIP3    H110377   5.364   2.320   4.179
 3457TIP3    H210378   5.263   2.239   4.257
 3458TIP3   OH210379   1.824   1.352   1.736
 3458TIP3    H110380   1.752   1.387   1.788
 3458TIP3    H210381   1.899   1.407   1.758
 3459TIP3   OH210382   1.883   4.829   0.670
 3459TIP3    H110383   1.873   4.874   0.754
 3459TIP3    H210384   1.853   4.893   0.605
 3460TIP3   OH210385   1.797   0.308   3.824
 3460TIP3    H110386   1.844   0.361   3.760
 3460TIP3    H210387   1.719   0.360   3.845
 3461TIP3   OH210388   2.491   1.282   0.739
 3461TIP3    H110389   2.460   1.194   0.757
 3461TIP3    H210390   2.430   1.340   0.784
 3462TIP3   OH210391   6.114   1.737   4.928
 3462TIP3    H110392   6.070   1.805   4.877
 3462TIP3    H210393   6.206   1.744   4.901
 3463TIP3   OH210394   1.819   5.213   2.416
 3463TIP3    H110395   1.872   5.272   2.471
 3463TIP3    H210396   1.873   5.134   2.407
 3464TIP3   OH210397   5.590   4.067   3.251
 3464TIP3    H110398   5.590   4.073   3.346
 3464TIP3    H210399   5.516   4.010   3.230
 3465TIP3   OH210400   3.274   0.200   0.450
 3465TIP3    H110401   3.317   0.267   0.397
 3465TIP3    H210402   3.324   0.197   0.531
 3466TIP3   OH210403   4.092   0.928   3.839
 3466TIP3    H110404   4.110   0.835   3.831
 3466TIP3    H210405   4.168   0.971   3.799
 3467TIP3   OH210406   2.073   2.434   3.855
 3467TIP3    H110407   1.998   2.479   3.816
 3467TIP3    H210408   2.059   2.444   3.950
 3468TIP3   OH210409   4.438   3.432   1.533
 3468TIP3    H110410   4.533   3.419   1.531
 3468TIP3    H210411   4.426   3.515   1.579
 3469TIP3   OH210412   2.231   3.573   3.528
 3469TIP3    H110413   2.191   3.503   3.580
 3469TIP3    H210414   2.219   3.652   3.580
 3470TIP3   OH210415   4.405   2.267   1.507
 3470TIP3    H110416   4.478   2.314   1.467
 3470TIP3    H210417   4.425   2.175   1.495
 3471TIP3   OH210418   3.155   2.258   0.193
 3471TIP3    H110419   3.183   2.166   0.187
 3471TIP3    H210420   3.129   2.269   0.284
 3472TIP3   OH210421   6.059   4.101   1.734
 3472TIP3    H110422   6.118   4.155   1.680
 3472TIP3    H210423   6.107   4.019   1.747
 3473TIP3   OH210424   5.280   2.143   3.329
 3473TIP3    H110425   5.265   2.075   3.263
 3473TIP3    H210426   5.221   2.214   3.304
 3474TIP3   OH210427   2.379   2.207   4.861
 3474TIP3    H110428   2.433   2.170   4.792
 3474TIP3    H210429   2.409   2.165   4.942
 3475TIP3   OH210430   0.421   4.867   2.851
 3475TIP3    H110431   0.444   4.862   2.944
 3475TIP3    H210432   0.504   4.849   2.806
 3476TIP3   OH210433   2.485   2.008   0.057
 3476TIP3    H110434   2.560   1.964   0.097
 3476TIP3    H210435   2.521   2.053  -0.019
 3477TIP3   OH210436   1.669   5.382   2.653
 3477TIP3    H110437   1.628   5.443   2.593
 3477TIP3    H210438   1.763   5.393   2.638
 3478TIP3   OH210439   2.818   5.702   2.934
 3478TIP3    H110440   2.772   5.786   2.939
 3478TIP3    H210441   2.887   5.716   2.870
 3479TIP3   OH210442   3.120   4.932  -0.001
 3479TIP3    H110443   3.193   4.907   0.056
 3479TIP3    H210444   3.162   4.967  -0.080
 3480TIP3   OH210445   2.550   4.669   4.791
 3480TIP3    H110446   2.471   4.716   4.815
 3480TIP3    H210447   2.521   4.578   4.779
 3481TIP3   OH210448   6.101   5.653   5.042
 3481TIP3    H110449   6.088   5.589   5.111
 3481TIP3    H210450   6.193   5.678   5.049
 3482TIP3   OH210451   3.787   1.433   0.264
 3482TIP3    H110452   3.796   1.490   0.340
 3482TIP3    H210453   3.692   1.425   0.251
 3483TIP3   OH210454   5.369   4.961   3.171
 3483TIP3    H110455   5.303   5.024   3.199
 3483TIP3    H210456   5.346   4.943   3.080
 3484TIP3   OH210457   0.734   5.275   1.715
 3484TIP3    H110458   0.763   5.232   1.634
 3484TIP3    H210459   0.811   5.320   1.748
 3485TIP3   OH210460   6.198   4.914   4.331
 3485TIP3    H110461   6.254   4.952   4.399
 3485TIP3    H210462   6.256   4.857   4.282
 3486TIP3   OH210463   5.085   1.558   5.070
 3486TIP3    H110464   5.085   1.583   5.163
 3486TIP3    H210465   5.140   1.480   5.067
 3487TIP3   OH210466   3.062   4.371   3.453
 3487TIP3    H110467   3.072   4.458   3.492
 3487TIP3    H210468   3.073   4.385   3.359
 3488TIP3   OH210469   0.914   2.093   3.603
 3488TIP3    H110470   0.854   2.069   3.533
 3488TIP3    H210471   0.960   2.170   3.570
 3489TIP3   OH210472   1.537   3.932   1.304
 3489TIP3    H110473   1.485   3.852   1.313
 3489TIP3    H210474   1.581   3.923   1.219
 3490TIP3   OH210475   5.772   3.164   2.563
 3490TIP3    H110476   5.821   3.196   2.487
 3490TIP3    H210477   5.752   3.073   2.543
 3491TIP3   OH210478   1.502   1.574   3.502
 3491TIP3    H110479   1.539   1.595   3.417
 3491TIP3    H210480   1.572   1.526   3.548
 3492TIP3   OH210481   1.211   3.105   0.714
 3492TIP3    H110482   1.267   3.103   0.637
 3492TIP3    H210483   1.186   3.014   0.729
 3493TIP3   OH210484   3.714   4.518   1.439
 3493TIP3    H110485   3.672   4.461   1.504
 3493TIP3    H210486   3.686   4.484   1.355
 3494TIP3   OH210487   1.285   0.707   2.459
 3494TIP3    H110488   1.303   0.723   2.366
 3494TIP3    H210489   1.217   0.639   2.459
 3495TIP3   OH210490   2.394   3.742   1.388
 3495TIP3    H110491   2.348   3.691   1.321
 3495TIP3    H210492   2.396   3.685   1.465
 3496TIP3   OH210493   5.814   0.743   1.488
 3496TIP3    H110494   5.760   0.779   1.418
 3496TIP3    H210495   5.783   0.653   1.499
 3497TIP3   OH210496   0.369   5.678   1.741
 3497TIP3    H110497   0.349   5.754   1.795
 3497TIP3    H210498   0.420   5.620   1.798
 3498TIP3   OH210499   4.912   5.102   3.250
 3498TIP3    H110500   4.890   5.191   3.279
 3498TIP3    H210501   4.991   5.114   3.197
 3499TIP3   OH210502   1.726   1.345   0.099
 3499TIP3    H110503   1.738   1.420   0.156
 3499TIP3    H210504   1.661   1.290   0.143
 3500TIP3   OH210505   5.903   4.660   5.125
 3500TIP3    H110506   5.935   4.571   5.138
 3500TIP3    H210507   5.932   4.707   5.203
 3501TIP3   OH210508   5.079   1.228   4.489
 3501TIP3    H110509   5.035   1.296   4.437
 3501TIP3    H210510   5.093   1.156   4.428
 3502TIP3   OH210511   3.753   0.092   2.610
 3502TIP3    H110512   3.781   0.120   2.697
 3502TIP3    H210513   3.726   0.173   2.566
 3503TIP3   OH210514   0.282   4.472   2.261
 3503TIP3    H110515   0.197   4.431   2.275
 3503TIP3    H210516   0.340   4.399   2.238
 3504TIP3   OH210517  -0.003   1.340   4.229
 3504TIP3    H110518   0.071   1.339   4.167
 3504TIP3    H210519   0.032   1.382   4.307
 3505TIP3   OH210520   0.309   2.002   2.755
 3505TIP3    H110521   0.335   1.911   2.739
 3505TIP3    H210522   0.324   2.015   2.848
 3506TIP3   OH210523   1.864   5.616   1.056
 3506TIP3    H110524   1.907   5.569   1.128
 3506TIP3    H210525   1.934   5.631   0.992
 3507TIP3   OH210526   2.927   3.776   4.120
 3507TIP3    H110527   2.992   3.719   4.160
 3507TIP3    H210528   2.952   3.779   4.028
 3508TIP3   OH210529   4.945   2.908   0.399
 3508TIP3    H110530   4.918   2.961   0.474
 3508TIP3    H210531   4.942   2.818   0.432
 3509TIP3   OH210532   0.561   0.667   1.051
 3509TIP3    H110533   0.524   0.585   1.018
 3509TIP3    H210534   0.500   0.695   1.120
 3510TIP3   OH210535   3.728   3.446   1.467
 3510TIP3    H110536   3.645   3.484   1.496
 3510TIP3    H210537   3.784   3.522   1.449
 3511TIP3   OH210538   6.150   4.375   2.116
 3511TIP3    H110539   6.109   4.353   2.032
 3511TIP3    H210540   6.119   4.307   2.176
 3512TIP3   OH210541   3.792   2.076   3.934
 3512TIP3    H110542   3.748   2.132   3.998
 3512TIP3    H210543   3.724   2.050   3.873
 3513TIP3   OH210544   0.212   3.798   5.179
 3513TIP3    H110545   0.179   3.782   5.090
 3513TIP3    H210546   0.234   3.711   5.212
 3514TIP3   OH210547   5.748   2.271   2.214
 3514TIP3    H110548   5.728   2.355   2.172
 3514TIP3    H210549   5.678   2.259   2.278
 3515TIP3   OH210550   5.615  -0.025   1.880
 3515TIP3    H110551   5.533   0.021   1.861
 3515TIP3    H210552   5.643  -0.059   1.795
 3516TIP3   OH210553   4.220   5.789   4.021
 3516TIP3    H110554   4.204   5.822   4.109
 3516TIP3    H210555   4.133   5.780   3.983
 3517TIP3   OH210556   0.480   1.813   0.977
 3517TIP3    H110557   0.508   1.725   0.953
 3517TIP3    H210558   0.422   1.801   1.051
 3518TIP3   OH210559   0.453   1.645   1.679
 3518TIP3    H110560   0.372   1.594   1.666
 3518TIP3    H210561   0.426   1.718   1.734
 3519TIP3   OH210562   3.139   2.308   0.474
 3519TIP3    H110563   3.221   2.287   0.518
 3519TIP3    H210564   3.071   2.279   0.535
 3520TIP3   OH210565   1.847   0.230   2.037
 3520TIP3    H110566   1.857   0.178   1.957
 3520TIP3    H210567   1.892   0.179   2.104
 3521TIP3   OH210568   1.223   2.601   3.264
 3521TIP3    H110569   1.225   2.569   3.174
 3521TIP3    H210570   1.260   2.689   3.259
 3522TIP3   OH210571   3.827   3.604   3.987
 3522TIP3    H110572   3.765   3.592   3.914
 3522TIP3    H210573   3.772   3.630   4.061
 3523TIP3   OH210574   5.226   0.531   0.674
 3523TIP3    H110575   5.240   0.436   0.684
 3523TIP3    H210576   5.299   0.560   0.619
 3524TIP3   OH210577   3.787   3.728   3.375
 3524TIP3    H110578   3.781   3.633   3.378
 3524TIP3    H210579   3.847   3.747   3.303
 3525TIP3   OH210580   2.965   2.211   1.240
 3525TIP3    H110581   2.924   2.184   1.158
 3525TIP3    H210582   3.058   2.221   1.218
 3526TIP3   OH210583   3.087   2.802   2.892
 3526TIP3    H110584   2.992   2.806   2.885
 3526TIP3    H210585   3.109   2.709   2.886
 3527TIP3   OH210586   2.461   1.675   2.827
 3527TIP3    H110587   2.556   1.687   2.828
 3527TIP3    H210588   2.437   1.678   2.734
 3528TIP3   OH210589   3.145   2.467   1.712
 3528TIP3    H110590   3.074   2.444   1.772
 3528TIP3    H210591   3.209   2.512   1.767
 3529TIP3   OH210592   5.023   0.815   0.972
 3529TIP3    H110593   5.027   0.720   0.973
 3529TIP3    H210594   5.094   0.842   0.914
 3530TIP3   OH210595   3.506   5.661   3.118
 3530TIP3    H110596   3.537   5.580   3.158
 3530TIP3    H210597   3.539   5.731   3.174
 3531TIP3   OH210598   5.535   3.611   2.481
 3531TIP3    H110599   5.602   3.663   2.436
 3531TIP3    H210600   5.530   3.649   2.568
 3532TIP3   OH210601   3.431   3.091   4.966
 3532TIP3    H110602   3.408   2.998   4.974
 3532TIP3    H210603   3.524   3.094   4.985
 3533TIP3   OH210604   3.328   5.193   2.928
 3533TIP3    H110605   3.406   5.186   2.873
 3533TIP3    H210606   3.281   5.111   2.914
 3534TIP3   OH210607   5.529   0.025   1.030
 3534TIP3    H110608   5.469   0.096   1.007
 3534TIP3    H210609   5.526  -0.034   0.954
 3535TIP3   OH210610   2.945   5.867   0.978
 3535TIP3    H110611   2.988   5.793   1.022
 3535TIP3    H210612   3.000   5.886   0.903
 3536TIP3   OH210613   1.523   0.588   0.717
 3536TIP3    H110614   1.538   0.664   0.662
 3536TIP3    H210615   1.436   0.601   0.755
 3537TIP3   OH210616   2.488   5.131   4.943
 3537TIP3    H110617   2.474   5.223   4.965
 3537TIP3    H210618   2.563   5.105   4.997
 3538TIP3   OH210619   3.857   2.242   2.118
 3538TIP3    H110620   3.779   2.239   2.062
 3538TIP3    H210621   3.893   2.154   2.114
 3539TIP3   OH210622   0.664   1.470   0.107
 3539TIP3    H110623   0.693   1.536   0.044
 3539TIP3    H210624   0.725   1.478   0.180
 3540TIP3   OH210625   3.103   3.482   1.828
 3540TIP3    H110626   3.148   3.550   1.877
 3540TIP3    H210627   3.013   3.513   1.819
 3541TIP3   OH210628   1.401   5.545   1.137
 3541TIP3    H110629   1.361   5.565   1.221
 3541TIP3    H210630   1.481   5.598   1.135
 3542TIP3   OH210631   5.110   4.330   3.713
 3542TIP3    H110632   5.043   4.345   3.779
 3542TIP3    H210633   5.089   4.244   3.675
 3543TIP3   OH210634   1.859   2.481   2.151
 3543TIP3    H110635   1.824   2.467   2.239
 3543TIP3    H210636   1.949   2.448   2.157
 3544TIP3   OH210637   4.552   4.807   2.849
 3544TIP3    H110638   4.586   4.875   2.791
 3544TIP3    H210639   4.599   4.819   2.931
 3545TIP3   OH210640   3.951   1.945   3.301
 3545TIP3    H110641   3.864   1.949   3.260
 3545TIP3    H210642   3.966   1.852   3.314
 3546TIP3   OH210643   6.405   0.572   0.669
 3546TIP3    H110644   6.345   0.634   0.628
 3546TIP3    H210645   6.372   0.563   0.758
 3547TIP3   OH210646   3.870   1.651   5.046
 3547TIP3    H110647   3.927   1.576   5.062
 3547TIP3    H210648   3.826   1.630   4.963
 3548TIP3   OH210649   3.798   2.695   5.065
 3548TIP3    H110650   3.734   2.684   4.994
 3548TIP3    H210651   3.883   2.692   5.021
 3549TIP3   OH210652   1.620   3.692   2.437
 3549TIP3    H110653   1.591   3.635   2.366
 3549TIP3    H210654   1.565   3.667   2.511
 3550TIP3   OH210655   1.106   5.451   3.397
 3550TIP3    H110656   1.048   5.415   3.330
 3550TIP3    H210657   1.161   5.377   3.423
 3551TIP3   OH210658   1.849   2.053   1.495
 3551TIP3    H110659   1.759   2.086   1.487
 3551TIP3    H210660   1.841   1.975   1.550
 3552TIP3   OH210661   6.200   1.697   3.559
 3552TIP3    H110662   6.137   1.668   3.493
 3552TIP3    H210663   6.276   1.724   3.507
 3553TIP3   OH210664   2.655   3.168   2.652
 3553TIP3    H110665   2.651   3.254   2.694
 3553TIP3    H210666   2.684   3.187   2.563
 3554TIP3   OH210667   5.478   2.535   3.520
 3554TIP3    H110668   5.561   2.567   3.484
 3554TIP3    H210669   5.445   2.608   3.572
 3555TIP3   OH210670   6.245   2.774   0.842
 3555TIP3    H110671   6.227   2.687   0.806
 3555TIP3    H210672   6.161   2.820   0.836
 3556TIP3   OH210673   1.714   1.488   4.900
 3556TIP3    H110674   1.787   1.550   4.897
 3556TIP3    H210675   1.636   1.541   4.882
 3557TIP3   OH210676   2.232   5.003   2.234
 3557TIP3    H110677   2.264   5.093   2.243
 3557TIP3    H210678   2.218   4.991   2.140
 3558TIP3   OH210679   3.713   3.855   3.754
 3558TIP3    H110680   3.713   3.764   3.782
 3558TIP3    H210681   3.621   3.879   3.750
 3559TIP3   OH210682   2.515   2.162   3.897
 3559TIP3    H110683   2.603   2.194   3.877
 3559TIP3    H210684   2.518   2.138   3.990
 3560TIP3   OH210685   4.207   2.700   3.509
 3560TIP3    H110686   4.259   2.780   3.519
 3560TIP3    H210687   4.199   2.665   3.598
 3561TIP3   OH210688   3.938   1.077   4.596
 3561TIP3    H110689   3.860   1.026   4.615
 3561TIP3    H210690   4.003   1.046   4.659
 3562TIP3   OH210691   5.123   5.868   2.642
 3562TIP3    H110692   5.179   5.939   2.609
 3562TIP3    H210693   5.069   5.910   2.709
 3563TIP3   OH210694   1.286   5.868   0.453
 3563TIP3    H110695   1.357   5.932   0.464
 3563TIP3    H210696   1.208   5.915   0.481
 3564TIP3   OH210697   5.733   0.928   2.150
 3564TIP3    H110698   5.643   0.955   2.168
 3564TIP3    H210699   5.782   1.009   2.142
 3565TIP3   OH210700   3.223   3.471   0.917
 3565TIP3    H110701   3.251   3.522   0.993
 3565TIP3    H210702   3.258   3.384   0.933
 3566TIP3   OH210703   0.361   4.607   3.344
 3566TIP3    H110704   0.382   4.672   3.411
 3566TIP3    H210705   0.404   4.527   3.374
 3567TIP3   OH210706   5.494   4.510   4.232
 3567TIP3    H110707   5.524   4.420   4.218
 3567TIP3    H210708   5.483   4.518   4.326
 3568TIP3   OH210709   5.559   4.550   0.464
 3568TIP3    H110710   5.614   4.627   0.452
 3568TIP3    H210711   5.535   4.551   0.556
 3569TIP3   OH210712   5.142   5.301   4.744
 3569TIP3    H110713   5.227   5.318   4.703
 3569TIP3    H210714   5.136   5.366   4.814
 3570TIP3   OH210715   4.817   3.676   3.549
 3570TIP3    H110716   4.802   3.679   3.454
 3570TIP3    H210717   4.842   3.585   3.566
 3571TIP3   OH210718   5.759   1.399   4.018
 3571TIP3    H110719   5.735   1.491   4.031
 3571TIP3    H210720   5.814   1.399   3.939
 3572TIP3   OH210721   2.637   1.998   4.402
 3572TIP3    H110722   2.732   1.993   4.390
 3572TIP3    H210723   2.615   1.923   4.456
 3573TIP3   OH210724   5.737   5.624   0.961
 3573TIP3    H110725   5.769   5.704   0.920
 3573TIP3    H210726   5.679   5.585   0.896
 3574TIP3   OH210727   1.384   4.901   2.200
 3574TIP3    H110728   1.316   4.869   2.260
 3574TIP3    H210729   1.390   4.834   2.133
 3575TIP3   OH210730   1.293   5.795   4.125
 3575TIP3    H110731   1.230   5.862   4.152
 3575TIP3    H210732   1.248   5.747   4.056
 3576TIP3   OH210733   6.006   1.558   4.011
 3576TIP3    H110734   5.941   1.629   4.011
 3576TIP3    H210735   6.090   1.603   4.004
 3577TIP3   OH210736   0.823   2.228   2.234
 3577TIP3    H110737   0.841   2.262   2.147
 3577TIP3    H210738   0.751   2.167   2.222
 3578TIP3   OH210739   3.092   0.343   1.014
 3578TIP3    H110740   3.089   0.382   1.101
 3578TIP3    H210741   3.004   0.358   0.978
 3579TIP3   OH210742   2.042   4.275   1.603
 3579TIP3    H110743   2.000   4.199   1.563
 3579TIP3    H210744   1.975   4.343   1.603
 3580TIP3   OH210745   4.145   5.486   3.992
 3580TIP3    H110746   4.080   5.512   4.057
 3580TIP3    H210747   4.132   5.546   3.919
 3581TIP3   OH210748   4.637   0.940   4.003
 3581TIP3    H110749   4.570   0.995   3.963
 3581TIP3    H210750   4.717   0.992   4.000
 3582TIP3   OH210751   4.716   1.319   5.229
 3582TIP3    H110752   4.751   1.393   5.279
 3582TIP3    H210753   4.771   1.315   5.151
 3583TIP3   OH210754   1.015   3.984   0.924
 3583TIP3    H110755   1.088   3.943   0.879
 3583TIP3    H210756   0.937   3.939   0.890
 3584TIP3   OH210757   1.139   3.651   5.123
 3584TIP3    H110758   1.199   3.686   5.056
 3584TIP3    H210759   1.156   3.705   5.200
 3585TIP3   OH210760   4.929   0.609   4.716
 3585TIP3    H110761   4.983   0.532   4.733
 3585TIP3    H210762   4.911   0.605   4.622
 3586TIP3   OH210763   0.174   5.748   0.873
 3586TIP3    H110764   0.213   5.667   0.905
 3586TIP3    H210765   0.228   5.817   0.911
 3587TIP3   OH210766   1.060   2.248   0.706
 3587TIP3    H110767   1.090   2.336   0.685
 3587TIP3    H210768   1.090   2.194   0.633
 3588TIP3   OH210769   4.405   3.917   2.308
 3588TIP3    H110770   4.463   3.842   2.322
 3588TIP3    H210771   4.462   3.994   2.316
 3589TIP3   OH210772   2.945   5.485   4.514
 3589TIP3    H110773   3.020   5.438   4.478
 3589TIP3    H210774   2.870   5.428   4.496
 3590TIP3   OH210775   2.552   3.867   4.492
 3590TIP3    H110776   2.560   3.772   4.508
 3590TIP3    H210777   2.641   3.894   4.467
 3591TIP3   OH210778   0.549   4.344   0.788
 3591TIP3    H110779   0.632   4.385   0.763
 3591TIP3    H210780   0.573   4.256   0.816
 3592TIP3   OH210781   1.431   1.797   2.757
 3592TIP3    H110782   1.389   1.739   2.694
 3592TIP3    H210783   1.490   1.740   2.807
 3593TIP3   OH210784   2.280   2.001   4.085
 3593TIP3    H110785   2.219   1.986   4.157
 3593TIP3    H210786   2.228   2.049   4.020
 3594TIP3   OH210787   5.801   0.414   3.138
 3594TIP3    H110788   5.791   0.386   3.047
 3594TIP3    H210789   5.769   0.339   3.189
 3595TIP3   OH210790   4.264   3.833   2.627
 3595TIP3    H110791   4.224   3.785   2.699
 3595TIP3    H210792   4.319   3.899   2.669
 3596TIP3   OH210793   3.920   2.373   3.294
 3596TIP3    H110794   3.956   2.461   3.289
 3596TIP3    H210795   3.955   2.337   3.376
 3597TIP3   OH210796   5.838   2.859   3.191
 3597TIP3    H110797   5.928   2.878   3.218
 3597TIP3    H210798   5.818   2.925   3.125
 3598TIP3   OH210799   3.728   4.342   4.083
 3598TIP3    H110800   3.637   4.315   4.096
 3598TIP3    H210801   3.776   4.259   4.078
 3599TIP3   OH210802   5.034   1.671   0.177
 3599TIP3    H110803   4.962   1.686   0.116
 3599TIP3    H210804   5.033   1.747   0.235
 3600TIP3   OH210805   5.470   4.192   2.842
 3600TIP3    H110806   5.464   4.288   2.843
 3600TIP3    H210807   5.562   4.174   2.861
 3601TIP3   OH210808   0.696   3.816   5.005
 3601TIP3    H110809   0.719   3.724   4.998
 3601TIP3    H210810   0.717   3.840   5.095
 3602TIP3   OH210811   0.519   3.744   1.181
 3602TIP3    H110812   0.527   3.804   1.255
 3602TIP3    H210813   0.535   3.658   1.218
 3603TIP3   OH210814   0.753   4.618   4.526
 3603TIP3    H110815   0.688   4.560   4.487
 3603TIP3    H210816   0.720   4.707   4.510
 3604TIP3   OH210817   3.366   1.027   2.210
 3604TIP3    H110818   3.344   0.948   2.161
 3604TIP3    H210819   3.461   1.025   2.219
 3605TIP3   OH210820   3.046   4.336   3.173
 3605TIP3    H110821   2.960   4.295   3.159
 3605TIP3    H210822   3.035   4.426   3.141
 3606TIP3   OH210823   6.144   4.266   0.543
 3606TIP3    H110824   6.196   4.209   0.486
 3606TIP3    H210825   6.146   4.223   0.628
 3607TIP3   OH210826   4.916   3.037   0.628
 3607TIP3    H110827   4.866   3.115   0.650
 3607TIP3    H210828   4.934   2.996   0.713
 3608TIP3   OH210829   4.080   4.269   4.633
 3608TIP3    H110830   4.100   4.225   4.550
 3608TIP3    H210831   3.986   4.254   4.645
 3609TIP3   OH210832   2.765   3.899   0.997
 3609TIP3    H110833   2.712   3.912   1.076
 3609TIP3    H210834   2.780   3.805   0.994
 3610TIP3   OH210835   3.342   0.821   4.564
 3610TIP3    H110836   3.281   0.765   4.517
 3610TIP3    H210837   3.323   0.909   4.532
 3611TIP3   OH210838   3.227   0.257   4.478
 3611TIP3    H110839   3.233   0.163   4.459
 3611TIP3    H210840   3.159   0.289   4.419
 3612TIP3   OH210841   2.327   1.811   4.360
 3612TIP3    H110842   2.269   1.884   4.337
 3612TIP3    H210843   2.372   1.840   4.439
 3613TIP3   OH210844   3.865   1.832   0.216
 3613TIP3    H110845   3.877   1.927   0.222
 3613TIP3    H210846   3.770   1.820   0.216
 3614TIP3   OH210847   6.212   2.524   0.712
 3614TIP3    H110848   6.140   2.478   0.671
 3614TIP3    H210849   6.284   2.518   0.649
 3615TIP3   OH210850   5.048   3.425   3.252
 3615TIP3    H110851   5.101   3.426   3.172
 3615TIP3    H210852   5.112   3.431   3.323
 3616TIP3   OH210853   5.564   1.698   0.182
 3616TIP3    H110854   5.633   1.650   0.136
 3616TIP3    H210855   5.610   1.760   0.237
 3617TIP3   OH210856   3.135   1.574   0.410
 3617TIP3    H110857   3.044   1.546   0.399
 3617TIP3    H210858   3.132   1.641   0.478
 3618TIP3   OH210859   5.304   3.800   5.004
 3618TIP3    H110860   5.325   3.843   4.921
 3618TIP3    H210861   5.230   3.743   4.984
 3619TIP3   OH210862   4.413   2.480   0.739
 3619TIP3    H110863   4.505   2.457   0.731
 3619TIP3    H210864   4.393   2.525   0.657
 3620TIP3   OH210865   2.150   2.104   1.553
 3620TIP3    H110866   2.129   2.013   1.528
 3620TIP3    H210867   2.073   2.154   1.526
 3621TIP3   OH210868   1.432   4.919   0.266
 3621TIP3    H110869   1.455   4.951   0.179
 3621TIP3    H210870   1.336   4.920   0.268
 3622TIP3   OH210871   6.046   5.126   0.723
 3622TIP3    H110872   6.029   5.143   0.630
 3622TIP3    H210873   5.963   5.090   0.756
 3623TIP3   OH210874   5.213   0.579   3.171
 3623TIP3    H110875   5.218   0.644   3.101
 3623TIP3    H210876   5.233   0.496   3.128
 3624TIP3   OH210877   5.388   1.909   1.294
 3624TIP3    H110878   5.461   1.961   1.329
 3624TIP3    H210879   5.413   1.818   1.310
 3625TIP3   OH210880   6.023   3.255   1.351
 3625TIP3    H110881   5.998   3.179   1.299
 3625TIP3    H210882   5.985   3.329   1.304
 3626TIP3   OH210883   0.249   1.850   0.503
 3626TIP3    H110884   0.197   1.883   0.576
 3626TIP3    H210885   0.328   1.904   0.504
 3627TIP3   OH210886   0.049   3.354   3.177
 3627TIP3    H110887   0.067   3.413   3.103
 3627TIP3    H210888   0.131   3.307   3.189
 3628TIP3   OH210889   5.281   0.473   1.596
 3628TIP3    H110890   5.267   0.398   1.539
 3628TIP3    H210891   5.193   0.510   1.608
 3629TIP3   OH210892   4.588   5.058   4.172
 3629TIP3    H110893   4.610   5.045   4.080
 3629TIP3    H210894   4.615   4.977   4.215
 3630TIP3   OH210895   0.891   1.272   4.533
 3630TIP3    H110896   0.944   1.295   4.609
 3630TIP3    H210897   0.830   1.205   4.565
 3631TIP3   OH210898   0.886   2.553   3.558
 3631TIP3    H110899   0.978   2.527   3.554
 3631TIP3    H210900   0.867   2.590   3.472
 3632TIP3   OH210901   4.051   0.673   4.625
 3632TIP3    H110902   4.137   0.637   4.645
 3632TIP3    H210903   4.059   0.706   4.536
 3633TIP3   OH210904   3.667   0.981   0.709
 3633TIP3    H110905   3.734   1.046   0.685
 3633TIP3    H210906   3.718   0.904   0.734
 3634TIP3   OH210907   2.145   5.406   0.046
 3634TIP3    H110908   2.179   5.441   0.128
 3634TIP3    H210909   2.130   5.313   0.063
 3635TIP3   OH210910   1.791   5.613   3.666
 3635TIP3    H110911   1.782   5.560   3.586
 3635TIP3    H210912   1.867   5.576   3.710
 3636TIP3   OH210913  -0.002   5.754   1.665
 3636TIP3    H110914   0.054   5.676   1.666
 3636TIP3    H210915   0.058   5.825   1.644
 3637TIP3   OH210916   2.392   1.135   4.052
 3637TIP3    H110917   2.433   1.218   4.026
 3637TIP3    H210918   2.383   1.086   3.970
 3638TIP3   OH210919   1.632   3.985   0.322
 3638TIP3    H110920   1.690   3.956   0.252
 3638TIP3    H210921   1.666   3.943   0.401
 3639TIP3   OH210922   5.436   3.926   0.252
 3639TIP3    H110923   5.388   3.988   0.307
 3639TIP3    H210924   5.477   3.866   0.314
 3640TIP3   OH210925   5.203   1.150   3.224
 3640TIP3    H110926   5.201   1.111   3.312
 3640TIP3    H210927   5.147   1.094   3.171
 3641TIP3   OH210928   2.812   4.765   4.772
 3641TIP3    H110929   2.720   4.749   4.792
 3641TIP3    H210930   2.816   4.859   4.751
 3642TIP3   OH210931   4.613   3.659   5.242
 3642TIP3    H110932   4.616   3.723   5.172
 3642TIP3    H210933   4.638   3.576   5.200
 3643TIP3   OH210934   5.831   0.689   0.550
 3643TIP3    H110935   5.861   0.609   0.593
 3643TIP3    H210936   5.824   0.753   0.621
 3644TIP3   OH210937   1.312   4.415   2.614
 3644TIP3    H110938   1.286   4.488   2.558
 3644TIP3    H210939   1.233   4.360   2.619
 3645TIP3   OH210940   2.906   1.955   1.403
 3645TIP3    H110941   2.894   2.031   1.346
 3645TIP3    H210942   2.922   1.993   1.489
 3646TIP3   OH210943   3.159   2.560   1.972
 3646TIP3    H110944   3.184   2.489   2.031
 3646TIP3    H210945   3.074   2.590   2.006
 3647TIP3   OH210946   5.476   1.279   2.454
 3647TIP3    H110947   5.540   1.350   2.458
 3647TIP3    H210948   5.411   1.309   2.391
 3648TIP3   OH210949   1.723   0.977   4.752
 3648TIP3    H110950   1.770   1.019   4.680
 3648TIP3    H210951   1.792   0.946   4.811
 3649TIP3   OH210952   0.421   1.267   2.331
 3649TIP3    H110953   0.334   1.299   2.354
 3649TIP3    H210954   0.427   1.181   2.373
 3650TIP3   OH210955   2.872   2.925   0.716
 3650TIP3    H110956   2.900   2.888   0.633
 3650TIP3    H210957   2.789   2.968   0.697
 3651TIP3   OH210958   4.271   1.168   1.276
 3651TIP3    H110959   4.181   1.167   1.245
 3651TIP3    H210960   4.263   1.171   1.372
 3652TIP3   OH210961   0.497   0.943   3.172
 3652TIP3    H110962   0.520   0.906   3.087
 3652TIP3    H210963   0.472   1.033   3.154
 3653TIP3   OH210964   2.446   3.152   4.469
 3653TIP3    H110965   2.424   3.059   4.470
 3653TIP3    H210966   2.541   3.154   4.485
 3654TIP3   OH210967   2.715   4.099   3.690
 3654TIP3    H110968   2.627   4.086   3.727
 3654TIP3    H210969   2.699   4.117   3.597
 3655TIP3   OH210970   4.810   5.096   4.393
 3655TIP3    H110971   4.771   5.009   4.406
 3655TIP3    H210972   4.745   5.156   4.429
 3656TIP3   OH210973   5.962   4.396   5.166
 3656TIP3    H110974   6.043   4.345   5.154
 3656TIP3    H210975   5.939   4.382   5.258
 3657TIP3   OH210976   6.298   2.444   4.057
 3657TIP3    H110977   6.325   2.377   3.994
 3657TIP3    H210978   6.375   2.460   4.111
 3658TIP3   OH210979   0.439   2.352   2.830
 3658TIP3    H110980   0.464   2.301   2.753
 3658TIP3    H210981   0.343   2.348   2.831
 3659TIP3   OH210982   0.981   5.670   0.517
 3659TIP3    H110983   1.062   5.631   0.550
 3659TIP3    H210984   0.919   5.598   0.515
 3660TIP3   OH210985   6.041   5.710   1.569
 3660TIP3    H110986   6.124   5.682   1.530
 3660TIP3    H210987   6.014   5.786   1.517
 3661TIP3   OH210988   5.284   2.306   3.872
 3661TIP3    H110989   5.344   2.290   3.945
 3661TIP3    H210990   5.224   2.232   3.873
 3662TIP3   OH210991   4.110   3.852   4.289
 3662TIP3    H110992   4.060   3.771   4.292
 3662TIP3    H210993   4.194   3.831   4.329
 3663TIP3   OH210994   1.061   5.068   3.518
 3663TIP3    H110995   1.092   5.133   3.581
 3663TIP3    H210996   1.037   4.992   3.570
 3664TIP3   OH210997   4.252   1.941   4.586
 3664TIP3    H110998   4.332   1.889   4.581
 3664TIP3    H210999   4.258   2.003   4.513
 3665TIP3   OH211000   5.803   4.004   0.984
 3665TIP3    H111001   5.769   4.056   1.056
 3665TIP3    H211002   5.790   4.059   0.906
 3666TIP3   OH211003   3.816   0.486   2.769
 3666TIP3    H111004   3.872   0.443   2.705
 3666TIP3    H211005   3.788   0.416   2.829
 3667TIP3   OH211006   2.253   1.941   3.492
 3667TIP3    H111007   2.209   1.882   3.554
 3667TIP3    H211008   2.277   1.885   3.418
 3668TIP3   OH211009   1.127   2.817   1.816
 3668TIP3    H111010   1.124   2.778   1.729
 3668TIP3    H211011   1.126   2.912   1.800
 3669TIP3   OH211012   2.986   0.845   5.058
 3669TIP3    H111013   2.935   0.796   5.122
 3669TIP3    H211014   3.051   0.892   5.110
 3670TIP3   OH211015   3.878   5.346   5.058
 3670TIP3    H111016   3.914   5.259   5.041
 3670TIP3    H211017   3.882   5.391   4.974
 3671TIP3   OH211018   1.949   5.385   2.590
 3671TIP3    H111019   1.936   5.480   2.589
 3671TIP3    H211020   2.033   5.373   2.635
 3672TIP3   OH211021   2.141   3.916   1.499
 3672TIP3    H111022   2.233   3.942   1.504
 3672TIP3    H211023   2.120   3.886   1.587
 3673TIP3   OH211024   3.655   2.360   3.257
 3673TIP3    H111025   3.624   2.410   3.332
 3673TIP3    H211026   3.750   2.356   3.268
 3674TIP3   OH211027   4.418   0.442   0.985
 3674TIP3    H111028   4.448   0.530   0.963
 3674TIP3    H211029   4.419   0.395   0.901
 3675TIP3   OH211030   0.864   2.344   0.419
 3675TIP3    H111031   0.842   2.370   0.509
 3675TIP3    H211032   0.868   2.248   0.422
 3676TIP3   OH211033   0.990   5.771   2.384
 3676TIP3    H111034   0.915   5.809   2.339
 3676TIP3    H211035   1.062   5.776   2.321
 3677TIP3   OH211036   3.942   4.667   4.724
 3677TIP3    H111037   3.871   4.664   4.660
 3677TIP3    H211038   4.017   4.628   4.679
 3678TIP3   OH211039   4.976   2.015   5.189
 3678TIP3    H111040   5.051   2.066   5.159
 3678TIP3    H211041   4.926   1.995   5.110
 3679TIP3   OH211042   1.278   0.245   3.506
 3679TIP3    H111043   1.353   0.298   3.478
 3679TIP3    H211044   1.205   0.277   3.452
 3680TIP3   OH211045   1.366   4.966   1.178
 3680TIP3    H111046   1.450   4.944   1.137
 3680TIP3    H211047   1.305   4.900   1.146
 3681TIP3   OH211048   0.493   2.506   2.377
 3681TIP3    H111049   0.452   2.438   2.431
 3681TIP3    H211050   0.477   2.477   2.287
 3682TIP3   OH211051   4.635   2.322   2.309
 3682TIP3    H111052   4.555   2.289   2.269
 3682TIP3    H211053   4.659   2.398   2.257
 3683TIP3   OH211054   3.156   5.859   0.510
 3683TIP3    H111055   3.073   5.867   0.463
 3683TIP3    H211056   3.166   5.765   0.525
 3684TIP3   OH211057   4.574   3.744   3.866
 3684TIP3    H111058   4.516   3.673   3.839
 3684TIP3    H211059   4.661   3.705   3.869
 3685TIP3   OH211060   0.063   0.504   2.563
 3685TIP3    H111061   0.136   0.549   2.606
 3685TIP3    H211062   0.092   0.414   2.553
 3686TIP3   OH211063   1.735   2.568   5.064
 3686TIP3    H111064   1.706   2.563   5.156
 3686TIP3    H211065   1.830   2.561   5.068
 3687TIP3   OH211066   3.330   0.063   2.072
 3687TIP3    H111067   3.300  -0.001   2.007
 3687TIP3    H211068   3.310   0.024   2.156
 3688TIP3   OH211069   5.263   0.785   1.769
 3688TIP3    H111070   5.201   0.715   1.750
 3688TIP3    H211071   5.233   0.823   1.851
 3689TIP3   OH211072   0.998   3.263  -0.032
 3689TIP3    H111073   0.924   3.324  -0.024
 3689TIP3    H211074   0.980   3.195   0.032
 3690TIP3   OH211075   2.521   3.556   1.932
 3690TIP3    H111076   2.519   3.576   1.839
 3690TIP3    H211077   2.471   3.474   1.940
 3691TIP3   OH211078   3.551   2.394   1.167
 3691TIP3    H111079   3.542   2.320   1.226
 3691TIP3    H211080   3.508   2.365   1.086
 3692TIP3   OH211081   0.321   0.014   3.540
 3692TIP3    H111082   0.413   0.032   3.520
 3692TIP3    H211083   0.274   0.090   3.507
 3693TIP3   OH211084   4.489   5.791   2.107
 3693TIP3    H111085   4.470   5.879   2.142
 3693TIP3    H211086   4.454   5.731   2.173
 3694TIP3   OH211087   0.554   3.702   3.889
 3694TIP3    H111088   0.613   3.736   3.957
 3694TIP3    H211089   0.611   3.652   3.831
 3695TIP3   OH211090   0.690   3.168   3.874
 3695TIP3    H111091   0.644   3.214   3.804
 3695TIP3    H211092   0.621   3.134   3.930
 3696TIP3   OH211093   6.326   5.943   4.911
 3696TIP3    H111094   6.373   5.867   4.946
 3696TIP3    H211095   6.393   5.992   4.861
 3697TIP3   OH211096   5.380   3.176   3.835
 3697TIP3    H111097   5.367   3.219   3.920
 3697TIP3    H211098   5.467   3.205   3.807
 3698TIP3   OH211099   0.898   5.369   1.399
 3698TIP3    H111100   0.898   5.337   1.308
 3698TIP3    H211101   0.922   5.292   1.451
 3699TIP3   OH211102   2.406   5.360   1.410
 3699TIP3    H111103   2.322   5.377   1.452
 3699TIP3    H211104   2.434   5.446   1.378
 3700TIP3   OH211105   3.693   1.931   0.469
 3700TIP3    H111106   3.648   1.900   0.390
 3700TIP3    H211107   3.633   1.911   0.541
 3701TIP3   OH211108   2.027   0.400   3.444
 3701TIP3    H111109   2.072   0.382   3.362
 3701TIP3    H211110   2.033   0.318   3.493
 3702TIP3   OH211111   5.342   4.106   1.798
 3702TIP3    H111112   5.411   4.039   1.789
 3702TIP3    H211113   5.375   4.181   1.748
 3703TIP3   OH211114   5.352   0.083   0.359
 3703TIP3    H111115   5.443   0.109   0.373
 3703TIP3    H211116   5.338   0.012   0.422
 3704TIP3   OH211117   3.844   3.016   3.310
 3704TIP3    H111118   3.849   2.930   3.270
 3704TIP3    H211119   3.821   2.999   3.402
 3705TIP3   OH211120   0.443   0.918   4.234
 3705TIP3    H111121   0.481   0.846   4.285
 3705TIP3    H211122   0.398   0.875   4.161
 3706TIP3   OH211123   5.102   4.474   1.202
 3706TIP3    H111124   5.089   4.512   1.115
 3706TIP3    H211125   5.014   4.470   1.240
 3707TIP3   OH211126   1.301   4.024   0.795
 3707TIP3    H111127   1.262   3.980   0.720
 3707TIP3    H211128   1.253   4.106   0.803
 3708TIP3   OH211129   0.947   0.356   0.567
 3708TIP3    H111130   1.023   0.412   0.550
 3708TIP3    H211131   0.873   0.403   0.530
 3709TIP3   OH211132   5.304   1.318   4.612
 3709TIP3    H111133   5.223   1.283   4.577
 3709TIP3    H211134   5.366   1.314   4.539
 3710TIP3   OH211135   3.916   5.269   2.629
 3710TIP3    H111136   3.920   5.175   2.650
 3710TIP3    H211137   3.990   5.283   2.570
 3711TIP3   OH211138   5.202   5.552   4.029
 3711TIP3    H111139   5.130   5.489   4.028
 3711TIP3    H211140   5.272   5.507   4.076
 3712TIP3   OH211141   5.579   0.204   2.333
 3712TIP3    H111142   5.659   0.187   2.383
 3712TIP3    H211143   5.549   0.118   2.306
 3713TIP3   OH211144   2.409   4.482   0.307
 3713TIP3    H111145   2.329   4.457   0.261
 3713TIP3    H211146   2.385   4.561   0.355
 3714TIP3   OH211147   4.141   5.495   2.977
 3714TIP3    H111148   4.107   5.567   2.924
 3714TIP3    H211149   4.145   5.530   3.065
 3715TIP3   OH211150   5.524   4.820   4.483
 3715TIP3    H111151   5.587   4.866   4.538
 3715TIP3    H211152   5.515   4.876   4.405
 3716TIP3   OH211153   3.584   0.563   4.632
 3716TIP3    H111154   3.591   0.506   4.709
 3716TIP3    H211155   3.514   0.624   4.653
 3717TIP3   OH211156   3.368   0.464   0.365
 3717TIP3    H111157   3.274   0.479   0.370
 3717TIP3    H211158   3.405   0.550   0.345
 3718TIP3   OH211159   5.218   0.413   4.248
 3718TIP3    H111160   5.221   0.508   4.243
 3718TIP3    H211161   5.302   0.384   4.214
 3719TIP3   OH211162   5.399   2.658   4.990
 3719TIP3    H111163   5.468   2.602   4.955
 3719TIP3    H211164   5.399   2.640   5.084
 3720TIP3   OH211165   0.027   0.594   3.956
 3720TIP3    H111166   0.049   0.535   3.884
 3720TIP3    H211167  -0.029   0.660   3.915
 3721TIP3   OH211168   6.184   5.884   2.424
 3721TIP3    H111169   6.152   5.874   2.514
 3721TIP3    H211170   6.279   5.875   2.432
 3722TIP3   OH211171   1.713   4.641   2.423
 3722TIP3    H111172   1.779   4.633   2.492
 3722TIP3    H211173   1.640   4.688   2.464
 3723TIP3   OH211174   1.492   2.301   3.781
 3723TIP3    H111175   1.536   2.217   3.776
 3723TIP3    H211176   1.412   2.284   3.831
 3724TIP3   OH211177   0.271   1.458   0.756
 3724TIP3    H111178   0.333   1.514   0.710
 3724TIP3    H211179   0.254   1.386   0.696
 3725TIP3   OH211180   5.296   1.565   0.706
 3725TIP3    H111181   5.267   1.656   0.699
 3725TIP3    H211182   5.360   1.565   0.777
 3726TIP3   OH211183   0.824   0.722   0.908
 3726TIP3    H111184   0.738   0.686   0.929
 3726TIP3    H211185   0.806   0.811   0.876
 3727TIP3   OH211186   5.127   3.228   3.766
 3727TIP3    H111187   5.115   3.291   3.836
 3727TIP3    H211188   5.214   3.191   3.780
 3728TIP3   OH211189   5.085   2.170   2.194
 3728TIP3    H111190   5.057   2.261   2.193
 3728TIP3    H211191   5.057   2.137   2.279
 3729TIP3   OH211192   3.311   1.978   2.564
 3729TIP3    H111193   3.338   2.064   2.533
 3729TIP3    H211194   3.380   1.919   2.534
 3730TIP3   OH211195   1.582   5.829   4.065
 3730TIP3    H111196   1.494   5.853   4.094
 3730TIP3    H211197   1.602   5.890   3.994
 3731TIP3   OH211198   2.160   4.684   4.050
 3731TIP3    H111199   2.170   4.683   3.955
 3731TIP3    H211200   2.231   4.629   4.083
 3732TIP3   OH211201   1.451   2.218   0.113
 3732TIP3    H111202   1.413   2.131   0.099
 3732TIP3    H211203   1.529   2.201   0.165
 3733TIP3   OH211204   3.078   3.828   2.219
 3733TIP3    H111205   2.989   3.800   2.242
 3733TIP3    H211206   3.085   3.916   2.256
 3734TIP3   OH211207   4.777   4.828   1.662
 3734TIP3    H111208   4.766   4.771   1.586
 3734TIP3    H211209   4.859   4.799   1.702
 3735TIP3   OH211210   2.754   1.437   2.948
 3735TIP3    H111211   2.785   1.466   2.862
 3735TIP3    H211212   2.742   1.518   2.998
 3736TIP3   OH211213   4.308   3.377   1.145
 3736TIP3    H111214   4.299   3.375   1.240
 3736TIP3    H211215   4.400   3.397   1.129
 3737TIP3   OH211216   4.538   1.217   0.028
 3737TIP3    H111217   4.581   1.142   0.070
 3737TIP3    H211218   4.482   1.254   0.097
 3738TIP3   OH211219   6.322   0.320   0.096
 3738TIP3    H111220   6.294   0.314   0.187
 3738TIP3    H211221   6.269   0.255   0.050
 3739TIP3   OH211222   3.704   0.939   4.576
 3739TIP3    H111223   3.668   0.895   4.653
 3739TIP3    H211224   3.679   0.883   4.503
 3740TIP3   OH211225   2.536   1.364   3.971
 3740TIP3    H111226   2.554   1.442   4.023
 3740TIP3    H211227   2.605   1.363   3.904
 3741TIP3   OH211228   4.860   5.787   3.018
 3741TIP3    H111229   4.780   5.769   3.067
 3741TIP3    H211230   4.927   5.733   3.060
 3742TIP3   OH211231   3.107   3.518   0.663
 3742TIP3    H111232   3.143   3.502   0.750
 3742TIP3    H211233   3.054   3.441   0.644
 3743TIP3   OH211234   6.225   1.504   2.647
 3743TIP3    H111235   6.281   1.451   2.703
 3743TIP3    H211236   6.210   1.450   2.570
 3744TIP3   OH211237   6.071   2.607   3.562
 3744TIP3    H111238   6.128   2.677   3.530
 3744TIP3    H211239   6.127   2.552   3.616
 3745TIP3   OH211240   5.582   3.795   2.763
 3745TIP3    H111241   5.621   3.838   2.840
 3745TIP3    H211242   5.605   3.703   2.773
 3746TIP3   OH211243   4.998   5.228   0.324
 3746TIP3    H111244   5.075   5.284   0.333
 3746TIP3    H211245   5.033   5.144   0.294
 3747TIP3   OH211246   2.741   2.619   1.910
 3747TIP3    H111247   2.772   2.574   1.831
 3747TIP3    H211248   2.652   2.648   1.887
 3748TIP3   OH211249   4.932   2.640   2.860
 3748TIP3    H111250   4.853   2.593   2.835
 3748TIP3    H211251   4.979   2.655   2.778
 3749TIP3   OH211252   3.612   5.323   5.042
 3749TIP3    H111253   3.695   5.369   5.029
 3749TIP3    H211254   3.606   5.308   5.136
 3750TIP3   OH211255   5.987   5.298   5.074
 3750TIP3    H111256   5.939   5.238   5.131
 3750TIP3    H211257   5.946   5.286   4.988
 3751TIP3   OH211258   6.285   3.554   1.913
 3751TIP3    H111259   6.279   3.567   1.818
 3751TIP3    H211260   6.376   3.573   1.935
 3752TIP3   OH211261   0.935   4.452   3.448
 3752TIP3    H111262   0.897   4.512   3.512
 3752TIP3    H211263   0.873   4.453   3.375
 3753TIP3   OH211264   4.584   3.276   4.483
 3753TIP3    H111265   4.570   3.300   4.392
 3753TIP3    H211266   4.533   3.340   4.533
 3754TIP3   OH211267   1.903   4.176   3.144
 3754TIP3    H111268   1.891   4.263   3.183
 3754TIP3    H211269   1.858   4.182   3.059
 3755TIP3   OH211270   4.345   0.812   3.461
 3755TIP3    H111271   4.431   0.801   3.501
 3755TIP3    H211272   4.314   0.722   3.448
 3756TIP3   OH211273   1.638   5.725   1.605
 3756TIP3    H111274   1.572   5.748   1.671
 3756TIP3    H211275   1.722   5.734   1.651
 3757TIP3   OH211276   5.191   4.042   0.842
 3757TIP3    H111277   5.281   4.016   0.827
 3757TIP3    H211278   5.174   4.019   0.934
 3758TIP3   OH211279   4.680   4.698   1.023
 3758TIP3    H111280   4.680   4.715   0.929
 3758TIP3    H211281   4.711   4.608   1.031
 3759TIP3   OH211282   4.593   0.779   3.213
 3759TIP3    H111283   4.600   0.873   3.194
 3759TIP3    H211284   4.670   0.740   3.170
 3760TIP3   OH211285   1.078   1.911   3.713
 3760TIP3    H111286   1.017   1.962   3.660
 3760TIP3    H211287   1.090   1.830   3.663
 3761TIP3   OH211288   5.707   4.768   2.755
 3761TIP3    H111289   5.771   4.785   2.825
 3761TIP3    H211290   5.631   4.731   2.801
 3762TIP3   OH211291   5.232   3.535   1.363
 3762TIP3    H111292   5.222   3.496   1.276
 3762TIP3    H211293   5.189   3.621   1.357
 3763TIP3   OH211294   4.572   1.142   2.639
 3763TIP3    H111295   4.505   1.078   2.615
 3763TIP3    H211296   4.613   1.106   2.718
 3764TIP3   OH211297   2.473   0.616   4.932
 3764TIP3    H111298   2.472   0.604   4.837
 3764TIP3    H211299   2.561   0.648   4.951
 3765TIP3   OH211300   1.007   0.095   1.267
 3765TIP3    H111301   1.089   0.126   1.229
 3765TIP3    H211302   1.027   0.006   1.297
 3766TIP3   OH211303   0.979   2.553   1.171
 3766TIP3    H111304   0.897   2.557   1.221
 3766TIP3    H211305   0.951   2.530   1.082
 3767TIP3   OH211306   3.662   0.860   3.147
 3767TIP3    H111307   3.752   0.863   3.181
 3767TIP3    H211308   3.624   0.944   3.173
 3768TIP3   OH211309   2.667   2.750   3.344
 3768TIP3    H111310   2.732   2.751   3.414
 3768TIP3    H211311   2.695   2.819   3.284
 3769TIP3   OH211312   2.569   4.009   4.888
 3769TIP3    H111313   2.660   4.021   4.860
 3769TIP3    H211314   2.574   3.996   4.983
 3770TIP3   OH211315   1.214   3.275   2.643
 3770TIP3    H111316   1.139   3.238   2.690
 3770TIP3    H211317   1.262   3.324   2.710
 3771TIP3   OH211318   3.487   5.413   4.274
 3771TIP3    H111319   3.537   5.406   4.193
 3771TIP3    H211320   3.417   5.348   4.266
 3772TIP3   OH211321   6.039   2.727   0.202
 3772TIP3    H111322   6.026   2.705   0.295
 3772TIP3    H211323   6.103   2.663   0.171
 3773TIP3   OH211324   1.575   0.213   0.868
 3773TIP3    H111325   1.594   0.280   0.802
 3773TIP3    H211326   1.516   0.256   0.930
 3774TIP3   OH211327   0.858   3.000   1.800
 3774TIP3    H111328   0.839   2.910   1.773
 3774TIP3    H211329   0.892   3.042   1.721
 3775TIP3   OH211330   3.736   0.746   1.501
 3775TIP3    H111331   3.745   0.690   1.578
 3775TIP3    H211332   3.666   0.807   1.524
 3776TIP3   OH211333   4.696   2.312   3.300
 3776TIP3    H111334   4.607   2.281   3.280
 3776TIP3    H211335   4.734   2.331   3.214
 3777TIP3   OH211336   6.252   5.252   0.348
 3777TIP3    H111337   6.168   5.238   0.392
 3777TIP3    H211338   6.284   5.164   0.329
 3778TIP3   OH211339   3.472   1.667   4.205
 3778TIP3    H111340   3.392   1.618   4.189
 3778TIP3    H211341   3.542   1.610   4.175
 3779TIP3   OH211342   2.009   5.131   4.734
 3779TIP3    H111343   2.034   5.125   4.642
 3779TIP3    H211344   1.962   5.050   4.752
 3780TIP3   OH211345   5.744   4.665   4.745
 3780TIP3    H111346   5.723   4.739   4.802
 3780TIP3    H211347   5.761   4.592   4.805
 3781TIP3   OH211348   1.766   4.564   3.644
 3781TIP3    H111349   1.845   4.613   3.622
 3781TIP3    H211350   1.724   4.615   3.713
 3782TIP3   OH211351   5.329   0.592   2.682
 3782TIP3    H111352   5.418   0.590   2.645
 3782TIP3    H211353   5.275   0.627   2.611
 3783TIP3   OH211354   4.049   0.298   1.825
 3783TIP3    H111355   4.052   0.391   1.803
 3783TIP3    H211356   4.002   0.257   1.753
 3784TIP3   OH211357   1.267   4.870   4.871
 3784TIP3    H111358   1.321   4.859   4.949
 3784TIP3    H211359   1.263   4.783   4.831
 3785TIP3   OH211360   4.874   0.356   2.309
 3785TIP3    H111361   4.919   0.434   2.341
 3785TIP3    H211362   4.930   0.283   2.335
 3786TIP3   OH211363   1.899   0.400   2.458
 3786TIP3    H111364   1.972   0.372   2.402
 3786TIP3    H211365   1.827   0.341   2.435
 3787TIP3   OH211366   0.201   3.613   0.445
 3787TIP3    H111367   0.170   3.664   0.369
 3787TIP3    H211368   0.289   3.586   0.421
 3788TIP3   OH211369   1.881   1.972   2.671
 3788TIP3    H111370   1.897   1.953   2.764
 3788TIP3    H211371   1.967   1.968   2.630
 3789TIP3   OH211372   4.466   2.489   3.112
 3789TIP3    H111373   4.480   2.395   3.100
 3789TIP3    H211374   4.430   2.497   3.200
 3790TIP3   OH211375   1.847   1.375   3.703
 3790TIP3    H111376   1.854   1.398   3.611
 3790TIP3    H211377   1.929   1.404   3.742
 3791TIP3   OH211378   1.936   2.111   5.138
 3791TIP3    H111379   1.918   2.019   5.118
 3791TIP3    H211380   2.032   2.117   5.141
 3792TIP3   OH211381   3.468   4.534   2.759
 3792TIP3    H111382   3.506   4.450   2.732
 3792TIP3    H211383   3.403   4.511   2.826
 3793TIP3   OH211384   1.701   3.039   0.396
 3793TIP3    H111385   1.616   3.012   0.430
 3793TIP3    H211386   1.687   3.128   0.364
 3794TIP3   OH211387   3.924   5.525   1.005
 3794TIP3    H111388   3.950   5.605   0.960
 3794TIP3    H211389   3.865   5.555   1.074
 3795TIP3   OH211390   2.690   1.221   0.418
 3795TIP3    H111391   2.643   1.231   0.335
 3795TIP3    H211392   2.664   1.297   0.469
 3796TIP3   OH211393   3.048   2.002   5.100
 3796TIP3    H111394   3.038   1.915   5.060
 3796TIP3    H211395   3.036   1.986   5.194
 3797TIP3   OH211396   1.294   4.828   4.272
 3797TIP3    H111397   1.228   4.866   4.215
 3797TIP3    H211398   1.284   4.734   4.262
 3798TIP3   OH211399   1.228   3.428   1.882
 3798TIP3    H111400   1.282   3.472   1.816
 3798TIP3    H211401   1.186   3.500   1.930
 3799TIP3   OH211402   2.586   3.250   3.587
 3799TIP3    H111403   2.609   3.209   3.504
 3799TIP3    H211404   2.492   3.235   3.596
 3800TIP3   OH211405   0.539   4.636   3.661
 3800TIP3    H111406   0.480   4.562   3.647
 3800TIP3    H211407   0.485   4.703   3.701
 3801TIP3   OH211408   5.479   3.868   4.595
 3801TIP3    H111409   5.543   3.804   4.626
 3801TIP3    H211410   5.492   3.872   4.501
 3802TIP3   OH211411   0.783   4.300   1.259
 3802TIP3    H111412   0.834   4.364   1.209
 3802TIP3    H211413   0.711   4.276   1.202
 3803TIP3   OH211414   1.651   0.835   2.295
 3803TIP3    H111415   1.569   0.859   2.337
 3803TIP3    H211416   1.705   0.800   2.366
 3804TIP3   OH211417   4.659   4.637   3.882
 3804TIP3    H111418   4.609   4.585   3.818
 3804TIP3    H211419   4.730   4.675   3.832
 3805TIP3   OH211420   2.586   1.944   0.505
 3805TIP3    H111421   2.518   2.013   0.505
 3805TIP3    H211422   2.667   1.991   0.526
 3806TIP3   OH211423   1.552   0.511   2.715
 3806TIP3    H111424   1.535   0.509   2.621
 3806TIP3    H211425   1.526   0.598   2.743
 3807TIP3   OH211426   0.065   1.588   2.251
 3807TIP3    H111427   0.109   1.633   2.324
 3807TIP3    H211428   0.006   1.526   2.294
 3808TIP3   OH211429   5.461   5.608   1.354
 3808TIP3    H111430   5.457   5.555   1.274
 3808TIP3    H211431   5.521   5.561   1.411
 3809TIP3   OH211432   0.219   6.030   3.421
 3809TIP3    H111433   0.174   5.946   3.415
 3809TIP3    H211434   0.201   6.073   3.337
 3810TIP3   OH211435   0.134   0.070   2.583
 3810TIP3    H111436   0.159   0.105   2.669
 3810TIP3    H211437   0.179  -0.015   2.578
 3811TIP3   OH211438   3.993   0.107   4.829
 3811TIP3    H111439   4.069   0.050   4.814
 3811TIP3    H211440   3.959   0.079   4.914
 3812TIP3   OH211441   1.187   0.276   3.099
 3812TIP3    H111442   1.222   0.343   3.039
 3812TIP3    H211443   1.218   0.193   3.063
 3813TIP3   OH211444   5.161   2.095   0.998
 3813TIP3    H111445   5.176   2.082   0.904
 3813TIP3    H211446   5.092   2.160   1.003
 3814TIP3   OH211447   5.705   1.727   4.552
 3814TIP3    H111448   5.748   1.765   4.476
 3814TIP3    H211449   5.705   1.797   4.617
 3815TIP3   OH211450   0.529   1.179   2.032
 3815TIP3    H111451   0.488   1.152   2.114
 3815TIP3    H211452   0.461   1.165   1.965
 3816TIP3   OH211453   3.392   2.047   3.396
 3816TIP3    H111454   3.303   2.069   3.423
 3816TIP3    H211455   3.381   1.982   3.327
 3817TIP3   OH211456   3.610   0.073   0.501
 3817TIP3    H111457   3.705   0.073   0.515
 3817TIP3    H211458   3.578   0.145   0.555
 3818TIP3   OH211459   0.497   2.200   2.602
 3818TIP3    H111460   0.560   2.132   2.626
 3818TIP3    H211461   0.412   2.158   2.608
 3819TIP3   OH211462   2.662   4.119   2.328
 3819TIP3    H111463   2.703   4.132   2.242
 3819TIP3    H211464   2.604   4.044   2.316
 3820TIP3   OH211465   1.486   5.875   2.219
 3820TIP3    H111466   1.408   5.832   2.254
 3820TIP3    H211467   1.533   5.908   2.295
 3821TIP3   OH211468   1.356   2.410   2.537
 3821TIP3    H111469   1.269   2.388   2.506
 3821TIP3    H211470   1.415   2.374   2.470
 3822TIP3   OH211471   4.476   4.284   1.184
 3822TIP3    H111472   4.505   4.330   1.106
 3822TIP3    H211473   4.427   4.351   1.233
 3823TIP3   OH211474   3.875   4.790   3.386
 3823TIP3    H111475   3.857   4.803   3.479
 3823TIP3    H211476   3.954   4.736   3.385
 3824TIP3   OH211477   3.045   3.524   1.190
 3824TIP3    H111478   3.057   3.432   1.212
 3824TIP3    H211479   3.020   3.566   1.272
 3825TIP3   OH211480   5.046   2.692   1.457
 3825TIP3    H111481   5.139   2.702   1.433
 3825TIP3    H211482   5.007   2.776   1.432
 3826TIP3   OH211483   0.876   5.795   0.065
 3826TIP3    H111484   0.808   5.763   0.005
 3826TIP3    H211485   0.936   5.843   0.008
 3827TIP3   OH211486   0.092   1.660   0.686
 3827TIP3    H111487   0.029   1.625   0.623
 3827TIP3    H211488   0.140   1.583   0.717
 3828TIP3   OH211489   1.636   1.498   4.035
 3828TIP3    H111490   1.691   1.558   3.985
 3828TIP3    H211491   1.615   1.546   4.115
 3829TIP3   OH211492   5.682   5.501   1.494
 3829TIP3    H111493   5.726   5.574   1.450
 3829TIP3    H211494   5.705   5.512   1.587
 3830TIP3   OH211495   1.079   5.479   2.077
 3830TIP3    H111496   1.112   5.429   2.151
 3830TIP3    H211497   1.010   5.534   2.114
 3831TIP3   OH211498   5.017   3.764   0.137
 3831TIP3    H111499   4.930   3.728   0.156
 3831TIP3    H211500   5.008   3.858   0.155
 3832TIP3   OH211501   5.978   1.314   2.468
 3832TIP3    H111502   5.995   1.322   2.562
 3832TIP3    H211503   5.946   1.224   2.457
 3833TIP3   OH211504   2.215   2.013   2.612
 3833TIP3    H111505   2.305   2.041   2.593
 3833TIP3    H211506   2.188   1.964   2.535
 3834TIP3   OH211507   1.351   4.729   2.791
 3834TIP3    H111508   1.348   4.819   2.824
 3834TIP3    H211509   1.271   4.719   2.741
 3835TIP3   OH211510   2.016   1.167   1.758
 3835TIP3    H111511   1.935   1.210   1.731
 3835TIP3    H211512   2.028   1.195   1.849
 3836TIP3   OH211513   0.192   2.163   0.147
 3836TIP3    H111514   0.283   2.162   0.176
 3836TIP3    H211515   0.193   2.209   0.063
 3837TIP3   OH211516   5.825   0.286   2.565
 3837TIP3    H111517   5.895   0.245   2.616
 3837TIP3    H211518   5.868   0.319   2.487
 3838TIP3   OH211519   3.155   1.487   2.304
 3838TIP3    H111520   3.221   1.418   2.300
 3838TIP3    H211521   3.072   1.443   2.288
 3839TIP3   OH211522   0.573   2.033   1.169
 3839TIP3    H111523   0.610   1.971   1.106
 3839TIP3    H211524   0.504   1.984   1.213
 3840TIP3   OH211525   3.754   2.551   1.281
 3840TIP3    H111526   3.817   2.573   1.212
 3840TIP3    H211527   3.680   2.512   1.234
 3841TIP3   OH211528   3.074   5.225   1.432
 3841TIP3    H111529   3.126   5.305   1.423
 3841TIP3    H211530   3.071   5.209   1.527
 3842TIP3   OH211531   1.804   3.786   1.362
 3842TIP3    H111532   1.719   3.756   1.330
 3842TIP3    H211533   1.811   3.748   1.450
 3843TIP3   OH211534   0.697   5.433   3.557
 3843TIP3    H111535   0.727   5.416   3.646
 3843TIP3    H211536   0.767   5.399   3.501
 3844TIP3   OH211537   2.119   4.666   1.400
 3844TIP3    H111538   2.048   4.706   1.451
 3844TIP3    H211539   2.075   4.599   1.348
 3845TIP3   OH211540   6.089   2.867   1.992
 3845TIP3    H111541   6.046   2.887   1.908
 3845TIP3    H211542   6.073   2.945   2.045
 3846TIP3   OH211543   2.367   2.441   3.880
 3846TIP3    H111544   2.281   2.410   3.853
 3846TIP3    H211545   2.416   2.361   3.900
 3847TIP3   OH211546   1.946   2.460   4.152
 3847TIP3    H111547   1.970   2.547   4.121
 3847TIP3    H211548   1.871   2.475   4.209
 3848TIP3   OH211549   1.316   3.864   3.745
 3848TIP3    H111550   1.338   3.806   3.673
 3848TIP3    H211551   1.221   3.872   3.741
 3849TIP3   OH211552   2.755   4.390   4.911
 3849TIP3    H111553   2.799   4.452   4.969
 3849TIP3    H211554   2.780   4.417   4.823
 3850TIP3   OH211555   3.370   1.450   4.418
 3850TIP3    H111556   3.338   1.538   4.438
 3850TIP3    H211557   3.353   1.438   4.325
 3851TIP3   OH211558   2.375   4.690   0.735
 3851TIP3    H111559   2.296   4.741   0.722
 3851TIP3    H211560   2.377   4.629   0.661
 3852TIP3   OH211561   1.388   2.246   1.161
 3852TIP3    H111562   1.355   2.321   1.209
 3852TIP3    H211563   1.322   2.229   1.094
 3853TIP3   OH211564   3.782   0.094   5.044
 3853TIP3    H111565   3.728   0.132   5.113
 3853TIP3    H211566   3.720   0.070   4.975
 3854TIP3   OH211567   5.133   4.674   3.314
 3854TIP3    H111568   5.064   4.739   3.301
 3854TIP3    H211569   5.117   4.638   3.401
 3855TIP3   OH211570   1.568   4.800   3.517
 3855TIP3    H111571   1.509   4.725   3.513
 3855TIP3    H211572   1.602   4.799   3.606
 3856TIP3   OH211573   1.813   5.349   4.781
 3856TIP3    H111574   1.822   5.443   4.767
 3856TIP3    H211575   1.900   5.314   4.765
 3857TIP3   OH211576   5.826   0.087   2.345
 3857TIP3    H111577   5.867   0.171   2.326
 3857TIP3    H211578   5.780   0.064   2.264
 3858TIP3   OH211579   1.128   0.811   5.097
 3858TIP3    H111580   1.127   0.735   5.154
 3858TIP3    H211581   1.210   0.856   5.117
 3859TIP3   OH211582   4.050   4.159   2.690
 3859TIP3    H111583   4.011   4.243   2.716
 3859TIP3    H211584   4.003   4.094   2.742
 3860TIP3   OH211585   2.713   0.127   1.320
 3860TIP3    H111586   2.677   0.135   1.232
 3860TIP3    H211587   2.695   0.211   1.361
 3861TIP3   OH211588   1.807   4.032   4.163
 3861TIP3    H111589   1.899   4.006   4.162
 3861TIP3    H211590   1.767   3.978   4.231
 3862TIP3   OH211591   1.924   0.106   1.798
 3862TIP3    H111592   2.016   0.132   1.807
 3862TIP3    H211593   1.927   0.010   1.792
 3863TIP3   OH211594   4.004   2.073   3.771
 3863TIP3    H111595   3.977   2.091   3.681
 3863TIP3    H211596   3.924   2.082   3.822
 3864TIP3   OH211597   0.992   5.256   2.924
 3864TIP3    H111598   0.974   5.172   2.881
 3864TIP3    H211599   1.078   5.282   2.890
 3865TIP3   OH211600   2.502   5.748   0.701
 3865TIP3    H111601   2.443   5.799   0.756
 3865TIP3    H211602   2.589   5.766   0.736
 3866TIP3   OH211603   1.564   1.308   2.823
 3866TIP3    H111604   1.584   1.257   2.902
 3866TIP3    H211605   1.578   1.247   2.751
 3867TIP3   OH211606   0.250   2.567   2.219
 3867TIP3    H111607   0.324   2.623   2.246
 3867TIP3    H211608   0.219   2.606   2.138
 3868TIP3   OH211609   5.548   3.465   4.362
 3868TIP3    H111610   5.613   3.410   4.408
 3868TIP3    H211611   5.492   3.498   4.432
 3869TIP3   OH211612   5.760   4.746   0.494
 3869TIP3    H111613   5.851   4.771   0.477
 3869TIP3    H211614   5.749   4.760   0.588
 3870TIP3   OH211615   5.603   5.266   4.117
 3870TIP3    H111616   5.563   5.205   4.054
 3870TIP3    H211617   5.692   5.232   4.129
 3871TIP3   OH211618   3.156   4.344   0.527
 3871TIP3    H111619   3.086   4.318   0.586
 3871TIP3    H211620   3.236   4.314   0.571
 3872TIP3   OH211621   3.759   2.901   1.109
 3872TIP3    H111622   3.810   2.844   1.051
 3872TIP3    H211623   3.811   2.981   1.115
 3873TIP3   OH211624   3.276   2.677   4.626
 3873TIP3    H111625   3.371   2.677   4.614
 3873TIP3    H211626   3.258   2.597   4.676
 3874TIP3   OH211627   2.897   2.007   0.392
 3874TIP3    H111628   2.950   1.963   0.325
 3874TIP3    H211629   2.961   2.051   0.447
 3875TIP3   OH211630   4.181   0.335   0.264
 3875TIP3    H111631   4.111   0.391   0.297
 3875TIP3    H211632   4.145   0.295   0.184
 3876TIP3   OH211633   5.950   3.950   3.884
 3876TIP3    H111634   5.918   3.981   3.969
 3876TIP3    H211635   6.034   3.996   3.872
 3877TIP3   OH211636   4.008   4.169   4.319
 3877TIP3    H111637   4.086   4.132   4.360
 3877TIP3    H211638   4.043   4.230   4.254
 3878TIP3   OH211639   4.633   0.322   2.917
 3878TIP3    H111640   4.671   0.340   2.830
 3878TIP3    H211641   4.548   0.282   2.898
 3879TIP3   OH211642   1.895   4.770   1.539
 3879TIP3    H111643   1.913   4.862   1.557
 3879TIP3    H211644   1.805   4.770   1.507
 3880TIP3   OH211645   1.580   3.517   2.194
 3880TIP3    H111646   1.637   3.446   2.226
 3880TIP3    H211647   1.493   3.478   2.192
 3881TIP3   OH211648   1.039   1.168   0.030
 3881TIP3    H111649   0.973   1.208  -0.027
 3881TIP3    H211650   1.009   1.077   0.040
 3882TIP3   OH211651   0.518   3.301   4.397
 3882TIP3    H111652   0.485   3.318   4.309
 3882TIP3    H211653   0.565   3.381   4.421
 3883TIP3   OH211654   2.378   2.521   2.364
 3883TIP3    H111655   2.424   2.599   2.335
 3883TIP3    H211656   2.385   2.522   2.459
 3884TIP3   OH211657   1.765   1.727   3.346
 3884TIP3    H111658   1.820   1.806   3.346
 3884TIP3    H211659   1.744   1.713   3.253
 3885TIP3   OH211660   0.817   3.838   0.269
 3885TIP3    H111661   0.751   3.769   0.258
 3885TIP3    H211662   0.872   3.830   0.192
 3886TIP3   OH211663   2.138   4.391   0.256
 3886TIP3    H111664   2.138   4.303   0.293
 3886TIP3    H211665   2.061   4.433   0.295
 3887TIP3   OH211666   0.867   3.426   0.345
 3887TIP3    H111667   0.870   3.399   0.253
 3887TIP3    H211668   0.787   3.387   0.379
 3888TIP3   OH211669   1.020   3.008   4.629
 3888TIP3    H111670   1.053   3.030   4.543
 3888TIP3    H211671   0.953   3.074   4.648
 3889TIP3   OH211672   2.617   1.821   0.254
 3889TIP3    H111673   2.635   1.867   0.336
 3889TIP3    H211674   2.540   1.767   0.273
 3890TIP3   OH211675   1.035   2.205   0.147
 3890TIP3    H111676   0.940   2.192   0.147
 3890TIP3    H211677   1.059   2.212   0.239
 3891TIP3   OH211678   4.209   2.832   3.819
 3891TIP3    H111679   4.144   2.902   3.828
 3891TIP3    H211680   4.278   2.870   3.764
 3892TIP3   OH211681   6.107   4.510   1.434
 3892TIP3    H111682   6.188   4.514   1.384
 3892TIP3    H211683   6.042   4.554   1.379
 3893TIP3   OH211684   4.759   3.129   4.931
 3893TIP3    H111685   4.814   3.148   4.855
 3893TIP3    H211686   4.687   3.078   4.895
 3894TIP3   OH211687   3.445   0.986   0.217
 3894TIP3    H111688   3.362   0.989   0.169
 3894TIP3    H211689   3.430   1.042   0.294
 3895TIP3   OH211690   5.679   3.393   3.396
 3895TIP3    H111691   5.619   3.453   3.442
 3895TIP3    H211692   5.761   3.400   3.444
 3896TIP3   OH211693   1.897   4.876   1.233
 3896TIP3    H111694   1.986   4.886   1.199
 3896TIP3    H211695   1.891   4.940   1.304
 3897TIP3   OH211696   5.003   2.500   0.904
 3897TIP3    H111697   4.983   2.468   0.815
 3897TIP3    H211698   4.972   2.430   0.962
 3898TIP3   OH211699   0.470   2.053   3.904
 3898TIP3    H111700   0.501   2.076   3.991
 3898TIP3    H211701   0.539   1.996   3.868
 3899TIP3   OH211702   2.386   3.653   3.273
 3899TIP3    H111703   2.477   3.637   3.297
 3899TIP3    H211704   2.380   3.747   3.261
 3900TIP3   OH211705   4.473   1.435   0.910
 3900TIP3    H111706   4.567   1.444   0.895
 3900TIP3    H211707   4.463   1.352   0.957
 3901TIP3   OH211708   2.221   3.192   2.776
 3901TIP3    H111709   2.141   3.160   2.735
 3901TIP3    H211710   2.222   3.150   2.863
 3902TIP3   OH211711   5.932   5.020   1.561
 3902TIP3    H111712   5.959   4.991   1.648
 3902TIP3    H211713   6.004   4.992   1.503
 3903TIP3   OH211714   3.118   5.994   3.367
 3903TIP3    H111715   3.039   6.014   3.316
 3903TIP3    H211716   3.169   5.937   3.310
 3904TIP3   OH211717   0.458   0.474   3.744
 3904TIP3    H111718   0.468   0.413   3.671
 3904TIP3    H211719   0.421   0.421   3.815
 3905TIP3   OH211720   2.111   5.067   3.158
 3905TIP3    H111721   2.019   5.044   3.172
 3905TIP3    H211722   2.127   5.044   3.066
 3906TIP3   OH211723   4.130   0.584   2.998
 3906TIP3    H111724   4.149   0.491   2.982
 3906TIP3    H211725   4.197   0.611   3.060
 3907TIP3   OH211726   0.525   3.133   2.058
 3907TIP3    H111727   0.556   3.156   2.146
 3907TIP3    H211728   0.545   3.040   2.049
 3908TIP3   OH211729   6.090   2.819   4.252
 3908TIP3    H111730   6.099   2.757   4.180
 3908TIP3    H211731   6.092   2.905   4.211
 3909TIP3   OH211732   1.426   2.101   4.160
 3909TIP3    H111733   1.442   2.021   4.210
 3909TIP3    H211734   1.334   2.094   4.133
 3910TIP3   OH211735   1.914   0.931   4.476
 3910TIP3    H111736   1.878   1.019   4.479
 3910TIP3    H211737   1.947   0.921   4.387
 3911TIP3   OH211738   5.638   0.231   3.287
 3911TIP3    H111739   5.578   0.266   3.221
 3911TIP3    H211740   5.619   0.282   3.366
 3912TIP3   OH211741   5.794   2.062   3.195
 3912TIP3    H111742   5.714   2.038   3.149
 3912TIP3    H211743   5.767   2.124   3.263
 3913TIP3   OH211744   1.533   0.762   2.842
 3913TIP3    H111745   1.522   0.821   2.917
 3913TIP3    H211746   1.564   0.820   2.772
 3914TIP3   OH211747   4.378   2.203   2.573
 3914TIP3    H111748   4.324   2.227   2.648
 3914TIP3    H211749   4.362   2.272   2.509
 3915TIP3   OH211750   0.095   3.691   3.107
 3915TIP3    H111751   0.060   3.643   3.031
 3915TIP3    H211752   0.159   3.751   3.070
 3916TIP3   OH211753   5.860   2.522   2.937
 3916TIP3    H111754   5.865   2.542   2.844
 3916TIP3    H211755   5.768   2.531   2.960
 3917TIP3   OH211756   4.880   0.841   1.829
 3917TIP3    H111757   4.785   0.836   1.822
 3917TIP3    H211758   4.908   0.750   1.829
 3918TIP3   OH211759   4.193   1.658   0.056
 3918TIP3    H111760   4.168   1.739   0.013
 3918TIP3    H211761   4.172   1.589  -0.007
 3919TIP3   OH211762   3.348   0.282   1.711
 3919TIP3    H111763   3.370   0.302   1.802
 3919TIP3    H211764   3.320   0.190   1.713
 3920TIP3   OH211765   5.837   5.864   4.040
 3920TIP3    H111766   5.784   5.922   3.986
 3920TIP3    H211767   5.860   5.791   3.982
 3921TIP3   OH211768   3.427   1.757   4.452
 3921TIP3    H111769   3.439   1.850   4.434
 3921TIP3    H211770   3.442   1.714   4.368
 3922TIP3   OH211771   5.720   3.043   4.783
 3922TIP3    H111772   5.662   3.006   4.717
 3922TIP3    H211773   5.785   3.092   4.733
 3923TIP3   OH211774   5.755   1.851   4.309
 3923TIP3    H111775   5.837   1.857   4.260
 3923TIP3    H211776   5.687   1.868   4.243
 3924TIP3   OH211777   4.324   5.042   2.760
 3924TIP3    H111778   4.260   5.109   2.785
 3924TIP3    H211779   4.361   5.012   2.843
 3925TIP3   OH211780   3.359   2.756   2.902
 3925TIP3    H111781   3.317   2.836   2.870
 3925TIP3    H211782   3.313   2.685   2.856
 3926TIP3   OH211783   3.048   1.883   0.194
 3926TIP3    H111784   2.979   1.817   0.188
 3926TIP3    H211785   3.094   1.878   0.111
 3927TIP3   OH211786   1.987   5.453   3.762
 3927TIP3    H111787   1.940   5.397   3.823
 3927TIP3    H211788   2.050   5.501   3.816
 3928TIP3   OH211789   4.873   2.312   0.741
 3928TIP3    H111790   4.872   2.309   0.645
 3928TIP3    H211791   4.882   2.221   0.768
 3929TIP3   OH211792   2.185   4.275   0.662
 3929TIP3    H111793   2.230   4.248   0.742
 3929TIP3    H211794   2.092   4.265   0.682
 3930TIP3   OH211795   5.491   5.662   0.256
 3930TIP3    H111796   5.453   5.717   0.325
 3930TIP3    H211797   5.572   5.628   0.294
 3931TIP3   OH211798   5.887   3.689   0.209
 3931TIP3    H111799   5.969   3.714   0.168
 3931TIP3    H211800   5.823   3.753   0.176
 3932TIP3   OH211801   2.757   4.575   1.257
 3932TIP3    H111802   2.662   4.585   1.251
 3932TIP3    H211803   2.778   4.598   1.347
 3933TIP3   OH211804   2.240   4.891   0.118
 3933TIP3    H111805   2.309   4.929   0.172
 3933TIP3    H211806   2.279   4.886   0.030
 3934TIP3   OH211807   4.786   2.404   3.060
 3934TIP3    H111808   4.801   2.399   2.965
 3934TIP3    H211809   4.786   2.498   3.079
 3935TIP3   OH211810   4.317   4.940   1.343
 3935TIP3    H111811   4.308   5.018   1.288
 3935TIP3    H211812   4.355   4.874   1.285
 3936TIP3   OH211813   3.108   3.493   4.872
 3936TIP3    H111814   3.172   3.427   4.844
 3936TIP3    H211815   3.103   3.555   4.800
 3937TIP3   OH211816   2.812   3.086   0.448
 3937TIP3    H111817   2.769   3.120   0.370
 3937TIP3    H211818   2.836   2.996   0.426
 3938TIP3   OH211819   3.265   2.378   1.469
 3938TIP3    H111820   3.282   2.457   1.418
 3938TIP3    H211821   3.246   2.410   1.557
 3939TIP3   OH211822   1.619   4.836   0.451
 3939TIP3    H111823   1.559   4.839   0.377
 3939TIP3    H211824   1.705   4.820   0.412
 3940TIP3   OH211825   5.291   1.003   4.327
 3940TIP3    H111826   5.326   0.914   4.325
 3940TIP3    H211827   5.344   1.049   4.393
 3941TIP3   OH211828   5.680   0.434   0.181
 3941TIP3    H111829   5.713   0.497   0.245
 3941TIP3    H211830   5.742   0.362   0.183
 3942TIP3   OH211831   3.196   2.265   1.133
 3942TIP3    H111832   3.163   2.306   1.053
 3942TIP3    H211833   3.208   2.337   1.194
 3943TIP3   OH211834   5.570   2.819   1.566
 3943TIP3    H111835   5.530   2.847   1.649
 3943TIP3    H211836   5.624   2.894   1.540
 3944TIP3   OH211837   3.030   4.329   5.037
 3944TIP3    H111838   2.998   4.413   5.069
 3944TIP3    H211839   3.111   4.350   4.990
 3945TIP3   OH211840   2.109   5.606   1.638
 3945TIP3    H111841   2.112   5.587   1.732
 3945TIP3    H211842   2.021   5.641   1.624
 3946TIP3   OH211843   2.997   2.281   2.432
 3946TIP3    H111844   3.002   2.196   2.474
 3946TIP3    H211845   2.906   2.309   2.443
 3947TIP3   OH211846   6.313   5.971   2.718
 3947TIP3    H111847   6.357   5.953   2.635
 3947TIP3    H211848   6.221   5.949   2.701
 3948TIP3   OH211849   0.436   1.207   1.258
 3948TIP3    H111850   0.471   1.119   1.266
 3948TIP3    H211851   0.342   1.195   1.251
 3949TIP3   OH211852   0.937   0.202   4.525
 3949TIP3    H111853   0.932   0.118   4.481
 3949TIP3    H211854   0.955   0.180   4.617
 3950TIP3   OH211855   2.045   1.572   2.691
 3950TIP3    H111856   1.951   1.575   2.709
 3950TIP3    H211857   2.060   1.484   2.655
 3951TIP3   OH211858   4.273   3.796   0.172
 3951TIP3    H111859   4.254   3.886   0.146
 3951TIP3    H211860   4.363   3.799   0.206
 3952TIP3   OH211861   4.871   0.941   0.324
 3952TIP3    H111862   4.782   0.924   0.293
 3952TIP3    H211863   4.902   0.856   0.357
 3953TIP3   OH211864   3.552   0.524   0.651
 3953TIP3    H111865   3.516   0.581   0.584
 3953TIP3    H211866   3.603   0.583   0.708
 3954TIP3   OH211867   5.015   3.243   4.160
 3954TIP3    H111868   5.103   3.217   4.185
 3954TIP3    H211869   5.026   3.297   4.082
 3955TIP3   OH211870   4.249   4.295   3.431
 3955TIP3    H111871   4.295   4.379   3.432
 3955TIP3    H211872   4.273   4.253   3.513
 3956TIP3   OH211873   5.029   3.527   2.416
 3956TIP3    H111874   5.061   3.562   2.499
 3956TIP3    H211875   5.101   3.541   2.355
 3957TIP3   OH211876   2.835   1.468   1.993
 3957TIP3    H111877   2.867   1.554   2.019
 3957TIP3    H211878   2.850   1.465   1.898
 3958TIP3   OH211879   2.531   0.292   3.753
 3958TIP3    H111880   2.525   0.238   3.674
 3958TIP3    H211881   2.485   0.373   3.731
 3959TIP3   OH211882   5.282   0.166   0.954
 3959TIP3    H111883   5.202   0.219   0.947
 3959TIP3    H211884   5.278   0.107   0.879
 3960TIP3   OH211885   1.695   0.381   0.702
 3960TIP3    H111886   1.652   0.465   0.711
 3960TIP3    H211887   1.694   0.364   0.607
 3961TIP3   OH211888   1.651   3.562   4.916
 3961TIP3    H111889   1.698   3.642   4.937
 3961TIP3    H211890   1.561   3.579   4.945
 3962TIP3   OH211891   2.212   4.708   3.313
 3962TIP3    H111892   2.249   4.786   3.270
 3962TIP3    H211893   2.276   4.639   3.296
 3963TIP3   OH211894   4.394   5.929   3.841
 3963TIP3    H111895   4.366   6.018   3.863
 3963TIP3    H211896   4.346   5.873   3.902
 3964TIP3   OH211897   5.699   5.253   0.935
 3964TIP3    H111898   5.637   5.180   0.939
 3964TIP3    H211899   5.674   5.309   1.008
 3965TIP3   OH211900   3.551   5.137   0.783
 3965TIP3    H111901   3.505   5.053   0.791
 3965TIP3    H211902   3.526   5.186   0.861
 3966TIP3   OH211903   0.120   3.754   2.471
 3966TIP3    H111904   0.214   3.770   2.485
 3966TIP3    H211905   0.096   3.694   2.541
 3967TIP3   OH211906   0.122   2.752   3.463
 3967TIP3    H111907   0.113   2.657   3.461
 3967TIP3    H211908   0.045   2.783   3.511
 3968TIP3   OH211909   0.489   4.161   1.413
 3968TIP3    H111910   0.508   4.210   1.333
 3968TIP3    H211911   0.437   4.221   1.466
 3969TIP3   OH211912   4.974   0.826   2.816
 3969TIP3    H111913   4.967   0.875   2.734
 3969TIP3    H211914   4.930   0.743   2.799
 3970TIP3   OH211915   5.063   2.152   4.362
 3970TIP3    H111916   5.012   2.136   4.282
 3970TIP3    H211917   4.999   2.146   4.433
 3971TIP3   OH211918   4.851   2.925   1.118
 3971TIP3    H111919   4.828   3.017   1.128
 3971TIP3    H211920   4.770   2.883   1.089
 3972TIP3   OH211921   2.123   0.829   2.193
 3972TIP3    H111922   2.121   0.734   2.184
 3972TIP3    H211923   2.050   0.860   2.140
 3973TIP3   OH211924   0.052   5.563   4.145
 3973TIP3    H111925   0.094   5.509   4.078
 3973TIP3    H211926   0.025   5.501   4.212
 3974TIP3   OH211927   3.354   2.490   4.857
 3974TIP3    H111928   3.261   2.465   4.858
 3974TIP3    H211929   3.400   2.407   4.846
 3975TIP3   OH211930   1.067   4.392   2.258
 3975TIP3    H111931   1.141   4.421   2.205
 3975TIP3    H211932   1.100   4.318   2.308
 3976TIP3   OH211933   3.723   2.108   3.159
 3976TIP3    H111934   3.697   2.027   3.203
 3976TIP3    H211935   3.655   2.171   3.182
 3977TIP3   OH211936   5.494   0.623   1.920
 3977TIP3    H111937   5.557   0.656   1.984
 3977TIP3    H211938   5.457   0.702   1.880
 3978TIP3   OH211939   5.593   4.814   1.662
 3978TIP3    H111940   5.601   4.784   1.753
 3978TIP3    H211941   5.663   4.767   1.616
 3979TIP3   OH211942   1.882   3.042   4.898
 3979TIP3    H111943   1.864   2.957   4.937
 3979TIP3    H211944   1.976   3.055   4.911
 3980TIP3   OH211945   3.264   4.707   4.892
 3980TIP3    H111946   3.350   4.716   4.852
 3980TIP3    H211947   3.225   4.794   4.885
 3981TIP3   OH211948   4.747   3.911   3.762
 3981TIP3    H111949   4.745   3.873   3.674
 3981TIP3    H211950   4.676   3.868   3.809
 3982TIP3   OH211951   2.887   0.950   2.719
 3982TIP3    H111952   2.949   0.877   2.722
 3982TIP3    H211953   2.838   0.936   2.639
 3983TIP3   OH211954   0.553   2.584   0.067
 3983TIP3    H111955   0.629   2.641   0.060
 3983TIP3    H211956   0.589   2.500   0.094
 3984TIP3   OH211957   1.150   2.244   2.757
 3984TIP3    H111958   1.057   2.238   2.735
 3984TIP3    H211959   1.193   2.182   2.697
 3985TIP3   OH211960   4.897   3.740   1.616
 3985TIP3    H111961   4.913   3.789   1.697
 3985TIP3    H211962   4.889   3.808   1.548
 3986TIP3   OH211963   1.389   4.221   4.113
 3986TIP3    H111964   1.426   4.291   4.059
 3986TIP3    H211965   1.446   4.218   4.190
 3987TIP3   OH211966   5.434   5.469   4.126
 3987TIP3    H111967   5.476   5.554   4.112
 3987TIP3    H211968   5.501   5.406   4.100
 3988TIP3   OH211969   5.867   1.344   3.205
 3988TIP3    H111970   5.794   1.294   3.167
 3988TIP3    H211971   5.893   1.293   3.282
 3989TIP3   OH211972   4.149   0.858   4.463
 3989TIP3    H111973   4.133   0.902   4.379
 3989TIP3    H211974   4.174   0.928   4.523
 3990TIP3   OH211975   2.521   2.756   1.812
 3990TIP3    H111976   2.553   2.783   1.726
 3990TIP3    H211977   2.442   2.705   1.793
 3991TIP3   OH211978   2.468   5.584   2.640
 3991TIP3    H111979   2.502   5.574   2.729
 3991TIP3    H211980   2.541   5.622   2.591
 3992TIP3   OH211981   4.171   5.663   1.517
 3992TIP3    H111982   4.199   5.584   1.564
 3992TIP3    H211983   4.213   5.656   1.431
 3993TIP3   OH211984   0.369   3.828   2.479
 3993TIP3    H111985   0.359   3.922   2.467
 3993TIP3    H211986   0.439   3.820   2.543
 3994TIP3   OH211987   6.317   1.779   2.691
 3994TIP3    H111988   6.275   1.802   2.773
 3994TIP3    H211989   6.293   1.687   2.676
 3995TIP3   OH211990   5.748   3.915   4.392
 3995TIP3    H111991   5.676   3.972   4.366
 3995TIP3    H211992   5.812   3.975   4.432
 3996TIP3   OH211993   2.196   2.439   0.353
 3996TIP3    H111994   2.265   2.439   0.288
 3996TIP3    H211995   2.128   2.382   0.316
 3997TIP3   OH211996   2.843   0.648   1.381
 3997TIP3    H111997   2.807   0.663   1.469
 3997TIP3    H211998   2.911   0.715   1.372
 3998TIP3   OH211999   2.391   0.371   4.185
 3998TIP3    H112000   2.368   0.445   4.130
 3998TIP3    H212001   2.342   0.385   4.266
 3999TIP3   OH212002   6.185   3.926   2.975
 3999TIP3    H112003   6.179   4.015   3.008
 3999TIP3    H212004   6.119   3.877   3.024
 4000TIP3   OH212005   3.613   3.431   0.238
 4000TIP3    H112006   3.595   3.485   0.314
 4000TIP3    H212007   3.569   3.348   0.257
 4001TIP3   OH212008   0.953   5.574   5.149
 4001TIP3    H112009   0.924   5.665   5.149
 4001TIP3    H212010   0.927   5.540   5.064
 4002TIP3   OH212011   1.602   3.819   1.030
 4002TIP3    H112012   1.515   3.810   0.992
 4002TIP3    H212013   1.662   3.793   0.960
 4003TIP3   OH212014   0.211   3.046   5.065
 4003TIP3    H112015   0.184   2.961   5.101
 4003TIP3    H212016   0.155   3.059   4.989
 4004TIP3   OH212017   5.998   1.678   0.459
 4004TIP3    H112018   5.941   1.619   0.509
 4004TIP3    H212019   6.005   1.637   0.373
 4005TIP3   OH212020   0.921   0.984   0.750
 4005TIP3    H112021   0.925   0.951   0.660
 4005TIP3    H212022   0.934   1.078   0.742
 4006TIP3   OH212023   1.532   5.466   4.834
 4006TIP3    H112024   1.613   5.437   4.793
 4006TIP3    H212025   1.464   5.411   4.795
 4007TIP3   OH212026   2.973   1.303   4.880
 4007TIP3    H112027   2.976   1.208   4.869
 4007TIP3    H212028   3.036   1.321   4.949
 4008TIP3   OH212029   5.567   4.879   2.417
 4008TIP3    H112030   5.621   4.916   2.487
 4008TIP3    H212031   5.569   4.944   2.348
 4009TIP3   OH212032   4.101   5.411   1.212
 4009TIP3    H112033   4.119   5.376   1.125
 4009TIP3    H212034   4.006   5.423   1.213
 4010TIP3   OH212035   0.233   4.181   2.754
 4010TIP3    H112036   0.170   4.121   2.715
 4010TIP3    H212037   0.291   4.125   2.805
 4011TIP3   OH212038   0.348   5.731   4.238
 4011TIP3    H112039   0.363   5.636   4.230
 4011TIP3    H212040   0.255   5.738   4.259
 4012TIP3   OH212041   2.601   3.036   0.715
 4012TIP3    H112042   2.583   2.959   0.662
 4012TIP3    H212043   2.588   3.007   0.805
 4013TIP3   OH212044   1.999   1.338   4.473
 4013TIP3    H112045   2.064   1.268   4.461
 4013TIP3    H212046   2.050   1.414   4.500
 4014TIP3   OH212047   4.780   0.911   4.991
 4014TIP3    H112048   4.830   0.987   5.022
 4014TIP3    H212049   4.709   0.949   4.939
 4015TIP3   OH212050   5.257   4.823   4.490
 4015TIP3    H112051   5.236   4.781   4.573
 4015TIP3    H212052   5.352   4.832   4.490
 4016TIP3   OH212053   5.881   1.415   4.508
 4016TIP3    H112054   5.941   1.341   4.506
 4016TIP3    H212055   5.932   1.486   4.545
 4017TIP3   OH212056   4.120   3.758   1.964
 4017TIP3    H112057   4.177   3.714   1.901
 4017TIP3    H212058   4.060   3.690   1.994
 4018TIP3   OH212059   5.738   3.049   4.259
 4018TIP3    H112060   5.759   2.958   4.282
 4018TIP3    H212061   5.806   3.074   4.196
 4019TIP3   OH212062   5.933   3.704   4.243
 4019TIP3    H112063   6.017   3.658   4.246
 4019TIP3    H212064   5.905   3.710   4.334
 4020TIP3   OH212065   1.035   1.805   3.328
 4020TIP3    H112066   1.074   1.753   3.399
 4020TIP3    H212067   1.108   1.855   3.291
 4021TIP3   OH212068   2.944   2.712   2.069
 4021TIP3    H112069   2.906   2.706   2.157
 4021TIP3    H212070   2.869   2.707   2.010
 4022TIP3   OH212071   3.537   0.759   3.518
 4022TIP3    H112072   3.541   0.854   3.520
 4022TIP3    H212073   3.470   0.736   3.582
 4023TIP3   OH212074   2.912   3.801   1.497
 4023TIP3    H112075   2.944   3.819   1.408
 4023TIP3    H212076   2.820   3.829   1.496
 4024TIP3   OH212077   3.253   2.933   1.058
 4024TIP3    H112078   3.299   3.002   1.010
 4024TIP3    H212079   3.237   2.864   0.994
 4025TIP3   OH212080   1.681   4.654   4.119
 4025TIP3    H112081   1.642   4.741   4.118
 4025TIP3    H212082   1.768   4.666   4.082
 4026TIP3   OH212083   2.976   5.415   2.827
 4026TIP3    H112084   2.893   5.374   2.800
 4026TIP3    H212085   2.968   5.424   2.922
 4027TIP3   OH212086   5.735   2.251   2.754
 4027TIP3    H112087   5.699   2.255   2.843
 4027TIP3    H212088   5.660   2.230   2.699
 4028TIP3   OH212089   0.636   2.792   0.743
 4028TIP3    H112090   0.603   2.766   0.657
 4028TIP3    H212091   0.601   2.726   0.803
 4029TIP3   OH212092   0.472   2.407   2.118
 4029TIP3    H112093   0.424   2.324   2.115
 4029TIP3    H212094   0.405   2.474   2.113
 4030TIP3   OH212095   0.824   2.948   3.770
 4030TIP3    H112096   0.788   3.021   3.820
 4030TIP3    H212097   0.784   2.956   3.683
 4031TIP3   OH212098   1.677   4.511   1.998
 4031TIP3    H112099   1.752   4.561   1.966
 4031TIP3    H212100   1.656   4.452   1.925
 4032TIP3   OH212101   2.266   3.832   2.499
 4032TIP3    H112102   2.242   3.802   2.586
 4032TIP3    H212103   2.280   3.926   2.508
 4033TIP3   OH212104   1.375   1.919   0.080
 4033TIP3    H112105   1.296   1.934   0.028
 4033TIP3    H212106   1.410   1.837   0.047
 4034TIP3   OH212107   3.067   1.092   1.384
 4034TIP3    H112108   3.037   1.108   1.295
 4034TIP3    H212109   3.141   1.152   1.395
 4035TIP3   OH212110   0.784   4.353   1.959
 4035TIP3    H112111   0.877   4.332   1.946
 4035TIP3    H212112   0.741   4.267   1.966
 4036TIP3   OH212113   0.278   0.618   2.232
 4036TIP3    H112114   0.302   0.681   2.165
 4036TIP3    H212115   0.358   0.568   2.248
 4037TIP3   OH212116   4.075   1.451   4.860
 4037TIP3    H112117   4.131   1.435   4.783
 4037TIP3    H212118   3.986   1.440   4.827
 4038TIP3   OH212119   0.477   3.626   3.484
 4038TIP3    H112120   0.440   3.681   3.415
 4038TIP3    H212121   0.453   3.536   3.459
 4039TIP3   OH212122   0.043   1.210   0.452
 4039TIP3    H112123  -0.019   1.138   0.438
 4039TIP3    H212124   0.118   1.168   0.495
 4040TIP3   OH212125   2.891   4.340   2.289
 4040TIP3    H112126   2.870   4.279   2.219
 4040TIP3    H212127   2.860   4.425   2.258
 4041TIP3   OH212128   4.707   1.435   2.839
 4041TIP3    H112129   4.788   1.463   2.880
 4041TIP3    H212130   4.702   1.485   2.758
 4042TIP3   OH212131   0.089   5.254   1.013
 4042TIP3    H112132   0.081   5.321   0.946
 4042TIP3    H212133   0.016   5.194   0.996
 4043TIP3   OH212134   0.541   4.950   4.929
 4043TIP3    H112135   0.562   5.006   5.004
 4043TIP3    H212136   0.558   5.004   4.852
 4044TIP3   OH212137   4.463   2.231   2.932
 4044TIP3    H112138   4.421   2.151   2.899
 4044TIP3    H212139   4.548   2.202   2.963
 4045TIP3   OH212140   3.607   5.371   1.422
 4045TIP3    H112141   3.651   5.288   1.440
 4045TIP3    H212142   3.581   5.365   1.330
 4046TIP3   OH212143   3.128   2.505   2.524
 4046TIP3    H112144   3.055   2.552   2.564
 4046TIP3    H212145   3.086   2.431   2.479
 4047TIP3   OH212146   1.295   0.099   2.346
 4047TIP3    H112147   1.299   0.033   2.277
 4047TIP3    H212148   1.380   0.143   2.342
 4048TIP3   OH212149   0.068   4.130   2.234
 4048TIP3    H112150   0.084   4.223   2.248
 4048TIP3    H212151  -0.021   4.126   2.199
 4049TIP3   OH212152   1.970   4.630   3.287
 4049TIP3    H112153   2.064   4.649   3.289
 4049TIP3    H212154   1.929   4.714   3.268
 4050TIP3   OH212155   5.478   2.037   0.268
 4050TIP3    H112156   5.467   2.130   0.288
 4050TIP3    H212157   5.425   2.023   0.190
 4051TIP3   OH212158   1.193   3.788   1.729
 4051TIP3    H112159   1.105   3.752   1.720
 4051TIP3    H212160   1.211   3.830   1.645
 4052TIP3   OH212161   3.994   4.976   0.612
 4052TIP3    H112162   3.937   5.005   0.541
 4052TIP3    H212163   3.974   5.035   0.684
 4053TIP3   OH212164   4.307   3.775   4.480
 4053TIP3    H112165   4.285   3.855   4.527
 4053TIP3    H212166   4.279   3.704   4.538
 4054TIP3   OH212167   2.459   3.470   4.436
 4054TIP3    H112168   2.461   3.547   4.380
 4054TIP3    H212169   2.549   3.438   4.437
 4055TIP3   OH212170   5.252   2.036   2.845
 4055TIP3    H112171   5.231   2.004   2.933
 4055TIP3    H212172   5.347   2.028   2.838
 4056TIP3   OH212173   4.262   1.370   1.658
 4056TIP3    H112174   4.316   1.311   1.710
 4056TIP3    H212175   4.324   1.422   1.608
 4057TIP3   OH212176   5.414   1.780   5.151
 4057TIP3    H112177   5.439   1.690   5.172
 4057TIP3    H212178   5.335   1.772   5.098
 4058TIP3   OH212179   1.793   3.887   2.504
 4058TIP3    H112180   1.740   3.810   2.484
 4058TIP3    H212181   1.799   3.934   2.422
 4059TIP3   OH212182   0.815   4.892   0.229
 4059TIP3    H112183   0.874   4.966   0.243
 4059TIP3    H212184   0.771   4.912   0.146
 4060TIP3   OH212185   4.382   2.450   2.777
 4060TIP3    H112186   4.306   2.471   2.831
 4060TIP3    H212187   4.425   2.379   2.824
 4061TIP3   OH212188   4.545   1.227   2.951
 4061TIP3    H112189   4.598   1.295   2.910
 4061TIP3    H212190   4.476   1.209   2.888
 4062TIP3   OH212191   0.207   2.218   4.172
 4062TIP3    H112192   0.195   2.258   4.086
 4062TIP3    H212193   0.302   2.217   4.184
 4063TIP3   OH212194   5.090   5.906   1.050
 4063TIP3    H112195   5.077   6.000   1.062
 4063TIP3    H212196   5.079   5.869   1.138
 4064TIP3   OH212197   3.567   2.308   3.856
 4064TIP3    H112198   3.638   2.345   3.804
 4064TIP3    H212199   3.545   2.375   3.920
 4065TIP3   OH212200   4.773   0.575   1.399
 4065TIP3    H112201   4.682   0.591   1.374
 4065TIP3    H212202   4.822   0.649   1.363
 4066TIP3   OH212203   1.317   1.530   4.527
 4066TIP3    H112204   1.393   1.488   4.488
 4066TIP3    H212205   1.346   1.619   4.546
 4067TIP3   OH212206   1.846   3.986   2.920
 4067TIP3    H112207   1.900   3.910   2.943
 4067TIP3    H212208   1.757   3.960   2.945
 4068TIP3   OH212209   4.242   4.133   2.487
 4068TIP3    H112210   4.160   4.138   2.536
 4068TIP3    H212211   4.310   4.131   2.553
 4069TIP3   OH212212   1.548   3.709   3.846
 4069TIP3    H112213   1.620   3.683   3.904
 4069TIP3    H212214   1.533   3.801   3.868
 4070TIP3   OH212215   0.341   2.408   0.298
 4070TIP3    H112216   0.328   2.503   0.296
 4070TIP3    H212217   0.433   2.396   0.273
 4071TIP3   OH212218   6.281   2.115   2.491
 4071TIP3    H112219   6.206   2.107   2.550
 4071TIP3    H212220   6.268   2.199   2.448
 4072TIP3   OH212221   2.528   4.983   0.939
 4072TIP3    H112222   2.461   4.985   0.871
 4072TIP3    H212223   2.505   4.906   0.992
 4073TIP3   OH212224   4.917   1.049   3.555
 4073TIP3    H112225   5.002   1.006   3.563
 4073TIP3    H212226   4.935   1.141   3.575
 4074TIP3   OH212227   0.884   4.754   1.775
 4074TIP3    H112228   0.834   4.719   1.849
 4074TIP3    H212229   0.851   4.705   1.699
 4075TIP3   OH212230   2.864   3.093   1.584
 4075TIP3    H112231   2.789   3.126   1.634
 4075TIP3    H212232   2.921   3.169   1.572
 4076TIP3   OH212233   1.091   2.606   4.845
 4076TIP3    H112234   1.178   2.623   4.881
 4076TIP3    H212235   1.050   2.546   4.908
 4077TIP3   OH212236   4.506   1.900   3.707
 4077TIP3    H112237   4.513   1.875   3.799
 4077TIP3    H212238   4.416   1.878   3.683
 4078TIP3   OH212239   1.081   2.540   2.721
 4078TIP3    H112240   1.112   2.580   2.639
 4078TIP3    H212241   1.115   2.450   2.717
 4079TIP3   OH212242   4.843   5.012   1.459
 4079TIP3    H112243   4.845   4.940   1.522
 4079TIP3    H212244   4.817   4.971   1.376
 4080TIP3   OH212245   2.567   1.195   1.189
 4080TIP3    H112246   2.588   1.105   1.212
 4080TIP3    H212247   2.479   1.190   1.152
 4081TIP3   OH212248   3.147   5.623   2.465
 4081TIP3    H112249   3.207   5.652   2.397
 4081TIP3    H212250   3.175   5.533   2.484
 4082TIP3   OH212251   0.360   5.654   1.246
 4082TIP3    H112252   0.451   5.625   1.249
 4082TIP3    H212253   0.315   5.602   1.312
 4083TIP3   OH212254   3.341   3.284   2.147
 4083TIP3    H112255   3.370   3.352   2.087
 4083TIP3    H212256   3.421   3.238   2.173
 4084TIP3   OH212257   0.777   2.438   2.417
 4084TIP3    H112258   0.812   2.356   2.382
 4084TIP3    H212259   0.686   2.440   2.387
 4085TIP3   OH212260   3.740   3.182   4.633
 4085TIP3    H112261   3.674   3.144   4.574
 4085TIP3    H212262   3.706   3.269   4.652
 4086TIP3   OH212263   3.296   2.408   5.135
 4086TIP3    H112264   3.357   2.420   5.062
 4086TIP3    H212265   3.222   2.361   5.097
 4087TIP3   OH212266   2.740   1.662   3.076
 4087TIP3    H112267   2.736   1.757   3.061
 4087TIP3    H212268   2.695   1.650   3.160
 4088TIP3   OH212269   0.879   0.324   4.936
 4088TIP3    H112270   0.802   0.275   4.965
 4088TIP3    H212271   0.845   0.411   4.914
 4089TIP3   OH212272   6.067   3.280   4.983
 4089TIP3    H112273   6.068   3.211   4.916
 4089TIP3    H212274   6.049   3.360   4.934
 4090TIP3   OH212275   5.000   5.276   1.943
 4090TIP3    H112276   4.952   5.204   1.904
 4090TIP3    H212277   4.934   5.343   1.960
 4091TIP3   OH212278   0.319   1.345   0.991
 4091TIP3    H112279   0.301   1.399   0.914
 4091TIP3    H212280   0.258   1.271   0.983
 4092TIP3   OH212281   5.901   1.568   2.433
 4092TIP3    H112282   5.947   1.487   2.455
 4092TIP3    H212283   5.957   1.612   2.369
 4093TIP3   OH212284  -0.025   3.338   4.559
 4093TIP3    H112285   0.009   3.249   4.565
 4093TIP3    H212286   0.045   3.387   4.516
 4094TIP3   OH212287   1.549   0.368   1.870
 4094TIP3    H112288   1.474   0.370   1.930
 4094TIP3    H212289   1.554   0.276   1.843
 4095TIP3   OH212290   2.809   3.583   3.742
 4095TIP3    H112291   2.864   3.567   3.665
 4095TIP3    H212292   2.727   3.538   3.722
 4096TIP3   OH212293   4.696   2.817   1.681
 4096TIP3    H112294   4.644   2.872   1.623
 4096TIP3    H212295   4.772   2.871   1.704
 4097TIP3   OH212296   0.268   3.885   1.506
 4097TIP3    H112297   0.184   3.929   1.515
 4097TIP3    H212298   0.321   3.919   1.579
 4098TIP3   OH212299   4.740   2.958   3.497
 4098TIP3    H112300   4.786   3.029   3.541
 4098TIP3    H212301   4.798   2.882   3.507
 4099TIP3   OH212302   4.836   5.581   4.375
 4099TIP3    H112303   4.925   5.555   4.351
 4099TIP3    H212304   4.786   5.500   4.370
 4100TIP3   OH212305   0.203   5.059   2.065
 4100TIP3    H112306   0.233   5.120   1.998
 4100TIP3    H212307   0.277   5.051   2.125
 4101TIP3   OH212308   1.815   4.294   4.278
 4101TIP3    H112309   1.775   4.226   4.225
 4101TIP3    H212310   1.896   4.316   4.232
 4102TIP3   OH212311   0.727   3.360   1.594
 4102TIP3    H112312   0.715   3.449   1.628
 4102TIP3    H212313   0.714   3.304   1.670
 4103TIP3   OH212314   3.764   3.174   1.717
 4103TIP3    H112315   3.774   3.093   1.767
 4103TIP3    H212316   3.735   3.238   1.782
 4104TIP3   OH212317   5.738   1.695   4.021
 4104TIP3    H112318   5.703   1.783   4.009
 4104TIP3    H212319   5.744   1.685   4.116
 4105TIP3   OH212320   2.472   3.046   2.801
 4105TIP3    H112321   2.383   3.081   2.794
 4105TIP3    H212322   2.514   3.071   2.719
 4106TIP3   OH212323   5.270   4.282   0.681
 4106TIP3    H112324   5.212   4.255   0.752
 4106TIP3    H212325   5.301   4.369   0.708
 4107TIP3   OH212326   2.540   1.125   2.382
 4107TIP3    H112327   2.512   1.106   2.293
 4107TIP3    H212328   2.636   1.126   2.377
 4108TIP3   OH212329   5.134   2.861   3.686
 4108TIP3    H112330   5.099   2.831   3.602
 4108TIP3    H212331   5.222   2.893   3.666
 4109TIP3   OH212332   5.332   3.564   4.509
 4109TIP3    H112333   5.254   3.607   4.473
 4109TIP3    H212334   5.330   3.584   4.602
 4110TIP3   OH212335   0.082   5.143   4.112
 4110TIP3    H112336   0.051   5.115   4.026
 4110TIP3    H212337   0.176   5.128   4.109
 4111TIP3   OH212338   6.239   0.864   4.088
 4111TIP3    H112339   6.268   0.855   3.997
 4111TIP3    H212340   6.144   0.863   4.084
 4112TIP3   OH212341   5.461   5.715   4.967
 4112TIP3    H112342   5.525   5.784   4.951
 4112TIP3    H212343   5.380   5.762   4.990
 4113TIP3   OH212344   1.459   2.787   1.503
 4113TIP3    H112345   1.542   2.831   1.524
 4113TIP3    H212346   1.421   2.767   1.589
 4114TIP3   OH212347   2.080   1.611   3.268
 4114TIP3    H112348   2.124   1.688   3.232
 4114TIP3    H212349   2.009   1.592   3.207
 4115TIP3   OH212350   4.708   3.994   2.058
 4115TIP3    H112351   4.673   3.915   2.016
 4115TIP3    H212352   4.719   4.057   1.987
 4116TIP3   OH212353   1.459   2.445   4.542
 4116TIP3    H112354   1.508   2.476   4.619
 4116TIP3    H212355   1.477   2.511   4.475
 4117TIP3   OH212356   3.909   3.814   3.142
 4117TIP3    H112357   3.999   3.843   3.150
 4117TIP3    H212358   3.861   3.890   3.110
 4118TIP3   OH212359   0.828   3.119   2.408
 4118TIP3    H112360   0.913   3.105   2.366
 4118TIP3    H212361   0.796   3.031   2.427
 4119TIP3   OH212362   0.585   5.267   3.798
 4119TIP3    H112363   0.526   5.293   3.868
 4119TIP3    H212364   0.534   5.207   3.744
 4120TIP3   OH212365   2.705   3.172   3.351
 4120TIP3    H112366   2.660   3.250   3.316
 4120TIP3    H212367   2.797   3.197   3.353
 4121TIP3   OH212368   5.072   5.768   0.335
 4121TIP3    H112369   5.156   5.812   0.352
 4121TIP3    H212370   5.094   5.675   0.334
 4122TIP3   OH212371   3.578   5.294   2.719
 4122TIP3    H112372   3.491   5.333   2.712
 4122TIP3    H212373   3.589   5.246   2.637
 4123TIP3   OH212374   6.135   1.740   1.151
 4123TIP3    H112375   6.146   1.828   1.185
 4123TIP3    H212376   6.049   1.741   1.110
 4124TIP3   OH212377   5.296   1.461   2.032
 4124TIP3    H112378   5.290   1.555   2.048
 4124TIP3    H212379   5.272   1.421   2.116
 4125TIP3   OH212380   5.041   1.370   4.034
 4125TIP3    H112381   5.077   1.282   4.040
 4125TIP3    H212382   5.037   1.401   4.124
 4126TIP3   OH212383   4.775   0.743   4.234
 4126TIP3    H112384   4.718   0.674   4.200
 4126TIP3    H212385   4.864   0.715   4.209
 4127TIP3   OH212386   0.087   0.555   4.683
 4127TIP3    H112387   0.003   0.599   4.695
 4127TIP3    H212388   0.138   0.617   4.630
 4128TIP3   OH212389   3.060   0.773   1.874
 4128TIP3    H112390   3.136   0.793   1.819
 4128TIP3    H212391   2.987   0.816   1.829
 4129TIP3   OH212392   1.103   1.424   2.465
 4129TIP3    H112393   1.091   1.347   2.521
 4129TIP3    H212394   1.014   1.451   2.442
 4130TIP3   OH212395   4.667   5.652   0.818
 4130TIP3    H112396   4.721   5.590   0.769
 4130TIP3    H212397   4.710   5.661   0.903
 4131TIP3   OH212398   5.136   2.531   0.230
 4131TIP3    H112399   5.110   2.579   0.308
 4131TIP3    H212400   5.177   2.597   0.174
 4132TIP3   OH212401   3.021   2.432   4.170
 4132TIP3    H112402   2.971   2.503   4.129
 4132TIP3    H212403   2.980   2.419   4.255
 4133TIP3   OH212404   2.288   2.112   2.866
 4133TIP3    H112405   2.238   2.163   2.931
 4133TIP3    H212406   2.227   2.100   2.793
 4134TIP3   OH212407   5.715   1.793   3.750
 4134TIP3    H112408   5.672   1.726   3.697
 4134TIP3    H212409   5.765   1.744   3.815
 4135TIP3   OH212410   5.478   4.414   3.640
 4135TIP3    H112411   5.421   4.488   3.658
 4135TIP3    H212412   5.472   4.401   3.546
 4136TIP3   OH212413   3.834   5.745   2.213
 4136TIP3    H112414   3.877   5.680   2.157
 4136TIP3    H212415   3.782   5.798   2.152
 4137TIP3   OH212416   1.928   2.963   0.859
 4137TIP3    H112417   1.969   2.878   0.841
 4137TIP3    H212418   1.838   2.953   0.827
 4138TIP3   OH212419   1.624   5.731   1.136
 4138TIP3    H112420   1.634   5.766   1.224
 4138TIP3    H212421   1.702   5.677   1.122
 4139TIP3   OH212422   4.165   2.896   3.031
 4139TIP3    H112423   4.104   2.969   3.040
 4139TIP3    H212424   4.218   2.918   2.954
 4140TIP3   OH212425   0.759   1.931   4.129
 4140TIP3    H112426   0.818   1.973   4.067
 4140TIP3    H212427   0.751   1.994   4.200
 4141TIP3   OH212428   5.862   3.006   0.272
 4141TIP3    H112429   5.914   2.944   0.221
 4141TIP3    H212430   5.915   3.085   0.277
 4142TIP3   OH212431   1.541   2.415   0.577
 4142TIP3    H112432   1.562   2.463   0.497
 4142TIP3    H212433   1.557   2.323   0.555
 4143TIP3   OH212434   6.292   4.350   1.042
 4143TIP3    H112435   6.221   4.412   1.028
 4143TIP3    H212436   6.370   4.395   1.009
 4144TIP3   OH212437   3.242   1.816   3.272
 4144TIP3    H112438   3.321   1.798   3.221
 4144TIP3    H212439   3.255   1.769   3.354
 4145TIP3   OH212440   4.066   3.445   2.701
 4145TIP3    H112441   4.073   3.537   2.724
 4145TIP3    H212442   4.152   3.408   2.724
 4146TIP3   OH212443   1.899   2.015   2.381
 4146TIP3    H112444   1.880   1.971   2.298
 4146TIP3    H212445   1.841   1.973   2.444
 4147TIP3   OH212446   3.184   3.046   0.299
 4147TIP3    H112447   3.212   2.955   0.288
 4147TIP3    H212448   3.097   3.049   0.258
 4148TIP3   OH212449   5.517   5.664   3.679
 4148TIP3    H112450   5.453   5.602   3.714
 4148TIP3    H212451   5.493   5.674   3.587
 4149TIP3   OH212452   5.693   5.767   3.260
 4149TIP3    H112453   5.676   5.680   3.224
 4149TIP3    H212454   5.784   5.764   3.289
 4150TIP3   OH212455   0.537   2.807   5.137
 4150TIP3    H112456   0.576   2.744   5.197
 4150TIP3    H212457   0.443   2.806   5.159
 4151TIP3   OH212458   1.189   2.534   3.528
 4151TIP3    H112459   1.213   2.557   3.438
 4151TIP3    H212460   1.272   2.526   3.574
 4152TIP3   OH212461   0.718   4.000   1.673
 4152TIP3    H112462   0.673   4.056   1.610
 4152TIP3    H212463   0.811   4.017   1.657
 4153TIP3   OH212464   5.452   3.346   2.824
 4153TIP3    H112465   5.448   3.437   2.854
 4153TIP3    H212466   5.360   3.319   2.819
 4154TIP3   OH212467   3.917   2.122   1.542
 4154TIP3    H112468   3.864   2.043   1.535
 4154TIP3    H212469   4.003   2.091   1.572
 4155TIP3   OH212470   0.609   1.444   2.010
 4155TIP3    H112471   0.586   1.365   2.058
 4155TIP3    H212472   0.621   1.414   1.919
 4156TIP3   OH212473   1.939   1.344   2.515
 4156TIP3    H112474   1.880   1.384   2.451
 4156TIP3    H212475   1.884   1.328   2.592
 4157TIP3   OH212476   1.000   5.205   4.534
 4157TIP3    H112477   0.951   5.133   4.495
 4157TIP3    H212478   0.932   5.268   4.562
 4158TIP3   OH212479   6.157   5.676   0.703
 4158TIP3    H112480   6.088   5.612   0.685
 4158TIP3    H212481   6.184   5.708   0.617
 4159TIP3   OH212482   5.904   3.402   0.098
 4159TIP3    H112483   5.916   3.476   0.157
 4159TIP3    H212484   5.945   3.328   0.144
 4160TIP3   OH212485   5.499   3.768   3.483
 4160TIP3    H112486   5.551   3.787   3.405
 4160TIP3    H212487   5.457   3.851   3.506
 4161TIP3   OH212488   2.708   5.132   1.421
 4161TIP3    H112489   2.650   5.081   1.365
 4161TIP3    H212490   2.698   5.222   1.389
 4162TIP3   OH212491   3.624   5.601   4.694
 4162TIP3    H112492   3.593   5.553   4.618
 4162TIP3    H212493   3.544   5.628   4.740
 4163TIP3   OH212494   5.094   2.049   1.420
 4163TIP3    H112495   5.081   1.960   1.385
 4163TIP3    H212496   5.187   2.052   1.443
 4164TIP3   OH212497   1.575   5.300   2.891
 4164TIP3    H112498   1.618   5.325   2.809
 4164TIP3    H212499   1.647   5.286   2.952
 4165TIP3   OH212500   3.101   2.336   3.100
 4165TIP3    H112501   3.010   2.333   3.071
 4165TIP3    H212502   3.145   2.267   3.051
 4166TIP3   OH212503   4.923   2.487   1.630
 4166TIP3    H112504   4.995   2.426   1.614
 4166TIP3    H212505   4.938   2.558   1.567
 4167TIP3   OH212506   0.768   0.173   2.482
 4167TIP3    H112507   0.859   0.148   2.464
 4167TIP3    H212508   0.723   0.089   2.493
 4168TIP3   OH212509   2.457   0.184   0.051
 4168TIP3    H112510   2.381   0.170  -0.007
 4168TIP3    H212511   2.455   0.109   0.110
 4169TIP3   OH212512   1.366   4.030   2.976
 4169TIP3    H112513   1.414   4.110   3.000
 4169TIP3    H212514   1.279   4.043   3.013
 4170TIP3   OH212515   6.464   5.365   1.925
 4170TIP3    H112516   6.471   5.298   1.857
 4170TIP3    H212517   6.430   5.318   2.001
 4171TIP3   OH212518   2.881   4.366   0.383
 4171TIP3    H112519   2.829   4.401   0.455
 4171TIP3    H212520   2.969   4.399   0.399
 4172TIP3   OH212521   3.255   5.133   2.626
 4172TIP3    H112522   3.251   5.225   2.653
 4172TIP3    H212523   3.192   5.088   2.682
 4173TIP3   OH212524   1.506   4.787   1.984
 4173TIP3    H112525   1.551   4.703   1.982
 4173TIP3    H212526   1.545   4.834   2.058
 4174TIP3   OH212527   1.207   1.168   3.985
 4174TIP3    H112528   1.141   1.224   3.944
 4174TIP3    H212529   1.156   1.093   4.018
 4175TIP3   OH212530   3.622   4.457   2.190
 4175TIP3    H112531   3.617   4.363   2.204
 4175TIP3    H212532   3.540   4.491   2.226
 4176TIP3   OH212533   2.883   1.793   5.012
 4176TIP3    H112534   2.901   1.821   4.922
 4176TIP3    H212535   2.903   1.699   5.013
 4177TIP3   OH212536   5.956   4.465   4.818
 4177TIP3    H112537   6.020   4.402   4.851
 4177TIP3    H212538   5.898   4.414   4.763
 4178TIP3   OH212539   5.193   3.788   3.383
 4178TIP3    H112540   5.238   3.872   3.370
 4178TIP3    H212541   5.210   3.739   3.302
 4179TIP3   OH212542   3.221   3.299   3.444
 4179TIP3    H112543   3.239   3.227   3.384
 4179TIP3    H212544   3.132   3.284   3.474
 4180TIP3   OH212545   0.793   3.110   3.349
 4180TIP3    H112546   0.871   3.054   3.338
 4180TIP3    H212547   0.738   3.061   3.411
 4181TIP3   OH212548   2.158   5.220   3.393
 4181TIP3    H112549   2.154   5.191   3.302
 4181TIP3    H212550   2.119   5.149   3.443
 4182TIP3   OH212551   3.800   5.828   0.580
 4182TIP3    H112552   3.793   5.873   0.664
 4182TIP3    H212553   3.892   5.837   0.555
 4183TIP3   OH212554   6.086   0.593   3.451
 4183TIP3    H112555   6.025   0.659   3.419
 4183TIP3    H212556   6.087   0.605   3.546
 4184TIP3   OH212557   0.673   3.202   1.802
 4184TIP3    H112558   0.737   3.131   1.808
 4184TIP3    H212559   0.649   3.220   1.893
 4185TIP3   OH212560   5.223   1.707   3.180
 4185TIP3    H112561   5.241   1.682   3.270
 4185TIP3    H212562   5.146   1.656   3.155
 4186TIP3   OH212563   3.542   1.420   4.738
 4186TIP3    H112564   3.547   1.336   4.692
 4186TIP3    H212565   3.450   1.427   4.764
 4187TIP3   OH212566   5.919   0.755   3.698
 4187TIP3    H112567   5.944   0.845   3.677
 4187TIP3    H212568   5.843   0.738   3.643
 4188TIP3   OH212569   4.306   1.750   1.539
 4188TIP3    H112570   4.241   1.705   1.485
 4188TIP3    H212571   4.371   1.683   1.561
 4189TIP3   OH212572   3.470   4.810   2.069
 4189TIP3    H112573   3.419   4.729   2.063
 4189TIP3    H212574   3.490   4.819   2.162
 4190TIP3   OH212575   5.535   0.490   1.028
 4190TIP3    H112576   5.492   0.575   1.040
 4190TIP3    H212577   5.540   0.454   1.116
 4191TIP3   OH212578   6.214   0.179   0.747
 4191TIP3    H112579   6.205   0.173   0.842
 4191TIP3    H212580   6.213   0.088   0.717
 4192TIP3   OH212581   1.246   5.763   2.271
 4192TIP3    H112582   1.253   5.693   2.336
 4192TIP3    H212583   1.278   5.724   2.190
 4193TIP3   OH212584   3.063   5.716   1.381
 4193TIP3    H112585   3.059   5.621   1.384
 4193TIP3    H212586   3.092   5.742   1.468
 4194TIP3   OH212587   6.244   5.859   3.564
 4194TIP3    H112588   6.329   5.832   3.598
 4194TIP3    H212589   6.184   5.790   3.592
 4195TIP3   OH212590   0.971   1.807   2.564
 4195TIP3    H112591   0.894   1.861   2.548
 4195TIP3    H212592   0.993   1.771   2.478
 4196TIP3   OH212593   2.252   3.765   0.756
 4196TIP3    H112594   2.251   3.700   0.686
 4196TIP3    H212595   2.326   3.741   0.811
 4197TIP3   OH212596   5.062   4.084   2.324
 4197TIP3    H112597   4.999   4.153   2.303
 4197TIP3    H212598   5.091   4.105   2.413
 4198TIP3   OH212599   4.682   2.810   2.266
 4198TIP3    H112600   4.739   2.740   2.233
 4198TIP3    H212601   4.607   2.810   2.205
 4199TIP3   OH212602   6.140   3.084   4.782
 4199TIP3    H112603   6.197   3.054   4.712
 4199TIP3    H212604   6.088   3.007   4.807
 4200TIP3   OH212605   0.561   2.552   0.523
 4200TIP3    H112606   0.470   2.535   0.546
 4200TIP3    H212607   0.562   2.558   0.428
 4201TIP3   OH212608   1.252   5.164   0.465
 4201TIP3    H112609   1.270   5.225   0.536
 4201TIP3    H212610   1.250   5.219   0.386
 4202TIP3   OH212611   2.092   3.350   0.031
 4202TIP3    H112612   2.007   3.307   0.022
 4202TIP3    H212613   2.099   3.370   0.124
 4203TIP3   OH212614   3.588   4.849   2.317
 4203TIP3    H112615   3.566   4.909   2.387
 4203TIP3    H212616   3.660   4.796   2.352
 4204TIP3   OH212617   4.889   1.752   2.025
 4204TIP3    H112618   4.966   1.754   2.081
 4204TIP3    H212619   4.846   1.669   2.044
 4205TIP3   OH212620   1.592   0.703   4.421
 4205TIP3    H112621   1.607   0.796   4.406
 4205TIP3    H212622   1.503   0.688   4.388
 4206TIP3   OH212623   1.111   1.398   4.638
 4206TIP3    H112624   1.097   1.459   4.711
 4206TIP3    H212625   1.188   1.432   4.593
 4207TIP3   OH212626   2.488   2.059   5.062
 4207TIP3    H112627   2.517   2.077   5.151
 4207TIP3    H212628   2.517   1.969   5.045
 4208TIP3   OH212629   5.049   5.260   3.603
 4208TIP3    H112630   4.996   5.338   3.591
 4208TIP3    H212631   4.988   5.187   3.592
 4209TIP3   OH212632   0.858   2.287   2.663
 4209TIP3    H112633   0.837   2.195   2.646
 4209TIP3    H212634   0.805   2.336   2.600
 4210TIP3   OH212635   4.414   0.923   2.574
 4210TIP3    H112636   4.478   0.904   2.643
 4210TIP3    H212637   4.439   0.866   2.502
 4211TIP3   OH212638   4.043   3.468   4.080
 4211TIP3    H112639   3.967   3.519   4.053
 4211TIP3    H212640   4.025   3.444   4.171
 4212TIP3   OH212641   3.453   5.504   4.532
 4212TIP3    H112642   3.481   5.468   4.448
 4212TIP3    H212643   3.372   5.551   4.512
 4213TIP3   OH212644   0.789   3.429   1.008
 4213TIP3    H112645   0.817   3.497   1.069
 4213TIP3    H212646   0.864   3.371   1.001
 4214TIP3   OH212647   5.121   0.299   3.415
 4214TIP3    H112648   5.131   0.210   3.450
 4214TIP3    H212649   5.035   0.327   3.445
 4215TIP3   OH212650   1.007   5.637   1.769
 4215TIP3    H112651   1.000   5.627   1.674
 4215TIP3    H212652   0.958   5.563   1.805
 4216TIP3   OH212653   5.133   5.580   0.718
 4216TIP3    H112654   5.134   5.490   0.685
 4216TIP3    H212655   5.121   5.571   0.812
 4217TIP3   OH212656   0.945   5.676   2.867
 4217TIP3    H112657   1.004   5.667   2.792
 4217TIP3    H212658   0.905   5.763   2.855
 4218TIP3   OH212659   3.504   3.688   2.503
 4218TIP3    H112660   3.599   3.700   2.513
 4218TIP3    H212661   3.487   3.710   2.411
 4219TIP3   OH212662   5.813   5.421   4.523
 4219TIP3    H112663   5.801   5.516   4.525
 4219TIP3    H212664   5.740   5.389   4.470
 4220TIP3   OH212665   5.699   4.240   2.135
 4220TIP3    H112666   5.681   4.228   2.042
 4220TIP3    H212667   5.619   4.210   2.179
 4221TIP3   OH212668   5.363   2.503   1.211
 4221TIP3    H112669   5.318   2.553   1.280
 4221TIP3    H212670   5.348   2.411   1.234
 4222TIP3   OH212671   1.249   3.805   1.197
 4222TIP3    H112672   1.289   3.877   1.148
 4222TIP3    H212673   1.242   3.734   1.134
 4223TIP3   OH212674   2.564   0.685   2.611
 4223TIP3    H112675   2.481   0.697   2.565
 4223TIP3    H212676   2.561   0.594   2.642
 4224TIP3   OH212677   2.960   3.582   3.529
 4224TIP3    H112678   3.038   3.616   3.484
 4224TIP3    H212679   2.895   3.651   3.519
 4225TIP3   OH212680   5.318   2.964   0.510
 4225TIP3    H112681   5.303   2.872   0.531
 4225TIP3    H212682   5.329   3.007   0.595
 4226TIP3   OH212683   4.313   0.696   0.730
 4226TIP3    H112684   4.248   0.743   0.784
 4226TIP3    H212685   4.273   0.611   0.713
 4227TIP3   OH212686   4.404   5.072   2.234
 4227TIP3    H112687   4.385   4.978   2.225
 4227TIP3    H212688   4.364   5.111   2.156
 4228TIP3   OH212689   1.220   2.686   1.070
 4228TIP3    H112690   1.205   2.778   1.092
 4228TIP3    H212691   1.133   2.653   1.046
 4229TIP3   OH212692   4.640   1.451   1.710
 4229TIP3    H112693   4.577   1.437   1.639
 4229TIP3    H212694   4.723   1.417   1.677
 4230TIP3   OH212695   5.532   0.101   1.345
 4230TIP3    H112696   5.467   0.155   1.301
 4230TIP3    H212697   5.514   0.012   1.315
 4231TIP3   OH212698   4.413   0.170   3.532
 4231TIP3    H112699   4.432   0.077   3.543
 4231TIP3    H212700   4.318   0.174   3.526
 4232TIP3   OH212701   2.698   4.655   2.554
 4232TIP3    H112702   2.752   4.730   2.529
 4232TIP3    H212703   2.759   4.581   2.558
 4233TIP3   OH212704   5.381   1.701   4.148
 4233TIP3    H112705   5.402   1.697   4.241
 4233TIP3    H212706   5.455   1.746   4.108
 4234TIP3   OH212707   0.960   4.467   4.612
 4234TIP3    H112708   1.019   4.489   4.540
 4234TIP3    H212709   0.892   4.535   4.609
 4235TIP3   OH212710   0.301   1.030   3.453
 4235TIP3    H112711   0.258   1.017   3.369
 4235TIP3    H212712   0.341   0.946   3.473
 4236TIP3   OH212713   2.512   2.476   2.622
 4236TIP3    H112714   2.566   2.554   2.631
 4236TIP3    H212715   2.481   2.458   2.710
 4237TIP3   OH212716   2.977   1.159   3.934
 4237TIP3    H112717   2.995   1.251   3.913
 4237TIP3    H212718   2.902   1.136   3.879
 4238TIP3   OH212719   2.127   0.583   1.145
 4238TIP3    H112720   2.053   0.626   1.189
 4238TIP3    H212721   2.108   0.489   1.153
 4239TIP3   OH212722   1.352   5.627   3.407
 4239TIP3    H112723   1.353   5.683   3.484
 4239TIP3    H212724   1.261   5.597   3.401
 4240TIP3   OH212725   5.275   3.583   1.959
 4240TIP3    H112726   5.234   3.565   2.044
 4240TIP3    H212727   5.287   3.677   1.957
 4241TIP3   OH212728   0.386   4.569   1.352
 4241TIP3    H112729   0.314   4.579   1.415
 4241TIP3    H212730   0.446   4.507   1.394
 4242TIP3   OH212731   0.383   5.362   4.500
 4242TIP3    H112732   0.330   5.291   4.464
 4242TIP3    H212733   0.320   5.425   4.535
 4243TIP3   OH212734   0.029   4.457   3.463
 4243TIP3    H112735   0.031   4.534   3.405
 4243TIP3    H212736  -0.064   4.439   3.476
 4244TIP3   OH212737   0.782   1.525   2.201
 4244TIP3    H112738   0.707   1.505   2.144
 4244TIP3    H212739   0.849   1.463   2.175
 4245TIP3   OH212740   3.915   4.713   2.031
 4245TIP3    H112741   3.914   4.693   2.125
 4245TIP3    H212742   3.858   4.788   2.022
 4246TIP3   OH212743   0.320   2.972   4.643
 4246TIP3    H112744   0.278   3.042   4.693
 4246TIP3    H212745   0.409   3.005   4.627
 4247TIP3   OH212746   5.756   0.287   3.830
 4247TIP3    H112747   5.717   0.220   3.885
 4247TIP3    H212748   5.716   0.369   3.859
 4248TIP3   OH212749   2.971   5.657   2.702
 4248TIP3    H112750   2.980   5.570   2.741
 4248TIP3    H212751   3.023   5.653   2.622
 4249TIP3   OH212752   0.246   0.120   1.453
 4249TIP3    H112753   0.232   0.204   1.408
 4249TIP3    H212754   0.168   0.109   1.507
 4250TIP3   OH212755   0.414   1.310   3.443
 4250TIP3    H112756   0.494   1.274   3.406
 4250TIP3    H212757   0.358   1.233   3.457
 4251TIP3   OH212758   2.197   4.620   1.848
 4251TIP3    H112759   2.108   4.656   1.848
 4251TIP3    H212760   2.215   4.601   1.940
 4252TIP3   OH212761   1.522   0.543   2.449
 4252TIP3    H112762   1.531   0.499   2.364
 4252TIP3    H212763   1.434   0.581   2.447
 4253TIP3   OH212764   3.398   0.819   2.034
 4253TIP3    H112765   3.461   0.862   1.976
 4253TIP3    H212766   3.375   0.738   1.989
 4254TIP3   OH212767   3.681   4.395   3.091
 4254TIP3    H112768   3.671   4.319   3.149
 4254TIP3    H212769   3.751   4.447   3.131
 4255TIP3   OH212770   0.137   1.409   2.061
 4255TIP3    H112771   0.108   1.328   2.102
 4255TIP3    H212772   0.123   1.477   2.127
 4256TIP3   OH212773   3.236   4.542   0.355
 4256TIP3    H112774   3.327   4.540   0.325
 4256TIP3    H212775   3.221   4.455   0.393
 4257TIP3   OH212776   3.768   4.785   0.668
 4257TIP3    H112777   3.861   4.761   0.669
 4257TIP3    H212778   3.767   4.880   0.664
 4258TIP3   OH212779   6.190   3.643   3.228
 4258TIP3    H112780   6.217   3.732   3.251
 4258TIP3    H212781   6.271   3.599   3.201
 4259TIP3   OH212782   0.275   0.108   2.812
 4259TIP3    H112783   0.291   0.014   2.820
 4259TIP3    H212784   0.354   0.149   2.846
 4260TIP3   OH212785   1.621   4.345   0.806
 4260TIP3    H112786   1.596   4.433   0.778
 4260TIP3    H212787   1.702   4.357   0.856
 4261TIP3   OH212788   2.342   5.302   1.739
 4261TIP3    H112789   2.414   5.239   1.744
 4261TIP3    H212790   2.296   5.281   1.658
 4262TIP3   OH212791   6.085   1.417   4.243
 4262TIP3    H112792   6.180   1.408   4.237
 4262TIP3    H212793   6.058   1.448   4.157
 4263TIP3   OH212794   0.899   1.771   1.527
 4263TIP3    H112795   0.968   1.724   1.480
 4263TIP3    H212796   0.922   1.864   1.517
 4264TIP3   OH212797   4.816   1.259   1.310
 4264TIP3    H112798   4.829   1.234   1.402
 4264TIP3    H212799   4.721   1.254   1.297
 4265TIP3   OH212800   1.672   0.857   3.868
 4265TIP3    H112801   1.617   0.800   3.921
 4265TIP3    H212802   1.727   0.905   3.931
 4266TIP3   OH212803   2.876   2.292   4.365
 4266TIP3    H112804   2.787   2.283   4.401
 4266TIP3    H212805   2.933   2.288   4.441
 4267TIP3   OH212806   1.110   5.488   4.624
 4267TIP3    H112807   1.075   5.537   4.549
 4267TIP3    H212808   1.033   5.450   4.666
 4268TIP3   OH212809   0.140   3.848   0.694
 4268TIP3    H112810   0.071   3.792   0.659
 4268TIP3    H212811   0.163   3.809   0.778
 4269TIP3   OH212812   5.349   5.332   1.451
 4269TIP3    H112813   5.431   5.295   1.486
 4269TIP3    H212814   5.367   5.345   1.358
 4270TIP3   OH212815   3.789   3.364   3.674
 4270TIP3    H112816   3.699   3.360   3.641
 4270TIP3    H212817   3.779   3.359   3.769
 4271TIP3   OH212818   1.958   2.671   2.002
 4271TIP3    H112819   2.036   2.621   1.977
 4271TIP3    H212820   1.906   2.611   2.054
 4272TIP3   OH212821   2.461   1.898   2.990
 4272TIP3    H112822   2.389   1.939   2.943
 4272TIP3    H212823   2.460   1.807   2.960
 4273TIP3   OH212824   1.025   2.482   4.625
 4273TIP3    H112825   1.042   2.537   4.702
 4273TIP3    H212826   1.058   2.534   4.551
 4274TIP3   OH212827   5.044   4.698   1.527
 4274TIP3    H112828   5.056   4.607   1.499
 4274TIP3    H212829   5.084   4.701   1.613
 4275TIP3   OH212830   3.836   5.361   1.258
 4275TIP3    H112831   3.791   5.332   1.338
 4275TIP3    H212832   3.789   5.318   1.187
 4276TIP3   OH212833   3.618   4.637   3.893
 4276TIP3    H112834   3.601   4.552   3.853
 4276TIP3    H212835   3.571   4.634   3.976
 4277TIP3   OH212836   5.378   2.927   3.634
 4277TIP3    H112837   5.390   3.000   3.695
 4277TIP3    H212838   5.453   2.870   3.649
 4278TIP3   OH212839   3.654   1.695   3.520
 4278TIP3    H112840   3.707   1.619   3.496
 4278TIP3    H212841   3.575   1.658   3.559
 4279TIP3   OH212842   2.718   2.647   4.113
 4279TIP3    H112843   2.722   2.602   4.198
 4279TIP3    H212844   2.804   2.635   4.075
 4280TIP3   OH212845   5.427   1.593   4.912
 4280TIP3    H112846   5.491   1.549   4.857
 4280TIP3    H212847   5.395   1.666   4.858
 4281TIP3   OH212848   4.784   5.118   2.941
 4281TIP3    H112849   4.737   5.201   2.938
 4281TIP3    H212850   4.760   5.073   2.861
 4282TIP3   OH212851   0.857   2.498   4.950
 4282TIP3    H112852   0.875   2.435   5.020
 4282TIP3    H212853   0.804   2.450   4.887
 4283TIP3   OH212854   2.010   5.648   4.543
 4283TIP3    H112855   2.097   5.648   4.505
 4283TIP3    H212856   1.956   5.697   4.480
 4284TIP3   OH212857   3.600   3.930   1.978
 4284TIP3    H112858   3.642   3.847   1.998
 4284TIP3    H212859   3.552   3.914   1.897
 4285TIP3   OH212860   1.732   4.048   4.450
 4285TIP3    H112861   1.755   4.025   4.540
 4285TIP3    H212862   1.705   4.140   4.455
 4286TIP3   OH212863   6.224   1.911   2.936
 4286TIP3    H112864   6.260   1.844   2.994
 4286TIP3    H212865   6.281   1.987   2.950
 4287TIP3   OH212866   4.406   4.188   0.265
 4287TIP3    H112867   4.346   4.153   0.198
 4287TIP3    H212868   4.373   4.152   0.347
 4288TIP3   OH212869   4.497   3.886   4.729
 4288TIP3    H112870   4.524   3.804   4.687
 4288TIP3    H212871   4.577   3.939   4.732
 4289TIP3   OH212872   3.405   3.989   1.368
 4289TIP3    H112873   3.397   3.949   1.282
 4289TIP3    H212874   3.378   4.080   1.355
 4290TIP3   OH212875   4.381   5.626   2.891
 4290TIP3    H112876   4.385   5.561   2.961
 4290TIP3    H212877   4.287   5.642   2.879
 4291TIP3   OH212878   4.104   0.775   2.472
 4291TIP3    H112879   4.199   0.772   2.472
 4291TIP3    H212880   4.079   0.725   2.550
 4292TIP3   OH212881   5.539   3.937   3.862
 4292TIP3    H112882   5.515   3.999   3.931
 4292TIP3    H212883   5.456   3.913   3.821
 4293TIP3   OH212884   2.596   3.742   1.166
 4293TIP3    H112885   2.658   3.673   1.190
 4293TIP3    H212886   2.521   3.728   1.224
 4294TIP3   OH212887   1.799   4.465   1.326
 4294TIP3    H112888   1.741   4.396   1.359
 4294TIP3    H212889   1.745   4.543   1.324
 4295TIP3   OH212890   1.510   3.529   0.816
 4295TIP3    H112891   1.445   3.534   0.746
 4295TIP3    H212892   1.510   3.617   0.855
 4296TIP3   OH212893   0.950   1.510   3.164
 4296TIP3    H112894   0.990   1.582   3.116
 4296TIP3    H212895   0.877   1.482   3.110
 4297TIP3   OH212896   2.927   5.385   3.102
 4297TIP3    H112897   2.917   5.306   3.049
 4297TIP3    H212898   2.959   5.353   3.187
 4298TIP3   OH212899   5.809   5.497   2.778
 4298TIP3    H112900   5.853   5.569   2.822
 4298TIP3    H212901   5.870   5.423   2.784
 4299TIP3   OH212902   1.123   1.865   4.710
 4299TIP3    H112903   1.059   1.880   4.641
 4299TIP3    H212904   1.207   1.864   4.665
 4300TIP3   OH212905   2.399   2.847   3.482
 4300TIP3    H112906   2.384   2.805   3.566
 4300TIP3    H212907   2.476   2.803   3.446
 4301TIP3   OH212908   2.187   2.555   4.749
 4301TIP3    H112909   2.148   2.477   4.787
 4301TIP3    H212910   2.278   2.552   4.777
 4302TIP3   OH212911   1.932   2.669   3.700
 4302TIP3    H112912   1.891   2.736   3.754
 4302TIP3    H212913   1.859   2.628   3.654
 4303TIP3   OH212914   4.436   4.790   1.136
 4303TIP3    H112915   4.394   4.803   1.051
 4303TIP3    H212916   4.527   4.773   1.115
 4304TIP3   OH212917   1.850   1.588   1.280
 4304TIP3    H112918   1.781   1.566   1.217
 4304TIP3    H212919   1.825   1.540   1.360
 4305TIP3   OH212920   2.118   0.890   3.520
 4305TIP3    H112921   2.163   0.958   3.569
 4305TIP3    H212922   2.031   0.886   3.559
 4306TIP3   OH212923   0.418   5.983   4.437
 4306TIP3    H112924   0.351   5.982   4.369
 4306TIP3    H212925   0.485   5.924   4.406
 4307TIP3   OH212926   4.067   1.782   1.201
 4307TIP3    H112927   4.019   1.809   1.123
 4307TIP3    H212928   3.999   1.766   1.267
 4308TIP3   OH212929   6.026   5.719   1.179
 4308TIP3    H112930   6.048   5.648   1.118
 4308TIP3    H212931   6.106   5.731   1.231
 4309TIP3   OH212932   1.784   0.504   1.866
 4309TIP3    H112933   1.778   0.582   1.921
 4309TIP3    H212934   1.698   0.464   1.872
 4310TIP3   OH212935   2.338   3.952   0.564
 4310TIP3    H112936   2.380   3.897   0.497
 4310TIP3    H212937   2.280   3.892   0.611
 4311TIP3   OH212938   6.049   0.778   1.312
 4311TIP3    H112939   5.968   0.758   1.360
 4311TIP3    H212940   6.037   0.868   1.281
 4312TIP3   OH212941   2.106   2.036   4.828
 4312TIP3    H112942   2.033   1.981   4.856
 4312TIP3    H212943   2.151   2.059   4.909
 4313TIP3   OH212944   3.100   4.766   3.816
 4313TIP3    H112945   3.175   4.725   3.771
 4313TIP3    H212946   3.053   4.692   3.854
 4314TIP3   OH212947   5.811   3.090   3.954
 4314TIP3    H112948   5.874   3.152   3.917
 4314TIP3    H212949   5.738   3.091   3.892
 4315TIP3   OH212950   2.023   2.781   5.054
 4315TIP3    H112951   2.026   2.864   5.101
 4315TIP3    H212952   2.097   2.731   5.089
 4316TIP3   OH212953   5.158   3.236   4.724
 4316TIP3    H112954   5.242   3.190   4.712
 4316TIP3    H212955   5.110   3.219   4.643
 4317TIP3   OH212956   1.547   2.661   4.739
 4317TIP3    H112957   1.462   2.686   4.701
 4317TIP3    H212958   1.574   2.738   4.789
 4318TIP3   OH212959   1.426   1.774   3.974
 4318TIP3    H112960   1.367   1.737   4.039
 4318TIP3    H212961   1.494   1.818   4.026
 4319TIP3   OH212962   0.301   2.494   3.490
 4319TIP3    H112963   0.363   2.434   3.531
 4319TIP3    H212964   0.350   2.535   3.419
 4320TIP3   OH212965   0.773   4.167   0.539
 4320TIP3    H112966   0.806   4.213   0.616
 4320TIP3    H212967   0.708   4.226   0.502
 4321TIP3   OH212968   4.890   3.944   5.174
 4321TIP3    H112969   4.848   3.860   5.159
 4321TIP3    H212970   4.913   3.976   5.087
 4322TIP3   OH212971   4.101   3.301   2.458
 4322TIP3    H112972   4.101   3.365   2.386
 4322TIP3    H212973   4.072   3.351   2.534
 4323TIP3   OH212974   3.406   0.246   3.714
 4323TIP3    H112975   3.379   0.191   3.788
 4323TIP3    H212976   3.343   0.227   3.645
 4324TIP3   OH212977   4.227   5.996   0.025
 4324TIP3    H112978   4.223   5.931   0.095
 4324TIP3    H212979   4.320   6.013   0.013
 4325TIP3   OH212980   4.345   1.937   2.343
 4325TIP3    H112981   4.412   1.914   2.278
 4325TIP3    H212982   4.395   1.966   2.419
 4326TIP3   OH212983   4.273   1.633   5.218
 4326TIP3    H112984   4.359   1.591   5.223
 4326TIP3    H212985   4.221   1.574   5.162
 4327TIP3   OH212986   4.745   2.308   4.954
 4327TIP3    H112987   4.715   2.383   5.005
 4327TIP3    H212988   4.756   2.341   4.865
 4328TIP3   OH212989   3.015   3.868   0.128
 4328TIP3    H112990   3.083   3.866   0.061
 4328TIP3    H212991   2.934   3.853   0.081
 4329TIP3   OH212992   5.305   0.068   2.139
 4329TIP3    H112993   5.361   0.131   2.093
 4329TIP3    H212994   5.225   0.065   2.087
 4330TIP3   OH212995   4.843   4.714   3.705
 4330TIP3    H112996   4.926   4.674   3.677
 4330TIP3    H212997   4.799   4.736   3.623
 4331TIP3   OH212998   2.094   0.604   0.852
 4331TIP3    H112999   2.042   0.573   0.927
 4331TIP3    H213000   2.069   0.546   0.781
 4332TIP3   OH213001   0.071   5.549   2.175
 4332TIP3    H113002   0.003   5.492   2.210
 4332TIP3    H213003   0.105   5.502   2.099
 4333TIP3   OH213004   4.118   5.364   0.900
 4333TIP3    H113005   4.035   5.394   0.937
 4333TIP3    H213006   4.143   5.432   0.839
 4334TIP3   OH213007   5.520   0.305   4.292
 4334TIP3    H113008   5.610   0.283   4.315
 4334TIP3    H213009   5.523   0.397   4.269
 4335TIP3   OH213010   1.162   4.654   4.061
 4335TIP3    H113011   1.098   4.708   4.013
 4335TIP3    H213012   1.118   4.632   4.143
 4336TIP3   OH213013   1.847   3.065   2.958
 4336TIP3    H113014   1.776   3.026   2.908
 4336TIP3    H213015   1.923   3.061   2.900
 4337TIP3   OH213016   1.378   3.158   1.766
 4337TIP3    H113017   1.310   3.115   1.714
 4337TIP3    H213018   1.436   3.087   1.792
 4338TIP3   OH213019   5.470   3.679   4.085
 4338TIP3    H113020   5.431   3.593   4.072
 4338TIP3    H213021   5.562   3.661   4.105
 4339TIP3   OH213022   4.418   0.988   1.473
 4339TIP3    H113023   4.389   0.976   1.382
 4339TIP3    H213024   4.352   0.941   1.525
 4340TIP3   OH213025   2.762   1.704   1.458
 4340TIP3    H113026   2.730   1.667   1.376
 4340TIP3    H213027   2.804   1.787   1.432
 4341TIP3   OH213028   2.940   4.208   3.819
 4341TIP3    H113029   2.870   4.149   3.794
 4341TIP3    H213030   3.010   4.190   3.756
 4342TIP3   OH213031   0.850   3.540   3.879
 4342TIP3    H113032   0.813   3.507   3.961
 4342TIP3    H213033   0.784   3.518   3.813
 4343TIP3   OH213034   6.253   2.340   1.989
 4343TIP3    H113035   6.192   2.266   1.991
 4343TIP3    H213036   6.207   2.408   1.939
 4344TIP3   OH213037   1.227   5.422   1.403
 4344TIP3    H113038   1.258   5.332   1.389
 4344TIP3    H213039   1.255   5.444   1.491
 4345TIP3   OH213040   0.368   4.283   3.107
 4345TIP3    H113041   0.388   4.368   3.070
 4345TIP3    H213042   0.432   4.224   3.068
 4346TIP3   OH213043   2.913   3.821   4.873
 4346TIP3    H113044   2.857   3.748   4.899
 4346TIP3    H213045   2.858   3.899   4.885
 4347TIP3   OH213046   6.229   5.637   3.939
 4347TIP3    H113047   6.267   5.580   4.006
 4347TIP3    H213048   6.203   5.716   3.986
 4348TIP3   OH213049   5.936   0.974   1.890
 4348TIP3    H113050   5.937   1.039   1.961
 4348TIP3    H213051   5.971   0.895   1.931
 4349TIP3   OH213052   5.297   5.390   2.298
 4349TIP3    H113053   5.214   5.426   2.328
 4349TIP3    H213054   5.357   5.465   2.296
 4350TIP3   OH213055   1.692   2.082   3.777
 4350TIP3    H113056   1.757   2.127   3.723
 4350TIP3    H213057   1.675   2.000   3.731
 4351TIP3   OH213058   2.179   5.567   4.747
 4351TIP3    H113059   2.093   5.571   4.704
 4351TIP3    H213060   2.210   5.658   4.746
 4352TIP3   OH213061   2.542   0.938   1.624
 4352TIP3    H113062   2.532   0.999   1.551
 4352TIP3    H213063   2.544   0.994   1.702
 4353TIP3   OH213064   1.222   3.533   3.376
 4353TIP3    H113065   1.177   3.533   3.461
 4353TIP3    H213066   1.304   3.579   3.392
 4354TIP3   OH213067   2.757   2.231   0.294
 4354TIP3    H113068   2.793   2.300   0.350
 4354TIP3    H213069   2.780   2.149   0.339
 4355TIP3   OH213070   4.238   5.073   4.921
 4355TIP3    H113071   4.296   5.138   4.961
 4355TIP3    H213072   4.179   5.047   4.992
 4356TIP3   OH213073   1.515   5.624   3.812
 4356TIP3    H113074   1.601   5.631   3.771
 4356TIP3    H213075   1.483   5.714   3.818
 4357TIP3   OH213076   1.842   0.246   4.192
 4357TIP3    H113077   1.819   0.291   4.273
 4357TIP3    H213078   1.759   0.212   4.159
 4358TIP3   OH213079   0.420   0.804   0.493
 4358TIP3    H113080   0.417   0.857   0.414
 4358TIP3    H213081   0.342   0.749   0.489
 4359TIP3   OH213082   1.602   1.072   3.449
 4359TIP3    H113083   1.683   1.037   3.412
 4359TIP3    H213084   1.604   1.165   3.425
 4360TIP3   OH213085   0.034   1.395   1.679
 4360TIP3    H113086  -0.028   1.346   1.625
 4360TIP3    H213087  -0.019   1.433   1.749
 4361TIP3   OH213088   2.239   3.747   1.956
 4361TIP3    H113089   2.199   3.714   2.036
 4361TIP3    H213090   2.297   3.818   1.985
 4362TIP3   OH213091   5.001   4.796   4.956
 4362TIP3    H113092   4.935   4.798   4.886
 4362TIP3    H213093   5.001   4.886   4.990
 4363TIP3   OH213094   1.812   0.686   4.591
 4363TIP3    H113095   1.729   0.719   4.559
 4363TIP3    H213096   1.877   0.748   4.558
 4364TIP3   OH213097   4.854   4.280   0.264
 4364TIP3    H113098   4.790   4.340   0.226
 4364TIP3    H213099   4.902   4.333   0.328
 4365TIP3   OH213100   1.571   4.404   1.770
 4365TIP3    H113101   1.538   4.456   1.696
 4365TIP3    H213102   1.524   4.321   1.763
 4366TIP3   OH213103   4.719   3.898   3.120
 4366TIP3    H113104   4.772   3.936   3.190
 4366TIP3    H213105   4.736   3.954   3.044
 4367TIP3   OH213106   0.475   2.159   0.133
 4367TIP3    H113107   0.459   2.167   0.039
 4367TIP3    H213108   0.525   2.078   0.142
 4368TIP3   OH213109   2.313   3.833   2.972
 4368TIP3    H113110   2.218   3.817   2.972
 4368TIP3    H213111   2.351   3.748   2.948
 4369TIP3   OH213112   5.633   4.403   0.760
 4369TIP3    H113113   5.559   4.444   0.715
 4369TIP3    H213114   5.592   4.345   0.824
 4370TIP3   OH213115   5.326   5.617   2.980
 4370TIP3    H113116   5.304   5.710   2.988
 4370TIP3    H213117   5.401   5.615   2.921
 4371TIP3   OH213118   1.200   1.525   2.858
 4371TIP3    H113119   1.233   1.549   2.772
 4371TIP3    H213120   1.161   1.606   2.893
 4372TIP3   OH213121   5.790   1.355   2.239
 4372TIP3    H113122   5.742   1.436   2.219
 4372TIP3    H213123   5.849   1.379   2.310
 4373TIP3   OH213124   4.404   2.113   3.894
 4373TIP3    H113125   4.400   2.111   3.798
 4373TIP3    H213126   4.472   2.178   3.913
 4374TIP3   OH213127   2.278   0.916   2.635
 4374TIP3    H113128   2.366   0.908   2.672
 4374TIP3    H213129   2.268   1.010   2.620
 4375TIP3   OH213130   0.185   4.511   5.110
 4375TIP3    H113131   0.251   4.465   5.161
 4375TIP3    H213132   0.173   4.595   5.156
 4376TIP3   OH213133   3.191   4.588   3.487
 4376TIP3    H113134   3.159   4.674   3.460
 4376TIP3    H213135   3.253   4.606   3.558
 4377TIP3   OH213136   3.528   2.020   0.046
 4377TIP3    H113137   3.521   2.100   0.098
 4377TIP3    H213138   3.581   2.045  -0.030
 4378TIP3   OH213139   1.053   4.451   0.277
 4378TIP3    H113140   1.109   4.393   0.330
 4378TIP3    H213141   1.060   4.416   0.188
 4379TIP3   OH213142   2.642   2.505   3.798
 4379TIP3    H113143   2.713   2.444   3.819
 4379TIP3    H213144   2.583   2.500   3.873
 4380TIP3   OH213145   3.049   0.787   0.671
 4380TIP3    H113146   3.022   0.826   0.588
 4380TIP3    H213147   2.967   0.773   0.719
 4381TIP3   OH213148   0.693   0.045   3.166
 4381TIP3    H113149   0.716  -0.002   3.086
 4381TIP3    H213150   0.760   0.113   3.175
 4382TIP3   OH213151   6.016   5.766   2.235
 4382TIP3    H113152   6.073   5.798   2.305
 4382TIP3    H213153   6.035   5.823   2.160
 4383TIP3   OH213154   2.375   2.476   0.573
 4383TIP3    H113155   2.339   2.429   0.649
 4383TIP3    H213156   2.309   2.464   0.504
 4384TIP3   OH213157   2.274   0.521   2.994
 4384TIP3    H113158   2.244   0.462   2.925
 4384TIP3    H213159   2.367   0.500   3.005
 4385TIP3   OH213160   0.312   2.874   3.955
 4385TIP3    H113161   0.223   2.841   3.968
 4385TIP3    H213162   0.355   2.808   3.900
 4386TIP3   OH213163   0.732   2.496   4.519
 4386TIP3    H113164   0.818   2.536   4.532
 4386TIP3    H213165   0.751   2.412   4.478
 4387TIP3   OH213166   0.935   1.664   5.184
 4387TIP3    H113167   0.954   1.591   5.243
 4387TIP3    H213168   0.941   1.742   5.240
 4388TIP3   OH213169   5.169   5.161   3.161
 4388TIP3    H113170   5.175   5.252   3.191
 4388TIP3    H213171   5.150   5.169   3.067
 4389TIP3   OH213172   3.856   3.550   1.248
 4389TIP3    H113173   3.877   3.603   1.171
 4389TIP3    H213174   3.794   3.485   1.215
 4390TIP3   OH213175   2.323   1.781   0.121
 4390TIP3    H113176   2.288   1.748   0.038
 4390TIP3    H213177   2.383   1.851   0.097
 4391TIP3   OH213178   0.869   1.315   3.367
 4391TIP3    H113179   0.781   1.279   3.353
 4391TIP3    H213180   0.927   1.240   3.362
 4392TIP3   OH213181   6.184   5.194   3.058
 4392TIP3    H113182   6.264   5.190   3.006
 4392TIP3    H213183   6.135   5.115   3.034
 4393TIP3   OH213184   0.591   2.846   2.019
 4393TIP3    H113185   0.522   2.815   2.076
 4393TIP3    H213186   0.547   2.867   1.936
 4394TIP3   OH213187   2.231   4.170   1.868
 4394TIP3    H113188   2.249   4.233   1.798
 4394TIP3    H213189   2.137   4.153   1.862
 4395TIP3   OH213190   5.837   0.855   4.621
 4395TIP3    H113191   5.742   0.853   4.621
 4395TIP3    H213192   5.863   0.791   4.555
 4396TIP3   OH213193   0.434   2.797   1.132
 4396TIP3    H113194   0.403   2.876   1.087
 4396TIP3    H213195   0.430   2.820   1.225
 4397TIP3   OH213196   1.605   2.335   1.805
 4397TIP3    H113197   1.648   2.420   1.796
 4397TIP3    H213198   1.521   2.346   1.760
 4398TIP3   OH213199   6.101   4.919   3.297
 4398TIP3    H113200   6.188   4.918   3.257
 4398TIP3    H213201   6.112   4.968   3.378
 4399TIP3   OH213202   0.744   3.524   4.933
 4399TIP3    H113203   0.653   3.507   4.959
 4399TIP3    H213204   0.746   3.503   4.839
 4400TIP3   OH213205   4.622   0.799   3.576
 4400TIP3    H113206   4.714   0.787   3.553
 4400TIP3    H213207   4.623   0.841   3.661
 4401TIP3   OH213208   3.480   2.835   3.828
 4401TIP3    H113209   3.546   2.895   3.863
 4401TIP3    H213210   3.520   2.801   3.748
 4402TIP3   OH213211   2.491   2.739   4.649
 4402TIP3    H113212   2.420   2.797   4.676
 4402TIP3    H213213   2.500   2.677   4.722
 4403TIP3   OH213214   5.583   2.598   4.571
 4403TIP3    H113215   5.676   2.616   4.587
 4403TIP3    H213216   5.582   2.515   4.525
 4404TIP3   OH213217   2.167   4.852   1.682
 4404TIP3    H113218   2.086   4.840   1.732
 4404TIP3    H213219   2.209   4.766   1.686
 4405TIP3   OH213220   2.694   5.482   1.759
 4405TIP3    H113221   2.693   5.397   1.716
 4405TIP3    H213222   2.677   5.462   1.851
 4406TIP3   OH213223   1.812   1.424   2.843
 4406TIP3    H113224   1.735   1.476   2.822
 4406TIP3    H213225   1.781   1.333   2.843
 4407TIP3   OH213226   4.888   4.291   2.404
 4407TIP3    H113227   4.959   4.353   2.423
 4407TIP3    H213228   4.810   4.346   2.393
 4408TIP3   OH213229   6.093   1.341   3.025
 4408TIP3    H113230   6.129   1.253   3.030
 4408TIP3    H213231   6.001   1.331   3.050
 4409TIP3   OH213232   3.800   5.194   1.539
 4409TIP3    H113233   3.894   5.194   1.553
 4409TIP3    H213234   3.763   5.185   1.627
 4410TIP3   OH213235   2.819   2.604   2.339
 4410TIP3    H113236   2.773   2.537   2.290
 4410TIP3    H213237   2.776   2.605   2.425
 4411TIP3   OH213238   2.005   3.344   5.017
 4411TIP3    H113239   1.954   3.334   4.936
 4411TIP3    H213240   1.940   3.365   5.083
 4412TIP3   OH213241   0.833   1.705   3.735
 4412TIP3    H113242   0.905   1.699   3.797
 4412TIP3    H213243   0.792   1.619   3.737
 4413TIP3   OH213244   3.247   0.815   3.570
 4413TIP3    H113245   3.192   0.893   3.580
 4413TIP3    H213246   3.272   0.792   3.660
 4414TIP3   OH213247   0.462   2.190   4.658
 4414TIP3    H113248   0.391   2.232   4.705
 4414TIP3    H213249   0.442   2.097   4.662
 4415TIP3   OH213250   5.953   1.725   1.914
 4415TIP3    H113251   5.923   1.769   1.993
 4415TIP3    H213252   5.873   1.710   1.863
 4416TIP3   OH213253   4.298   4.485   0.126
 4416TIP3    H113254   4.333   4.405   0.166
 4416TIP3    H213255   4.240   4.454   0.056
 4417TIP3   OH213256   5.842   3.427   3.880
 4417TIP3    H113257   5.806   3.397   3.963
 4417TIP3    H213258   5.900   3.500   3.905
 4418TIP3   OH213259   5.575   5.876   2.589
 4418TIP3    H113260   5.514   5.914   2.525
 4418TIP3    H213261   5.653   5.856   2.538
 4419TIP3   OH213262   3.291   0.047   3.861
 4419TIP3    H113263   3.257   0.089   3.940
 4419TIP3    H213264   3.217  -0.003   3.826
 4420TIP3   OH213265   1.118   0.168   0.974
 4420TIP3    H113266   1.188   0.179   1.039
 4420TIP3    H213267   1.052   0.232   1.000
 4421TIP3   OH213268   3.612   4.029   0.367
 4421TIP3    H113269   3.536   3.973   0.380
 4421TIP3    H213270   3.575   4.117   0.359
 4422TIP3   OH213271   4.130   2.177   2.757
 4422TIP3    H113272   4.123   2.101   2.816
 4422TIP3    H213273   4.041   2.211   2.752
 4423TIP3   OH213274   1.090   2.360   2.431
 4423TIP3    H113275   1.091   2.431   2.367
 4423TIP3    H213276   1.003   2.365   2.471
 4424TIP3   OH213277   5.406   5.789   1.811
 4424TIP3    H113278   5.389   5.879   1.783
 4424TIP3    H213279   5.331   5.765   1.865
 4425TIP3   OH213280   5.130   2.182   0.446
 4425TIP3    H113281   5.143   2.165   0.539
 4425TIP3    H213282   5.219   2.192   0.411
 4426TIP3   OH213283   3.649   4.781   0.287
 4426TIP3    H113284   3.700   4.840   0.341
 4426TIP3    H213285   3.698   4.774   0.205
 4427TIP3   OH213286   0.194   1.756   4.356
 4427TIP3    H113287   0.131   1.829   4.353
 4427TIP3    H213288   0.277   1.797   4.380
 4428TIP3   OH213289   4.818   1.176   2.831
 4428TIP3    H113290   4.890   1.220   2.875
 4428TIP3    H213291   4.785   1.240   2.768
 4429TIP3   OH213292   3.501   2.481   4.042
 4429TIP3    H113293   3.519   2.459   4.133
 4429TIP3    H213294   3.552   2.560   4.025
 4430TIP3   OH213295   0.641   4.856   4.526
 4430TIP3    H113296   0.551   4.830   4.510
 4430TIP3    H213297   0.634   4.935   4.579
 4431TIP3   OH213298   4.565   1.989   1.115
 4431TIP3    H113299   4.566   1.893   1.114
 4431TIP3    H213300   4.473   2.011   1.129
 4432TIP3   OH213301   1.797   1.218   3.950
 4432TIP3    H113302   1.859   1.148   3.929
 4432TIP3    H213303   1.807   1.281   3.879
 4433TIP3   OH213304   3.350   4.453   1.690
 4433TIP3    H113305   3.273   4.447   1.635
 4433TIP3    H213306   3.373   4.546   1.689
 4434TIP3   OH213307   3.675   5.164   0.557
 4434TIP3    H113308   3.608   5.184   0.491
 4434TIP3    H213309   3.628   5.163   0.640
 4435TIP3   OH213310   1.587   2.899   3.050
 4435TIP3    H113311   1.535   2.978   3.067
 4435TIP3    H213312   1.526   2.826   3.064
 4436TIP3   OH213313   1.674   0.099   3.087
 4436TIP3    H113314   1.646   0.160   3.156
 4436TIP3    H213315   1.742   0.046   3.127
 4437TIP3   OH213316   4.425   3.713   2.855
 4437TIP3    H113317   4.441   3.672   2.770
 4437TIP3    H213318   4.504   3.694   2.906
 4438TIP3   OH213319   4.503   1.136   3.820
 4438TIP3    H113320   4.516   1.200   3.750
 4438TIP3    H213321   4.493   1.188   3.899
 4439TIP3   OH213322   6.198   4.504   2.671
 4439TIP3    H113323   6.169   4.585   2.630
 4439TIP3    H213324   6.289   4.493   2.642
 4440TIP3   OH213325   6.005   4.332   1.868
 4440TIP3    H113326   6.019   4.254   1.814
 4440TIP3    H213327   5.911   4.335   1.882
 4441TIP3   OH213328   1.247   4.080   4.992
 4441TIP3    H113329   1.169   4.026   4.980
 4441TIP3    H213330   1.295   4.039   5.064
 4442TIP3   OH213331   0.730   4.605   1.962
 4442TIP3    H113332   0.735   4.515   1.993
 4442TIP3    H213333   0.641   4.612   1.926
 4443TIP3   OH213334   5.810   1.377   1.725
 4443TIP3    H113335   5.783   1.357   1.635
 4443TIP3    H213336   5.735   1.423   1.763
 4444TIP3   OH213337   0.328   2.477   0.681
 4444TIP3    H113338   0.416   2.440   0.674
 4444TIP3    H213339   0.322   2.505   0.773
 4445TIP3   OH213340   3.281   0.429   1.454
 4445TIP3    H113341   3.291   0.521   1.480
 4445TIP3    H213342   3.291   0.380   1.536
 4446TIP3   OH213343   1.320   0.443   2.914
 4446TIP3    H113344   1.354   0.388   2.843
 4446TIP3    H213345   1.397   0.487   2.948
 4447TIP3   OH213346   4.684   4.105   2.308
 4447TIP3    H113347   4.756   4.158   2.343
 4447TIP3    H213348   4.716   4.072   2.225
 4448TIP3   OH213349   0.722   0.627   0.097
 4448TIP3    H113350   0.629   0.611   0.112
 4448TIP3    H213351   0.745   0.572   0.022
 4449TIP3   OH213352   6.206   4.072   3.838
 4449TIP3    H113353   6.269   4.003   3.858
 4449TIP3    H213354   6.260   4.149   3.820
 4450TIP3   OH213355   3.436   3.496   2.021
 4450TIP3    H113356   3.467   3.469   1.934
 4450TIP3    H213357   3.514   3.530   2.065
 4451TIP3   OH213358   4.704   0.227   3.868
 4451TIP3    H113359   4.771   0.288   3.837
 4451TIP3    H213360   4.638   0.226   3.798
 4452TIP3   OH213361   1.123   6.023   1.577
 4452TIP3    H113362   1.115   6.049   1.486
 4452TIP3    H213363   1.159   5.934   1.573
 4453TIP3   OH213364   4.685   4.801   2.219
 4453TIP3    H113365   4.662   4.786   2.311
 4453TIP3    H213366   4.688   4.896   2.210
 4454TIP3   OH213367   5.786   5.687   4.630
 4454TIP3    H113368   5.865   5.659   4.676
 4454TIP3    H213369   5.782   5.781   4.644
 4455TIP3   OH213370   5.734   0.244   5.054
 4455TIP3    H113371   5.744   0.319   4.995
 4455TIP3    H213372   5.693   0.279   5.132
 4456TIP3   OH213373   1.051   1.909   0.619
 4456TIP3    H113374   1.142   1.890   0.595
 4456TIP3    H213375   1.035   1.998   0.587
 4457TIP3   OH213376   0.490   4.686   0.356
 4457TIP3    H113377   0.542   4.644   0.424
 4457TIP3    H213378   0.512   4.779   0.362
 4458TIP3   OH213379   1.344   1.017   0.187
 4458TIP3    H113380   1.390   0.955   0.130
 4458TIP3    H213381   1.334   0.970   0.270
 4459TIP3   OH213382   2.719   1.818   2.392
 4459TIP3    H113383   2.644   1.871   2.365
 4459TIP3    H213384   2.683   1.730   2.404
 4460TIP3   OH213385   6.317   2.187   1.022
 4460TIP3    H113386   6.394   2.130   1.020
 4460TIP3    H213387   6.266   2.156   1.097
 4461TIP3   OH213388   5.568   4.063   3.530
 4461TIP3    H113389   5.483   4.081   3.571
 4461TIP3    H213390   5.624   4.035   3.602
 4462TIP3   OH213391   1.163   4.247   0.758
 4462TIP3    H113392   1.178   4.330   0.714
 4462TIP3    H213393   1.096   4.266   0.823
 4463TIP3   OH213394   0.263   4.072   2.435
 4463TIP3    H113395   0.173   4.070   2.466
 4463TIP3    H213396   0.259   4.119   2.351
 4464TIP3   OH213397   5.039   3.819   3.633
 4464TIP3    H113398   5.109   3.787   3.577
 4464TIP3    H213399   4.961   3.772   3.605
 4465TIP3   OH213400   4.998   1.220   0.156
 4465TIP3    H113401   4.908   1.240   0.128
 4465TIP3    H213402   5.007   1.266   0.240
 4466TIP3   OH213403   2.853   4.409   0.900
 4466TIP3    H113404   2.815   4.323   0.879
 4466TIP3    H213405   2.778   4.464   0.919
 4467TIP3   OH213406   0.898   0.824   0.194
 4467TIP3    H113407   0.834   0.754   0.177
 4467TIP3    H213408   0.844   0.900   0.219
 4468TIP3   OH213409   1.317   5.784   4.565
 4468TIP3    H113410   1.362   5.702   4.544
 4468TIP3    H213411   1.266   5.765   4.643
 4469TIP3   OH213412   5.193   0.376   2.759
 4469TIP3    H113413   5.240   0.452   2.726
 4469TIP3    H213414   5.213   0.306   2.697
 4470TIP3   OH213415   1.972   4.830   4.944
 4470TIP3    H113416   2.040   4.897   4.956
 4470TIP3    H213417   1.958   4.828   4.850
 4471TIP3   OH213418   3.342   0.025   2.449
 4471TIP3    H113419   3.339  -0.069   2.469
 4471TIP3    H213420   3.275   0.063   2.506
 4472TIP3   OH213421   5.088   4.576   0.881
 4472TIP3    H113422   5.012   4.630   0.859
 4472TIP3    H213423   5.088   4.506   0.816
 4473TIP3   OH213424   5.239   4.239   3.306
 4473TIP3    H113425   5.303   4.294   3.351
 4473TIP3    H213426   5.206   4.293   3.234
 4474TIP3   OH213427   4.189   0.186   0.685
 4474TIP3    H113428   4.242   0.117   0.645
 4474TIP3    H213429   4.117   0.200   0.623
 4475TIP3   OH213430   3.460   1.049   4.269
 4475TIP3    H113431   3.422   0.973   4.313
 4475TIP3    H213432   3.392   1.080   4.210
 4476TIP3   OH213433   5.923   5.184   4.619
 4476TIP3    H113434   6.008   5.145   4.598
 4476TIP3    H213435   5.909   5.248   4.549
 4477TIP3   OH213436   1.879   1.011   0.752
 4477TIP3    H113437   1.899   0.999   0.845
 4477TIP3    H213438   1.790   0.976   0.742
 4478TIP3   OH213439   4.549   3.794   4.377
 4478TIP3    H113440   4.524   3.827   4.290
 4478TIP3    H213441   4.465   3.785   4.423
 4479TIP3   OH213442   3.623   3.722   2.795
 4479TIP3    H113443   3.569   3.644   2.785
 4479TIP3    H213444   3.674   3.705   2.875
 4480TIP3   OH213445   2.131   2.648   1.423
 4480TIP3    H113446   2.127   2.737   1.458
 4480TIP3    H213447   2.040   2.627   1.402
 4481TIP3   OH213448   0.412   4.123   1.950
 4481TIP3    H113449   0.382   4.079   2.031
 4481TIP3    H213450   0.508   4.116   1.954
 4482TIP3   OH213451   5.719   5.277   5.117
 4482TIP3    H113452   5.652   5.341   5.142
 4482TIP3    H213453   5.738   5.297   5.025
 4483TIP3   OH213454   6.075   2.289   2.381
 4483TIP3    H113455   6.025   2.247   2.311
 4483TIP3    H213456   6.009   2.312   2.447
 4484TIP3   OH213457   3.724   2.684   2.389
 4484TIP3    H113458   3.690   2.645   2.308
 4484TIP3    H213459   3.798   2.628   2.413
 4485TIP3   OH213460   0.372   2.326   1.054
 4485TIP3    H113461   0.337   2.413   1.031
 4485TIP3    H213462   0.438   2.309   0.987
 4486TIP3   OH213463   3.405   0.732   0.467
 4486TIP3    H113464   3.424   0.732   0.373
 4486TIP3    H213465   3.387   0.824   0.488
 4487TIP3   OH213466   3.927   1.624   2.895
 4487TIP3    H113467   3.874   1.684   2.948
 4487TIP3    H213468   3.880   1.618   2.812
 4488TIP3   OH213469   4.026   3.897   2.506
 4488TIP3    H113470   4.114   3.861   2.500
 4488TIP3    H213471   4.032   3.965   2.573
 4489TIP3   OH213472   3.796   3.030   3.597
 4489TIP3    H113473   3.757   3.117   3.588
 4489TIP3    H213474   3.864   3.041   3.664
 4490TIP3   OH213475   2.647   3.418   3.274
 4490TIP3    H113476   2.652   3.415   3.178
 4490TIP3    H213477   2.680   3.505   3.297
 4491TIP3   OH213478   5.666   1.591   2.109
 4491TIP3    H113479   5.665   1.531   2.035
 4491TIP3    H213480   5.599   1.656   2.088
 4492TIP3   OH213481   0.081   0.921   0.201
 4492TIP3    H113482   0.050   0.913   0.111
 4492TIP3    H213483   0.127   1.005   0.203
 4493TIP3   OH213484   4.164   3.826   4.824
 4493TIP3    H113485   4.224   3.752   4.835
 4493TIP3    H213486   4.189   3.888   4.892
 4494TIP3   OH213487   5.226   0.316   3.038
 4494TIP3    H113488   5.197   0.342   2.951
 4494TIP3    H213489   5.145   0.301   3.087
 4495TIP3   OH213490   0.898   5.039   1.076
 4495TIP3    H113491   0.856   4.959   1.045
 4495TIP3    H213492   0.951   5.011   1.151
 4496TIP3   OH213493   5.233   1.665   2.672
 4496TIP3    H113494   5.301   1.650   2.607
 4496TIP3    H213495   5.277   1.656   2.756
 4497TIP3   OH213496   0.834   5.464   0.597
 4497TIP3    H113497   0.894   5.393   0.620
 4497TIP3    H213498   0.769   5.465   0.668
 4498TIP3   OH213499   3.102   4.845   3.439
 4498TIP3    H113500   3.041   4.868   3.368
 4498TIP3    H213501   3.110   4.926   3.490
 4499TIP3   OH213502   6.333   0.339   4.886
 4499TIP3    H113503   6.300   0.254   4.917
 4499TIP3    H213504   6.295   0.348   4.798
 4500TIP3   OH213505   6.197   2.867   3.554
 4500TIP3    H113506   6.184   2.934   3.487
 4500TIP3    H213507   6.200   2.916   3.636
 4501TIP3   OH213508   1.753   0.578   4.167
 4501TIP3    H113509   1.759   0.501   4.223
 4501TIP3    H213510   1.662   0.580   4.137
 4502TIP3   OH213511   5.323   4.653   3.090
 4502TIP3    H113512   5.285   4.710   3.022
 4502TIP3    H213513   5.279   4.679   3.170
 4503TIP3   OH213514   6.155   4.508   2.948
 4503TIP3    H113515   6.063   4.484   2.947
 4503TIP3    H213516   6.174   4.535   2.859
 4504TIP3   OH213517   2.416   1.370   0.440
 4504TIP3    H113518   2.459   1.451   0.413
 4504TIP3    H213519   2.404   1.380   0.535
 4505TIP3   OH213520   5.557   0.007   3.563
 4505TIP3    H113521   5.594   0.093   3.545
 4505TIP3    H213522   5.465   0.024   3.585
 4506TIP3   OH213523   4.980   1.842   2.498
 4506TIP3    H113524   4.958   1.754   2.527
 4506TIP3    H213525   4.945   1.900   2.566
 4507TIP3   OH213526   2.637   1.603   1.678
 4507TIP3    H113527   2.663   1.658   1.604
 4507TIP3    H213528   2.611   1.666   1.746
 4508TIP3   OH213529   0.555   5.133   5.127
 4508TIP3    H113530   0.524   5.099   5.210
 4508TIP3    H213531   0.624   5.195   5.150
 4509TIP3   OH213532   4.629   3.402   3.634
 4509TIP3    H113533   4.578   3.329   3.669
 4509TIP3    H213534   4.704   3.361   3.591
 4510TIP3   OH213535   1.864   2.724   1.150
 4510TIP3    H113536   1.778   2.751   1.119
 4510TIP3    H213537   1.861   2.628   1.147
 4511TIP3   OH213538   5.799   1.600   0.081
 4511TIP3    H113539   5.822   1.679   0.032
 4511TIP3    H213540   5.879   1.578   0.129
 4512TIP3   OH213541   4.821   1.184   4.236
 4512TIP3    H113542   4.760   1.115   4.263
 4512TIP3    H213543   4.905   1.157   4.272
 4513TIP3   OH213544   2.901   0.089   2.147
 4513TIP3    H113545   2.845   0.029   2.099
 4513TIP3    H213546   2.909   0.050   2.234
 4514TIP3   OH213547   3.699   0.401   2.482
 4514TIP3    H113548   3.629   0.345   2.447
 4514TIP3    H213549   3.673   0.420   2.572
 4515TIP3   OH213550   2.754   2.521   3.187
 4515TIP3    H113551   2.829   2.495   3.240
 4515TIP3    H213552   2.719   2.599   3.232
 4516TIP3   OH213553   4.319   4.546   5.143
 4516TIP3    H113554   4.260   4.599   5.088
 4516TIP3    H213555   4.353   4.479   5.083
 4517TIP3   OH213556   2.635   3.184   1.689
 4517TIP3    H113557   2.638   3.220   1.600
 4517TIP3    H213558   2.549   3.142   1.694
 4518TIP3   OH213559   2.877   4.639   4.322
 4518TIP3    H113560   2.863   4.730   4.299
 4518TIP3    H213561   2.941   4.642   4.393
 4519TIP3   OH213562   5.815   2.705   4.696
 4519TIP3    H113563   5.885   2.651   4.733
 4519TIP3    H213564   5.846   2.730   4.609
 4520TIP3   OH213565   1.371   5.788   2.631
 4520TIP3    H113566   1.413   5.807   2.715
 4520TIP3    H213567   1.443   5.773   2.571
 4521TIP3   OH213568   1.041   0.252   2.752
 4521TIP3    H113569   0.949   0.238   2.776
 4521TIP3    H213570   1.090   0.192   2.809
 4522TIP3   OH213571   2.571   0.899   4.454
 4522TIP3    H113572   2.580   0.805   4.437
 4522TIP3    H213573   2.659   0.928   4.478
 4523TIP3   OH213574   1.633   3.798   1.640
 4523TIP3    H113575   1.587   3.728   1.685
 4523TIP3    H213576   1.726   3.775   1.649
 4524TIP3   OH213577   1.335   4.521   3.053
 4524TIP3    H113578   1.349   4.612   3.025
 4524TIP3    H213579   1.283   4.529   3.133
 4525TIP3   OH213580   0.161   4.942   2.961
 4525TIP3    H113581   0.141   5.034   2.941
 4525TIP3    H213582   0.242   4.925   2.912
 4526TIP3   OH213583   5.595   5.901   3.060
 4526TIP3    H113584   5.661   5.942   3.004
 4526TIP3    H213585   5.641   5.883   3.142
 4527TIP3   OH213586   2.774   3.222   1.036
 4527TIP3    H113587   2.718   3.144   1.037
 4527TIP3    H213588   2.857   3.191   1.000
 4528TIP3   OH213589   5.721   1.019   3.614
 4528TIP3    H113590   5.814   1.015   3.637
 4528TIP3    H213591   5.685   1.085   3.673
 4529TIP3   OH213592   2.738   1.007   0.571
 4529TIP3    H113593   2.727   1.090   0.524
 4529TIP3    H213594   2.651   0.966   0.566
 4530TIP3   OH213595   5.146   0.981   1.950
 4530TIP3    H113596   5.056   0.999   1.976
 4530TIP3    H213597   5.199   1.040   2.003
 4531TIP3   OH213598   4.699   1.878   0.470
 4531TIP3    H113599   4.691   1.971   0.490
 4531TIP3    H213600   4.691   1.835   0.555
 4532TIP3   OH213601   1.504   0.465   2.180
 4532TIP3    H113602   1.422   0.436   2.140
 4532TIP3    H213603   1.548   0.515   2.111
 4533TIP3   OH213604   6.251   1.726   1.501
 4533TIP3    H113605   6.229   1.715   1.594
 4533TIP3    H213606   6.210   1.809   1.477
 4534TIP3   OH213607   5.115   3.782   1.289
 4534TIP3    H113608   5.039   3.810   1.239
 4534TIP3    H213609   5.189   3.798   1.231
 4535TIP3   OH213610   1.622   5.943   3.118
 4535TIP3    H113611   1.631   5.962   3.212
 4535TIP3    H213612   1.620   5.847   3.114
 4536TIP3   OH213613   0.054   0.095   2.980
 4536TIP3    H113614   0.089   0.182   2.999
 4536TIP3    H213615   0.127   0.049   2.938
 4537TIP3   OH213616   0.423   1.481   2.989
 4537TIP3    H113617   0.502   1.527   2.961
 4537TIP3    H213618   0.401   1.519   3.074
 4538TIP3   OH213619   2.299   0.171   0.832
 4538TIP3    H113620   2.307   0.266   0.839
 4538TIP3    H213621   2.229   0.148   0.894
 4539TIP3   OH213622   0.018   0.890   2.658
 4539TIP3    H113623   0.035   0.796   2.644
 4539TIP3    H213624  -0.001   0.897   2.751
 4540TIP3   OH213625   2.203   4.231   1.287
 4540TIP3    H113626   2.194   4.137   1.271
 4540TIP3    H213627   2.277   4.237   1.348
 4541TIP3   OH213628   1.921   0.004   4.645
 4541TIP3    H113629   1.876  -0.063   4.594
 4541TIP3    H213630   1.924  -0.032   4.734
 4542TIP3   OH213631   4.931   4.770   0.781
 4542TIP3    H113632   4.839   4.750   0.763
 4542TIP3    H213633   4.928   4.841   0.845
 4543TIP3   OH213634   3.055   1.270   1.849
 4543TIP3    H113635   3.011   1.206   1.905
 4543TIP3    H213636   2.984   1.311   1.800
 4544TIP3   OH213637   5.846   4.962   0.793
 4544TIP3    H113638   5.822   4.871   0.812
 4544TIP3    H213639   5.766   5.011   0.810
 4545TIP3   OH213640   4.430   2.260   3.266
 4545TIP3    H113641   4.372   2.316   3.318
 4545TIP3    H213642   4.381   2.178   3.257
 4546TIP3   OH213643   0.552   2.535   1.393
 4546TIP3    H113644   0.462   2.514   1.369
 4546TIP3    H213645   0.551   2.545   1.488
 4547TIP3   OH213646   0.087   5.631   0.459
 4547TIP3    H113647   0.126   5.637   0.372
 4547TIP3    H213648   0.030   5.708   0.465
 4548TIP3   OH213649   4.578   0.761   0.246
 4548TIP3    H113650   4.508   0.806   0.293
 4548TIP3    H213651   4.552   0.669   0.246
 4549TIP3   OH213652   2.701   3.831   2.835
 4549TIP3    H113653   2.701   3.768   2.907
 4549TIP3    H213654   2.638   3.898   2.861
 4550TIP3   OH213655   3.841   4.726   1.294
 4550TIP3    H113656   3.826   4.647   1.346
 4550TIP3    H213657   3.793   4.794   1.342
 4551TIP3   OH213658   2.671   2.033   2.013
 4551TIP3    H113659   2.666   2.076   2.098
 4551TIP3    H213660   2.629   2.095   1.953
 4552TIP3   OH213661   6.207   2.947   5.162
 4552TIP3    H113662   6.147   2.896   5.216
 4552TIP3    H213663   6.188   2.919   5.072
 4553TIP3   OH213664   4.363   0.304   0.464
 4553TIP3    H113665   4.298   0.316   0.395
 4553TIP3    H213666   4.364   0.210   0.481
 4554TIP3   OH213667   4.090   2.367   0.702
 4554TIP3    H113668   4.132   2.329   0.625
 4554TIP3    H213669   4.021   2.305   0.726
 4555TIP3   OH213670   4.515   2.796   2.037
 4555TIP3    H113671   4.598   2.832   2.008
 4555TIP3    H213672   4.455   2.809   1.963
 4556TIP3   OH213673   1.725   1.925   1.143
 4556TIP3    H113674   1.738   1.836   1.110
 4556TIP3    H213675   1.811   1.951   1.176
 4557TIP3   OH213676   1.798   4.323   2.618
 4557TIP3    H113677   1.857   4.383   2.664
 4557TIP3    H213678   1.721   4.317   2.675
 4558TIP3   OH213679   0.029   1.738   3.045
 4558TIP3    H113680   0.096   1.704   2.986
 4558TIP3    H213681   0.060   1.716   3.132
 4559TIP3   OH213682   3.403   0.727   3.764
 4559TIP3    H113683   3.416   0.797   3.828
 4559TIP3    H213684   3.379   0.651   3.817
 4560TIP3   OH213685   4.936   3.753   4.565
 4560TIP3    H113686   4.865   3.691   4.580
 4560TIP3    H213687   4.897   3.821   4.511
 4561TIP3   OH213688   3.573   3.931   4.659
 4561TIP3    H113689   3.483   3.935   4.689
 4561TIP3    H213690   3.625   3.921   4.739
 4562TIP3   OH213691   3.171   2.730   0.475
 4562TIP3    H113692   3.256   2.693   0.453
 4562TIP3    H213693   3.190   2.800   0.536
 4563TIP3   OH213694   5.272   4.000   4.128
 4563TIP3    H113695   5.348   3.953   4.164
 4563TIP3    H213696   5.223   4.027   4.205
 4564TIP3   OH213697   4.731   0.284   1.938
 4564TIP3    H113698   4.809   0.311   1.890
 4564TIP3    H213699   4.673   0.249   1.871
 4565TIP3   OH213700   2.968   1.576   4.524
 4565TIP3    H113701   3.023   1.507   4.562
 4565TIP3    H213702   3.029   1.646   4.502
 4566TIP3   OH213703   1.906   1.979   0.517
 4566TIP3    H113704   1.874   1.963   0.606
 4566TIP3    H213705   1.953   2.062   0.524
 4567TIP3   OH213706   4.636   5.189   4.559
 4567TIP3    H113707   4.546   5.157   4.561
 4567TIP3    H213708   4.675   5.154   4.639
 4568TIP3   OH213709   3.930   4.412   0.160
 4568TIP3    H113710   3.905   4.322   0.183
 4568TIP3    H213711   3.926   4.459   0.244
 4569TIP3   OH213712   2.928   5.433   1.312
 4569TIP3    H113713   2.854   5.441   1.373
 4569TIP3    H213714   2.968   5.349   1.333
 4570TIP3   OH213715   3.854   3.674   4.679
 4570TIP3    H113716   3.890   3.603   4.731
 4570TIP3    H213717   3.836   3.744   4.742
 4571TIP3   OH213718   5.820   0.295   1.116
 4571TIP3    H113719   5.813   0.230   1.185
 4571TIP3    H213720   5.759   0.267   1.049
 4572TIP3   OH213721   5.086   0.028   4.997
 4572TIP3    H113722   5.013   0.079   4.963
 4572TIP3    H213723   5.162   0.083   4.984
 4573TIP3   OH213724   4.575   5.893   0.792
 4573TIP3    H113725   4.654   5.939   0.819
 4573TIP3    H213726   4.602   5.802   0.779
 4574TIP3   OH213727   2.913   1.963   4.368
 4574TIP3    H113728   2.970   2.040   4.367
 4574TIP3    H213729   2.967   1.893   4.331
 4575TIP3   OH213730   5.798   0.423   2.058
 4575TIP3    H113731   5.732   0.490   2.073
 4575TIP3    H213732   5.772   0.380   1.977
 4576TIP3   OH213733   2.952   4.203   2.934
 4576TIP3    H113734   3.039   4.225   2.901
 4576TIP3    H213735   2.968   4.150   3.012
 4577TIP3   OH213736   2.479   1.391   1.403
 4577TIP3    H113737   2.539   1.345   1.345
 4577TIP3    H213738   2.456   1.471   1.356
 4578TIP3   OH213739   2.824   3.433   0.144
 4578TIP3    H113740   2.910   3.416   0.107
 4578TIP3    H213741   2.779   3.486   0.077
 4579TIP3   OH213742   2.480   1.152   4.297
 4579TIP3    H113743   2.471   1.140   4.203
 4579TIP3    H213744   2.455   1.068   4.335
 4580TIP3   OH213745   5.135   3.681   4.372
 4580TIP3    H113746   5.136   3.691   4.277
 4580TIP3    H213747   5.047   3.707   4.398
 4581TIP3   OH213748   2.316   4.787   4.898
 4581TIP3    H113749   2.307   4.875   4.936
 4581TIP3    H213750   2.313   4.728   4.973
 4582TIP3   OH213751   2.401   5.477   4.349
 4582TIP3    H113752   2.319   5.464   4.301
 4582TIP3    H213753   2.457   5.406   4.318
 4583TIP3   OH213754   2.136   5.972   0.467
 4583TIP3    H113755   2.054   5.972   0.418
 4583TIP3    H213756   2.198   5.925   0.411
 4584TIP3   OH213757   6.223   1.806   0.104
 4584TIP3    H113758   6.196   1.887   0.061
 4584TIP3    H213759   6.279   1.835   0.177
 4585TIP3   OH213760   4.067   2.749   2.289
 4585TIP3    H113761   4.122   2.702   2.227
 4585TIP3    H213762   4.035   2.681   2.349
 4586TIP3   OH213763   1.987   3.058   2.621
 4586TIP3    H113764   2.053   2.995   2.648
 4586TIP3    H213765   1.906   3.006   2.613
 4587TIP3   OH213766   5.819   4.552   3.026
 4587TIP3    H113767   5.854   4.495   3.095
 4587TIP3    H213768   5.843   4.640   3.055
 4588TIP3   OH213769   5.018   0.608   4.110
 4588TIP3    H113770   4.979   0.632   4.026
 4588TIP3    H213771   5.072   0.531   4.091
 4589TIP3   OH213772   5.054   0.320   1.018
 4589TIP3    H113773   4.987   0.308   0.951
 4589TIP3    H213774   5.033   0.255   1.085
 4590TIP3   OH213775   5.004   1.861   0.696
 4590TIP3    H113776   5.087   1.882   0.739
 4590TIP3    H213777   4.938   1.908   0.749
 4591TIP3   OH213778   4.848   3.161   3.882
 4591TIP3    H113779   4.849   3.072   3.918
 4591TIP3    H213780   4.932   3.170   3.838
 4592TIP3   OH213781   1.449   0.619   0.259
 4592TIP3    H113782   1.381   0.647   0.198
 4592TIP3    H213783   1.416   0.538   0.297
 4593TIP3   OH213784   1.226   5.691   3.687
 4593TIP3    H113785   1.184   5.659   3.767
 4593TIP3    H213786   1.289   5.757   3.718
 4594TIP3   OH213787   2.707   0.507   4.586
 4594TIP3    H113788   2.680   0.501   4.495
 4594TIP3    H213789   2.786   0.453   4.591
 4595TIP3   OH213790   2.289   3.009   0.798
 4595TIP3    H113791   2.314   3.034   0.709
 4595TIP3    H213792   2.273   2.914   0.792
 4596TIP3   OH213793   3.133   3.856   4.724
 4596TIP3    H113794   3.138   3.766   4.695
 4596TIP3    H213795   3.046   3.863   4.766
 4597TIP3   OH213796   5.735   3.371   4.148
 4597TIP3    H113797   5.674   3.389   4.220
 4597TIP3    H213798   5.807   3.324   4.190
 4598TIP3   OH213799   4.672   1.366   0.392
 4598TIP3    H113800   4.713   1.406   0.468
 4598TIP3    H213801   4.660   1.439   0.330
 4599TIP3   OH213802   4.361   4.551   3.392
 4599TIP3    H113803   4.379   4.573   3.484
 4599TIP3    H213804   4.422   4.604   3.342
 4600TIP3   OH213805   5.195   1.988   3.112
 4600TIP3    H113806   5.186   1.897   3.140
 4600TIP3    H213807   5.106   2.022   3.114
 4601TIP3   OH213808   2.289   3.050   2.043
 4601TIP3    H113809   2.200   3.023   2.020
 4601TIP3    H213810   2.285   3.067   2.137
 4602TIP3   OH213811   0.170   2.418   4.828
 4602TIP3    H113812   0.154   2.488   4.891
 4602TIP3    H213813   0.201   2.344   4.881
 4603TIP3   OH213814   5.477   1.387   0.328
 4603TIP3    H113815   5.496   1.469   0.283
 4603TIP3    H213816   5.481   1.321   0.259
 4604TIP3   OH213817   2.742   3.485   1.418
 4604TIP3    H113818   2.744   3.403   1.370
 4604TIP3    H213819   2.834   3.513   1.421
 4605TIP3   OH213820   1.773   3.373   2.588
 4605TIP3    H113821   1.811   3.420   2.663
 4605TIP3    H213822   1.841   3.377   2.521
 4606TIP3   OH213823   4.924   4.609   0.206
 4606TIP3    H113824   4.971   4.640   0.129
 4606TIP3    H213825   4.831   4.613   0.181
 4607TIP3   OH213826   1.314   0.017   3.360
 4607TIP3    H113827   1.333   0.063   3.278
 4607TIP3    H213828   1.298   0.087   3.423
 4608TIP3   OH213829   2.061   2.225   2.466
 4608TIP3    H113830   2.130   2.172   2.505
 4608TIP3    H213831   2.006   2.162   2.419
 4609TIP3   OH213832   4.164   2.949   0.948
 4609TIP3    H113833   4.084   2.898   0.931
 4609TIP3    H213834   4.138   3.012   1.016
 4610TIP3   OH213835   6.045   2.282   2.877
 4610TIP3    H113836   5.975   2.346   2.864
 4610TIP3    H213837   6.027   2.243   2.962
 4611TIP3   OH213838   2.854   4.607   3.848
 4611TIP3    H113839   2.923   4.544   3.871
 4611TIP3    H213840   2.795   4.557   3.791
 4612TIP3   OH213841   3.327   2.007   4.371
 4612TIP3    H113842   3.257   2.073   4.362
 4612TIP3    H213843   3.360   1.994   4.282
 4613TIP3   OH213844   6.250   4.635   1.652
 4613TIP3    H113845   6.221   4.545   1.643
 4613TIP3    H213846   6.185   4.686   1.603
 4614TIP3   OH213847   1.129   1.448   1.559
 4614TIP3    H113848   1.180   1.464   1.638
 4614TIP3    H213849   1.039   1.435   1.591
 4615TIP3   OH213850   0.463   5.965   1.576
 4615TIP3    H113851   0.419   5.967   1.491
 4615TIP3    H213852   0.493   6.055   1.590
 4616TIP3   OH213853   2.457   0.314   5.047
 4616TIP3    H113854   2.552   0.323   5.047
 4616TIP3    H213855   2.426   0.393   5.002
 4617TIP3   OH213856   3.950   4.860   2.384
 4617TIP3    H113857   4.011   4.843   2.456
 4617TIP3    H213858   3.979   4.943   2.347
 4618TIP3   OH213859   2.319   4.850   1.110
 4618TIP3    H113860   2.280   4.933   1.083
 4618TIP3    H213861   2.251   4.784   1.092
 4619TIP3   OH213862   2.166   5.695   5.110
 4619TIP3    H113863   2.073   5.673   5.101
 4619TIP3    H213864   2.207   5.615   5.143
 4620TIP3   OH213865   0.018   1.458   3.160
 4620TIP3    H113866  -0.003   1.482   3.070
 4620TIP3    H213867   0.054   1.370   3.154
 4621TIP3   OH213868   4.535   5.073   0.334
 4621TIP3    H113869   4.449   5.056   0.296
 4621TIP3    H213870   4.523   5.151   0.388
 4622TIP3   OH213871   1.437   1.418   1.655
 4622TIP3    H113872   1.363   1.363   1.682
 4622TIP3    H213873   1.460   1.386   1.567
 4623TIP3   OH213874   4.169   2.165   0.097
 4623TIP3    H113875   4.201   2.087   0.052
 4623TIP3    H213876   4.156   2.230   0.027
 4624TIP3   OH213877   2.716   4.159   0.329
 4624TIP3    H113878   2.785   4.226   0.335
 4624TIP3    H213879   2.712   4.122   0.417
 4625TIP3   OH213880   2.771   1.208   3.735
 4625TIP3    H113881   2.845   1.236   3.681
 4625TIP3    H213882   2.694   1.237   3.687
 4626TIP3   OH213883   5.223   4.218   0.173
 4626TIP3    H113884   5.289   4.243   0.238
 4626TIP3    H213885   5.185   4.301   0.144
 4627TIP3   OH213886   2.149   5.842   1.970
 4627TIP3    H113887   2.192   5.904   1.912
 4627TIP3    H213888   2.058   5.868   1.971
 4628TIP3   OH213889   1.797   3.606   3.375
 4628TIP3    H113890   1.815   3.594   3.468
 4628TIP3    H213891   1.841   3.532   3.333
 4629TIP3   OH213892   6.115   1.538   3.253
 4629TIP3    H113893   6.203   1.502   3.266
 4629TIP3    H213894   6.080   1.490   3.178
 4630TIP3   OH213895   3.446   3.020   0.048
 4630TIP3    H113896   3.454   3.101   0.100
 4630TIP3    H213897   3.353   3.015   0.027
 4631TIP3   OH213898   0.011   1.143   0.954
 4631TIP3    H113899  -0.036   1.156   0.872
 4631TIP3    H213900   0.096   1.109   0.928
 4632TIP3   OH213901   3.659   4.569   0.809
 4632TIP3    H113902   3.695   4.596   0.894
 4632TIP3    H213903   3.686   4.639   0.749
 4633TIP3   OH213904   2.285   4.650   5.127
 4633TIP3    H113905   2.291   4.557   5.106
 4633TIP3    H213906   2.221   4.654   5.198
 4634TIP3   OH213907   2.713   5.006   5.114
 4634TIP3    H113908   2.780   4.974   5.054
 4634TIP3    H213909   2.650   4.934   5.120
 4635TIP3   OH213910   5.512   3.864   1.696
 4635TIP3    H113911   5.488   3.896   1.609
 4635TIP3    H213912   5.507   3.769   1.689
 4636TIP3   OH213913   4.623   3.015   1.473
 4636TIP3    H113914   4.538   3.004   1.430
 4636TIP3    H213915   4.680   3.052   1.405
 4637TIP3   OH213916   5.473   5.711   0.663
 4637TIP3    H113917   5.553   5.680   0.706
 4637TIP3    H213918   5.423   5.753   0.733
 4638TIP3   OH213919   5.555   2.202   4.068
 4638TIP3    H113920   5.604   2.193   3.986
 4638TIP3    H213921   5.613   2.252   4.125
 4639TIP3   OH213922   4.660   1.675   3.131
 4639TIP3    H113923   4.732   1.716   3.084
 4639TIP3    H213924   4.666   1.582   3.109
 4640TIP3   OH213925   3.526   5.158   2.224
 4640TIP3    H113926   3.554   5.071   2.254
 4640TIP3    H213927   3.592   5.217   2.260
 4641TIP3   OH213928   0.612   4.232   4.761
 4641TIP3    H113929   0.625   4.317   4.803
 4641TIP3    H213930   0.528   4.200   4.795
 4642TIP3   OH213931   4.769   5.086   1.909
 4642TIP3    H113932   4.707   5.016   1.887
 4642TIP3    H213933   4.735   5.162   1.863
 4643TIP3   OH213934   5.362   4.109   3.672
 4643TIP3    H113935   5.328   4.058   3.744
 4643TIP3    H213936   5.338   4.200   3.692
 4644TIP3   OH213937   3.626   1.081   2.321
 4644TIP3    H113938   3.594   1.158   2.368
 4644TIP3    H213939   3.669   1.029   2.389
 4645TIP3   OH213940   1.817   5.179   1.319
 4645TIP3    H113941   1.844   5.177   1.227
 4645TIP3    H213942   1.740   5.237   1.321
 4646TIP3   OH213943   2.225   1.443   0.224
 4646TIP3    H113944   2.241   1.488   0.141
 4646TIP3    H213945   2.247   1.507   0.291
 4647TIP3   OH213946   3.116   4.984   2.815
 4647TIP3    H113947   3.095   4.892   2.798
 4647TIP3    H213948   3.036   5.031   2.796
 4648TIP3   OH213949   5.017   5.053   5.112
 4648TIP3    H113950   5.095   5.034   5.165
 4648TIP3    H213951   5.012   5.148   5.110
 4649TIP3   OH213952   1.549   1.655   2.482
 4649TIP3    H113953   1.570   1.734   2.433
 4649TIP3    H213954   1.607   1.657   2.559
 4650TIP3   OH213955   6.222   1.207   1.863
 4650TIP3    H113956   6.193   1.269   1.795
 4650TIP3    H213957   6.179   1.238   1.943
 4651TIP3   OH213958   5.241   3.947   3.836
 4651TIP3    H113959   5.150   3.956   3.806
 4651TIP3    H213960   5.237   3.966   3.930
 4652TIP3   OH213961   5.313   2.006   4.348
 4652TIP3    H113962   5.359   2.021   4.430
 4652TIP3    H213963   5.231   2.056   4.357
 4653TIP3   OH213964   5.515   4.072   5.029
 4653TIP3    H113965   5.437   4.057   5.083
 4653TIP3    H213966   5.534   4.165   5.038
 4654TIP3   OH213967   2.425   4.589   2.551
 4654TIP3    H113968   2.401   4.659   2.491
 4654TIP3    H213969   2.519   4.598   2.564
 4655TIP3   OH213970   0.478   1.829   1.978
 4655TIP3    H113971   0.449   1.903   1.925
 4655TIP3    H213972   0.415   1.759   1.958
 4656TIP3   OH213973   2.226   2.854   1.582
 4656TIP3    H113974   2.273   2.890   1.507
 4656TIP3    H213975   2.166   2.924   1.608
 4657TIP3   OH213976   2.586   5.215   3.442
 4657TIP3    H113977   2.521   5.146   3.449
 4657TIP3    H213978   2.603   5.223   3.348
 4658TIP3   OH213979   2.474   3.917   2.209
 4658TIP3    H113980   2.398   3.861   2.225
 4658TIP3    H213981   2.449   3.971   2.134
 4659TIP3   OH213982   2.083   2.700   2.964
 4659TIP3    H113983   2.075   2.684   3.058
 4659TIP3    H213984   2.139   2.629   2.932
 4660TIP3   OH213985   2.778   4.951   4.068
 4660TIP3    H113986   2.747   4.909   3.987
 4660TIP3    H213987   2.871   4.966   4.052
 4661TIP3   OH213988   4.653   4.093   3.315
 4661TIP3    H113989   4.596   4.117   3.241
 4661TIP3    H213990   4.681   4.177   3.352
 4662TIP3   OH213991   3.875   1.661   2.026
 4662TIP3    H113992   3.930   1.585   2.045
 4662TIP3    H213993   3.923   1.709   1.958
 4663TIP3   OH213994   5.699   1.821   5.088
 4663TIP3    H113995   5.619   1.786   5.128
 4663TIP3    H213996   5.730   1.886   5.151
 4664TIP3   OH213997   3.974   5.074   5.058
 4664TIP3    H113998   3.931   4.989   5.052
 4664TIP3    H213999   4.021   5.071   5.141
 4665TIP3   OH214000   4.081   4.795   2.588
 4665TIP3    H114001   4.084   4.700   2.596
 4665TIP3    H214002   4.173   4.821   2.584
 4666TIP3   OH214003   5.509   4.978   4.262
 4666TIP3    H114004   5.431   4.957   4.211
 4666TIP3    H214005   5.501   5.071   4.281
 4667TIP3   OH214006   4.275   4.698   4.723
 4667TIP3    H114007   4.223   4.648   4.660
 4667TIP3    H214008   4.296   4.779   4.677
 4668TIP3   OH214009   2.032   0.490   0.373
 4668TIP3    H114010   2.065   0.575   0.400
 4668TIP3    H214011   2.031   0.438   0.453
 4669TIP3   OH214012   5.201   2.519   4.709
 4669TIP3    H114013   5.233   2.603   4.675
 4669TIP3    H214014   5.172   2.472   4.631
 4670TIP3   OH214015   2.226   4.648   3.763
 4670TIP3    H114016   2.234   4.553   3.772
 4670TIP3    H214017   2.313   4.678   3.737
 4671TIP3   OH214018   5.892   0.240   0.141
 4671TIP3    H114019   5.923   0.283   0.061
 4671TIP3    H214020   5.908   0.147   0.126
 4672TIP3   OH214021   4.797   1.706   1.016
 4672TIP3    H114022   4.824   1.615   1.022
 4672TIP3    H214023   4.706   1.706   1.046
 4673TIP3   OH214024   5.249   0.074   1.235
 4673TIP3    H114025   5.283  -0.015   1.234
 4673TIP3    H214026   5.265   0.107   1.147
 4674TIP3   OH214027   4.045   2.163   4.670
 4674TIP3    H114028   4.060   2.072   4.695
 4674TIP3    H214029   4.129   2.192   4.635
 4675TIP3   OH214030   3.476   0.364   4.457
 4675TIP3    H114031   3.522   0.416   4.522
 4675TIP3    H214032   3.387   0.357   4.491
 4676TIP3   OH214033   5.443   4.016   0.772
 4676TIP3    H114034   5.520   3.975   0.732
 4676TIP3    H214035   5.472   4.104   0.793
 4677TIP3   OH214036   1.777   3.355   0.737
 4677TIP3    H114037   1.685   3.352   0.709
 4677TIP3    H214038   1.798   3.448   0.740
 4678TIP3   OH214039   0.887   5.462   3.781
 4678TIP3    H114040   0.828   5.497   3.847
 4678TIP3    H214041   0.945   5.403   3.829
 4679TIP3   OH214042   5.620   1.592   1.018
 4679TIP3    H114043   5.529   1.592   0.989
 4679TIP3    H214044   5.655   1.508   0.988
 4680TIP3   OH214045   5.898   0.502   1.271
 4680TIP3    H114046   5.845   0.471   1.198
 4680TIP3    H214047   5.984   0.519   1.233
 4681TIP3   OH214048   0.132   5.650   3.455
 4681TIP3    H114049   0.179   5.571   3.430
 4681TIP3    H214050   0.153   5.662   3.548
 4682TIP3   OH214051   4.858   3.043   4.293
 4682TIP3    H114052   4.890   3.078   4.377
 4682TIP3    H214053   4.907   3.091   4.227
 4683TIP3   OH214054   2.608   0.230   3.496
 4683TIP3    H114055   2.583   0.299   3.435
 4683TIP3    H214056   2.592   0.148   3.448
 4684TIP3   OH214057   3.220   3.225   1.218
 4684TIP3    H114058   3.218   3.139   1.260
 4684TIP3    H214059   3.279   3.277   1.273
 4685TIP3   OH214060   5.195   2.854   4.480
 4685TIP3    H114061   5.224   2.819   4.565
 4685TIP3    H214062   5.275   2.858   4.428
 4686TIP3   OH214063   5.393   6.022   4.128
 4686TIP3    H114064   5.381   5.927   4.121
 4686TIP3    H214065   5.368   6.055   4.041
 4687TIP3   OH214066   1.902   2.247   4.551
 4687TIP3    H114067   1.934   2.278   4.467
 4687TIP3    H214068   1.864   2.325   4.593
 4688TIP3   OH214069   6.293   5.330   4.291
 4688TIP3    H114070   6.209   5.321   4.246
 4688TIP3    H214071   6.354   5.278   4.238
 4689TIP3   OH214072   2.629   1.742   2.115
 4689TIP3    H114073   2.563   1.703   2.058
 4689TIP3    H214074   2.637   1.833   2.084
 4690TIP3   OH214075   6.209   2.351   3.659
 4690TIP3    H114076   6.264   2.274   3.669
 4690TIP3    H214077   6.123   2.323   3.692
 4691TIP3   OH214078   4.311   5.306   1.592
 4691TIP3    H114079   4.332   5.220   1.627
 4691TIP3    H214080   4.396   5.344   1.568
 4692TIP3   OH214081   2.827   1.479   5.139
 4692TIP3    H114082   2.842   1.427   5.060
 4692TIP3    H214083   2.739   1.456   5.166
 4693TIP3   OH214084   1.412   3.217   3.660
 4693TIP3    H114085   1.383   3.222   3.569
 4693TIP3    H214086   1.480   3.285   3.666
 4694TIP3   OH214087   3.463   0.245   0.651
 4694TIP3    H114088   3.500   0.331   0.629
 4694TIP3    H214089   3.409   0.261   0.728
 4695TIP3   OH214090   0.700   0.438   4.322
 4695TIP3    H114091   0.691   0.357   4.273
 4695TIP3    H214092   0.654   0.422   4.405
 4696TIP3   OH214093   1.627   0.672   3.645
 4696TIP3    H114094   1.587   0.729   3.580
 4696TIP3    H214095   1.638   0.727   3.723
 4697TIP3   OH214096   0.119   2.512   3.186
 4697TIP3    H114097   0.036   2.519   3.141
 4697TIP3    H214098   0.099   2.537   3.277
 4698TIP3   OH214099   3.897   1.626   0.414
 4698TIP3    H114100   3.887   1.678   0.335
 4698TIP3    H214101   3.882   1.687   0.486
 4699TIP3   OH214102   4.527   5.417   1.942
 4699TIP3    H114103   4.605   5.443   1.991
 4699TIP3    H214104   4.481   5.499   1.924
 4700TIP3   OH214105   4.362   3.139   0.934
 4700TIP3    H114106   4.298   3.069   0.919
 4700TIP3    H214107   4.309   3.219   0.940
 4701TIP3   OH214108   1.382   2.325   0.862
 4701TIP3    H114109   1.384   2.291   0.773
 4701TIP3    H214110   1.291   2.312   0.891
 4702TIP3   OH214111   5.823   2.509   1.727
 4702TIP3    H114112   5.788   2.598   1.725
 4702TIP3    H214113   5.751   2.457   1.764
 4703TIP3   OH214114   1.045   0.249   2.257
 4703TIP3    H114115   1.028   0.325   2.202
 4703TIP3    H214116   1.140   0.249   2.268
 4704TIP3   OH214117   4.628   2.660   3.718
 4704TIP3    H114118   4.722   2.672   3.736
 4704TIP3    H214119   4.625   2.635   3.626
 4705TIP3   OH214120   1.388   3.582   1.709
 4705TIP3    H114121   1.331   3.654   1.737
 4705TIP3    H214122   1.400   3.595   1.615
 4706TIP3   OH214123   5.655   1.282   1.106
 4706TIP3    H114124   5.576   1.237   1.133
 4706TIP3    H214125   5.706   1.292   1.186
 4707TIP3   OH214126   0.475   2.578   4.206
 4707TIP3    H114127   0.479   2.510   4.274
 4707TIP3    H214128   0.518   2.653   4.246
 4708TIP3   OH214129   3.159   3.522   3.857
 4708TIP3    H114130   3.146   3.610   3.894
 4708TIP3    H214131   3.109   3.523   3.775
 4709TIP3   OH214132   4.042   3.363   3.560
 4709TIP3    H114133   3.951   3.355   3.591
 4709TIP3    H214134   4.087   3.409   3.631
 4710TIP3   OH214135   0.211   2.215   0.445
 4710TIP3    H114136   0.283   2.152   0.453
 4710TIP3    H214137   0.250   2.289   0.397
 4711TIP3   OH214138   2.652   5.512   3.877
 4711TIP3    H114139   2.651   5.574   3.950
 4711TIP3    H214140   2.564   5.516   3.841
 4712TIP3   OH214141   5.534   4.203   4.707
 4712TIP3    H114142   5.493   4.160   4.782
 4712TIP3    H214143   5.546   4.133   4.642
 4713TIP3   OH214144   5.245   2.873   3.354
 4713TIP3    H114145   5.289   2.816   3.291
 4713TIP3    H214146   5.313   2.899   3.416
 4714TIP3   OH214147   4.710   2.729   4.860
 4714TIP3    H114148   4.702   2.662   4.927
 4714TIP3    H214149   4.640   2.791   4.879
 4715TIP3   OH214150   5.120   4.213   4.788
 4715TIP3    H114151   5.194   4.161   4.820
 4715TIP3    H214152   5.105   4.278   4.857
 4716TIP3   OH214153   3.562   1.496   1.227
 4716TIP3    H114154   3.515   1.440   1.166
 4716TIP3    H214155   3.510   1.577   1.230
 4717TIP3   OH214156   2.078   1.492   3.838
 4717TIP3    H114157   2.084   1.543   3.919
 4717TIP3    H214158   2.169   1.481   3.810
 4718TIP3   OH214159   0.407   1.554   2.545
 4718TIP3    H114160   0.490   1.515   2.518
 4718TIP3    H214161   0.345   1.481   2.544
 4719TIP3   OH214162   1.452   3.716   1.459
 4719TIP3    H114163   1.520   3.775   1.490
 4719TIP3    H214164   1.496   3.657   1.398
 4720TIP3   OH214165   4.699   4.396   0.052
 4720TIP3    H114166   4.668   4.444   0.130
 4720TIP3    H214167   4.626   4.402  -0.009
 4721TIP3   OH214168   3.787   1.471   3.518
 4721TIP3    H114169   3.821   1.412   3.585
 4721TIP3    H214170   3.799   1.423   3.436
 4722TIP3   OH214171   0.932   1.563   1.816
 4722TIP3    H114172   0.978   1.623   1.757
 4722TIP3    H214173   0.857   1.613   1.847
 4723TIP3   OH214174   3.347   5.477   2.892
 4723TIP3    H114175   3.319   5.395   2.933
 4723TIP3    H214176   3.377   5.532   2.964
 4724TIP3   OH214177   0.451   2.014   0.782
 4724TIP3    H114178   0.503   2.010   0.702
 4724TIP3    H214179   0.459   1.926   0.820
 4725TIP3   OH214180   4.779   3.910  -0.004
 4725TIP3    H114181   4.728   3.920   0.076
 4725TIP3    H214182   4.870   3.926   0.023
 4726TIP3   OH214183   1.672   2.986   2.204
 4726TIP3    H114184   1.695   2.904   2.161
 4726TIP3    H214185   1.576   2.985   2.208
 4727TIP3   OH214186   3.862   5.616   2.475
 4727TIP3    H114187   3.955   5.627   2.498
 4727TIP3    H214188   3.857   5.644   2.384
 4728TIP3   OH214189   4.751   4.334   3.616
 4728TIP3    H114190   4.837   4.319   3.576
 4728TIP3    H214191   4.708   4.396   3.557
 4729TIP3   OH214192   0.579   3.592   3.076
 4729TIP3    H114193   0.568   3.496   3.076
 4729TIP3    H214194   0.672   3.606   3.062
 4730TIP3   OH214195   0.701   0.950   3.501
 4730TIP3    H114196   0.662   0.863   3.505
 4730TIP3    H214197   0.791   0.938   3.530
 4731TIP3   OH214198  -0.009   0.919   4.968
 4731TIP3    H114199   0.034   0.980   4.907
 4731TIP3    H214200   0.057   0.899   5.033
 4732TIP3   OH214201   2.371   3.000   1.397
 4732TIP3    H114202   2.458   3.041   1.398
 4732TIP3    H214203   2.338   3.016   1.308
 4733TIP3   OH214204   4.487   0.602   4.996
 4733TIP3    H114205   4.481   0.654   5.077
 4733TIP3    H214206   4.574   0.621   4.961
 4734TIP3   OH214207   1.910   1.392   0.333
 4734TIP3    H114208   1.935   1.484   0.325
 4734TIP3    H214209   1.822   1.394   0.370
 4735TIP3   OH214210   4.670   5.918   3.885
 4735TIP3    H114211   4.684   6.011   3.902
 4735TIP3    H214212   4.579   5.912   3.856
 4736TIP3   OH214213   4.828   4.056   2.910
 4736TIP3    H114214   4.871   4.126   2.860
 4736TIP3    H214215   4.739   4.052   2.874
 4737TIP3   OH214216   2.584   3.326   0.441
 4737TIP3    H114217   2.626   3.380   0.508
 4737TIP3    H214218   2.657   3.288   0.391
 4738TIP3   OH214219   6.099   3.377   2.027
 4738TIP3    H114220   6.173   3.421   1.986
 4738TIP3    H214221   6.137   3.333   2.103
 4739TIP3   OH214222   5.011   5.929   4.073
 4739TIP3    H114223   4.994   5.977   3.991
 4739TIP3    H214224   4.978   5.841   4.056
 4740TIP3   OH214225   1.638   5.730   4.639
 4740TIP3    H114226   1.608   5.814   4.606
 4740TIP3    H214227   1.614   5.668   4.570
 4741TIP3   OH214228   0.131   5.543   1.729
 4741TIP3    H114229   0.226   5.559   1.732
 4741TIP3    H214230   0.111   5.504   1.814
 4742TIP3   OH214231   2.427   3.543   2.504
 4742TIP3    H114232   2.398   3.550   2.413
 4742TIP3    H214233   2.487   3.616   2.516
 4743TIP3   OH214234   0.579   4.093   0.939
 4743TIP3    H114235   0.506   4.035   0.920
 4743TIP3    H214236   0.657   4.036   0.934
 4744TIP3   OH214237   0.687   5.118   1.367
 4744TIP3    H114238   0.753   5.068   1.319
 4744TIP3    H214239   0.619   5.136   1.302
 4745TIP3   OH214240   3.131   1.752   0.616
 4745TIP3    H114241   3.141   1.845   0.635
 4745TIP3    H214242   3.127   1.710   0.702
 4746TIP3   OH214243   0.052   3.428   4.971
 4746TIP3    H114244   0.072   3.342   5.009
 4746TIP3    H214245   0.135   3.475   4.974
 4747TIP3   OH214246   1.170   3.021   1.608
 4747TIP3    H114247   1.196   2.966   1.535
 4747TIP3    H214248   1.109   3.084   1.571
 4748TIP3   OH214249   0.027   4.470   0.624
 4748TIP3    H114250   0.117   4.483   0.655
 4748TIP3    H214251   0.037   4.454   0.530
 4749TIP3   OH214252   3.342   5.341   3.156
 4749TIP3    H114253   3.424   5.374   3.193
 4749TIP3    H214254   3.369   5.274   3.093
 4750TIP3   OH214255   0.030   4.403   1.430
 4750TIP3    H114256   0.034   4.476   1.368
 4750TIP3    H214257   0.055   4.326   1.378
 4751TIP3   OH214258   5.246   1.849   3.819
 4751TIP3    H114259   5.295   1.781   3.772
 4751TIP3    H214260   5.155   1.823   3.809
 4752TIP3   OH214261   0.024   0.619   2.308
 4752TIP3    H114262   0.041   0.553   2.375
 4752TIP3    H214263   0.110   0.639   2.271
 4753TIP3   OH214264   3.687   5.737   0.160
 4753TIP3    H114265   3.614   5.781   0.204
 4753TIP3    H214266   3.665   5.644   0.165
 4754TIP3   OH214267   2.903   1.255   4.448
 4754TIP3    H114268   2.833   1.227   4.506
 4754TIP3    H214269   2.898   1.197   4.372
 4755TIP3   OH214270   4.939   4.874   2.845
 4755TIP3    H114271   4.976   4.957   2.876
 4755TIP3    H214272   4.946   4.879   2.750
 4756TIP3   OH214273   3.505   4.330   4.851
 4756TIP3    H114274   3.526   4.284   4.932
 4756TIP3    H214275   3.570   4.399   4.845
 4757TIP3   OH214276   2.885   0.366   0.614
 4757TIP3    H114277   2.867   0.276   0.642
 4757TIP3    H214278   2.909   0.411   0.695
 4758TIP3   OH214279   1.288   0.347   3.790
 4758TIP3    H114280   1.232   0.301   3.727
 4758TIP3    H214281   1.228   0.375   3.859
 4759TIP3   OH214282   0.123   2.261   3.906
 4759TIP3    H114283   0.073   2.201   3.851
 4759TIP3    H214284   0.204   2.278   3.857
 4760TIP3   OH214285   1.460   4.391   1.379
 4760TIP3    H114286   1.475   4.464   1.439
 4760TIP3    H214287   1.540   4.338   1.385
 4761TIP3   OH214288   5.634   0.120   4.044
 4761TIP3    H114289   5.600   0.049   3.989
 4761TIP3    H214290   5.566   0.134   4.110
 4762TIP3   OH214291   5.761   2.786   5.051
 4762TIP3    H114292   5.675   2.818   5.078
 4762TIP3    H214293   5.742   2.703   5.006
 4763TIP3   OH214294   0.339   5.998   1.827
 4763TIP3    H114295   0.256   6.045   1.842
 4763TIP3    H214296   0.351   6.002   1.732
 4764TIP3   OH214297   2.846   1.434   1.712
 4764TIP3    H114298   2.764   1.482   1.705
 4764TIP3    H214299   2.893   1.454   1.631
 4765TIP3   OH214300   1.192   5.295   0.005
 4765TIP3    H114301   1.190   5.308   0.099
 4765TIP3    H214302   1.115   5.341  -0.028
 4766TIP3   OH214303   4.400   5.888   1.702
 4766TIP3    H114304   4.350   5.968   1.716
 4766TIP3    H214305   4.405   5.879   1.606
 4767TIP3   OH214306   3.417   5.019   3.294
 4767TIP3    H114307   3.331   5.031   3.253
 4767TIP3    H214308   3.454   4.943   3.250
 4768TIP3   OH214309   1.189   1.994   0.888
 4768TIP3    H114310   1.189   1.945   0.806
 4768TIP3    H214311   1.281   1.995   0.916
 4769TIP3   OH214312   1.194   0.915   1.822
 4769TIP3    H114313   1.279   0.880   1.848
 4769TIP3    H214314   1.131   0.863   1.872
 4770TIP3   OH214315   2.709   3.616   4.941
 4770TIP3    H114316   2.630   3.564   4.957
 4770TIP3    H214317   2.779   3.569   4.986
 4771TIP3   OH214318   5.591   1.874  -0.045
 4771TIP3    H114319   5.503   1.848  -0.016
 4771TIP3    H214320   5.643   1.794  -0.036
 4772TIP3   OH214321   2.909   2.271   0.630
 4772TIP3    H114322   2.886   2.364   0.625
 4772TIP3    H214323   2.843   2.233   0.689
 4773TIP3   OH214324   4.021   1.743   4.555
 4773TIP3    H114325   4.100   1.788   4.524
 4773TIP3    H214326   4.052   1.688   4.627
 4774TIP3   OH214327   6.195   1.096   3.048
 4774TIP3    H114328   6.130   1.031   3.074
 4774TIP3    H214329   6.274   1.045   3.029
 4775TIP3   OH214330   0.681   4.621   2.296
 4775TIP3    H114331   0.715   4.708   2.316
 4775TIP3    H214332   0.603   4.636   2.244
 4776TIP3   OH214333   0.619   4.087   5.012
 4776TIP3    H114334   0.695   4.140   4.986
 4776TIP3    H214335   0.656   4.000   5.029
 4777TIP3   OH214336   1.793   5.254   0.250
 4777TIP3    H114337   1.715   5.285   0.297
 4777TIP3    H214338   1.816   5.326   0.191
 4778TIP3   OH214339   3.576   2.400   2.431
 4778TIP3    H114340   3.557   2.457   2.357
 4778TIP3    H214341   3.625   2.327   2.393
 4779TIP3   OH214342   2.402   5.023   3.516
 4779TIP3    H114343   2.421   5.041   3.608
 4779TIP3    H214344   2.310   5.048   3.505
 4780TIP3   OH214345   1.107   2.688   1.566
 4780TIP3    H114346   1.044   2.723   1.504
 4780TIP3    H214347   1.120   2.597   1.539
 4781TIP3   OH214348   0.562   4.033   3.877
 4781TIP3    H114349   0.637   4.086   3.848
 4781TIP3    H214350   0.520   4.005   3.796
 4782TIP3   OH214351   6.166   5.656   4.559
 4782TIP3    H114352   6.192   5.705   4.481
 4782TIP3    H214353   6.073   5.639   4.546
 4783TIP3   OH214354   0.940   2.746   4.604
 4783TIP3    H114355   0.992   2.707   4.675
 4783TIP3    H214356   0.961   2.839   4.608
 4784TIP3   OH214357   6.046   5.332   4.159
 4784TIP3    H114358   5.982   5.403   4.169
 4784TIP3    H214359   6.075   5.338   4.068
 4785TIP3   OH214360   6.003   1.010   3.686
 4785TIP3    H114361   6.091   1.000   3.651
 4785TIP3    H214362   6.017   1.029   3.779
 4786TIP3   OH214363   0.575   1.584   0.892
 4786TIP3    H114364   0.553   1.541   0.809
 4786TIP3    H214365   0.599   1.511   0.951
 4787TIP3   OH214366   5.086   5.750   1.278
 4787TIP3    H114367   5.071   5.664   1.318
 4787TIP3    H214368   5.167   5.781   1.319
 4788TIP3   OH214369   4.951   3.508   1.884
 4788TIP3    H114370   4.968   3.600   1.901
 4788TIP3    H214371   5.031   3.476   1.842
 4789TIP3   OH214372   3.543   4.206   0.060
 4789TIP3    H114373   3.523   4.252   0.142
 4789TIP3    H214374   3.631   4.234   0.037
 4790TIP3   OH214375   3.472   2.042   2.928
 4790TIP3    H114376   3.558   2.071   2.959
 4790TIP3    H214377   3.490   1.960   2.883
 4791TIP3   OH214378   3.157   5.430   4.877
 4791TIP3    H114379   3.190   5.355   4.926
 4791TIP3    H214380   3.123   5.490   4.944
 4792TIP3   OH214381   1.602   5.335   0.452
 4792TIP3    H114382   1.688   5.378   0.449
 4792TIP3    H214383   1.545   5.397   0.496
 4793TIP3   OH214384   6.248   1.043   3.564
 4793TIP3    H114385   6.334   1.030   3.605
 4793TIP3    H214386   6.268   1.064   3.473
 4794TIP3   OH214387   4.261   4.608   1.522
 4794TIP3    H114388   4.341   4.563   1.495
 4794TIP3    H214389   4.211   4.617   1.441
 4795TIP3   OH214390   4.338   1.333   4.297
 4795TIP3    H114391   4.361   1.426   4.307
 4795TIP3    H214392   4.409   1.287   4.341
 4796TIP3   OH214393   2.867   0.594   4.095
 4796TIP3    H114394   2.834   0.679   4.067
 4796TIP3    H214395   2.877   0.545   4.013
 4797TIP3   OH214396   0.713   3.898   2.943
 4797TIP3    H114397   0.789   3.953   2.923
 4797TIP3    H214398   0.751   3.816   2.976
 4798TIP3   OH214399   4.944   3.218   2.037
 4798TIP3    H114400   4.883   3.279   2.078
 4798TIP3    H214401   5.027   3.265   2.035
 4799TIP3   OH214402   0.109   1.877   0.267
 4799TIP3    H114403   0.120   1.970   0.249
 4799TIP3    H214404   0.168   1.860   0.341
 4800TIP3   OH214405   5.835   2.155   3.501
 4800TIP3    H114406   5.867   2.244   3.493
 4800TIP3    H214407   5.860   2.128   3.589
 4801TIP3   OH214408   4.419   5.487   3.138
 4801TIP3    H114409   4.482   5.424   3.174
 4801TIP3    H214410   4.349   5.491   3.203
 4802TIP3   OH214411   5.404   0.915   3.004
 4802TIP3    H114412   5.328   0.859   2.985
 4802TIP3    H214413   5.415   0.908   3.099
 4803TIP3   OH214414   4.276   0.253   3.132
 4803TIP3    H114415   4.315   0.307   3.201
 4803TIP3    H214416   4.348   0.236   3.072
 4804TIP3   OH214417   1.795   1.730   3.930
 4804TIP3    H114418   1.732   1.793   3.964
 4804TIP3    H214419   1.880   1.763   3.960
 4805TIP3   OH214420   1.905   0.075   1.472
 4805TIP3    H114421   1.914   0.137   1.544
 4805TIP3    H214422   1.822   0.030   1.489
 4806TIP3   OH214423   6.095   2.591   4.434
 4806TIP3    H114424   6.077   2.554   4.348
 4806TIP3    H214425   6.159   2.661   4.418
 4807TIP3   OH214426   4.545   2.006   0.797
 4807TIP3    H114427   4.498   1.939   0.747
 4807TIP3    H214428   4.484   2.034   0.865
 4808TIP3   OH214429   2.981   3.868   2.721
 4808TIP3    H114430   3.017   3.927   2.655
 4808TIP3    H214431   2.888   3.861   2.700
 4809TIP3   OH214432   2.954   1.496   3.360
 4809TIP3    H114433   2.979   1.563   3.425
 4809TIP3    H214434   2.984   1.532   3.277
 4810TIP3   OH214435   6.262   4.310   0.176
 4810TIP3    H114436   6.204   4.262   0.236
 4810TIP3    H214437   6.338   4.332   0.230
 4811TIP3   OH214438   5.686   5.842   1.757
 4811TIP3    H114439   5.594   5.828   1.780
 4811TIP3    H214440   5.684   5.861   1.663
 4812TIP3   OH214441   1.100   1.076   0.426
 4812TIP3    H114442   1.096   1.127   0.507
 4812TIP3    H214443   1.061   0.991   0.449
 4813TIP3   OH214444   3.711   3.888   4.895
 4813TIP3    H114445   3.718   3.865   4.987
 4813TIP3    H214446   3.764   3.967   4.885
 4814TIP3   OH214447   4.242   2.906   4.682
 4814TIP3    H114448   4.199   2.967   4.742
 4814TIP3    H214449   4.334   2.906   4.709
 4815TIP3   OH214450   3.231   3.345   2.408
 4815TIP3    H114451   3.206   3.260   2.445
 4815TIP3    H214452   3.270   3.324   2.323
 4816TIP3   OH214453   1.257   1.410   4.143
 4816TIP3    H114454   1.274   1.354   4.066
 4816TIP3    H214455   1.190   1.362   4.192
 4817TIP3   OH214456   4.933   0.231   2.659
 4817TIP3    H114457   4.912   0.160   2.720
 4817TIP3    H214458   5.009   0.199   2.610
 4818TIP3   OH214459   3.594   1.293   0.567
 4818TIP3    H114460   3.538   1.367   0.544
 4818TIP3    H214461   3.605   1.245   0.485
 4819TIP3   OH214462   6.147   4.708   1.078
 4819TIP3    H114463   6.090   4.632   1.079
 4819TIP3    H214464   6.088   4.783   1.082
 4820TIP3   OH214465   1.122   3.677   0.944
 4820TIP3    H114466   1.050   3.688   1.006
 4820TIP3    H214467   1.091   3.611   0.882
 4821TIP3   OH214468   1.794   5.333   3.926
 4821TIP3    H114469   1.786   5.245   3.962
 4821TIP3    H214470   1.738   5.387   3.982
 4822TIP3   OH214471   1.281   0.345   4.634
 4822TIP3    H114472   1.244   0.311   4.716
 4822TIP3    H214473   1.229   0.304   4.565
 4823TIP3   OH214474   4.952   3.230   1.582
 4823TIP3    H114475   4.996   3.313   1.599
 4823TIP3    H214476   4.862   3.254   1.561
 4824TIP3   OH214477   3.704   5.963   2.607
 4824TIP3    H114478   3.724   5.980   2.515
 4824TIP3    H214479   3.610   5.979   2.614
 4825TIP3   OH214480   2.441   4.348   2.158
 4825TIP3    H114481   2.353   4.313   2.168
 4825TIP3    H214482   2.476   4.351   2.247
 4826TIP3   OH214483   4.778   1.558   0.552
 4826TIP3    H114484   4.737   1.624   0.608
 4826TIP3    H214485   4.872   1.576   0.559
 4827TIP3   OH214486   0.156   6.009   4.302
 4827TIP3    H114487   0.091   6.003   4.372
 4827TIP3    H214488   0.119   5.960   4.229
 4828TIP3   OH214489   3.832   5.743   3.512
 4828TIP3    H114490   3.803   5.762   3.423
 4828TIP3    H214491   3.755   5.705   3.554
 4829TIP3   OH214492   1.755   0.991   3.042
 4829TIP3    H114493   1.660   0.974   3.042
 4829TIP3    H214494   1.762   1.087   3.038
 4830TIP3   OH214495   3.705   4.572   1.926
 4830TIP3    H114496   3.782   4.621   1.956
 4830TIP3    H214497   3.705   4.492   1.979
 4831TIP3   OH214498   4.932   5.771   0.591
 4831TIP3    H114499   4.981   5.773   0.508
 4831TIP3    H214500   4.975   5.703   0.642
 4832TIP3   OH214501   1.588   4.604   0.153
 4832TIP3    H114502   1.590   4.550   0.232
 4832TIP3    H214503   1.513   4.662   0.165
 4833TIP3   OH214504   3.162   1.468   3.683
 4833TIP3    H114505   3.125   1.517   3.609
 4833TIP3    H214506   3.088   1.420   3.720
 4834TIP3   OH214507   3.056   0.493   1.241
 4834TIP3    H114508   3.091   0.432   1.306
 4834TIP3    H214509   3.025   0.567   1.293
 4835TIP3   OH214510   3.949   2.414   1.762
 4835TIP3    H114511   4.030   2.388   1.717
 4835TIP3    H214512   3.897   2.458   1.694
 4836TIP3   OH214513   3.971   1.423   5.161
 4836TIP3    H114514   3.954   1.338   5.121
 4836TIP3    H214515   4.027   1.403   5.236
 4837TIP3   OH214516   4.148   5.341   3.713
 4837TIP3    H114517   4.241   5.343   3.691
 4837TIP3    H214518   4.108   5.402   3.651
 4838TIP3   OH214519   3.603   5.936   2.149
 4838TIP3    H114520   3.520   5.938   2.197
 4838TIP3    H214521   3.580   5.902   2.062
 4839TIP3   OH214522   5.391   2.683   3.245
 4839TIP3    H114523   5.483   2.668   3.268
 4839TIP3    H214524   5.393   2.705   3.152
 4840TIP3   OH214525   4.325   0.717   3.139
 4840TIP3    H114526   4.276   0.786   3.183
 4840TIP3    H214527   4.417   0.737   3.158
 4841TIP3   OH214528  -0.010   3.566   0.590
 4841TIP3    H114529  -0.014   3.471   0.596
 4841TIP3    H214530   0.070   3.583   0.539
 4842TIP3   OH214531   5.259   0.381   0.373
 4842TIP3    H114532   5.352   0.400   0.358
 4842TIP3    H214533   5.216   0.466   0.368
 4843TIP3   OH214534   5.288   1.725   2.080
 4843TIP3    H114535   5.367   1.777   2.069
 4843TIP3    H214536   5.246   1.762   2.157
 4844TIP3   OH214537   5.035   1.026   3.058
 4844TIP3    H114538   4.998   0.968   3.125
 4844TIP3    H214539   4.998   0.995   2.976
 4845TIP3   OH214540   2.671   0.405   1.386
 4845TIP3    H114541   2.689   0.378   1.296
 4845TIP3    H214542   2.697   0.498   1.388
 4846TIP3   OH214543   3.689   2.711   0.506
 4846TIP3    H114544   3.782   2.711   0.527
 4846TIP3    H214545   3.677   2.790   0.451
 4847TIP3   OH214546   5.550   4.899   0.321
 4847TIP3    H114547   5.538   4.809   0.293
 4847TIP3    H214548   5.486   4.913   0.390
 4848TIP3   OH214549   5.273   3.784   1.047
 4848TIP3    H114550   5.356   3.774   1.001
 4848TIP3    H214551   5.206   3.764   0.981
 4849TIP3   OH214552   0.338   5.765   0.046
 4849TIP3    H114553   0.284   5.774  -0.032
 4849TIP3    H214554   0.288   5.708   0.104
 4850TIP3   OH214555   5.806   4.822   3.387
 4850TIP3    H114556   5.724   4.829   3.338
 4850TIP3    H214557   5.789   4.872   3.467
 4851TIP3   OH214558   2.285   2.294   1.798
 4851TIP3    H114559   2.233   2.252   1.866
 4851TIP3    H214560   2.300   2.226   1.734
 4852TIP3   OH214561   4.900   3.371   0.729
 4852TIP3    H114562   4.941   3.312   0.792
 4852TIP3    H214563   4.882   3.451   0.778
 4853TIP3   OH214564   4.551   1.049   3.160
 4853TIP3    H114565   4.544   1.118   3.095
 4853TIP3    H214566   4.461   1.023   3.178
 4854TIP3   OH214567   2.872   4.887   2.533
 4854TIP3    H114568   2.932   4.900   2.460
 4854TIP3    H214569   2.873   4.970   2.581
 4855TIP3   OH214570   5.800   3.372   3.141
 4855TIP3    H114571   5.772   3.285   3.113
 4855TIP3    H214572   5.774   3.377   3.233
 4856TIP3   OH214573   2.235   1.599   1.966
 4856TIP3    H114574   2.246   1.597   2.061
 4856TIP3    H214575   2.157   1.546   1.949
 4857TIP3   OH214576   2.934   4.698   5.189
 4857TIP3    H114577   2.960   4.666   5.103
 4857TIP3    H214578   3.007   4.754   5.218
 4858TIP3   OH214579   5.249   2.041   5.114
 4858TIP3    H114580   5.338   2.044   5.151
 4858TIP3    H214581   5.244   1.957   5.069
 4859TIP3   OH214582   1.309   3.430   2.847
 4859TIP3    H114583   1.280   3.491   2.915
 4859TIP3    H214584   1.368   3.370   2.892
 4860TIP3   OH214585   6.133   0.154   2.851
 4860TIP3    H114586   6.081   0.074   2.852
 4860TIP3    H214587   6.217   0.129   2.891
 4861TIP3   OH214588   3.669   4.573   4.296
 4861TIP3    H114589   3.620   4.500   4.334
 4861TIP3    H214590   3.625   4.591   4.213
 4862TIP3   OH214591   0.281   1.877   1.731
 4862TIP3    H114592   0.272   1.954   1.787
 4862TIP3    H214593   0.302   1.911   1.644
 4863TIP3   OH214594   4.673   5.223   1.225
 4863TIP3    H114595   4.641   5.195   1.310
 4863TIP3    H214596   4.709   5.144   1.185
 4864TIP3   OH214597   0.258   3.183   0.400
 4864TIP3    H114598   0.175   3.135   0.402
 4864TIP3    H214599   0.239   3.262   0.349
 4865TIP3   OH214600   4.983   3.121   3.550
 4865TIP3    H114601   5.047   3.098   3.483
 4865TIP3    H214602   5.034   3.136   3.629
 4866TIP3   OH214603   5.216   5.270   1.819
 4866TIP3    H114604   5.172   5.242   1.739
 4866TIP3    H214605   5.146   5.283   1.882
 4867TIP3   OH214606   3.329   3.964   4.989
 4867TIP3    H114607   3.290   3.877   4.978
 4867TIP3    H214608   3.340   3.996   4.900
 4868TIP3   OH214609   5.260   1.016   1.325
 4868TIP3    H114610   5.300   0.999   1.411
 4868TIP3    H214611   5.237   0.929   1.292
 4869TIP3   OH214612   6.312   1.981   1.937
 4869TIP3    H114613   6.231   2.027   1.915
 4869TIP3    H214614   6.283   1.902   1.981
 4870TIP3   OH214615   0.071   4.997   4.572
 4870TIP3    H114616   0.092   4.911   4.606
 4870TIP3    H214617   0.125   5.057   4.623
 4871TIP3   OH214618   0.101   2.756   5.059
 4871TIP3    H114619   0.148   2.762   4.976
 4871TIP3    H214620   0.010   2.772   5.037
 4872TIP3   OH214621   1.945   2.947   3.754
 4872TIP3    H114622   1.911   3.022   3.802
 4872TIP3    H214623   2.017   2.915   3.809
 4873TIP3   OH214624   1.611   5.624   2.528
 4873TIP3    H114625   1.531   5.615   2.477
 4873TIP3    H214626   1.659   5.695   2.485
 4874TIP3   OH214627   2.050   2.918   2.036
 4874TIP3    H114628   2.097   2.933   2.118
 4874TIP3    H214629   2.019   2.827   2.043
 4875TIP3   OH214630   4.349   4.065   2.758
 4875TIP3    H114631   4.333   4.152   2.721
 4875TIP3    H214632   4.303   4.066   2.842
 4876TIP3   OH214633   2.506   1.665   0.542
 4876TIP3    H114634   2.415   1.693   0.534
 4876TIP3    H214635   2.553   1.744   0.568
 4877TIP3   OH214636   2.297   4.817   2.757
 4877TIP3    H114637   2.369   4.845   2.701
 4877TIP3    H214638   2.333   4.821   2.846
 4878TIP3   OH214639   3.835   4.068   4.050
 4878TIP3    H114640   3.929   4.089   4.058
 4878TIP3    H214641   3.816   4.016   4.128
 4879TIP3   OH214642   1.984   4.181   4.886
 4879TIP3    H114643   2.046   4.146   4.822
 4879TIP3    H214644   2.039   4.208   4.960
 4880TIP3   OH214645   3.852   1.277   2.276
 4880TIP3    H114646   3.817   1.200   2.231
 4880TIP3    H214647   3.841   1.258   2.369
 4881TIP3   OH214648   4.870   5.469   3.609
 4881TIP3    H114649   4.783   5.459   3.568
 4881TIP3    H214650   4.852   5.513   3.692
 4882TIP3   OH214651   0.528   5.786   2.547
 4882TIP3    H114652   0.514   5.699   2.510
 4882TIP3    H214653   0.511   5.776   2.641
 4883TIP3   OH214654   1.386   2.798   2.728
 4883TIP3    H114655   1.430   2.713   2.733
 4883TIP3    H214656   1.434   2.845   2.659
 4884TIP3   OH214657   2.908   0.180   4.092
 4884TIP3    H114658   2.967   0.124   4.042
 4884TIP3    H214659   2.832   0.192   4.035
 4885TIP3   OH214660   3.983   4.056   1.052
 4885TIP3    H114661   4.056   4.040   0.992
 4885TIP3    H214662   3.967   4.150   1.045
 4886TIP3   OH214663   3.309   0.360   0.117
 4886TIP3    H114664   3.318   0.438   0.173
 4886TIP3    H214665   3.372   0.298   0.153
 4887TIP3   OH214666   5.411   2.680   0.809
 4887TIP3    H114667   5.369   2.604   0.848
 4887TIP3    H214668   5.348   2.712   0.744
 4888TIP3   OH214669   5.015   2.323   3.214
 4888TIP3    H114670   5.094   2.377   3.207
 4888TIP3    H214671   4.952   2.364   3.155
 4889TIP3   OH214672   5.301   1.428   5.184
 4889TIP3    H114673   5.352   1.347   5.186
 4889TIP3    H214674   5.353   1.488   5.130
 4890TIP3   OH214675   4.096   0.286   2.909
 4890TIP3    H114676   4.155   0.251   2.976
 4890TIP3    H214677   4.015   0.235   2.920
 4891TIP3   OH214678   6.192   6.025   2.190
 4891TIP3    H114679   6.272   5.976   2.168
 4891TIP3    H214680   6.178   6.007   2.283
 4892TIP3   OH214681   2.555   4.291   1.026
 4892TIP3    H114682   2.608   4.248   0.959
 4892TIP3    H214683   2.464   4.274   0.999
 4893TIP3   OH214684   0.694   4.790   1.334
 4893TIP3    H114685   0.670   4.731   1.262
 4893TIP3    H214686   0.744   4.860   1.292
 4894TIP3   OH214687   2.756   4.504   4.657
 4894TIP3    H114688   2.801   4.589   4.664
 4894TIP3    H214689   2.675   4.524   4.610
 4895TIP3   OH214690   5.578   4.189   0.941
 4895TIP3    H114691   5.525   4.155   1.012
 4895TIP3    H214692   5.653   4.230   0.984
 4896TIP3   OH214693   4.606   2.517   2.541
 4896TIP3    H114694   4.514   2.532   2.562
 4896TIP3    H214695   4.604   2.449   2.473
 4897TIP3   OH214696   5.721   1.532   2.837
 4897TIP3    H114697   5.664   1.493   2.903
 4897TIP3    H214698   5.723   1.467   2.766
 4898TIP3   OH214699   3.615   5.279   4.061
 4898TIP3    H114700   3.666   5.207   4.023
 4898TIP3    H214701   3.556   5.307   3.991
 4899TIP3   OH214702   5.296   3.460   5.018
 4899TIP3    H114703   5.363   3.461   4.950
 4899TIP3    H214704   5.215   3.484   4.973
 4900TIP3   OH214705   3.673   5.832   3.950
 4900TIP3    H114706   3.582   5.859   3.936
 4900TIP3    H214707   3.667   5.767   4.021
 4901TIP3   OH214708   0.936   5.377   1.869
 4901TIP3    H114709   0.997   5.320   1.821
 4901TIP3    H214710   0.984   5.401   1.949
 4902TIP3   OH214711   5.794   3.282   0.690
 4902TIP3    H114712   5.859   3.248   0.629
 4902TIP3    H214713   5.845   3.320   0.761
 4903TIP3   OH214714   2.800   4.617   2.272
 4903TIP3    H114715   2.713   4.646   2.299
 4903TIP3    H214716   2.821   4.670   2.195
 4904TIP3   OH214717   5.699   2.921   1.996
 4904TIP3    H114718   5.685   2.972   1.916
 4904TIP3    H214719   5.794   2.926   2.011
 4905TIP3   OH214720   6.147   3.842   5.107
 4905TIP3    H114721   6.123   3.751   5.093
 4905TIP3    H214722   6.220   3.839   5.170
 4906TIP3   OH214723   1.429   1.915   4.938
 4906TIP3    H114724   1.424   2.009   4.951
 4906TIP3    H214725   1.341   1.883   4.959
 4907TIP3   OH214726   1.512   5.015   4.764
 4907TIP3    H114727   1.523   4.933   4.715
 4907TIP3    H214728   1.440   4.997   4.825
 4908TIP3   OH214729   4.259   3.849   0.991
 4908TIP3    H114730   4.313   3.923   1.017
 4908TIP3    H214731   4.321   3.787   0.953
 4909TIP3   OH214732   1.463   4.575   1.594
 4909TIP3    H114733   1.385   4.627   1.577
 4909TIP3    H214734   1.535   4.639   1.591
 4910TIP3   OH214735   0.642   5.792   1.721
 4910TIP3    H114736   0.588   5.835   1.654
 4910TIP3    H214737   0.661   5.706   1.684
 4911TIP3   OH214738   4.091   0.583   0.466
 4911TIP3    H114739   3.996   0.595   0.463
 4911TIP3    H214740   4.106   0.522   0.538
 4912TIP3   OH214741   0.602   5.745   2.163
 4912TIP3    H114742   0.647   5.793   2.233
 4912TIP3    H214743   0.618   5.798   2.085
 4913TIP3   OH214744   0.825   4.257   4.477
 4913TIP3    H114745   0.769   4.193   4.520
 4913TIP3    H214746   0.845   4.321   4.546
 4914TIP3   OH214747   4.611   0.797   1.783
 4914TIP3    H114748   4.658   0.714   1.779
 4914TIP3    H214749   4.536   0.785   1.725
 4915TIP3   OH214750   4.760   0.569   2.190
 4915TIP3    H114751   4.766   0.643   2.249
 4915TIP3    H214752   4.795   0.495   2.240
 4916TIP3   OH214753   4.776   5.908   2.571
 4916TIP3    H114754   4.799   5.941   2.658
 4916TIP3    H214755   4.838   5.837   2.555
 4917TIP3   OH214756   2.759   1.101   1.713
 4917TIP3    H114757   2.787   1.088   1.803
 4917TIP3    H214758   2.684   1.159   1.719
 4918TIP3   OH214759   1.664   2.401   3.157
 4918TIP3    H114760   1.586   2.453   3.180
 4918TIP3    H214761   1.734   2.466   3.148
 4919TIP3   OH214762   5.545   2.181   1.046
 4919TIP3    H114763   5.477   2.172   1.114
 4919TIP3    H214764   5.594   2.259   1.072
 4920TIP3   OH214765   5.023   1.021   4.312
 4920TIP3    H114766   4.984   0.945   4.356
 4920TIP3    H214767   5.117   1.003   4.312
 4921TIP3   OH214768   1.461   3.305   2.468
 4921TIP3    H114769   1.427   3.393   2.451
 4921TIP3    H214770   1.388   3.260   2.510
 4922TIP3   OH214771   3.517   0.185   0.265
 4922TIP3    H114772   3.533   0.145   0.350
 4922TIP3    H214773   3.568   0.132   0.203
 4923TIP3   OH214774   1.939   5.841   2.999
 4923TIP3    H114775   1.910   5.917   3.048
 4923TIP3    H214776   2.031   5.831   3.022
 4924TIP3   OH214777   3.186   2.564   2.800
 4924TIP3    H114778   3.204   2.487   2.852
 4924TIP3    H214779   3.180   2.532   2.710
 4925TIP3   OH214780   0.860   4.562   2.648
 4925TIP3    H114781   0.918   4.569   2.573
 4925TIP3    H214782   0.784   4.515   2.615
 4926TIP3   OH214783   3.063   4.592   4.566
 4926TIP3    H114784   3.081   4.530   4.636
 4926TIP3    H214785   3.144   4.594   4.515
 4927TIP3   OH214786   4.955   3.797   1.919
 4927TIP3    H114787   4.962   3.892   1.905
 4927TIP3    H214788   4.945   3.788   2.014
 4928TIP3   OH214789   0.302   3.098   2.950
 4928TIP3    H114790   0.385   3.147   2.949
 4928TIP3    H214791   0.310   3.039   3.025
 4929TIP3   OH214792   3.461   0.439   3.439
 4929TIP3    H114793   3.499   0.517   3.398
 4929TIP3    H214794   3.377   0.468   3.474
 4930TIP3   OH214795   5.023   0.334   1.852
 4930TIP3    H114796   5.007   0.331   1.758
 4930TIP3    H214797   5.111   0.370   1.861
 4931TIP3   OH214798   2.460   1.733   1.885
 4931TIP3    H114799   2.388   1.671   1.898
 4931TIP3    H214800   2.418   1.817   1.872
 4932TIP3   OH214801   1.683   5.058   3.463
 4932TIP3    H114802   1.632   4.977   3.475
 4932TIP3    H214803   1.723   5.074   3.548
 4933TIP3   OH214804   4.541   2.552   0.329
 4933TIP3    H114805   4.502   2.589   0.249
 4933TIP3    H214806   4.468   2.513   0.376
 4934TIP3   OH214807   4.263   1.501   3.102
 4934TIP3    H114808   4.238   1.478   3.012
 4934TIP3    H214809   4.250   1.595   3.107
 4935TIP3   OH214810   5.929   5.404   3.659
 4935TIP3    H114811   5.958   5.325   3.706
 4935TIP3    H214812   5.841   5.421   3.694
 4936TIP3   OH214813   5.876   3.853   4.777
 4936TIP3    H114814   5.908   3.877   4.690
 4936TIP3    H214815   5.817   3.779   4.760
 4937TIP3   OH214816   3.450   0.719   0.193
 4937TIP3    H114817   3.451   0.814   0.206
 4937TIP3    H214818   3.454   0.707   0.098
 4938TIP3   OH214819   2.674   0.182   1.878
 4938TIP3    H114820   2.656   0.088   1.886
 4938TIP3    H214821   2.689   0.195   1.784
 4939TIP3   OH214822   3.579   3.473   4.194
 4939TIP3    H114823   3.551   3.443   4.107
 4939TIP3    H214824   3.543   3.410   4.255
 4940TIP3   OH214825   4.134   3.963   2.999
 4940TIP3    H114826   4.179   4.039   3.034
 4940TIP3    H214827   4.193   3.890   3.015
 4941TIP3   OH214828   5.433   4.319   1.666
 4941TIP3    H114829   5.486   4.312   1.587
 4941TIP3    H214830   5.416   4.413   1.676
 4942TIP3   OH214831   0.416   5.268   2.911
 4942TIP3    H114832   0.510   5.248   2.905
 4942TIP3    H214833   0.400   5.278   3.005
 4943TIP3   OH214834   3.286   4.708   2.608
 4943TIP3    H114835   3.210   4.698   2.664
 4943TIP3    H214836   3.350   4.645   2.642
 4944TIP3   OH214837   4.095   5.506   4.777
 4944TIP3    H114838   4.022   5.559   4.811
 4944TIP3    H214839   4.058   5.419   4.766
 4945TIP3   OH214840   3.705   5.218   3.092
 4945TIP3    H114841   3.750   5.260   3.018
 4945TIP3    H214842   3.752   5.136   3.104
 4946TIP3   OH214843   0.442   2.785   2.229
 4946TIP3    H114844   0.479   2.759   2.314
 4946TIP3    H214845   0.369   2.842   2.251
 4947TIP3   OH214846   4.702   1.544   2.590
 4947TIP3    H114847   4.684   1.492   2.512
 4947TIP3    H214848   4.796   1.562   2.586
 4948TIP3   OH214849   3.825   4.658   1.019
 4948TIP3    H114850   3.840   4.708   1.099
 4948TIP3    H214851   3.911   4.650   0.979
 4949TIP3   OH214852   2.674   4.982   2.364
 4949TIP3    H114853   2.639   4.927   2.294
 4949TIP3    H214854   2.765   4.955   2.372
 4950TIP3   OH214855   3.726   0.243   4.482
 4950TIP3    H114856   3.779   0.319   4.455
 4950TIP3    H214857   3.636   0.268   4.459
 4951TIP3   OH214858   1.110   4.670   3.468
 4951TIP3    H114859   1.104   4.688   3.374
 4951TIP3    H214860   1.020   4.673   3.499
 4952TIP3   OH214861   5.217   5.860   5.026
 4952TIP3    H114862   5.135   5.844   5.072
 4952TIP3    H214863   5.242   5.949   5.051
 4953TIP3   OH214864   2.009   1.465   1.922
 4953TIP3    H114865   1.948   1.509   1.982
 4953TIP3    H214866   2.011   1.374   1.953
 4954TIP3   OH214867   2.250   5.053   4.544
 4954TIP3    H114868   2.335   5.092   4.565
 4954TIP3    H214869   2.264   5.007   4.461
 4955TIP3   OH214870   5.936   1.375   3.804
 4955TIP3    H114871   5.964   1.439   3.869
 4955TIP3    H214872   5.982   1.400   3.724
 4956TIP3   OH214873   0.397   3.010   2.578
 4956TIP3    H114874   0.364   2.925   2.549
 4956TIP3    H214875   0.491   3.006   2.561
 4957TIP3   OH214876   1.217   0.291   4.256
 4957TIP3    H114877   1.192   0.205   4.222
 4957TIP3    H214878   1.136   0.341   4.260
 4958TIP3   OH214879   4.090   4.600   3.363
 4958TIP3    H114880   4.078   4.568   3.452
 4958TIP3    H214881   4.182   4.583   3.342
 4959TIP3   OH214882   4.419   0.161   2.925
 4959TIP3    H114883   4.401   0.150   2.832
 4959TIP3    H214884   4.436   0.073   2.958
 4960TIP3   OH214885   1.978   2.316   1.425
 4960TIP3    H114886   1.903   2.263   1.452
 4960TIP3    H214887   1.955   2.405   1.453
 4961TIP3   OH214888   2.765   4.926   4.398
 4961TIP3    H114889   2.812   4.949   4.478
 4961TIP3    H214890   2.825   4.950   4.327
 4962TIP3   OH214891   3.666   5.280   1.870
 4962TIP3    H114892   3.745   5.227   1.880
 4962TIP3    H214893   3.622   5.242   1.794
 4963TIP3   OH214894   4.749   5.043   5.029
 4963TIP3    H114895   4.825   5.033   5.087
 4963TIP3    H214896   4.782   5.097   4.957
 4964TIP3   OH214897   4.527   1.907   4.705
 4964TIP3    H114898   4.579   1.966   4.759
 4964TIP3    H214899   4.463   1.870   4.765
 4965TIP3   OH214900   2.152   5.751   3.788
 4965TIP3    H114901   2.101   5.713   3.859
 4965TIP3    H214902   2.154   5.844   3.806
 4966TIP3   OH214903   3.672   4.213   2.889
 4966TIP3    H114904   3.682   4.299   2.928
 4966TIP3    H214905   3.610   4.225   2.817
 4967TIP3   OH214906   0.474   5.556   4.704
 4967TIP3    H114907   0.389   5.557   4.660
 4967TIP3    H214908   0.480   5.469   4.743
 4968TIP3   OH214909   1.795   0.364   1.583
 4968TIP3    H114910   1.798   0.421   1.660
 4968TIP3    H214911   1.877   0.381   1.537
 4969TIP3   OH214912   4.396   2.004   1.417
 4969TIP3    H114913   4.383   1.921   1.463
 4969TIP3    H214914   4.340   1.999   1.340
 4970TIP3   OH214915   5.916   1.963   1.240
 4970TIP3    H114916   5.904   1.872   1.269
 4970TIP3    H214917   5.852   1.974   1.170
 4971TIP3   OH214918   0.838   4.071   1.400
 4971TIP3    H114919   0.807   4.156   1.367
 4971TIP3    H214920   0.908   4.046   1.339
 4972TIP3   OH214921   0.888   4.143   2.264
 4972TIP3    H114922   0.981   4.161   2.274
 4972TIP3    H214923   0.848   4.228   2.245
 4973TIP3   OH214924   4.638   4.507   4.114
 4973TIP3    H114925   4.622   4.413   4.102
 4973TIP3    H214926   4.650   4.541   4.025
 4974TIP3   OH214927   1.016   1.874   1.800
 4974TIP3    H114928   0.956   1.935   1.843
 4974TIP3    H214929   1.054   1.925   1.728
 4975TIP3   OH214930   4.062   2.687   4.182
 4975TIP3    H114931   4.078   2.714   4.273
 4975TIP3    H214932   4.149   2.661   4.150
 4976TIP3   OH214933   3.962   2.482   2.032
 4976TIP3    H114934   3.962   2.457   1.940
 4976TIP3    H214935   3.902   2.422   2.075
 4977TIP3   OH214936   1.189   5.951   3.083
 4977TIP3    H114937   1.247   5.947   3.159
 4977TIP3    H214938   1.131   5.876   3.093
 4978TIP3   OH214939   5.340   4.613   1.367
 4978TIP3    H114940   5.382   4.538   1.324
 4978TIP3    H214941   5.251   4.615   1.329
 4979TIP3   OH214942   5.726   2.890   2.542
 4979TIP3    H114943   5.653   2.834   2.567
 4979TIP3    H214944   5.792   2.831   2.506
 4980TIP3   OH214945   3.751   5.706   1.141
 4980TIP3    H114946   3.811   5.727   1.212
 4980TIP3    H214947   3.722   5.790   1.108
 4981TIP3   OH214948   5.884   4.227   0.173
 4981TIP3    H114949   5.795   4.197   0.156
 4981TIP3    H214950   5.874   4.309   0.220
 4982TIP3   OH214951   4.129   3.062   0.513
 4982TIP3    H114952   4.183   3.104   0.446
 4982TIP3    H214953   4.066   3.129   0.539
 4983TIP3   OH214954   2.536   4.364   4.059
 4983TIP3    H114955   2.442   4.347   4.061
 4983TIP3    H214956   2.574   4.284   4.021
 4984TIP3   OH214957   1.254   2.918   3.973
 4984TIP3    H114958   1.174   2.888   3.931
 4984TIP3    H214959   1.294   2.837   4.007
 4985TIP3   OH214960   0.129   4.473   2.634
 4985TIP3    H114961   0.173   4.558   2.637
 4985TIP3    H214962   0.198   4.410   2.614
 4986TIP3   OH214963   4.037   0.650   5.120
 4986TIP3    H114964   4.089   0.686   5.049
 4986TIP3    H214965   4.016   0.561   5.091
 4987TIP3   OH214966   0.646   3.986   4.651
 4987TIP3    H114967   0.729   3.951   4.683
 4987TIP3    H214968   0.638   4.071   4.695
 4988TIP3   OH214969   1.660   2.198   4.241
 4988TIP3    H114970   1.669   2.273   4.301
 4988TIP3    H214971   1.566   2.187   4.231
 4989TIP3   OH214972   4.773   3.229   2.837
 4989TIP3    H114973   4.749   3.308   2.789
 4989TIP3    H214974   4.704   3.166   2.817
 4990TIP3   OH214975   3.364   1.157   3.878
 4990TIP3    H114976   3.356   1.210   3.958
 4990TIP3    H214977   3.443   1.190   3.836
 4991TIP3   OH214978   2.316   1.402   4.236
 4991TIP3    H114979   2.376   1.328   4.235
 4991TIP3    H214980   2.251   1.382   4.169
 4992TIP3   OH214981   2.302   3.714   4.618
 4992TIP3    H114982   2.280   3.648   4.553
 4992TIP3    H214983   2.397   3.707   4.628
 4993TIP3   OH214984   3.678   0.411   0.408
 4993TIP3    H114985   3.584   0.413   0.426
 4993TIP3    H214986   3.709   0.498   0.433
 4994TIP3   OH214987   4.635   4.078   0.172
 4994TIP3    H114988   4.658   4.151   0.115
 4994TIP3    H214989   4.572   4.115   0.234
 4995TIP3   OH214990   2.583   4.575   0.908
 4995TIP3    H114991   2.538   4.529   0.979
 4995TIP3    H214992   2.515   4.628   0.866
 4996TIP3   OH214993   0.553   3.258   3.659
 4996TIP3    H114994   0.471   3.214   3.683
 4996TIP3    H214995   0.530   3.312   3.583
 4997TIP3   OH214996   0.633   1.362   3.926
 4997TIP3    H114997   0.573   1.353   3.852
 4997TIP3    H214998   0.661   1.272   3.945
 4998TIP3   OH214999   4.553   1.229   1.272
 4998TIP3    H115000   4.461   1.204   1.273
 4998TIP3    H215001   4.583   1.210   1.183
 4999TIP3   OH215002   1.289   4.795   1.845
 4999TIP3    H115003   1.247   4.710   1.857
 4999TIP3    H215004   1.366   4.793   1.902
 5000TIP3   OH215005   2.247   5.653   1.265
 5000TIP3    H115006   2.270   5.630   1.175
 5000TIP3    H215007   2.222   5.746   1.260
 5001TIP3   OH215008   3.278   5.387   1.273
 5001TIP3    H115009   3.317   5.306   1.308
 5001TIP3    H215010   3.324   5.457   1.320
 5002TIP3   OH215011   2.768   5.691   3.334
 5002TIP3    H115012   2.707   5.659   3.401
 5002TIP3    H215013   2.729   5.664   3.251
 5003TIP3   OH215014   4.531   5.097   3.599
 5003TIP3    H115015   4.443   5.098   3.637
 5003TIP3    H215016   4.548   5.005   3.580
 5004TIP3   OH215017   0.883   2.772   4.990
 5004TIP3    H115018   0.843   2.685   4.991
 5004TIP3    H215019   0.951   2.766   4.923
 5005TIP3   OH215020   5.908   3.892   3.432
 5005TIP3    H115021   5.870   3.890   3.520
 5005TIP3    H215022   5.991   3.845   3.441
 5006TIP3   OH215023   6.222   4.558   4.873
 5006TIP3    H115024   6.129   4.554   4.852
 5006TIP3    H215025   6.264   4.595   4.795
 5007TIP3   OH215026   5.260   4.744   1.036
 5007TIP3    H115027   5.211   4.775   1.112
 5007TIP3    H215028   5.197   4.691   0.987
 5008TIP3   OH215029   4.757   4.768   4.162
 5008TIP3    H115030   4.701   4.698   4.127
 5008TIP3    H215031   4.771   4.743   4.253
 5009TIP3   OH215032   6.379   4.994   0.306
 5009TIP3    H115033   6.358   4.935   0.233
 5009TIP3    H215034   6.353   4.945   0.384
 5010TIP3   OH215035   0.644   3.052   5.029
 5010TIP3    H115036   0.735   3.072   5.050
 5010TIP3    H215037   0.635   2.959   5.051
 5011TIP3   OH215038   4.022   1.048   4.317
 5011TIP3    H115039   3.939   1.066   4.272
 5011TIP3    H215040   4.002   1.060   4.410
 5012TIP3   OH215041   0.507   3.001   0.367
 5012TIP3    H115042   0.468   2.914   0.374
 5012TIP3    H215043   0.435   3.061   0.389
 5013TIP3   OH215044   4.699   0.015   3.106
 5013TIP3    H115045   4.661   0.102   3.123
 5013TIP3    H215046   4.654  -0.044   3.166
 5014TIP3   OH215047   1.681   3.253   1.498
 5014TIP3    H115048   1.757   3.276   1.551
 5014TIP3    H215049   1.718   3.233   1.411
 5015TIP3   OH215050   5.655   3.923   0.606
 5015TIP3    H115051   5.712   3.950   0.533
 5015TIP3    H215052   5.614   3.843   0.575
 5016TIP3   OH215053   1.903   3.090   4.370
 5016TIP3    H115054   1.911   3.032   4.445
 5016TIP3    H215055   1.986   3.079   4.322
 5017TIP3   OH215056   1.760   5.052   4.924
 5017TIP3    H115057   1.790   4.979   4.870
 5017TIP3    H215058   1.670   5.068   4.893
 5018TIP3   OH215059   1.388   5.608   2.966
 5018TIP3    H115060   1.350   5.685   2.924
 5018TIP3    H215061   1.473   5.597   2.925
 5019TIP3   OH215062   3.167   4.413   0.098
 5019TIP3    H115063   3.157   4.409   0.003
 5019TIP3    H215064   3.149   4.324   0.128
 5020TIP3   OH215065   2.793   2.620   4.716
 5020TIP3    H115066   2.805   2.526   4.724
 5020TIP3    H215067   2.714   2.639   4.767
 5021TIP3   OH215068   0.729   3.265   3.111
 5021TIP3    H115069   0.824   3.277   3.109
 5021TIP3    H215070   0.715   3.201   3.181
 5022TIP3   OH215071   2.906   0.656   4.838
 5022TIP3    H115072   2.902   0.580   4.895
 5022TIP3    H215073   2.997   0.660   4.808
 5023TIP3   OH215074   1.716   4.879   2.828
 5023TIP3    H115075   1.687   4.800   2.781
 5023TIP3    H215076   1.795   4.906   2.782
 5024TIP3   OH215077   1.653   5.401   1.244
 5024TIP3    H115078   1.559   5.421   1.244
 5024TIP3    H215079   1.685   5.437   1.327
 5025TIP3   OH215080   1.250   0.603   0.772
 5025TIP3    H115081   1.237   0.697   0.767
 5025TIP3    H215082   1.177   0.571   0.825
 5026TIP3   OH215083   5.069   4.499   2.506
 5026TIP3    H115084   5.097   4.582   2.468
 5026TIP3    H215085   5.147   4.443   2.501
 5027TIP3   OH215086   1.559   4.527   2.226
 5027TIP3    H115087   1.609   4.594   2.273
 5027TIP3    H215088   1.601   4.522   2.140
 5028TIP3   OH215089   0.891   3.597   1.212
 5028TIP3    H115090   0.816   3.581   1.269
 5028TIP3    H215091   0.966   3.560   1.260
 5029TIP3   OH215092   0.152   3.187   4.135
 5029TIP3    H115093   0.122   3.149   4.052
 5029TIP3    H215094   0.075   3.189   4.191
 5030TIP3   OH215095   5.447   4.106   2.203
 5030TIP3    H115096   5.474   4.135   2.290
 5030TIP3    H215097   5.378   4.167   2.178
 5031TIP3   OH215098   1.072   2.588   0.845
 5031TIP3    H115099   1.003   2.577   0.780
 5031TIP3    H215100   1.149   2.549   0.806
 5032TIP3   OH215101   3.258   2.397   3.511
 5032TIP3    H115102   3.307   2.394   3.429
 5032TIP3    H215103   3.243   2.490   3.526
 5033TIP3   OH215104   4.132   1.512   3.663
 5033TIP3    H115105   4.060   1.576   3.665
 5033TIP3    H215106   4.095   1.434   3.704
 5034TIP3   OH215107   3.625   2.268   1.600
 5034TIP3    H115108   3.614   2.348   1.651
 5034TIP3    H215109   3.718   2.247   1.607
 5035TIP3   OH215110   5.864   5.305   1.622
 5035TIP3    H115111   5.893   5.349   1.542
 5035TIP3    H215112   5.897   5.215   1.613
 5036TIP3   OH215113   1.004   2.274   3.179
 5036TIP3    H115114   0.956   2.191   3.174
 5036TIP3    H215115   1.067   2.261   3.250
 5037TIP3   OH215116   0.754   1.085   4.020
 5037TIP3    H115117   0.680   1.024   4.016
 5037TIP3    H215118   0.773   1.092   4.114
 5038TIP3   OH215119   2.997   0.328   0.055
 5038TIP3    H115120   2.962   0.367   0.135
 5038TIP3    H215121   2.934   0.260   0.032
 5039TIP3   OH215122   2.685   5.570   0.283
 5039TIP3    H115123   2.672   5.508   0.211
 5039TIP3    H215124   2.758   5.625   0.255
 5040TIP3   OH215125   1.203   1.654   2.336
 5040TIP3    H115126   1.218   1.582   2.275
 5040TIP3    H215127   1.110   1.674   2.327
 5041TIP3   OH215128   3.831   3.293   2.765
 5041TIP3    H115129   3.918   3.335   2.768
 5041TIP3    H215130   3.833   3.241   2.685
 5042TIP3   OH215131   2.154   4.973   1.964
 5042TIP3    H115132   2.112   5.057   1.947
 5042TIP3    H215133   2.083   4.909   1.960
 5043TIP3   OH215134   1.938   5.142   0.534
 5043TIP3    H115135   1.849   5.122   0.564
 5043TIP3    H215136   1.926   5.181   0.447
 5044TIP3   OH215137   0.194   0.179   0.352
 5044TIP3    H115138   0.156   0.226   0.426
 5044TIP3    H215139   0.138   0.103   0.341
 5045TIP3   OH215140   3.905   2.095   0.131
 5045TIP3    H115141   3.902   2.176   0.182
 5045TIP3    H215142   3.992   2.095   0.091
 5046TIP3   OH215143   1.007   3.236   1.070
 5046TIP3    H115144   1.007   3.293   1.147
 5046TIP3    H215145   1.098   3.233   1.042
 5047TIP3   OH215146   1.636   2.745   3.777
 5047TIP3    H115147   1.654   2.724   3.869
 5047TIP3    H215148   1.588   2.828   3.780
 5048TIP3   OH215149   4.914   4.545   4.757
 5048TIP3    H115150   4.851   4.476   4.737
 5048TIP3    H215151   4.949   4.521   4.843
 5049TIP3   OH215152   5.178   5.518   4.908
 5049TIP3    H115153   5.231   5.503   4.987
 5049TIP3    H215154   5.215   5.597   4.869
 5050TIP3   OH215155   5.151   4.339   2.151
 5050TIP3    H115156   5.235   4.379   2.130
 5050TIP3    H215157   5.089   4.382   2.093
 5051TIP3   OH215158   4.273   2.594   4.592
 5051TIP3    H115159   4.346   2.650   4.620
 5051TIP3    H215160   4.229   2.644   4.524
 5052TIP3   OH215161   1.305   3.733   2.950
 5052TIP3    H115162   1.328   3.824   2.934
 5052TIP3    H215163   1.244   3.710   2.880
 5053TIP3   OH215164   4.794   5.664   1.068
 5053TIP3    H115165   4.872   5.617   1.097
 5053TIP3    H215166   4.787   5.737   1.129
 5054TIP3   OH215167   3.671   5.833   3.291
 5054TIP3    H115168   3.758   5.841   3.251
 5054TIP3    H215169   3.654   5.920   3.328
 5055TIP3   OH215170   2.844   5.072   0.327
 5055TIP3    H115171   2.905   5.074   0.401
 5055TIP3    H215172   2.810   4.983   0.326
 5056TIP3   OH215173   0.276   4.996   3.209
 5056TIP3    H115174   0.236   4.972   3.125
 5056TIP3    H215175   0.310   5.084   3.194
 5057TIP3   OH215176   3.239   3.278   2.954
 5057TIP3    H115177   3.156   3.304   2.995
 5057TIP3    H215178   3.306   3.320   3.007
 5058TIP3   OH215179   1.695   3.306   3.941
 5058TIP3    H115180   1.692   3.382   3.882
 5058TIP3    H215181   1.671   3.341   4.026
 5059TIP3   OH215182   4.508   0.642   1.335
 5059TIP3    H115183   4.432   0.608   1.287
 5059TIP3    H215184   4.470   0.692   1.408
 5060TIP3   OH215185   0.509   0.326   5.104
 5060TIP3    H115186   0.415   0.310   5.090
 5060TIP3    H215187   0.553   0.261   5.048
 5061TIP3   OH215188   2.668   2.133   1.499
 5061TIP3    H115189   2.633   2.167   1.416
 5061TIP3    H215190   2.656   2.204   1.562
 5062TIP3   OH215191   4.163   0.467   0.697
 5062TIP3    H115192   4.192   0.377   0.709
 5062TIP3    H215193   4.125   0.492   0.781
 5063TIP3   OH215194   0.019   2.087   1.675
 5063TIP3    H115195   0.059   2.173   1.691
 5063TIP3    H215196   0.013   2.047   1.761
 5064TIP3   OH215197   1.420   4.157   0.309
 5064TIP3    H115198   1.443   4.148   0.402
 5064TIP3    H215199   1.488   4.107   0.263
 5065TIP3   OH215200   2.503   3.402   0.798
 5065TIP3    H115201   2.598   3.393   0.787
 5065TIP3    H215202   2.479   3.471   0.736
 5066TIP3   OH215203   6.074   0.852   3.151
 5066TIP3    H115204   5.988   0.839   3.191
 5066TIP3    H215205   6.066   0.812   3.064
 5067TIP3   OH215206   2.758   5.508   2.299
 5067TIP3    H115207   2.851   5.489   2.293
 5067TIP3    H215208   2.715   5.431   2.260
 5068TIP3   OH215209   0.507   3.037   4.045
 5068TIP3    H115210   0.551   2.962   4.085
 5068TIP3    H215211   0.432   2.999   4.000
 5069TIP3   OH215212   4.407   1.594   0.707
 5069TIP3    H115213   4.393   1.543   0.787
 5069TIP3    H215214   4.392   1.533   0.636
 5070TIP3   OH215215   4.305   2.113   5.178
 5070TIP3    H115216   4.330   2.025   5.207
 5070TIP3    H215217   4.383   2.166   5.195
 5071TIP3   OH215218   6.009   2.147   4.300
 5071TIP3    H115219   6.076   2.210   4.330
 5071TIP3    H215220   6.035   2.064   4.340
 5072TIP3   OH215221   2.149   5.365   1.514
 5072TIP3    H115222   2.165   5.459   1.528
 5072TIP3    H215223   2.065   5.348   1.556
 5073TIP3   OH215224   2.318   0.710   3.800
 5073TIP3    H115225   2.325   0.625   3.758
 5073TIP3    H215226   2.379   0.766   3.753
 5074TIP3   OH215227   4.403   5.243   5.068
 5074TIP3    H115228   4.495   5.270   5.072
 5074TIP3    H215229   4.388   5.200   5.153
 5075TIP3   OH215230   5.185   3.535   0.511
 5075TIP3    H115231   5.279   3.549   0.508
 5075TIP3    H215232   5.174   3.440   0.498
 5076TIP3   OH215233   5.755   1.115   4.838
 5076TIP3    H115234   5.776   1.033   4.882
 5076TIP3    H215235   5.783   1.183   4.899
 5077TIP3   OH215236   2.160   2.720   1.150
 5077TIP3    H115237   2.065   2.732   1.152
 5077TIP3    H215238   2.182   2.688   1.237
 5078TIP3   OH215239   4.643   4.782   2.478
 5078TIP3    H115240   4.693   4.813   2.554
 5078TIP3    H215241   4.554   4.771   2.511
 5079TIP3   OH215242   1.930   0.860   2.871
 5079TIP3    H115243   1.983   0.804   2.928
 5079TIP3    H215244   1.854   0.882   2.924
 5080TIP3   OH215245   6.315   5.017   3.910
 5080TIP3    H115246   6.275   5.052   3.830
 5080TIP3    H215247   6.240   4.996   3.967
 5081TIP3   OH215248   1.017   2.202   1.245
 5081TIP3    H115249   0.927   2.232   1.252
 5081TIP3    H215250   1.070   2.276   1.276
 5082TIP3   OH215251   1.527   5.532   4.475
 5082TIP3    H115252   1.614   5.495   4.460
 5082TIP3    H215253   1.484   5.468   4.532
 5083TIP3   OH215254   2.782   0.459   3.870
 5083TIP3    H115255   2.773   0.493   3.781
 5083TIP3    H215256   2.730   0.378   3.870
 5084TIP3   OH215257   5.600   5.302   0.151
 5084TIP3    H115258   5.527   5.264   0.200
 5084TIP3    H215259   5.559   5.371   0.098
 5085TIP3   OH215260   5.214   1.838   1.084
 5085TIP3    H115261   5.282   1.862   1.148
 5085TIP3    H215262   5.192   1.921   1.041
 5086TIP3   OH215263   2.041   1.885   3.888
 5086TIP3    H115264   2.063   1.978   3.892
 5086TIP3    H215265   1.989   1.875   3.809
 5087TIP3   OH215266   3.639   0.018   0.072
 5087TIP3    H115267   3.642   0.083   0.003
 5087TIP3    H215268   3.728   0.014   0.105
 5088TIP3   OH215269   3.783   2.985   0.678
 5088TIP3    H115270   3.822   3.072   0.679
 5088TIP3    H215271   3.689   3.001   0.682
 5089TIP3   OH215272   2.993   3.519   2.262
 5089TIP3    H115273   2.912   3.494   2.218
 5089TIP3    H215274   3.061   3.466   2.220
 5090TIP3   OH215275   5.236   2.464   3.312
 5090TIP3    H115276   5.238   2.451   3.406
 5090TIP3    H215277   5.297   2.536   3.296
 5091TIP3   OH215278   1.614   5.303   1.738
 5091TIP3    H115279   1.691   5.251   1.758
 5091TIP3    H215280   1.583   5.335   1.823
 5092TIP3   OH215281   3.927   4.121   1.445
 5092TIP3    H115282   3.949   4.214   1.449
 5092TIP3    H215283   3.835   4.116   1.469
 5093TIP3   OH215284   4.528   4.433   1.506
 5093TIP3    H115285   4.620   4.433   1.481
 5093TIP3    H215286   4.528   4.447   1.600
 5094TIP3   OH215287   3.546   3.163   2.643
 5094TIP3    H115288   3.579   3.096   2.703
 5094TIP3    H215289   3.625   3.201   2.604
 5095TIP3   OH215290   4.762   4.231   4.350
 5095TIP3    H115291   4.699   4.303   4.360
 5095TIP3    H215292   4.804   4.224   4.435
 5096TIP3   OH215293   2.658   4.797   3.869
 5096TIP3    H115294   2.579   4.755   3.903
 5096TIP3    H215295   2.718   4.725   3.853
 5097TIP3   OH215296   5.139   2.332   1.581
 5097TIP3    H115297   5.197   2.257   1.596
 5097TIP3    H215298   5.111   2.324   1.490
 5098TIP3   OH215299   1.418   2.690   1.758
 5098TIP3    H115300   1.352   2.628   1.727
 5098TIP3    H215301   1.402   2.696   1.853
 5099TIP3   OH215302   0.406   0.003   3.202
 5099TIP3    H115303   0.417  -0.079   3.153
 5099TIP3    H215304   0.494   0.025   3.233
 5100TIP3   OH215305   1.129   2.250   4.870
 5100TIP3    H115306   1.043   2.294   4.872
 5100TIP3    H215307   1.166   2.275   4.785
 5101TIP3   OH215308   4.105   1.953   4.276
 5101TIP3    H115309   4.122   1.979   4.186
 5101TIP3    H215310   4.186   1.914   4.306
 5102TIP3   OH215311   5.518   3.983   1.437
 5102TIP3    H115312   5.546   4.074   1.439
 5102TIP3    H215313   5.457   3.978   1.363
 5103TIP3   OH215314   4.671   3.360   3.982
 5103TIP3    H115315   4.741   3.300   3.957
 5103TIP3    H215316   4.698   3.444   3.947
 5104TIP3   OH215317   3.802   1.737   2.377
 5104TIP3    H115318   3.882   1.776   2.342
 5104TIP3    H215319   3.766   1.687   2.304
 5105TIP3   OH215320   6.249   0.071   4.646
 5105TIP3    H115321   6.208   0.154   4.620
 5105TIP3    H215322   6.256   0.077   4.741
 5106TIP3   OH215323   5.122  -0.015   3.027
 5106TIP3    H115324   5.187  -0.083   3.047
 5106TIP3    H215325   5.166   0.067   3.049
 5107TIP3   OH215326   5.445   1.156   1.700
 5107TIP3    H115327   5.389   1.081   1.679
 5107TIP3    H215328   5.534   1.120   1.697
 5108TIP3   OH215329   0.978   3.182   1.517
 5108TIP3    H115330   1.014   3.261   1.558
 5108TIP3    H215331   0.890   3.207   1.491
 5109TIP3   OH215332   2.737   0.626   3.204
 5109TIP3    H115333   2.769   0.543   3.238
 5109TIP3    H215334   2.733   0.613   3.109
 5110TIP3   OH215335   5.491   3.189   2.599
 5110TIP3    H115336   5.468   3.233   2.681
 5110TIP3    H215337   5.587   3.188   2.598
 5111TIP3   OH215338   4.768   3.161   1.302
 5111TIP3    H115339   4.841   3.221   1.287
 5111TIP3    H215340   4.694   3.199   1.255
 5112TIP3   OH215341   6.329   0.314   4.338
 5112TIP3    H115342   6.331   0.396   4.289
 5112TIP3    H215343   6.421   0.291   4.350
 5113TIP3   OH215344   3.929   2.747   0.285
 5113TIP3    H115345   3.917   2.695   0.206
 5113TIP3    H215346   3.853   2.806   0.287
 5114TIP3   OH215347   2.208   0.738   1.716
 5114TIP3    H115348   2.147   0.798   1.674
 5114TIP3    H215349   2.266   0.710   1.646
 5115TIP3   OH215350   5.515   3.007   0.313
 5115TIP3    H115351   5.438   2.968   0.355
 5115TIP3    H215352   5.538   2.946   0.243
 5116TIP3   OH215353   4.608   2.315   3.915
 5116TIP3    H115354   4.690   2.334   3.960
 5116TIP3    H215355   4.633   2.307   3.823
 5117TIP3   OH215356   1.885   5.458   0.093
 5117TIP3    H115357   1.969   5.454   0.047
 5117TIP3    H215358   1.891   5.539   0.145
 5118TIP3   OH215359   4.503   2.979   3.959
 5118TIP3    H115360   4.581   2.926   3.946
 5118TIP3    H215361   4.500   2.995   4.054
 5119TIP3   OH215362   3.306   5.358   1.805
 5119TIP3    H115363   3.371   5.301   1.764
 5119TIP3    H215364   3.332   5.363   1.896
 5120TIP3   OH215365   5.744   0.952   1.068
 5120TIP3    H115366   5.744   0.857   1.084
 5120TIP3    H215367   5.829   0.969   1.029
 5121TIP3   OH215368   5.369   3.188   2.215
 5121TIP3    H115369   5.374   3.256   2.283
 5121TIP3    H215370   5.441   3.129   2.234
 5122TIP3   OH215371   4.314   4.079   1.333
 5122TIP3    H115372   4.320   4.160   1.283
 5122TIP3    H215373   4.306   4.108   1.424
 5123TIP3   OH215374   4.009   4.043   3.498
 5123TIP3    H115375   3.946   3.976   3.470
 5123TIP3    H215376   3.964   4.126   3.479
 5124TIP3   OH215377   1.671   1.371   0.481
 5124TIP3    H115378   1.592   1.339   0.524
 5124TIP3    H215379   1.739   1.366   0.548
 5125TIP3   OH215380   3.458   2.137   4.606
 5125TIP3    H115381   3.485   2.075   4.673
 5125TIP3    H215382   3.409   2.085   4.543
 5126TIP3   OH215383   4.657   4.705   0.761
 5126TIP3    H115384   4.681   4.616   0.736
 5126TIP3    H215385   4.584   4.727   0.704
 5127TIP3   OH215386   0.314   0.522   0.701
 5127TIP3    H115387   0.335   0.460   0.772
 5127TIP3    H215388   0.225   0.550   0.720
 5128TIP3   OH215389   3.009   2.799   2.439
 5128TIP3    H115390   2.970   2.728   2.389
 5128TIP3    H215391   2.943   2.821   2.505
 5129TIP3   OH215392   1.439   1.690   1.134
 5129TIP3    H115393   1.504   1.627   1.166
 5129TIP3    H215394   1.355   1.645   1.143
 5130TIP3   OH215395   6.110   2.911   3.177
 5130TIP3    H115396   6.113   2.836   3.117
 5130TIP3    H215397   6.194   2.955   3.164
 5131TIP3   OH215398   2.886   3.410   2.523
 5131TIP3    H115399   2.947   3.441   2.456
 5131TIP3    H215400   2.943   3.385   2.597
 5132TIP3   OH215401   3.454   1.453   2.268
 5132TIP3    H115402   3.495   1.400   2.337
 5132TIP3    H215403   3.528   1.489   2.219
 5133TIP3   OH215404   6.040   4.843   0.573
 5133TIP3    H115405   6.081   4.765   0.610
 5133TIP3    H215406   6.009   4.892   0.649
 5134TIP3   OH215407   2.473   5.165   3.756
 5134TIP3    H115408   2.519   5.221   3.693
 5134TIP3    H215409   2.513   5.187   3.840
 5135TIP3   OH215410   2.805   4.564   3.331
 5135TIP3    H115411   2.819   4.659   3.331
 5135TIP3    H215412   2.841   4.534   3.248
 5136TIP3   OH215413   1.001   1.330   0.912
 5136TIP3    H115414   0.993   1.422   0.935
 5136TIP3    H215415   0.995   1.283   0.995
 5137TIP3   OH215416   6.258   1.526   3.780
 5137TIP3    H115417   6.216   1.577   3.710
 5137TIP3    H215418   6.335   1.577   3.803
 5138TIP3   OH215419   5.927   5.287   2.994
 5138TIP3    H115420   5.862   5.257   3.058
 5138TIP3    H215421   6.011   5.267   3.034
 5139TIP3   OH215422   1.326   4.013   2.683
 5139TIP3    H115423   1.332   4.038   2.776
 5139TIP3    H215424   1.397   4.063   2.641
 5140TIP3   OH215425   3.513   1.723   3.903
 5140TIP3    H115426   3.484   1.704   3.814
 5140TIP3    H215427   3.606   1.743   3.894
 5141TIP3   OH215428   1.837   5.017  -0.023
 5141TIP3    H115429   1.896   5.029   0.052
 5141TIP3    H215430   1.840   4.924  -0.042
 5142TIP3   OH215431   2.300   2.314   0.796
 5142TIP3    H115432   2.313   2.233   0.845
 5142TIP3    H215433   2.343   2.381   0.849
 5143TIP3   OH215434   1.316   1.875   0.637
 5143TIP3    H115435   1.342   1.814   0.706
 5143TIP3    H215436   1.389   1.936   0.630
 5144TIP3   OH215437   3.380   2.112   0.475
 5144TIP3    H115438   3.342   2.086   0.559
 5144TIP3    H215439   3.364   2.037   0.417
 5145TIP3   OH215440   0.382   2.729   1.542
 5145TIP3    H115441   0.387   2.812   1.494
 5145TIP3    H215442   0.289   2.712   1.551
 5146TIP3   OH215443   5.227   0.741   2.918
 5146TIP3    H115444   5.142   0.749   2.875
 5146TIP3    H215445   5.271   0.669   2.873
 5147TIP3   OH215446   4.801   3.328   4.670
 5147TIP3    H115447   4.727   3.362   4.719
 5147TIP3    H215448   4.770   3.319   4.580
 5148TIP3   OH215449   2.401   0.569   1.572
 5148TIP3    H115450   2.377   0.484   1.535
 5148TIP3    H215451   2.418   0.624   1.496
 5149TIP3   OH215452   0.145   3.558   3.384
 5149TIP3    H115453   0.069   3.500   3.382
 5149TIP3    H215454   0.145   3.602   3.299
 5150TIP3   OH215455   5.582   2.278   3.627
 5150TIP3    H115456   5.516   2.346   3.610
 5150TIP3    H215457   5.590   2.232   3.544
 5151TIP3   OH215458   4.641   2.746   3.978
 5151TIP3    H115459   4.630   2.690   4.055
 5151TIP3    H215460   4.608   2.693   3.905
 5152TIP3   OH215461   2.930   4.541   3.039
 5152TIP3    H115462   2.931   4.635   3.058
 5152TIP3    H215463   2.844   4.525   3.000
 5153TIP3   OH215464   4.538   3.632   4.656
 5153TIP3    H115465   4.463   3.600   4.607
 5153TIP3    H215466   4.613   3.617   4.598
 5154TIP3   OH215467   6.286   3.555   2.310
 5154TIP3    H115468   6.348   3.610   2.261
 5154TIP3    H215469   6.295   3.584   2.401
 5155TIP3   OH215470   2.746   5.274   2.135
 5155TIP3    H115471   2.838   5.253   2.118
 5155TIP3    H215472   2.700   5.193   2.114
 5156TIP3   OH215473   2.828   1.300   1.255
 5156TIP3    H115474   2.742   1.296   1.213
 5156TIP3    H215475   2.864   1.212   1.244
 5157TIP3   OH215476   0.050   4.282   4.945
 5157TIP3    H115477   0.030   4.298   4.852
 5157TIP3    H215478   0.089   4.363   4.976
 5158TIP3   OH215479   5.980   0.984   1.607
 5158TIP3    H115480   5.908   0.931   1.572
 5158TIP3    H215481   5.967   0.981   1.702
 5159TIP3   OH215482   0.076   0.919   0.498
 5159TIP3    H115483  -0.016   0.923   0.473
 5159TIP3    H215484   0.116   0.859   0.435
 5160TIP3   OH215485   1.595   0.412   4.664
 5160TIP3    H115486   1.605   0.498   4.704
 5160TIP3    H215487   1.509   0.381   4.695
 5161TIP3   OH215488   0.094   0.199   1.941
 5161TIP3    H115489   0.133   0.254   1.873
 5161TIP3    H215490   0.005   0.232   1.950
 5162TIP3   OH215491   3.539   0.378   4.832
 5162TIP3    H115492   3.605   0.309   4.830
 5162TIP3    H215493   3.542   0.411   4.921
 5163TIP3   OH215494   3.542   1.240   1.641
 5163TIP3    H115495   3.493   1.304   1.590
 5163TIP3    H215496   3.628   1.281   1.655
 5164TIP3   OH215497   1.387   4.306   4.988
 5164TIP3    H115498   1.369   4.212   4.987
 5164TIP3    H215499   1.458   4.318   4.926
 5165TIP3   OH215500   4.381   4.521   0.792
 5165TIP3    H115501   4.289   4.495   0.791
 5165TIP3    H215502   4.423   4.457   0.850
 5166TIP3   OH215503   4.979   3.974   4.898
 5166TIP3    H115504   4.998   3.882   4.880
 5166TIP3    H215505   5.048   4.022   4.853
 5167TIP3   OH215506   1.567   5.647   3.242
 5167TIP3    H115507   1.493   5.653   3.303
 5167TIP3    H215508   1.532   5.597   3.167
 5168TIP3   OH215509   4.988   0.105   1.191
 5168TIP3    H115510   4.993   0.086   1.285
 5168TIP3    H215511   5.020   0.026   1.149
 5169TIP3   OH215512   4.671   0.423   4.669
 5169TIP3    H115513   4.651   0.517   4.662
 5169TIP3    H215514   4.753   0.412   4.620
 5170TIP3   OH215515   5.577   5.030   1.907
 5170TIP3    H115516   5.556   4.937   1.919
 5170TIP3    H215517   5.672   5.033   1.905
 5171TIP3   OH215518   2.971   3.966   5.134
 5171TIP3    H115519   2.975   3.894   5.197
 5171TIP3    H215520   3.025   3.937   5.061
 5172TIP3   OH215521   0.977   2.503   0.194
 5172TIP3    H115522   0.931   2.462   0.267
 5172TIP3    H215523   1.066   2.467   0.197
 5173TIP3   OH215524   2.407   1.430   2.990
 5173TIP3    H115525   2.382   1.515   2.956
 5173TIP3    H215526   2.361   1.366   2.936
 5174TIP3   OH215527   1.377   1.639   0.253
 5174TIP3    H115528   1.339   1.559   0.289
 5174TIP3    H215529   1.303   1.691   0.224
 5175TIP3   OH215530   0.876   2.391   2.932
 5175TIP3    H115531   0.876   2.370   2.838
 5175TIP3    H215532   0.967   2.410   2.953
 5176TIP3   OH215533   3.747   5.303   3.508
 5176TIP3    H115534   3.746   5.212   3.478
 5176TIP3    H215535   3.679   5.307   3.576
 5177TIP3   OH215536   5.960   4.299   1.400
 5177TIP3    H115537   5.904   4.308   1.323
 5177TIP3    H215538   6.002   4.385   1.408
 5178TIP3   OH215539   4.350   2.983   1.901
 5178TIP3    H115540   4.259   3.012   1.904
 5178TIP3    H215541   4.366   2.967   1.808
 5179TIP3   OH215542   0.413   5.078   1.618
 5179TIP3    H115543   0.381   5.001   1.571
 5179TIP3    H215544   0.505   5.058   1.637
 5180TIP3   OH215545   4.345   0.371   4.385
 5180TIP3    H115546   4.327   0.381   4.291
 5180TIP3    H215547   4.428   0.416   4.398
 5181TIP3   OH215548   3.391   2.087   1.100
 5181TIP3    H115549   3.312   2.140   1.110
 5181TIP3    H215550   3.437   2.096   1.183
 5182TIP3   OH215551   4.732   3.634   1.435
 5182TIP3    H115552   4.648   3.672   1.460
 5182TIP3    H215553   4.786   3.641   1.513
 5183TIP3   OH215554   3.761   0.744   0.895
 5183TIP3    H115555   3.716   0.661   0.915
 5183TIP3    H215556   3.735   0.803   0.965
 5184TIP3   OH215557   4.227   4.624   3.857
 5184TIP3    H115558   4.299   4.684   3.880
 5184TIP3    H215559   4.258   4.538   3.886
 5185TIP3   OH215560   0.176   4.598   1.546
 5185TIP3    H115561   0.121   4.524   1.520
 5185TIP3    H215562   0.117   4.654   1.597
 5186TIP3   OH215563   4.906   2.743   3.521
 5186TIP3    H115564   4.868   2.656   3.507
 5186TIP3    H215565   4.975   2.729   3.586
 5187TIP3   OH215566   3.311   4.064   4.735
 5187TIP3    H115567   3.259   4.144   4.725
 5187TIP3    H215568   3.248   3.993   4.724
 5188TIP3   OH215569   0.395   2.670   0.297
 5188TIP3    H115570   0.328   2.736   0.280
 5188TIP3    H215571   0.457   2.681   0.225
 5189TIP3   OH215572   4.074   2.770   4.506
 5189TIP3    H115573   3.990   2.768   4.553
 5189TIP3    H215574   4.135   2.808   4.569
 5190TIP3   OH215575   0.807   5.370   0.322
 5190TIP3    H115576   0.777   5.452   0.282
 5190TIP3    H215577   0.800   5.385   0.416
 5191TIP3   OH215578   6.208   4.272   5.138
 5191TIP3    H115579   6.226   4.190   5.184
 5191TIP3    H215580   6.290   4.292   5.092
 5192TIP3   OH215581   2.396   0.096   0.342
 5192TIP3    H115582   2.318   0.129   0.387
 5192TIP3    H215583   2.469   0.146   0.380
 5193TIP3   OH215584   1.471   4.177   0.590
 5193TIP3    H115585   1.412   4.120   0.638
 5193TIP3    H215586   1.506   4.238   0.655
 5194TIP3   OH215587   3.371   5.194   0.986
 5194TIP3    H115588   3.292   5.244   0.965
 5194TIP3    H215589   3.340   5.105   1.002
 5195TIP3   OH215590   1.765   5.631   4.106
 5195TIP3    H115591   1.692   5.692   4.095
 5195TIP3    H215592   1.723   5.551   4.139
 5196TIP3   OH215593   5.271   4.297   4.476
 5196TIP3    H115594   5.242   4.380   4.440
 5196TIP3    H215595   5.342   4.320   4.536
 5197TIP3   OH215596   5.539   4.429   3.908
 5197TIP3    H115597   5.517   4.419   3.815
 5197TIP3    H215598   5.606   4.497   3.910
 5198TIP3   OH215599   4.071   2.694   3.231
 5198TIP3    H115600   4.131   2.748   3.178
 5198TIP3    H215601   4.126   2.659   3.300
 5199TIP3   OH215602   4.298   5.172   1.223
 5199TIP3    H115603   4.370   5.220   1.182
 5199TIP3    H215604   4.254   5.237   1.278
 5200TIP3   OH215605   3.317   3.899   2.588
 5200TIP3    H115606   3.240   3.954   2.576
 5200TIP3    H215607   3.366   3.941   2.658
 5201TIP3   OH215608   0.325   5.261   3.190
 5201TIP3    H115609   0.261   5.324   3.157
 5201TIP3    H215610   0.373   5.308   3.258
 5202TIP3   OH215611   5.050   4.045   1.087
 5202TIP3    H115612   5.032   4.088   1.171
 5202TIP3    H215613   5.017   3.956   1.097
 5203TIP3   OH215614   4.291   1.119   4.548
 5203TIP3    H115615   4.329   1.097   4.633
 5203TIP3    H215616   4.365   1.151   4.496
 5204TIP3   OH215617   3.017   5.564   5.106
 5204TIP3    H115618   3.026   5.657   5.123
 5204TIP3    H215619   3.064   5.521   5.177
 5205TIP3   OH215620   4.331   2.638   2.181
 5205TIP3    H115621   4.293   2.614   2.096
 5205TIP3    H215622   4.398   2.703   2.160
 5206TIP3   OH215623   3.981   4.940   4.764
 5206TIP3    H115624   3.996   4.846   4.754
 5206TIP3    H215625   4.045   4.968   4.830
 5207TIP3   OH215626   4.431   3.414   0.369
 5207TIP3    H115627   4.346   3.442   0.333
 5207TIP3    H215628   4.425   3.433   0.462
 5208TIP3   OH215629   0.497   3.492   5.066
 5208TIP3    H115630   0.491   3.484   5.161
 5208TIP3    H215631   0.501   3.402   5.034
 5209TIP3   OH215632   3.735   5.003   4.812
 5209TIP3    H115633   3.754   5.073   4.751
 5209TIP3    H215634   3.815   4.949   4.814
 5210TIP3   OH215635   6.161   0.045   3.752
 5210TIP3    H115636   6.217  -0.010   3.697
 5210TIP3    H215637   6.073   0.011   3.737
 5211TIP3   OH215638   4.192   3.007   1.285
 5211TIP3    H115639   4.267   2.953   1.260
 5211TIP3    H215640   4.228   3.070   1.348
 5212TIP3   OH215641   5.700   5.496   0.301
 5212TIP3    H115642   5.684   5.412   0.257
 5212TIP3    H215643   5.767   5.538   0.248
 5213TIP3   OH215644   4.680   3.274   3.357
 5213TIP3    H115645   4.602   3.239   3.401
 5213TIP3    H215646   4.727   3.197   3.327
 5214TIP3   OH215647   4.818   0.835   2.300
 5214TIP3    H115648   4.880   0.788   2.357
 5214TIP3    H215649   4.748   0.864   2.359
 5215TIP3   OH215650   1.261   5.827   1.278
 5215TIP3    H115651   1.223   5.914   1.268
 5215TIP3    H215652   1.251   5.807   1.371
 5216TIP3   OH215653   3.374   3.116   3.317
 5216TIP3    H115654   3.327   3.067   3.249
 5216TIP3    H215655   3.451   3.151   3.272
 5217TIP3   OH215656   4.111   4.419   4.146
 5217TIP3    H115657   4.037   4.462   4.103
 5217TIP3    H215658   4.172   4.400   4.075
 5218TIP3   OH215659   5.787   1.278   1.385
 5218TIP3    H115660   5.778   1.183   1.372
 5218TIP3    H215661   5.711   1.302   1.438
 5219TIP3   OH215662   2.233   3.411   4.591
 5219TIP3    H115663   2.251   3.394   4.684
 5219TIP3    H215664   2.319   3.411   4.549
 5220TIP3   OH215665   5.744   3.732   2.312
 5220TIP3    H115666   5.801   3.665   2.273
 5220TIP3    H215667   5.687   3.759   2.240
 5221TIP3   OH215668   0.487   5.964   3.757
 5221TIP3    H115669   0.435   5.917   3.822
 5221TIP3    H215670   0.428   5.976   3.683
 5222TIP3   OH215671   0.299   5.354   2.245
 5222TIP3    H115672   0.271   5.287   2.307
 5222TIP3    H215673   0.219   5.382   2.201
 5223TIP3   OH215674   2.903   1.198   0.011
 5223TIP3    H115675   2.843   1.124   0.009
 5223TIP3    H215676   2.917   1.216   0.104
 5224TIP3   OH215677   0.144   0.272   4.628
 5224TIP3    H115678   0.144   0.222   4.710
 5224TIP3    H215679   0.150   0.363   4.655
 5225TIP3   OH215680   3.288   1.908   0.326
 5225TIP3    H115681   3.202   1.890   0.290
 5225TIP3    H215682   3.334   1.824   0.322
 5226TIP3   OH215683   1.566  -0.013   4.785
 5226TIP3    H115684   1.645  -0.032   4.836
 5226TIP3    H215685   1.510   0.036   4.846
 5227TIP3   OH215686   6.199   2.012   1.488
 5227TIP3    H115687   6.117   2.033   1.532
 5227TIP3    H215688   6.267   2.030   1.552
 5228TIP3   OH215689   4.065   4.703   4.089
 5228TIP3    H115690   4.107   4.671   4.010
 5228TIP3    H215691   3.975   4.673   4.082
 5229TIP3   OH215692   1.948   0.896   2.553
 5229TIP3    H115693   1.888   0.822   2.538
 5229TIP3    H215694   1.962   0.897   2.647
 5230TIP3   OH215695  -0.022   1.721   4.761
 5230TIP3    H115696  -0.036   1.807   4.721
 5230TIP3    H215697  -0.035   1.659   4.690
 5231TIP3   OH215698   3.209   2.768   0.148
 5231TIP3    H115699   3.168   2.711   0.083
 5231TIP3    H215700   3.303   2.750   0.140
 5232TIP3   OH215701   0.287   0.862   2.955
 5232TIP3    H115702   0.339   0.783   2.969
 5232TIP3    H215703   0.349   0.928   2.926
 5233TIP3   OH215704   0.897   2.659   4.079
 5233TIP3    H115705   0.807   2.670   4.109
 5233TIP3    H215706   0.945   2.627   4.156
 5234TIP3   OH215707   2.657   4.949   1.851
 5234TIP3    H115708   2.594   4.883   1.822
 5234TIP3    H215709   2.627   4.974   1.938
 5235TIP3   OH215710   2.996   5.372   0.344
 5235TIP3    H115711   3.026   5.358   0.433
 5235TIP3    H215712   3.072   5.354   0.289
 5236TIP3   OH215713   5.066   2.387   2.510
 5236TIP3    H115714   4.998   2.343   2.459
 5236TIP3    H215715   5.069   2.338   2.592
 5237TIP3   OH215716   1.375   2.023   1.380
 5237TIP3    H115717   1.455   2.052   1.424
 5237TIP3    H215718   1.369   2.079   1.302
 5238TIP3   OH215719   5.367   4.572   1.644
 5238TIP3    H115720   5.350   4.517   1.567
 5238TIP3    H215721   5.372   4.661   1.608
 5239TIP3   OH215722   3.540   0.436   1.308
 5239TIP3    H115723   3.537   0.340   1.307
 5239TIP3    H215724   3.457   0.462   1.347
 5240TIP3   OH215725   4.964   1.542   3.471
 5240TIP3    H115726   5.008   1.622   3.442
 5240TIP3    H215727   4.981   1.479   3.401
 5241TIP3   OH215728   5.481   0.305   2.069
 5241TIP3    H115729   5.512   0.311   2.160
 5241TIP3    H215730   5.551   0.345   2.017
 5242TIP3   OH215731   1.569   5.157   2.538
 5242TIP3    H115732   1.653   5.123   2.509
 5242TIP3    H215733   1.591   5.222   2.605
 5243TIP3   OH215734   3.267   4.681   3.006
 5243TIP3    H115735   3.338   4.745   3.012
 5243TIP3    H215736   3.189   4.728   3.034
 5244TIP3   OH215737   2.664   2.485   1.202
 5244TIP3    H115738   2.729   2.528   1.146
 5244TIP3    H215739   2.621   2.556   1.248
 5245TIP3   OH215740   5.710   2.300   5.109
 5245TIP3    H115741   5.714   2.310   5.014
 5245TIP3    H215742   5.617   2.302   5.129
 5246TIP3   OH215743   1.521   5.356   2.359
 5246TIP3    H115744   1.558   5.323   2.277
 5246TIP3    H215745   1.564   5.304   2.427
 5247TIP3   OH215746   5.899   3.478   1.275
 5247TIP3    H115747   5.819   3.434   1.306
 5247TIP3    H215748   5.890   3.568   1.308
 5248TIP3   OH215749   5.122   2.385   3.559
 5248TIP3    H115750   5.086   2.315   3.614
 5248TIP3    H215751   5.196   2.418   3.609
 5249TIP3   OH215752   2.691   0.776   4.935
 5249TIP3    H115753   2.714   0.835   5.007
 5249TIP3    H215754   2.774   0.756   4.894
 5250TIP3   OH215755   1.428   0.409   3.312
 5250TIP3    H115756   1.355   0.469   3.327
 5250TIP3    H215757   1.445   0.416   3.218
 5251TIP3   OH215758   0.710   2.824   0.104
 5251TIP3    H115759   0.684   2.877   0.179
 5251TIP3    H215760   0.647   2.848   0.035
 5252TIP3   OH215761   0.494   1.895   4.654
 5252TIP3    H115762   0.585   1.890   4.684
 5252TIP3    H215763   0.455   1.812   4.681
 5253TIP3   OH215764   4.860   2.451   4.303
 5253TIP3    H115765   4.765   2.444   4.294
 5253TIP3    H215766   4.892   2.463   4.213
 5254TIP3   OH215767   4.393   4.291   5.040
 5254TIP3    H115768   4.477   4.308   4.998
 5254TIP3    H215769   4.349   4.229   4.981
 5255TIP3   OH215770   0.514   2.269   3.574
 5255TIP3    H115771   0.458   2.262   3.652
 5255TIP3    H215772   0.595   2.309   3.606
 5256TIP3   OH215773   2.091   4.650   0.070
 5256TIP3    H115774   2.054   4.627   0.155
 5256TIP3    H215775   2.144   4.728   0.087
 5257TIP3   OH215776   4.074   4.842   0.982
 5257TIP3    H115777   4.144   4.787   0.948
 5257TIP3    H215778   4.109   4.931   0.980
 5258TIP3   OH215779   5.180   0.647   2.112
 5258TIP3    H115780   5.179   0.563   2.066
 5258TIP3    H215781   5.095   0.686   2.093
 5259TIP3   OH215782   5.263   5.599   0.479
 5259TIP3    H115783   5.223   5.610   0.565
 5259TIP3    H215784   5.352   5.568   0.497
 5260TIP3   OH215785   0.986   4.123   1.661
 5260TIP3    H115786   1.026   4.140   1.576
 5260TIP3    H215787   1.057   4.137   1.724
 5261TIP3   OH215788   5.137   5.327   0.616
 5261TIP3    H115789   5.203   5.319   0.547
 5261TIP3    H215790   5.090   5.243   0.614
 5262TIP3   OH215791   4.999   1.324   3.638
 5262TIP3    H115792   5.006   1.393   3.704
 5262TIP3    H215793   4.998   1.370   3.554
 5263TIP3   OH215794   3.538   1.810   2.808
 5263TIP3    H115795   3.493   1.729   2.787
 5263TIP3    H215796   3.579   1.837   2.726
 5264TIP3   OH215797   3.894   5.828   1.819
 5264TIP3    H115798   3.866   5.918   1.835
 5264TIP3    H215799   3.979   5.822   1.862
 5265TIP3   OH215800   1.618   3.405   4.204
 5265TIP3    H115801   1.533   3.439   4.232
 5265TIP3    H215802   1.644   3.346   4.274
 5266TIP3   OH215803   1.017   1.593   4.827
 5266TIP3    H115804   0.923   1.605   4.818
 5266TIP3    H215805   1.055   1.673   4.791
 5267TIP3   OH215806   6.082   1.542   1.371
 5267TIP3    H115807   6.097   1.599   1.296
 5267TIP3    H215808   6.150   1.566   1.434
 5268TIP3   OH215809   6.013   0.766   0.087
 5268TIP3    H115810   5.974   0.693   0.136
 5268TIP3    H215811   5.957   0.775   0.009
 5269TIP3   OH215812   3.851   5.589   1.679
 5269TIP3    H115813   3.929   5.532   1.682
 5269TIP3    H215814   3.885   5.676   1.697
 5270TIP3   OH215815   0.777   2.275   0.670
 5270TIP3    H115816   0.854   2.261   0.725
 5270TIP3    H215817   0.745   2.188   0.650
 5271TIP3   OH215818   2.500   1.572   4.792
 5271TIP3    H115819   2.507   1.534   4.705
 5271TIP3    H215820   2.439   1.646   4.782
 5272TIP3   OH215821   3.100   0.800   1.419
 5272TIP3    H115822   3.080   0.894   1.408
 5272TIP3    H215823   3.192   0.792   1.394
 5273TIP3   OH215824   2.449   4.914   0.519
 5273TIP3    H115825   2.454   4.993   0.571
 5273TIP3    H215826   2.404   4.851   0.575
 5274TIP3   OH215827   2.245   0.350   2.276
 5274TIP3    H115828   2.261   0.437   2.241
 5274TIP3    H215829   2.222   0.297   2.199
 5275TIP3   OH215830   1.943   3.460   1.782
 5275TIP3    H115831   1.877   3.479   1.850
 5275TIP3    H215832   2.027   3.465   1.828
 5276TIP3   OH215833   1.210   1.932   0.296
 5276TIP3    H115834   1.144   1.908   0.231
 5276TIP3    H215835   1.289   1.948   0.245
 5277TIP3   OH215836   3.539   2.522   4.578
 5277TIP3    H115837   3.564   2.469   4.654
 5277TIP3    H215838   3.616   2.575   4.559
 5278TIP3   OH215839   3.758   3.196   4.958
 5278TIP3    H115840   3.827   3.173   4.896
 5278TIP3    H215841   3.750   3.119   5.014
 5279TIP3   OH215842   0.430   1.856   2.251
 5279TIP3    H115843   0.341   1.890   2.249
 5279TIP3    H215844   0.442   1.813   2.167
 5280TIP3   OH215845   3.629   3.642   0.426
 5280TIP3    H115846   3.630   3.712   0.361
 5280TIP3    H215847   3.721   3.628   0.448
 5281TIP3   OH215848   3.777   4.275   1.872
 5281TIP3    H115849   3.861   4.247   1.908
 5281TIP3    H215850   3.798   4.310   1.786
 5282TIP3   OH215851   0.692   4.075   1.948
 5282TIP3    H115852   0.728   3.997   1.991
 5282TIP3    H215853   0.691   4.053   1.855
 5283TIP3   OH215854   0.042   4.857   0.633
 5283TIP3    H115855   0.002   4.785   0.682
 5283TIP3    H215856   0.014   4.936   0.680
 5284TIP3   OH215857   4.213   4.439   2.978
 5284TIP3    H115858   4.167   4.406   3.055
 5284TIP3    H215859   4.274   4.504   3.013
 5285TIP3   OH215860   3.277   4.708   0.600
 5285TIP3    H115861   3.245   4.663   0.523
 5285TIP3    H215862   3.303   4.638   0.660
 5286TIP3   OH215863   3.019   5.685   2.053
 5286TIP3    H115864   3.109   5.712   2.038
 5286TIP3    H215865   3.026   5.606   2.107
 5287TIP3   OH215866   3.865   5.798   5.087
 5287TIP3    H115867   3.885   5.807   5.181
 5287TIP3    H215868   3.790   5.855   5.073
 5288TIP3   OH215869   1.650   2.264   1.124
 5288TIP3    H115870   1.672   2.248   1.216
 5288TIP3    H215871   1.555   2.273   1.123
 5289TIP3   OH215872   4.419   0.069   5.185
 5289TIP3    H115873   4.457   0.066   5.097
 5289TIP3    H215874   4.409   0.162   5.204
 5290TIP3   OH215875   2.011   5.619   4.009
 5290TIP3    H115876   1.928   5.629   4.056
 5290TIP3    H215877   2.047   5.536   4.041
 5291TIP3   OH215878   3.786   0.247   1.911
 5291TIP3    H115879   3.731   0.288   1.845
 5291TIP3    H215880   3.866   0.299   1.912
 5292TIP3   OH215881   4.213   1.555   2.238
 5292TIP3    H115882   4.244   1.615   2.171
 5292TIP3    H215883   4.185   1.611   2.310
 5293TIP3   OH215884   2.642   0.116   1.038
 5293TIP3    H115885   2.702   0.045   1.015
 5293TIP3    H215886   2.557   0.073   1.049
 5294TIP3   OH215887   1.740   2.958   3.528
 5294TIP3    H115888   1.792   2.906   3.467
 5294TIP3    H215889   1.790   2.956   3.610
 5295TIP3   OH215890   3.334   3.299   4.843
 5295TIP3    H115891   3.362   3.223   4.894
 5295TIP3    H215892   3.412   3.354   4.836
 5296TIP3   OH215893   5.733   2.337   4.459
 5296TIP3    H115894   5.763   2.324   4.368
 5296TIP3    H215895   5.638   2.334   4.453
 5297TIP3   OH215896   3.334   4.857   4.267
 5297TIP3    H115897   3.388   4.933   4.246
 5297TIP3    H215898   3.328   4.857   4.363
 5298TIP3   OH215899   3.289   5.724   1.984
 5298TIP3    H115900   3.316   5.816   1.981
 5298TIP3    H215901   3.347   5.679   1.923
 5299TIP3   OH215902   5.082   4.591   3.603
 5299TIP3    H115903   5.174   4.598   3.627
 5299TIP3    H215904   5.054   4.506   3.639
 5300TIP3   OH215905   2.036   2.833   3.219
 5300TIP3    H115906   1.960   2.887   3.199
 5300TIP3    H215907   2.037   2.826   3.315
 5301TIP3   OH215908   5.528   2.698   2.037
 5301TIP3    H115909   5.470   2.680   1.963
 5301TIP3    H215910   5.572   2.780   2.014
 5302TIP3   OH215911   3.606   2.347   4.778
 5302TIP3    H115912   3.679   2.305   4.822
 5302TIP3    H215913   3.543   2.277   4.762
 5303TIP3   OH215914   3.520   3.313   3.576
 5303TIP3    H115915   3.468   3.287   3.499
 5303TIP3    H215916   3.461   3.366   3.628
 5304TIP3   OH215917   1.214   1.654   1.743
 5304TIP3    H115918   1.179   1.736   1.777
 5304TIP3    H215919   1.276   1.680   1.675
 5305TIP3   OH215920   5.136   5.456   2.878
 5305TIP3    H115921   5.202   5.473   2.946
 5305TIP3    H215922   5.186   5.421   2.805
 5306TIP3   OH215923   2.474   0.624   4.664
 5306TIP3    H115924   2.444   0.669   4.585
 5306TIP3    H215925   2.563   0.595   4.643
 5307TIP3   OH215926   3.096   1.073   0.486
 5307TIP3    H115927   3.086   1.119   0.569
 5307TIP3    H215928   3.150   0.996   0.507
 5308TIP3   OH215929   3.926   5.813   4.595
 5308TIP3    H115930   3.992   5.872   4.560
 5308TIP3    H215931   3.963   5.780   4.677
 5309TIP3   OH215932   2.456   0.951   0.204
 5309TIP3    H115933   2.549   0.972   0.206
 5309TIP3    H215934   2.418   1.006   0.273
 5310TIP3   OH215935   2.867   5.623   4.272
 5310TIP3    H115936   2.943   5.681   4.265
 5310TIP3    H215937   2.871   5.589   4.362
 5311TIP3   OH215938   0.620   0.904   0.850
 5311TIP3    H115939   0.569   0.870   0.923
 5311TIP3    H215940   0.636   0.996   0.873
 5312TIP3   OH215941   4.146   0.148   3.397
 5312TIP3    H115942   4.185   0.186   3.319
 5312TIP3    H215943   4.146   0.053   3.381
 5313TIP3   OH215944   5.964   2.636   2.130
 5313TIP3    H115945   6.009   2.584   2.197
 5313TIP3    H215946   6.032   2.691   2.092
 5314TIP3   OH215947   1.301   1.098   0.885
 5314TIP3    H115948   1.313   1.190   0.908
 5314TIP3    H215949   1.371   1.052   0.932
 5315TIP3   OH215950   0.413   1.236   0.608
 5315TIP3    H115951   0.492   1.266   0.654
 5315TIP3    H215952   0.386   1.158   0.655
 5316TIP3   OH215953   2.881   3.222   3.841
 5316TIP3    H115954   2.865   3.128   3.854
 5316TIP3    H215955   2.973   3.227   3.815
 5317TIP3   OH215956   1.197   1.146   5.066
 5317TIP3    H115957   1.175   1.238   5.046
 5317TIP3    H215958   1.249   1.151   5.146
 5318TIP3   OH215959   2.065   0.663   3.088
 5318TIP3    H115960   2.086   0.687   3.178
 5318TIP3    H215961   2.150   0.646   3.047
 5319TIP3   OH215962   3.440   3.825   2.262
 5319TIP3    H115963   3.382   3.898   2.282
 5319TIP3    H215964   3.509   3.863   2.207
 5320TIP3   OH215965   1.110   1.976   1.558
 5320TIP3    H115966   1.145   1.959   1.470
 5320TIP3    H215967   1.122   2.071   1.570
 5321TIP3   OH215968   1.146   5.203   1.796
 5321TIP3    H115969   1.186   5.208   1.883
 5321TIP3    H215970   1.092   5.124   1.798
 5322TIP3   OH215971   1.223   1.678   4.122
 5322TIP3    H115972   1.232   1.583   4.131
 5322TIP3    H215973   1.183   1.706   4.204
 5323TIP3   OH215974   5.837   0.674   3.218
 5323TIP3    H115975   5.819   0.582   3.201
 5323TIP3    H215976   5.799   0.721   3.144
 5324TIP3   OH215977   4.073   4.554   3.637
 5324TIP3    H115978   4.076   4.462   3.664
 5324TIP3    H215979   4.127   4.600   3.702
 5325TIP3   OH215980   2.306   2.832   3.185
 5325TIP3    H115981   2.211   2.838   3.187
 5325TIP3    H215982   2.329   2.787   3.266
 5326TIP3   OH215983   4.288   1.129   2.838
 5326TIP3    H115984   4.222   1.065   2.811
 5326TIP3    H215985   4.251   1.214   2.814
 5327TIP3   OH215986   1.505   2.683   0.657
 5327TIP3    H115987   1.495   2.591   0.631
 5327TIP3    H215988   1.484   2.683   0.750
 5328TIP3   OH215989   4.376   1.946   2.778
 5328TIP3    H115990   4.368   1.960   2.684
 5328TIP3    H215991   4.286   1.936   2.809
 5329TIP3   OH215992   4.662   3.242   1.622
 5329TIP3    H115993   4.660   3.240   1.717
 5329TIP3    H215994   4.620   3.160   1.595
 5330TIP3   OH215995   2.337   3.908   3.980
 5330TIP3    H115996   2.247   3.930   3.958
 5330TIP3    H215997   2.333   3.820   4.017
 5331TIP3   OH215998   5.185   3.012   2.319
 5331TIP3    H115999   5.249   3.076   2.288
 5331TIP3    H216000   5.178   2.949   2.248
 5332TIP3   OH216001   5.286   3.748   2.806
 5332TIP3    H116002   5.237   3.829   2.791
 5332TIP3    H216003   5.372   3.764   2.766
 5333TIP3   OH216004   2.797   2.080   3.606
 5333TIP3    H116005   2.712   2.080   3.562
 5333TIP3    H216006   2.798   1.998   3.655
 5334TIP3   OH216007   2.345   0.076   1.130
 5334TIP3    H116008   2.364   0.167   1.105
 5334TIP3    H216009   2.385   0.066   1.216
 5335TIP3   OH216010   1.038   0.089   2.537
 5335TIP3    H116011   1.052   0.160   2.600
 5335TIP3    H216012   1.078   0.121   2.456
 5336TIP3   OH216013   5.083   1.403   1.396
 5336TIP3    H116014   5.076   1.359   1.481
 5336TIP3    H216015   5.001   1.381   1.351
 5337TIP3   OH216016   0.990   1.986   1.071
 5337TIP3    H116017   0.992   2.071   1.113
 5337TIP3    H216018   1.073   1.980   1.024
 5338TIP3   OH216019   5.347   1.095   0.844
 5338TIP3    H116020   5.290   1.155   0.893
 5338TIP3    H216021   5.289   1.053   0.781
 5339TIP3   OH216022   0.474   0.179   2.951
 5339TIP3    H116023   0.498   0.270   2.970
 5339TIP3    H216024   0.469   0.138   3.038
 5340TIP3   OH216025   4.156   3.728   3.372
 5340TIP3    H116026   4.200   3.709   3.289
 5340TIP3    H216027   4.082   3.667   3.375
 5341TIP3   OH216028   2.502   0.468   3.291
 5341TIP3    H116029   2.497   0.564   3.294
 5341TIP3    H216030   2.539   0.448   3.205
 5342TIP3   OH216031   1.246   4.162   3.433
 5342TIP3    H116032   1.236   4.184   3.526
 5342TIP3    H216033   1.336   4.131   3.425
 5343TIP3   OH216034   5.033   0.912   3.316
 5343TIP3    H116035   4.996   0.958   3.390
 5343TIP3    H216036   5.088   0.843   3.355
 5344TIP3   OH216037   2.858   5.675   0.084
 5344TIP3    H116038   2.888   5.590   0.053
 5344TIP3    H216039   2.935   5.731   0.078
 5345TIP3   OH216040   3.450   4.303   0.287
 5345TIP3    H116041   3.370   4.263   0.322
 5345TIP3    H216042   3.470   4.375   0.348
 5346TIP3   OH216043   0.292   5.545   1.007
 5346TIP3    H116044   0.313   5.555   1.100
 5346TIP3    H216045   0.330   5.460   0.984
 5347TIP3   OH216046   3.685   4.557   4.876
 5347TIP3    H116047   3.730   4.520   4.800
 5347TIP3    H216048   3.616   4.612   4.838
 5348TIP3   OH216049   3.332   4.399   1.050
 5348TIP3    H116050   3.281   4.399   1.131
 5348TIP3    H216051   3.303   4.321   1.003
 5349TIP3   OH216052   2.179   2.075   1.959
 5349TIP3    H116053   2.212   2.023   1.887
 5349TIP3    H216054   2.089   2.096   1.935
 5350TIP3   OH216055   3.317   2.771   5.038
 5350TIP3    H116056   3.342   2.731   4.955
 5350TIP3    H216057   3.399   2.778   5.087
 5351TIP3   OH216058   6.248   1.411   0.735
 5351TIP3    H116059   6.224   1.452   0.652
 5351TIP3    H216060   6.223   1.474   0.802
 5352TIP3   OH216061   1.519   1.233   0.255
 5352TIP3    H116062   1.467   1.153   0.252
 5352TIP3    H216063   1.537   1.247   0.348
 5353TIP3   OH216064   2.069   1.665   0.648
 5353TIP3    H116065   2.117   1.747   0.659
 5353TIP3    H216066   2.120   1.601   0.698
 5354TIP3   OH216067   3.999   2.307   1.368
 5354TIP3    H116068   3.968   2.395   1.392
 5354TIP3    H216069   3.955   2.248   1.429
 5355TIP3   OH216070   4.462   1.296   4.031
 5355TIP3    H116071   4.535   1.355   4.054
 5355TIP3    H216072   4.428   1.268   4.116
 5356TIP3   OH216073   2.085   2.871   3.503
 5356TIP3    H116074   2.176   2.890   3.524
 5356TIP3    H216075   2.037   2.891   3.583
 5357TIP3   OH216076   5.319   4.928   5.183
 5357TIP3    H116077   5.325   4.928   5.087
 5357TIP3    H216078   5.410   4.938   5.212
 5358TIP3   OH216079   0.206   5.150   2.426
 5358TIP3    H116080   0.257   5.128   2.504
 5358TIP3    H216081   0.120   5.109   2.441
 5359TIP3   OH216082   4.723   3.336   2.133
 5359TIP3    H116083   4.663   3.297   2.197
 5359TIP3    H216084   4.748   3.420   2.171
 5360TIP3   OH216085   4.845   3.451   4.238
 5360TIP3    H116086   4.815   3.468   4.149
 5360TIP3    H216087   4.880   3.362   4.235
 5361TIP3   OH216088   4.040   1.479   0.834
 5361TIP3    H116089   4.069   1.465   0.744
 5361TIP3    H216090   3.949   1.449   0.834
 5362TIP3   OH216091   0.073   1.141   2.202
 5362TIP3    H116092   0.067   1.061   2.254
 5362TIP3    H216093   0.162   1.141   2.166
 5363TIP3   OH216094   2.392   5.245   2.936
 5363TIP3    H116095   2.449   5.199   2.874
 5363TIP3    H216096   2.307   5.203   2.926
 5364TIP3   OH216097   6.127   3.427   4.112
 5364TIP3    H116098   6.168   3.411   4.027
 5364TIP3    H216099   6.183   3.492   4.154
 5365TIP3   OH216100   3.533   5.708   4.188
 5365TIP3    H116101   3.562   5.741   4.273
 5365TIP3    H216102   3.534   5.613   4.197
 5366TIP3   OH216103   1.928   0.291   2.912
 5366TIP3    H116104   1.982   0.324   2.840
 5366TIP3    H216105   1.860   0.357   2.924
 5367TIP3   OH216106   3.663   2.788   3.598
 5367TIP3    H116107   3.719   2.865   3.607
 5367TIP3    H216108   3.617   2.801   3.515
 5368TIP3   OH216109   1.304   2.755   4.619
 5368TIP3    H116110   1.305   2.781   4.527
 5368TIP3    H216111   1.289   2.837   4.666
 5369TIP3   OH216112   2.405   0.272   1.923
 5369TIP3    H116113   2.497   0.243   1.927
 5369TIP3    H216114   2.410   0.368   1.928
 5370TIP3   OH216115   2.965   3.345   3.171
 5370TIP3    H116116   3.005   3.340   3.258
 5370TIP3    H216117   2.942   3.254   3.150
 5371TIP3   OH216118   4.842   5.742   3.743
 5371TIP3    H116119   4.780   5.778   3.806
 5371TIP3    H216120   4.915   5.804   3.744
 5372TIP3   OH216121   5.159   4.668   4.732
 5372TIP3    H116122   5.086   4.611   4.710
 5372TIP3    H216123   5.123   4.729   4.796
 5373TIP3   OH216124   0.571   0.258   3.595
 5373TIP3    H116125   0.637   0.267   3.664
 5373TIP3    H216126   0.601   0.184   3.542
 5374TIP3   OH216127   5.511   3.587   1.667
 5374TIP3    H116128   5.470   3.594   1.581
 5374TIP3    H216129   5.555   3.502   1.664
 5375TIP3   OH216130   2.731   4.233   1.660
 5375TIP3    H116131   2.645   4.190   1.665
 5375TIP3    H216132   2.783   4.190   1.728
 5376TIP3   OH216133   3.423   4.982   4.527
 5376TIP3    H116134   3.428   4.967   4.621
 5376TIP3    H216135   3.498   4.933   4.491
 5377TIP3   OH216136   5.287   0.410   1.925
 5377TIP3    H116137   5.331   0.489   1.894
 5377TIP3    H216138   5.355   0.362   1.973
 5378TIP3   OH216139   2.361   0.347   1.299
 5378TIP3    H116140   2.279   0.347   1.251
 5378TIP3    H216141   2.422   0.396   1.243
 5379TIP3   OH216142   5.140   5.702   2.004
 5379TIP3    H116143   5.105   5.614   2.019
 5379TIP3    H216144   5.143   5.742   2.091
 5380TIP3   OH216145   2.945   2.525   0.690
 5380TIP3    H116146   2.992   2.582   0.629
 5380TIP3    H216147   2.874   2.579   0.724
 5381TIP3   OH216148   5.721   3.041   1.125
 5381TIP3    H116149   5.655   3.001   1.068
 5381TIP3    H216150   5.683   3.124   1.152
 5382TIP3   OH216151   6.180   3.575   5.037
 5382TIP3    H116152   6.151   3.576   4.946
 5382TIP3    H216153   6.260   3.522   5.036
 5383TIP3   OH216154   1.550   0.458   3.924
 5383TIP3    H116155   1.522   0.454   4.016
 5383TIP3    H216156   1.473   0.429   3.875
 5384TIP3   OH216157   3.715   1.279   4.937
 5384TIP3    H116158   3.737   1.347   4.874
 5384TIP3    H216159   3.785   1.215   4.931
 5385TIP3   OH216160   0.745   4.346   2.536
 5385TIP3    H116161   0.736   4.340   2.441
 5385TIP3    H216162   0.798   4.270   2.560
 5386TIP3   OH216163   2.409   5.487   3.763
 5386TIP3    H116164   2.373   5.488   3.851
 5386TIP3    H216165   2.332   5.485   3.706
 5387TIP3   OH216166   1.370   1.611   3.772
 5387TIP3    H116167   1.407   1.673   3.835
 5387TIP3    H216168   1.447   1.579   3.724
 5388TIP3   OH216169   2.760   0.185   2.454
 5388TIP3    H116170   2.763   0.280   2.450
 5388TIP3    H216171   2.677   0.161   2.412
 5389TIP3   OH216172   4.748   0.747   0.761
 5389TIP3    H116173   4.843   0.750   0.753
 5389TIP3    H216174   4.718   0.831   0.726
 5390TIP3   OH216175   3.886   3.817   5.115
 5390TIP3    H116176   3.970   3.771   5.117
 5390TIP3    H216177   3.820   3.749   5.128
 5391TIP3   OH216178   3.859   2.942   4.640
 5391TIP3    H116179   3.913   2.960   4.717
 5391TIP3    H216180   3.811   3.023   4.625
 5392TIP3   OH216181   1.490   0.771   1.527
 5392TIP3    H116182   1.505   0.810   1.441
 5392TIP3    H216183   1.484   0.845   1.587
 5393TIP3   OH216184   3.221   3.941   4.038
 5393TIP3    H116185   3.179   3.855   4.042
 5393TIP3    H216186   3.310   3.926   4.068
 5394TIP3   OH216187   1.350   2.610   4.993
 5394TIP3    H116188   1.305   2.544   5.045
 5394TIP3    H216189   1.424   2.563   4.954
 5395TIP3   OH216190   5.725   3.563   2.780
 5395TIP3    H116191   5.716   3.470   2.797
 5395TIP3    H216192   5.711   3.605   2.865
 5396TIP3   OH216193   5.466   5.179   0.576
 5396TIP3    H116194   5.399   5.138   0.521
 5396TIP3    H216195   5.447   5.147   0.664
 5397TIP3   OH216196   3.928   3.158   1.103
 5397TIP3    H116197   3.974   3.217   1.044
 5397TIP3    H216198   3.930   3.202   1.188
 5398TIP3   OH216199   2.995   3.763   3.856
 5398TIP3    H116200   2.999   3.837   3.795
 5398TIP3    H216201   2.930   3.704   3.818
 5399TIP3   OH216202   5.145   5.424   3.202
 5399TIP3    H116203   5.072   5.462   3.153
 5399TIP3    H216204   5.168   5.493   3.265
 5400TIP3   OH216205   1.044   3.816   0.432
 5400TIP3    H116206   1.119   3.860   0.392
 5400TIP3    H216207   0.974   3.824   0.368
 5401TIP3   OH216208   5.094   3.125   3.304
 5401TIP3    H116209   5.133   3.200   3.259
 5401TIP3    H216210   5.169   3.070   3.328
 5402TIP3   OH216211   3.057   2.808   0.890
 5402TIP3    H116212   2.999   2.844   0.822
 5402TIP3    H216213   2.999   2.757   0.947
 5403TIP3   OH216214   4.162   3.914   3.689
 5403TIP3    H116215   4.114   3.877   3.763
 5403TIP3    H216216   4.095   3.938   3.626
 5404TIP3   OH216217   0.378   1.616   3.228
 5404TIP3    H116218   0.349   1.707   3.226
 5404TIP3    H216219   0.311   1.571   3.280
 5405TIP3   OH216220   6.004   3.008   1.239
 5405TIP3    H116221   6.059   2.930   1.233
 5405TIP3    H216222   5.936   2.994   1.172
 5406TIP3   OH216223   1.254   2.656   2.403
 5406TIP3    H116224   1.314   2.595   2.445
 5406TIP3    H216225   1.306   2.697   2.334
 5407TIP3   OH216226   4.273   3.739   4.026
 5407TIP3    H116227   4.202   3.793   3.992
 5407TIP3    H216228   4.333   3.729   3.952
 5408TIP3   OH216229   4.482   1.890   0.086
 5408TIP3    H116230   4.523   1.864   0.003
 5408TIP3    H216231   4.393   1.915   0.062
 5409TIP3   OH216232   3.460   3.145   1.581
 5409TIP3    H116233   3.445   3.060   1.540
 5409TIP3    H216234   3.554   3.148   1.596
 5410TIP3   OH216235   3.600   5.624   1.564
 5410TIP3    H116236   3.691   5.606   1.588
 5410TIP3    H216237   3.574   5.549   1.510
 5411TIP3   OH216238   1.790   2.518   0.695
 5411TIP3    H116239   1.793   2.542   0.602
 5411TIP3    H216240   1.697   2.499   0.711
 5412TIP3   OH216241   3.451   4.284   5.235
 5412TIP3    H116242   3.467   4.245   5.320
 5412TIP3    H216243   3.357   4.279   5.223
 5413TIP3   OH216244   3.539   4.115   4.244
 5413TIP3    H116245   3.613   4.085   4.295
 5413TIP3    H216246   3.524   4.047   4.179
 5414TIP3   OH216247   0.228   5.993   2.875
 5414TIP3    H116248   0.321   5.991   2.899
 5414TIP3    H216249   0.216   5.916   2.820
 5415TIP3   OH216250   0.410   2.315   3.118
 5415TIP3    H116251   0.493   2.335   3.162
 5415TIP3    H216252   0.422   2.344   3.028
 5416TIP3   OH216253   3.122   0.146   2.624
 5416TIP3    H116254   3.169   0.096   2.691
 5416TIP3    H216255   3.030   0.127   2.640
 5417TIP3   OH216256   5.730   3.060   1.504
 5417TIP3    H116257   5.670   3.093   1.438
 5417TIP3    H216258   5.816   3.063   1.462
 5418TIP3   OH216259   5.320   5.600   4.390
 5418TIP3    H116260   5.386   5.552   4.341
 5418TIP3    H216261   5.344   5.692   4.379
 5419TIP3   OH216262   0.683   5.982   4.564
 5419TIP3    H116263   0.687   5.898   4.518
 5419TIP3    H216264   0.671   6.047   4.496
 5420TIP3   OH216265   3.331   4.027   4.424
 5420TIP3    H116266   3.274   4.104   4.427
 5420TIP3    H216267   3.404   4.054   4.368
 5421TIP3   OH216268   3.695   5.165   0.207
 5421TIP3    H116269   3.781   5.203   0.190
 5421TIP3    H216270   3.634   5.220   0.158
 5422TIP3   OH216271   4.676   5.799   4.523
 5422TIP3    H116272   4.595   5.803   4.473
 5422TIP3    H216273   4.737   5.750   4.467
 5423TIP3   OH216274   3.149   5.567   0.184
 5423TIP3    H116275   3.132   5.646   0.134
 5423TIP3    H216276   3.103   5.580   0.267
 5424TIP3   OH216277   6.229   0.759   1.930
 5424TIP3    H116278   6.187   0.739   1.846
 5424TIP3    H216279   6.230   0.854   1.935
 5425TIP3   OH216280   3.705   0.843   2.882
 5425TIP3    H116281   3.679   0.853   2.974
 5425TIP3    H216282   3.654   0.768   2.851
 5426TIP3   OH216283   0.100   2.387   1.807
 5426TIP3    H116284   0.036   2.363   1.875
 5426TIP3    H216285   0.052   2.443   1.747
 5427TIP3   OH216286   0.360   2.352   1.324
 5427TIP3    H116287   0.265   2.360   1.327
 5427TIP3    H216288   0.382   2.353   1.231
 5428TIP3   OH216289   1.327   5.406   1.653
 5428TIP3    H116290   1.254   5.370   1.704
 5428TIP3    H216291   1.404   5.386   1.705
 5429TIP3   OH216292   5.895   3.523   1.664
 5429TIP3    H116293   5.929   3.612   1.663
 5429TIP3    H216294   5.821   3.524   1.603
 5430TIP3   OH216295   1.225   1.272   2.249
 5430TIP3    H116296   1.171   1.271   2.328
 5430TIP3    H216297   1.214   1.185   2.211
 5431TIP3   OH216298   3.096   1.637   0.942
 5431TIP3    H116299   3.035   1.701   0.977
 5431TIP3    H216300   3.097   1.566   1.006
 5432TIP3   OH216301   4.126   3.695   2.837
 5432TIP3    H116302   4.197   3.733   2.889
 5432TIP3    H216303   4.048   3.708   2.891
 5433TIP3   OH216304   3.158   0.990   3.829
 5433TIP3    H116305   3.245   1.027   3.812
 5433TIP3    H216306   3.119   1.050   3.893
 5434TIP3   OH216307   5.754   1.933   2.395
 5434TIP3    H116308   5.812   1.981   2.455
 5434TIP3    H216309   5.666   1.949   2.429
 5435TIP3   OH216310   5.417   4.619   5.163
 5435TIP3    H116311   5.481   4.611   5.092
 5435TIP3    H216312   5.344   4.666   5.124
 5436TIP3   OH216313   0.359   0.782   2.010
 5436TIP3    H116314   0.447   0.812   1.986
 5436TIP3    H216315   0.310   0.784   1.927
 5437TIP3   OH216316   2.383   2.835   2.541
 5437TIP3    H116317   2.443   2.873   2.477
 5437TIP3    H216318   2.307   2.808   2.490
 5438TIP3   OH216319   5.992   5.121   4.337
 5438TIP3    H116320   6.006   5.196   4.279
 5438TIP3    H216321   6.079   5.081   4.345
 5439TIP3   OH216322   3.871   3.731   1.459
 5439TIP3    H116323   3.952   3.778   1.482
 5439TIP3    H216324   3.894   3.681   1.381
 5440TIP3   OH216325   6.092   0.197   5.156
 5440TIP3    H116326   6.010   0.164   5.191
 5440TIP3    H216327   6.068   0.237   5.072
 5441TIP3   OH216328   3.161   1.218   3.027
 5441TIP3    H116329   3.165   1.122   3.026
 5441TIP3    H216330   3.088   1.238   3.086
 5442TIP3   OH216331   4.523   1.120   2.225
 5442TIP3    H116332   4.500   1.139   2.135
 5442TIP3    H216333   4.463   1.173   2.277
 5443TIP3   OH216334   2.103   3.551   3.236
 5443TIP3    H116335   2.066   3.623   3.184
 5443TIP3    H216336   2.032   3.488   3.244
 5444TIP3   OH216337   3.842   4.118   5.113
 5444TIP3    H116338   3.888   4.035   5.097
 5444TIP3    H216339   3.755   4.104   5.075
 5445TIP3   OH216340   5.937   1.909   3.387
 5445TIP3    H116341   5.945   1.993   3.433
 5445TIP3    H216342   5.875   1.927   3.316
 5446TIP3   OH216343   6.167   5.858   4.362
 5446TIP3    H116344   6.187   5.947   4.333
 5446TIP3    H216345   6.073   5.847   4.347
 5447TIP3   OH216346   0.516   5.338   1.505
 5447TIP3    H116347   0.465   5.258   1.492
 5447TIP3    H216348   0.575   5.317   1.577
 5448TIP3   OH216349   3.313   2.440   3.234
 5448TIP3    H116350   3.379   2.393   3.184
 5448TIP3    H216351   3.230   2.404   3.204
 5449TIP3   OH216352   5.642   3.830   4.964
 5449TIP3    H116353   5.596   3.914   4.967
 5449TIP3    H216354   5.734   3.853   4.954
 5450TIP3   OH216355   4.723   4.178   3.822
 5450TIP3    H116356   4.749   4.231   3.747
 5450TIP3    H216357   4.698   4.094   3.785
 5451TIP3   OH216358   4.216   0.701   0.225
 5451TIP3    H116359   4.276   0.764   0.262
 5451TIP3    H216360   4.201   0.637   0.295
 5452TIP3   OH216361   5.999   2.555   3.197
 5452TIP3    H116362   6.057   2.616   3.243
 5452TIP3    H216363   5.992   2.592   3.109
 5453TIP3   OH216364   2.313   0.437   0.913
 5453TIP3    H116365   2.250   0.508   0.900
 5453TIP3    H216366   2.369   0.469   0.984
 5454TIP3   OH216367   4.567   1.947   1.847
 5454TIP3    H116368   4.504   1.946   1.776
 5454TIP3    H216369   4.649   1.975   1.807
 5455TIP3   OH216370   4.367   3.466   0.637
 5455TIP3    H116371   4.384   3.472   0.731
 5455TIP3    H216372   4.288   3.517   0.623
 5456TIP3   OH216373   1.201   0.740   2.185
 5456TIP3    H116374   1.136   0.758   2.117
 5456TIP3    H216375   1.150   0.709   2.259
 5457TIP3   OH216376   3.374   1.382   1.908
 5457TIP3    H116377   3.296   1.436   1.897
 5457TIP3    H216378   3.447   1.441   1.891
 5458TIP3   OH216379   1.052   3.421   0.821
 5458TIP3    H116380   1.116   3.351   0.826
 5458TIP3    H216381   1.038   3.434   0.727
 5459TIP3   OH216382   0.445   4.550   1.874
 5459TIP3    H116383   0.369   4.590   1.831
 5459TIP3    H216384   0.425   4.457   1.877
 5460TIP3   OH216385   4.602   3.522   0.135
 5460TIP3    H116386   4.668   3.453   0.134
 5460TIP3    H216387   4.553   3.506   0.216
 5461TIP3   OH216388   6.164   4.178   0.799
 5461TIP3    H116389   6.143   4.229   0.877
 5461TIP3    H216390   6.212   4.102   0.832
 5462TIP3   OH216391   3.004   4.038   1.034
 5462TIP3    H116392   2.985   4.095   1.109
 5462TIP3    H216393   2.921   3.997   1.013
 5463TIP3   OH216394   0.792   4.745   4.128
 5463TIP3    H116395   0.873   4.714   4.168
 5463TIP3    H216396   0.744   4.666   4.104
 5464TIP3   OH216397   3.119   3.181   3.746
 5464TIP3    H116398   3.188   3.232   3.704
 5464TIP3    H216399   3.107   3.105   3.689
 5465TIP3   OH216400   4.122   4.541   4.562
 5465TIP3    H116401   4.045   4.531   4.506
 5465TIP3    H216402   4.117   4.467   4.622
 5466TIP3   OH216403  -0.008   3.029   3.071
 5466TIP3    H116404  -0.006   3.027   2.975
 5466TIP3    H216405  -0.033   3.119   3.092
 5467TIP3   OH216406   0.686   1.989   3.454
 5467TIP3    H116407   0.666   1.900   3.425
 5467TIP3    H216408   0.606   2.039   3.436
 5468TIP3   OH216409   4.814   0.677   3.898
 5468TIP3    H116410   4.812   0.764   3.858
 5468TIP3    H216411   4.727   0.665   3.937
 5469TIP3   OH216412   6.172   3.005   4.474
 5469TIP3    H116413   6.255   2.998   4.521
 5469TIP3    H216414   6.153   2.916   4.445
 5470TIP3   OH216415   0.106   3.368   0.260
 5470TIP3    H116416   0.053   3.292   0.285
 5470TIP3    H216417   0.043   3.431   0.225
 5471TIP3   OH216418   5.901   1.998   1.542
 5471TIP3    H116419   5.906   2.034   1.454
 5471TIP3    H216420   5.880   1.906   1.530
 5472TIP3   OH216421   3.983   5.232   4.763
 5472TIP3    H116422   3.947   5.145   4.750
 5472TIP3    H216423   4.065   5.218   4.810
 5473TIP3   OH216424   2.819   3.555   2.997
 5473TIP3    H116425   2.878   3.491   3.037
 5473TIP3    H216426   2.796   3.515   2.913
 5474TIP3   OH216427   2.868   0.076   3.781
 5474TIP3    H116428   2.855   0.150   3.723
 5474TIP3    H216429   2.782   0.034   3.788
 5475TIP3   OH216430   5.317   1.169   2.956
 5475TIP3    H116431   5.356   1.085   2.980
 5475TIP3    H216432   5.286   1.206   3.038
 5476TIP3   OH216433   3.078   3.314   2.054
 5476TIP3    H116434   3.158   3.263   2.050
 5476TIP3    H216435   3.080   3.368   1.974
 5477TIP3   OH216436   3.834   0.114   3.988
 5477TIP3    H116437   3.859   0.202   3.961
 5477TIP3    H216438   3.859   0.109   4.081
 5478TIP3   OH216439   0.240   3.993   3.496
 5478TIP3    H116440   0.306   3.932   3.461
 5478TIP3    H216441   0.248   4.071   3.442
 5479TIP3   OH216442   4.277   4.103   0.477
 5479TIP3    H116443   4.202   4.050   0.451
 5479TIP3    H216444   4.320   4.051   0.546
 5480TIP3   OH216445   5.012   5.546   0.164
 5480TIP3    H116446   4.982   5.526   0.075
 5480TIP3    H216447   5.102   5.513   0.167
 5481TIP3   OH216448   4.101   4.024   4.094
 5481TIP3    H116449   4.181   4.075   4.099
 5481TIP3    H216450   4.106   3.964   4.169
 5482TIP3   OH216451   4.544   2.213   4.409
 5482TIP3    H116452   4.517   2.253   4.327
 5482TIP3    H216453   4.477   2.145   4.426
 5483TIP3   OH216454   1.236  -0.009   4.780
 5483TIP3    H116455   1.278   0.040   4.851
 5483TIP3    H216456   1.269   0.033   4.700
 5484TIP3   OH216457   5.561   2.910   0.953
 5484TIP3    H116458   5.550   2.966   0.875
 5484TIP3    H216459   5.526   2.825   0.926
 5485TIP3   OH216460   5.956   5.371   3.370
 5485TIP3    H116461   5.977   5.389   3.461
 5485TIP3    H216462   5.868   5.333   3.371
 5486TIP3   OH216463   5.613   3.227   3.701
 5486TIP3    H116464   5.707   3.230   3.683
 5486TIP3    H216465   5.572   3.232   3.614
 5487TIP3   OH216466   4.063   3.886   1.536
 5487TIP3    H116467   4.141   3.887   1.591
 5487TIP3    H216468   4.053   3.977   1.507
 5488TIP3   OH216469   2.568   2.735   1.325
 5488TIP3    H116470   2.646   2.789   1.336
 5488TIP3    H216471   2.504   2.772   1.387
 5489TIP3   OH216472   2.808   0.836   4.020
 5489TIP3    H116473   2.714   0.853   4.022
 5489TIP3    H216474   2.846   0.905   4.074
 5490TIP3   OH216475   1.276   0.014   1.523
 5490TIP3    H116476   1.365  -0.021   1.518
 5490TIP3    H216477   1.288   0.109   1.525
 5491TIP3   OH216478   3.076   5.821   0.067
 5491TIP3    H116479   3.064   5.853  -0.022
 5491TIP3    H216480   3.149   5.872   0.102
 5492TIP3   OH216481   2.571   3.658   4.675
 5492TIP3    H116482   2.624   3.578   4.679
 5492TIP3    H216483   2.616   3.720   4.733
 5493TIP3   OH216484   3.385   3.339   1.402
 5493TIP3    H116485   3.415   3.423   1.437
 5493TIP3    H216486   3.423   3.274   1.461
 5494TIP3   OH216487   0.052   4.427   2.003
 5494TIP3    H116488   0.044   4.511   1.959
 5494TIP3    H216489  -0.027   4.421   2.058
 5495TIP3   OH216490   1.779   4.315   2.340
 5495TIP3    H116491   1.775   4.305   2.436
 5495TIP3    H216492   1.743   4.402   2.323
 5496TIP3   OH216493   6.060   5.193   1.159
 5496TIP3    H116494   6.009   5.228   1.086
 5496TIP3    H216495   6.105   5.268   1.197
 5497TIP3   OH216496   0.298   4.463   0.695
 5497TIP3    H116497   0.327   4.526   0.629
 5497TIP3    H216498   0.373   4.404   0.706
 5498TIP3   OH216499   3.902   4.331   3.416
 5498TIP3    H116500   3.941   4.351   3.502
 5498TIP3    H216501   3.831   4.395   3.408
 5499TIP3   OH216502   3.839   3.230   2.215
 5499TIP3    H116503   3.899   3.261   2.147
 5499TIP3    H216504   3.877   3.148   2.246
 5500TIP3   OH216505   3.604   2.315   2.007
 5500TIP3    H116506   3.581   2.224   1.984
 5500TIP3    H216507   3.562   2.368   1.939
 5501TIP3   OH216508   4.204   5.320   2.753
 5501TIP3    H116509   4.142   5.358   2.815
 5501TIP3    H216510   4.290   5.338   2.792
 5502TIP3   OH216511   1.076   5.031   5.181
 5502TIP3    H116512   1.023   4.962   5.142
 5502TIP3    H216513   1.014   5.084   5.231
 5503TIP3   OH216514   2.738   3.409   4.447
 5503TIP3    H116515   2.818   3.366   4.416
 5503TIP3    H216516   2.761   3.502   4.452
 5504TIP3   OH216517   5.240   2.105   0.705
 5504TIP3    H116518   5.293   2.027   0.689
 5504TIP3    H216519   5.300   2.166   0.748
 5505TIP3   OH216520   1.471   2.949   3.449
 5505TIP3    H116521   1.403   2.927   3.513
 5505TIP3    H216522   1.553   2.942   3.498
 5506TIP3   OH216523   2.328   1.935   4.615
 5506TIP3    H116524   2.389   1.987   4.667
 5506TIP3    H216525   2.266   1.999   4.580
 5507TIP3   OH216526   0.432   1.203   4.186
 5507TIP3    H116527   0.484   1.238   4.259
 5507TIP3    H216528   0.451   1.109   4.186
 5508TIP3   OH216529   5.370   1.645  -0.009
 5508TIP3    H116530   5.315   1.580   0.034
 5508TIP3    H216531   5.430   1.675   0.060
 5509TIP3   OH216532   5.530   2.811   3.929
 5509TIP3    H116533   5.588   2.821   4.004
 5509TIP3    H216534   5.460   2.754   3.960
 5510TIP3   OH216535   3.582   4.124   5.052
 5510TIP3    H116536   3.531   4.044   5.039
 5510TIP3    H216537   3.531   4.175   5.115
 5511TIP3   OH216538   4.510   4.422   3.780
 5511TIP3    H116539   4.503   4.489   3.711
 5511TIP3    H216540   4.575   4.360   3.745
 5512TIP3   OH216541   6.329   4.423   4.288
 5512TIP3    H116542   6.322   4.404   4.382
 5512TIP3    H216543   6.421   4.408   4.267
 5513TIP3   OH216544   1.190   2.800   3.621
 5513TIP3    H116545   1.140   2.811   3.702
 5513TIP3    H216546   1.202   2.706   3.612
 5514TIP3   OH216547   4.411   3.522   3.855
 5514TIP3    H116548   4.409   3.435   3.896
 5514TIP3    H216549   4.347   3.516   3.784
 5515TIP3   OH216550   0.890   3.394   2.706
 5515TIP3    H116551   0.879   3.486   2.731
 5515TIP3    H216552   0.908   3.397   2.612
 5516TIP3   OH216553   4.266   2.575   3.814
 5516TIP3    H116554   4.240   2.668   3.812
 5516TIP3    H216555   4.193   2.531   3.857
 5517TIP3   OH216556   2.501   1.025   3.147
 5517TIP3    H116557   2.448   1.033   3.226
 5517TIP3    H216558   2.530   1.114   3.128
 5518TIP3   OH216559   1.387   1.814   4.599
 5518TIP3    H116560   1.473   1.852   4.619
 5518TIP3    H216561   1.381   1.818   4.503
 5519TIP3   OH216562   1.288   3.141   5.025
 5519TIP3    H116563   1.239   3.100   5.096
 5519TIP3    H216564   1.301   3.231   5.054
 5520TIP3   OH216565   1.288   0.308   0.765
 5520TIP3    H116566   1.221   0.264   0.817
 5520TIP3    H216567   1.274   0.401   0.782
 5521TIP3   OH216568   2.957   2.773   3.150
 5521TIP3    H116569   3.020   2.782   3.079
 5521TIP3    H216570   2.873   2.756   3.106
 5522TIP3   OH216571   0.328   2.187   2.214
 5522TIP3    H116572   0.277   2.106   2.206
 5522TIP3    H216573   0.292   2.230   2.292
 5523TIP3   OH216574   2.989   1.263   0.921
 5523TIP3    H116575   2.911   1.296   0.877
 5523TIP3    H216576   2.956   1.200   0.985
 5524TIP3   OH216577   1.157   2.267   4.329
 5524TIP3    H116578   1.175   2.192   4.273
 5524TIP3    H216579   1.077   2.306   4.293
 5525TIP3   OH216580   5.698   5.535   0.682
 5525TIP3    H116581   5.756   5.460   0.685
 5525TIP3    H216582   5.615   5.500   0.650
 5526TIP3   OH216583   6.005   0.326   4.908
 5526TIP3    H116584   5.988   0.265   4.837
 5526TIP3    H216585   6.043   0.403   4.866
 5527TIP3   OH216586   2.818   5.827   2.208
 5527TIP3    H116587   2.870   5.845   2.286
 5527TIP3    H216588   2.873   5.770   2.155
 5528TIP3   OH216589   2.853   5.330   3.380
 5528TIP3    H116590   2.762   5.306   3.396
 5528TIP3    H216591   2.863   5.415   3.424
 5529TIP3   OH216592   3.174   2.242   4.331
 5529TIP3    H116593   3.248   2.303   4.329
 5529TIP3    H216594   3.105   2.288   4.284
 5530TIP3   OH216595   2.143   3.769   0.192
 5530TIP3    H116596   2.225   3.723   0.207
 5530TIP3    H216597   2.086   3.741   0.264
 5531TIP3   OH216598   4.248   0.128   0.950
 5531TIP3    H116599   4.170   0.152   1.000
 5531TIP3    H216600   4.225   0.148   0.859
 5532TIP3   OH216601   3.692   3.583   5.160
 5532TIP3    H116602   3.744   3.545   5.230
 5532TIP3    H216603   3.660   3.508   5.111
 5533TIP3   OH216604   1.205   1.125   4.582
 5533TIP3    H116605   1.158   1.200   4.618
 5533TIP3    H216606   1.296   1.141   4.605
 5534TIP3   OH216607   3.125   4.427   2.870
 5534TIP3    H116608   3.184   4.419   2.945
 5534TIP3    H216609   3.054   4.483   2.902
 5535TIP3   OH216610   2.255   3.641   1.183
 5535TIP3    H116611   2.280   3.606   1.098
 5535TIP3    H216612   2.163   3.616   1.193
 5536TIP3   OH216613   2.817   4.389   2.545
 5536TIP3    H116614   2.836   4.378   2.452
 5536TIP3    H216615   2.814   4.300   2.580
 5537TIP3   OH216616   2.585   5.452   2.016
 5537TIP3    H116617   2.649   5.389   2.050
 5537TIP3    H216618   2.569   5.512   2.088
 5538TIP3   OH216619   2.988   3.059   3.254
 5538TIP3    H116620   2.928   2.992   3.222
 5538TIP3    H216621   3.074   3.030   3.225
 5539TIP3   OH216622   6.268   2.758   1.836
 5539TIP3    H116623   6.207   2.777   1.907
 5539TIP3    H216624   6.223   2.693   1.782
 5540TIP3   OH216625   5.248   3.062   2.953
 5540TIP3    H116626   5.198   2.994   2.998
 5540TIP3    H216627   5.276   3.121   3.023
 5541TIP3   OH216628   1.999   0.646  -0.091
 5541TIP3    H116629   2.047   0.579  -0.139
 5541TIP3    H216630   2.064   0.687  -0.034
 5542TIP3   OH216631   1.081   1.198   2.625
 5542TIP3    H116632   1.079   1.103   2.634
 5542TIP3    H216633   1.087   1.231   2.715
 5543TIP3   OH216634   3.657   0.156   1.226
 5543TIP3    H116635   3.751   0.145   1.241
 5543TIP3    H216636   3.618   0.072   1.253
 5544TIP3   OH216637   0.037   5.609   2.857
 5544TIP3    H116638   0.015   5.525   2.818
 5544TIP3    H216639  -0.044   5.638   2.899
 5545TIP3   OH216640   4.063   3.954   0.394
 5545TIP3    H116641   3.983   3.943   0.446
 5545TIP3    H216642   4.046   3.905   0.314
 5546TIP3   OH216643   4.788   3.487   3.164
 5546TIP3    H116644   4.737   3.439   3.228
 5546TIP3    H216645   4.874   3.498   3.204
 5547TIP3   OH216646   5.741   5.440   1.175
 5547TIP3    H116647   5.755   5.463   1.083
 5547TIP3    H216648   5.732   5.524   1.220
 5548TIP3   OH216649   5.964   1.139   3.389
 5548TIP3    H116650   5.978   1.142   3.484
 5548TIP3    H216651   5.884   1.088   3.378
 5549TIP3   OH216652   1.183   2.142   0.482
 5549TIP3    H116653   1.275   2.167   0.475
 5549TIP3    H216654   1.176   2.060   0.434
 5550TIP3   OH216655   5.958   2.809   0.833
 5550TIP3    H116656   5.928   2.776   0.918
 5550TIP3    H216657   5.926   2.899   0.829
 5551TIP3   OH216658   3.868   1.128   3.918
 5551TIP3    H116659   3.959   1.098   3.917
 5551TIP3    H216660   3.857   1.167   4.005
 5552TIP3   OH216661   3.904   1.660   3.709
 5552TIP3    H116662   3.825   1.625   3.668
 5552TIP3    H216663   3.876   1.743   3.748
 5553TIP3   OH216664   2.587   3.600   1.634
 5553TIP3    H116665   2.633   3.561   1.559
 5553TIP3    H216666   2.497   3.567   1.627
 5554TIP3   OH216667   5.206   3.025   4.181
 5554TIP3    H116668   5.163   2.974   4.113
 5554TIP3    H216669   5.293   3.044   4.146
 5555TIP3   OH216670   1.321   4.564   0.053
 5555TIP3    H116671   1.401   4.572   0.001
 5555TIP3    H216672   1.340   4.496   0.117
 5556TIP3   OH216673   4.622   3.163   1.902
 5556TIP3    H116674   4.700   3.166   1.958
 5556TIP3    H216675   4.582   3.079   1.922
 5557TIP3   OH216676   4.624   5.316   2.467
 5557TIP3    H116677   4.601   5.374   2.539
 5557TIP3    H216678   4.580   5.233   2.486
 5558TIP3   OH216679   3.071   4.071   2.575
 5558TIP3    H116680   3.041   4.080   2.484
 5558TIP3    H216681   3.089   4.161   2.603
 5559TIP3   OH216682   2.610   0.352   4.368
 5559TIP3    H116683   2.531   0.336   4.420
 5559TIP3    H216684   2.577   0.372   4.281
 5560TIP3   OH216685   5.928   0.470   1.532
 5560TIP3    H116686   5.941   0.375   1.544
 5560TIP3    H216687   5.927   0.481   1.437
 5561TIP3   OH216688   3.596   1.105   3.291
 5561TIP3    H116689   3.589   1.195   3.261
 5561TIP3    H216690   3.569   1.108   3.383
 5562TIP3   OH216691   0.342   5.793   1.991
 5562TIP3    H116692   0.377   5.874   1.953
 5562TIP3    H216693   0.410   5.763   2.051
 5563TIP3   OH216694   3.379   1.702   0.835
 5563TIP3    H116695   3.413   1.612   0.835
 5563TIP3    H216696   3.303   1.699   0.894
 5564TIP3   OH216697   0.390   1.381   4.969
 5564TIP3    H116698   0.434   1.318   4.912
 5564TIP3    H216699   0.311   1.406   4.920
 5565TIP3   OH216700   1.102   1.664   1.368
 5565TIP3    H116701   1.165   1.727   1.403
 5565TIP3    H216702   1.124   1.581   1.411
 5566TIP3   OH216703   2.192   0.533   4.273
 5566TIP3    H116704   2.123   0.555   4.210
 5566TIP3    H216705   2.146   0.488   4.344
 5567TIP3   OH216706   4.107   2.391   4.846
 5567TIP3    H116707   4.203   2.384   4.849
 5567TIP3    H216708   4.081   2.333   4.775
 5568TIP3   OH216709   3.413   3.275   4.343
 5568TIP3    H116710   3.337   3.296   4.288
 5568TIP3    H216711   3.376   3.229   4.418
 5569TIP3   OH216712   5.976   2.399   4.590
 5569TIP3    H116713   6.018   2.468   4.539
 5569TIP3    H216714   5.882   2.414   4.579
 5570TIP3   OH216715   3.343   3.227   0.968
 5570TIP3    H116716   3.314   3.214   1.058
 5570TIP3    H216717   3.436   3.204   0.969
 5571TIP3   OH216718   3.252   4.440   4.967
 5571TIP3    H116719   3.266   4.529   4.934
 5571TIP3    H216720   3.334   4.394   4.948
 5572TIP3   OH216721   0.504   1.592   5.102
 5572TIP3    H116722   0.516   1.568   5.194
 5572TIP3    H216723   0.461   1.515   5.064
 5573TIP3   OH216724   3.718   3.173   2.972
 5573TIP3    H116725   3.754   3.206   2.889
 5573TIP3    H216726   3.669   3.095   2.947
 5574TIP3   OH216727   2.179   3.268   0.816
 5574TIP3    H116728   2.207   3.178   0.834
 5574TIP3    H216729   2.124   3.261   0.738
 5575TIP3   OH216730   1.138   2.111   2.160
 5575TIP3    H116731   1.177   2.031   2.194
 5575TIP3    H216732   1.142   2.173   2.233
 5576TIP3   OH216733   0.794   4.437   2.944
 5576TIP3    H116734   0.747   4.515   2.914
 5576TIP3    H216735   0.884   4.452   2.917
 5577TIP3   OH216736   2.266   5.809   1.526
 5577TIP3    H116737   2.218   5.726   1.524
 5577TIP3    H216738   2.348   5.788   1.570
 5578TIP3   OH216739   2.168   3.745   4.853
 5578TIP3    H116740   2.224   3.762   4.777
 5578TIP3    H216741   2.217   3.782   4.926
 5579TIP3   OH216742   2.295   1.934   1.741
 5579TIP3    H116743   2.362   1.913   1.677
 5579TIP3    H216744   2.216   1.951   1.689
 5580TIP3   OH216745   4.191   1.064   2.354
 5580TIP3    H116746   4.208   0.978   2.316
 5580TIP3    H216747   4.097   1.078   2.341
 5581TIP3   OH216748   4.340   4.793   0.857
 5581TIP3    H116749   4.337   4.840   0.774
 5581TIP3    H216750   4.384   4.710   0.836
 5582TIP3   OH216751   0.285   4.337   1.881
 5582TIP3    H116752   0.198   4.346   1.921
 5582TIP3    H216753   0.314   4.249   1.907
 5583TIP3   OH216754   2.853   2.921   5.000
 5583TIP3    H116755   2.913   2.850   4.976
 5583TIP3    H216756   2.866   2.932   5.094
 5584TIP3   OH216757   6.118   3.115   3.428
 5584TIP3    H116758   6.092   3.123   3.336
 5584TIP3    H216759   6.147   3.203   3.452
 5585TIP3   OH216760   3.394   4.554   0.065
 5585TIP3    H116761   3.312   4.511   0.086
 5585TIP3    H216762   3.457   4.482   0.054
 5586TIP3   OH216763   5.430   4.457   3.357
 5586TIP3    H116764   5.515   4.500   3.363
 5586TIP3    H216765   5.424   4.429   3.266
 5587TIP3   OH216766   4.774   5.501   2.068
 5587TIP3    H116767   4.810   5.497   2.156
 5587TIP3    H216768   4.775   5.594   2.045
 5588TIP3   OH216769   5.175   3.011   1.519
 5588TIP3    H116770   5.100   3.001   1.460
 5588TIP3    H216771   5.248   2.970   1.473
 5589TIP3   OH216772   3.083   1.784   2.776
 5589TIP3    H116773   3.153   1.766   2.838
 5589TIP3    H216774   3.122   1.771   2.690
 5590TIP3   OH216775   6.154   1.266   4.655
 5590TIP3    H116776   6.109   1.205   4.597
 5590TIP3    H216777   6.173   1.215   4.734
 5591TIP3   OH216778   4.540   0.293   1.390
 5591TIP3    H116779   4.521   0.321   1.479
 5591TIP3    H216780   4.480   0.221   1.374
 5592TIP3   OH216781   2.182   5.030   4.975
 5592TIP3    H116782   2.137   5.101   4.929
 5592TIP3    H216783   2.245   5.075   5.032
 5593TIP3   OH216784   4.641   3.117   0.955
 5593TIP3    H116785   4.546   3.130   0.946
 5593TIP3    H216786   4.653   3.022   0.949
 5594TIP3   OH216787   2.444   4.572   3.250
 5594TIP3    H116788   2.496   4.628   3.193
 5594TIP3    H216789   2.476   4.591   3.339
 5595TIP3   OH216790   3.211   3.818   1.803
 5595TIP3    H116791   3.178   3.762   1.873
 5595TIP3    H216792   3.305   3.801   1.801
 5596TIP3   OH216793   3.347   0.981   2.674
 5596TIP3    H116794   3.261   0.942   2.689
 5596TIP3    H216795   3.333   1.041   2.601
 5597TIP3   OH216796   0.663   2.036   0.603
 5597TIP3    H116797   0.684   1.978   0.675
 5597TIP3    H216798   0.736   2.026   0.542
 5598TIP3   OH216799   0.272   5.771   2.286
 5598TIP3    H116800   0.325   5.699   2.321
 5598TIP3    H216801   0.212   5.729   2.225
 5599TIP3   OH216802   5.483   3.433   4.836
 5599TIP3    H116803   5.527   3.355   4.870
 5599TIP3    H216804   5.456   3.409   4.748
 5600TIP3   OH216805   5.433   3.574   0.665
 5600TIP3    H116806   5.449   3.483   0.689
 5600TIP3    H216807   5.455   3.624   0.743
 5601TIP3   OH216808   5.876   2.170   1.756
 5601TIP3    H116809   5.880   2.106   1.685
 5601TIP3    H216810   5.802   2.140   1.810
 5602TIP3   OH216811   5.368   0.701   3.985
 5602TIP3    H116812   5.384   0.792   3.960
 5602TIP3    H216813   5.382   0.699   4.079
 5603TIP3   OH216814   0.609   5.310   4.112
 5603TIP3    H116815   0.658   5.371   4.056
 5603TIP3    H216816   0.673   5.242   4.134
 5604TIP3   OH216817   0.801   4.211   3.862
 5604TIP3    H116818   0.814   4.199   3.768
 5604TIP3    H216819   0.875   4.265   3.890
 5605TIP3   OH216820   6.094   1.098   2.663
 5605TIP3    H116821   6.136   1.036   2.604
 5605TIP3    H216822   6.013   1.054   2.691
 5606TIP3   OH216823   1.568   2.344   2.901
 5606TIP3    H116824   1.617   2.275   2.857
 5606TIP3    H216825   1.609   2.351   2.987
 5607TIP3   OH216826   1.462   0.825   0.004
 5607TIP3    H116827   1.500   0.737   0.005
 5607TIP3    H216828   1.373   0.812  -0.029
 5608TIP3   OH216829   4.532   4.252   3.114
 5608TIP3    H116830   4.508   4.336   3.077
 5608TIP3    H216831   4.475   4.189   3.069
 5609TIP3   OH216832   2.791   5.388   5.067
 5609TIP3    H116833   2.751   5.414   4.985
 5609TIP3    H216834   2.878   5.428   5.066
 5610TIP3   OH216835   2.555   4.783   5.108
 5610TIP3    H116836   2.567   4.730   5.029
 5610TIP3    H216837   2.468   4.757   5.140
 5611TIP3   OH216838   2.618   0.921   1.141
 5611TIP3    H116839   2.680   0.849   1.148
 5611TIP3    H216840   2.629   0.953   1.051
 5612TIP3   OH216841   4.329   3.382   2.888
 5612TIP3    H116842   4.369   3.423   2.964
 5612TIP3    H216843   4.367   3.429   2.813
 5613TIP3   OH216844   0.888   2.808   0.488
 5613TIP3    H116845   0.882   2.874   0.558
 5613TIP3    H216846   0.900   2.725   0.534
 5614TIP3   OH216847   0.592   4.610   0.102
 5614TIP3    H116848   0.545   4.664   0.166
 5614TIP3    H216849   0.675   4.589   0.145
 5615TIP3   OH216850   5.247   5.078   1.362
 5615TIP3    H116851   5.287   5.017   1.424
 5615TIP3    H216852   5.229   5.156   1.414
 5616TIP3   OH216853   3.410   0.721   2.602
 5616TIP3    H116854   3.386   0.806   2.638
 5616TIP3    H216855   3.473   0.685   2.664
 5617TIP3   OH216856   4.517   1.708   1.006
 5617TIP3    H116857   4.475   1.628   0.975
 5617TIP3    H216858   4.451   1.777   0.992
 5618TIP3   OH216859   2.119   4.533   4.767
 5618TIP3    H116860   2.111   4.628   4.761
 5618TIP3    H216861   2.030   4.502   4.780
 5619TIP3   OH216862   2.813   3.945   4.503
 5619TIP3    H116863   2.878   3.959   4.572
 5619TIP3    H216864   2.834   4.010   4.436
 5620TIP3   OH216865   0.587   5.438   0.798
 5620TIP3    H116866   0.530   5.403   0.866
 5620TIP3    H216867   0.528   5.463   0.727
 5621TIP3   OH216868   3.659   2.553   2.163
 5621TIP3    H116869   3.594   2.595   2.105
 5621TIP3    H216870   3.684   2.473   2.117
 5622TIP3   OH216871   2.588   2.946   0.969
 5622TIP3    H116872   2.527   2.881   1.003
 5622TIP3    H216873   2.540   3.029   0.977
 5623TIP3   OH216874   1.369   1.933   3.569
 5623TIP3    H116875   1.463   1.917   3.576
 5623TIP3    H216876   1.349   1.992   3.642
 5624TIP3   OH216877   1.525   3.842   2.143
 5624TIP3    H116878   1.549   3.920   2.193
 5624TIP3    H216879   1.459   3.798   2.197
 5625TIP3   OH216880   3.496   3.654   4.897
 5625TIP3    H116881   3.541   3.574   4.870
 5625TIP3    H216882   3.567   3.715   4.918
 5626TIP3   OH216883   2.051   0.384   1.934
 5626TIP3    H116884   2.004   0.429   1.864
 5626TIP3    H216885   1.986   0.326   1.974
 5627TIP3   OH216886   2.513   5.630   2.232
 5627TIP3    H116887   2.478   5.669   2.152
 5627TIP3    H216888   2.603   5.662   2.237
 5628TIP3   OH216889   0.759   4.293   1.679
 5628TIP3    H116890   0.832   4.231   1.675
 5628TIP3    H216891   0.757   4.321   1.770
 5629TIP3   OH216892   6.034   0.528   2.676
 5629TIP3    H116893   6.082   0.517   2.757
 5629TIP3    H216894   6.063   0.455   2.621
 5630TIP3   OH216895   3.265   3.702   5.044
 5630TIP3    H116896   3.198   3.646   5.005
 5630TIP3    H216897   3.347   3.672   5.004
 5631TIP3   OH216898   4.529   0.950   4.863
 5631TIP3    H116899   4.521   0.978   4.954
 5631TIP3    H216900   4.533   1.031   4.812
 5632TIP3   OH216901   1.884   5.968   0.356
 5632TIP3    H116902   1.818   5.911   0.395
 5632TIP3    H216903   1.835   6.042   0.320
 5633TIP3   OH216904   0.993   0.438   4.234
 5633TIP3    H116905   0.993   0.526   4.273
 5633TIP3    H216906   0.937   0.387   4.292
 5634TIP3   OH216907   1.082   2.755   2.153
 5634TIP3    H116908   1.052   2.708   2.231
 5634TIP3    H216909   1.002   2.792   2.115
 5635TIP3   OH216910   1.741   5.833   0.548
 5635TIP3    H116911   1.702   5.766   0.604
 5635TIP3    H216912   1.803   5.879   0.605
 5636TIP3   OH216913   4.208   1.691   4.766
 5636TIP3    H116914   4.207   1.660   4.857
 5636TIP3    H216915   4.206   1.786   4.772
 5637TIP3   OH216916   3.870   1.290   3.359
 5637TIP3    H116917   3.845   1.262   3.271
 5637TIP3    H216918   3.884   1.208   3.407
 5638TIP3   OH216919   3.025   5.976   3.848
 5638TIP3    H116920   3.038   6.055   3.900
 5638TIP3    H216921   2.932   5.957   3.857
 5639TIP3   OH216922   3.937   3.219   0.648
 5639TIP3    H116923   3.938   3.281   0.721
 5639TIP3    H216924   3.889   3.265   0.579
 5640TIP3   OH216925   1.386   0.663   3.186
 5640TIP3    H116926   1.402   0.673   3.093
 5640TIP3    H216927   1.474   0.655   3.225
 5641TIP3   OH216928   5.403   4.724   2.569
 5641TIP3    H116929   5.460   4.778   2.515
 5641TIP3    H216930   5.403   4.767   2.654
 5642TIP3   OH216931   4.973   4.309   3.435
 5642TIP3    H116932   5.033   4.351   3.373
 5642TIP3    H216933   4.999   4.217   3.434
 5643TIP3   OH216934   4.058   3.534   2.309
 5643TIP3    H116935   4.136   3.578   2.342
 5643TIP3    H216936   3.993   3.546   2.379
 5644TIP3   OH216937   2.927   1.281   3.527
 5644TIP3    H116938   2.989   1.218   3.491
 5644TIP3    H216939   2.920   1.349   3.460
 5645TIP3   OH216940   5.468   4.555   4.539
 5645TIP3    H116941   5.523   4.630   4.520
 5645TIP3    H216942   5.476   4.542   4.634
 5646TIP3   OH216943   5.366   0.985   4.031
 5646TIP3    H116944   5.363   0.968   4.126
 5646TIP3    H216945   5.449   1.029   4.018
 5647TIP3   OH216946   1.570   1.587   2.869
 5647TIP3    H116947   1.584   1.597   2.963
 5647TIP3    H216948   1.545   1.495   2.857
 5648TIP3   OH216949   4.225   1.764   2.062
 5648TIP3    H116950   4.295   1.827   2.081
 5648TIP3    H216951   4.194   1.787   1.975
 5649TIP3   OH216952   1.997   2.324   1.813
 5649TIP3    H116953   2.064   2.356   1.752
 5649TIP3    H216954   1.935   2.397   1.821
 5650TIP3   OH216955   4.228   5.243   0.353
 5650TIP3    H116956   4.217   5.162   0.403
 5650TIP3    H216957   4.307   5.283   0.389
 5651TIP3   OH216958   0.278   1.596   1.142
 5651TIP3    H116959   0.347   1.578   1.205
 5651TIP3    H216960   0.277   1.520   1.085
 5652TIP3   OH216961   3.568   1.489   1.539
 5652TIP3    H116962   3.552   1.494   1.445
 5652TIP3    H216963   3.547   1.577   1.572
 5653TIP3   OH216964   0.380   1.707   3.608
 5653TIP3    H116965   0.343   1.619   3.606
 5653TIP3    H216966   0.401   1.722   3.700
 5654TIP3   OH216967   4.525   2.308   1.227
 5654TIP3    H116968   4.459   2.278   1.164
 5654TIP3    H216969   4.525   2.241   1.295
 5655TIP3   OH216970   0.890   1.025   4.302
 5655TIP3    H116971   0.891   0.968   4.378
 5655TIP3    H216972   0.964   1.084   4.315
 5656TIP3   OH216973   0.609   4.908   3.986
 5656TIP3    H116974   0.687   4.934   3.936
 5656TIP3    H216975   0.644   4.857   4.059
 5657TIP3   OH216976   0.103   3.145   2.427
 5657TIP3    H116977   0.015   3.177   2.412
 5657TIP3    H216978   0.129   3.182   2.511
 5658TIP3   OH216979   2.394   4.443   0.589
 5658TIP3    H116980   2.390   4.427   0.495
 5658TIP3    H216981   2.331   4.381   0.626
 5659TIP3   OH216982   3.119   5.123   3.122
 5659TIP3    H116983   3.045   5.133   3.062
 5659TIP3    H216984   3.176   5.197   3.102
 5660TIP3   OH216985   4.812   2.472   3.496
 5660TIP3    H116986   4.756   2.421   3.437
 5660TIP3    H216987   4.889   2.417   3.510
 5661TIP3   OH216988   4.959   0.022   3.299
 5661TIP3    H116989   4.873   0.042   3.263
 5661TIP3    H216990   4.964  -0.074   3.299
 5662TIP3   OH216991   3.469   5.400   3.563
 5662TIP3    H116992   3.380   5.424   3.588
 5662TIP3    H216993   3.460   5.315   3.521
 5663TIP3   OH216994   6.061   4.088   0.010
 5663TIP3    H116995   6.064   3.997   0.039
 5663TIP3    H216996   6.011   4.133   0.079
 5664TIP3   OH216997   2.764   4.735   0.130
 5664TIP3    H116998   2.720   4.650   0.138
 5664TIP3    H216999   2.854   4.718   0.158
 5665TIP3   OH217000   1.486   4.330   2.402
 5665TIP3    H117001   1.454   4.361   2.487
 5665TIP3    H217002   1.474   4.405   2.343
 5666TIP3   OH217003   2.818   3.413   0.833
 5666TIP3    H117004   2.805   3.346   0.899
 5666TIP3    H217005   2.878   3.373   0.769
 5667TIP3   OH217006   6.059   1.677   2.227
 5667TIP3    H117007   6.128   1.708   2.168
 5667TIP3    H217008   5.984   1.733   2.207
 5668TIP3   OH217009   4.928   1.111   4.721
 5668TIP3    H117010   4.996   1.112   4.788
 5668TIP3    H217011   4.965   1.160   4.648
 5669TIP3   OH217012   3.414   5.117  -0.008
 5669TIP3    H117013   3.442   5.129  -0.099
 5669TIP3    H217014   3.444   5.029   0.015
 5670TIP3   OH217015   3.824   5.931   0.831
 5670TIP3    H117016   3.776   5.905   0.910
 5670TIP3    H217017   3.771   6.003   0.795
 5671TIP3   OH217018   5.569   0.507   2.912
 5671TIP3    H117019   5.564   0.545   2.824
 5671TIP3    H217020   5.603   0.419   2.899
 5672TIP3   OH217021   0.400   4.851   3.793
 5672TIP3    H117022   0.482   4.861   3.841
 5672TIP3    H217023   0.331   4.868   3.857
 5673TIP3   OH217024   2.680   1.558   1.204
 5673TIP3    H117025   2.711   1.574   1.115
 5673TIP3    H217026   2.585   1.557   1.198
 5674TIP3   OH217027   3.779   5.274   4.541
 5674TIP3    H117028   3.847   5.269   4.608
 5674TIP3    H217029   3.757   5.367   4.537
 5675TIP3   OH217030   0.790   2.207   3.833
 5675TIP3    H117031   0.806   2.160   3.752
 5675TIP3    H217032   0.768   2.296   3.806
 5676TIP3   OH217033   5.891   5.907   1.960
 5676TIP3    H117034   5.982   5.915   1.933
 5676TIP3    H217035   5.841   5.915   1.878
 5677TIP3   OH217036   5.225   5.724   3.286
 5677TIP3    H117037   5.296   5.731   3.350
 5677TIP3    H217038   5.254   5.777   3.212
 5678TIP3   OH217039   4.519   3.150   2.842
 5678TIP3    H117040   4.542   3.117   2.929
 5678TIP3    H217041   4.450   3.214   2.858
 5679TIP3   OH217042   5.571   1.491   4.686
 5679TIP3    H117043   5.611   1.553   4.625
 5679TIP3    H217044   5.529   1.426   4.630
 5680TIP3   OH217045   3.618   0.575   3.158
 5680TIP3    H117046   3.638   0.668   3.146
 5680TIP3    H217047   3.528   0.566   3.128
 5681TIP3   OH217048   0.181   2.827   2.879
 5681TIP3    H117049   0.164   2.921   2.887
 5681TIP3    H217050   0.095   2.789   2.861
 5682TIP3   OH217051   1.101   3.935   3.490
 5682TIP3    H117052   1.144   4.014   3.458
 5682TIP3    H217053   1.060   3.962   3.572
 5683TIP3   OH217054   2.722   2.128   0.801
 5683TIP3    H117055   2.658   2.057   0.808
 5683TIP3    H217056   2.676   2.204   0.835
 5684TIP3   OH217057   0.265   3.266   4.736
 5684TIP3    H117058   0.307   3.281   4.821
 5684TIP3    H217059   0.305   3.332   4.678
 5685TIP3   OH217060   3.487   4.865   3.029
 5685TIP3    H117061   3.571   4.822   3.045
 5685TIP3    H217062   3.507   4.934   2.966
 5686TIP3   OH217063   3.171   1.350   2.787
 5686TIP3    H117064   3.100   1.331   2.725
 5686TIP3    H217065   3.140   1.315   2.871
 5687TIP3   OH217066   6.187   0.713   0.560
 5687TIP3    H117067   6.131   0.661   0.618
 5687TIP3    H217068   6.179   0.671   0.475
 5688TIP3   OH217069   3.326   5.378   0.771
 5688TIP3    H117070   3.321   5.284   0.753
 5688TIP3    H217071   3.395   5.410   0.713
 5689TIP3   OH217072   1.567   2.772   1.089
 5689TIP3    H117073   1.532   2.726   1.013
 5689TIP3    H217074   1.539   2.863   1.077
 5690TIP3   OH217075   1.333   1.778   1.479
 5690TIP3    H117076   1.332   1.869   1.449
 5690TIP3    H217077   1.406   1.738   1.431
 5691TIP3   OH217078   4.513   1.725   3.943
 5691TIP3    H117079   4.434   1.688   3.904
 5691TIP3    H217080   4.584   1.687   3.891
 5692TIP3   OH217081   5.326   1.765   4.737
 5692TIP3    H117082   5.286   1.727   4.659
 5692TIP3    H217083   5.288   1.852   4.744
 5693TIP3   OH217084   2.846   1.878   1.867
 5693TIP3    H117085   2.798   1.928   1.933
 5693TIP3    H217086   2.861   1.941   1.796
 5694TIP3   OH217087   1.856   4.430   4.854
 5694TIP3    H117088   1.896   4.344   4.868
 5694TIP3    H217089   1.862   4.473   4.939
 5695TIP3   OH217090   1.982   2.967   1.248
 5695TIP3    H117091   2.072   2.955   1.218
 5695TIP3    H217092   1.936   2.888   1.220
 5696TIP3   OH217093   2.584   3.132   4.201
 5696TIP3    H117094   2.625   3.047   4.216
 5696TIP3    H217095   2.490   3.114   4.202
 5697TIP3   OH217096   4.188   0.916   1.608
 5697TIP3    H117097   4.137   0.980   1.658
 5697TIP3    H217098   4.125   0.850   1.582
 5698TIP3   OH217099   3.749   3.034   0.096
 5698TIP3    H117100   3.676   3.001   0.044
 5698TIP3    H217101   3.777   3.113   0.050
 5699TIP3   OH217102   5.674   3.974   1.929
 5699TIP3    H117103   5.621   3.929   1.862
 5699TIP3    H217104   5.666   3.918   2.007
 5700TIP3   OH217105   5.482   0.890   3.280
 5700TIP3    H117106   5.400   0.887   3.329
 5700TIP3    H217107   5.517   0.801   3.287
 5701TIP3   OH217108   0.520   0.391   1.981
 5701TIP3    H117109   0.463   0.438   1.921
 5701TIP3    H217110   0.569   0.330   1.926
 5702TIP3   OH217111   1.659   2.324   1.445
 5702TIP3    H117112   1.616   2.396   1.399
 5702TIP3    H217113   1.587   2.271   1.479
 5703TIP3   OH217114   2.738   5.836   4.968
 5703TIP3    H117115   2.819   5.886   4.972
 5703TIP3    H217116   2.764   5.752   4.930
 5704TIP3   OH217117   0.968   2.354   1.994
 5704TIP3    H117118   0.940   2.442   1.969
 5704TIP3    H217119   1.055   2.366   2.032
 5705TIP3   OH217120   5.995   4.276   4.055
 5705TIP3    H117121   5.929   4.224   4.101
 5705TIP3    H217122   5.958   4.291   3.968
 5706TIP3   OH217123   2.447   0.261   2.455
 5706TIP3    H117124   2.454   0.167   2.439
 5706TIP3    H217125   2.370   0.289   2.405
 5707TIP3   OH217126   4.534   2.682   4.644
 5707TIP3    H117127   4.586   2.648   4.717
 5707TIP3    H217128   4.539   2.777   4.653
 5708TIP3   OH217129   3.288   4.110   3.831
 5708TIP3    H117130   3.245   4.066   3.904
 5708TIP3    H217131   3.227   4.101   3.758
 5709TIP3   OH217132   0.380   1.267   1.591
 5709TIP3    H117133   0.376   1.334   1.523
 5709TIP3    H217134   0.393   1.185   1.543
 5710TIP3   OH217135   5.871   4.935   2.173
 5710TIP3    H117136   5.819   4.969   2.101
 5710TIP3    H217137   5.904   4.851   2.142
 5711TIP3   OH217138   3.114   5.839   4.705
 5711TIP3    H117139   3.059   5.850   4.627
 5711TIP3    H217140   3.088   5.910   4.763
 5712TIP3   OH217141   3.074   0.383   2.957
 5712TIP3    H117142   3.057   0.387   3.051
 5712TIP3    H217143   3.023   0.308   2.927
 5713TIP3   OH217144   1.634   5.711   0.325
 5713TIP3    H117145   1.667   5.738   0.411
 5713TIP3    H217146   1.547   5.677   0.343
 5714TIP3   OH217147   3.855   1.337   1.485
 5714TIP3    H117148   3.795   1.374   1.550
 5714TIP3    H217149   3.864   1.245   1.511
 5715TIP3   OH217150   4.928   0.981   2.585
 5715TIP3    H117151   4.856   1.006   2.528
 5715TIP3    H217152   5.006   1.019   2.544
 5716TIP3   OH217153   1.078   4.720   2.779
 5716TIP3    H117154   1.069   4.670   2.860
 5716TIP3    H217155   1.010   4.683   2.722
 5717TIP3   OH217156   3.311   4.583   5.204
 5717TIP3    H117157   3.269   4.540   5.130
 5717TIP3    H217158   3.404   4.567   5.191
 5718TIP3   OH217159   0.533   5.966   3.364
 5718TIP3    H117160   0.577   5.893   3.408
 5718TIP3    H217161   0.457   5.927   3.322
 5719TIP3   OH217162   2.515   4.101   5.140
 5719TIP3    H117163   2.493   4.194   5.136
 5719TIP3    H217164   2.576   4.093   5.213
 5720TIP3   OH217165   5.766   3.630   3.579
 5720TIP3    H117166   5.744   3.671   3.495
 5720TIP3    H217167   5.772   3.703   3.640
 5721TIP3   OH217168   0.789   5.958   1.397
 5721TIP3    H117169   0.712   5.993   1.351
 5721TIP3    H217170   0.784   5.863   1.384
 5722TIP3   OH217171   3.995   0.480   2.440
 5722TIP3    H117172   4.044   0.527   2.507
 5722TIP3    H217173   3.904   0.482   2.470
 5723TIP3   OH217174   4.987   2.192   4.888
 5723TIP3    H117175   4.961   2.103   4.911
 5723TIP3    H217176   4.905   2.240   4.883
 5724TIP3   OH217177   0.728   0.582   4.881
 5724TIP3    H117178   0.669   0.623   4.818
 5724TIP3    H217179   0.794   0.649   4.899
 5725TIP3   OH217180   0.368   3.595   0.787
 5725TIP3    H117181   0.364   3.518   0.731
 5725TIP3    H217182   0.279   3.604   0.822
 5726TIP3   OH217183   5.280   3.950   4.773
 5726TIP3    H117184   5.208   3.887   4.773
 5726TIP3    H217185   5.329   3.931   4.693
 5727TIP3   OH217186   2.554   5.494   2.886
 5727TIP3    H117187   2.596   5.494   2.972
 5727TIP3    H217188   2.517   5.406   2.878
 5728TIP3   OH217189   4.720   0.108   4.399
 5728TIP3    H117190   4.630   0.110   4.430
 5728TIP3    H217191   4.718   0.156   4.316
 5729TIP3   OH217192   5.663   1.458   2.528
 5729TIP3    H117193   5.741   1.504   2.499
 5729TIP3    H217194   5.695   1.375   2.564
 5730TIP3   OH217195   1.308   0.336   2.022
 5730TIP3    H117196   1.276   0.257   1.978
 5730TIP3    H217197   1.270   0.409   1.972
 5731TIP3   OH217198   1.308   4.588   2.390
 5731TIP3    H117199   1.352   4.673   2.389
 5731TIP3    H217200   1.308   4.560   2.298
 5732TIP3   OH217201   1.866   4.798   0.248
 5732TIP3    H117202   1.828   4.789   0.161
 5732TIP3    H217203   1.911   4.882   0.246
 5733TIP3   OH217204   3.355   0.118   5.166
 5733TIP3    H117205   3.351   0.026   5.139
 5733TIP3    H217206   3.447   0.133   5.188
 5734TIP3   OH217207   1.242   0.880   3.568
 5734TIP3    H117208   1.219   0.800   3.616
 5734TIP3    H217209   1.322   0.858   3.521
 5735TIP3   OH217210   1.456   2.430   4.055
 5735TIP3    H117211   1.379   2.378   4.034
 5735TIP3    H217212   1.529   2.381   4.017
 5736TIP3   OH217213   5.236   1.999   2.545
 5736TIP3    H117214   5.183   1.921   2.559
 5736TIP3    H217215   5.252   2.033   2.633
 5737TIP3   OH217216   3.048   0.364   4.288
 5737TIP3    H117217   3.071   0.304   4.216
 5737TIP3    H217218   2.954   0.378   4.278
 5738TIP3   OH217219   2.390   1.011   3.795
 5738TIP3    H117220   2.299   1.013   3.767
 5738TIP3    H217221   2.437   1.062   3.729
 5739TIP3   OH217222   1.564   0.475   3.075
 5739TIP3    H117223   1.638   0.536   3.079
 5739TIP3    H217224   1.603   0.391   3.050
 5740TIP3   OH217225   0.253   1.184   5.109
 5740TIP3    H117226   0.320   1.239   5.069
 5740TIP3    H217227   0.174   1.199   5.056
 5741TIP3   OH217228   4.175   2.337   2.407
 5741TIP3    H117229   4.085   2.341   2.439
 5741TIP3    H217230   4.211   2.424   2.427
 5742TIP3   OH217231   3.673   0.973   3.819
 5742TIP3    H117232   3.747   1.027   3.847
 5742TIP3    H217233   3.630   0.948   3.900
 5743TIP3   OH217234   4.722   5.449   4.818
 5743TIP3    H117235   4.734   5.544   4.821
 5743TIP3    H217236   4.670   5.434   4.739
 5744TIP3   OH217237   5.833   0.925   0.744
 5744TIP3    H117238   5.866   0.922   0.834
 5744TIP3    H217239   5.738   0.928   0.753
 5745TIP3   OH217240   4.883   3.841   1.090
 5745TIP3    H117241   4.810   3.779   1.095
 5745TIP3    H217242   4.937   3.809   1.018
 5746TIP3   OH217243   0.053   4.470   3.049
 5746TIP3    H117244  -0.038   4.472   3.019
 5746TIP3    H217245   0.081   4.379   3.037
 5747TIP3   OH217246   5.673   5.524   2.458
 5747TIP3    H117247   5.762   5.557   2.448
 5747TIP3    H217248   5.673   5.478   2.542
 5748TIP3   OH217249   2.748   0.879   3.582
 5748TIP3    H117250   2.751   0.922   3.667
 5748TIP3    H217251   2.819   0.920   3.532
 5749TIP3   OH217252   2.055   5.882   4.751
 5749TIP3    H117253   2.150   5.866   4.751
 5749TIP3    H217254   2.036   5.913   4.663
 5750TIP3   OH217255   4.462   3.986   3.526
 5750TIP3    H117256   4.387   3.971   3.469
 5750TIP3    H217257   4.531   4.015   3.466
 5751TIP3   OH217258   3.933   2.255   2.529
 5751TIP3    H117259   3.844   2.246   2.494
 5751TIP3    H217260   3.974   2.171   2.509
 5752TIP3   OH217261   4.154   3.531   3.770
 5752TIP3    H117262   4.139   3.589   3.696
 5752TIP3    H217263   4.079   3.546   3.828
 5753TIP3   OH217264   0.517   2.301   0.793
 5753TIP3    H117265   0.504   2.211   0.762
 5753TIP3    H217266   0.607   2.322   0.769
 5754TIP3   OH217267   0.858   2.906   2.057
 5754TIP3    H117268   0.766   2.881   2.045
 5754TIP3    H217269   0.878   2.962   1.982
 5755TIP3   OH217270   4.649   5.911   0.162
 5755TIP3    H117271   4.663   5.937   0.253
 5755TIP3    H217272   4.695   5.828   0.153
 5756TIP3   OH217273   4.322   3.726   3.621
 5756TIP3    H117274   4.384   3.797   3.608
 5756TIP3    H217275   4.240   3.769   3.642
 5757TIP3   OH217276   1.306   3.717   2.268
 5757TIP3    H117277   1.267   3.633   2.242
 5757TIP3    H217278   1.306   3.715   2.364
 5758TIP3   OH217279   5.660   2.122   3.841
 5758TIP3    H117280   5.610   2.149   3.765
 5758TIP3    H217281   5.726   2.062   3.806
 5759TIP3   OH217282   4.618   3.027   3.082
 5759TIP3    H117283   4.706   3.055   3.111
 5759TIP3    H217284   4.626   2.933   3.070
 5760TIP3   OH217285   2.148   3.717   3.810
 5760TIP3    H117286   2.243   3.727   3.801
 5760TIP3    H217287   2.132   3.625   3.788
 5761TIP3   OH217288   5.958   4.652   2.033
 5761TIP3    H117289   5.934   4.604   1.954
 5761TIP3    H217290   5.982   4.583   2.096
 5762TIP3   OH217291   4.949   2.076   3.122
 5762TIP3    H117292   4.961   2.166   3.150
 5762TIP3    H217293   4.865   2.076   3.076
 5763TIP3   OH217294   0.362   1.744   2.732
 5763TIP3    H117295   0.300   1.690   2.781
 5763TIP3    H217296   0.396   1.686   2.664
 5764TIP3   OH217297   5.699   2.652   3.316
 5764TIP3    H117298   5.774   2.598   3.338
 5764TIP3    H217299   5.734   2.718   3.256
 5765TIP3   OH217300   1.505   3.607   3.438
 5765TIP3    H117301   1.479   3.675   3.376
 5765TIP3    H217302   1.598   3.595   3.424
 5766TIP3   OH217303   0.694   2.955   2.559
 5766TIP3    H117304   0.745   2.944   2.639
 5766TIP3    H217305   0.652   2.870   2.545
 5767TIP3   OH217306   3.449   1.249   3.007
 5767TIP3    H117307   3.358   1.231   2.982
 5767TIP3    H217308   3.501   1.190   2.952
 5768TIP3   OH217309   1.364   4.021   1.504
 5768TIP3    H117310   1.429   4.028   1.435
 5768TIP3    H217311   1.315   3.942   1.483
 5769TIP3   OH217312   0.129   1.502   4.416
 5769TIP3    H117313   0.207   1.464   4.456
 5769TIP3    H217314   0.154   1.593   4.397
 5770TIP3   OH217315   6.315   2.099   5.021
 5770TIP3    H117316   6.240   2.079   5.076
 5770TIP3    H217317   6.362   2.015   5.013
 5771TIP3   OH217318   1.380   5.608   0.366
 5771TIP3    H117319   1.375   5.556   0.446
 5771TIP3    H217320   1.339   5.691   0.388
 5772TIP3   OH217321   0.260   2.879   0.208
 5772TIP3    H117322   0.245   2.904   0.117
 5772TIP3    H217323   0.180   2.906   0.254
 5773TIP3   OH217324   0.383   4.938   1.141
 5773TIP3    H117325   0.304   4.924   1.089
 5773TIP3    H217326   0.422   4.851   1.150
 5774TIP3   OH217327   3.818   4.008   2.745
 5774TIP3    H117328   3.741   4.049   2.785
 5774TIP3    H217329   3.809   3.915   2.766
 5775TIP3   OH217330   0.409   1.671   3.891
 5775TIP3    H117331   0.443   1.589   3.928
 5775TIP3    H217332   0.461   1.739   3.932
 5776TIP3   OH217333   0.623   5.491   4.489
 5776TIP3    H117334   0.587   5.531   4.569
 5776TIP3    H217335   0.567   5.415   4.473
 5777TIP3   OH217336   2.320   5.525   0.209
 5777TIP3    H117337   2.328   5.600   0.149
 5777TIP3    H217338   2.347   5.561   0.294
 5778TIP3   OH217339   3.406   4.284   1.342
 5778TIP3    H117340   3.328   4.340   1.343
 5778TIP3    H217341   3.460   4.319   1.413
 5779TIP3   OH217342   1.078   3.973   2.608
 5779TIP3    H117343   1.090   3.900   2.548
 5779TIP3    H217344   1.167   4.001   2.631
 5780TIP3   OH217345   3.068   0.637   0.111
 5780TIP3    H117346   3.017   0.586   0.048
 5780TIP3    H217347   3.056   0.728   0.084
 5781TIP3   OH217348   4.188   1.390   4.566
 5781TIP3    H117349   4.229   1.304   4.580
 5781TIP3    H217350   4.262   1.451   4.559
 5782TIP3   OH217351   5.947   5.580   4.817
 5782TIP3    H117352   5.938   5.485   4.819
 5782TIP3    H217353   5.999   5.601   4.895
 5783TIP3   OH217354   5.715   0.467   4.884
 5783TIP3    H117355   5.725   0.550   4.930
 5783TIP3    H217356   5.793   0.461   4.829
 5784TIP3   OH217357   4.406   2.688   4.987
 5784TIP3    H117358   4.430   2.774   4.952
 5784TIP3    H217359   4.311   2.684   4.977
 5785TIP3   OH217360   2.860   5.194   0.078
 5785TIP3    H117361   2.855   5.186   0.173
 5785TIP3    H217362   2.867   5.104   0.046
 5786TIP3   OH217363   1.572   3.166   4.958
 5786TIP3    H117364   1.606   3.086   4.918
 5786TIP3    H217365   1.477   3.160   4.949
 5787TIP3   OH217366   3.893   4.305   1.016
 5787TIP3    H117367   3.919   4.389   0.978
 5787TIP3    H217368   3.808   4.321   1.056
 5788TIP3   OH217369   4.844   0.818   1.189
 5788TIP3    H117370   4.908   0.855   1.128
 5788TIP3    H217371   4.827   0.888   1.252
 5789TIP3   OH217372   4.195   2.715   1.511
 5789TIP3    H117373   4.130   2.727   1.441
 5789TIP3    H217374   4.204   2.620   1.520
 5790TIP3   OH217375   0.191   4.790   2.467
 5790TIP3    H117376   0.122   4.811   2.529
 5790TIP3    H217377   0.145   4.762   2.388
 5791TIP3   OH217378   3.149   3.652   3.158
 5791TIP3    H117379   3.177   3.622   3.245
 5791TIP3    H217380   3.056   3.673   3.169
 5792TIP3   OH217381   0.440   5.313   0.973
 5792TIP3    H117382   0.379   5.250   0.935
 5792TIP3    H217383   0.452   5.284   1.063
 5793TIP3   OH217384   5.699   4.289   2.935
 5793TIP3    H117385   5.784   4.248   2.948
 5793TIP3    H217386   5.719   4.382   2.924
 5794TIP3   OH217387   2.091   5.880   3.364
 5794TIP3    H117388   2.117   5.852   3.276
 5794TIP3    H217389   2.154   5.838   3.423
 5795TIP3   OH217390   5.194   4.648   1.855
 5795TIP3    H117391   5.171   4.582   1.920
 5795TIP3    H217392   5.253   4.603   1.795
 5796TIP3   OH217393   3.127   4.886   1.673
 5796TIP3    H117394   3.076   4.835   1.610
 5796TIP3    H217395   3.219   4.870   1.649
 5797TIP3   OH217396   4.717   1.404   0.823
 5797TIP3    H117397   4.780   1.455   0.772
 5797TIP3    H217398   4.747   1.314   0.817
 5798TIP3   OH217399   2.590   0.336   0.337
 5798TIP3    H117400   2.511   0.378   0.303
 5798TIP3    H217401   2.581   0.342   0.433
 5799TIP3   OH217402   1.136   5.305   2.277
 5799TIP3    H117403   1.197   5.239   2.311
 5799TIP3    H217404   1.057   5.294   2.330
 5800TIP3   OH217405   4.324   3.495   4.496
 5800TIP3    H117406   4.253   3.432   4.507
 5800TIP3    H217407   4.321   3.521   4.404
 5801TIP3   OH217408   4.231   6.000   2.288
 5801TIP3    H117409   4.139   6.001   2.315
 5801TIP3    H217410   4.278   5.969   2.366
 5802TIP3   OH217411   1.824   0.950   3.321
 5802TIP3    H117412   1.903   0.981   3.365
 5802TIP3    H217413   1.845   0.952   3.228
 5803TIP3   OH217414   2.797   1.574   4.838
 5803TIP3    H117415   2.704   1.553   4.832
 5803TIP3    H217416   2.840   1.489   4.846
 5804TIP3   OH217417   2.213   3.675   4.151
 5804TIP3    H117418   2.307   3.655   4.161
 5804TIP3    H217419   2.178   3.598   4.106
 5805TIP3   OH217420   0.776   0.257   1.126
 5805TIP3    H117421   0.687   0.273   1.156
 5805TIP3    H217422   0.775   0.284   1.034
 5806TIP3   OH217423   1.067   3.042   4.351
 5806TIP3    H117424   1.002   2.996   4.298
 5806TIP3    H217425   1.150   2.999   4.332
 5807TIP3   OH217426   1.743   3.743   0.556
 5807TIP3    H117427   1.745   3.742   0.652
 5807TIP3    H217428   1.650   3.740   0.534
 5808TIP3   OH217429   3.677   0.320   2.961
 5808TIP3    H117430   3.660   0.372   3.040
 5808TIP3    H217431   3.598   0.268   2.948
 5809TIP3   OH217432   3.634   0.464   5.074
 5809TIP3    H117433   3.554   0.497   5.115
 5809TIP3    H217434   3.700   0.468   5.143
 5810TIP3   OH217435   1.050   1.470   2.170
 5810TIP3    H117436   1.103   1.414   2.227
 5810TIP3    H217437   1.106   1.484   2.093
 5811TIP3   OH217438   0.898   1.182   2.391
 5811TIP3    H117439   0.879   1.175   2.485
 5811TIP3    H217440   0.903   1.092   2.361
 5812TIP3   OH217441   3.130   5.730   3.752
 5812TIP3    H117442   3.090   5.811   3.783
 5812TIP3    H217443   3.085   5.711   3.670
 5813TIP3   OH217444   2.126   0.422   0.067
 5813TIP3    H117445   2.166   0.435  -0.020
 5813TIP3    H217446   2.131   0.508   0.108
 5814TIP3   OH217447   2.752   0.045   4.838
 5814TIP3    H117448   2.692   0.119   4.828
 5814TIP3    H217449   2.752   0.002   4.753
 5815TIP3   OH217450   2.502   0.690   2.285
 5815TIP3    H117451   2.434   0.675   2.350
 5815TIP3    H217452   2.472   0.767   2.237
 5816TIP3   OH217453   0.328   3.416   2.738
 5816TIP3    H117454   0.385   3.390   2.810
 5816TIP3    H217455   0.270   3.341   2.725
 5817TIP3   OH217456   5.246   1.464   3.595
 5817TIP3    H117457   5.199   1.495   3.672
 5817TIP3    H217458   5.206   1.380   3.574
 5818TIP3   OH217459   3.223   1.892   1.929
 5818TIP3    H117460   3.176   1.809   1.918
 5818TIP3    H217461   3.315   1.866   1.937
 5819TIP3   OH217462   3.706   3.864   0.769
 5819TIP3    H117463   3.734   3.907   0.850
 5819TIP3    H217464   3.616   3.836   0.786
 5820TIP3   OH217465   1.046   1.291   0.262
 5820TIP3    H117466   1.052   1.204   0.300
 5820TIP3    H217467   1.038   1.275   0.167
 5821TIP3   OH217468   2.010   3.841   2.700
 5821TIP3    H117469   1.955   3.847   2.623
 5821TIP3    H217470   2.058   3.924   2.703
 5822TIP3   OH217471   2.942   2.024   2.539
 5822TIP3    H117472   2.908   2.033   2.628
 5822TIP3    H217473   2.943   1.930   2.524
 5823TIP3   OH217474   0.491   0.846   1.615
 5823TIP3    H117475   0.531   0.897   1.686
 5823TIP3    H217476   0.398   0.843   1.638
 5824TIP3   OH217477   2.982   5.447   0.787
 5824TIP3    H117478   3.029   5.422   0.867
 5824TIP3    H217479   2.898   5.478   0.818
 5825TIP3   OH217480   2.691   5.819   0.884
 5825TIP3    H117481   2.693   5.723   0.881
 5825TIP3    H217482   2.777   5.843   0.917
 5826TIP3   OH217483   3.915   1.351   4.559
 5826TIP3    H117484   4.010   1.344   4.573
 5826TIP3    H217485   3.882   1.263   4.572
 5827TIP3   OH217486   0.471   4.784   2.514
 5827TIP3    H117487   0.478   4.689   2.504
 5827TIP3    H217488   0.378   4.799   2.532
 5828TIP3   OH217489   2.331   2.840   4.834
 5828TIP3    H117490   2.266   2.905   4.861
 5828TIP3    H217491   2.414   2.873   4.870
 5829TIP3   OH217492   1.426   0.535   4.840
 5829TIP3    H117493   1.482   0.607   4.868
 5829TIP3    H217494   1.349   0.577   4.801
 5830TIP3   OH217495   0.080   5.199   2.934
 5830TIP3    H117496   0.110   5.282   2.970
 5830TIP3    H217497   0.041   5.223   2.850
 5831TIP3   OH217498   0.346   4.305   2.553
 5831TIP3    H117499   0.328   4.259   2.636
 5831TIP3    H217500   0.355   4.234   2.489
 5832TIP3   OH217501   1.882   5.428   1.683
 5832TIP3    H117502   1.807   5.424   1.624
 5832TIP3    H217503   1.847   5.465   1.764
 5833TIP3   OH217504   4.419   0.337   0.731
 5833TIP3    H117505   4.510   0.323   0.704
 5833TIP3    H217506   4.372   0.351   0.648
 5834TIP3   OH217507   2.229   4.964   1.440
 5834TIP3    H117508   2.224   4.924   1.527
 5834TIP3    H217509   2.215   4.891   1.379
 5835TIP3   OH217510   4.024   4.556   0.402
 5835TIP3    H117511   4.072   4.486   0.448
 5835TIP3    H217512   3.973   4.599   0.471
 5836TIP3   OH217513   4.773   1.665   0.046
 5836TIP3    H117514   4.760   1.571   0.036
 5836TIP3    H217515   4.724   1.688   0.126
 5837TIP3   OH217516   0.475   3.030   0.724
 5837TIP3    H117517   0.529   2.952   0.734
 5837TIP3    H217518   0.415   3.009   0.653
 5838TIP3   OH217519   5.184   1.451   0.093
 5838TIP3    H117520   5.120   1.380   0.092
 5838TIP3    H217521   5.136   1.526   0.127
 5839TIP3   OH217522   5.082   5.143   1.601
 5839TIP3    H117523   5.017   5.208   1.572
 5839TIP3    H217524   5.055   5.062   1.557
 5840TIP3   OH217525   6.381   4.017   2.550
 5840TIP3    H117526   6.320   3.945   2.536
 5840TIP3    H217527   6.338   4.093   2.511
 5841TIP3   OH217528   4.263   4.370   3.898
 5841TIP3    H117529   4.357   4.391   3.899
 5841TIP3    H217530   4.252   4.317   3.819
 5842TIP3   OH217531   4.077   5.532   0.086
 5842TIP3    H117532   4.003   5.471   0.088
 5842TIP3    H217533   4.153   5.477   0.066
 5843TIP3   OH217534   3.930   1.119   4.922
 5843TIP3    H117535   3.969   1.048   4.871
 5843TIP3    H217536   3.952   1.099   5.012
 5844TIP3   OH217537   1.084   1.395   5.016
 5844TIP3    H117538   1.035   1.459   4.965
 5844TIP3    H217539   1.176   1.415   4.998
 5845TIP3   OH217540   1.251   3.819   4.025
 5845TIP3    H117541   1.316   3.775   3.970
 5845TIP3    H217542   1.168   3.781   3.998
 5846TIP3   OH217543   2.766   0.840   2.235
 5846TIP3    H117544   2.717   0.907   2.187
 5846TIP3    H217545   2.787   0.774   2.169
 5847TIP3   OH217546   0.672   1.077   4.869
 5847TIP3    H117547   0.660   1.003   4.929
 5847TIP3    H217548   0.584   1.095   4.837
 5848TIP3   OH217549   5.841   3.059   0.860
 5848TIP3    H117550   5.798   3.113   0.793
 5848TIP3    H217551   5.817   3.101   0.942
 5849TIP3   OH217552   2.456   4.178   3.212
 5849TIP3    H117553   2.380   4.232   3.192
 5849TIP3    H217554   2.505   4.173   3.129
 5850TIP3   OH217555   5.145   5.038   4.742
 5850TIP3    H117556   5.161   5.131   4.727
 5850TIP3    H217557   5.152   5.027   4.837
 5851TIP3   OH217558   0.953   4.810   5.075
 5851TIP3    H117559   0.868   4.777   5.044
 5851TIP3    H217560   0.999   4.733   5.105
 5852TIP3   OH217561   2.839   4.086   4.930
 5852TIP3    H117562   2.852   4.180   4.928
 5852TIP3    H217563   2.883   4.057   5.009
 5853TIP3   OH217564   1.450   3.111   3.219
 5853TIP3    H117565   1.479   3.056   3.292
 5853TIP3    H217566   1.454   3.200   3.255
 5854TIP3   OH217567   2.753   5.437   1.095
 5854TIP3    H117568   2.822   5.438   1.162
 5854TIP3    H217569   2.698   5.362   1.119
 5855TIP3   OH217570   2.466   2.445   2.882
 5855TIP3    H117571   2.371   2.454   2.891
 5855TIP3    H217572   2.485   2.357   2.915
 5856TIP3   OH217573   5.936   5.200   2.712
 5856TIP3    H117574   5.961   5.208   2.804
 5856TIP3    H217575   6.005   5.146   2.674
 5857TIP3   OH217576   0.363   0.421   2.643
 5857TIP3    H117577   0.312   0.419   2.724
 5857TIP3    H217578   0.309   0.375   2.579
 5858TIP3   OH217579   5.337   3.995   1.254
 5858TIP3    H117580   5.270   4.061   1.238
 5858TIP3    H217581   5.352   3.955   1.168
 5859TIP3   OH217582   3.284   0.115   1.061
 5859TIP3    H117583   3.296   0.070   0.977
 5859TIP3    H217584   3.262   0.205   1.037
 5860TIP3   OH217585   4.627   0.389   1.142
 5860TIP3    H117586   4.550   0.422   1.096
 5860TIP3    H217587   4.596   0.372   1.231
 5861TIP3   OH217588   5.406   4.536   0.715
 5861TIP3    H117589   5.356   4.613   0.688
 5861TIP3    H217590   5.421   4.549   0.809
 5862TIP3   OH217591   4.994   4.415   3.961
 5862TIP3    H117592   5.087   4.395   3.956
 5862TIP3    H217593   4.958   4.346   4.017
 5863TIP3   OH217594   3.077   1.428   1.110
 5863TIP3    H117595   3.056   1.387   1.026
 5863TIP3    H217596   3.005   1.403   1.168
 5864TIP3   OH217597   2.800   0.479   0.197
 5864TIP3    H117598   2.870   0.536   0.228
 5864TIP3    H217599   2.746   0.464   0.274
 5865TIP3   OH217600   2.648   3.388   4.119
 5865TIP3    H117601   2.614   3.304   4.149
 5865TIP3    H217602   2.665   3.375   4.025
 5866TIP3   OH217603   4.934   2.648   0.493
 5866TIP3    H117604   4.876   2.592   0.441
 5866TIP3    H217605   4.902   2.639   0.583
 5867TIP3   OH217606   4.735   4.347   4.734
 5867TIP3    H117607   4.659   4.369   4.681
 5867TIP3    H217608   4.698   4.326   4.820
 5868TIP3   OH217609   2.802   2.302  -0.020
 5868TIP3    H117610   2.776   2.266   0.065
 5868TIP3    H217611   2.829   2.392  -0.001
 5869TIP3   OH217612   5.376   2.833   1.169
 5869TIP3    H117613   5.311   2.826   1.099
 5869TIP3    H217614   5.460   2.826   1.124
 5870TIP3   OH217615   0.615   1.942   0.218
 5870TIP3    H117616   0.622   1.857   0.261
 5870TIP3    H217617   0.670   1.935   0.140
 5871TIP3   OH217618   0.851   0.871   1.412
 5871TIP3    H117619   0.935   0.902   1.446
 5871TIP3    H217620   0.824   0.803   1.474
 5872TIP3   OH217621   2.944   1.198   0.271
 5872TIP3    H117622   2.850   1.182   0.285
 5872TIP3    H217623   2.987   1.140   0.334
 5873TIP3   OH217624   3.223   2.103   3.027
 5873TIP3    H117625   3.190   2.077   2.941
 5873TIP3    H217626   3.315   2.076   3.027
 5874TIP3   OH217627   3.223   1.310   5.016
 5874TIP3    H117628   3.253   1.222   5.038
 5874TIP3    H217629   3.225   1.357   5.100
 5875TIP3   OH217630   2.763   1.939   4.060
 5875TIP3    H117631   2.832   1.953   4.126
 5875TIP3    H217632   2.700   2.008   4.078
 5876TIP3   OH217633   2.306   2.087   0.532
 5876TIP3    H117634   2.370   2.155   0.515
 5876TIP3    H217635   2.221   2.131   0.525
 5877TIP3   OH217636   5.754   0.682   1.763
 5877TIP3    H117637   5.673   0.632   1.764
 5877TIP3    H217638   5.757   0.722   1.677
 5878TIP3   OH217639   0.422   1.213   3.068
 5878TIP3    H117640   0.446   1.151   2.999
 5878TIP3    H217641   0.422   1.298   3.025
 5879TIP3   OH217642   5.704   3.246   4.470
 5879TIP3    H117643   5.782   3.231   4.523
 5879TIP3    H217644   5.705   3.177   4.404
 5880TIP3   OH217645   4.758   1.403   3.146
 5880TIP3    H117646   4.718   1.352   3.217
 5880TIP3    H217647   4.728   1.359   3.066
 5881TIP3   OH217648   5.965   3.467   2.645
 5881TIP3    H117649   5.887   3.519   2.623
 5881TIP3    H217650   5.932   3.397   2.701
 5882TIP3   OH217651   1.697   5.639   0.761
 5882TIP3    H117652   1.690   5.624   0.855
 5882TIP3    H217653   1.743   5.563   0.727
 5883TIP3   OH217654   2.001   4.631   2.553
 5883TIP3    H117655   2.029   4.567   2.618
 5883TIP3    H217656   2.040   4.600   2.471
 5884TIP3   OH217657   0.028   2.395   2.249
 5884TIP3    H117658  -0.011   2.344   2.178
 5884TIP3    H217659   0.105   2.437   2.209
 5885TIP3   OH217660   0.845   4.119   2.614
 5885TIP3    H117661   0.775   4.067   2.573
 5885TIP3    H217662   0.925   4.070   2.597
 5886TIP3   OH217663   5.795   5.840   2.424
 5886TIP3    H117664   5.770   5.816   2.335
 5886TIP3    H217665   5.849   5.768   2.455
 5887TIP3   OH217666   4.096   5.445   1.707
 5887TIP3    H117667   4.103   5.479   1.796
 5887TIP3    H217668   4.175   5.392   1.695
 5888TIP3   OH217669   2.795   3.884   2.455
 5888TIP3    H117670   2.767   3.850   2.370
 5888TIP3    H217671   2.753   3.970   2.462
 5889TIP3   OH217672   4.685   2.254   3.650
 5889TIP3    H117673   4.702   2.160   3.638
 5889TIP3    H217674   4.745   2.297   3.590
 5890TIP3   OH217675   3.334   1.463   3.883
 5890TIP3    H117676   3.418   1.435   3.848
 5890TIP3    H217677   3.273   1.454   3.810
 5891TIP3   OH217678   2.660   2.382   0.861
 5891TIP3    H117679   2.588   2.440   0.887
 5891TIP3    H217680   2.712   2.434   0.800
 5892TIP3   OH217681   2.990   0.452   5.052
 5892TIP3    H117682   2.997   0.511   5.127
 5892TIP3    H217683   3.076   0.410   5.046
 5893TIP3   OH217684   2.510   5.736   4.467
 5893TIP3    H117685   2.471   5.653   4.439
 5893TIP3    H217686   2.509   5.791   4.388
 5894TIP3   OH217687   1.875   5.058   5.177
 5894TIP3    H117688   1.921   5.141   5.167
 5894TIP3    H217689   1.855   5.030   5.088
 5895TIP3   OH217690   1.642   0.959   0.634
 5895TIP3    H117691   1.562   1.009   0.649
 5895TIP3    H217692   1.629   0.917   0.549
 5896TIP3   OH217693   2.818   5.814   1.300
 5896TIP3    H117694   2.884   5.779   1.360
 5896TIP3    H217695   2.770   5.737   1.269
 5897TIP3   OH217696   4.989   4.481   1.954
 5897TIP3    H117697   4.969   4.454   1.864
 5897TIP3    H217698   4.911   4.530   1.982
 5898TIP3   OH217699   1.668   5.420   0.941
 5898TIP3    H117700   1.573   5.420   0.952
 5898TIP3    H217701   1.702   5.410   1.030
 5899TIP3   OH217702   0.597   2.744   3.472
 5899TIP3    H117703   0.688   2.749   3.442
 5899TIP3    H217704   0.550   2.702   3.399
 5900TIP3   OH217705   1.374   2.793   0.072
 5900TIP3    H117706   1.310   2.758   0.010
 5900TIP3    H217707   1.422   2.859   0.022
 5901TIP3   OH217708   1.711   1.227   1.518
 5901TIP3    H117709   1.752   1.288   1.579
 5901TIP3    H217710   1.785   1.184   1.474
 5902TIP3   OH217711   6.306   3.128   0.704
 5902TIP3    H117712   6.212   3.148   0.695
 5902TIP3    H217713   6.336   3.185   0.775
 5903TIP3   OH217714   2.277   0.130   3.156
 5903TIP3    H117715   2.205   0.079   3.119
 5903TIP3    H217716   2.241   0.219   3.164
 5904TIP3   OH217717   4.509   0.636   2.709
 5904TIP3    H117718   4.577   0.622   2.776
 5904TIP3    H217719   4.446   0.695   2.750
 5905TIP3   OH217720   4.297   2.338   4.424
 5905TIP3    H117721   4.270   2.421   4.465
 5905TIP3    H217722   4.341   2.290   4.494
 5906TIP3   OH217723   4.847   0.915   3.790
 5906TIP3    H117724   4.873   0.974   3.718
 5906TIP3    H217725   4.814   0.974   3.858
 5907TIP3   OH217726   0.189   0.314   2.161
 5907TIP3    H117727   0.197   0.404   2.129
 5907TIP3    H217728   0.142   0.268   2.092
 5908TIP3   OH217729   1.565   2.043   2.903
 5908TIP3    H117730   1.489   2.089   2.937
 5908TIP3    H217731   1.558   2.051   2.808
 5909TIP3   OH217732   3.185   4.276   4.610
 5909TIP3    H117733   3.254   4.336   4.584
 5909TIP3    H217734   3.127   4.272   4.533
 5910TIP3   OH217735   4.503   5.791   1.427
 5910TIP3    H117736   4.446   5.733   1.478
 5910TIP3    H217737   4.456   5.803   1.344
 5911TIP3   OH217738   5.477   5.834   4.422
 5911TIP3    H117739   5.512   5.805   4.337
 5911TIP3    H217740   5.543   5.896   4.455
 5912TIP3   OH217741   0.840   3.668   3.374
 5912TIP3    H117742   0.932   3.671   3.398
 5912TIP3    H217743   0.810   3.581   3.402
 5913TIP3   OH217744   0.183   2.644   4.160
 5913TIP3    H117745   0.190   2.735   4.191
 5913TIP3    H217746   0.268   2.625   4.121
 5914TIP3   OH217747   0.832   1.208   3.668
 5914TIP3    H117748   0.761   1.148   3.693
 5914TIP3    H217749   0.887   1.155   3.610
 5915TIP3   OH217750   3.470   1.726   3.157
 5915TIP3    H117751   3.520   1.756   3.081
 5915TIP3    H217752   3.454   1.633   3.138
 5916TIP3   OH217753   0.659   5.567   0.196
 5916TIP3    H117754   0.705   5.564   0.113
 5916TIP3    H217755   0.645   5.661   0.212
 5917TIP3   OH217756   2.591   0.256   4.744
 5917TIP3    H117757   2.588   0.303   4.828
 5917TIP3    H217758   2.637   0.314   4.685
 5918TIP3   OH217759   4.869   2.197   2.665
 5918TIP3    H117760   4.888   2.179   2.573
 5918TIP3    H217761   4.778   2.168   2.677
 5919TIP3   OH217762   5.680   0.720   1.206
 5919TIP3    H117763   5.717   0.639   1.241
 5919TIP3    H217764   5.588   0.700   1.191
 5920TIP3   OH217765   3.512   3.610   3.468
 5920TIP3    H117766   3.538   3.683   3.411
 5920TIP3    H217767   3.562   3.535   3.436
 5921TIP3   OH217768   0.833   4.104   0.283
 5921TIP3    H117769   0.828   4.009   0.286
 5921TIP3    H217770   0.821   4.132   0.374
 5922TIP3   OH217771   3.735   3.215   3.908
 5922TIP3    H117772   3.827   3.228   3.887
 5922TIP3    H217773   3.721   3.121   3.901
 5923TIP3   OH217774   4.538   1.072   5.103
 5923TIP3    H117775   4.609   1.133   5.125
 5923TIP3    H217776   4.461   1.107   5.147
 5924TIP3   OH217777   2.747   3.917   1.932
 5924TIP3    H117778   2.726   3.902   2.025
 5924TIP3    H217779   2.830   3.872   1.919
 5925TIP3   OH217780   1.170   5.489   0.604
 5925TIP3    H117781   1.144   5.400   0.627
 5925TIP3    H217782   1.262   5.494   0.628
 5926TIP3   OH217783   6.236   0.252   0.345
 5926TIP3    H117784   6.155   0.202   0.340
 5926TIP3    H217785   6.299   0.193   0.386
 5927TIP3   OH217786   0.670   0.138   4.974
 5927TIP3    H117787   0.703   0.127   4.885
 5927TIP3    H217788   0.596   0.078   4.980
 5928TIP3   OH217789   0.210   3.180   2.699
 5928TIP3    H117790   0.254   3.136   2.626
 5928TIP3    H217791   0.260   3.153   2.776
 5929TIP3   OH217792   0.354   5.121   4.149
 5929TIP3    H117793   0.380   5.032   4.125
 5929TIP3    H217794   0.425   5.176   4.116
 5930TIP3   OH217795   1.073   4.491   1.556
 5930TIP3    H117796   0.981   4.470   1.539
 5930TIP3    H217797   1.122   4.426   1.506
 5931TIP3   OH217798   4.085   4.900   3.777
 5931TIP3    H117799   4.008   4.927   3.728
 5931TIP3    H217800   4.086   4.804   3.772
 5932TIP3   OH217801   4.146   2.278   0.387
 5932TIP3    H117802   4.238   2.264   0.412
 5932TIP3    H217803   4.125   2.203   0.332
 5933TIP3   OH217804   1.159   4.257   4.307
 5933TIP3    H117805   1.248   4.250   4.272
 5933TIP3    H217806   1.122   4.169   4.297
 5934TIP3   OH217807   3.646   1.294   2.017
 5934TIP3    H117808   3.638   1.387   2.033
 5934TIP3    H217809   3.555   1.264   2.004
 5935TIP3   OH217810   2.149   3.078   4.955
 5935TIP3    H117811   2.134   3.168   4.984
 5935TIP3    H217812   2.144   3.025   5.035
 5936TIP3   OH217813   0.934   3.231   3.665
 5936TIP3    H117814   0.850   3.254   3.704
 5936TIP3    H217815   0.930   3.137   3.652
 5937TIP3   OH217816   1.898   5.933   0.774
 5937TIP3    H117817   1.986   5.970   0.770
 5937TIP3    H217818   1.905   5.859   0.834
 5938TIP3   OH217819   3.023   5.356   3.715
 5938TIP3    H117820   3.082   5.360   3.640
 5938TIP3    H217821   2.957   5.423   3.696
 5939TIP3   OH217822   4.085   5.104   2.314
 5939TIP3    H117823   4.102   5.182   2.367
 5939TIP3    H217824   4.155   5.104   2.249
 5940TIP3   OH217825   5.811   5.685   1.328
 5940TIP3    H117826   5.881   5.684   1.262
 5940TIP3    H217827   5.816   5.772   1.366
 5941TIP3   OH217828   2.194   2.494   1.015
 5941TIP3    H117829   2.156   2.582   1.012
 5941TIP3    H217830   2.283   2.506   0.981
 5942TIP3   OH217831   5.179   4.467   0.081
 5942TIP3    H117832   5.199   4.550   0.125
 5942TIP3    H217833   5.097   4.483   0.035
 5943TIP3   OH217834   3.410   2.337   2.841
 5943TIP3    H117835   3.464   2.369   2.913
 5943TIP3    H217836   3.418   2.241   2.845
 5944TIP3   OH217837   0.731   3.575   1.417
 5944TIP3    H117838   0.742   3.505   1.481
 5944TIP3    H217839   0.636   3.584   1.407
 5945TIP3   OH217840   6.341   1.271   4.989
 5945TIP3    H117841   6.326   1.262   5.083
 5945TIP3    H217842   6.286   1.345   4.963
 5946TIP3   OH217843   3.975   2.934   4.090
 5946TIP3    H117844   3.989   2.843   4.117
 5946TIP3    H217845   4.060   2.976   4.103
 5947TIP3   OH217846   2.016   5.948   5.088
 5947TIP3    H117847   2.111   5.938   5.097
 5947TIP3    H217848   1.991   5.883   5.023
 5948TIP3   OH217849   6.182   4.243   2.482
 5948TIP3    H117850   6.102   4.197   2.460
 5948TIP3    H217851   6.153   4.328   2.516
 5949TIP3   OH217852   2.176   4.011   0.043
 5949TIP3    H117853   2.136   3.931   0.076
 5949TIP3    H217854   2.102   4.065   0.015
 5950TIP3   OH217855   5.035   4.953   2.059
 5950TIP3    H117856   5.054   4.984   2.148
 5950TIP3    H217857   4.960   5.006   2.032
 5951TIP3   OH217858   0.794   0.230   2.888
 5951TIP3    H117859   0.827   0.312   2.924
 5951TIP3    H217860   0.734   0.257   2.819
 5952TIP3   OH217861   1.220   4.499   1.016
 5952TIP3    H117862   1.191   4.590   1.029
 5952TIP3    H217863   1.200   4.455   1.098
 5953TIP3   OH217864   5.588   1.157   3.972
 5953TIP3    H117865   5.640   1.093   4.021
 5953TIP3    H217866   5.628   1.241   3.991
 5954TIP3   OH217867   5.818   2.606   2.694
 5954TIP3    H117868   5.726   2.616   2.672
 5954TIP3    H217869   5.864   2.658   2.627
 5955TIP3   OH217870   2.927   2.348   1.836
 5955TIP3    H117871   2.917   2.373   1.928
 5955TIP3    H217872   2.984   2.271   1.839
 5956TIP3   OH217873   5.797   5.510   3.983
 5956TIP3    H117874   5.802   5.590   3.931
 5956TIP3    H217875   5.819   5.538   4.072
 5957TIP3   OH217876   2.121   0.790   3.967
 5957TIP3    H117877   2.202   0.767   3.922
 5957TIP3    H217878   2.085   0.705   3.995
 5958TIP3   OH217879   2.822   3.589   0.370
 5958TIP3    H117880   2.788   3.526   0.435
 5958TIP3    H217881   2.818   3.543   0.287
 5959TIP3   OH217882   1.534   2.691   0.268
 5959TIP3    H117883   1.484   2.718   0.191
 5959TIP3    H217884   1.507   2.753   0.336
 5960TIP3   OH217885   3.633   0.992   1.598
 5960TIP3    H117886   3.591   1.079   1.600
 5960TIP3    H217887   3.726   1.011   1.587
 5961TIP3   OH217888   2.469   2.455   4.727
 5961TIP3    H117889   2.439   2.387   4.787
 5961TIP3    H217890   2.457   2.418   4.640
 5962TIP3   OH217891   2.019   4.181   2.814
 5962TIP3    H117892   2.101   4.154   2.854
 5962TIP3    H217893   1.959   4.108   2.830
 5963TIP3   OH217894   3.423   2.685   2.094
 5963TIP3    H117895   3.341   2.667   2.049
 5963TIP3    H217896   3.419   2.632   2.174
 5964TIP3   OH217897   0.137   3.973   4.770
 5964TIP3    H117898   0.068   3.916   4.805
 5964TIP3    H217899   0.187   3.999   4.847
 5965TIP3   OH217900   0.138   1.679   3.874
 5965TIP3    H117901   0.228   1.648   3.864
 5965TIP3    H217902   0.146   1.774   3.877
 5966TIP3   OH217903   3.061   4.411   3.938
 5966TIP3    H117904   3.039   4.346   3.872
 5966TIP3    H217905   2.993   4.400   4.005
 5967TIP3   OH217906   2.552   1.915   0.883
 5967TIP3    H117907   2.462   1.933   0.908
 5967TIP3    H217908   2.604   1.945   0.958
 5968TIP3   OH217909   3.707   0.117   3.712
 5968TIP3    H117910   3.647   0.188   3.733
 5968TIP3    H217911   3.756   0.102   3.793
 5969TIP3   OH217912   4.866   0.535   4.466
 5969TIP3    H117913   4.932   0.467   4.471
 5969TIP3    H217914   4.909   0.607   4.420
 5970TIP3   OH217915   2.029   3.843   5.178
 5970TIP3    H117916   1.946   3.823   5.221
 5970TIP3    H217917   2.067   3.757   5.158
 5971TIP3   OH217918   0.577   4.931   1.861
 5971TIP3    H117919   0.611   4.917   1.773
 5971TIP3    H217920   0.484   4.907   1.855
 5972TIP3   OH217921   5.414  -0.005   0.045
 5972TIP3    H117922   5.476  -0.075   0.022
 5972TIP3    H217923   5.466   0.056   0.096
 5973TIP3   OH217924   1.946   0.910   1.977
 5973TIP3    H117925   2.026   0.952   1.946
 5973TIP3    H217926   1.877   0.945   1.920
 5974TIP3   OH217927   3.947   2.881   1.648
 5974TIP3    H117928   3.886   2.898   1.720
 5974TIP3    H217929   4.005   2.813   1.681
 5975TIP3   OH217930   1.743   4.152   1.923
 5975TIP3    H117931   1.651   4.166   1.947
 5975TIP3    H217932   1.789   4.226   1.962
 5976TIP3   OH217933   2.208   6.029   1.745
 5976TIP3    H117934   2.140   6.083   1.706
 5976TIP3    H217935   2.243   5.978   1.672
 5977TIP3   OH217936   1.463   1.029   2.235
 5977TIP3    H117937   1.556   1.028   2.254
 5977TIP3    H217938   1.420   1.041   2.320
 5978TIP3   OH217939   4.292   3.184   0.343
 5978TIP3    H117940   4.308   3.189   0.249
 5978TIP3    H217941   4.367   3.226   0.383
 5979TIP3   OH217942   5.568   5.502   4.804
 5979TIP3    H117943   5.521   5.524   4.885
 5979TIP3    H217944   5.638   5.568   4.798
 5980TIP3   OH217945   5.600   2.012   0.526
 5980TIP3    H117946   5.613   1.921   0.498
 5980TIP3    H217947   5.597   2.063   0.445
 5981TIP3   OH217948   2.843   3.557   1.836
 5981TIP3    H117949   2.776   3.617   1.803
 5981TIP3    H217950   2.793   3.485   1.875
 5982TIP3   OH217951   0.222   4.417   4.188
 5982TIP3    H117952   0.245   4.403   4.096
 5982TIP3    H217953   0.216   4.329   4.225
 5983TIP3   OH217954   6.086   3.917   0.391
 5983TIP3    H117955   6.176   3.910   0.422
 5983TIP3    H217956   6.090   3.887   0.300
 5984TIP3   OH217957   5.534   3.345   0.783
 5984TIP3    H117958   5.558   3.334   0.876
 5984TIP3    H217959   5.618   3.342   0.737
 5985TIP3   OH217960   4.402   0.275   2.401
 5985TIP3    H117961   4.434   0.223   2.474
 5985TIP3    H217962   4.390   0.211   2.330
 5986TIP3   OH217963   1.143   2.482   5.121
 5986TIP3    H117964   1.099   2.517   5.198
 5986TIP3    H217965   1.093   2.405   5.097
 5987TIP3   OH217966   2.333   0.305   4.465
 5987TIP3    H117967   2.285   0.222   4.457
 5987TIP3    H217968   2.264   0.370   4.481
 5988TIP3   OH217969   6.309   2.657   0.354
 5988TIP3    H117970   6.346   2.622   0.273
 5988TIP3    H217971   6.336   2.595   0.422
 5989TIP3   OH217972   3.716   3.427   0.793
 5989TIP3    H117973   3.628   3.438   0.756
 5989TIP3    H217974   3.765   3.503   0.761
 5990TIP3   OH217975   2.990   0.015   1.699
 5990TIP3    H117976   3.080  -0.005   1.672
 5990TIP3    H217977   2.938   0.005   1.619
 5991TIP3   OH217978   4.367   2.349   3.657
 5991TIP3    H117979   4.341   2.421   3.713
 5991TIP3    H217980   4.451   2.376   3.619
 5992TIP3   OH217981   5.234   1.409   4.845
 5992TIP3    H117982   5.280   1.393   4.762
 5992TIP3    H217983   5.294   1.464   4.895
 5993TIP3   OH217984   1.747   3.688   4.055
 5993TIP3    H117985   1.736   3.736   4.137
 5993TIP3    H217986   1.797   3.610   4.079
 5994TIP3   OH217987   2.163   4.651   0.997
 5994TIP3    H117988   2.201   4.568   1.028
 5994TIP3    H217989   2.141   4.634   0.906
 5995TIP3   OH217990   4.341   3.171   1.474
 5995TIP3    H117991   4.405   3.239   1.493
 5995TIP3    H217992   4.264   3.195   1.526
 5996TIP3   OH217993   2.638   1.767   4.531
 5996TIP3    H117994   2.626   1.678   4.566
 5996TIP3    H217995   2.658   1.820   4.608
 5997TIP3   OH217996   4.155   5.585   4.375
 5997TIP3    H117997   4.065   5.574   4.405
 5997TIP3    H217998   4.154   5.667   4.325
 5998TIP3   OH217999   3.083   3.272   1.606
 5998TIP3    H118000   3.060   3.338   1.541
 5998TIP3    H218001   3.111   3.322   1.682
 5999TIP3   OH218002   3.646   1.377   4.330
 5999TIP3    H118003   3.610   1.403   4.245
 5999TIP3    H218004   3.732   1.339   4.309
 6000TIP3   OH218005   3.236   0.602   0.668
 6000TIP3    H118006   3.290   0.611   0.590
 6000TIP3    H218007   3.168   0.669   0.658
 6001TIP3   OH218008   3.261   3.952   0.765
 6001TIP3    H118009   3.195   3.891   0.735
 6001TIP3    H218010   3.332   3.897   0.798
 6002TIP3   OH218011   4.464   3.084   4.237
 6002TIP3    H118012   4.521   3.161   4.236
 6002TIP3    H218013   4.456   3.061   4.330
 6003TIP3   OH218014   4.327   0.560   4.638
 6003TIP3    H118015   4.396   0.624   4.650
 6003TIP3    H218016   4.370   0.486   4.596
 6004TIP3   OH218017   2.022   3.031   1.507
 6004TIP3    H118018   2.027   3.012   1.413
 6004TIP3    H218019   1.987   3.119   1.511
 6005TIP3   OH218020   5.798   2.129   4.605
 6005TIP3    H118021   5.772   2.216   4.574
 6005TIP3    H218022   5.851   2.093   4.534
 6006TIP3   OH218023   4.365   4.777   0.494
 6006TIP3    H118024   4.355   4.787   0.400
 6006TIP3    H218025   4.412   4.855   0.522
 6007TIP3   OH218026   1.079   4.282   3.265
 6007TIP3    H118027   1.058   4.373   3.285
 6007TIP3    H218028   1.142   4.256   3.333
 6008TIP3   OH218029   3.551   2.451   3.030
 6008TIP3    H118030   3.589   2.528   2.987
 6008TIP3    H218031   3.600   2.443   3.111
 6009TIP3   OH218032   1.568   4.896   4.090
 6009TIP3    H118033   1.555   4.976   4.141
 6009TIP3    H218034   1.496   4.897   4.026
 6010TIP3   OH218035   6.129   5.620   3.682
 6010TIP3    H118036   6.088   5.534   3.685
 6010TIP3    H218037   6.148   5.641   3.774
 6011TIP3   OH218038   3.739   5.525   4.054
 6011TIP3    H118039   3.705   5.436   4.059
 6011TIP3    H218040   3.829   5.518   4.086
 6012TIP3   OH218041   5.310   2.704   4.088
 6012TIP3    H118042   5.246   2.751   4.034
 6012TIP3    H218043   5.266   2.689   4.171
 6013TIP3   OH218044   2.504   0.756   3.268
 6013TIP3    H118045   2.591   0.717   3.255
 6013TIP3    H218046   2.490   0.811   3.191
 6014TIP3   OH218047   2.101   3.006   1.783
 6014TIP3    H118048   2.062   2.960   1.857
 6014TIP3    H218049   2.099   3.098   1.808
 6015TIP3   OH218050   3.264   4.677   1.011
 6015TIP3    H118051   3.301   4.590   1.029
 6015TIP3    H218052   3.302   4.702   0.927
 6016TIP3   OH218053   4.978   2.918   2.519
 6016TIP3    H118054   5.002   2.834   2.558
 6016TIP3    H218055   4.934   2.966   2.589
 6017TIP3   OH218056   0.784   4.993   3.774
 6017TIP3    H118057   0.766   4.948   3.691
 6017TIP3    H218058   0.728   5.071   3.771
 6018TIP3   OH218059   1.189   4.277   0.437
 6018TIP3    H118060   1.270   4.234   0.410
 6018TIP3    H218061   1.197   4.286   0.532
 6019TIP3   OH218062   3.914   3.513   4.890
 6019TIP3    H118063   3.948   3.581   4.949
 6019TIP3    H218064   3.964   3.435   4.914
 6020TIP3   OH218065   4.807   5.768   3.475
 6020TIP3    H118066   4.715   5.767   3.448
 6020TIP3    H218067   4.805   5.776   3.570
 6021TIP3   OH218068   5.920   4.031   2.165
 6021TIP3    H118069   5.893   4.113   2.123
 6021TIP3    H218070   5.918   4.050   2.258
 6022TIP3   OH218071   3.150   2.904   1.940
 6022TIP3    H118072   3.095   2.852   1.999
 6022TIP3    H218073   3.118   2.881   1.852
 6023TIP3   OH218074   0.696   3.106   0.208
 6023TIP3    H118075   0.638   3.067   0.274
 6023TIP3    H218076   0.647   3.097   0.126
 6024TIP3   OH218077   3.199   0.286   0.766
 6024TIP3    H118078   3.182   0.320   0.854
 6024TIP3    H218079   3.201   0.364   0.710
 6025TIP3   OH218080   4.020   3.595   4.365
 6025TIP3    H118081   3.945   3.556   4.320
 6025TIP3    H218082   4.026   3.548   4.448
 6026TIP3   OH218083   3.259   5.591   4.070
 6026TIP3    H118084   3.331   5.643   4.108
 6026TIP3    H218085   3.290   5.569   3.982
 6027TIP3   OH218086   2.808   2.029   2.768
 6027TIP3    H118087   2.838   1.964   2.831
 6027TIP3    H218088   2.740   1.984   2.717
 6028TIP3   OH218089   2.664   2.836   1.608
 6028TIP3    H118090   2.714   2.916   1.625
 6028TIP3    H218091   2.720   2.766   1.643
 6029TIP3   OH218092   5.713   0.740   2.979
 6029TIP3    H118093   5.668   0.801   2.920
 6029TIP3    H218094   5.673   0.655   2.961
 6030TIP3   OH218095   4.374   3.805   1.405
 6030TIP3    H118096   4.414   3.758   1.332
 6030TIP3    H218097   4.379   3.897   1.381
 6031TIP3   OH218098   3.382   3.882   1.106
 6031TIP3    H118099   3.449   3.935   1.063
 6031TIP3    H218100   3.318   3.863   1.037
 6032TIP3   OH218101   1.869   0.892   1.035
 6032TIP3    H118102   1.940   0.827   1.027
 6032TIP3    H218103   1.883   0.933   1.120
 6033TIP3   OH218104   1.570  -0.020   2.871
 6033TIP3    H118105   1.617   0.035   2.934
 6033TIP3    H218106   1.581   0.025   2.787
 6034TIP3   OH218107   0.673   0.654   2.065
 6034TIP3    H118108   0.626   0.575   2.041
 6034TIP3    H218109   0.710   0.686   1.982
 6035TIP3   OH218110   2.271   1.223   1.641
 6035TIP3    H118111   2.180   1.194   1.651
 6035TIP3    H218112   2.266   1.318   1.635
 6036TIP3   OH218113   1.766   0.162   3.546
 6036TIP3    H118114   1.739   0.246   3.583
 6036TIP3    H218115   1.861   0.158   3.562
 6037TIP3   OH218116   6.331   5.034   2.463
 6037TIP3    H118117   6.250   5.085   2.470
 6037TIP3    H218118   6.339   4.991   2.547
 6038TIP3   OH218119   5.109   0.604   0.170
 6038TIP3    H118120   5.194   0.643   0.190
 6038TIP3    H218121   5.128   0.534   0.108
 6039TIP3   OH218122   1.109   5.659   3.935
 6039TIP3    H118123   1.020   5.691   3.925
 6039TIP3    H218124   1.100   5.572   3.972
 6040TIP3   OH218125   3.866   5.039   3.662
 6040TIP3    H118126   3.816   5.034   3.581
 6040TIP3    H218127   3.815   5.097   3.718
 6041TIP3   OH218128   3.698   3.458   4.542
 6041TIP3    H118129   3.608   3.485   4.563
 6041TIP3    H218130   3.752   3.533   4.566
 6042TIP3   OH218131   2.573   5.899   2.713
 6042TIP3    H118132   2.625   5.944   2.780
 6042TIP3    H218133   2.630   5.830   2.680
 6043TIP3   OH218134   2.629   1.579   2.448
 6043TIP3    H118135   2.668   1.493   2.433
 6043TIP3    H218136   2.535   1.562   2.453
 6044TIP3   OH218137   3.212   1.291   1.556
 6044TIP3    H118138   3.232   1.384   1.548
 6044TIP3    H218139   3.155   1.285   1.633
 6045TIP3   OH218140   1.761   0.287   5.137
 6045TIP3    H118141   1.699   0.310   5.068
 6045TIP3    H218142   1.847   0.300   5.097
 6046TIP3   OH218143   4.322   1.024   0.077
 6046TIP3    H118144   4.371   1.081   0.018
 6046TIP3    H218145   4.342   0.936   0.047
 6047TIP3   OH218146   2.875   1.791   4.683
 6047TIP3    H118147   2.899   1.726   4.617
 6047TIP3    H218148   2.814   1.745   4.741
 6048TIP3   OH218149   6.367   0.596   2.841
 6048TIP3    H118150   6.303   0.564   2.904
 6048TIP3    H218151   6.357   0.538   2.765
 6049TIP3   OH218152   0.531   2.804   3.010
 6049TIP3    H118153   0.586   2.746   2.956
 6049TIP3    H218154   0.455   2.750   3.033
 6050TIP3   OH218155   3.581   5.031   2.822
 6050TIP3    H118156   3.662   4.982   2.808
 6050TIP3    H218157   3.593   5.112   2.772
 6051TIP3   OH218158   6.077   4.754   2.550
 6051TIP3    H118159   6.130   4.736   2.472
 6051TIP3    H218160   5.991   4.718   2.529
 6052TIP3   OH218161   2.917   0.645   2.808
 6052TIP3    H118162   2.938   0.640   2.714
 6052TIP3    H218163   2.989   0.694   2.846
 6053TIP3   OH218164   0.018   4.243   3.732
 6053TIP3    H118165   0.060   4.248   3.647
 6053TIP3    H218166   0.087   4.212   3.791
 6054TIP3   OH218167   5.187   0.084   2.650
 6054TIP3    H118168   5.271   0.093   2.604
 6054TIP3    H218169   5.212   0.052   2.737
 6055TIP3   OH218170   0.246   4.579   3.917
 6055TIP3    H118171   0.296   4.577   3.836
 6055TIP3    H218172   0.271   4.661   3.959
 6056TIP3   OH218173   0.446   3.579   0.387
 6056TIP3    H118174   0.462   3.673   0.390
 6056TIP3    H218175   0.450   3.557   0.294
 6057TIP3   OH218176   4.271   4.802   2.870
 6057TIP3    H118177   4.260   4.855   2.791
 6057TIP3    H218178   4.365   4.787   2.877
 6058TIP3   OH218179   1.249   2.470   0.628
 6058TIP3    H118180   1.235   2.506   0.541
 6058TIP3    H218181   1.341   2.443   0.629
 6059TIP3   OH218182   6.207   4.038   4.151
 6059TIP3    H118183   6.116   4.011   4.158
 6059TIP3    H218184   6.212   4.084   4.067
 6060TIP3   OH218185   0.905   5.762   4.287
 6060TIP3    H118186   0.901   5.832   4.221
 6060TIP3    H218187   0.826   5.774   4.339
 6061TIP3   OH218188   6.030   5.546   0.355
 6061TIP3    H118189   6.091   5.604   0.399
 6061TIP3    H218190   6.064   5.539   0.265
 6062TIP3   OH218191   0.521   4.440   4.255
 6062TIP3    H118192   0.500   4.460   4.346
 6062TIP3    H218193   0.440   4.407   4.217
 6063TIP3   OH218194   5.647   1.023   1.322
 6063TIP3    H118195   5.689   1.008   1.237
 6063TIP3    H218196   5.612   0.938   1.347
 6064TIP3   OH218197   4.229   3.716   2.409
 6064TIP3    H118198   4.297   3.756   2.356
 6064TIP3    H218199   4.250   3.741   2.499
 6065TIP3   OH218200   4.721   3.618   4.449
 6065TIP3    H118201   4.754   3.563   4.377
 6065TIP3    H218202   4.656   3.675   4.408
 6066TIP3   OH218203   1.137   0.932   2.562
 6066TIP3    H118204   1.071   0.930   2.492
 6066TIP3    H218205   1.195   0.859   2.541
 6067TIP3   OH218206   4.756   1.976   3.334
 6067TIP3    H118207   4.761   2.022   3.250
 6067TIP3    H218208   4.664   1.978   3.357
 6068TIP3   OH218209   2.572   5.540   3.480
 6068TIP3    H118210   2.508   5.521   3.411
 6068TIP3    H218211   2.526   5.521   3.561
 6069TIP3   OH218212   2.839   4.339   1.435
 6069TIP3    H118213   2.767   4.373   1.382
 6069TIP3    H218214   2.799   4.316   1.518
 6070TIP3   OH218215   0.787   1.224   0.401
 6070TIP3    H118216   0.765   1.139   0.362
 6070TIP3    H218217   0.863   1.206   0.456
 6071TIP3   OH218218   2.223   1.359   3.215
 6071TIP3    H118219   2.274   1.390   3.141
 6071TIP3    H218220   2.194   1.439   3.259
 6072TIP3   OH218221   3.727   4.005   1.007
 6072TIP3    H118222   3.819   4.008   1.036
 6072TIP3    H218223   3.687   4.083   1.046
 6073TIP3   OH218224   1.807   5.394   3.104
 6073TIP3    H118225   1.826   5.319   3.161
 6073TIP3    H218226   1.812   5.470   3.161
 6074TIP3   OH218227   0.676   1.008   0.264
 6074TIP3    H118228   0.658   1.086   0.211
 6074TIP3    H218229   0.590   0.972   0.283
 6075TIP3   OH218230   4.061   2.356   3.600
 6075TIP3    H118231   4.056   2.366   3.695
 6075TIP3    H218232   4.020   2.271   3.582
 6076TIP3   OH218233   5.867   3.226   2.307
 6076TIP3    H118234   5.917   3.308   2.316
 6076TIP3    H218235   5.800   3.246   2.241
 6077TIP3   OH218236   2.194   0.278   3.793
 6077TIP3    H118237   2.149   0.305   3.873
 6077TIP3    H218238   2.248   0.354   3.770
 6078TIP3   OH218239   6.109   3.853   1.452
 6078TIP3    H118240   6.048   3.840   1.379
 6078TIP3    H218241   6.155   3.934   1.429
 6079TIP3   OH218242   1.066   4.956   4.138
 6079TIP3    H118243   1.087   5.016   4.067
 6079TIP3    H218244   0.988   4.910   4.109
 6080TIP3   OH218245   2.084   2.586   0.565
 6080TIP3    H118246   2.135   2.545   0.495
 6080TIP3    H218247   1.994   2.587   0.531
 6081TIP3   OH218248   1.124   4.824   2.313
 6081TIP3    H118249   1.094   4.742   2.351
 6081TIP3    H218250   1.105   4.890   2.379
 6082TIP3   OH218251   3.838   1.190   0.673
 6082TIP3    H118252   3.906   1.246   0.635
 6082TIP3    H218253   3.757   1.238   0.657
 6083TIP3   OH218254   0.419   2.186   1.509
 6083TIP3    H118255   0.515   2.187   1.506
 6083TIP3    H218256   0.393   2.223   1.425
 6084TIP3   OH218257   2.420   5.452   4.033
 6084TIP3    H118258   2.479   5.376   4.031
 6084TIP3    H218259   2.458   5.511   4.098
 6085TIP3   OH218260   5.075   1.195   0.939
 6085TIP3    H118261   5.006   1.221   0.878
 6085TIP3    H218262   5.028   1.156   1.013
 6086TIP3   OH218263   2.796   0.741   0.779
 6086TIP3    H118264   2.717   0.687   0.770
 6086TIP3    H218265   2.763   0.824   0.815
 6087TIP3   OH218266   3.553   4.140   3.925
 6087TIP3    H118267   3.473   4.129   3.874
 6087TIP3    H218268   3.609   4.195   3.871
 6088TIP3   OH218269   3.872   0.984   2.667
 6088TIP3    H118270   3.870   0.964   2.761
 6088TIP3    H218271   3.965   0.998   2.648
 6089TIP3   OH218272   4.008   4.286   3.677
 6089TIP3    H118273   4.066   4.221   3.637
 6089TIP3    H218274   3.945   4.233   3.726
 6090TIP3   OH218275   0.839   2.206   0.966
 6090TIP3    H118276   0.903   2.136   0.958
 6090TIP3    H218277   0.760   2.163   1.000
 6091TIP3   OH218278   1.809   3.173   1.255
 6091TIP3    H118279   1.883   3.116   1.275
 6091TIP3    H218280   1.811   3.183   1.160
 6092TIP3   OH218281   2.123   2.775   2.462
 6092TIP3    H118282   2.128   2.682   2.440
 6092TIP3    H218283   2.034   2.787   2.496
 6093TIP3   OH218284   3.973   3.889   4.537
 6093TIP3    H118285   4.029   3.879   4.460
 6093TIP3    H218286   3.952   3.800   4.563
 6094TIP3   OH218287   3.312   1.078   3.367
 6094TIP3    H118288   3.397   1.115   3.343
 6094TIP3    H218289   3.299   1.106   3.457
 6095TIP3   OH218290   5.656   4.564   4.997
 6095TIP3    H118291   5.732   4.578   5.054
 6095TIP3    H218292   5.629   4.474   5.015
 6096TIP3   OH218293   2.471   1.308   4.535
 6096TIP3    H118294   2.393   1.363   4.535
 6096TIP3    H218295   2.465   1.260   4.452
 6097TIP3   OH218296   2.842   5.284   4.195
 6097TIP3    H118297   2.803   5.370   4.214
 6097TIP3    H218298   2.878   5.293   4.107
 6098TIP3   OH218299   1.733   4.075   1.608
 6098TIP3    H118300   1.698   3.987   1.597
 6098TIP3    H218301   1.724   4.093   1.702
 6099TIP3   OH218302   5.375   0.672   1.100
 6099TIP3    H118303   5.295   0.647   1.053
 6099TIP3    H218304   5.344   0.721   1.176
 6100TIP3   OH218305   4.104   0.523   2.192
 6100TIP3    H118306   4.073   0.496   2.279
 6100TIP3    H218307   4.198   0.507   2.194
 6101TIP3   OH218308   3.500   0.840   4.002
 6101TIP3    H118309   3.573   0.810   4.056
 6101TIP3    H218310   3.425   0.842   4.062
 6102TIP3   OH218311   5.999   2.568   4.871
 6102TIP3    H118312   6.073   2.509   4.864
 6102TIP3    H218313   5.970   2.560   4.962
 6103TIP3   OH218314   2.222   5.903   1.073
 6103TIP3    H118315   2.309   5.932   1.098
 6103TIP3    H218316   2.186   5.975   1.022
 6104TIP3   OH218317   0.147   3.924   2.895
 6104TIP3    H118318   0.199   3.926   2.975
 6104TIP3    H218319   0.056   3.932   2.925
 6105TIP3   OH218320   2.332   3.082   3.339
 6105TIP3    H118321   2.371   3.020   3.401
 6105TIP3    H218322   2.355   3.048   3.253
 6106TIP3   OH218323   5.567   5.133   1.182
 6106TIP3    H118324   5.541   5.043   1.201
 6106TIP3    H218325   5.642   5.149   1.238
 6107TIP3   OH218326   5.084   5.543   2.419
 6107TIP3    H118327   5.002   5.501   2.392
 6107TIP3    H218328   5.094   5.616   2.358
 6108TIP3   OH218329   0.441   5.779   0.517
 6108TIP3    H118330   0.431   5.687   0.540
 6108TIP3    H218331   0.471   5.777   0.426
 6109TIP3   OH218332   1.288   5.134   1.410
 6109TIP3    H118333   1.354   5.139   1.479
 6109TIP3    H218334   1.328   5.081   1.342
 6110TIP3   OH218335   0.669   4.576   0.565
 6110TIP3    H118336   0.713   4.520   0.501
 6110TIP3    H218337   0.625   4.514   0.624
 6111TIP3   OH218338   0.245   4.684   0.509
 6111TIP3    H118339   0.207   4.682   0.421
 6111TIP3    H218340   0.193   4.749   0.556
 6112TIP3   OH218341   0.899   3.164   5.090
 6112TIP3    H118342   0.969   3.130   5.034
 6112TIP3    H218343   0.919   3.257   5.101
 6113TIP3   OH218344   3.506   4.265   2.683
 6113TIP3    H118345   3.482   4.173   2.689
 6113TIP3    H218346   3.497   4.286   2.590
 6114TIP3   OH218347   1.795   0.519   2.852
 6114TIP3    H118348   1.705   0.526   2.821
 6114TIP3    H218349   1.843   0.589   2.807
 6115TIP3   OH218350   3.550   1.336   3.746
 6115TIP3    H118351   3.640   1.364   3.733
 6115TIP3    H218352   3.507   1.356   3.662
 6116TIP3   OH218353   4.610   1.797   2.809
 6116TIP3    H118354   4.565   1.727   2.856
 6116TIP3    H218355   4.547   1.870   2.810
 6117TIP3   OH218356   2.036   1.788   1.848
 6117TIP3    H118357   1.987   1.796   1.931
 6117TIP3    H218358   2.128   1.791   1.875
 6118TIP3   OH218359   3.889   0.581   4.199
 6118TIP3    H118360   3.910   0.539   4.283
 6118TIP3    H218361   3.880   0.509   4.137
 6119TIP3   OH218362   3.975   2.625   4.793
 6119TIP3    H118363   4.017   2.542   4.815
 6119TIP3    H218364   4.044   2.691   4.806
 6120TIP3   OH218365   2.641   4.209   3.419
 6120TIP3    H118366   2.556   4.217   3.375
 6120TIP3    H218367   2.700   4.263   3.366
 6121TIP3   OH218368   3.136   1.208   0.713
 6121TIP3    H118369   3.222   1.216   0.754
 6121TIP3    H218370   3.073   1.230   0.782
 6122TIP3   OH218371   4.938   3.194   0.127
 6122TIP3    H118372   4.858   3.221   0.172
 6122TIP3    H218373   4.915   3.113   0.081
 6123TIP3   OH218374   0.111   2.906   0.754
 6123TIP3    H118375   0.094   2.993   0.717
 6123TIP3    H218376   0.028   2.879   0.792
 6124TIP3   OH218377   5.361   5.707   2.592
 6124TIP3    H118378   5.425   5.771   2.624
 6124TIP3    H218379   5.301   5.694   2.666
 6125TIP3   OH218380   3.464   3.469   2.755
 6125TIP3    H118381   3.435   3.390   2.709
 6125TIP3    H218382   3.437   3.456   2.845
 6126TIP3   OH218383   1.321   5.537   2.448
 6126TIP3    H118384   1.281   5.480   2.513
 6126TIP3    H218385   1.387   5.482   2.405
 6127TIP3   OH218386   6.210   3.946   3.287
 6127TIP3    H118387   6.186   3.937   3.379
 6127TIP3    H218388   6.195   4.038   3.267
 6128TIP3   OH218389   1.395   5.412   3.135
 6128TIP3    H118390   1.353   5.479   3.081
 6128TIP3    H218391   1.436   5.352   3.072
 6129TIP3   OH218392   1.084   4.737   1.381
 6129TIP3    H118393   1.171   4.752   1.418
 6129TIP3    H218394   1.058   4.652   1.415
 6130TIP3   OH218395   0.879   0.874   0.478
 6130TIP3    H118396   0.793   0.857   0.516
 6130TIP3    H218397   0.884   0.813   0.404
 6131TIP3   OH218398   1.026   5.252   0.672
 6131TIP3    H118399   1.082   5.216   0.740
 6131TIP3    H218400   0.963   5.182   0.653
 6132TIP3   OH218401   2.981   0.016   1.100
 6132TIP3    H118402   3.010   0.107   1.108
 6132TIP3    H218403   3.062  -0.034   1.086
 6133TIP3   OH218404   1.706   4.229   4.009
 6133TIP3    H118405   1.741   4.218   3.921
 6133TIP3    H218406   1.736   4.152   4.057
 6134TIP3   OH218407   4.132   5.736   2.842
 6134TIP3    H118408   4.140   5.797   2.915
 6134TIP3    H218409   4.125   5.791   2.765
 6135TIP3   OH218410   5.132   2.533   3.027
 6135TIP3    H118411   5.065   2.546   2.960
 6135TIP3    H218412   5.107   2.593   3.097
 6136TIP3   OH218413   0.620   0.298   2.708
 6136TIP3    H118414   0.543   0.349   2.687
 6136TIP3    H218415   0.659   0.276   2.623
 6137TIP3   OH218416   5.539   1.392   1.525
 6137TIP3    H118417   5.501   1.370   1.441
 6137TIP3    H218418   5.499   1.331   1.587
 6138TIP3   OH218419   4.140   5.896   2.621
 6138TIP3    H118420   4.209   5.956   2.592
 6138TIP3    H218421   4.080   5.891   2.547
 6139TIP3   OH218422   2.505   5.753   4.869
 6139TIP3    H118423   2.448   5.701   4.925
 6139TIP3    H218424   2.552   5.811   4.930
 6140TIP3   OH218425   0.975   1.276   3.886
 6140TIP3    H118426   0.901   1.259   3.944
 6140TIP3    H218427   0.937   1.271   3.798
 6141TIP3   OH218428   1.831   0.480   3.171
 6141TIP3    H118429   1.843   0.497   3.077
 6141TIP3    H218430   1.919   0.483   3.208
 6142TIP3   OH218431   4.021   5.713   0.820
 6142TIP3    H118432   4.081   5.770   0.869
 6142TIP3    H218433   3.941   5.764   0.812
 6143TIP3   OH218434   0.359   0.581   3.286
 6143TIP3    H118435   0.426   0.520   3.317
 6143TIP3    H218436   0.389   0.609   3.200
 6144TIP3   OH218437   1.223   1.734   5.005
 6144TIP3    H118438   1.186   1.706   5.089
 6144TIP3    H218439   1.159   1.795   4.969
 6145TIP3   OH218440   0.629   1.385   1.085
 6145TIP3    H118441   0.549   1.351   1.123
 6145TIP3    H218442   0.691   1.390   1.158
 6146TIP3   OH218443   0.466   4.650   2.141
 6146TIP3    H118444   0.456   4.628   2.048
 6146TIP3    H218445   0.402   4.594   2.186
 6147TIP3   OH218446   1.670   0.983   0.167
 6147TIP3    H118447   1.712   1.067   0.150
 6147TIP3    H218448   1.625   0.961   0.085
 6148TIP3   OH218449   1.923   4.333   5.131
 6148TIP3    H118450   1.948   4.349   5.222
 6148TIP3    H218451   1.928   4.419   5.090
 6149TIP3   OH218452   0.644   2.833   4.163
 6149TIP3    H118453   0.654   2.804   4.253
 6149TIP3    H218454   0.717   2.894   4.149
 6150TIP3   OH218455   4.792   0.198   0.971
 6150TIP3    H118456   4.820   0.144   1.045
 6150TIP3    H218457   4.719   0.249   1.005
 6151TIP3   OH218458   4.618   1.675   0.283
 6151TIP3    H118459   4.664   1.737   0.339
 6151TIP3    H218460   4.537   1.720   0.259
 6152TIP3   OH218461   3.953   0.673   2.002
 6152TIP3    H118462   3.997   0.594   2.033
 6152TIP3    H218463   3.902   0.704   2.077
 6153TIP3   OH218464   4.789   5.758   1.329
 6153TIP3    H118465   4.858   5.824   1.332
 6153TIP3    H218466   4.714   5.799   1.370
 6154TIP3   OH218467   1.745   0.326   0.428
 6154TIP3    H118468   1.706   0.280   0.354
 6154TIP3    H218469   1.804   0.391   0.388
 6155TIP3   OH218470   1.066   4.291   1.972
 6155TIP3    H118471   1.115   4.313   1.893
 6155TIP3    H218472   1.105   4.209   2.002
 6156TIP3   OH218473   5.483   2.984   1.774
 6156TIP3    H118474   5.389   2.994   1.790
 6156TIP3    H218475   5.503   3.049   1.707
 6157TIP3   OH218476   5.687   1.045   3.345
 6157TIP3    H118477   5.705   1.042   3.439
 6157TIP3    H218478   5.606   0.996   3.335
 6158TIP3   OH218479   5.710   2.522   0.855
 6158TIP3    H118480   5.723   2.475   0.773
 6158TIP3    H218481   5.650   2.594   0.832
 6159TIP3   OH218482   3.284   4.493   4.422
 6159TIP3    H118483   3.254   4.506   4.332
 6159TIP3    H218484   3.373   4.459   4.413
 6160TIP3   OH218485   1.695   0.542   0.984
 6160TIP3    H118486   1.766   0.495   0.940
 6160TIP3    H218487   1.648   0.586   0.914
 6161TIP3   OH218488   6.045   1.118   3.969
 6161TIP3    H118489   6.001   1.183   3.915
 6161TIP3    H218490   6.138   1.133   3.953
 6162TIP3   OH218491   6.180   3.235   5.238
 6162TIP3    H118492   6.174   3.289   5.159
 6162TIP3    H218493   6.161   3.146   5.208
 6163TIP3   OH218494   1.907   2.058   0.810
 6163TIP3    H118495   1.832   2.046   0.869
 6163TIP3    H218496   1.917   2.153   0.803
 6164TIP3   OH218497   0.975   0.003   4.356
 6164TIP3    H118498   1.007  -0.083   4.382
 6164TIP3    H218499   1.005   0.014   4.266
 6165TIP3   OH218500   4.359   1.916   4.913
 6165TIP3    H118501   4.440   1.968   4.918
 6165TIP3    H218502   4.290   1.977   4.940
 6166TIP3   OH218503   1.091   5.161   0.918
 6166TIP3    H118504   1.088   5.240   0.972
 6166TIP3    H218505   1.024   5.104   0.955
 6167TIP3   OH218506   5.699   1.667   1.295
 6167TIP3    H118507   5.670   1.637   1.209
 6167TIP3    H218508   5.618   1.678   1.345
 6168TIP3   OH218509   1.228   5.138   4.688
 6168TIP3    H118510   1.285   5.086   4.632
 6168TIP3    H218511   1.158   5.168   4.630
 6169TIP3   OH218512   2.993   4.479   1.129
 6169TIP3    H118513   2.957   4.435   1.052
 6169TIP3    H218514   2.916   4.510   1.177
 6170TIP3   OH218515   4.902   4.814   3.257
 6170TIP3    H118516   4.927   4.904   3.240
 6170TIP3    H218517   4.847   4.818   3.335
 6171TIP3   OH218518   1.890   4.078   2.323
 6171TIP3    H118519   1.968   4.068   2.376
 6171TIP3    H218520   1.875   4.173   2.320
 6172TIP3   OH218521   3.935   3.497   3.298
 6172TIP3    H118522   3.981   3.443   3.363
 6172TIP3    H218523   3.985   3.484   3.217
 6173TIP3   OH218524   2.413   1.860   1.293
 6173TIP3    H118525   2.431   1.775   1.253
 6173TIP3    H218526   2.354   1.903   1.231
 6174TIP3   OH218527   2.490   4.514   1.891
 6174TIP3    H118528   2.558   4.518   1.959
 6174TIP3    H218529   2.408   4.519   1.939
 6175TIP3   OH218530   1.619   4.067   2.644
 6175TIP3    H118531   1.665   3.987   2.618
 6175TIP3    H218532   1.689   4.128   2.666
 6176TIP3   OH218533   5.451   1.870   3.614
 6176TIP3    H118534   5.511   1.871   3.688
 6176TIP3    H218535   5.477   1.945   3.560
 6177TIP3   OH218536   4.002   5.521   3.225
 6177TIP3    H118537   4.065   5.483   3.286
 6177TIP3    H218538   3.929   5.548   3.280
 6178TIP3   OH218539   5.534   1.351   4.438
 6178TIP3    H118540   5.525   1.368   4.344
 6178TIP3    H218541   5.614   1.299   4.445
 6179TIP3   OH218542   3.191   1.019   4.390
 6179TIP3    H118543   3.211   1.092   4.449
 6179TIP3    H218544   3.123   0.970   4.437
 6180TIP3   OH218545   3.581   0.733   4.427
 6180TIP3    H118546   3.572   0.647   4.469
 6180TIP3    H218547   3.494   0.772   4.434
 6181TIP3   OH218548   2.159   3.558   0.566
 6181TIP3    H118549   2.234   3.500   0.549
 6181TIP3    H218550   2.111   3.560   0.484
 6182TIP3   OH218551   1.831   0.310   4.755
 6182TIP3    H118552   1.759   0.316   4.691
 6182TIP3    H218553   1.837   0.397   4.793
 6183TIP3   OH218554   3.855   5.925   2.819
 6183TIP3    H118555   3.839   5.832   2.839
 6183TIP3    H218556   3.809   5.940   2.737
 6184TIP3   OH218557   1.100   3.338   4.272
 6184TIP3    H118558   1.069   3.249   4.287
 6184TIP3    H218559   1.184   3.343   4.318
 6185TIP3   OH218560   1.379   0.212   0.275
 6185TIP3    H118561   1.474   0.207   0.289
 6185TIP3    H218562   1.354   0.297   0.313
 6186TIP3   OH218563   0.652   1.294   0.689
 6186TIP3    H118564   0.722   1.267   0.629
 6186TIP3    H218565   0.677   1.254   0.773
 6187TIP3   OH218566   3.836   4.875   2.926
 6187TIP3    H118567   3.786   4.810   2.876
 6187TIP3    H218568   3.919   4.831   2.944
 6188TIP3   OH218569   4.655   4.303   4.986
 6188TIP3    H118570   4.667   4.359   5.063
 6188TIP3    H218571   4.653   4.214   5.021
 6189TIP3   OH218572   1.755   0.030   3.819
 6189TIP3    H118573   1.786   0.119   3.834
 6189TIP3    H218574   1.720   0.032   3.729
 6190TIP3   OH218575   5.452   2.755   2.998
 6190TIP3    H118576   5.500   2.690   2.946
 6190TIP3    H218577   5.459   2.836   2.948
 6191TIP3   OH218578   2.691   5.771   4.669
 6191TIP3    H118579   2.638   5.760   4.590
 6191TIP3    H218580   2.627   5.766   4.740
 6192TIP3   OH218581   0.490   0.837   4.988
 6192TIP3    H118582   0.499   0.802   4.900
 6192TIP3    H218583   0.402   0.810   5.015
 6193TIP3   OH218584   0.244   1.510   1.519
 6193TIP3    H118585   0.202   1.462   1.591
 6193TIP3    H218586   0.174   1.565   1.483
 6194TIP3   OH218587   2.097   0.250   4.764
 6194TIP3    H118588   2.004   0.265   4.743
 6194TIP3    H218589   2.136   0.337   4.762
 6195TIP3   OH218590   5.151   2.890   0.787
 6195TIP3    H118591   5.074   2.838   0.766
 6195TIP3    H218592   5.170   2.869   0.879
 6196TIP3   OH218593   4.831   1.112   3.985
 6196TIP3    H118594   4.815   1.170   4.059
 6196TIP3    H218595   4.925   1.118   3.970
 6197TIP3   OH218596   4.563   3.345   0.821
 6197TIP3    H118597   4.568   3.251   0.837
 6197TIP3    H218598   4.587   3.354   0.728
 6198TIP3   OH218599   2.985   1.697   2.052
 6198TIP3    H118600   2.973   1.724   2.143
 6198TIP3    H218601   2.934   1.761   2.002
 6199TIP3   OH218602   2.411   1.359   3.426
 6199TIP3    H118603   2.470   1.399   3.362
 6199TIP3    H218604   2.345   1.314   3.374
 6200TIP3   OH218605   3.316   1.608   2.876
 6200TIP3    H118606   3.251   1.560   2.825
 6200TIP3    H218607   3.298   1.585   2.967
 6201TIP3   OH218608   5.698   3.120   3.106
 6201TIP3    H118609   5.649   3.068   3.042
 6201TIP3    H218610   5.658   3.098   3.190
 6202TIP3   OH218611   1.658   0.206   0.186
 6202TIP3    H118612   1.683   0.118   0.215
 6202TIP3    H218613   1.737   0.242   0.146
 6203TIP3   OH218614   3.423   5.597   0.241
 6203TIP3    H118615   3.333   5.565   0.237
 6203TIP3    H218616   3.415   5.689   0.265
 6204TIP3   OH218617   1.739   2.860   0.672
 6204TIP3    H118618   1.661   2.805   0.661
 6204TIP3    H218619   1.746   2.909   0.590
 6205TIP3   OH218620   2.435   4.045   4.274
 6205TIP3    H118621   2.468   3.983   4.209
 6205TIP3    H218622   2.397   3.989   4.342
 6206TIP3   OH218623   4.721   0.685   2.912
 6206TIP3    H118624   4.766   0.689   2.997
 6206TIP3    H218625   4.722   0.593   2.889
 6207TIP3   OH218626   4.534   5.090   1.445
 6207TIP3    H118627   4.455   5.039   1.425
 6207TIP3    H218628   4.579   5.039   1.513
 6208TIP3   OH218629   4.078   2.723   1.852
 6208TIP3    H118630   4.016   2.721   1.925
 6208TIP3    H218631   4.152   2.670   1.882
 6209TIP3   OH218632   4.061   2.989   0.153
 6209TIP3    H118633   3.969   2.975   0.132
 6209TIP3    H218634   4.072   2.947   0.238
 6210TIP3   OH218635   2.262   3.499   0.951
 6210TIP3    H118636   2.234   3.427   0.895
 6210TIP3    H218637   2.340   3.534   0.908
 6211TIP3   OH218638   2.342   2.979   4.104
 6211TIP3    H118639   2.338   2.886   4.123
 6211TIP3    H218640   2.405   2.987   4.032
 6212TIP3   OH218641   4.368   4.773   2.515
 6212TIP3    H118642   4.352   4.685   2.549
 6212TIP3    H218643   4.374   4.761   2.420
 6213TIP3   OH218644   3.434  -0.040   3.349
 6213TIP3    H118645   3.527  -0.065   3.349
 6213TIP3    H218646   3.435   0.055   3.345
 6214TIP3   OH218647   0.191   5.199   4.379
 6214TIP3    H118648   0.181   5.138   4.307
 6214TIP3    H218649   0.122   5.175   4.441
 6215TIP3   OH218650   5.654   3.641   3.033
 6215TIP3    H118651   5.659   3.708   3.101
 6215TIP3    H218652   5.648   3.559   3.081
 6216TIP3   OH218653   4.369   0.809   2.865
 6216TIP3    H118654   4.329   0.778   2.946
 6216TIP3    H218655   4.404   0.895   2.887
 6217TIP3   OH218656   2.999   0.894   0.144
 6217TIP3    H118657   2.971   0.863   0.231
 6217TIP3    H218658   2.920   0.933   0.106
 6218TIP3   OH218659   1.583   3.366   1.822
 6218TIP3    H118660   1.543   3.453   1.833
 6218TIP3    H218661   1.509   3.307   1.809
 6219TIP3   OH218662   4.264   0.576   1.150
 6219TIP3    H118663   4.327   0.532   1.093
 6219TIP3    H218664   4.182   0.576   1.102
 6220TIP3   OH218665   5.284   4.992   0.467
 6220TIP3    H118666   5.221   5.029   0.529
 6220TIP3    H218667   5.239   4.996   0.383
 6221TIP3   OH218668   0.112   2.810   1.017
 6221TIP3    H118669   0.174   2.867   0.971
 6221TIP3    H218670   0.042   2.796   0.954
 6222TIP3   OH218671   1.321   3.564   3.766
 6222TIP3    H118672   1.404   3.609   3.779
 6222TIP3    H218673   1.338   3.474   3.794
 6223TIP3   OH218674   2.299   0.999   3.318
 6223TIP3    H118675   2.238   0.983   3.246
 6223TIP3    H218676   2.258   0.958   3.394
 6224TIP3   OH218677   5.048   0.093   4.345
 6224TIP3    H118678   5.073   0.065   4.433
 6224TIP3    H218679   5.020   0.184   4.355
 6225TIP3   OH218680   2.074   0.940   1.586
 6225TIP3    H118681   2.085   1.035   1.596
 6225TIP3    H218682   2.004   0.931   1.521
 6226TIP3   OH218683   6.310   0.110   3.959
 6226TIP3    H118684   6.289   0.041   4.021
 6226TIP3    H218685   6.261   0.088   3.880
 6227TIP3   OH218686   4.721   0.198   4.132
 6227TIP3    H118687   4.713   0.294   4.126
 6227TIP3    H218688   4.704   0.168   4.043
 6228TIP3   OH218689   4.346   2.194   2.222
 6228TIP3    H118690   4.304   2.253   2.285
 6228TIP3    H218691   4.319   2.106   2.250
 6229TIP3   OH218692   3.454   2.327   4.371
 6229TIP3    H118693   3.481   2.259   4.433
 6229TIP3    H218694   3.473   2.409   4.416
 6230TIP3   OH218695   4.400   0.724   1.572
 6230TIP3    H118696   4.392   0.654   1.635
 6230TIP3    H218697   4.323   0.780   1.588
 6231TIP3   OH218698   4.984   1.098   5.045
 6231TIP3    H118699   5.003   1.158   5.117
 6231TIP3    H218700   5.060   1.106   4.987
 6232TIP3   OH218701   0.969   3.965   2.860
 6232TIP3    H118702   1.016   4.008   2.931
 6232TIP3    H218703   1.028   3.973   2.784
 6233TIP3   OH218704   4.790   5.467   0.690
 6233TIP3    H118705   4.770   5.387   0.642
 6233TIP3    H218706   4.860   5.509   0.640
 6234TIP3   OH218707   5.034   2.746   2.289
 6234TIP3    H118708   5.030   2.785   2.201
 6234TIP3    H218709   5.034   2.821   2.348
 6235TIP3   OH218710   3.337   0.353   2.238
 6235TIP3    H118711   3.384   0.331   2.158
 6235TIP3    H218712   3.365   0.287   2.301
 6236TIP3   OH218713   2.407   0.085   4.675
 6236TIP3    H118714   2.455   0.030   4.612
 6236TIP3    H218715   2.464   0.162   4.686
 6237TIP3   OH218716   4.260   1.775   3.078
 6237TIP3    H118717   4.235   1.820   3.158
 6237TIP3    H218718   4.191   1.798   3.015
 6238TIP3   OH218719   3.836   3.424   4.288
 6238TIP3    H118720   3.830   3.391   4.378
 6238TIP3    H218721   3.746   3.437   4.260
 6239TIP3   OH218722   4.026   1.374   1.818
 6239TIP3    H118723   4.108   1.369   1.770
 6239TIP3    H218724   4.049   1.416   1.901
 6240TIP3   OH218725   0.714   5.640   4.742
 6240TIP3    H118726   0.621   5.640   4.720
 6240TIP3    H218727   0.716   5.656   4.837
 6241TIP3   OH218728   0.813   4.167   3.589
 6241TIP3    H118729   0.825   4.169   3.494
 6241TIP3    H218730   0.901   4.150   3.624
 6242TIP3   OH218731   1.298   2.954   2.072
 6242TIP3    H118732   1.371   2.929   2.014
 6242TIP3    H218733   1.250   2.872   2.086
 6243TIP3   OH218734   3.871   0.717   2.266
 6243TIP3    H118735   3.795   0.659   2.257
 6243TIP3    H218736   3.931   0.669   2.324
 6244TIP3   OH218737   3.800   0.293   4.741
 6244TIP3    H118738   3.771   0.259   4.657
 6244TIP3    H218739   3.862   0.228   4.774
 6245TIP3   OH218740   4.665   5.077   2.192
 6245TIP3    H118741   4.637   5.118   2.109
 6245TIP3    H218742   4.584   5.062   2.240
 6246TIP3   OH218743   4.143   4.655   4.962
 6246TIP3    H118744   4.074   4.716   4.988
 6246TIP3    H218745   4.172   4.687   4.876
 6247TIP3   OH218746   4.111   0.185   3.944
 6247TIP3    H118747   4.161   0.152   3.870
 6247TIP3    H218748   4.030   0.133   3.944
 6248TIP3   OH218749   6.240   3.883   1.905
 6248TIP3    H118750   6.273   3.809   1.854
 6248TIP3    H218751   6.162   3.849   1.948
 6249TIP3   OH218752   2.945   2.641   3.978
 6249TIP3    H118753   3.021   2.698   3.992
 6249TIP3    H218754   2.960   2.601   3.893
 6250TIP3   OH218755   4.531   2.431   2.070
 6250TIP3    H118756   4.525   2.383   1.988
 6250TIP3    H218757   4.446   2.474   2.079
 6251TIP3   OH218758   3.730   5.396   2.196
 6251TIP3    H118759   3.715   5.473   2.142
 6251TIP3    H218760   3.671   5.406   2.270
 6252TIP3   OH218761   3.371   2.845   1.545
 6252TIP3    H118762   3.394   2.826   1.636
 6252TIP3    H218763   3.427   2.787   1.493
 6253TIP3   OH218764   5.345   5.214   4.323
 6253TIP3    H118765   5.321   5.297   4.282
 6253TIP3    H218766   5.264   5.162   4.320
 6254TIP3   OH218767   3.421   0.480   4.030
 6254TIP3    H118768   3.340   0.484   3.980
 6254TIP3    H218769   3.490   0.497   3.965
 6255TIP3   OH218770   0.317   1.091   3.856
 6255TIP3    H118771   0.287   1.093   3.946
 6255TIP3    H218772   0.310   1.182   3.826
 6256TIP3   OH218773   3.997   1.063   3.014
 6256TIP3    H118774   3.929   1.096   2.955
 6256TIP3    H218775   4.019   0.977   2.979
 6257TIP3   OH218776   2.702   1.176   4.608
 6257TIP3    H118777   2.687   1.100   4.664
 6257TIP3    H218778   2.624   1.231   4.621
 6258TIP3   OH218779   5.363   4.930   1.565
 6258TIP3    H118780   5.438   4.886   1.606
 6258TIP3    H218781   5.346   5.006   1.620
 6259TIP3   OH218782   1.494   4.103   3.342
 6259TIP3    H118783   1.510   4.198   3.348
 6259TIP3    H218784   1.572   4.063   3.379
 6260TIP3   OH218785   0.311   1.884   3.313
 6260TIP3    H118786   0.339   1.974   3.296
 6260TIP3    H218787   0.343   1.864   3.401
 6261TIP3   OH218788   4.680   3.650   2.985
 6261TIP3    H118789   4.725   3.583   3.037
 6261TIP3    H218790   4.687   3.730   3.037
 6262TIP3   OH218791   3.206   3.607   2.482
 6262TIP3    H118792   3.210   3.512   2.474
 6262TIP3    H218793   3.144   3.635   2.414
 6263TIP3   OH218794   3.975   3.671   3.631
 6263TIP3    H118795   3.956   3.732   3.702
 6263TIP3    H218796   3.920   3.701   3.559
 6264TIP3   OH218797   4.304   1.565   3.892
 6264TIP3    H118798   4.241   1.558   3.820
 6264TIP3    H218799   4.252   1.594   3.967
 6265TIP3   OH218800   5.496   3.106   4.152
 6265TIP3    H118801   5.578   3.090   4.199
 6265TIP3    H218802   5.521   3.164   4.080
 6266TIP3   OH218803   4.319   2.895   2.325
 6266TIP3    H118804   4.236   2.848   2.323
 6266TIP3    H218805   4.352   2.883   2.414
 6267TIP3   OH218806   3.468   3.844   1.707
 6267TIP3    H118807   3.556   3.809   1.691
 6267TIP3    H218808   3.429   3.849   1.620
 6268TIP3   OH218809   0.666   5.718   3.499
 6268TIP3    H118810   0.759   5.720   3.521
 6268TIP3    H218811   0.647   5.626   3.480
 6269TIP3   OH218812   2.804   2.958   3.982
 6269TIP3    H118813   2.763   2.884   3.937
 6269TIP3    H218814   2.770   2.954   4.071
 6270TIP3   OH218815   3.866   0.177   1.643
 6270TIP3    H118816   3.793   0.155   1.701
 6270TIP3    H218817   3.824   0.204   1.561
 6271TIP3   OH218818   4.930   0.643   0.394
 6271TIP3    H118819   4.998   0.617   0.332
 6271TIP3    H218820   4.859   0.580   0.379
 6272TIP3   OH218821   4.928   2.641   3.781
 6272TIP3    H118822   4.901   2.563   3.831
 6272TIP3    H218823   5.016   2.660   3.813
 6273TIP3   OH218824   0.195   3.544   1.389
 6273TIP3    H118825   0.215   3.565   1.480
 6273TIP3    H218826   0.114   3.492   1.394
 6274TIP3   OH218827   3.797   5.376   2.868
 6274TIP3    H118828   3.859   5.331   2.810
 6274TIP3    H218829   3.715   5.377   2.819
 6275TIP3   OH218830   2.801   4.163   2.088
 6275TIP3    H118831   2.729   4.200   2.038
 6275TIP3    H218832   2.842   4.099   2.029
 6276TIP3   OH218833   4.970   4.024   0.188
 6276TIP3    H118834   4.891   4.076   0.202
 6276TIP3    H218835   5.036   4.064   0.245
 6277TIP3   OH218836   2.321   3.177   3.629
 6277TIP3    H118837   2.266   3.226   3.568
 6277TIP3    H218838   2.264   3.159   3.704
 6278TIP3   OH218839   3.352   3.935   0.347
 6278TIP3    H118840   3.267   3.897   0.370
 6278TIP3    H218841   3.331   4.023   0.316
 6279TIP3   OH218842   5.470   4.431   1.204
 6279TIP3    H118843   5.414   4.360   1.175
 6279TIP3    H218844   5.559   4.399   1.189
 6280TIP3   OH218845   2.716   2.589   0.428
 6280TIP3    H118846   2.699   2.611   0.337
 6280TIP3    H218847   2.805   2.555   0.428
 6281TIP3   OH218848   3.111   0.563   0.371
 6281TIP3    H118849   3.023   0.587   0.400
 6281TIP3    H218850   3.115   0.592   0.280
 6282TIP3   OH218851   3.964   2.613   1.037
 6282TIP3    H118852   4.029   2.622   0.968
 6282TIP3    H218853   4.013   2.624   1.119
 6283TIP3   OH218854   4.581   0.130   1.779
 6283TIP3    H118855   4.492   0.095   1.770
 6283TIP3    H218856   4.638   0.061   1.746
 6284TIP3   OH218857   0.414   0.682   1.366
 6284TIP3    H118858   0.428   0.749   1.433
 6284TIP3    H218859   0.462   0.606   1.399
 6285TIP3   OH218860   3.615   3.197   0.520
 6285TIP3    H118861   3.544   3.205   0.583
 6285TIP3    H218862   3.659   3.282   0.522
 6286TIP3   OH218863   2.630   0.041   5.161
 6286TIP3    H118864   2.555   0.000   5.204
 6286TIP3    H218865   2.613   0.029   5.068
 6287TIP3   OH218866   0.894   0.637   1.190
 6287TIP3    H118867   0.851   0.678   1.115
 6287TIP3    H218868   0.860   0.685   1.266
 6288TIP3   OH218869   2.370   4.595   1.478
 6288TIP3    H118870   2.338   4.514   1.519
 6288TIP3    H218871   2.290   4.642   1.454
 6289TIP3   OH218872   0.942   0.533   4.594
 6289TIP3    H118873   0.889   0.613   4.598
 6289TIP3    H218874   0.881   0.466   4.564
 6290TIP3   OH218875   3.680   2.106   4.207
 6290TIP3    H118876   3.714   2.179   4.259
 6290TIP3    H218877   3.587   2.124   4.198
 6291TIP3   OH218878   5.500   3.562   1.381
 6291TIP3    H118879   5.539   3.478   1.359
 6291TIP3    H218880   5.406   3.547   1.372
 6292TIP3   OH218881   4.932   5.249   0.039
 6292TIP3    H118882   4.955   5.271   0.129
 6292TIP3    H218883   4.850   5.201   0.045
 6293TIP3   OH218884   5.331   1.315   0.566
 6293TIP3    H118885   5.317   1.391   0.622
 6293TIP3    H218886   5.385   1.347   0.495
 6294TIP3   OH218887   4.557   3.235   2.342
 6294TIP3    H118888   4.579   3.197   2.427
 6294TIP3    H218889   4.511   3.164   2.296
 6295TIP3   OH218890   3.965   3.288   1.341
 6295TIP3    H118891   3.927   3.375   1.326
 6295TIP3    H218892   4.050   3.306   1.382
 6296TIP3   OH218893   6.071   1.915   4.464
 6296TIP3    H118894   6.052   1.957   4.548
 6296TIP3    H218895   6.046   1.823   4.476
 6297TIP3   OH218896   6.186   4.054   2.118
 6297TIP3    H118897   6.196   4.009   2.035
 6297TIP3    H218898   6.102   4.024   2.152
 6298TIP3   OH218899   3.237   3.028   2.189
 6298TIP3    H118900   3.291   3.101   2.160
 6298TIP3    H218901   3.212   2.982   2.109
 6299TIP3   OH218902   2.755   0.766   1.622
 6299TIP3    H118903   2.841   0.804   1.606
 6299TIP3    H218904   2.695   0.841   1.623
 6300TIP3   OH218905   0.943   0.473   2.101
 6300TIP3    H118906   0.865   0.486   2.155
 6300TIP3    H218907   0.956   0.557   2.057
 6301TIP3   OH218908   3.003   2.832   1.681
 6301TIP3    H118909   2.999   2.770   1.608
 6301TIP3    H218910   2.986   2.917   1.641
 6302TIP3   OH218911   5.614   2.016   1.417
 6302TIP3    H118912   5.665   2.094   1.393
 6302TIP3    H218913   5.668   1.970   1.481
 6303TIP3   OH218914   3.017   1.072   3.359
 6303TIP3    H118915   3.110   1.067   3.341
 6303TIP3    H218916   2.981   0.990   3.325
 6304TIP3   OH218917   6.136   4.239   4.857
 6304TIP3    H118918   6.092   4.157   4.878
 6304TIP3    H218919   6.172   4.270   4.940
 6305TIP3   OH218920   5.516   3.162   3.371
 6305TIP3    H118921   5.584   3.105   3.406
 6305TIP3    H218922   5.559   3.246   3.358
 6306TIP3   OH218923   1.938   2.935   4.598
 6306TIP3    H118924   1.887   2.867   4.641
 6306TIP3    H218925   2.029   2.912   4.616
 6307TIP3   OH218926   4.972   3.711   0.507
 6307TIP3    H118927   5.018   3.795   0.509
 6307TIP3    H218928   5.041   3.646   0.490
 6308TIP3   OH218929   6.120   3.679   0.750
 6308TIP3    H118930   6.122   3.622   0.827
 6308TIP3    H218931   6.191   3.647   0.695
 6309TIP3   OH218932   1.448   4.437   4.592
 6309TIP3    H118933   1.377   4.373   4.601
 6309TIP3    H218934   1.492   4.436   4.677
 6310TIP3   OH218935   0.032   4.207   2.962
 6310TIP3    H118936   0.112   4.222   2.912
 6310TIP3    H218937   0.051   4.130   3.015
 6311TIP3   OH218938   2.074   5.142   0.765
 6311TIP3    H118939   2.011   5.080   0.802
 6311TIP3    H218940   2.027   5.185   0.694
 6312TIP3   OH218941   1.835   4.968   2.062
 6312TIP3    H118942   1.859   4.902   1.997
 6312TIP3    H218943   1.765   4.928   2.114
 6313TIP3   OH218944   3.868   3.523   0.142
 6313TIP3    H118945   3.888   3.525   0.048
 6313TIP3    H218946   3.784   3.478   0.148
 6314TIP3   OH218947   5.102   5.051   4.362
 6314TIP3    H118948   5.143   5.000   4.432
 6314TIP3    H218949   5.016   5.075   4.396
 6315TIP3   OH218950   4.321   4.833   4.439
 6315TIP3    H118951   4.303   4.905   4.379
 6315TIP3    H218952   4.333   4.757   4.382
 6316TIP3   OH218953   6.342   2.750   2.243
 6316TIP3    H118954   6.275   2.818   2.233
 6316TIP3    H218955   6.365   2.726   2.153
 6317TIP3   OH218956   5.002   1.460   0.739
 6317TIP3    H118957   4.991   1.529   0.805
 6317TIP3    H218958   5.095   1.462   0.717
 6318TIP3   OH218959   4.619   0.571   3.401
 6318TIP3    H118960   4.612   0.617   3.485
 6318TIP3    H218961   4.588   0.635   3.337
 6319TIP3   OH218962   2.198   4.119   3.005
 6319TIP3    H118963   2.226   4.029   3.021
 6319TIP3    H218964   2.142   4.140   3.079
 6320TIP3   OH218965   2.893   4.933   1.267
 6320TIP3    H118966   2.851   4.962   1.348
 6320TIP3    H218967   2.826   4.885   1.220
 6321TIP3   OH218968   4.143   5.776   0.205
 6321TIP3    H118969   4.169   5.705   0.146
 6321TIP3    H218970   4.055   5.752   0.234
 6322TIP3   OH218971   0.534   3.820   0.785
 6322TIP3    H118972   0.560   3.844   0.697
 6322TIP3    H218973   0.469   3.751   0.773
 6323TIP3   OH218974   2.599   2.987   2.400
 6323TIP3    H118975   2.654   2.930   2.346
 6323TIP3    H218976   2.644   3.072   2.398
 6324TIP3   OH218977   5.304   0.084   3.612
 6324TIP3    H118978   5.287   0.061   3.521
 6324TIP3    H218979   5.220   0.071   3.656
 6325TIP3   OH218980   4.740   4.706   1.423
 6325TIP3    H118981   4.769   4.624   1.383
 6325TIP3    H218982   4.711   4.760   1.350
 6326TIP3   OH218983   1.834   2.611   0.447
 6326TIP3    H118984   1.900   2.657   0.396
 6326TIP3    H218985   1.783   2.563   0.383
 6327TIP3   OH218986   0.779   3.136   4.326
 6327TIP3    H118987   0.706   3.194   4.348
 6327TIP3    H218988   0.840   3.146   4.399
 6328TIP3   OH218989   4.349   2.885   0.410
 6328TIP3    H118990   4.310   2.966   0.379
 6328TIP3    H218991   4.309   2.871   0.496
 6329TIP3   OH218992   2.405   2.875   4.426
 6329TIP3    H118993   2.443   2.853   4.341
 6329TIP3    H218994   2.452   2.820   4.488
 6330TIP3   OH218995   5.883   4.833   4.377
 6330TIP3    H118996   5.967   4.875   4.357
 6330TIP3    H218997   5.840   4.893   4.438
 6331TIP3   OH218998   5.811   5.944   3.521
 6331TIP3    H118999   5.764   5.948   3.438
 6331TIP3    H219000   5.870   6.020   3.519
 6332TIP3   OH219001   2.931   1.007   4.217
 6332TIP3    H119002   3.017   1.037   4.188
 6332TIP3    H219003   2.942   0.913   4.232
 6333TIP3   OH219004   6.086   4.789   1.390
 6333TIP3    H119005   6.148   4.862   1.378
 6333TIP3    H219006   6.053   4.771   1.302
 6334TIP3   OH219007   5.556   0.230   1.619
 6334TIP3    H119008   5.532   0.214   1.528
 6334TIP3    H219009   5.500   0.171   1.669
 6335TIP3   OH219010   4.651   5.360   5.063
 6335TIP3    H119011   4.734   5.326   5.096
 6335TIP3    H219012   4.675   5.407   4.983
 6336TIP3   OH219013   5.053   0.094   2.024
 6336TIP3    H119014   5.025   0.177   1.985
 6336TIP3    H219015   5.010   0.093   2.109
 6337TIP3   OH219016   6.024   2.483   1.894
 6337TIP3    H119017   5.979   2.516   1.972
 6337TIP3    H219018   5.956   2.477   1.828
 6338TIP3   OH219019   4.959   2.841   4.963
 6338TIP3    H119020   4.886   2.869   4.908
 6338TIP3    H219021   4.984   2.755   4.928
 6339TIP3   OH219022   5.583   2.379   1.776
 6339TIP3    H119023   5.525   2.441   1.821
 6339TIP3    H219024   5.527   2.339   1.709
 6340TIP3   OH219025   4.689   4.925   0.517
 6340TIP3    H119026   4.772   4.878   0.505
 6340TIP3    H219027   4.668   4.959   0.429
 6341TIP3   OH219028   5.250   3.582   2.245
 6341TIP3    H119029   5.244   3.676   2.257
 6341TIP3    H219030   5.318   3.554   2.306
 6342TIP3   OH219031   5.666   1.023   0.258
 6342TIP3    H119032   5.623   1.084   0.198
 6342TIP3    H219033   5.665   1.068   0.342
 6343TIP3   OH219034   2.532   2.186   2.935
 6343TIP3    H119035   2.567   2.107   2.976
 6343TIP3    H219036   2.448   2.159   2.898
 6344TIP3   OH219037   4.484   5.069   2.526
 6344TIP3    H119038   4.436   5.065   2.443
 6344TIP3    H219039   4.420   5.045   2.592
 6345TIP3   OH219040   4.731   5.528   0.016
 6345TIP3    H119041   4.797   5.533   0.086
 6345TIP3    H219042   4.652   5.498   0.060
 6346TIP3   OH219043   5.064   1.723   0.462
 6346TIP3    H119044   5.158   1.736   0.451
 6346TIP3    H219045   5.043   1.768   0.544
 6347TIP3   OH219046   1.403   5.562   4.239
 6347TIP3    H119047   1.361   5.645   4.217
 6347TIP3    H219048   1.447   5.580   4.322
 6348TIP3   OH219049   1.972   2.713   4.108
 6348TIP3    H119050   2.009   2.739   4.192
 6348TIP3    H219051   1.971   2.793   4.056
 6349TIP3   OH219052   3.388   0.637   1.620
 6349TIP3    H119053   3.360   0.721   1.658
 6349TIP3    H219054   3.469   0.616   1.666
 6350TIP3   OH219055   3.503   3.838   3.303
 6350TIP3    H119056   3.468   3.875   3.222
 6350TIP3    H219057   3.597   3.836   3.289
 6351TIP3   OH219058   6.037   5.984   0.275
 6351TIP3    H119059   5.977   5.917   0.308
 6351TIP3    H219060   6.044   5.965   0.181
 6352TIP3   OH219061   4.444   0.110   4.482
 6352TIP3    H119062   4.367   0.054   4.491
 6352TIP3    H219063   4.408   0.195   4.454
 6353TIP3   OH219064   5.033   1.573   3.065
 6353TIP3    H119065   4.967   1.609   3.006
 6353TIP3    H219066   4.982   1.526   3.132
 6354TIP3   OH219067   4.589   0.532   4.351
 6354TIP3    H119068   4.668   0.548   4.403
 6354TIP3    H219069   4.538   0.613   4.360
 6355TIP3   OH219070   2.299   3.400   4.850
 6355TIP3    H119071   2.371   3.391   4.912
 6355TIP3    H219072   2.225   3.429   4.904
 6356TIP3   OH219073   0.687   4.961   1.602
 6356TIP3    H119074   0.733   4.884   1.571
 6356TIP3    H219075   0.696   5.025   1.531
 6357TIP3   OH219076   3.481   5.882   0.246
 6357TIP3    H119077   3.474   5.978   0.246
 6357TIP3    H219078   3.471   5.857   0.338
 6358TIP3   OH219079   4.688   4.722   4.702
 6358TIP3    H119080   4.718   4.812   4.711
 6358TIP3    H219081   4.766   4.669   4.718
 6359TIP3   OH219082   5.190   1.122   4.836
 6359TIP3    H119083   5.198   1.217   4.848
 6359TIP3    H219084   5.281   1.091   4.837
 6360TIP3   OH219085   6.020   2.912   1.731
 6360TIP3    H119086   6.098   2.962   1.709
 6360TIP3    H219087   5.954   2.978   1.754
 6361TIP3   OH219088   5.940   2.614   1.404
 6361TIP3    H119089   5.905   2.693   1.363
 6361TIP3    H219090   6.018   2.592   1.353
 6362TIP3   OH219091   1.347   4.553   3.858
 6362TIP3    H119092   1.273   4.554   3.919
 6362TIP3    H219093   1.421   4.524   3.911
 6363TIP3   OH219094   2.597   4.047   2.630
 6363TIP3    H119095   2.680   4.073   2.669
 6363TIP3    H219096   2.614   3.960   2.594
 6364TIP3   OH219097   2.221   3.930   1.069
 6364TIP3    H119098   2.265   3.846   1.086
 6364TIP3    H219099   2.150   3.934   1.133
 6365TIP3   OH219100   3.460   2.234   0.193
 6365TIP3    H119101   3.438   2.327   0.187
 6365TIP3    H219102   3.420   2.204   0.274
 6366TIP3   OH219103   2.558   5.201   4.020
 6366TIP3    H119104   2.649   5.225   4.039
 6366TIP3    H219105   2.553   5.109   4.044
 6367TIP3   OH219106   2.004   2.569   0.029
 6367TIP3    H119107   1.977   2.500   0.090
 6367TIP3    H219108   2.007   2.526  -0.056
 6368TIP3   OH219109   0.713   2.797   2.306
 6368TIP3    H119110   0.652   2.856   2.350
 6368TIP3    H219111   0.670   2.775   2.224
 6369TIP3   OH219112   4.045   3.137   4.414
 6369TIP3    H119113   4.019   3.047   4.432
 6369TIP3    H219114   4.091   3.133   4.330
 6370TIP3   OH219115   4.446   1.939   2.091
 6370TIP3    H119116   4.477   2.025   2.120
 6370TIP3    H219117   4.487   1.926   2.005
 6371TIP3   OH219118   1.939   4.184   1.040
 6371TIP3    H119119   1.983   4.135   1.110
 6371TIP3    H219120   1.858   4.135   1.025
 6372TIP3   OH219121   5.750   4.995   2.619
 6372TIP3    H119122   5.814   5.050   2.664
 6372TIP3    H219123   5.733   4.924   2.681
 6373TIP3   OH219124   5.353   1.615   0.981
 6373TIP3    H119125   5.306   1.547   1.028
 6373TIP3    H219126   5.314   1.697   1.011
 6374TIP3   OH219127   5.493   0.507   3.527
 6374TIP3    H119128   5.518   0.417   3.545
 6374TIP3    H219129   5.415   0.522   3.579
 6375TIP3   OH219130   1.298   5.430   5.037
 6375TIP3    H119131   1.305   5.341   5.000
 6375TIP3    H219132   1.386   5.467   5.023
 6376TIP3   OH219133   5.257   5.239   3.423
 6376TIP3    H119134   5.183   5.246   3.484
 6376TIP3    H219135   5.217   5.216   3.339
 6377TIP3   OH219136   4.189   3.148   3.556
 6377TIP3    H119137   4.119   3.212   3.560
 6377TIP3    H219138   4.217   3.148   3.464
 6378TIP3   OH219139   4.639   1.470   2.075
 6378TIP3    H119140   4.579   1.400   2.050
 6378TIP3    H219141   4.717   1.456   2.022
 6379TIP3   OH219142   3.893   4.445   5.022
 6379TIP3    H119143   3.964   4.504   4.996
 6379TIP3    H219144   3.815   4.481   4.980
 6380TIP3   OH219145   5.878   5.252   3.888
 6380TIP3    H119146   5.787   5.222   3.888
 6380TIP3    H219147   5.874   5.339   3.928
 6381TIP3   OH219148   4.170   0.183   2.037
 6381TIP3    H119149   4.265   0.187   2.044
 6381TIP3    H219150   4.151   0.212   1.948
 6382TIP3   OH219151   3.627   0.346   1.711
 6382TIP3    H119152   3.670   0.377   1.632
 6382TIP3    H219153   3.537   0.328   1.685
 6383TIP3   OH219154   4.857   1.719   2.901
 6383TIP3    H119155   4.773   1.717   2.855
 6383TIP3    H219156   4.904   1.793   2.863
 6384TIP3   OH219157   4.356   4.120   4.148
 6384TIP3    H119158   4.398   4.181   4.089
 6384TIP3    H219159   4.418   4.047   4.157
 6385TIP3   OH219160   4.041   1.279   2.650
 6385TIP3    H119161   4.076   1.222   2.582
 6385TIP3    H219162   3.947   1.283   2.633
 6386TIP3   OH219163   2.841   2.922   3.597
 6386TIP3    H119164   2.914   2.879   3.554
 6386TIP3    H219165   2.857   3.016   3.586
 6387TIP3   OH219166   2.786   2.111   2.328
 6387TIP3    H119167   2.872   2.148   2.312
 6387TIP3    H219168   2.798   2.055   2.405
 6388TIP3   OH219169   1.698   5.409   3.386
 6388TIP3    H119170   1.620   5.404   3.330
 6388TIP3    H219171   1.671   5.366   3.468
 6389TIP3   OH219172   0.213   4.194   3.322
 6389TIP3    H119173   0.265   4.233   3.251
 6389TIP3    H219174   0.193   4.267   3.380
 6390TIP3   OH219175   1.201   5.600   0.074
 6390TIP3    H119176   1.239   5.684   0.098
 6390TIP3    H219177   1.120   5.594   0.125
 6391TIP3   OH219178   6.287   0.633   0.914
 6391TIP3    H119179   6.271   0.727   0.901
 6391TIP3    H219180   6.363   0.630   0.972
 6392TIP3   OH219181   0.139   0.500   0.226
 6392TIP3    H119182   0.086   0.421   0.229
 6392TIP3    H219183   0.227   0.469   0.208
 6393TIP3   OH219184   2.405   0.898   5.025
 6393TIP3    H119185   2.495   0.911   5.053
 6393TIP3    H219186   2.393   0.960   4.953
 6394TIP3   OH219187   3.066   2.459   4.827
 6394TIP3    H119188   2.999   2.420   4.771
 6394TIP3    H219189   3.055   2.416   4.912
 6395TIP3   OH219190   4.146   0.157   2.514
 6395TIP3    H119191   4.207   0.231   2.509
 6395TIP3    H219192   4.201   0.080   2.501
 6396TIP3   OH219193   0.201   0.310   3.090
 6396TIP3    H119194   0.276   0.322   3.031
 6396TIP3    H219195   0.145   0.386   3.073
 6397TIP3   OH219196   4.453   4.504   0.522
 6397TIP3    H119197   4.460   4.495   0.617
 6397TIP3    H219198   4.429   4.596   0.508
 6398TIP3   OH219199   5.891   2.795   3.714
 6398TIP3    H119200   5.969   2.745   3.692
 6398TIP3    H219201   5.893   2.870   3.654
 6399TIP3   OH219202   2.800   5.663   0.565
 6399TIP3    H119203   2.775   5.591   0.507
 6399TIP3    H219204   2.803   5.623   0.653
 6400TIP3   OH219205   3.426   3.554   4.521
 6400TIP3    H119206   3.373   3.592   4.451
 6400TIP3    H219207   3.366   3.494   4.566
 6401TIP3   OH219208   0.467   5.340   3.428
 6401TIP3    H119209   0.523   5.338   3.506
 6401TIP3    H219210   0.380   5.361   3.461
 6402TIP3   OH219211   5.333   1.816   0.421
 6402TIP3    H119212   5.346   1.895   0.369
 6402TIP3    H219213   5.361   1.744   0.364
 6403TIP3   OH219214   4.202   0.267   1.306
 6403TIP3    H119215   4.143   0.234   1.238
 6403TIP3    H219216   4.281   0.292   1.258
 6404TIP3   OH219217   5.299   2.661   2.289
 6404TIP3    H119218   5.309   2.577   2.244
 6404TIP3    H219219   5.204   2.676   2.291
 6405TIP3   OH219220   0.828   5.145   4.218
 6405TIP3    H119221   0.919   5.175   4.215
 6405TIP3    H219222   0.818   5.109   4.307
 6406TIP3   OH219223   4.974   0.848   0.089
 6406TIP3    H119224   4.954   0.902   0.166
 6406TIP3    H219225   5.028   0.777   0.122
 6407TIP3   OH219226   2.199   5.407   3.598
 6407TIP3    H119227   2.114   5.422   3.639
 6407TIP3    H219228   2.184   5.333   3.538
 6408TIP3   OH219229   1.985   4.706   2.253
 6408TIP3    H119230   1.891   4.687   2.252
 6408TIP3    H219231   2.005   4.734   2.164
 6409TIP3   OH219232   4.568   5.365   3.869
 6409TIP3    H119233   4.508   5.427   3.910
 6409TIP3    H219234   4.655   5.396   3.893
 6410TIP3   OH219235   0.752   1.543   0.588
 6410TIP3    H119236   0.721   1.471   0.642
 6410TIP3    H219237   0.700   1.537   0.507
 6411TIP3   OH219238   5.273   0.190   4.866
 6411TIP3    H119239   5.333   0.212   4.938
 6411TIP3    H219240   5.326   0.204   4.787
 6412TIP3   OH219241   0.231   4.142   4.289
 6412TIP3    H119242   0.151   4.105   4.327
 6412TIP3    H219243   0.261   4.076   4.227
 6413TIP3   OH219244   4.910   5.175   2.305
 6413TIP3    H119245   4.831   5.162   2.252
 6413TIP3    H219246   4.895   5.258   2.349
 6414TIP3   OH219247   4.179   3.168   2.877
 6414TIP3    H119248   4.217   3.253   2.894
 6414TIP3    H219249   4.118   3.153   2.949
 6415TIP3   OH219250   0.973   0.109   4.774
 6415TIP3    H119251   0.975   0.160   4.855
 6415TIP3    H219252   1.055   0.059   4.776
 6416TIP3   OH219253   0.850   1.791   0.351
 6416TIP3    H119254   0.802   1.724   0.303
 6416TIP3    H219255   0.891   1.744   0.424
 6417TIP3   OH219256   0.493   0.449   2.393
 6417TIP3    H119257   0.422   0.420   2.451
 6417TIP3    H219258   0.552   0.499   2.450
 6418TIP3   OH219259   0.947   1.989   3.955
 6418TIP3    H119260   0.981   1.939   3.881
 6418TIP3    H219261   0.898   2.061   3.915
 6419TIP3   OH219262   0.849   2.999   4.111
 6419TIP3    H119263   0.806   3.054   4.177
 6419TIP3    H219264   0.897   3.061   4.056
 6420TIP3   OH219265   5.693   2.726   4.209
 6420TIP3    H119266   5.656   2.638   4.201
 6420TIP3    H219267   5.757   2.731   4.138
 6421TIP3   OH219268   3.247   3.742   4.403
 6421TIP3    H119269   3.299   3.821   4.414
 6421TIP3    H219270   3.182   3.745   4.473
 6422TIP3   OH219271   0.253   3.837   3.736
 6422TIP3    H119272   0.209   3.883   3.664
 6422TIP3    H219273   0.346   3.852   3.721
 6423TIP3   OH219274   5.447   5.642   2.342
 6423TIP3    H119275   5.537   5.615   2.363
 6423TIP3    H219276   5.404   5.650   2.427
 6424TIP3   OH219277   0.921   3.795   1.452
 6424TIP3    H119278   0.892   3.886   1.439
 6424TIP3    H219279   0.856   3.742   1.407
 6425TIP3   OH219280   4.269   4.176   3.677
 6425TIP3    H119281   4.219   4.101   3.710
 6425TIP3    H219282   4.351   4.139   3.645
 6426TIP3   OH219283   0.599   5.422   2.609
 6426TIP3    H119284   0.684   5.461   2.587
 6426TIP3    H219285   0.551   5.422   2.527
 6427TIP3   OH219286   3.523   1.397   0.226
 6427TIP3    H119287   3.462   1.328   0.252
 6427TIP3    H219288   3.470   1.476   0.225
 6428TIP3   OH219289   0.451   5.055   4.402
 6428TIP3    H119290   0.544   5.075   4.414
 6428TIP3    H219291   0.422   5.116   4.335
 6429TIP3   OH219292   3.159   2.911   4.534
 6429TIP3    H119293   3.205   2.829   4.554
 6429TIP3    H219294   3.109   2.930   4.614
 6430TIP3   OH219295   2.582   2.083   4.720
 6430TIP3    H119296   2.610   2.151   4.658
 6430TIP3    H219297   2.657   2.071   4.778
 6431TIP3   OH219298   1.739   0.908   5.116
 6431TIP3    H119299   1.783   0.868   5.190
 6431TIP3    H219300   1.793   0.885   5.040
 6432TIP3   OH219301   3.248   0.937   0.045
 6432TIP3    H119302   3.163   0.933   0.090
 6432TIP3    H219303   3.240   0.871  -0.024
 6433TIP3   OH219304   5.099   3.962   2.753
 6433TIP3    H119305   5.070   3.945   2.843
 6433TIP3    H219306   5.163   4.032   2.761
 6434TIP3   OH219307   3.386   4.528   0.772
 6434TIP3    H119308   3.368   4.439   0.800
 6434TIP3    H219309   3.475   4.546   0.805
 6435TIP3   OH219310   2.309   5.403   1.994
 6435TIP3    H119311   2.385   5.458   1.972
 6435TIP3    H219312   2.314   5.330   1.933
 6436TIP3   OH219313   6.317   5.273   2.175
 6436TIP3    H119314   6.230   5.264   2.137
 6436TIP3    H219315   6.342   5.184   2.200
 6437TIP3   OH219316   3.957   0.240   0.542
 6437TIP3    H119317   3.915   0.267   0.460
 6437TIP3    H219318   3.903   0.169   0.575
 6438TIP3   OH219319   0.274   2.850   4.350
 6438TIP3    H119320   0.283   2.944   4.364
 6438TIP3    H219321   0.325   2.810   4.421
 6439TIP3   OH219322   4.230   5.688   4.627
 6439TIP3    H119323   4.206   5.640   4.706
 6439TIP3    H219324   4.186   5.641   4.556
 6440TIP3   OH219325   5.682   0.287   4.624
 6440TIP3    H119326   5.606   0.340   4.649
 6440TIP3    H219327   5.738   0.347   4.575
 6441TIP3   OH219328   2.991   5.235   2.011
 6441TIP3    H119329   2.994   5.250   1.917
 6441TIP3    H219330   3.060   5.171   2.028
 6442TIP3   OH219331   5.670   2.282   3.037
 6442TIP3    H119332   5.711   2.368   3.045
 6442TIP3    H219333   5.581   2.295   3.068
 6443TIP3   OH219334   0.665   2.242   4.480
 6443TIP3    H119335   0.748   2.213   4.517
 6443TIP3    H219336   0.598   2.197   4.532
 6444TIP3   OH219337   0.115   0.597   3.437
 6444TIP3    H119338   0.180   0.562   3.377
 6444TIP3    H219339   0.065   0.660   3.385
 6445TIP3   OH219340   5.700   5.007   4.576
 6445TIP3    H119341   5.775   5.058   4.606
 6445TIP3    H219342   5.625   5.065   4.589
 6446TIP3   OH219343   6.164   1.109   0.122
 6446TIP3    H119344   6.089   1.148   0.078
 6446TIP3    H219345   6.195   1.041   0.062
 6447TIP3   OH219346   1.031   2.794   3.852
 6447TIP3    H119347   0.953   2.843   3.826
 6447TIP3    H219348   1.000   2.734   3.919
 6448TIP3   OH219349   5.060   1.544   3.813
 6448TIP3    H119350   5.004   1.618   3.836
 6448TIP3    H219351   5.054   1.485   3.888
 6449TIP3   OH219352   2.650   5.218   1.709
 6449TIP3    H119353   2.678   5.186   1.623
 6449TIP3    H219354   2.642   5.140   1.763
 6450TIP3   OH219355   5.429   5.058   4.909
 6450TIP3    H119356   5.453   5.104   4.828
 6450TIP3    H219357   5.420   5.128   4.974
 6451TIP3   OH219358   6.019   5.968   0.696
 6451TIP3    H119359   5.942   5.976   0.752
 6451TIP3    H219360   5.996   5.900   0.632
 6452TIP3   OH219361   4.628   2.094   2.618
 6452TIP3    H119362   4.623   2.021   2.557
 6452TIP3    H219363   4.548   2.144   2.602
 6453TIP3   OH219364   6.387   5.479   0.794
 6453TIP3    H119365   6.311   5.532   0.818
 6453TIP3    H219366   6.445   5.540   0.748
 6454TIP3   OH219367   4.436   5.665   3.674
 6454TIP3    H119368   4.434   5.640   3.766
 6454TIP3    H219369   4.447   5.760   3.675
 6455TIP3   OH219370   5.504   3.207   1.947
 6455TIP3    H119371   5.466   3.161   2.022
 6455TIP3    H219372   5.534   3.137   1.889
 6456TIP3   OH219373   4.034   4.191   2.298
 6456TIP3    H119374   3.990   4.263   2.344
 6456TIP3    H219375   3.972   4.164   2.230
 6457TIP3   OH219376   5.277   3.887   2.322
 6457TIP3    H119377   5.344   3.928   2.268
 6457TIP3    H219378   5.217   3.958   2.344
 6458TIP3   OH219379   4.947   5.009   0.970
 6458TIP3    H119380   4.900   5.092   0.957
 6458TIP3    H219381   5.026   5.034   1.017
 6459TIP3   OH219382   3.987   1.405   0.554
 6459TIP3    H119383   4.031   1.337   0.504
 6459TIP3    H219384   3.955   1.466   0.489
 6460TIP3   OH219385   1.855   4.859   4.320
 6460TIP3    H119386   1.764   4.873   4.345
 6460TIP3    H219387   1.875   4.770   4.350
 6461TIP3   OH219388   2.636   1.871   2.645
 6461TIP3    H119389   2.573   1.933   2.609
 6461TIP3    H219390   2.666   1.820   2.570
 6462TIP3   OH219391   3.518   4.217   0.840
 6462TIP3    H119392   3.489   4.191   0.928
 6462TIP3    H219393   3.607   4.249   0.853
 6463TIP3   OH219394   4.466   5.846   0.479
 6463TIP3    H119395   4.470   5.752   0.498
 6463TIP3    H219396   4.557   5.874   0.474
 6464TIP3   OH219397   5.368   1.659   3.422
 6464TIP3    H119398   5.391   1.725   3.487
 6464TIP3    H219399   5.330   1.588   3.473
 6465TIP3   OH219400   6.253   4.298   4.588
 6465TIP3    H119401   6.222   4.280   4.677
 6465TIP3    H219402   6.209   4.233   4.534
 6466TIP3   OH219403   5.577   0.533   1.584
 6466TIP3    H119404   5.484   0.550   1.598
 6466TIP3    H219405   5.588   0.440   1.602
 6467TIP3   OH219406   2.139   5.402   4.102
 6467TIP3    H119407   2.145   5.320   4.152
 6467TIP3    H219408   2.229   5.421   4.076
 6468TIP3   OH219409   4.462   2.702   4.362
 6468TIP3    H119410   4.490   2.666   4.446
 6468TIP3    H219411   4.469   2.797   4.373
 6469TIP3   OH219412   0.684   0.043   4.731
 6469TIP3    H119413   0.778   0.050   4.721
 6469TIP3    H219414   0.664  -0.048   4.709
 6470TIP3   OH219415   2.494   4.631   1.206
 6470TIP3    H119416   2.483   4.718   1.167
 6470TIP3    H219417   2.451   4.638   1.291
 6471TIP3   OH219418   5.509   5.458   0.516
 6471TIP3    H119419   5.503   5.362   0.511
 6471TIP3    H219420   5.572   5.481   0.447
 6472TIP3   OH219421   2.863   2.249   2.952
 6472TIP3    H119422   2.879   2.181   2.887
 6472TIP3    H219423   2.836   2.325   2.901
 6473TIP3   OH219424   3.125   4.154   3.582
 6473TIP3    H119425   3.109   4.237   3.537
 6473TIP3    H219426   3.146   4.093   3.511
 6474TIP3   OH219427   5.172   0.028   1.508
 6474TIP3    H119428   5.223  -0.035   1.559
 6474TIP3    H219429   5.223   0.040   1.428
 6475TIP3   OH219430   4.765   4.436   1.099
 6475TIP3    H119431   4.782   4.430   1.193
 6475TIP3    H219432   4.801   4.354   1.063
 6476TIP3   OH219433   3.835   1.928   4.374
 6476TIP3    H119434   3.779   1.994   4.332
 6476TIP3    H219435   3.921   1.942   4.333
 6477TIP3   OH219436   1.800   3.859   0.124
 6477TIP3    H119437   1.848   3.807   0.060
 6477TIP3    H219438   1.864   3.879   0.193
 6478TIP3   OH219439   4.154   1.848   1.785
 6478TIP3    H119440   4.186   1.814   1.702
 6478TIP3    H219441   4.184   1.939   1.787
 6479TIP3   OH219442   3.138   5.454   1.591
 6479TIP3    H119443   3.066   5.506   1.626
 6479TIP3    H219444   3.187   5.426   1.668
 6480TIP3   OH219445   1.334   5.291   3.368
 6480TIP3    H119446   1.354   5.354   3.299
 6480TIP3    H219447   1.370   5.329   3.448
 6481TIP3   OH219448   2.305   0.666   2.480
 6481TIP3    H119449   2.216   0.631   2.476
 6481TIP3    H219450   2.297   0.744   2.536
 6482TIP3   OH219451   2.994   1.038   1.112
 6482TIP3    H119452   2.941   1.003   1.041
 6482TIP3    H219453   3.083   1.012   1.091
 6483TIP3   OH219454   3.159   2.064   2.771
 6483TIP3    H119455   3.163   2.145   2.720
 6483TIP3    H219456   3.178   1.994   2.709
 6484TIP3   OH219457   3.926   4.324   0.664
 6484TIP3    H119458   3.884   4.342   0.580
 6484TIP3    H219459   4.016   4.301   0.641
 6485TIP3   OH219460   3.419   5.851   0.772
 6485TIP3    H119461   3.442   5.759   0.783
 6485TIP3    H219462   3.441   5.870   0.681
 6486TIP3   OH219463   1.659   0.035   4.530
 6486TIP3    H119464   1.750   0.062   4.526
 6486TIP3    H219465   1.638   0.035   4.624
 6487TIP3   OH219466   2.508   4.319   2.421
 6487TIP3    H119467   2.573   4.372   2.466
 6487TIP3    H219468   2.558   4.246   2.384
 6488TIP3   OH219469   2.001   0.624   5.149
 6488TIP3    H119470   2.026   0.705   5.104
 6488TIP3    H219471   2.027   0.554   5.089
 6489TIP3   OH219472   0.223   5.323   1.258
 6489TIP3    H119473   0.177   5.298   1.178
 6489TIP3    H219474   0.175   5.399   1.290
 6490TIP3   OH219475   2.858   5.619   4.817
 6490TIP3    H119476   2.838   5.653   4.730
 6490TIP3    H219477   2.892   5.531   4.801
 6491TIP3   OH219478   4.111   2.235   1.132
 6491TIP3    H119479   4.061   2.270   1.206
 6491TIP3    H219480   4.045   2.198   1.074
 6492TIP3   OH219481   3.234   0.517   4.713
 6492TIP3    H119482   3.225   0.422   4.704
 6492TIP3    H219483   3.275   0.529   4.798
 6493TIP3   OH219484   5.534   1.860   2.016
 6493TIP3    H119485   5.539   1.875   1.922
 6493TIP3    H219486   5.578   1.935   2.055
 6494TIP3   OH219487   1.669   5.863   1.365
 6494TIP3    H119488   1.710   5.812   1.436
 6494TIP3    H219489   1.604   5.918   1.409
 6495TIP3   OH219490   0.644   0.166   0.343
 6495TIP3    H119491   0.616   0.169   0.252
 6495TIP3    H219492   0.739   0.150   0.338
 6496TIP3   OH219493   3.256   5.104   0.676
 6496TIP3    H119494   3.279   5.107   0.583
 6496TIP3    H219495   3.161   5.098   0.677
 6497TIP3   OH219496   3.903   3.640   2.501
 6497TIP3    H119497   3.943   3.716   2.543
 6497TIP3    H219498   3.858   3.594   2.571
 6498TIP3   OH219499   2.354   3.306   4.240
 6498TIP3    H119500   2.375   3.242   4.308
 6498TIP3    H219501   2.397   3.387   4.269
 6499TIP3   OH219502   4.498   4.437   4.333
 6499TIP3    H119503   4.424   4.494   4.352
 6499TIP3    H219504   4.537   4.473   4.253
 6500TIP3   OH219505   5.842   2.434   3.972
 6500TIP3    H119506   5.756   2.471   3.955
 6500TIP3    H219507   5.882   2.427   3.885
 6501TIP3   OH219508   2.895   0.285   3.600
 6501TIP3    H119509   2.921   0.372   3.571
 6501TIP3    H219510   2.811   0.269   3.557
 6502TIP3   OH219511   0.931   2.654   2.350
 6502TIP3    H119512   0.863   2.721   2.341
 6502TIP3    H219513   0.890   2.584   2.400
 6503TIP3   OH219514   2.227   0.382   3.229
 6503TIP3    H119515   2.321   0.392   3.247
 6503TIP3    H219516   2.212   0.436   3.152
 6504TIP3   OH219517   3.487   3.300   3.995
 6504TIP3    H119518   3.563   3.266   3.948
 6504TIP3    H219519   3.446   3.222   4.032
 6505TIP3   OH219520   4.513   1.483   5.177
 6505TIP3    H119521   4.437   1.459   5.124
 6505TIP3    H219522   4.576   1.412   5.161
 6506TIP3   OH219523   6.146   4.601   0.680
 6506TIP3    H119524   6.193   4.525   0.644
 6506TIP3    H219525   6.063   4.565   0.711
 6507TIP3   OH219526   0.550   5.638   3.151
 6507TIP3    H119527   0.594   5.674   3.074
 6507TIP3    H219528   0.461   5.672   3.147
 6508TIP3   OH219529   4.991   0.723   0.636
 6508TIP3    H119530   5.077   0.681   0.639
 6508TIP3    H219531   4.956   0.698   0.550
 6509TIP3   OH219532   5.754   1.334   0.079
 6509TIP3    H119533   5.786   1.421   0.103
 6509TIP3    H219534   5.700   1.349   0.002
 6510TIP3   OH219535   2.677   4.701   0.646
 6510TIP3    H119536   2.648   4.706   0.737
 6510TIP3    H219537   2.682   4.607   0.627
 6511TIP3   OH219538   4.533   1.671   3.382
 6511TIP3    H119539   4.592   1.673   3.306
 6511TIP3    H219540   4.528   1.762   3.410
 6512TIP3   OH219541   3.428   4.326   3.585
 6512TIP3    H119542   3.333   4.313   3.593
 6512TIP3    H219543   3.440   4.366   3.499
 6513TIP3   OH219544   1.128   4.150   1.439
 6513TIP3    H119545   1.089   4.076   1.392
 6513TIP3    H219546   1.222   4.135   1.435
 6514TIP3   OH219547   2.281   4.155   0.910
 6514TIP3    H119548   2.254   4.213   0.981
 6514TIP3    H219549   2.266   4.067   0.945
 6515TIP3   OH219550   0.495   0.229   3.984
 6515TIP3    H119551   0.548   0.201   4.059
 6515TIP3    H219552   0.406   0.236   4.019
 6516TIP3   OH219553   5.578   2.536   2.862
 6516TIP3    H119554   5.542   2.582   2.786
 6516TIP3    H219555   5.553   2.445   2.848
 6517TIP3   OH219556   1.862   5.390   0.738
 6517TIP3    H119557   1.822   5.345   0.663
 6517TIP3    H219558   1.797   5.382   0.808
 6518TIP3   OH219559   1.851   5.611   3.269
 6518TIP3    H119560   1.761   5.641   3.255
 6518TIP3    H219561   1.841   5.531   3.320
 6519TIP3   OH219562   3.778   2.511   1.556
 6519TIP3    H119563   3.725   2.590   1.560
 6519TIP3    H219564   3.768   2.479   1.466
 6520TIP3   OH219565   3.907   0.962   2.380
 6520TIP3    H119566   3.958   0.890   2.416
 6520TIP3    H219567   3.846   0.920   2.318
 6521TIP3   OH219568   1.272   2.954   1.294
 6521TIP3    H119569   1.342   2.895   1.323
 6521TIP3    H219570   1.192   2.904   1.306
 6522TIP3   OH219571   5.176   3.160   0.816
 6522TIP3    H119572   5.185   3.071   0.781
 6522TIP3    H219573   5.183   3.150   0.911
 6523TIP3   OH219574   1.952   0.651   1.362
 6523TIP3    H119575   1.985   0.575   1.410
 6523TIP3    H219576   1.857   0.639   1.361
 6524TIP3   OH219577   3.280   5.048   5.127
 6524TIP3    H119578   3.257   5.075   5.038
 6524TIP3    H219579   3.259   5.124   5.181
 6525TIP3   OH219580   4.620   2.712   3.003
 6525TIP3    H119581   4.695   2.707   3.063
 6525TIP3    H219582   4.577   2.627   3.011
 6526TIP3   OH219583   1.485   4.771   4.645
 6526TIP3    H119584   1.401   4.726   4.658
 6526TIP3    H219585   1.548   4.701   4.632
 6527TIP3   OH219586   2.436   2.247   2.317
 6527TIP3    H119587   2.406   2.231   2.227
 6527TIP3    H219588   2.449   2.342   2.321
 6528TIP3   OH219589   5.929   5.606   2.489
 6528TIP3    H119590   5.968   5.537   2.436
 6528TIP3    H219591   5.976   5.603   2.573
 6529TIP3   OH219592   1.675   3.889   5.050
 6529TIP3    H119593   1.701   3.979   5.073
 6529TIP3    H219594   1.615   3.900   4.977
 6530TIP3   OH219595   6.117   5.009   2.871
 6530TIP3    H119596   6.160   5.057   2.800
 6530TIP3    H219597   6.166   4.927   2.878
 6531TIP3   OH219598   1.899   1.576   3.076
 6531TIP3    H119599   1.806   1.571   3.099
 6531TIP3    H219600   1.909   1.514   3.004
 6532TIP3   OH219601   2.148   4.877   4.281
 6532TIP3    H119602   2.172   4.792   4.243
 6532TIP3    H219603   2.056   4.866   4.308
 6533TIP3   OH219604   2.629   0.333   0.820
 6533TIP3    H119605   2.606   0.264   0.882
 6533TIP3    H219606   2.599   0.300   0.735
 6534TIP3   OH219607   1.665   5.472   1.511
 6534TIP3    H119608   1.640   5.561   1.535
 6534TIP3    H219609   1.606   5.416   1.561
 6535TIP3   OH219610   0.108   1.056   1.835
 6535TIP3    H119611   0.026   1.097   1.810
 6535TIP3    H219612   0.108   1.059   1.931
 6536TIP3   OH219613   5.622   5.032   2.915
 6536TIP3    H119614   5.633   5.078   2.998
 6536TIP3    H219615   5.705   4.985   2.903
 6537TIP3   OH219616   1.748   1.832   2.944
 6537TIP3    H119617   1.675   1.893   2.951
 6537TIP3    H219618   1.722   1.758   2.999
 6538TIP3   OH219619   3.201   5.349   3.478
 6538TIP3    H119620   3.164   5.398   3.405
 6538TIP3    H219621   3.247   5.276   3.437
 6539TIP3   OH219622   0.533   4.509   2.566
 6539TIP3    H119623   0.462   4.447   2.548
 6539TIP3    H219624   0.610   4.454   2.581
 6540TIP3   OH219625   4.421   4.727   0.209
 6540TIP3    H119626   4.454   4.749   0.122
 6540TIP3    H219627   4.350   4.665   0.194
 6541TIP3   OH219628   2.129   1.388   0.615
 6541TIP3    H119629   2.098   1.429   0.534
 6541TIP3    H219630   2.196   1.447   0.648
 6542TIP3   OH219631   3.592   1.206   4.550
 6542TIP3    H119632   3.613   1.123   4.508
 6542TIP3    H219633   3.598   1.271   4.479
 6543TIP3   OH219634   3.381   1.491   0.573
 6543TIP3    H119635   3.309   1.491   0.509
 6543TIP3    H219636   3.373   1.575   0.618
 6544TIP3   OH219637   0.188   0.542   3.689
 6544TIP3    H119638   0.280   0.533   3.665
 6544TIP3    H219639   0.142   0.553   3.605
 6545TIP3   OH219640   4.253   1.847   0.965
 6545TIP3    H119641   4.276   1.834   0.873
 6545TIP3    H219642   4.165   1.810   0.973
 6546TIP3   OH219643   0.248   2.497   5.084
 6546TIP3    H119644   0.194   2.443   5.142
 6546TIP3    H219645   0.205   2.583   5.084
 6547TIP3   OH219646   3.794   4.134   3.760
 6547TIP3    H119647   3.807   4.103   3.849
 6547TIP3    H219648   3.759   4.058   3.713
 6548TIP3   OH219649   5.590   5.692   2.802
 6548TIP3    H119650   5.625   5.760   2.744
 6548TIP3    H219651   5.658   5.624   2.804
 6549TIP3   OH219652   1.177   0.523   1.874
 6549TIP3    H119653   1.141   0.596   1.925
 6549TIP3    H219654   1.157   0.546   1.783
 6550TIP3   OH219655  -0.010   0.197   3.560
 6550TIP3    H119656   0.043   0.241   3.494
 6550TIP3    H219657  -0.100   0.220   3.537
 6551TIP3   OH219658   3.886   2.484   0.087
 6551TIP3    H119659   3.872   2.433   0.167
 6551TIP3    H219660   3.863   2.424   0.016
 6552TIP3   OH219661   1.043   0.216   3.345
 6552TIP3    H119662   1.090   0.239   3.265
 6552TIP3    H219663   0.951   0.229   3.323
 6553TIP3   OH219664   3.162   3.087   0.590
 6553TIP3    H119665   3.201   3.020   0.645
 6553TIP3    H219666   3.166   3.050   0.502
 6554TIP3   OH219667   4.960   2.192   3.740
 6554TIP3    H119668   4.909   2.162   3.665
 6554TIP3    H219669   5.042   2.142   3.735
 6555TIP3   OH219670   1.983   0.427   0.678
 6555TIP3    H119671   2.007   0.335   0.668
 6555TIP3    H219672   1.888   0.428   0.675
 6556TIP3   OH219673   1.286   4.871   3.114
 6556TIP3    H119674   1.205   4.839   3.153
 6556TIP3    H219675   1.260   4.896   3.024
 6557TIP3   OH219676   4.830   1.911   1.605
 6557TIP3    H119677   4.891   1.926   1.533
 6557TIP3    H219678   4.845   1.984   1.665
 6558TIP3   OH219679   0.139   3.531   4.440
 6558TIP3    H119680   0.109   3.602   4.496
 6558TIP3    H219681   0.196   3.574   4.376
 6559TIP3   OH219682   6.043   5.929   4.949
 6559TIP3    H119683   6.133   5.960   4.945
 6559TIP3    H219684   6.047   5.847   4.997
 6560TIP3   OH219685   5.918   0.349   2.308
 6560TIP3    H119686   5.997   0.396   2.336
 6560TIP3    H219687   5.880   0.404   2.239
 6561TIP3   OH219688   4.246   5.926   3.593
 6561TIP3    H119689   4.309   5.912   3.664
 6561TIP3    H219690   4.264   6.015   3.563
 6562TIP3   OH219691   4.303   1.235   1.009
 6562TIP3    H119692   4.293   1.174   1.082
 6562TIP3    H219693   4.243   1.307   1.029
 6563TIP3   OH219694   6.267   1.526   4.572
 6563TIP3    H119695   6.242   1.440   4.606
 6563TIP3    H219696   6.347   1.510   4.522
 6564TIP3   OH219697   0.430   1.606   0.589
 6564TIP3    H119698   0.380   1.686   0.573
 6564TIP3    H219699   0.512   1.619   0.541
 6565TIP3   OH219700   5.327   3.481   3.236
 6565TIP3    H119701   5.296   3.569   3.217
 6565TIP3    H219702   5.355   3.484   3.328
 6566TIP3   OH219703   5.858   0.626   0.298
 6566TIP3    H119704   5.928   0.562   0.305
 6566TIP3    H219705   5.840   0.653   0.388
 6567TIP3   OH219706   0.570   0.658   3.964
 6567TIP3    H119707   0.602   0.616   4.044
 6567TIP3    H219708   0.607   0.606   3.893
 6568TIP3   OH219709   4.887   2.651   4.656
 6568TIP3    H119710   4.866   2.694   4.573
 6568TIP3    H219711   4.836   2.700   4.721
 6569TIP3   OH219712   5.348   4.641   3.673
 6569TIP3    H119713   5.334   4.667   3.764
 6569TIP3    H219714   5.423   4.694   3.645
 6570TIP3   OH219715   2.850   4.945  -0.019
 6570TIP3    H119716   2.825   4.873   0.040
 6570TIP3    H219717   2.946   4.942  -0.020
 6571TIP3   OH219718   3.919   1.301   3.684
 6571TIP3    H119719   3.976   1.246   3.630
 6571TIP3    H219720   3.901   1.247   3.761
 6572TIP3   OH219721   2.876   1.565   2.723
 6572TIP3    H119722   2.845   1.616   2.649
 6572TIP3    H219723   2.947   1.616   2.760
 6573TIP3   OH219724   0.695   3.828   0.999
 6573TIP3    H119725   0.625   3.798   1.056
 6573TIP3    H219726   0.660   3.819   0.911
 6574TIP3   OH219727   3.571   4.334   1.589
 6574TIP3    H119728   3.580   4.240   1.606
 6574TIP3    H219729   3.487   4.357   1.628
 6575TIP3   OH219730   3.945   4.517   4.381
 6575TIP3    H119731   3.964   4.465   4.303
 6575TIP3    H219732   3.853   4.544   4.370
 6576TIP3   OH219733   5.986   4.516   0.344
 6576TIP3    H119734   6.055   4.494   0.407
 6576TIP3    H219735   5.908   4.474   0.380
 6577TIP3   OH219736   2.673   5.387   0.052
 6577TIP3    H119737   2.642   5.396  -0.039
 6577TIP3    H219738   2.736   5.316   0.049
 6578TIP3   OH219739   3.420   0.237   2.841
 6578TIP3    H119740   3.344   0.201   2.885
 6578TIP3    H219741   3.396   0.236   2.748
 6579TIP3   OH219742   1.990   3.574   0.781
 6579TIP3    H119743   2.053   3.557   0.852
 6579TIP3    H219744   2.041   3.563   0.701
 6580TIP3   OH219745   1.354   1.422   4.994
 6580TIP3    H119746   1.381   1.490   4.931
 6580TIP3    H219747   1.426   1.417   5.057
 6581TIP3   OH219748   5.279   2.276   4.807
 6581TIP3    H119749   5.234   2.301   4.888
 6581TIP3    H219750   5.276   2.354   4.753
 6582TIP3   OH219751   4.139   1.969   4.015
 6582TIP3    H119752   4.192   2.022   3.956
 6582TIP3    H219753   4.051   2.005   4.009
 6583TIP3   OH219754   0.401   3.284   4.127
 6583TIP3    H119755   0.311   3.251   4.122
 6583TIP3    H219756   0.455   3.207   4.107
 6584TIP3   OH219757   4.726   1.268   4.901
 6584TIP3    H119758   4.700   1.347   4.853
 6584TIP3    H219759   4.785   1.222   4.841
 6585TIP3   OH219760   4.447   4.644   1.816
 6585TIP3    H119761   4.365   4.601   1.791
 6585TIP3    H219762   4.514   4.600   1.764
 6586TIP3   OH219763   0.333   5.562   1.504
 6586TIP3    H119764   0.394   5.488   1.502
 6586TIP3    H219765   0.351   5.606   1.587
 6587TIP3   OH219766   0.036   4.085   0.048
 6587TIP3    H119767  -0.056   4.101   0.024
 6587TIP3    H219768   0.032   4.020   0.117
 6588TIP3   OH219769   5.782   0.155   0.760
 6588TIP3    H119770   5.798   0.186   0.671
 6588TIP3    H219771   5.696   0.192   0.783
 6589TIP3   OH219772   3.013   4.175   1.274
 6589TIP3    H119773   3.092   4.227   1.292
 6589TIP3    H219774   2.943   4.224   1.317
 6590TIP3   OH219775   3.905   4.558   3.160
 6590TIP3    H119776   3.965   4.541   3.233
 6590TIP3    H219777   3.941   4.636   3.117
 6591TIP3   OH219778   2.175   1.916   0.699
 6591TIP3    H119779   2.223   1.980   0.646
 6591TIP3    H219780   2.100   1.965   0.734
 6592TIP3   OH219781   2.789   2.258   3.850
 6592TIP3    H119782   2.798   2.187   3.786
 6592TIP3    H219783   2.879   2.283   3.870
 6593TIP3   OH219784   2.513   2.448   3.550
 6593TIP3    H119785   2.461   2.371   3.573
 6593TIP3    H219786   2.546   2.480   3.634
 6594TIP3   OH219787   2.988   1.820   2.347
 6594TIP3    H119788   2.892   1.817   2.345
 6594TIP3    H219789   3.010   1.896   2.293
 6595TIP3   OH219790   1.700   1.698   4.206
 6595TIP3    H119791   1.750   1.645   4.268
 6595TIP3    H219792   1.749   1.781   4.201
 6596TIP3   OH219793   5.686   5.955   1.200
 6596TIP3    H119794   5.690   5.861   1.183
 6596TIP3    H219795   5.740   5.969   1.278
 6597TIP3   OH219796   6.253   5.350   2.450
 6597TIP3    H119797   6.165   5.370   2.420
 6597TIP3    H219798   6.293   5.300   2.379
 6598TIP3   OH219799   1.888   5.627   5.070
 6598TIP3    H119800   1.821   5.683   5.109
 6598TIP3    H219801   1.868   5.626   4.977
 6599TIP3   OH219802   2.200   5.185   1.297
 6599TIP3    H119803   2.183   5.252   1.363
 6599TIP3    H219804   2.212   5.104   1.347
 6600TIP3   OH219805   1.889   1.626   1.663
 6600TIP3    H119806   1.815   1.686   1.655
 6600TIP3    H219807   1.939   1.660   1.738
 6601TIP3   OH219808   4.821   2.377   4.702
 6601TIP3    H119809   4.823   2.470   4.682
 6601TIP3    H219810   4.828   2.334   4.616
 6602TIP3   OH219811   2.761   4.687   1.491
 6602TIP3    H119812   2.785   4.776   1.517
 6602TIP3    H219813   2.756   4.639   1.574
 6603TIP3   OH219814   3.594   4.503   5.162
 6603TIP3    H119815   3.603   4.435   5.229
 6603TIP3    H219816   3.661   4.480   5.097
 6604TIP3   OH219817   1.398   5.886   3.758
 6604TIP3    H119818   1.453   5.944   3.707
 6604TIP3    H219819   1.318   5.937   3.775
 6605TIP3   OH219820   0.114   0.990   3.698
 6605TIP3    H119821   0.176   0.993   3.771
 6605TIP3    H219822   0.166   1.012   3.621
 6606TIP3   OH219823   1.251   1.950   2.365
 6606TIP3    H119824   1.273   1.969   2.456
 6606TIP3    H219825   1.269   1.857   2.354
 6607TIP3   OH219826   0.914   0.548   0.334
 6607TIP3    H119827   0.821   0.525   0.338
 6607TIP3    H219828   0.935   0.545   0.241
 6608TIP3   OH219829   2.604   5.191   2.509
 6608TIP3    H119830   2.578   5.274   2.469
 6608TIP3    H219831   2.638   5.139   2.436
 6609TIP3   OH219832   2.818   2.780   2.922
 6609TIP3    H119833   2.789   2.693   2.894
 6609TIP3    H219834   2.742   2.837   2.904
 6610TIP3   OH219835   5.695   2.563   4.914
 6610TIP3    H119836   5.723   2.471   4.912
 6610TIP3    H219837   5.728   2.599   4.832
 6611TIP3   OH219838   4.168   0.411   4.105
 6611TIP3    H119839   4.076   0.430   4.123
 6611TIP3    H219840   4.166   0.333   4.049
 6612TIP3   OH219841   5.038   5.771   4.624
 6612TIP3    H119842   5.129   5.790   4.646
 6612TIP3    H219843   5.038   5.681   4.592
 6613TIP3   OH219844   6.035   3.440   3.035
 6613TIP3    H119845   6.015   3.356   2.993
 6613TIP3    H219846   5.955   3.462   3.083
 6614TIP3   OH219847   1.108   2.417   1.383
 6614TIP3    H119848   1.188   2.438   1.335
 6614TIP3    H219849   1.039   2.465   1.338
 6615TIP3   OH219850   0.056   3.110   3.891
 6615TIP3    H119851  -0.001   3.035   3.878
 6615TIP3    H219852   0.035   3.169   3.819
 6616TIP3   OH219853   4.715   1.934   4.276
 6616TIP3    H119854   4.646   1.948   4.211
 6616TIP3    H219855   4.780   2.001   4.257
 6617TIP3   OH219856   1.518   1.185   1.990
 6617TIP3    H119857   1.521   1.116   2.057
 6617TIP3    H219858   1.426   1.192   1.967
 6618TIP3   OH219859   0.833   1.278   4.845
 6618TIP3    H119860   0.914   1.250   4.887
 6618TIP3    H219861   0.771   1.207   4.864
 6619TIP3   OH219862   0.360   5.248   1.848
 6619TIP3    H119863   0.395   5.192   1.778
 6619TIP3    H219864   0.410   5.329   1.842
 6620TIP3   OH219865   0.177   5.361   3.488
 6620TIP3    H119866   0.211   5.273   3.473
 6620TIP3    H219867   0.082   5.350   3.488
 6621TIP3   OH219868   3.388   4.297   2.035
 6621TIP3    H119869   3.479   4.278   2.057
 6621TIP3    H219870   3.373   4.247   1.954
 6622TIP3   OH219871   2.225   3.758   2.236
 6622TIP3    H119872   2.279   3.679   2.237
 6622TIP3    H219873   2.230   3.792   2.325
 6623TIP3   OH219874   0.236   5.265   3.818
 6623TIP3    H119875   0.246   5.357   3.840
 6623TIP3    H219876   0.161   5.262   3.758
 6624TIP3   OH219877   0.354   0.574   4.138
 6624TIP3    H119878   0.364   0.620   4.055
 6624TIP3    H219879   0.313   0.490   4.114
 6625TIP3   OH219880   3.378   0.554   1.894
 6625TIP3    H119881   3.396   0.466   1.929
 6625TIP3    H219882   3.295   0.544   1.847
 6626TIP3   OH219883   4.578   2.085   4.938
 6626TIP3    H119884   4.648   2.148   4.921
 6626TIP3    H219885   4.557   2.097   5.030
 6627TIP3   OH219886   0.053   2.914   0.399
 6627TIP3    H119887  -0.016   2.881   0.341
 6627TIP3    H219888   0.086   2.837   0.444
 6628TIP3   OH219889   5.567   2.673   2.623
 6628TIP3    H119890   5.484   2.719   2.611
 6628TIP3    H219891   5.569   2.608   2.553
 6629TIP3   OH219892   2.398   0.499   3.594
 6629TIP3    H119893   2.364   0.474   3.508
 6629TIP3    H219894   2.436   0.586   3.580
 6630TIP3   OH219895   3.039   4.006   1.643
 6630TIP3    H119896   3.016   4.004   1.736
 6630TIP3    H219897   2.989   3.934   1.605
 6631TIP3   OH219898   0.669   1.126   4.604
 6631TIP3    H119899   0.715   1.043   4.590
 6631TIP3    H219900   0.687   1.147   4.696
 6632TIP3   OH219901   1.807   5.583   1.897
 6632TIP3    H119902   1.896   5.599   1.927
 6632TIP3    H219903   1.751   5.632   1.958
 6633TIP3   OH219904   1.667   5.090   0.557
 6633TIP3    H119905   1.626   5.168   0.518
 6633TIP3    H219906   1.638   5.018   0.501
 6634TIP3   OH219907   0.691   0.160   1.873
 6634TIP3    H119908   0.663   0.088   1.930
 6634TIP3    H219909   0.679   0.126   1.784
 6635TIP3   OH219910   0.514   0.732   4.463
 6635TIP3    H119911   0.605   0.746   4.487
 6635TIP3    H219912   0.507   0.638   4.445
 6636TIP3   OH219913   4.596   3.926   2.800
 6636TIP3    H119914   4.547   3.844   2.793
 6636TIP3    H219915   4.528   3.994   2.796
 6637TIP3   OH219916   4.060   1.828   2.302
 6637TIP3    H119917   4.116   1.881   2.359
 6637TIP3    H219918   4.104   1.828   2.218
 6638TIP3   OH219919   3.373   5.251   4.905
 6638TIP3    H119920   3.372   5.263   4.810
 6638TIP3    H219921   3.459   5.282   4.933
 6639TIP3   OH219922   1.004   0.506   0.859
 6639TIP3    H119923   0.956   0.588   0.860
 6639TIP3    H219924   0.936   0.439   0.865
 6640TIP3   OH219925   4.613   1.733   1.623
 6640TIP3    H119926   4.690   1.787   1.642
 6640TIP3    H219927   4.609   1.671   1.696
 6641TIP3   OH219928   5.324   2.134   1.502
 6641TIP3    H119929   5.392   2.198   1.481
 6641TIP3    H219930   5.355   2.091   1.582
 6642TIP3   OH219931   1.230   4.639   4.710
 6642TIP3    H119932   1.209   4.586   4.786
 6642TIP3    H219933   1.188   4.593   4.637
 6643TIP3   OH219934   2.984   0.684   2.547
 6643TIP3    H119935   2.964   0.613   2.485
 6643TIP3    H219936   2.915   0.749   2.531
 6644TIP3   OH219937   5.990   0.624   4.212
 6644TIP3    H119938   6.056   0.557   4.196
 6644TIP3    H219939   5.911   0.591   4.169
 6645TIP3   OH219940   1.678   1.967   4.415
 6645TIP3    H119941   1.688   1.932   4.503
 6645TIP3    H219942   1.696   2.060   4.423
   6.35757   5.99397   5.19093   0.00000   0.00000  -2.11920   0.00000  -2.11920  -2.99698
