Title
29212
    1ASP      N    1   3.964   4.499   4.617  0.2354 -0.6421 -0.4252
    1ASP    HT1    2   4.007   4.547   4.536 -1.7111 -0.2421 -1.2892
    1ASP    HT2    3   4.041   4.467   4.679  0.4010  0.4716 -0.0492
    1ASP    HT3    4   3.909   4.577   4.658  2.3583  1.8964 -2.0709
    1ASP     CA    5   3.886   4.389   4.557 -0.0122 -0.4323 -0.2297
    1ASP     HA    6   3.809   4.432   4.494 -0.4114  1.6022  1.5201
    1ASP     CB    7   3.986   4.291   4.479  0.1678 -0.4668 -0.7288
    1ASP    HB1    8   4.055   4.239   4.549  0.6735  0.6685 -0.3679
    1ASP    HB2    9   4.043   4.364   4.419  0.9252  0.1872  0.7467
    1ASP     CG   10   3.919   4.187   4.388 -0.3056 -0.7137 -0.2815
    1ASP    OD1   11   3.996   4.091   4.349 -0.2886 -0.3580 -0.7192
    1ASP    OD2   12   3.793   4.193   4.363  0.0574 -0.3734  0.0637
    1ASP      C   13   3.804   4.314   4.661  0.2518 -0.3241 -0.2415
    1ASP      O   14   3.826   4.336   4.781 -0.1662 -0.1022  0.3932
    2GLY      N   15   3.721   4.222   4.626  0.0254  0.4078 -0.7000
    2GLY     HN   16   3.711   4.212   4.527  0.1674 -1.0149 -0.5962
    2GLY     CA   17   3.653   4.134   4.713 -0.1691  0.2698 -0.0308
    2GLY    HA1   18   3.570   4.091   4.660 -0.1163 -0.5235  0.5144
    2GLY    HA2   19   3.608   4.182   4.799  0.6529  0.4921  0.2886
    2GLY      C   20   3.733   4.019   4.767 -0.0550 -0.3461 -0.0768
    2GLY      O   21   3.851   3.988   4.741  0.0483 -0.4256  0.3879
    3ASP      N   22   3.664   3.953   4.864 -0.1136 -0.5481 -0.0462
    3ASP     HN   23   3.569   3.983   4.874  0.0395  0.3189 -1.0361
    3ASP     CA   24   3.707   3.838   4.935 -0.8579 -0.1833 -0.2050
    3ASP     HA   25   3.778   3.876   5.007 -1.0788 -0.6507  0.2592
    3ASP     CB   26   3.596   3.786   5.036  0.2789 -0.0471 -0.5284
    3ASP    HB1   27   3.647   3.720   5.109 -1.2543 -0.7791 -0.0852
    3ASP    HB2   28   3.522   3.722   4.984  1.1372 -0.8665 -0.7692
    3ASP     CG   29   3.523   3.902   5.109  0.2625  0.0809 -0.6485
    3ASP    OD1   30   3.436   3.960   5.039 -0.4543 -0.0113 -0.7183
    3ASP    OD2   31   3.557   3.942   5.226 -0.0104 -0.3888 -0.1548
    3ASP      C   32   3.763   3.721   4.857  0.1213  0.9397 -0.3047
    3ASP      O   33   3.730   3.694   4.742  0.2055 -0.2007  0.7449
    4GLY      N   34   3.859   3.646   4.923 -0.5256 -0.2675  1.0453
    4GLY     HN   35   3.893   3.679   5.011  1.2126 -2.2246  1.1910
    4GLY     CA   36   3.927   3.527   4.867  0.3984 -0.3700  0.5355
    4GLY    HA1   37   4.005   3.486   4.929  1.0161 -0.5393 -0.3220
    4GLY    HA2   38   3.964   3.561   4.771  0.6217  0.3219  0.8669
    4GLY      C   39   3.826   3.411   4.847 -0.4731 -0.0900 -0.1072
    4GLY      O   40   3.717   3.415   4.899  0.5724 -0.0922  0.0650
    5PRO      N   41   3.867   3.303   4.773  0.1226 -0.5521 -0.6310
    5PRO     CD   42   3.992   3.287   4.703  0.2314  0.3795  0.6455
    5PRO    HD1   43   4.076   3.291   4.776 -0.4689 -0.1581  1.4958
    5PRO    HD2   44   4.009   3.365   4.625 -0.9047  1.1118  1.1077
    5PRO     CA   45   3.799   3.170   4.775 -0.2498 -0.3756  0.0381
    5PRO     HA   46   3.713   3.170   4.711  0.6154 -3.1447 -1.2913
    5PRO     CB   47   3.911   3.074   4.727  0.5695  0.2158  0.0676
    5PRO    HB1   48   3.862   2.984   4.685  1.5330 -1.5647  2.5151
    5PRO    HB2   49   3.979   3.037   4.806  0.2075  0.5154  0.5239
    5PRO     CG   50   3.984   3.155   4.624 -0.0334 -0.4724  0.2845
    5PRO    HG1   51   4.084   3.119   4.594  0.2369 -2.3442  3.0443
    5PRO    HG2   52   3.912   3.170   4.541  1.2653  0.0022 -0.7875
    5PRO      C   53   3.747   3.128   4.910 -0.0190  1.3941  0.5053
    5PRO      O   54   3.820   3.137   5.007 -0.2824 -0.1977  0.1527
    6GLY      N   55   3.622   3.076   4.923 -0.1956  0.2179 -0.7407
    6GLY     HN   56   3.553   3.061   4.853 -0.9457 -2.8841  0.5099
    6GLY     CA   57   3.578   3.026   5.049  0.4853 -1.2276  0.7611
    6GLY    HA1   58   3.476   3.063   5.052 -0.2316 -2.8635 -1.1292
    6GLY    HA2   59   3.630   3.075   5.129 -0.3250  1.7658 -0.3945
    6GLY      C   60   3.583   2.881   5.065 -0.3126  0.0439 -0.1537
    6GLY      O   61   3.548   2.804   4.980 -0.1601  0.2517  0.1942
    7ASP      N   62   3.631   2.830   5.180 -0.3634  0.1771 -0.4972
    7ASP     HN   63   3.649   2.898   5.251 -2.8233  1.5906 -1.1232
    7ASP     CA   64   3.655   2.693   5.203  0.6301 -0.8969 -0.3985
    7ASP     HA   65   3.729   2.657   5.133 -0.7008 -0.9715 -1.8170
    7ASP     CB   66   3.704   2.686   5.346 -0.8625  0.2317  0.2330
    7ASP    HB1   67   3.713   2.577   5.370  0.6507  0.2207 -0.2803
    7ASP    HB2   68   3.629   2.721   5.420 -1.0161 -2.0521  1.2396
    7ASP     CG   69   3.835   2.758   5.347 -0.9113  0.1055  0.5010
    7ASP    OD1   70   3.922   2.734   5.253 -0.0218 -0.0428 -0.4951
    7ASP    OD2   71   3.868   2.825   5.447 -0.5772  0.0353 -0.8272
    7ASP      C   72   3.527   2.603   5.206 -0.1597 -1.0501  0.7700
    7ASP      O   73   3.419   2.643   5.249 -0.0597 -0.2970  0.2607
    8PRO      N   74   3.532   2.482   5.167  0.3761  0.4668  0.2277
    8PRO     CD   75   3.652   2.412   5.108  0.3929 -0.4744 -0.1011
    8PRO    HD1   76   3.743   2.421   5.171  1.0008 -0.1822 -1.0073
    8PRO    HD2   77   3.674   2.460   5.010  1.4338  0.2476  0.4615
    8PRO     CA   78   3.407   2.400   5.166 -0.3090 -0.7297 -0.1929
    8PRO     HA   79   3.321   2.460   5.142  0.5866  0.2169 -1.0754
    8PRO     CB   80   3.445   2.297   5.054 -0.1113  1.1716 -0.6769
    8PRO    HB1   81   3.428   2.346   4.956  0.4297  2.0800 -0.3293
    8PRO    HB2   82   3.378   2.209   5.066  0.6884  0.7526  0.9545
    8PRO     CG   83   3.596   2.267   5.087  0.4043 -0.0397  0.5069
    8PRO    HG1   84   3.621   2.224   5.186  1.0365  1.9552  1.2802
    8PRO    HG2   85   3.650   2.215   5.005 -0.8855 -2.3568  1.0349
    8PRO      C   86   3.390   2.339   5.304 -0.0271  1.0772  0.2864
    8PRO      O   87   3.483   2.344   5.385  0.1838  0.3428  0.2050
    9GLY      N   88   3.272   2.285   5.337 -0.2189  0.2974  0.1591
    9GLY     HN   89   3.209   2.283   5.259  1.6315 -1.3794 -1.3839
    9GLY     CA   90   3.239   2.215   5.458  0.9922 -0.0459  0.1587
    9GLY    HA1   91   3.132   2.225   5.474  0.8323 -0.2148 -0.7146
    9GLY    HA2   92   3.299   2.251   5.540  0.8544 -0.7257  0.5639
    9GLY      C   93   3.278   2.064   5.442 -0.3868  0.2425 -0.5629
    9GLY      O   94   3.331   2.023   5.340  0.2090  0.1681 -0.3655
   10ASP      N   95   3.248   1.984   5.542  0.8152  0.1586  0.2297
   10ASP     HN   96   3.211   2.013   5.630 -1.2843  1.3211 -0.9595
   10ASP     CA   97   3.244   1.838   5.534 -0.3238 -0.1037 -0.7281
   10ASP     HA   98   3.338   1.811   5.488  1.2737  1.2596  1.5259
   10ASP     CB   99   3.233   1.771   5.679 -0.2969 -0.3690  0.0257
   10ASP    HB1  100   3.244   1.662   5.665 -0.4369 -0.3746 -0.0458
   10ASP    HB2  101   3.141   1.792   5.739 -2.3378  1.0294 -3.3030
   10ASP     CG  102   3.363   1.812   5.754 -0.7219  0.5761 -0.1376
   10ASP    OD1  103   3.360   1.823   5.881 -0.5219  0.3650  0.0156
   10ASP    OD2  104   3.467   1.825   5.685 -0.3915  0.6255 -0.2907
   10ASP      C  105   3.136   1.782   5.442 -0.2357 -0.4224 -0.0612
   10ASP      O  106   3.030   1.839   5.417 -0.4474 -0.5178  0.0627
   11GLY      N  107   3.166   1.657   5.388 -0.1517 -0.2561 -1.0657
   11GLY     HN  108   3.256   1.621   5.412 -0.3021 -0.0540 -0.1813
   11GLY     CA  109   3.086   1.587   5.300  0.3227  0.1675 -0.7138
   11GLY    HA1  110   2.985   1.624   5.288 -0.3256 -0.9119  1.0391
   11GLY    HA2  111   3.087   1.493   5.354  0.2754  0.7107  0.2698
   11GLY      C  112   3.146   1.580   5.166 -0.0362 -0.3607  0.2529
   11GLY    OT1  113   3.097   1.504   5.078  0.2764  0.0715 -0.3717
   11GLY    OT2  114   3.245   1.650   5.121 -0.2755 -0.0914 -0.2644
   12LIT    LIT  115   1.725   5.166   5.200 -0.8620  0.1789  0.5324
   13LIT    LIT  116   6.169   4.701   3.968  0.6125  0.9955 -0.2591
   14LIT    LIT  117   5.400   4.916   0.466 -1.2270  0.4281  0.1819
   15LIT    LIT  118   5.122   0.297   1.107 -1.0008 -0.1997 -0.3326
   16LIT    LIT  119   3.221   1.556   4.951 -0.9867 -0.7219  0.1806
   17LIT    LIT  120   2.314   6.221   1.368 -0.1887 -0.1084  0.8960
   18LIT    LIT  121   7.173   3.515   4.488 -0.3444 -0.4430 -0.5481
   19LIT    LIT  122   0.310   0.015   1.265  0.5891 -0.3950  0.5013
   20LIT    LIT  123   0.791   3.207   0.070 -0.0783  0.3673 -0.2949
   21LIT    LIT  124   2.575   2.794   5.393 -0.4390 -0.6307 -1.0351
   22LIT    LIT  125   0.620   6.648   5.161  0.9636  0.1708 -0.2320
   23LIT    LIT  126   2.325   2.334   4.769  0.4219 -0.6688 -0.3787
   24LIT    LIT  127   6.965   5.658   2.248  0.2713 -0.4974  0.6660
   25LIT    LIT  128   4.151   3.131   5.363  0.1908 -0.7928 -0.5167
   26LIT    LIT  129   3.559   1.802   5.876 -0.4081 -0.0772 -0.2392
   27LIT    LIT  130   2.250   5.080   5.259  0.1349  0.4307 -0.1702
   28LIT    LIT  131   6.888   2.919   2.762  0.8853  0.1308  1.3244
   29LIT    LIT  132   4.558   6.102   0.410 -0.4649  0.2786  0.0762
   30LIT    LIT  133   5.957   5.560   3.603 -0.3283  0.2400 -0.3163
   31LIT    LIT  134   4.592   4.267   1.328  0.7708  0.6168  1.0583
   32LIT    LIT  135   2.189   3.579   2.453 -0.5402 -0.6961  0.0466
   33LIT    LIT  136   0.177   2.448   3.943 -0.0960  0.7076 -0.1872
   34LIT    LIT  137   0.997   4.340   2.768  0.0136  0.1899 -1.0269
   35LIT    LIT  138   6.194   2.364   3.474  0.1539 -0.3179  0.0877
   36LIT    LIT  139   5.468   5.330   2.436  0.3369 -0.1378  1.4069
   37LIT    LIT  140   0.902   1.996   0.211  0.4008  0.5522 -0.1832
   38LIT    LIT  141   4.837   2.610   3.797 -1.0423 -0.2725  0.0789
   39LIT    LIT  142   3.825   4.038   4.247  0.3539  0.2401  0.3734
   40LIT    LIT  143   3.817   6.555   1.113  0.6440 -0.1594 -1.0874
   41LIT    LIT  144   2.120   4.239   4.686  0.3187  0.1845 -1.1157
   42LIT    LIT  145   3.312   3.994   5.178  0.0880  0.4160  0.1989
   43CLA    CLA  146   6.052   4.701   2.870 -0.1010  0.0907 -0.0206
   44CLA    CLA  147   6.858   2.221   0.348 -0.6257  0.2283 -0.7967
   45CLA    CLA  148   6.680   3.942   0.031 -0.1864 -0.0566  0.0877
   46CLA    CLA  149   4.674   5.244   2.601 -0.0436 -0.2344 -0.2658
   47CLA    CLA  150   7.145   0.639   2.405  0.0065 -0.4543  0.1061
   48CLA    CLA  151   0.419   2.106   4.160  0.3008  0.2262 -0.1406
   49CLA    CLA  152   6.760   0.534   5.805 -0.0892 -0.0381  0.2405
   50CLA    CLA  153   0.845   3.076   4.107 -0.2108  0.1960  0.0082
   51CLA    CLA  154   5.183   1.543   1.027 -0.1704  0.3725 -0.6487
   52CLA    CLA  155   3.747   3.432   5.845 -0.0036 -0.2042 -0.1151
   53CLA    CLA  156   3.593   6.236   5.286 -0.1915 -0.3797  0.4514
   54CLA    CLA  157   6.822   3.616   3.909  0.0117  0.1426 -0.1193
   55CLA    CLA  158   7.069   1.660   4.139 -0.2756 -0.2292 -0.1437
   56CLA    CLA  159   1.351   0.719   1.400  0.1325  0.1572 -0.0824
   57CLA    CLA  160   4.711   5.696   0.202  0.2490 -0.1104 -0.1918
   58CLA    CLA  161   2.931   2.580   5.236  0.3508 -0.4129  0.0391
   59CLA    CLA  162   2.332   4.178   5.837  0.1529  0.1329 -0.0567
   60CLA    CLA  163   0.615   5.128   0.675 -0.1998 -0.2928  0.4447
   61CLA    CLA  164   4.814   2.422   3.651  0.4577  0.1525  0.1026
   62CLA    CLA  165   0.862   6.577   1.919 -0.1105 -0.2000  0.2502
   63CLA    CLA  166   5.978   0.768   0.931  0.3234  0.3050 -0.1101
   64CLA    CLA  167   7.026   6.680   4.076  0.0049 -0.3207  0.1022
   65CLA    CLA  168   3.588   4.095   1.722 -0.2813  0.1132  0.3756
   66CLA    CLA  169   5.490   2.170   0.378  0.0461 -0.1275 -0.2780
   67CLA    CLA  170   2.156   3.156   5.241 -0.1646 -0.2578 -0.3135
   68CLA    CLA  171   3.792   0.427   4.075 -0.1717  0.2129  0.3443
   69CLA    CLA  172   1.428   2.820   2.732 -0.1563 -0.0921 -0.3704
   70TIP3   OH2  173   3.218   3.888   2.482 -0.0080 -0.5905 -0.1815
   70TIP3    H1  174   3.269   3.823   2.529 -0.0452 -1.2645 -1.0388
   70TIP3    H2  175   3.176   3.940   2.551 -0.1644 -1.6189  0.5314
   71TIP3   OH2  176   2.406   0.822   1.109  0.0494 -0.0762 -0.4744
   71TIP3    H1  177   2.383   0.754   1.172 -0.6381  2.7412  2.5832
   71TIP3    H2  178   2.498   0.841   1.127 -0.0155  0.4227 -0.6592
   72TIP3   OH2  179   6.901   5.760   3.502 -0.3838 -0.8255 -0.2995
   72TIP3    H1  180   6.994   5.755   3.525 -0.2665  0.1528 -0.5315
   72TIP3    H2  181   6.855   5.746   3.585 -0.0049 -0.2195  0.0236
   73TIP3   OH2  182   4.223   0.250   2.993 -0.2832 -0.2595 -0.2423
   73TIP3    H1  183   4.302   0.253   2.940  0.2076  0.6560  0.5147
   73TIP3    H2  184   4.165   0.316   2.954  0.3258  0.8686  0.7158
   74TIP3   OH2  185   1.174   6.073   3.382  0.0036 -0.9378 -0.1649
   74TIP3    H1  186   1.192   6.000   3.442  0.6658 -0.6806 -0.0347
   74TIP3    H2  187   1.235   6.058   3.310 -0.7379 -1.2024 -0.7399
   75TIP3   OH2  188   0.838   4.609   1.191  0.0598 -1.0470  0.2580
   75TIP3    H1  189   0.751   4.569   1.186 -0.9524  0.9377  1.2406
   75TIP3    H2  190   0.824   4.693   1.234  2.5212 -0.7804  0.6736
   76TIP3   OH2  191   1.463   5.118   3.596 -0.6580 -0.1975 -0.3028
   76TIP3    H1  192   1.416   5.035   3.591  0.2150 -0.7008 -0.5134
   76TIP3    H2  193   1.433   5.168   3.520 -0.2273 -0.8636 -0.9276
   77TIP3   OH2  194   1.761   2.574   2.018 -0.4386  0.6176 -0.6904
   77TIP3    H1  195   1.844   2.607   2.054  0.4577 -1.2261 -0.9338
   77TIP3    H2  196   1.731   2.511   2.083  0.2911 -1.4594 -2.2883
   78TIP3   OH2  197   1.324   6.081   2.487  0.4811 -0.2515 -0.5090
   78TIP3    H1  198   1.360   6.070   2.399 -0.1346 -1.6293 -0.6203
   78TIP3    H2  199   1.236   6.115   2.473 -0.1798 -1.8805 -0.5440
   79TIP3   OH2  200   3.971   4.268   5.902  0.2929 -0.1256  0.4184
   79TIP3    H1  201   3.938   4.184   5.869  0.5907 -0.6987  1.5089
   79TIP3    H2  202   3.906   4.332   5.874 -0.4106 -0.8553  0.3320
   80TIP3   OH2  203   5.447   0.646   5.628  0.1195  0.5358 -0.2385
   80TIP3    H1  204   5.433   0.653   5.533  0.6048  0.7190 -0.2999
   80TIP3    H2  205   5.436   0.735   5.660 -1.0039  0.3110  0.0167
   81TIP3   OH2  206   6.426   5.953   0.227 -0.5243 -0.6220 -0.6817
   81TIP3    H1  207   6.449   5.862   0.246 -0.1483 -0.6691 -1.3635
   81TIP3    H2  208   6.506   5.991   0.190  1.0138  1.3178  3.8703
   82TIP3   OH2  209   0.308   1.838   1.126 -0.1204 -0.2134 -0.3939
   82TIP3    H1  210   0.390   1.796   1.153  0.2502  0.6318 -0.1821
   82TIP3    H2  211   0.280   1.787   1.049  1.6393  0.6681 -1.6927
   83TIP3   OH2  212   5.055   5.294   1.889  0.1792  0.8028  0.0495
   83TIP3    H1  213   4.988   5.362   1.881 -1.5065 -0.7999 -0.1042
   83TIP3    H2  214   5.043   5.240   1.811  1.5481  0.3772  0.1180
   84TIP3   OH2  215   5.792   6.734   3.129  0.5144  0.4668 -0.1117
   84TIP3    H1  216   5.793   6.708   3.221  1.7416  0.9733  0.0356
   84TIP3    H2  217   5.706   6.707   3.097  0.9682 -2.0194  0.5177
   85TIP3   OH2  218   2.180   0.080   5.654 -0.1546  0.0775 -0.4810
   85TIP3    H1  219   2.136  -0.004   5.661  0.7819 -0.3370  0.7574
   85TIP3    H2  220   2.242   0.070   5.582 -0.4581 -0.0949 -0.7169
   86TIP3   OH2  221   4.296   2.609   1.385 -0.4428  0.1811  0.2417
   86TIP3    H1  222   4.317   2.654   1.466 -0.0010  1.2198 -0.4267
   86TIP3    H2  223   4.381   2.600   1.340 -0.4056 -1.8987  0.6209
   87TIP3   OH2  224   3.843   0.120   2.442  0.4607  0.1999 -0.3139
   87TIP3    H1  225   3.819   0.027   2.451 -1.5905  0.5583 -1.3668
   87TIP3    H2  226   3.832   0.139   2.349  0.3635  1.6063 -0.0414
   88TIP3   OH2  227   3.820   2.664   4.009 -0.1672  0.0041 -0.1148
   88TIP3    H1  228   3.807   2.569   4.004  0.2599 -0.1235  0.9169
   88TIP3    H2  229   3.854   2.679   4.098  0.6505  1.0143 -0.5772
   89TIP3   OH2  230   0.540   6.231   1.848  0.0974  0.2759 -0.5438
   89TIP3    H1  231   0.446   6.245   1.831 -0.1632  0.0034  0.6228
   89TIP3    H2  232   0.583   6.305   1.805 -0.6655  0.5132 -0.9256
   90TIP3   OH2  233   3.899   6.650   4.101 -0.0428  0.3532 -0.1894
   90TIP3    H1  234   3.977   6.705   4.102 -0.5014  1.0754 -1.5317
   90TIP3    H2  235   3.914   6.586   4.171  1.0937  1.3531  0.5232
   91TIP3   OH2  236   7.236   6.680   4.642 -0.2421  0.2324  0.4467
   91TIP3    H1  237   7.243   6.640   4.730 -0.0340 -0.9901 -0.1003
   91TIP3    H2  238   7.144   6.703   4.635 -0.2080  0.6068  1.0991
   92TIP3   OH2  239   7.138   5.906   1.884  0.1445  1.0522 -0.0680
   92TIP3    H1  240   7.053   5.914   1.840 -0.8015 -0.4100  1.3517
   92TIP3    H2  241   7.199   5.881   1.816 -1.2030 -0.8642 -0.6457
   93TIP3   OH2  242   1.050   1.099   1.254 -0.1905 -0.1796 -0.4379
   93TIP3    H1  243   1.031   1.154   1.331 -0.6377 -0.8529 -0.0542
   93TIP3    H2  244   1.136   1.061   1.273  0.3912  0.8404 -0.9783
   94TIP3   OH2  245   0.590   6.219   0.134  0.6205 -0.4723 -0.4983
   94TIP3    H1  246   0.683   6.240   0.141  0.5456  0.2001 -1.3942
   94TIP3    H2  247   0.555   6.285   0.075 -0.8080  0.4505  1.2706
   95TIP3   OH2  248   4.614   3.665   5.015  0.4090 -0.0678 -0.2834
   95TIP3    H1  249   4.678   3.611   5.063  1.2418  0.3744 -0.8698
   95TIP3    H2  250   4.645   3.754   5.027 -0.3004  0.1866 -0.3006
   96TIP3   OH2  251   6.140   2.261   2.216  0.3152  0.5010  0.0661
   96TIP3    H1  252   6.082   2.239   2.143 -0.8913  0.0573  1.1248
   96TIP3    H2  253   6.106   2.343   2.250  0.6045  0.4834  0.3988
   97TIP3   OH2  254   4.857   6.490   5.495  0.6268 -0.7709 -0.4555
   97TIP3    H1  255   4.915   6.449   5.431  1.5591  0.6031 -0.5283
   97TIP3    H2  256   4.893   6.578   5.507 -0.4297 -0.4865  0.8184
   98TIP3   OH2  257   1.346   4.617   4.909  0.2403  0.3622 -0.0596
   98TIP3    H1  258   1.317   4.548   4.849 -0.8989  0.9179 -0.1788
   98TIP3    H2  259   1.280   4.618   4.978 -0.6302  2.3083 -0.8277
   99TIP3   OH2  260   6.144   2.495   2.850  0.1923 -0.2158 -0.3290
   99TIP3    H1  261   6.086   2.569   2.830 -1.7205 -1.0174  1.7944
   99TIP3    H2  262   6.093   2.441   2.910  2.4674 -2.0119  0.1009
  100TIP3   OH2  263   0.250   4.741   5.443 -0.0391 -0.3721 -0.1923
  100TIP3    H1  264   0.336   4.759   5.405  0.1729 -1.0804 -0.0635
  100TIP3    H2  265   0.213   4.673   5.387 -1.0002  0.7218 -0.9228
  101TIP3   OH2  266   4.140   6.778   4.140  0.6875 -0.5302 -0.0273
  101TIP3    H1  267   4.181   6.693   4.130 -0.8490 -1.2416 -0.7102
  101TIP3    H2  268   4.212   6.840   4.148  1.8255 -1.8692  0.2203
  102TIP3   OH2  269   1.771   1.367   0.398 -0.2793  0.2619 -0.0339
  102TIP3    H1  270   1.715   1.293   0.376 -0.3564  0.4494 -0.4812
  102TIP3    H2  271   1.854   1.348   0.354 -0.6840  1.0196 -1.1944
  103TIP3   OH2  272   4.661   5.126   0.396  0.2413  0.7064  0.6957
  103TIP3    H1  273   4.618   5.106   0.479 -0.3235 -2.6647 -0.2371
  103TIP3    H2  274   4.622   5.209   0.368 -1.3901  0.6723  2.6206
  104TIP3   OH2  275   2.910   1.575   4.623  0.1854  0.1292  0.5175
  104TIP3    H1  276   2.924   1.515   4.549  1.0551  0.1586  0.6496
  104TIP3    H2  277   2.816   1.593   4.621  0.1070 -0.2964 -0.2524
  105TIP3   OH2  278   1.613   0.738   4.588  0.4837  0.0423  0.0434
  105TIP3    H1  279   1.541   0.796   4.565  0.2386 -0.1787  0.2509
  105TIP3    H2  280   1.669   0.790   4.645  0.0448 -0.0645  0.5680
  106TIP3   OH2  281   0.047   0.009   5.112  0.0705 -0.1929 -0.0315
  106TIP3    H1  282  -0.005  -0.038   5.047 -0.6882  0.7667 -0.1393
  106TIP3    H2  283   0.087   0.080   5.062 -0.8812  0.8257  0.6225
  107TIP3   OH2  284   7.073   1.526   1.752  0.1251  0.0382  0.4771
  107TIP3    H1  285   7.104   1.515   1.663 -2.6634 -0.1733 -0.5630
  107TIP3    H2  286   7.075   1.438   1.790  2.8760  0.3535  1.2932
  108TIP3   OH2  287   5.269   3.322   3.718  0.4564  0.1753  0.1322
  108TIP3    H1  288   5.355   3.287   3.740  0.0625 -0.1720  1.2205
  108TIP3    H2  289   5.222   3.324   3.802 -0.7413 -0.0717 -0.5032
  109TIP3   OH2  290   4.115   5.289   3.743 -0.2441 -0.4927 -0.1924
  109TIP3    H1  291   4.145   5.314   3.830 -2.1094  0.5083  0.2221
  109TIP3    H2  292   4.102   5.194   3.749 -2.4594 -0.1714  1.3864
  110TIP3   OH2  293   1.660   5.340   3.675 -0.2934  0.8071  0.0988
  110TIP3    H1  294   1.599   5.312   3.606 -0.1793  0.1693  0.2496
  110TIP3    H2  295   1.605   5.352   3.752 -0.1107 -0.7112  0.4910
  111TIP3   OH2  296   4.058   3.403   4.308 -0.2279  0.0551 -0.0249
  111TIP3    H1  297   4.053   3.427   4.400  0.1453 -1.7243  0.5001
  111TIP3    H2  298   4.151   3.388   4.292 -0.1965  1.0712 -0.9090
  112TIP3   OH2  299   5.143   5.234   2.510 -0.4583  0.0622  0.3339
  112TIP3    H1  300   5.081   5.172   2.471  0.0325  0.2413 -0.7827
  112TIP3    H2  301   5.168   5.291   2.438  0.2022  0.6518  1.0146
  113TIP3   OH2  302   4.637   2.344   1.762 -0.6579 -0.7997  0.2947
  113TIP3    H1  303   4.708   2.399   1.729 -1.3893 -0.3107 -0.5071
  113TIP3    H2  304   4.617   2.379   1.848  0.4902 -1.3424  0.7978
  114TIP3   OH2  305   4.424   4.996   1.998 -0.4724  0.2560  0.1339
  114TIP3    H1  306   4.370   5.070   1.972 -1.6628 -0.4065  0.6609
  114TIP3    H2  307   4.506   5.035   2.028 -0.5368  1.2536 -0.9395
  115TIP3   OH2  308   2.213   4.498   5.369 -0.0498  0.1868  0.9555
  115TIP3    H1  309   2.161   4.563   5.416 -0.6018  0.1455  0.4201
  115TIP3    H2  310   2.206   4.418   5.421 -1.6349 -0.1895  0.2256
  116TIP3   OH2  311   1.695   6.356   2.197 -0.4763  0.1031 -0.3135
  116TIP3    H1  312   1.778   6.308   2.201 -0.3617  0.0707 -2.3166
  116TIP3    H2  313   1.683   6.389   2.286  0.8950 -1.1974  0.4078
  117TIP3   OH2  314   5.075   3.257   0.683  0.4234  0.0985  0.6448
  117TIP3    H1  315   5.135   3.191   0.647  0.5251 -0.8240  2.3840
  117TIP3    H2  316   5.091   3.335   0.631  2.2906 -0.4710  0.2896
  118TIP3   OH2  317   6.064   5.727   5.717  0.0148  0.1129 -0.2468
  118TIP3    H1  318   6.037   5.813   5.749  1.6011 -0.0376  1.7186
  118TIP3    H2  319   6.036   5.725   5.625 -0.0158  2.7353 -0.3598
  119TIP3   OH2  320   1.306   1.942   3.899 -0.0771  0.2743 -0.7008
  119TIP3    H1  321   1.343   1.961   3.813  1.5568 -3.4826 -0.9957
  119TIP3    H2  322   1.246   1.869   3.884  1.9115 -1.9826  1.5509
  120TIP3   OH2  323   3.558   5.333   1.292 -0.1353 -0.0688  0.5720
  120TIP3    H1  324   3.480   5.278   1.294 -0.7465  0.7836  1.8328
  120TIP3    H2  325   3.631   5.272   1.283 -0.7528 -1.1743  2.4866
  121TIP3   OH2  326   0.220   3.210   4.843 -0.3281  0.0980  0.0407
  121TIP3    H1  327   0.199   3.302   4.854  0.3907  0.3751 -0.7708
  121TIP3    H2  328   0.305   3.210   4.800 -0.0523 -0.9541  0.5574
  122TIP3   OH2  329   5.705   1.250   5.139  0.1658 -0.1851 -0.0651
  122TIP3    H1  330   5.663   1.168   5.115  0.5264 -1.4413  3.1164
  122TIP3    H2  331   5.790   1.247   5.094  0.1466 -1.5224 -0.0571
  123TIP3   OH2  332   2.044   3.241   2.186 -0.4319 -0.1130 -0.3435
  123TIP3    H1  333   1.997   3.323   2.169 -0.6198 -0.3271 -0.8672
  123TIP3    H2  334   2.028   3.223   2.279  0.2246  0.8299 -0.0299
  124TIP3   OH2  335   5.909   3.425   2.122  0.4824  0.2246  0.2441
  124TIP3    H1  336   5.984   3.434   2.180 -0.6690  0.2012  1.8019
  124TIP3    H2  337   5.861   3.507   2.132 -0.5242 -0.3783  0.5106
  125TIP3   OH2  338   2.075   3.856   4.203  0.2888 -0.3189 -0.4095
  125TIP3    H1  339   2.082   3.921   4.133 -0.0962 -1.0289 -1.1244
  125TIP3    H2  340   2.015   3.896   4.267  1.6671  0.8881  0.1698
  126TIP3   OH2  341   5.586   3.543   2.898 -0.2725  0.3369 -0.5222
  126TIP3    H1  342   5.491   3.547   2.897 -0.3162 -0.4738 -1.5303
  126TIP3    H2  343   5.608   3.480   2.829  1.0905  2.2837 -1.9532
  127TIP3   OH2  344   6.723   4.619   2.820  0.2126 -0.4226 -0.6031
  127TIP3    H1  345   6.736   4.544   2.762  1.0583 -1.6465  1.0914
  127TIP3    H2  346   6.635   4.607   2.856 -0.2384  0.2363 -1.4449
  128TIP3   OH2  347   5.789   4.287   2.829  0.2051 -0.6651  0.1612
  128TIP3    H1  348   5.769   4.198   2.799  0.3001 -0.1777 -1.4192
  128TIP3    H2  349   5.801   4.337   2.749  0.2707  0.7619  1.0353
  129TIP3   OH2  350   5.768   0.470   5.463 -0.1067  0.3620 -0.3049
  129TIP3    H1  351   5.808   0.487   5.378 -0.2370  0.6251 -0.3150
  129TIP3    H2  352   5.766   0.375   5.470 -1.1651  0.3010 -1.1135
  130TIP3   OH2  353   3.464   1.201   0.572 -0.1395  0.2147 -0.2251
  130TIP3    H1  354   3.472   1.185   0.666 -1.9187 -0.1364 -0.1021
  130TIP3    H2  355   3.433   1.291   0.565 -0.8905 -0.0550 -0.4234
  131TIP3   OH2  356   7.142   1.158   3.170 -0.4354 -0.8876 -0.8454
  131TIP3    H1  357   7.153   1.253   3.163  1.7275 -1.0789 -0.8284
  131TIP3    H2  358   7.110   1.144   3.259  0.8242 -0.2407 -0.2602
  132TIP3   OH2  359   1.719   2.024   4.570 -0.1097  0.5437 -0.2250
  132TIP3    H1  360   1.635   2.050   4.532 -0.0823  0.8745 -0.0597
  132TIP3    H2  361   1.697   1.995   4.659 -0.1540 -0.1001 -0.4382
  133TIP3   OH2  362   0.122   5.091   2.295  0.4291 -0.0578  0.1056
  133TIP3    H1  363   0.086   5.178   2.277 -2.5167 -0.3377  3.5689
  133TIP3    H2  364   0.197   5.108   2.353  0.4419  0.1950  0.0165
  134TIP3   OH2  365   5.760   4.615   3.025 -0.2798 -0.4877  0.0659
  134TIP3    H1  366   5.738   4.536   2.977  2.6279 -2.4663  1.6907
  134TIP3    H2  367   5.854   4.628   3.008  0.0379  0.7382  2.3309
  135TIP3   OH2  368   1.386   3.598   0.849 -0.1679 -0.0459  0.0189
  135TIP3    H1  369   1.337   3.593   0.931 -0.1897 -0.3521 -0.0120
  135TIP3    H2  370   1.436   3.680   0.855 -1.5608  0.8852 -0.4426
  136TIP3   OH2  371   3.363   2.384   1.324  0.0986  0.3121 -0.5258
  136TIP3    H1  372   3.403   2.468   1.303  1.3622 -0.3068 -0.7338
  136TIP3    H2  373   3.375   2.373   1.418  0.9811 -0.1309 -0.6780
  137TIP3   OH2  374   2.424   2.058   0.712 -0.4740  0.1830 -0.1401
  137TIP3    H1  375   2.471   2.004   0.648 -2.7140 -1.3326 -0.6094
  137TIP3    H2  376   2.343   2.010   0.730 -0.9594  1.6895  2.1551
  138TIP3   OH2  377   0.615   3.190   1.299 -0.2865  0.2523 -0.9278
  138TIP3    H1  378   0.678   3.161   1.233 -0.6317 -0.7408 -0.8300
  138TIP3    H2  379   0.637   3.282   1.313 -0.3659  0.5564 -2.5978
  139TIP3   OH2  380   4.788   1.032   2.187 -0.2325 -0.0681  0.7089
  139TIP3    H1  381   4.849   1.037   2.260  0.7980 -1.5772 -0.0060
  139TIP3    H2  382   4.703   1.012   2.227 -0.0427  0.8568  1.6094
  140TIP3   OH2  383   1.270   5.422   1.574 -0.3770 -0.1204 -0.3185
  140TIP3    H1  384   1.212   5.358   1.533 -0.8823  0.6539 -0.8236
  140TIP3    H2  385   1.267   5.498   1.517  0.5902  0.1923  0.0264
  141TIP3   OH2  386   7.205   6.171   2.778  0.3990  0.2958  0.1358
  141TIP3    H1  387   7.260   6.160   2.856  1.2605 -0.4021 -0.5526
  141TIP3    H2  388   7.120   6.199   2.813  0.7369 -0.0997  1.3334
  142TIP3   OH2  389   4.865   1.228   3.663 -0.0361  0.5534 -0.1357
  142TIP3    H1  390   4.851   1.187   3.577  1.6977  1.6026 -0.9578
  142TIP3    H2  391   4.786   1.280   3.678 -0.8007 -0.4293 -0.5925
  143TIP3   OH2  392   6.535   5.658   5.056  0.0705  0.0891  1.0638
  143TIP3    H1  393   6.504   5.571   5.029  0.6558 -0.0867  0.9329
  143TIP3    H2  394   6.503   5.668   5.146 -2.5999  1.0125  0.1145
  144TIP3   OH2  395   1.686   6.125   1.696  0.2802  0.0637 -0.4185
  144TIP3    H1  396   1.759   6.186   1.684  0.8105 -0.6362 -0.7718
  144TIP3    H2  397   1.634   6.134   1.616 -0.3414  0.9683  0.0663
  145TIP3   OH2  398   1.544   6.762   3.505  0.1048  0.1779  0.3694
  145TIP3    H1  399   1.553   6.731   3.595 -0.4682 -1.0053  0.0450
  145TIP3    H2  400   1.547   6.683   3.452  0.6929  0.8859 -0.6818
  146TIP3   OH2  401   4.804   3.325   5.873 -0.4704 -0.0915 -0.4924
  146TIP3    H1  402   4.713   3.347   5.895 -0.5853 -1.7504  0.8772
  146TIP3    H2  403   4.822   3.375   5.793 -1.9197  1.8486  0.2983
  147TIP3   OH2  404   6.310   0.180   4.847 -0.0749  0.5461  0.0079
  147TIP3    H1  405   6.231   0.156   4.799 -0.7048  2.7496 -0.1547
  147TIP3    H2  406   6.281   0.248   4.909  1.6701  1.3817 -0.0302
  148TIP3   OH2  407   3.212   6.247   4.370 -0.5314  0.0906 -0.1044
  148TIP3    H1  408   3.243   6.332   4.341 -0.0566  0.1877  0.6589
  148TIP3    H2  409   3.263   6.229   4.449 -0.8855 -0.7356 -0.0578
  149TIP3   OH2  410   6.910   1.821   1.831 -0.3429  0.4781  0.1296
  149TIP3    H1  411   6.923   1.900   1.778 -1.2167  1.5073  1.3748
  149TIP3    H2  412   6.980   1.824   1.896 -1.0118  0.8133  0.8409
  150TIP3   OH2  413   5.453   6.794   4.122 -0.0474 -0.0295 -0.0836
  150TIP3    H1  414   5.359   6.778   4.125 -0.9701  3.8370 -1.9168
  150TIP3    H2  415   5.470   6.818   4.031  2.5001  0.3726  0.4293
  151TIP3   OH2  416   0.795   3.721   5.839 -0.2284 -0.4057 -0.6749
  151TIP3    H1  417   0.876   3.699   5.885 -0.9689  0.3227  1.0527
  151TIP3    H2  418   0.751   3.783   5.896 -1.5364  0.0111 -2.0745
  152TIP3   OH2  419   4.905   4.206   2.874 -0.2439 -0.2437  0.6278
  152TIP3    H1  420   4.812   4.228   2.878  0.0687  1.0810  0.9009
  152TIP3    H2  421   4.919   4.148   2.949 -0.5196  0.8805  1.5689
  153TIP3   OH2  422   6.352   4.673   3.314  0.7414  0.2621 -0.5542
  153TIP3    H1  423   6.435   4.629   3.334  0.3130 -0.1763  0.3224
  153TIP3    H2  424   6.377   4.746   3.257  1.4828 -1.1455 -2.1356
  154TIP3   OH2  425   3.234   2.901   3.250 -0.2534 -0.7865 -0.5438
  154TIP3    H1  426   3.322   2.882   3.282 -1.0377 -2.0785  1.0275
  154TIP3    H2  427   3.217   2.834   3.184 -0.3264 -1.0177 -0.2931
  155TIP3   OH2  428   4.098   5.046   0.889  0.2270 -0.0205 -0.0205
  155TIP3    H1  429   4.029   5.053   0.954 -0.7190  0.4536 -1.0477
  155TIP3    H2  430   4.079   4.965   0.842 -2.2569  2.0972 -3.1197
  156TIP3   OH2  431   0.643   5.808   1.975 -0.2747 -0.4203  0.1846
  156TIP3    H1  432   0.634   5.899   2.003  2.1834 -0.2891  0.7028
  156TIP3    H2  433   0.595   5.758   2.041  1.5218  0.2568  2.1187
  157TIP3   OH2  434   4.217   5.188   3.362  0.0771 -0.1498  0.5548
  157TIP3    H1  435   4.129   5.215   3.337  0.5133 -0.6445 -1.7359
  157TIP3    H2  436   4.208   5.096   3.387 -0.2691  0.1973  1.7842
  158TIP3   OH2  437   5.731   3.163   3.273 -0.1708  0.4882 -0.7255
  158TIP3    H1  438   5.695   3.208   3.350  1.9099  0.0960  0.5377
  158TIP3    H2  439   5.709   3.071   3.287 -0.7206  0.5415 -1.1764
  159TIP3   OH2  440   5.347   2.668   1.739  0.0944  0.7497 -0.0980
  159TIP3    H1  441   5.396   2.718   1.674  0.5678  0.8100  0.2956
  159TIP3    H2  442   5.393   2.684   1.821  0.8354 -1.0760 -0.1038
  160TIP3   OH2  443   0.806   6.525   3.446 -0.3160 -0.0008  0.0741
  160TIP3    H1  444   0.845   6.487   3.367 -0.9123  0.6606 -0.5595
  160TIP3    H2  445   0.730   6.573   3.414 -1.0245 -0.3609  1.1499
  161TIP3   OH2  446   3.780   2.970   0.098 -0.5722  0.1292 -0.2137
  161TIP3    H1  447   3.824   2.908   0.040  0.0354  0.0435  0.3351
  161TIP3    H2  448   3.847   2.995   0.161 -0.9756  0.9193 -0.0948
  162TIP3   OH2  449   1.576   2.335   0.705 -0.1066 -0.0936  0.3149
  162TIP3    H1  450   1.618   2.309   0.787  1.7424 -0.5388 -0.7117
  162TIP3    H2  451   1.581   2.256   0.650  2.4644  1.2961 -1.6438
  163TIP3   OH2  452   0.717   0.345   0.402 -0.0383 -0.5814  0.0379
  163TIP3    H1  453   0.703   0.286   0.329  0.1282 -1.0172  0.3556
  163TIP3    H2  454   0.777   0.412   0.368 -1.1270  0.0647 -0.6613
  164TIP3   OH2  455   0.025   5.184   5.466  0.4996 -0.2236  0.2602
  164TIP3    H1  456   0.014   5.271   5.428  0.2586 -0.4535 -0.2119
  164TIP3    H2  457   0.083   5.138   5.405  1.7002  0.0158  1.1822
  165TIP3   OH2  458   2.357   1.268   5.842  0.1257  0.1722 -0.3609
  165TIP3    H1  459   2.336   1.196   5.901  0.4848  1.0225  0.8489
  165TIP3    H2  460   2.275   1.290   5.799 -0.7813  1.1538  1.6958
  166TIP3   OH2  461   7.192   0.064   3.993  0.0186 -0.2131  0.1160
  166TIP3    H1  462   7.135   0.140   4.005  0.0136 -0.0313 -0.9794
  166TIP3    H2  463   7.267   0.097   3.943  0.2465 -0.8270  0.0417
  167TIP3   OH2  464   1.459   2.884   5.539  0.1296 -0.0253 -0.4603
  167TIP3    H1  465   1.535   2.880   5.596  0.6172 -0.4050 -1.1252
  167TIP3    H2  466   1.419   2.797   5.545 -1.6670  0.8423  1.7374
  168TIP3   OH2  467   5.677   5.000   5.543  0.4354 -0.1622 -0.3998
  168TIP3    H1  468   5.700   5.089   5.517 -0.4838  0.5028  0.9816
  168TIP3    H2  469   5.601   5.010   5.600 -0.0030 -1.8815 -0.6304
  169TIP3   OH2  470   6.511   1.456   4.741 -0.3796 -0.0200 -0.2230
  169TIP3    H1  471   6.593   1.503   4.728 -0.2217  0.6334  2.4605
  169TIP3    H2  472   6.463   1.508   4.806 -1.1710 -2.3530  1.2106
  170TIP3   OH2  473   6.005   0.707   3.744  0.0819  0.5784  0.5479
  170TIP3    H1  474   6.093   0.740   3.763  0.0829  0.5214  0.6415
  170TIP3    H2  475   5.983   0.747   3.660  0.4277  0.1330  0.2423
  171TIP3   OH2  476   4.625   1.891   1.832  0.0589  0.1675 -0.0929
  171TIP3    H1  477   4.697   1.894   1.770  0.7148  1.7708  0.6914
  171TIP3    H2  478   4.586   1.978   1.828 -0.4775  0.0008  1.0368
  172TIP3   OH2  479   0.401   2.004   3.247 -0.1346  0.0755 -0.4319
  172TIP3    H1  480   0.384   1.910   3.252  2.5602 -0.7789 -3.4566
  172TIP3    H2  481   0.496   2.011   3.238 -0.1922  3.1695  0.0293
  173TIP3   OH2  482   3.916   1.338   4.629  0.3401  0.2730  0.1382
  173TIP3    H1  483   3.954   1.342   4.541 -2.2916  0.8692 -1.0627
  173TIP3    H2  484   3.945   1.254   4.664  2.3024  0.4897 -0.8568
  174TIP3   OH2  485   4.061   0.605   3.139  0.4930  0.1639  0.1094
  174TIP3    H1  486   4.000   0.678   3.126  0.3400 -0.1550 -1.1326
  174TIP3    H2  487   4.005   0.533   3.169  0.1024 -0.3321 -1.7044
  175TIP3   OH2  488   3.980   1.223   5.532 -0.0917 -0.1861  0.0213
  175TIP3    H1  489   3.886   1.236   5.517 -0.5253 -1.0708  1.6514
  175TIP3    H2  490   3.986   1.135   5.569  1.4556 -0.3353 -0.5335
  176TIP3   OH2  491   4.080   3.786   0.759  0.2560  0.0421 -0.1527
  176TIP3    H1  492   4.040   3.808   0.843 -0.5563 -1.5723 -0.0928
  176TIP3    H2  493   4.153   3.728   0.781  0.1126 -0.2950 -0.5628
  177TIP3   OH2  494   6.297   6.499   3.279 -0.2192 -0.0951 -0.5476
  177TIP3    H1  495   6.380   6.452   3.271 -0.6495 -0.9664 -0.0463
  177TIP3    H2  496   6.319   6.580   3.325  0.1994 -0.7689  0.4584
  178TIP3   OH2  497   6.003   0.617   3.448  0.0324 -0.4602  0.5255
  178TIP3    H1  498   5.919   0.662   3.455  1.6563  2.7541  1.2878
  178TIP3    H2  499   5.980   0.525   3.436 -3.6191  0.5550 -2.3250
  179TIP3   OH2  500   2.058   5.366   1.090  0.6382  0.3463 -0.0232
  179TIP3    H1  501   2.098   5.314   1.019  0.8773  0.3278  0.1244
  179TIP3    H2  502   2.051   5.454   1.054 -0.3860  0.0867 -0.5233
  180TIP3   OH2  503   4.360   1.765   0.547 -0.3018  0.0738  0.1121
  180TIP3    H1  504   4.366   1.676   0.582 -1.9103 -0.6609 -1.3296
  180TIP3    H2  505   4.450   1.795   0.543  0.3491 -1.7688 -0.0335
  181TIP3   OH2  506   0.645   0.817   5.443 -0.1536 -0.5797  0.2794
  181TIP3    H1  507   0.588   0.782   5.512  1.2128 -0.1876  1.6646
  181TIP3    H2  508   0.625   0.911   5.441  0.0743 -0.5279  0.4057
  182TIP3   OH2  509   7.019   4.642   0.517  0.3130  0.6345  0.0174
  182TIP3    H1  510   7.062   4.586   0.582 -1.4319  0.9480  1.5422
  182TIP3    H2  511   7.047   4.607   0.433 -0.5500 -2.4800  0.8791
  183TIP3   OH2  512   2.766   3.017   3.039  0.3192  0.0220 -0.5209
  183TIP3    H1  513   2.802   3.028   3.127  0.1581  0.4951 -0.5092
  183TIP3    H2  514   2.724   3.101   3.020  0.5458 -0.0027 -1.1408
  184TIP3   OH2  515   4.649   1.293   0.174  0.3921  0.0993 -0.1530
  184TIP3    H1  516   4.695   1.240   0.108  0.0697  1.4171 -1.4946
  184TIP3    H2  517   4.606   1.229   0.230 -1.6769 -1.1462 -2.9120
  185TIP3   OH2  518   4.641   0.181   2.271 -0.1216 -0.2137 -0.1276
  185TIP3    H1  519   4.698   0.165   2.346 -0.4780 -0.8453  0.0169
  185TIP3    H2  520   4.553   0.160   2.302 -0.6189  1.8315 -0.0130
  186TIP3   OH2  521   3.922   5.108   1.110 -0.2714 -0.0150  0.0070
  186TIP3    H1  522   3.987   5.174   1.134 -1.0750  0.5380  0.7926
  186TIP3    H2  523   3.904   5.062   1.192 -1.6094  0.5462  0.0582
  187TIP3   OH2  524   3.535   5.887   0.550 -0.2121  0.5313  0.5680
  187TIP3    H1  525   3.498   5.799   0.560  1.9122 -0.6285 -0.9419
  187TIP3    H2  526   3.494   5.921   0.471 -0.8013  0.7911  0.9787
  188TIP3   OH2  527   5.821   3.858   1.732  0.7981 -0.2315 -0.3051
  188TIP3    H1  528   5.853   3.938   1.773  1.2591 -1.0708  1.0464
  188TIP3    H2  529   5.770   3.815   1.800  0.7913 -1.2186 -0.9141
  189TIP3   OH2  530   4.084   3.848   4.694  0.3898 -0.0612  0.0314
  189TIP3    H1  531   4.000   3.893   4.693  0.0000 -0.7505  0.7094
  189TIP3    H2  532   4.093   3.814   4.783 -0.0980 -2.6619 -0.8014
  190TIP3   OH2  533   5.622   5.601   1.666 -0.3572  0.2898 -0.1293
  190TIP3    H1  534   5.594   5.549   1.742 -2.7219  0.1061 -1.0708
  190TIP3    H2  535   5.564   5.574   1.596  1.2502  1.0740 -1.8362
  191TIP3   OH2  536   0.823   1.845   3.882  0.0862 -0.2008 -0.0225
  191TIP3    H1  537   0.856   1.835   3.972 -0.1350 -4.7765 -0.2665
  191TIP3    H2  538   0.737   1.885   3.893  0.2380 -0.2549  1.7695
  192TIP3   OH2  539   0.953   5.892   4.255  0.0690 -0.3690 -0.3310
  192TIP3    H1  540   1.028   5.860   4.204  0.9955  1.9824 -0.5973
  192TIP3    H2  541   0.898   5.938   4.191  0.2702  0.9678  0.4047
  193TIP3   OH2  542   5.626   3.619   3.669  0.2148 -0.5746 -0.2493
  193TIP3    H1  543   5.565   3.629   3.742  0.5135  1.1089 -0.1978
  193TIP3    H2  544   5.711   3.645   3.704  0.1643  1.4949 -1.4559
  194TIP3   OH2  545   7.045   4.665   3.715  0.1188 -0.1340  0.2831
  194TIP3    H1  546   7.043   4.622   3.630  2.4966  0.5261 -0.1727
  194TIP3    H2  547   6.968   4.631   3.761  0.0787 -2.3080 -1.2587
  195TIP3   OH2  548   1.090   1.001   5.848 -0.0983  0.4761  0.7776
  195TIP3    H1  549   1.131   1.078   5.808  1.1846 -1.1234 -1.2415
  195TIP3    H2  550   1.004   0.995   5.806  0.0187  0.5098  0.5323
  196TIP3   OH2  551   0.759   2.297   1.388  0.0841 -0.2292 -0.1492
  196TIP3    H1  552   0.669   2.282   1.418 -0.0819 -0.0344 -0.5437
  196TIP3    H2  553   0.758   2.271   1.296  0.8748 -1.9551  0.2847
  197TIP3   OH2  554   5.021   1.739   0.825  0.0231  0.2544 -0.1713
  197TIP3    H1  555   5.084   1.701   0.885  1.2014 -1.1186 -2.1562
  197TIP3    H2  556   5.045   1.703   0.739 -2.7728  0.5855 -1.1820
  198TIP3   OH2  557   7.163   3.374   1.212 -0.7158  0.1395  0.2867
  198TIP3    H1  558   7.240   3.324   1.237 -0.2225  1.0784  0.6873
  198TIP3    H2  559   7.093   3.341   1.269 -0.6139 -0.6872 -0.0582
  199TIP3   OH2  560   2.989   5.807   1.526 -0.2594  0.2513 -0.2875
  199TIP3    H1  561   3.028   5.807   1.613 -0.3530 -1.8541 -0.1776
  199TIP3    H2  562   3.063   5.818   1.466 -0.2460  2.1190  0.0400
  200TIP3   OH2  563   2.250   4.778   5.479  0.2037 -0.2816 -0.0385
  200TIP3    H1  564   2.232   4.748   5.568 -0.3574 -0.1573 -0.1109
  200TIP3    H2  565   2.346   4.773   5.471  0.2210 -0.6868  0.4277
  201TIP3   OH2  566   2.606   5.922   4.636  0.3805  0.2034 -0.3929
  201TIP3    H1  567   2.665   5.851   4.612  1.5331  0.6941  0.8813
  201TIP3    H2  568   2.546   5.882   4.700  0.2584  0.0833 -0.5806
  202TIP3   OH2  569   6.315   5.037   1.531 -0.1452 -0.8040  0.2793
  202TIP3    H1  570   6.401   5.025   1.489 -0.6891 -0.6106 -0.9377
  202TIP3    H2  571   6.331   5.021   1.624  1.4117  0.2189  0.2114
  203TIP3   OH2  572   4.318   4.555   5.773  0.2315 -0.9949 -0.2914
  203TIP3    H1  573   4.295   4.536   5.682 -0.7693 -0.9773 -0.0514
  203TIP3    H2  574   4.282   4.481   5.822 -0.4241 -0.3410  0.2343
  204TIP3   OH2  575   0.380   5.163   2.419 -0.5401  0.4610 -0.7746
  204TIP3    H1  576   0.456   5.116   2.383 -0.9771 -1.6127  0.8710
  204TIP3    H2  577   0.414   5.251   2.436  1.7391 -0.5647  0.5280
  205TIP3   OH2  578   3.899   6.755   2.274  0.2924 -0.4228 -0.0890
  205TIP3    H1  579   3.985   6.766   2.232 -0.1256  1.0305 -0.6106
  205TIP3    H2  580   3.882   6.839   2.316 -0.0578 -1.3028  1.6369
  206TIP3   OH2  581   6.717   0.319   5.192 -0.0902  0.4895  0.0098
  206TIP3    H1  582   6.703   0.250   5.257  3.4265 -0.6544 -0.2291
  206TIP3    H2  583   6.782   0.377   5.231  0.4628  1.0169 -1.5842
  207TIP3   OH2  584   1.669   6.323   4.657  0.2636 -0.4242 -0.3623
  207TIP3    H1  585   1.736   6.388   4.633  0.0807 -0.7398 -1.8182
  207TIP3    H2  586   1.719   6.246   4.685  0.5398  0.9745  3.6531
  208TIP3   OH2  587   3.105   4.796   2.686 -0.7693  0.6523 -0.3096
  208TIP3    H1  588   3.185   4.806   2.635  1.6554 -2.5776  2.3683
  208TIP3    H2  589   3.047   4.745   2.629  0.5919 -0.1300 -1.0535
  209TIP3   OH2  590   5.897   1.773   0.985 -0.5062 -0.2254 -0.0566
  209TIP3    H1  591   5.916   1.680   0.980  1.4512  0.1284  0.0194
  209TIP3    H2  592   5.942   1.802   1.065 -1.4768  0.7130  0.1771
  210TIP3   OH2  593   3.566   2.246   1.200  0.0264  0.2943  0.5396
  210TIP3    H1  594   3.491   2.296   1.231 -0.1541 -0.3784  1.2431
  210TIP3    H2  595   3.639   2.276   1.255  0.1301  0.4936  0.2912
  211TIP3   OH2  596   0.905   4.491   3.765 -0.3568 -0.3589 -0.3034
  211TIP3    H1  597   0.821   4.498   3.810 -0.6271 -2.0539 -0.4753
  211TIP3    H2  598   0.959   4.435   3.821 -0.4548 -1.9132 -1.6596
  212TIP3   OH2  599   2.645   6.385   4.493 -0.5318 -0.4727 -0.2942
  212TIP3    H1  600   2.694   6.448   4.442 -0.5185  0.2090  0.5375
  212TIP3    H2  601   2.685   6.300   4.473 -0.6279 -0.2438 -1.5001
  213TIP3   OH2  602   3.215   0.658   2.016 -0.2873  0.0035  0.0725
  213TIP3    H1  603   3.241   0.741   1.976  0.5035 -0.9923 -1.6053
  213TIP3    H2  604   3.296   0.621   2.050 -0.3096 -0.8709 -0.7854
  214TIP3   OH2  605   4.632   2.611   2.839 -0.0754 -0.4632 -0.8890
  214TIP3    H1  606   4.648   2.530   2.789  0.0509 -1.3211  0.4946
  214TIP3    H2  607   4.704   2.668   2.815  1.2287 -1.6877 -0.0402
  215TIP3   OH2  608   0.824   1.612   2.027 -0.8825  0.2156  0.3944
  215TIP3    H1  609   0.756   1.650   1.971  0.5683 -1.2869 -2.5933
  215TIP3    H2  610   0.865   1.687   2.070 -0.9390  1.6507 -1.9173
  216TIP3   OH2  611   2.299   2.427   0.787 -0.0348  0.1429  0.3052
  216TIP3    H1  612   2.204   2.440   0.781  0.0005  0.5351  0.5360
  216TIP3    H2  613   2.315   2.408   0.879  0.3255  2.0327  0.6748
  217TIP3   OH2  614   3.083   4.113   4.079 -0.5969  0.0035  0.2269
  217TIP3    H1  615   3.089   4.117   4.174  0.7037 -1.3594  0.2454
  217TIP3    H2  616   3.111   4.024   4.057  0.7143  0.7973 -1.5200
  218TIP3   OH2  617   5.702   0.852   0.171 -0.2456  0.0032 -0.1618
  218TIP3    H1  618   5.659   0.900   0.241  0.6810 -1.2085  1.2949
  218TIP3    H2  619   5.712   0.917   0.101  0.9625  1.9929  1.7092
  219TIP3   OH2  620   6.377   1.441   0.606  0.1519  0.2375 -0.2380
  219TIP3    H1  621   6.333   1.392   0.676 -0.9223  1.1134 -0.2663
  219TIP3    H2  622   6.402   1.375   0.543 -0.1935 -0.4154  0.2935
  220TIP3   OH2  623   6.590   2.196   1.716 -0.2805  0.1398 -0.3110
  220TIP3    H1  624   6.603   2.157   1.629  2.0950  2.8262 -1.3544
  220TIP3    H2  625   6.607   2.125   1.777  0.7414 -1.2006 -2.0480
  221TIP3   OH2  626   0.592   2.748   3.396  0.5036  0.1546 -0.3074
  221TIP3    H1  627   0.498   2.736   3.382  0.3636  0.4208  0.3409
  221TIP3    H2  628   0.606   2.842   3.386  0.8478  0.0176 -1.1902
  222TIP3   OH2  629   3.796   1.979   5.366 -0.0976  0.2539  0.0115
  222TIP3    H1  630   3.827   1.930   5.289 -2.0173 -1.7302  0.4001
  222TIP3    H2  631   3.865   2.043   5.383  0.8321  0.1361 -2.7812
  223TIP3   OH2  632   1.424   5.506   4.293 -0.3077  0.2102 -0.3820
  223TIP3    H1  633   1.381   5.587   4.320 -1.9613 -1.2154  1.5082
  223TIP3    H2  634   1.480   5.483   4.366  0.6266 -0.0819 -1.1658
  224TIP3   OH2  635   2.883   6.808   0.828 -0.1976 -0.2427 -0.2771
  224TIP3    H1  636   2.837   6.737   0.783 -0.8199 -1.5854  2.2663
  224TIP3    H2  637   2.969   6.771   0.849 -0.8606 -0.6686  1.8940
  225TIP3   OH2  638   5.654   4.537   2.026 -0.3919 -0.4069  0.4859
  225TIP3    H1  639   5.576   4.547   2.080 -1.1366  2.1225 -0.8596
  225TIP3    H2  640   5.726   4.533   2.088 -1.4877 -2.0506  1.7460
  226TIP3   OH2  641   5.178   0.515   3.670 -0.1418 -0.3813 -0.0075
  226TIP3    H1  642   5.192   0.605   3.639 -0.2576 -0.3735 -0.0368
  226TIP3    H2  643   5.112   0.479   3.610 -0.5449 -0.2893  0.3790
  227TIP3   OH2  644   3.865   3.625   5.607 -0.0948 -0.1011 -0.1635
  227TIP3    H1  645   3.814   3.592   5.533 -2.3139  1.5417  0.5175
  227TIP3    H2  646   3.827   3.581   5.684 -0.6437  1.2332  0.3649
  228TIP3   OH2  647   0.710   6.076   2.020 -0.4140 -0.3986  0.1442
  228TIP3    H1  648   0.651   6.132   1.970 -0.5262  0.4584  1.2152
  228TIP3    H2  649   0.797   6.113   2.004 -0.5056  0.1825  0.9777
  229TIP3   OH2  650   2.791   3.260   4.786 -0.8814  0.0936 -0.0691
  229TIP3    H1  651   2.840   3.203   4.726  1.1051  0.8629  0.7611
  229TIP3    H2  652   2.835   3.249   4.870 -1.9989  1.0356  0.6573
  230TIP3   OH2  653   0.098   0.545   1.961 -0.3379 -0.3042 -0.1762
  230TIP3    H1  654   0.173   0.508   1.913 -0.8421 -1.0023 -0.4408
  230TIP3    H2  655   0.111   0.639   1.956  0.0905 -0.3937 -0.9202
  231TIP3   OH2  656   6.449   2.683   5.480  0.1825  0.4790  0.1047
  231TIP3    H1  657   6.440   2.653   5.389  2.0029  1.0459 -0.3024
  231TIP3    H2  658   6.405   2.768   5.482 -2.8117 -0.9659  0.6491
  232TIP3   OH2  659   2.294   1.572   0.345  0.1386  0.4058  0.0585
  232TIP3    H1  660   2.292   1.522   0.264 -2.1740 -1.0400  0.8922
  232TIP3    H2  661   2.322   1.660   0.319  1.8438 -0.6283 -1.8592
  233TIP3   OH2  662   1.331   5.364   4.988  0.2738 -0.1168  0.9432
  233TIP3    H1  663   1.333   5.438   5.049  0.5455  1.2574 -0.6553
  233TIP3    H2  664   1.412   5.371   4.939 -1.3237  0.8032 -1.7677
  234TIP3   OH2  665   3.745   5.266   0.650 -0.3273  0.1364  0.2653
  234TIP3    H1  666   3.763   5.266   0.556  0.1204  4.3320  0.1429
  234TIP3    H2  667   3.667   5.212   0.659 -0.5822 -0.1473 -2.5820
  235TIP3   OH2  668   3.239   0.901   5.554  0.1507  0.5569 -0.8627
  235TIP3    H1  669   3.285   0.955   5.618  1.1273 -0.3139 -0.7978
  235TIP3    H2  670   3.153   0.942   5.546  0.7216  1.9028 -0.5528
  236TIP3   OH2  671   0.512   2.992   4.738  0.6751 -0.6359  0.4413
  236TIP3    H1  672   0.508   2.975   4.644  2.0210 -0.7002  0.3823
  236TIP3    H2  673   0.525   3.086   4.746 -0.2505 -0.5027  0.6098
  237TIP3   OH2  674   5.893   0.331   0.006  0.4985 -0.4961 -0.2689
  237TIP3    H1  675   5.912   0.259   0.066  1.3516 -1.3763 -1.5337
  237TIP3    H2  676   5.947   0.312  -0.071 -0.8114  0.3896 -1.4487
  238TIP3   OH2  677   4.276   3.238   5.020 -0.0119  0.3947  0.5016
  238TIP3    H1  678   4.353   3.295   5.015  0.2743 -0.0588 -0.6465
  238TIP3    H2  679   4.290   3.173   4.952 -0.2983 -1.1180  1.8383
  239TIP3   OH2  680   1.802   1.576   1.569 -0.7287  0.1044  0.2722
  239TIP3    H1  681   1.813   1.608   1.479  0.4824 -1.3476 -0.1375
  239TIP3    H2  682   1.707   1.572   1.581 -0.9102  0.7775 -0.7709
  240TIP3   OH2  683   6.836   3.979   4.715  0.8066 -0.1129  0.7853
  240TIP3    H1  684   6.838   3.906   4.653  1.6184 -1.1311  1.9680
  240TIP3    H2  685   6.922   4.019   4.708  0.5397  0.4142  0.5099
  241TIP3   OH2  686   6.807   0.411   3.642 -0.0235  0.2654 -0.8318
  241TIP3    H1  687   6.843   0.354   3.574 -0.3187  0.2481 -0.9778
  241TIP3    H2  688   6.713   0.413   3.623 -0.0510  0.5781 -0.6604
  242TIP3   OH2  689   4.486   2.026   3.281 -0.0220 -0.5401  0.1901
  242TIP3    H1  690   4.477   2.079   3.201  0.1679 -0.2564  0.3546
  242TIP3    H2  691   4.431   1.950   3.265 -0.0216 -0.4637 -0.1958
  243TIP3   OH2  692   3.756   4.683   4.656  0.3822  0.1668  0.5011
  243TIP3    H1  693   3.696   4.728   4.596  0.7531 -0.8690 -0.7174
  243TIP3    H2  694   3.703   4.665   4.734  0.1539  2.3773  0.9211
  244TIP3   OH2  695   6.946   3.052   0.737 -0.3048  0.0801 -0.4430
  244TIP3    H1  696   6.859   3.064   0.699 -0.7414 -1.2600  0.0626
  244TIP3    H2  697   6.986   3.138   0.732 -1.5007  0.6333 -1.0769
  245TIP3   OH2  698   2.429   5.937   3.489  0.4274  0.1876 -0.6015
  245TIP3    H1  699   2.504   5.929   3.430  0.8908  2.0602 -0.3541
  245TIP3    H2  700   2.385   5.853   3.485  1.8024 -0.5092 -1.7788
  246TIP3   OH2  701   1.900   2.668   1.323  0.4115 -0.6974 -0.3667
  246TIP3    H1  702   1.833   2.606   1.350  1.2396 -1.4003  0.1077
  246TIP3    H2  703   1.938   2.700   1.405  1.3188 -1.0468 -0.6372
  247TIP3   OH2  704   5.687   3.582   5.080 -0.0751 -0.3477 -0.3346
  247TIP3    H1  705   5.707   3.495   5.045 -1.0824 -1.7276  2.2312
  247TIP3    H2  706   5.768   3.609   5.124 -0.3102 -0.8495  0.4281
  248TIP3   OH2  707   6.726   5.281   0.751 -0.5463 -0.5636  0.1127
  248TIP3    H1  708   6.811   5.271   0.707 -0.2233 -0.1703  0.6317
  248TIP3    H2  709   6.715   5.375   0.760  0.2243 -0.6434  2.4211
  249TIP3   OH2  710   2.643   0.353   4.009 -0.7865 -0.5104 -0.1212
  249TIP3    H1  711   2.658   0.339   4.103 -0.4325  0.8166  0.0424
  249TIP3    H2  712   2.576   0.288   3.986 -1.3631 -0.4292  1.2007
  250TIP3   OH2  713   0.574   6.078   1.603 -0.1238  0.5830  0.0648
  250TIP3    H1  714   0.539   6.065   1.691  0.5097 -2.4926 -0.0442
  250TIP3    H2  715   0.504   6.125   1.556 -0.8605  1.4001  1.9005
  251TIP3   OH2  716   3.250   2.550   4.216  0.5200 -0.1306  0.1087
  251TIP3    H1  717   3.207   2.469   4.244 -1.2114  1.4882  2.7232
  251TIP3    H2  718   3.178   2.604   4.184  1.3448  0.9659  0.0717
  252TIP3   OH2  719   1.287   0.622   3.419  0.1164  0.1616 -0.4754
  252TIP3    H1  720   1.368   0.672   3.403  0.5996 -0.8598 -1.3763
  252TIP3    H2  721   1.297   0.543   3.365 -0.4787 -1.0743  1.1431
  253TIP3   OH2  722   0.425   2.813   0.807  0.2428  0.0952 -0.2253
  253TIP3    H1  723   0.395   2.794   0.718  0.1758  2.6560 -0.8134
  253TIP3    H2  724   0.353   2.782   0.863 -1.7231  2.2734 -1.3568
  254TIP3   OH2  725   0.026   0.079   1.708 -0.2166  0.0514  0.0199
  254TIP3    H1  726   0.022  -0.009   1.670  0.1248 -0.2367  0.6290
  254TIP3    H2  727   0.119   0.093   1.725 -0.3015  0.4110  0.1897
  255TIP3   OH2  728   2.120   1.870   0.486 -0.5630  0.9272  0.6290
  255TIP3    H1  729   2.172   1.853   0.564 -1.8866  0.9456  1.5442
  255TIP3    H2  730   2.072   1.789   0.470  2.8788 -0.7577 -2.8359
  256TIP3   OH2  731   3.725   6.365   5.032  0.7896  0.1866  0.6880
  256TIP3    H1  732   3.802   6.329   5.075 -1.1955 -5.7431  0.1946
  256TIP3    H2  733   3.662   6.377   5.103  0.6464  0.2168  0.5561
  257TIP3   OH2  734   4.708   6.236   3.966 -0.1905 -0.3385 -0.5130
  257TIP3    H1  735   4.731   6.171   3.900  0.4775  1.8669 -2.6326
  257TIP3    H2  736   4.619   6.262   3.945 -0.3636 -0.3915  0.1442
  258TIP3   OH2  737   5.294   4.956   0.617  0.1375  0.1241 -0.1492
  258TIP3    H1  738   5.307   5.040   0.661 -0.8455  0.6971 -0.9158
  258TIP3    H2  739   5.218   4.918   0.661  0.0251  0.0551 -0.4031
  259TIP3   OH2  740   0.556   3.832   4.409  0.5225 -0.0412  0.4534
  259TIP3    H1  741   0.643   3.840   4.369  0.1389  0.2330 -0.3522
  259TIP3    H2  742   0.567   3.765   4.476  1.4231  0.1898  0.5497
  260TIP3   OH2  743   1.698   2.094   2.905 -0.0475 -0.7366 -0.0318
  260TIP3    H1  744   1.675   2.080   2.814  0.4168  0.2311 -0.3122
  260TIP3    H2  745   1.793   2.106   2.904 -0.3044  1.9823  0.1787
  261TIP3   OH2  746   4.002   0.155   0.508 -0.1284  0.4014  0.5935
  261TIP3    H1  747   3.984   0.232   0.563  0.1391 -0.3252  1.7470
  261TIP3    H2  748   4.047   0.190   0.431  1.0784  1.2719  1.6502
  262TIP3   OH2  749   2.036   0.790   3.449  0.0645 -0.2659 -0.4231
  262TIP3    H1  750   2.071   0.847   3.517 -0.8666  2.1364 -1.8240
  262TIP3    H2  751   1.962   0.839   3.413 -1.2329 -2.7028 -1.2782
  263TIP3   OH2  752   2.424   3.822   0.030 -0.1290  0.0373 -0.3993
  263TIP3    H1  753   2.516   3.847   0.034 -0.4823  1.3280  0.4108
  263TIP3    H2  754   2.388   3.873  -0.043 -0.1047 -0.8834 -1.0770
  264TIP3   OH2  755   0.700   4.962   5.013 -0.5831  0.5215  0.0945
  264TIP3    H1  756   0.791   4.987   4.999 -0.2180 -0.7740 -0.0087
  264TIP3    H2  757   0.676   5.003   5.096  0.5350 -0.2374  0.8218
  265TIP3   OH2  758   3.381   0.948   4.493 -0.5045  0.3534 -0.0535
  265TIP3    H1  759   3.464   0.931   4.448 -1.4686 -1.2633 -1.3637
  265TIP3    H2  760   3.406   0.984   4.578  1.5196  0.2360 -0.5578
  266TIP3   OH2  761   4.005   6.132   1.062  0.1021 -0.0009 -0.4488
  266TIP3    H1  762   4.066   6.147   1.134  1.5561  2.2588 -1.9843
  266TIP3    H2  763   4.060   6.094   0.992 -0.5759  0.5803 -1.3216
  267TIP3   OH2  764   3.048   0.595   1.633 -0.0857  0.0133  0.6083
  267TIP3    H1  765   3.035   0.682   1.671  0.5828  0.3662  0.0455
  267TIP3    H2  766   3.043   0.535   1.707  2.3031  0.7741  1.4580
  268TIP3   OH2  767   1.472   5.815   0.322 -0.3127  0.5524 -0.4523
  268TIP3    H1  768   1.423   5.741   0.288  0.4693 -0.1185 -0.1465
  268TIP3    H2  769   1.518   5.851   0.246  0.2843 -0.0444 -0.3764
  269TIP3   OH2  770   5.236   3.870   2.370 -0.3156  0.1247 -0.1116
  269TIP3    H1  771   5.254   3.879   2.276  1.0657  1.2502  0.2272
  269TIP3    H2  772   5.173   3.798   2.375  1.5969 -1.8369 -1.7197
  270TIP3   OH2  773   4.394   5.284   5.832  0.4008 -0.7095 -0.2853
  270TIP3    H1  774   4.350   5.256   5.912  1.1852  2.1196  1.2906
  270TIP3    H2  775   4.478   5.320   5.862  1.7112 -1.5687 -2.6544
  271TIP3   OH2  776   0.852   2.192   0.592 -0.0138  0.4593 -0.2325
  271TIP3    H1  777   0.843   2.254   0.665  0.9598 -0.0037  0.2926
  271TIP3    H2  778   0.946   2.179   0.583 -0.1218  0.4149 -1.5118
  272TIP3   OH2  779   2.517   2.317   0.602 -0.0388  0.2907 -0.1239
  272TIP3    H1  780   2.439   2.368   0.625  0.0953  0.6084 -0.3564
  272TIP3    H2  781   2.491   2.226   0.615  0.3036  0.4533  2.1757
  273TIP3   OH2  782   3.437   0.094   1.867 -0.6910  0.3761 -0.1561
  273TIP3    H1  783   3.470   0.026   1.925 -0.9375  0.6741  0.3343
  273TIP3    H2  784   3.477   0.075   1.782  0.2261  0.3609  0.2756
  274TIP3   OH2  785   3.905   3.537   3.608 -0.4868 -0.3437  0.4217
  274TIP3    H1  786   3.875   3.624   3.580 -1.2299 -0.2943  1.3229
  274TIP3    H2  787   3.835   3.478   3.582 -2.6049  0.0508  4.4618
  275TIP3   OH2  788   5.540   6.767   1.077 -0.7823  0.4362 -0.1064
  275TIP3    H1  789   5.486   6.840   1.049  0.4898  1.9137  1.0852
  275TIP3    H2  790   5.612   6.765   1.015  0.1035  1.3740  0.8359
  276TIP3   OH2  791   4.609   5.935   4.049 -0.3946  0.8485 -0.9185
  276TIP3    H1  792   4.516   5.943   4.067 -0.1798  1.5826 -0.0603
  276TIP3    H2  793   4.619   5.961   3.957 -0.9891  1.0928 -0.9140
  277TIP3   OH2  794   4.310   5.657   1.432  0.0669  0.4085 -0.1080
  277TIP3    H1  795   4.315   5.744   1.473  0.3418  1.1259 -1.5908
  277TIP3    H2  796   4.399   5.623   1.435  0.0432  0.3677  0.0994
  278TIP3   OH2  797   3.022   3.153   1.858  0.1081  0.2304 -0.2463
  278TIP3    H1  798   3.074   3.082   1.896 -0.8995 -0.3590  0.0831
  278TIP3    H2  799   2.973   3.189   1.933  0.5558  1.2286 -0.4234
  279TIP3   OH2  800   5.128   2.275   3.603  0.2286  0.2722 -0.4855
  279TIP3    H1  801   5.143   2.289   3.509 -0.8580 -1.7617 -1.0199
  279TIP3    H2  802   5.044   2.317   3.621 -0.1529 -0.3771 -0.7205
  280TIP3   OH2  803   4.057   3.607   0.518 -0.1513  0.2710 -0.2180
  280TIP3    H1  804   4.020   3.691   0.490 -1.8038 -0.4919 -0.4637
  280TIP3    H2  805   4.000   3.578   0.589  2.8117  1.2140  2.7534
  281TIP3   OH2  806   5.322   2.309   1.353  0.1427 -0.3476 -0.0852
  281TIP3    H1  807   5.329   2.332   1.260  0.0925 -0.8170 -0.2110
  281TIP3    H2  808   5.412   2.311   1.385  0.0093  1.4045  0.2648
  282TIP3   OH2  809   0.385   3.747   5.761 -0.4799 -0.0527  0.1279
  282TIP3    H1  810   0.452   3.724   5.696 -0.4295  0.6823 -0.0907
  282TIP3    H2  811   0.302   3.727   5.717 -0.4203 -0.9085  0.3771
  283TIP3   OH2  812   5.006   5.172   3.689  0.0327 -0.6928  0.3771
  283TIP3    H1  813   5.093   5.164   3.650 -0.9082  1.5481 -2.4977
  283TIP3    H2  814   4.953   5.106   3.646 -0.2768 -0.2926  0.1292
  284TIP3   OH2  815   2.152   4.014   3.420  0.3594  0.1107  0.0902
  284TIP3    H1  816   2.239   4.010   3.379  0.0768 -0.4257 -0.4615
  284TIP3    H2  817   2.111   4.090   3.380 -0.4490 -1.2179 -1.7249
  285TIP3   OH2  818   6.364   6.362   3.835  0.1077  0.1011  0.3930
  285TIP3    H1  819   6.402   6.315   3.762 -0.2551  0.6388 -0.1526
  285TIP3    H2  820   6.423   6.345   3.909  1.0930  0.4841 -0.2993
  286TIP3   OH2  821   7.204   2.930   2.237 -0.3527  0.0821  0.0368
  286TIP3    H1  822   7.272   2.867   2.216  0.2442  0.9158 -0.6004
  286TIP3    H2  823   7.194   2.923   2.332 -1.6731 -2.3172 -0.1904
  287TIP3   OH2  824   6.677   2.233   4.060 -0.0399 -0.3057 -0.0972
  287TIP3    H1  825   6.611   2.276   4.006 -0.6245 -1.2462 -0.1523
  287TIP3    H2  826   6.629   2.199   4.135  0.3448 -1.1009 -0.1955
  288TIP3   OH2  827   1.014   1.499   0.060 -0.0913  0.5330  0.1234
  288TIP3    H1  828   1.005   1.577   0.114 -0.8767  0.1302  0.5938
  288TIP3    H2  829   0.935   1.498   0.006  0.0833  0.2479 -0.1300
  289TIP3   OH2  830   1.191   0.224   3.529 -0.0831  0.3291  0.0413
  289TIP3    H1  831   1.107   0.222   3.483 -1.2751 -1.0050  2.1211
  289TIP3    H2  832   1.203   0.134   3.560  1.6891  0.7147  0.5653
  290TIP3   OH2  833   5.121   3.808   0.421  0.1326  0.5618  0.2936
  290TIP3    H1  834   5.141   3.811   0.515  2.2380 -1.1391 -0.0139
  290TIP3    H2  835   5.037   3.851   0.413  0.9298  2.8113  2.6634
  291TIP3   OH2  836   6.177   4.726   1.517 -0.4620 -0.3240  0.3921
  291TIP3    H1  837   6.202   4.766   1.433 -1.3846  0.8573  0.6512
  291TIP3    H2  838   6.085   4.751   1.529 -0.6527 -1.3592  1.2659
  292TIP3   OH2  839   7.198   3.539   3.035 -0.2341  0.0495 -0.1839
  292TIP3    H1  840   7.233   3.588   3.109  0.4441  0.5770 -0.8381
  292TIP3    H2  841   7.150   3.604   2.984  0.1904 -0.0864 -0.7624
  293TIP3   OH2  842   4.987   5.811   0.555 -0.2068 -0.7989 -0.8950
  293TIP3    H1  843   4.933   5.736   0.531  0.2106 -0.7924 -1.8787
  293TIP3    H2  844   5.027   5.786   0.638  0.4411 -1.9411 -1.5386
  294TIP3   OH2  845   2.971   2.652   3.865  0.3172 -0.0540  0.5727
  294TIP3    H1  846   2.951   2.737   3.827 -1.9678 -1.1221 -0.8377
  294TIP3    H2  847   3.027   2.609   3.800  0.2778 -0.1505  0.6022
  295TIP3   OH2  848   3.586   4.274   1.334 -0.2635  0.0251 -0.9566
  295TIP3    H1  849   3.660   4.244   1.281  0.3950 -0.4762  0.2112
  295TIP3    H2  850   3.550   4.194   1.372  0.3609  0.4910  0.7162
  296TIP3   OH2  851   3.964   3.975   0.059  0.1812 -0.0360  0.6002
  296TIP3    H1  852   4.023   4.044   0.030 -0.5827 -0.0042 -0.9802
  296TIP3    H2  853   4.001   3.895   0.022 -0.6719 -0.0260 -0.3372
  297TIP3   OH2  854   2.805   6.273   5.444  0.0733 -0.2352  0.4067
  297TIP3    H1  855   2.791   6.355   5.397 -0.6684 -0.3743  0.3612
  297TIP3    H2  856   2.890   6.242   5.414  0.1979  0.3389  0.1537
  298TIP3   OH2  857   5.210   3.984   2.634  0.6328  0.0896 -0.1533
  298TIP3    H1  858   5.219   3.957   2.543  1.7744 -0.1446  0.0120
  298TIP3    H2  859   5.121   3.958   2.658  0.1699  0.5374 -1.3183
  299TIP3   OH2  860   2.550   4.532   3.371 -0.0294 -0.2474 -0.2380
  299TIP3    H1  861   2.488   4.602   3.394  0.0661 -0.7168  1.6066
  299TIP3    H2  862   2.616   4.576   3.317 -1.4249  0.4630 -1.4764
  300TIP3   OH2  863   1.767   0.858   0.468 -0.4854  0.4742  0.1157
  300TIP3    H1  864   1.699   0.832   0.406 -1.5375  1.9767  0.5803
  300TIP3    H2  865   1.834   0.901   0.415 -0.5585  0.2131 -0.1871
  301TIP3   OH2  866   1.810   3.191   2.815 -0.6579  0.6232 -0.1218
  301TIP3    H1  867   1.894   3.198   2.860 -0.1977  0.8483 -0.9978
  301TIP3    H2  868   1.788   3.097   2.820  0.4407  0.2742 -1.2649
  302TIP3   OH2  869   1.829   4.639   4.008  0.0144 -0.2142 -0.1676
  302TIP3    H1  870   1.890   4.587   4.061 -0.2177  2.0452  2.5601
  302TIP3    H2  871   1.878   4.718   3.986 -1.1794  0.6647  0.2107
  303TIP3   OH2  872   5.287   3.051   4.112  0.5681 -0.1201 -0.4239
  303TIP3    H1  873   5.224   3.034   4.182  0.7876  2.9603  0.6685
  303TIP3    H2  874   5.369   3.070   4.157  0.3774  3.3055 -1.2895
  304TIP3   OH2  875   5.108   0.611   4.517  0.1008  0.5064  0.4264
  304TIP3    H1  876   5.191   0.658   4.510  0.7271 -0.6117 -0.0272
  304TIP3    H2  877   5.041   0.678   4.504  0.9617  0.8701 -3.3969
  305TIP3   OH2  878   6.538   6.066   5.872  0.4471  0.3354 -0.0301
  305TIP3    H1  879   6.586   6.021   5.941 -0.3834  1.7009  1.5082
  305TIP3    H2  880   6.570   6.027   5.791  0.7635 -2.0005  1.1341
  306TIP3   OH2  881   3.189   0.882   5.029  0.2561  0.4302  0.2305
  306TIP3    H1  882   3.269   0.932   5.014  0.5702 -0.4752 -1.3457
  306TIP3    H2  883   3.219   0.791   5.034 -0.8995 -0.2871 -3.4653
  307TIP3   OH2  884   0.023   1.890   4.659  0.0123 -1.0776 -0.5264
  307TIP3    H1  885  -0.069   1.914   4.671 -0.0272 -2.3197  2.5445
  307TIP3    H2  886   0.062   1.966   4.617 -1.6717  1.1758  1.6777
  308TIP3   OH2  887   4.503   6.098   4.444  0.5989  0.1250 -0.2880
  308TIP3    H1  888   4.510   6.171   4.381 -1.8635 -0.3891 -1.2792
  308TIP3    H2  889   4.546   6.025   4.400 -0.5673 -0.0673 -1.1649
  309TIP3   OH2  890   0.943   3.004   2.080 -0.0040 -0.3581 -0.0351
  309TIP3    H1  891   1.037   3.002   2.096 -0.0325 -0.0949  0.1719
  309TIP3    H2  892   0.933   2.976   1.989  0.2354 -0.8932  0.0987
  310TIP3   OH2  893   6.632   4.685   1.935  0.5604 -0.0936 -0.2720
  310TIP3    H1  894   6.673   4.770   1.951 -0.7023  1.1745 -3.1207
  310TIP3    H2  895   6.704   4.623   1.927  1.6712  1.2347 -0.7866
  311TIP3   OH2  896   5.910   5.629   5.493 -0.0190 -0.2182 -0.0538
  311TIP3    H1  897   5.937   5.560   5.553  4.6439  1.6728  0.4594
  311TIP3    H2  898   5.946   5.602   5.408  2.6866  1.7627  0.3350
  312TIP3   OH2  899   5.503   0.521   4.050 -0.2832 -0.1093  0.1406
  312TIP3    H1  900   5.597   0.523   4.035 -0.1321 -1.6578  0.7139
  312TIP3    H2  901   5.492   0.473   4.132 -1.6411 -1.6726 -0.8690
  313TIP3   OH2  902   0.591   3.361   0.506  0.8866 -0.3275  0.8295
  313TIP3    H1  903   0.593   3.406   0.421  1.0171 -0.9719  0.4766
  313TIP3    H2  904   0.613   3.428   0.570 -0.5381  0.4947  0.4952
  314TIP3   OH2  905   6.062   2.836   2.440 -0.5131  0.4045 -0.2071
  314TIP3    H1  906   6.067   2.821   2.346 -0.7705 -1.1166 -0.0119
  314TIP3    H2  907   5.970   2.817   2.462 -0.5370  1.0905  0.2933
  315TIP3   OH2  908   1.290   0.132   3.138  0.1237 -0.3273 -0.2686
  315TIP3    H1  909   1.327   0.045   3.120 -0.5998 -0.5649 -0.6394
  315TIP3    H2  910   1.206   0.132   3.093  0.8861  1.2314 -1.8005
  316TIP3   OH2  911   4.787   0.328   4.220 -0.0047  0.1349  0.2640
  316TIP3    H1  912   4.879   0.314   4.242 -0.1075  0.2575  0.7918
  316TIP3    H2  913   4.744   0.344   4.304 -0.8015 -1.5448  0.2104
  317TIP3   OH2  914   7.125   4.648   4.522 -0.0424 -0.2959 -0.4226
  317TIP3    H1  915   7.039   4.648   4.479  0.7137  0.9783 -2.0425
  317TIP3    H2  916   7.153   4.556   4.519 -0.2069 -0.3206 -2.3527
  318TIP3   OH2  917   2.505   2.176   2.449  0.0514 -0.2560 -0.5465
  318TIP3    H1  918   2.446   2.145   2.380  0.5481 -0.4047 -0.9147
  318TIP3    H2  919   2.451   2.232   2.504 -0.3619 -0.1489 -1.0506
  319TIP3   OH2  920   4.839   4.607   2.057  0.4699  0.2458 -0.0944
  319TIP3    H1  921   4.873   4.626   2.144  1.3002 -2.2144  0.1954
  319TIP3    H2  922   4.752   4.648   2.056  0.7114  0.8891  1.6231
  320TIP3   OH2  923   6.499   3.922   3.802  0.4586  0.6895 -0.7921
  320TIP3    H1  924   6.525   3.960   3.886  0.5599 -0.8100 -0.1026
  320TIP3    H2  925   6.569   3.860   3.782 -0.6376 -0.5596 -0.8659
  321TIP3   OH2  926   5.631   5.499   3.279 -0.1414  0.2080  0.2197
  321TIP3    H1  927   5.550   5.521   3.232  0.0409  0.2529 -0.0768
  321TIP3    H2  928   5.609   5.513   3.371 -0.3993  0.4528  0.1252
  322TIP3   OH2  929   1.084   3.382   0.285  0.1831  0.0692 -0.3995
  322TIP3    H1  930   1.116   3.341   0.365  0.5089  1.1401  0.0451
  322TIP3    H2  931   1.153   3.364   0.220 -0.0487 -0.7393 -0.4268
  323TIP3   OH2  932   6.530   3.307   1.842 -0.3665  0.8929  0.6417
  323TIP3    H1  933   6.577   3.225   1.861 -0.7130  0.7668  0.9552
  323TIP3    H2  934   6.537   3.358   1.922 -0.0351  1.2331  0.4010
  324TIP3   OH2  935   1.756   5.078   3.975 -0.3485 -0.7200  0.5699
  324TIP3    H1  936   1.839   5.125   3.985  0.5065 -2.2921  1.3030
  324TIP3    H2  937   1.720   5.076   4.064 -1.4480  0.4006  0.1663
  325TIP3   OH2  938   6.802   5.252   4.995 -0.3741 -0.0413  0.2687
  325TIP3    H1  939   6.870   5.274   5.059  2.1399  1.3526 -2.6655
  325TIP3    H2  940   6.778   5.336   4.956 -1.1913 -0.9313 -1.2110
  326TIP3   OH2  941   1.956   0.985   5.650 -0.0700 -0.2139 -0.4642
  326TIP3    H1  942   1.931   0.917   5.587  1.0791  0.9954 -2.3218
  326TIP3    H2  943   1.875   1.032   5.669 -1.2336 -2.9109  2.0555
  327TIP3   OH2  944   4.449   0.600   0.029  0.2249  0.5989  0.3741
  327TIP3    H1  945   4.517   0.664   0.009  1.1385  0.0411  1.5787
  327TIP3    H2  946   4.469   0.525  -0.028  0.5530  0.4891  0.6287
  328TIP3   OH2  947   1.651   0.349   5.785 -0.3104  0.6537 -0.2748
  328TIP3    H1  948   1.746   0.344   5.791 -0.0776  1.8641 -2.0770
  328TIP3    H2  949   1.634   0.371   5.693 -2.4510 -1.9804 -0.6579
  329TIP3   OH2  950   1.353   4.770   4.305 -0.0175  0.2087 -0.1237
  329TIP3    H1  951   1.290   4.722   4.360  1.4536  0.2054  1.6396
  329TIP3    H2  952   1.309   4.853   4.286 -0.6852  0.0901  0.8077
  330TIP3   OH2  953   0.943   3.321   5.710 -0.2592 -0.0876  0.6623
  330TIP3    H1  954   0.939   3.228   5.733 -0.2361 -0.2746 -0.0666
  330TIP3    H2  955   0.864   3.359   5.749 -0.6113 -0.5411  0.3839
  331TIP3   OH2  956   1.651   2.223   0.420 -0.7961  0.5104 -0.1094
  331TIP3    H1  957   1.650   2.128   0.423 -0.5889  0.4977 -0.4302
  331TIP3    H2  958   1.736   2.247   0.457 -0.9927  0.5869  0.3059
  332TIP3   OH2  959   3.902   6.394   1.063 -0.7160 -0.8336  0.0036
  332TIP3    H1  960   3.914   6.305   1.099  2.3116 -0.7829 -0.5810
  332TIP3    H2  961   3.915   6.384   0.969  0.2274  0.2563 -0.0102
  333TIP3   OH2  962   2.431   3.809   5.667 -0.3742 -0.1345  0.1292
  333TIP3    H1  963   2.450   3.724   5.626  1.2646 -0.0813  0.6982
  333TIP3    H2  964   2.498   3.819   5.734 -0.0861  1.9371 -0.3918
  334TIP3   OH2  965   2.301   6.799   5.521  0.1148 -0.3088  0.3667
  334TIP3    H1  966   2.207   6.806   5.510  0.0989 -1.7281 -0.6655
  334TIP3    H2  967   2.338   6.823   5.436  0.6357 -0.5279  0.5255
  335TIP3   OH2  968   5.560   5.431   4.017 -0.3884 -0.4981  0.0804
  335TIP3    H1  969   5.625   5.501   4.017 -0.1848 -0.6538 -1.6137
  335TIP3    H2  970   5.573   5.387   4.101  1.8662 -0.6663 -0.2852
  336TIP3   OH2  971   4.506   4.662   4.609 -0.2320  0.3986 -0.3613
  336TIP3    H1  972   4.439   4.731   4.613  1.3845  2.0116  0.5867
  336TIP3    H2  973   4.515   4.633   4.700 -2.0255 -2.3328 -0.9438
  337TIP3   OH2  974   3.721   5.791   4.931 -0.6104 -0.0573  0.5648
  337TIP3    H1  975   3.760   5.777   5.017 -0.3391 -0.9434  0.3150
  337TIP3    H2  976   3.781   5.850   4.886  0.7385 -1.7435  0.0267
  338TIP3   OH2  977   0.588   2.851   0.384  0.1448 -0.0011 -0.3411
  338TIP3    H1  978   0.581   2.807   0.300  0.4411  1.2890 -1.0660
  338TIP3    H2  979   0.500   2.845   0.422 -0.1637  0.0011 -1.0479
  339TIP3   OH2  980   0.637   4.303   5.282  0.0926  0.7526 -0.4918
  339TIP3    H1  981   0.606   4.364   5.349  0.3587  0.5802 -0.2166
  339TIP3    H2  982   0.677   4.360   5.216 -2.0124  1.1297 -1.5473
  340TIP3   OH2  983   4.911   0.918   1.966  0.0995  0.1655 -0.1010
  340TIP3    H1  984   4.863   0.900   2.046  1.2291  0.5309  0.6886
  340TIP3    H2  985   4.859   0.983   1.920 -0.0630  0.7169  0.8371
  341TIP3   OH2  986   7.179   2.885   0.806 -0.6710  0.1673 -0.7504
  341TIP3    H1  987   7.093   2.924   0.789 -0.9372  1.9003  3.2937
  341TIP3    H2  988   7.242   2.956   0.790 -0.4849  0.2607  0.2956
  342TIP3   OH2  989   3.822   5.724   5.501  0.2614 -0.1234 -0.1371
  342TIP3    H1  990   3.913   5.740   5.523 -0.1323  0.1636  1.3902
  342TIP3    H2  991   3.795   5.802   5.452  0.0786  1.1191  1.8526
  343TIP3   OH2  992   1.815   1.911   5.504  0.0102  0.3235 -0.1068
  343TIP3    H1  993   1.873   1.977   5.466  0.2191 -0.1568 -0.6453
  343TIP3    H2  994   1.868   1.866   5.569  0.3657 -0.3576 -0.8563
  344TIP3   OH2  995   5.642   0.055   3.462  0.0034 -0.0821  0.7865
  344TIP3    H1  996   5.562   0.095   3.429 -0.2398 -0.2663  1.1457
  344TIP3    H2  997   5.709   0.121   3.449  0.0898 -0.4277 -0.8302
  345TIP3   OH2  998   0.166   5.081   3.475 -0.1422 -0.1824 -0.1718
  345TIP3    H1  999   0.144   5.085   3.382  0.1107  0.8302 -0.2057
  345TIP3    H2 1000   0.228   5.008   3.481  0.2465  0.0674 -0.8972
  346TIP3   OH2 1001   5.313   2.058   1.203  0.2675 -0.5818  0.2269
  346TIP3    H1 1002   5.408   2.044   1.204  0.5943  1.3398 -0.7289
  346TIP3    H2 1003   5.299   2.133   1.260 -0.6252 -0.4890 -0.1039
  347TIP3   OH2 1004   5.645  -0.022   1.736 -0.1934  0.0064 -0.2500
  347TIP3    H1 1005   5.550  -0.033   1.736 -0.2783  0.3312  1.8385
  347TIP3    H2 1006   5.661   0.057   1.788  1.1732  0.8044 -1.7985
  348TIP3   OH2 1007   0.933   6.374   3.655 -0.2580 -0.6073  0.5256
  348TIP3    H1 1008   0.898   6.462   3.667 -0.3420 -0.7194  1.1574
  348TIP3    H2 1009   0.933   6.360   3.560 -0.1732  0.0977  0.4209
  349TIP3   OH2 1010   4.083   1.416   3.221  0.1574  0.2723 -0.2112
  349TIP3    H1 1011   4.127   1.422   3.306  0.4744  1.0734 -0.4229
  349TIP3    H2 1012   4.107   1.329   3.188 -0.5209 -0.3231  0.8089
  350TIP3   OH2 1013   3.637   3.876   0.600 -0.3203 -0.3246  0.0520
  350TIP3    H1 1014   3.668   3.795   0.558  1.1917  0.4915 -0.4550
  350TIP3    H2 1015   3.640   3.856   0.693  0.0898 -0.8296 -0.0623
  351TIP3   OH2 1016   0.718   5.911   2.739  0.4727  0.4268  0.3032
  351TIP3    H1 1017   0.652   5.866   2.792  0.4371  1.2467  0.9894
  351TIP3    H2 1018   0.801   5.875   2.770  0.4533  0.9123  0.9504
  352TIP3   OH2 1019   4.955   1.637   1.854  0.2142  0.0960  0.8162
  352TIP3    H1 1020   5.024   1.670   1.911 -1.3361  0.9318  2.2945
  352TIP3    H2 1021   4.939   1.548   1.886 -0.4105  0.4394  1.4899
  353TIP3   OH2 1022   0.831   6.307   4.636  0.2289 -0.3169 -0.2018
  353TIP3    H1 1023   0.888   6.380   4.661  1.7991 -2.1434  2.0137
  353TIP3    H2 1024   0.865   6.277   4.552  0.5960  0.4932 -0.3486
  354TIP3   OH2 1025   2.312   0.635   2.824 -0.2678 -0.0324 -0.2772
  354TIP3    H1 1026   2.398   0.595   2.807 -0.9266 -1.3769 -0.6122
  354TIP3    H2 1027   2.289   0.606   2.912 -0.0542  0.9720  0.1239
  355TIP3   OH2 1028   0.711   4.709   4.097  0.1168 -0.2982  0.4517
  355TIP3    H1 1029   0.733   4.633   4.043 -1.3045  0.1245 -0.7954
  355TIP3    H2 1030   0.692   4.779   4.034 -3.1773 -0.2289  1.3447
  356TIP3   OH2 1031   3.869   3.459   2.508  0.3734 -0.0645 -0.2440
  356TIP3    H1 1032   3.783   3.460   2.551  0.4339  1.0624 -0.1206
  356TIP3    H2 1033   3.850   3.477   2.416  0.6377  2.5299  0.1568
  357TIP3   OH2 1034   6.107   3.105   4.827  0.3322  0.2317 -0.0678
  357TIP3    H1 1035   6.027   3.094   4.877 -0.3982  0.2075 -1.2158
  357TIP3    H2 1036   6.171   3.138   4.891 -0.6362  0.4429  0.8115
  358TIP3   OH2 1037   4.328   1.594   3.800 -0.3618  0.2005  0.5869
  358TIP3    H1 1038   4.314   1.681   3.762 -0.9928  0.1602  0.7097
  358TIP3    H2 1039   4.241   1.554   3.801  0.2964 -1.5446 -2.0642
  359TIP3   OH2 1040   4.112   2.914   5.727  0.1117  0.4816  0.4470
  359TIP3    H1 1041   4.056   2.837   5.731 -1.6581  1.6862  0.1340
  359TIP3    H2 1042   4.154   2.918   5.813 -0.4237 -0.3547  0.7587
  360TIP3   OH2 1043   6.305   1.695   4.493 -0.2006  0.0072 -0.1137
  360TIP3    H1 1044   6.399   1.682   4.478 -0.6450 -1.6936 -1.8477
  360TIP3    H2 1045   6.269   1.709   4.405 -1.8457 -1.5524  0.2620
  361TIP3   OH2 1046   6.188   2.290   4.833  0.4673  0.2623  0.2394
  361TIP3    H1 1047   6.185   2.208   4.882  0.3421 -0.8288 -1.5476
  361TIP3    H2 1048   6.251   2.275   4.763  0.1095  1.5286 -0.3902
  362TIP3   OH2 1049   6.738   5.276   3.987 -0.2156  0.1943 -0.3656
  362TIP3    H1 1050   6.703   5.304   4.072  0.0600 -0.5119 -0.0143
  362TIP3    H2 1051   6.830   5.256   4.005 -0.2397 -0.2795 -0.7603
  363TIP3   OH2 1052   6.128   2.365   0.180  0.0740  0.3134 -0.4867
  363TIP3    H1 1053   6.211   2.388   0.223 -1.5552  1.9785  2.0279
  363TIP3    H2 1054   6.133   2.270   0.169  1.2809 -0.0141  2.0562
  364TIP3   OH2 1055   2.977   6.417   4.144 -0.1879 -0.4087 -0.0539
  364TIP3    H1 1056   3.072   6.427   4.148 -0.1113 -1.3210  3.3078
  364TIP3    H2 1057   2.944   6.507   4.132  1.0608 -0.1257 -1.6110
  365TIP3   OH2 1058   2.183   3.915   0.445  0.2190 -0.0613  0.0191
  365TIP3    H1 1059   2.144   3.843   0.496 -1.0155  1.8091  1.9003
  365TIP3    H2 1060   2.138   3.911   0.361 -1.5449 -0.1238  0.9075
  366TIP3   OH2 1061   0.236   0.890   1.347 -0.4131  0.3610  0.4868
  366TIP3    H1 1062   0.323   0.855   1.371 -1.3050 -0.4802  2.7827
  366TIP3    H2 1063   0.178   0.814   1.352 -1.3853  0.9975 -0.6395
  367TIP3   OH2 1064   2.109   5.107   4.222 -0.2380 -0.0636  0.6314
  367TIP3    H1 1065   2.112   5.202   4.233  0.6673  0.0556 -0.4259
  367TIP3    H2 1066   2.030   5.080   4.268 -0.0401  1.0883  1.7245
  368TIP3   OH2 1067   2.995   3.672   2.457  0.3220  0.2626 -0.1445
  368TIP3    H1 1068   3.055   3.743   2.436  2.7668 -1.9326 -1.1153
  368TIP3    H2 1069   2.956   3.647   2.373 -1.9530  1.5186  0.4381
  369TIP3   OH2 1070   4.483   2.870   2.823  0.0097  0.1429 -0.1427
  369TIP3    H1 1071   4.538   2.792   2.825 -0.8986 -0.5544 -1.2939
  369TIP3    H2 1072   4.449   2.878   2.912  1.6128  0.3614  0.4946
  370TIP3   OH2 1073   6.329   3.826   3.242 -0.8040 -0.0232 -0.1249
  370TIP3    H1 1074   6.398   3.854   3.303 -0.0466  0.7001 -1.2935
  370TIP3    H2 1075   6.311   3.903   3.188 -3.0342  0.0197  0.5710
  371TIP3   OH2 1076   1.979   5.172   3.226  0.1026 -0.1980 -0.2234
  371TIP3    H1 1077   2.031   5.185   3.305  0.5048 -0.4981 -0.4347
  371TIP3    H2 1078   1.986   5.078   3.207 -0.4622 -0.2292 -0.2915
  372TIP3   OH2 1079   3.557   4.759   4.471 -0.9114  0.1545  0.0994
  372TIP3    H1 1080   3.527   4.695   4.406 -1.1366 -0.6669  0.9827
  372TIP3    H2 1081   3.489   4.826   4.473 -1.2971 -0.2271  0.0427
  373TIP3   OH2 1082   3.269   1.902   5.106  0.3556 -0.1557 -0.0016
  373TIP3    H1 1083   3.279   1.924   5.198 -1.9897 -1.2757  0.5905
  373TIP3    H2 1084   3.266   1.806   5.105  1.7710 -0.2275 -1.4461
  374TIP3   OH2 1085   5.880   4.563   0.382  0.0348 -0.4005  0.2782
  374TIP3    H1 1086   5.903   4.631   0.445 -1.9310 -0.4333  1.0885
  374TIP3    H2 1087   5.846   4.491   0.435  0.2314 -1.2539 -0.7080
  375TIP3   OH2 1088   7.119   2.045   5.362  0.1676 -0.5219 -0.5529
  375TIP3    H1 1089   7.167   2.110   5.414 -1.1646 -0.5181  0.7231
  375TIP3    H2 1090   7.144   1.961   5.400 -1.0732 -0.4995  0.3761
  376TIP3   OH2 1091   3.496   5.562   0.260 -0.1482  0.0925  0.0160
  376TIP3    H1 1092   3.449   5.555   0.177 -0.8337  1.0999  0.3115
  376TIP3    H2 1093   3.576   5.510   0.246 -0.0277  0.6184 -1.4249
  377TIP3   OH2 1094   5.897   6.822   3.712 -0.9830 -0.1560  0.3882
  377TIP3    H1 1095   5.963   6.868   3.764 -0.3495  0.3895 -0.8563
  377TIP3    H2 1096   5.933   6.735   3.698 -0.5731  0.0937 -0.1634
  378TIP3   OH2 1097   6.679   2.716   0.165 -0.1174 -0.3240 -0.0473
  378TIP3    H1 1098   6.588   2.692   0.182 -0.3508  0.0971 -0.6625
  378TIP3    H2 1099   6.723   2.634   0.145 -0.2437 -0.5948  0.7460
  379TIP3   OH2 1100   0.246   1.140   1.276 -0.9128 -0.0511 -0.1821
  379TIP3    H1 1101   0.255   1.045   1.285 -0.2096  0.0372  0.0628
  379TIP3    H2 1102   0.153   1.156   1.292 -0.6421 -0.4447  2.2122
  380TIP3   OH2 1103   0.033   3.767   0.876  0.0464  0.9473  0.1092
  380TIP3    H1 1104  -0.033   3.723   0.823  0.9384 -0.6340  0.2688
  380TIP3    H2 1105   0.027   3.725   0.962  0.4663  1.6127  0.4760
  381TIP3   OH2 1106   1.587   5.501   2.441  0.1275  0.1507 -0.4406
  381TIP3    H1 1107   1.655   5.510   2.373 -0.4269  2.1362 -0.7900
  381TIP3    H2 1108   1.636   5.497   2.523  0.6931  1.1434 -0.7170
  382TIP3   OH2 1109   4.780   0.049   5.775  0.0100  0.0194 -0.4144
  382TIP3    H1 1110   4.691   0.033   5.808 -0.4667  3.1493  0.1467
  382TIP3    H2 1111   4.770   0.046   5.680 -0.3445 -1.1195 -0.3592
  383TIP3   OH2 1112   3.384   5.097   1.746  0.0950  0.6906 -0.4592
  383TIP3    H1 1113   3.420   5.033   1.685 -0.8321 -0.4432  0.1284
  383TIP3    H2 1114   3.327   5.152   1.692  1.7834  1.8058 -1.1849
  384TIP3   OH2 1115   4.014   0.800   2.078 -0.5906  0.3199 -0.2532
  384TIP3    H1 1116   3.950   0.814   2.008 -0.6380 -0.3864 -0.3595
  384TIP3    H2 1117   3.967   0.747   2.142 -0.6627  1.2565  0.4852
  385TIP3   OH2 1118   5.710   3.817   1.341  0.3219  0.7851 -0.0272
  385TIP3    H1 1119   5.704   3.890   1.402  2.2967 -0.0028  1.2233
  385TIP3    H2 1120   5.636   3.761   1.363  0.1669  1.2494  0.6538
  386TIP3   OH2 1121   2.874   5.532   5.737  0.0606 -0.5230  0.0383
  386TIP3    H1 1122   2.834   5.550   5.651  1.6575 -0.3895 -0.7159
  386TIP3    H2 1123   2.935   5.604   5.750  0.0242 -0.6829  1.1954
  387TIP3   OH2 1124   0.178   4.537   2.362  0.0339 -0.7097 -0.0644
  387TIP3    H1 1125   0.137   4.622   2.352  3.0747  0.9884  0.5641
  387TIP3    H2 1126   0.231   4.526   2.282  1.3807 -0.9266  0.8165
  388TIP3   OH2 1127   1.709   6.610   4.212  0.0338  0.0885  0.2602
  388TIP3    H1 1128   1.784   6.551   4.213  0.2104  0.2959  2.0436
  388TIP3    H2 1129   1.713   6.656   4.296 -1.1933  1.2549 -0.2795
  389TIP3   OH2 1130   2.474   0.258   1.374  0.3479 -0.2392 -0.7196
  389TIP3    H1 1131   2.405   0.314   1.337  0.1219 -1.4162 -2.1613
  389TIP3    H2 1132   2.435   0.222   1.454 -0.1854  0.2108 -0.7669
  390TIP3   OH2 1133   2.179   3.889   5.827 -0.1120 -0.0410  0.0565
  390TIP3    H1 1134   2.222   3.839   5.758 -0.0809 -1.0759  0.8156
  390TIP3    H2 1135   2.221   3.975   5.822  0.8922 -0.5296 -0.2910
  391TIP3   OH2 1136   0.283   1.375   1.976 -0.3441 -0.1265  0.0301
  391TIP3    H1 1137   0.268   1.315   2.049  1.3807 -2.4467 -1.3996
  391TIP3    H2 1138   0.256   1.326   1.898  1.2233  0.8754 -1.2038
  392TIP3   OH2 1139   5.106   1.020   3.898  0.1165  0.1989  0.5653
  392TIP3    H1 1140   5.100   0.926   3.877  1.0880  0.2455  0.0149
  392TIP3    H2 1141   5.016   1.052   3.890  0.0982 -0.2358 -1.4885
  393TIP3   OH2 1142   5.665   0.311   0.657 -0.0925  0.2180 -0.1705
  393TIP3    H1 1143   5.584   0.263   0.677  0.9952 -1.3824  0.6162
  393TIP3    H2 1144   5.639   0.403   0.660 -2.1885 -0.2655 -1.3396
  394TIP3   OH2 1145   4.491   2.854   0.363  0.1460  0.5639 -0.0434
  394TIP3    H1 1146   4.418   2.888   0.415 -1.3044 -1.2250 -0.7904
  394TIP3    H2 1147   4.455   2.843   0.275  1.9119  1.4446 -0.9340
  395TIP3   OH2 1148   5.904   4.117   3.327 -0.2147 -0.0276 -0.1157
  395TIP3    H1 1149   5.886   4.163   3.409  0.6940  1.4589 -0.7233
  395TIP3    H2 1150   5.878   4.179   3.259  0.1687 -0.7845 -0.9663
  396TIP3   OH2 1151   6.636   0.901   4.048 -0.4787  0.1539 -0.2716
  396TIP3    H1 1152   6.720   0.870   4.081 -0.1847  1.8315  0.6645
  396TIP3    H2 1153   6.643   0.997   4.052 -3.1656  0.3749  1.8106
  397TIP3   OH2 1154   6.864   1.100   3.888  0.3591 -0.0251  0.3563
  397TIP3    H1 1155   6.888   1.181   3.842 -0.4685  0.7199  1.1907
  397TIP3    H2 1156   6.775   1.082   3.858  1.2718 -1.8478 -1.4602
  398TIP3   OH2 1157   3.072   3.069   3.819 -0.0155 -0.0485  0.0791
  398TIP3    H1 1158   3.076   3.160   3.787 -0.1338  0.3412  1.1309
  398TIP3    H2 1159   3.161   3.036   3.809 -0.2426 -0.2645 -1.5237
  399TIP3   OH2 1160   6.072   4.198   1.193 -0.0989  0.2876  0.1511
  399TIP3    H1 1161   6.150   4.162   1.234 -0.2514  0.6764  0.7916
  399TIP3    H2 1162   6.035   4.257   1.258  1.2551  3.2842 -1.6024
  400TIP3   OH2 1163   5.952   3.031   2.959 -0.2382 -0.6862  0.1015
  400TIP3    H1 1164   5.889   3.081   2.906  0.5679  0.9518  0.6168
  400TIP3    H2 1165   5.979   3.093   3.027  1.6523 -1.4733  0.1023
  401TIP3   OH2 1166   5.156   3.442   1.230 -0.7491  0.7834 -0.2438
  401TIP3    H1 1167   5.249   3.443   1.255 -0.7489 -0.7710 -0.0391
  401TIP3    H2 1168   5.152   3.378   1.159 -1.5591  1.3749 -0.7417
  402TIP3   OH2 1169   1.984   1.533   1.799  0.4320 -0.1200  0.2718
  402TIP3    H1 1170   1.996   1.442   1.826  1.4677  0.6402  2.6051
  402TIP3    H2 1171   1.894   1.537   1.767  0.3253 -1.9209  0.2633
  403TIP3   OH2 1172   1.131   6.757   3.586  0.5157  0.1375  0.0732
  403TIP3    H1 1173   1.051   6.707   3.600  0.6248  0.2457  1.1789
  403TIP3    H2 1174   1.129   6.781   3.494 -0.3246 -0.5433 -0.0914
  404TIP3   OH2 1175   4.952   2.218   2.752 -0.3355  0.3128  0.4088
  404TIP3    H1 1176   4.860   2.204   2.775 -1.3118  2.1392 -1.9013
  404TIP3    H2 1177   4.970   2.308   2.781  0.8703 -0.1300  1.1258
  405TIP3   OH2 1178   4.271   5.082   1.280 -0.0113  0.2096  0.3443
  405TIP3    H1 1179   4.287   4.991   1.254  2.0249  0.0379  1.9550
  405TIP3    H2 1180   4.358   5.116   1.300 -0.7227  2.5773 -0.2988
  406TIP3   OH2 1181   6.544   1.214   4.915  0.0807  0.2519  0.0131
  406TIP3    H1 1182   6.580   1.292   4.872 -0.5659 -0.6504 -2.3590
  406TIP3    H2 1183   6.607   1.145   4.896  0.3693  0.0355  1.6230
  407TIP3   OH2 1184   3.886   6.469   4.340 -0.5604 -0.2951  0.5707
  407TIP3    H1 1185   3.824   6.396   4.340  1.9785 -2.6166  0.5013
  407TIP3    H2 1186   3.931   6.462   4.424  0.8841  0.1149 -0.1402
  408TIP3   OH2 1187   6.709   0.705   1.702  0.0120  0.2462  0.4840
  408TIP3    H1 1188   6.723   0.611   1.692  0.5619  0.2004  1.5557
  408TIP3    H2 1189   6.735   0.724   1.792 -1.1158  1.2473  0.6271
  409TIP3   OH2 1190  -0.011   5.188   1.046 -0.1864 -0.1749  0.2477
  409TIP3    H1 1191  -0.041   5.274   1.073 -0.1809 -0.5088  1.3718
  409TIP3    H2 1192   0.063   5.205   0.988 -0.6759  0.5864 -0.1622
  410TIP3   OH2 1193   5.473   4.443   5.333 -0.1074 -0.5460  0.5852
  410TIP3    H1 1194   5.469   4.353   5.302 -0.5288 -0.3440  0.0351
  410TIP3    H2 1195   5.497   4.494   5.255 -1.6026  0.0221  0.4638
  411TIP3   OH2 1196   4.963   1.704   4.643 -0.4308 -0.0208 -0.0852
  411TIP3    H1 1197   4.978   1.618   4.603 -0.7213 -0.1574  0.1037
  411TIP3    H2 1198   4.958   1.764   4.568 -2.3001 -0.4623 -0.3515
  412TIP3   OH2 1199   6.032   4.542   4.993  0.4976 -0.0354  0.3455
  412TIP3    H1 1200   6.111   4.574   5.037 -0.0059  1.1786  0.4137
  412TIP3    H2 1201   6.012   4.610   4.929 -1.7828  0.8723  1.9026
  413TIP3   OH2 1202   0.091   2.593   1.034  0.5335  0.2377 -0.3043
  413TIP3    H1 1203   0.132   2.602   0.948 -0.1338 -0.6655 -0.7325
  413TIP3    H2 1204   0.067   2.683   1.058  3.8075  1.0128  0.5453
  414TIP3   OH2 1205   6.321   6.130   3.274  0.1485 -0.0522 -0.3826
  414TIP3    H1 1206   6.279   6.176   3.346  1.0524  0.0859  0.0668
  414TIP3    H2 1207   6.393   6.187   3.247  1.2875 -1.1787  0.1765
  415TIP3   OH2 1208   4.102   0.558   4.466  0.1807 -0.3672 -0.5715
  415TIP3    H1 1209   4.186   0.564   4.420 -0.3439 -0.3564 -1.5606
  415TIP3    H2 1210   4.113   0.613   4.543  2.2101 -2.9627  1.1557
  416TIP3   OH2 1211   4.988   2.999   3.039  0.5080  0.4333 -0.2179
  416TIP3    H1 1212   5.067   2.975   2.990  0.4278  0.6665 -0.4698
  416TIP3    H2 1213   5.008   2.979   3.130  2.2124  3.7258  0.2950
  417TIP3   OH2 1214   3.915   2.499   2.774  0.0379 -0.2274  0.2558
  417TIP3    H1 1215   3.821   2.507   2.757  0.1762  0.9196 -0.0433
  417TIP3    H2 1216   3.957   2.549   2.704  0.7525  1.6956  1.9461
  418TIP3   OH2 1217   2.558   3.809   2.308 -0.0036  0.0393  0.5952
  418TIP3    H1 1218   2.493   3.860   2.259  0.2077  0.1141  0.3879
  418TIP3    H2 1219   2.631   3.870   2.320 -0.7482  0.6109  2.5608
  419TIP3   OH2 1220   5.004   3.985   0.818 -0.2032 -0.3994 -0.6995
  419TIP3    H1 1221   4.953   3.906   0.834 -0.6961 -0.0433 -0.4683
  419TIP3    H2 1222   5.031   4.013   0.906 -0.6744  0.1031 -0.7081
  420TIP3   OH2 1223   7.069   5.193   1.457  0.4218 -0.2429  0.3236
  420TIP3    H1 1224   7.054   5.150   1.373  0.2227  1.7486 -0.7145
  420TIP3    H2 1225   7.161   5.219   1.454  0.1748  0.6416  0.3253
  421TIP3   OH2 1226   1.527   6.647   0.245  0.4772 -0.5305 -0.7567
  421TIP3    H1 1227   1.455   6.700   0.209  0.6278  1.3827  1.4954
  421TIP3    H2 1228   1.489   6.605   0.322  1.2154 -1.1919 -0.7444
  422TIP3   OH2 1229   5.755   1.148   4.318 -0.1591  0.4822  1.2190
  422TIP3    H1 1230   5.714   1.234   4.329  0.2694  0.9082 -0.2226
  422TIP3    H2 1231   5.849   1.166   4.321 -0.0167  0.3890 -0.8193
  423TIP3   OH2 1232   5.097   6.528   5.727 -0.0705  0.5909  0.1488
  423TIP3    H1 1233   5.093   6.547   5.821  0.4197  0.8326  0.1226
  423TIP3    H2 1234   5.077   6.435   5.721 -0.1609  0.5849  0.4882
  424TIP3   OH2 1235   4.016   4.459   0.150 -0.6632  0.2721 -0.0823
  424TIP3    H1 1236   4.030   4.532   0.210  1.6941  2.0639 -2.5432
  424TIP3    H2 1237   4.074   4.390   0.182 -1.2603  0.2603  1.0178
  425TIP3   OH2 1238   0.138   2.238   1.351 -0.2985  0.1942 -0.2722
  425TIP3    H1 1239   0.132   2.238   1.256 -1.4247  1.9285 -0.2455
  425TIP3    H2 1240   0.090   2.160   1.378 -0.6948  0.1441 -1.0922
  426TIP3   OH2 1241   0.497   6.661   0.599 -0.4662 -0.0455  0.3636
  426TIP3    H1 1242   0.476   6.728   0.664 -1.4889 -0.3463  0.3587
  426TIP3    H2 1243   0.492   6.578   0.647 -0.1261 -0.1903  0.1537
  427TIP3   OH2 1244   3.843   6.025   4.505  0.3963 -0.3394 -0.0365
  427TIP3    H1 1245   3.928   6.068   4.516  0.5542 -0.6619  0.0186
  427TIP3    H2 1246   3.809   6.016   4.594  0.4647 -0.5298 -0.0295
  428TIP3   OH2 1247   3.441   3.823   3.820 -0.8183  0.8181  0.1082
  428TIP3    H1 1248   3.443   3.737   3.778 -1.0277 -0.5051  2.5539
  428TIP3    H2 1249   3.385   3.877   3.764 -2.0780 -1.1663 -0.6476
  429TIP3   OH2 1250   6.312   0.534   1.553 -0.0089 -0.1719 -0.1967
  429TIP3    H1 1251   6.406   0.536   1.533  0.0744  0.2815  0.1989
  429TIP3    H2 1252   6.269   0.546   1.469  0.3415  3.1267 -0.0616
  430TIP3   OH2 1253   1.200   1.155   4.038 -0.2791 -0.4324 -0.1518
  430TIP3    H1 1254   1.279   1.179   4.087  0.1861 -0.1130 -1.0402
  430TIP3    H2 1255   1.224   1.074   3.992 -1.3863 -1.8972  1.7197
  431TIP3   OH2 1256   6.841   1.572   5.504  0.4338  0.6728  0.9107
  431TIP3    H1 1257   6.821   1.528   5.421 -3.4238  2.0571  0.9020
  431TIP3    H2 1258   6.864   1.502   5.564 -0.6371 -0.8309 -0.3591
  432TIP3   OH2 1259   0.642   2.256   2.480 -0.1497 -0.2095 -0.0717
  432TIP3    H1 1260   0.609   2.208   2.557 -0.9214  1.3395  0.6090
  432TIP3    H2 1261   0.712   2.310   2.514 -1.1836  1.2683 -0.2135
  433TIP3   OH2 1262   1.877   4.444   4.849 -0.3020  0.0034 -0.0161
  433TIP3    H1 1263   1.916   4.441   4.762 -0.3031 -0.6566  0.0020
  433TIP3    H2 1264   1.803   4.384   4.844 -0.1233 -0.2681  0.5320
  434TIP3   OH2 1265   2.254   5.604   1.503 -0.2504 -0.1611  0.3339
  434TIP3    H1 1266   2.238   5.664   1.430 -0.8164 -0.6433  0.0556
  434TIP3    H2 1267   2.172   5.556   1.513  0.8192 -2.4121 -0.8610
  435TIP3   OH2 1268   1.048   2.104   4.139 -0.3076 -0.3188  0.3024
  435TIP3    H1 1269   1.034   2.199   4.136  2.8150  0.2244 -0.6634
  435TIP3    H2 1270   1.098   2.085   4.059  0.7936 -2.4453  1.4259
  436TIP3   OH2 1271   6.001   4.606   4.620 -0.0154 -0.1584  0.9232
  436TIP3    H1 1272   5.917   4.625   4.577  1.7409 -0.0790 -2.8705
  436TIP3    H2 1273   6.008   4.511   4.618 -0.2867 -0.2119  1.9295
  437TIP3   OH2 1274   0.041   6.579   5.526 -0.2128 -0.8214  0.0481
  437TIP3    H1 1275   0.129   6.554   5.497 -0.1137 -0.8295  0.3473
  437TIP3    H2 1276   0.055   6.616   5.613 -0.4528 -0.4260 -0.0780
  438TIP3   OH2 1277   7.144   0.912   2.267  0.1703  0.0515  0.1765
  438TIP3    H1 1278   7.144   0.829   2.315  0.8872  0.3604  0.7334
  438TIP3    H2 1279   7.063   0.956   2.294 -0.2714 -0.5098 -0.2136
  439TIP3   OH2 1280   6.574   1.714   5.292 -0.0342  0.7019 -0.0025
  439TIP3    H1 1281   6.565   1.769   5.215 -1.1395  0.6826  0.0939
  439TIP3    H2 1282   6.623   1.767   5.355  0.8171  0.7389 -0.6845
  440TIP3   OH2 1283   1.810   1.589   5.479  0.3066  0.1189  0.0297
  440TIP3    H1 1284   1.789   1.542   5.560  2.7240 -1.1428  0.0211
  440TIP3    H2 1285   1.727   1.627   5.451 -0.9035 -0.6830  2.2824
  441TIP3   OH2 1286   0.477   6.580   2.832  0.6075  0.7155  0.0892
  441TIP3    H1 1287   0.545   6.579   2.765  0.2499  2.0678 -0.3154
  441TIP3    H2 1288   0.525   6.580   2.915  1.0602 -0.0918 -0.1653
  442TIP3   OH2 1289   4.364   4.974   5.848  0.2430  0.5146  0.2301
  442TIP3    H1 1290   4.451   5.015   5.843  0.8766 -0.6948  0.9217
  442TIP3    H2 1291   4.350   4.961   5.941  0.0916 -0.8802  0.0319
  443TIP3   OH2 1292   6.778   2.387   1.553 -0.3900  0.1998 -0.2207
  443TIP3    H1 1293   6.723   2.461   1.528 -0.3099 -0.4854 -2.6604
  443TIP3    H2 1294   6.718   2.328   1.600 -0.7574  1.1898  0.6028
  444TIP3   OH2 1295   1.600   3.654   2.811 -0.2141 -0.6414  0.1236
  444TIP3    H1 1296   1.571   3.634   2.900  0.0765 -1.6137  0.0141
  444TIP3    H2 1297   1.544   3.599   2.755 -0.0150 -0.4579 -0.2590
  445TIP3   OH2 1298   5.708   0.132   4.824  0.2115  1.0351  0.1391
  445TIP3    H1 1299   5.722   0.038   4.829 -1.4167  0.8178  1.8389
  445TIP3    H2 1300   5.673   0.147   4.736 -0.3698 -0.0950  0.1648
  446TIP3   OH2 1301   2.987   1.290   1.163 -0.2210  0.2820  0.3338
  446TIP3    H1 1302   2.920   1.276   1.096  1.3456 -1.3381 -0.9621
  446TIP3    H2 1303   3.067   1.255   1.126  0.3659 -2.6150  3.7793
  447TIP3   OH2 1304   0.626   3.047   5.497 -0.3492 -0.0329  0.8071
  447TIP3    H1 1305   0.705   2.997   5.515 -1.5430 -2.0354  0.7537
  447TIP3    H2 1306   0.564   2.983   5.461 -1.4311  1.8019 -0.8501
  448TIP3   OH2 1307   3.481   2.951   0.089 -0.1726  0.6683  0.3751
  448TIP3    H1 1308   3.483   3.046   0.097 -1.0691  0.6290  1.1692
  448TIP3    H2 1309   3.569   2.923   0.116 -0.4885  1.1494  1.9882
  449TIP3   OH2 1310   6.223   0.936   0.425  0.4214 -0.2188  0.1024
  449TIP3    H1 1311   6.152   0.874   0.438 -0.0415  0.6544  2.1247
  449TIP3    H2 1312   6.196   0.988   0.350 -0.4309 -0.7793  0.0066
  450TIP3   OH2 1313   3.606   1.289   4.990  0.4081  0.5072 -0.2293
  450TIP3    H1 1314   3.612   1.351   4.917  2.5880 -1.6576 -2.0866
  450TIP3    H2 1315   3.635   1.339   5.066 -1.0479  2.6069 -0.9520
  451TIP3   OH2 1316   3.500   2.769   2.967 -0.0832 -0.3515  0.4474
  451TIP3    H1 1317   3.500   2.681   3.004  2.7044 -0.4702  0.3736
  451TIP3    H2 1318   3.452   2.760   2.885  0.4088 -1.8789  0.2899
  452TIP3   OH2 1319   4.235   5.804   4.883 -0.1562 -0.2117 -0.3264
  452TIP3    H1 1320   4.298   5.788   4.953 -1.6915  1.8444  1.6673
  452TIP3    H2 1321   4.157   5.755   4.909 -0.9695  1.1059 -0.2117
  453TIP3   OH2 1322   5.926   2.845   4.729  0.2337 -0.4316 -0.2937
  453TIP3    H1 1323   5.996   2.895   4.688 -0.0295 -1.4421 -2.1215
  453TIP3    H2 1324   5.964   2.811   4.810  1.4258  0.1269 -0.5970
  454TIP3   OH2 1325   6.854   0.112   1.531 -0.0955 -0.2379 -0.1187
  454TIP3    H1 1326   6.769   0.106   1.487  0.0244  2.6792 -0.9869
  454TIP3    H2 1327   6.886   0.200   1.509  1.6727  0.0047  2.8611
  455TIP3   OH2 1328   3.051   4.419   2.794  0.5338 -0.5353 -0.6306
  455TIP3    H1 1329   2.992   4.478   2.841  0.3318 -0.8673 -0.4620
  455TIP3    H2 1330   3.021   4.422   2.704 -0.1165 -1.1585 -0.4368
  456TIP3   OH2 1331   4.953   6.258   3.583  0.2984 -0.4192 -0.0843
  456TIP3    H1 1332   4.875   6.203   3.594  0.5158 -0.6088  0.5350
  456TIP3    H2 1333   5.015   6.202   3.536  0.5768 -0.7717  0.6833
  457TIP3   OH2 1334   0.660   6.226   3.530  0.0958 -0.0060  0.2456
  457TIP3    H1 1335   0.750   6.207   3.504 -0.1188 -1.8761  0.7507
  457TIP3    H2 1336   0.662   6.319   3.556  1.3602  0.5879 -1.7649
  458TIP3   OH2 1337   1.838   3.377   4.294 -0.2521 -0.6624  0.3926
  458TIP3    H1 1338   1.760   3.322   4.301  0.5736 -1.6953  2.5964
  458TIP3    H2 1339   1.903   3.333   4.349  1.8099  0.3306 -1.1010
  459TIP3   OH2 1340   5.444   2.841   2.223 -0.4081 -0.4654 -0.7070
  459TIP3    H1 1341   5.533   2.828   2.190  0.5137  2.8966  0.0861
  459TIP3    H2 1342   5.440   2.787   2.302  0.3516 -1.8458 -1.5701
  460TIP3   OH2 1343   0.971   0.799   2.844  0.5492 -0.2578 -0.1865
  460TIP3    H1 1344   1.053   0.781   2.798  0.2276 -0.7091 -0.5879
  460TIP3    H2 1345   0.984   0.885   2.883  0.0021  1.1675 -2.9496
  461TIP3   OH2 1346   3.453   0.734   5.596  0.0835  0.0440  0.9428
  461TIP3    H1 1347   3.390   0.803   5.578 -0.8629 -0.7044  1.3262
  461TIP3    H2 1348   3.530   0.757   5.544 -0.3532  1.1796  0.7835
  462TIP3   OH2 1349   5.778   4.635   4.040 -0.1613  0.2204 -0.1805
  462TIP3    H1 1350   5.702   4.579   4.055 -0.2258  0.6252  1.1733
  462TIP3    H2 1351   5.753   4.691   3.967 -1.6864  1.1814  1.0077
  463TIP3   OH2 1352   6.721   6.017   3.621 -0.5860  0.1511  0.0844
  463TIP3    H1 1353   6.792   6.041   3.561 -1.6410  0.9449 -0.9000
  463TIP3    H2 1354   6.643   6.054   3.581 -1.3367  0.7344  2.0025
  464TIP3   OH2 1355   0.287   0.997   1.786 -0.1136 -0.5122 -0.1385
  464TIP3    H1 1356   0.382   0.992   1.789 -0.0782 -0.4781  4.3504
  464TIP3    H2 1357   0.268   1.089   1.770  0.5483 -0.5482 -1.2303
  465TIP3   OH2 1358   3.781   4.430   0.042  0.1458  0.2715 -0.1876
  465TIP3    H1 1359   3.873   4.427   0.068 -0.4129 -2.1680  1.9177
  465TIP3    H2 1360   3.774   4.365  -0.028 -0.2098 -0.6455  0.6790
  466TIP3   OH2 1361   1.832   6.476   5.774  0.2196 -0.0387  0.3026
  466TIP3    H1 1362   1.905   6.526   5.739 -0.4140 -0.2838 -1.5021
  466TIP3    H2 1363   1.872   6.411   5.831  1.5362 -0.7870 -1.3688
  467TIP3   OH2 1364   2.715   3.135   3.696  0.3622  0.7655 -0.3513
  467TIP3    H1 1365   2.644   3.080   3.662 -0.0414  0.5552  0.7709
  467TIP3    H2 1366   2.748   3.182   3.620 -1.7112  1.6892 -0.7586
  468TIP3   OH2 1367   0.694   3.428   4.439  0.4712  0.0595  0.1701
  468TIP3    H1 1368   0.789   3.426   4.436  0.4984 -1.1777  0.9908
  468TIP3    H2 1369   0.667   3.341   4.411 -0.3950  0.2019  0.5318
  469TIP3   OH2 1370   0.223   4.800   4.486 -0.3724 -0.1170 -0.0480
  469TIP3    H1 1371   0.280   4.840   4.421 -0.0226  1.1180  0.9672
  469TIP3    H2 1372   0.188   4.874   4.535  0.1187 -1.0353  1.7726
  470TIP3   OH2 1373   0.863   2.983   0.440 -0.2762  0.4609 -0.1960
  470TIP3    H1 1374   0.901   2.913   0.387 -0.5622  0.2925 -0.1797
  470TIP3    H2 1375   0.774   2.952   0.460  0.0230  0.2532  0.8691
  471TIP3   OH2 1376   4.526   2.210   4.639 -0.0552 -0.1719  0.1221
  471TIP3    H1 1377   4.565   2.165   4.565 -0.2043 -0.1144  0.0071
  471TIP3    H2 1378   4.523   2.302   4.613  0.0534 -0.1268  0.2698
  472TIP3   OH2 1379   3.619   6.738   1.777 -0.0010 -0.0390 -0.2024
  472TIP3    H1 1380   3.680   6.736   1.851  0.5535 -2.2401 -0.6358
  472TIP3    H2 1381   3.539   6.699   1.810  0.2455 -1.0233 -0.7100
  473TIP3   OH2 1382   2.949   5.623   3.336  0.3986 -0.8036 -0.5647
  473TIP3    H1 1383   2.991   5.685   3.397  1.7131 -0.8099 -1.4206
  473TIP3    H2 1384   2.998   5.634   3.254 -1.3985 -0.7259 -1.6661
  474TIP3   OH2 1385   2.693   3.952   5.530  0.0292  0.3116 -0.1482
  474TIP3    H1 1386   2.725   3.869   5.566 -0.3586  0.2396  0.0394
  474TIP3    H2 1387   2.655   3.997   5.605  0.5476  0.8172 -0.1798
  475TIP3   OH2 1388   2.781   3.938   2.632 -0.3885 -0.2267  0.4157
  475TIP3    H1 1389   2.755   4.030   2.644  1.3459  0.2290  0.8788
  475TIP3    H2 1390   2.744   3.915   2.546  0.9661  1.5967 -0.7473
  476TIP3   OH2 1391   3.458   5.895   5.368  0.1172 -0.4039  0.5240
  476TIP3    H1 1392   3.460   5.799   5.374  0.5114 -0.3689  1.0952
  476TIP3    H2 1393   3.409   5.913   5.288 -1.1855 -1.0676  1.1327
  477TIP3   OH2 1394   1.678   4.568   5.160 -0.8967 -0.0927  0.2368
  477TIP3    H1 1395   1.648   4.598   5.074  0.7882 -0.8373 -0.6605
  477TIP3    H2 1396   1.677   4.472   5.152 -2.2248 -0.2345  1.6258
  478TIP3   OH2 1397   6.216   1.097   2.059 -0.1053 -0.2030  0.1135
  478TIP3    H1 1398   6.255   1.096   2.147 -1.0796  1.5800  0.6181
  478TIP3    H2 1399   6.253   1.175   2.018 -0.8071 -0.1883 -0.5007
  479TIP3   OH2 1400   6.532   2.086   3.371  0.0936  0.3385 -0.5847
  479TIP3    H1 1401   6.622   2.112   3.355  0.2629  0.7481  0.9060
  479TIP3    H2 1402   6.531   1.991   3.356  1.1568  0.0650  0.8596
  480TIP3   OH2 1403   2.832   1.990   5.241 -0.3666  0.6771 -0.5046
  480TIP3    H1 1404   2.887   1.933   5.295  0.2700 -0.9709 -2.7168
  480TIP3    H2 1405   2.893   2.050   5.199 -0.7967  1.6033  0.1495
  481TIP3   OH2 1406   1.355   4.912   1.331 -0.6800  0.5445  0.6909
  481TIP3    H1 1407   1.341   4.888   1.423 -0.7782 -1.7901  0.1219
  481TIP3    H2 1408   1.270   4.944   1.301 -0.8869  0.4373  1.1529
  482TIP3   OH2 1409   0.610   6.557   3.065 -0.2875  0.1472  0.0793
  482TIP3    H1 1410   0.681   6.605   3.109  0.6137 -0.7638 -0.3177
  482TIP3    H2 1411   0.614   6.469   3.104 -1.3962  0.1532  0.2411
  483TIP3   OH2 1412   0.599   3.424   5.132  0.1198  0.0268 -0.3729
  483TIP3    H1 1413   0.563   3.346   5.175  0.5954 -0.7867 -1.4005
  483TIP3    H2 1414   0.561   3.497   5.180  0.4658 -0.8294  1.2866
  484TIP3   OH2 1415   3.552   1.903   5.255  0.2181 -0.2205  0.4181
  484TIP3    H1 1416   3.626   1.953   5.289 -0.5649  1.1087  0.2399
  484TIP3    H2 1417   3.479   1.925   5.313  0.1541 -2.2721  1.1930
  485TIP3   OH2 1418   1.100   5.237   4.864  0.3886  0.4701  0.3528
  485TIP3    H1 1419   1.156   5.275   4.932  0.2732 -1.5282  1.6717
  485TIP3    H2 1420   1.159   5.184   4.811 -0.1087 -1.4631  1.6125
  486TIP3   OH2 1421   2.154   3.168   0.666  0.1779  0.0498  0.1649
  486TIP3    H1 1422   2.114   3.096   0.617  1.0254 -0.2018 -0.1690
  486TIP3    H2 1423   2.237   3.133   0.698  1.1722  1.2157 -0.9993
  487TIP3   OH2 1424   2.958   6.638   3.643  0.2023  0.2057  0.7685
  487TIP3    H1 1425   2.923   6.599   3.723 -0.1335  1.9635  1.5377
  487TIP3    H2 1426   3.040   6.679   3.671 -0.0686  1.0939  0.2887
  488TIP3   OH2 1427   7.102   2.991   4.218 -0.0569 -0.1238  0.0598
  488TIP3    H1 1428   7.020   2.967   4.175 -1.3537  1.2180  1.6333
  488TIP3    H2 1429   7.164   2.922   4.192 -1.9771 -1.8304 -0.2618
  489TIP3   OH2 1430   2.176   5.876   5.859 -0.0710 -0.1531 -0.3052
  489TIP3    H1 1431   2.196   5.791   5.896  1.2375  0.2085 -0.1249
  489TIP3    H2 1432   2.145   5.857   5.770  1.5217 -0.7694 -0.7674
  490TIP3   OH2 1433   7.200   5.603   4.785 -0.5572 -0.5279 -0.1247
  490TIP3    H1 1434   7.286   5.592   4.744 -0.0466  1.7302  0.2405
  490TIP3    H2 1435   7.137   5.580   4.717  0.3168  0.0808 -1.1521
  491TIP3   OH2 1436   6.523   6.213   1.318 -0.1952  0.0384  0.1303
  491TIP3    H1 1437   6.506   6.196   1.411  1.3598  0.4039  0.5069
  491TIP3    H2 1438   6.563   6.300   1.317 -1.0873  0.4628 -1.0042
  492TIP3   OH2 1439   5.191   2.533   5.706 -0.1825  0.4120  0.1527
  492TIP3    H1 1440   5.266   2.486   5.671 -0.5872  0.2442 -0.4943
  492TIP3    H2 1441   5.144   2.468   5.759 -1.3406 -0.2519 -1.6138
  493TIP3   OH2 1442   5.447   3.062   3.524 -0.2090 -0.1085 -0.4472
  493TIP3    H1 1443   5.422   2.995   3.460 -1.0547  0.1446 -0.3967
  493TIP3    H2 1444   5.495   3.013   3.591 -1.2300 -0.7620 -0.1632
  494TIP3   OH2 1445   1.429   4.396   5.785  0.4936  0.7403 -0.4186
  494TIP3    H1 1446   1.517   4.423   5.812  0.7976 -0.9643  0.5031
  494TIP3    H2 1447   1.442   4.308   5.748 -0.9429 -0.0159  0.7632
  495TIP3   OH2 1448   5.844   6.562   5.225  0.1068 -0.0112 -0.4311
  495TIP3    H1 1449   5.778   6.559   5.157  1.1408 -0.5226 -1.4426
  495TIP3    H2 1450   5.872   6.471   5.236 -0.0625  0.0545  0.7061
  496TIP3   OH2 1451   7.010   5.937   4.142 -0.0147 -0.1581 -0.2982
  496TIP3    H1 1452   7.047   5.964   4.226  1.1128 -0.8980 -0.5354
  496TIP3    H2 1453   7.084   5.943   4.081 -0.6333 -0.3667 -1.0822
  497TIP3   OH2 1454   5.282   6.386   3.589 -0.0669 -0.1815  0.2943
  497TIP3    H1 1455   5.297   6.292   3.577 -0.7021 -0.3674  0.8937
  497TIP3    H2 1456   5.360   6.417   3.634  0.2980 -0.3514 -0.2089
  498TIP3   OH2 1457   1.790   0.203   1.054 -0.1015 -0.1032  0.5443
  498TIP3    H1 1458   1.823   0.183   1.141  1.1552 -0.1732  0.0655
  498TIP3    H2 1459   1.709   0.252   1.070  0.9865  1.3863  1.7658
  499TIP3   OH2 1460   2.441   6.287   5.268  0.0563 -0.0626  0.4983
  499TIP3    H1 1461   2.418   6.255   5.181 -0.1314 -0.7024  0.7843
  499TIP3    H2 1462   2.454   6.208   5.321  1.0550  0.3039  0.8242
  500TIP3   OH2 1463   3.229   0.125   4.916 -0.3309  0.1973 -0.5208
  500TIP3    H1 1464   3.211   0.069   4.992  1.9476  2.1682  1.6445
  500TIP3    H2 1465   3.310   0.090   4.880 -0.4277  0.3991 -0.9392
  501TIP3   OH2 1466   5.466   5.111   2.559 -0.0476 -0.2763 -0.2232
  501TIP3    H1 1467   5.431   5.170   2.625  1.9558  0.5086  0.2145
  501TIP3    H2 1468   5.497   5.036   2.608  0.9322  0.0563 -0.3145
  502TIP3   OH2 1469   3.830   3.110   2.995 -0.2670 -1.0787 -0.0799
  502TIP3    H1 1470   3.812   3.054   2.919  1.4318 -1.0800 -0.5378
  502TIP3    H2 1471   3.810   3.055   3.071 -1.0440 -1.4171 -0.5225
  503TIP3   OH2 1472   4.441   1.054   1.502 -0.4903 -0.4916  0.6237
  503TIP3    H1 1473   4.497   1.079   1.575  0.6391 -1.4818  0.1285
  503TIP3    H2 1474   4.493   1.075   1.424  0.3259 -3.6923  0.1645
  504TIP3   OH2 1475   3.379   0.851   2.600  0.2341  0.1671 -0.2677
  504TIP3    H1 1476   3.377   0.798   2.680  1.2531 -0.5175 -0.6742
  504TIP3    H2 1477   3.358   0.940   2.629  0.0872 -0.1651  0.6750
  505TIP3   OH2 1478   4.889   5.124   2.440 -0.0744  0.2897 -0.3544
  505TIP3    H1 1479   4.820   5.183   2.469 -0.1773 -0.2389  0.5113
  505TIP3    H2 1480   4.850   5.037   2.442  0.7921 -0.1077  0.8368
  506TIP3   OH2 1481   3.909   4.461   1.576 -0.1266 -0.6666  0.1947
  506TIP3    H1 1482   3.911   4.366   1.563 -1.2919 -1.1352  2.8916
  506TIP3    H2 1483   3.846   4.493   1.512  1.9381 -1.3052 -2.3449
  507TIP3   OH2 1484   3.808   1.735   3.965  0.1705  0.5500  0.2613
  507TIP3    H1 1485   3.761   1.818   3.974  0.1388  0.7509 -1.3465
  507TIP3    H2 1486   3.900   1.758   3.976  0.3773  1.2608 -2.3124
  508TIP3   OH2 1487   5.843   5.508   3.747 -0.2406 -0.0639  0.7815
  508TIP3    H1 1488   5.796   5.555   3.815  0.3114 -0.0956  1.1942
  508TIP3    H2 1489   5.844   5.417   3.777  0.0644 -0.0659  0.7667
  509TIP3   OH2 1490   5.969   3.230   3.162 -0.2697 -0.3564  0.3282
  509TIP3    H1 1491   5.880   3.230   3.198  0.1210  0.1422  1.3540
  509TIP3    H2 1492   6.024   3.209   3.238  0.5816  0.6058 -0.0034
  510TIP3   OH2 1493   3.811   4.464   0.419  0.5396 -0.0559  0.6266
  510TIP3    H1 1494   3.816   4.390   0.358  0.0219  1.0201 -0.7796
  510TIP3    H2 1495   3.722   4.498   0.410  0.5013  0.2345  1.8826
  511TIP3   OH2 1496   0.507   2.228   0.992  0.3352  0.1836 -0.1922
  511TIP3    H1 1497   0.430   2.196   0.946 -0.0031  2.5802 -1.4916
  511TIP3    H2 1498   0.579   2.215   0.929  0.4606  0.5369 -0.1242
  512TIP3   OH2 1499   2.553   0.128   1.130  0.1430  0.3038 -0.5199
  512TIP3    H1 1500   2.556   0.176   1.213 -2.2506  0.1251 -0.2781
  512TIP3    H2 1501   2.555   0.036   1.156 -0.4812  0.2485 -0.6568
  513TIP3   OH2 1502   7.191   1.317   4.617  0.2163  0.9096  0.0637
  513TIP3    H1 1503   7.179   1.399   4.569 -3.3315  0.7372  0.3659
  513TIP3    H2 1504   7.195   1.250   4.548  3.3881  1.2220 -0.1970
  514TIP3   OH2 1505   5.858   3.083   4.004  0.1066  0.4492  0.3041
  514TIP3    H1 1506   5.875   3.043   3.919 -1.9758  2.6605 -1.2615
  514TIP3    H2 1507   5.943   3.121   4.029  0.5212  0.6496 -1.2871
  515TIP3   OH2 1508   6.563   2.170   0.765  0.3173 -0.2365  0.0147
  515TIP3    H1 1509   6.501   2.100   0.745  1.4440 -0.7946 -1.7553
  515TIP3    H2 1510   6.524   2.248   0.725 -0.6156  0.0327  1.4100
  516TIP3   OH2 1511   4.897   6.459   2.006 -0.1716 -0.2960 -0.0611
  516TIP3    H1 1512   4.884   6.502   2.091  0.8516 -0.3013  0.1094
  516TIP3    H2 1513   4.809   6.441   1.974 -0.5627 -0.2320  0.9710
  517TIP3   OH2 1514   5.568   6.271   0.270  0.1472 -0.0363  0.1650
  517TIP3    H1 1515   5.507   6.312   0.209 -0.5712 -0.8198  0.3522
  517TIP3    H2 1516   5.654   6.284   0.229  0.4825  4.7136  1.8093
  518TIP3   OH2 1517   1.494   2.937   0.183  0.3964 -0.6535 -0.1213
  518TIP3    H1 1518   1.406   2.934   0.147  0.2648 -2.4913  0.2449
  518TIP3    H2 1519   1.519   3.029   0.179 -1.5542 -0.0914 -0.1738
  519TIP3   OH2 1520   5.703   2.758   2.118 -0.2844  0.0570 -0.1625
  519TIP3    H1 1521   5.724   2.675   2.160 -1.1594 -0.4176 -0.6260
  519TIP3    H2 1522   5.787   2.791   2.086  0.0392 -0.7662 -0.1731
  520TIP3   OH2 1523   2.575   6.796   5.097 -0.3924 -0.3531  0.0392
  520TIP3    H1 1524   2.546   6.734   5.164  1.8733 -2.9499 -1.1913
  520TIP3    H2 1525   2.565   6.749   5.015  0.6171  1.2666 -1.0729
  521TIP3   OH2 1526   3.345   1.358   3.179 -0.1347 -0.2863  1.0902
  521TIP3    H1 1527   3.407   1.381   3.248  0.2054 -0.4122  0.8314
  521TIP3    H2 1528   3.281   1.302   3.222  0.3140 -0.7127  1.2117
  522TIP3   OH2 1529   4.786   5.177   2.971 -0.3298  0.7335  0.6017
  522TIP3    H1 1530   4.790   5.113   3.041 -0.3909 -0.6901 -0.6461
  522TIP3    H2 1531   4.699   5.166   2.933  0.3883  0.0961 -0.9323
  523TIP3   OH2 1532   6.938   2.999   1.225 -0.2142  0.2466  0.5045
  523TIP3    H1 1533   7.017   2.972   1.178  0.0061  1.3104  0.2496
  523TIP3    H2 1534   6.902   3.071   1.173  0.1762  1.6457  2.0856
  524TIP3   OH2 1535   2.645   0.680   3.028  0.1934 -0.5195  0.1964
  524TIP3    H1 1536   2.605   0.668   3.115 -1.1840 -0.4763 -0.3978
  524TIP3    H2 1537   2.623   0.600   2.981  0.0109 -0.0919 -0.4523
  525TIP3   OH2 1538   2.948   4.690   3.931  0.1841 -0.7068 -0.0870
  525TIP3    H1 1539   2.944   4.785   3.942 -0.3659 -0.5728 -1.2667
  525TIP3    H2 1540   2.864   4.659   3.966  0.5367 -0.8181  0.6870
  526TIP3   OH2 1541   1.796   5.710   1.403 -0.7378 -0.2300  0.1075
  526TIP3    H1 1542   1.842   5.626   1.399  0.1344  0.1647  1.2616
  526TIP3    H2 1543   1.747   5.706   1.485  0.3225  0.8738  0.8179
  527TIP3   OH2 1544   6.911   0.372   1.469  0.8219 -0.5648 -0.1388
  527TIP3    H1 1545   6.883   0.336   1.385  0.2745 -0.6643  0.0855
  527TIP3    H2 1546   6.959   0.451   1.446 -1.9819  1.1897 -0.4471
  528TIP3   OH2 1547   6.863   4.663   3.183  0.0148 -0.0644  0.0325
  528TIP3    H1 1548   6.829   4.577   3.208  0.4571 -0.2021  0.1802
  528TIP3    H2 1549   6.787   4.721   3.183  0.1495  0.2554  2.9766
  529TIP3   OH2 1550   7.219   0.163   2.118  0.1679  0.2411  0.4361
  529TIP3    H1 1551   7.177   0.110   2.186  0.6871 -1.2880 -0.3803
  529TIP3    H2 1552   7.234   0.248   2.159 -1.5935  0.0877  1.4800
  530TIP3   OH2 1553   5.919   2.688   1.057  0.0884  0.2641 -0.1417
  530TIP3    H1 1554   5.980   2.614   1.060 -0.5939 -0.3422 -0.9397
  530TIP3    H2 1555   5.964   2.754   1.004  0.0441 -0.1909 -0.7526
  531TIP3   OH2 1556   1.405   0.528   5.349  0.0346  0.6643 -0.2640
  531TIP3    H1 1557   1.368   0.587   5.283  1.1570  0.2522 -1.2863
  531TIP3    H2 1558   1.493   0.562   5.365 -0.7076  1.6633  2.1713
  532TIP3   OH2 1559   3.129   5.194   0.912  0.6740  0.2643  0.8185
  532TIP3    H1 1560   3.134   5.286   0.938  0.5824  0.7493 -0.7810
  532TIP3    H2 1561   3.196   5.184   0.845 -1.5906  0.1164 -1.6050
  533TIP3   OH2 1562   0.607   2.252   4.933 -0.3970  0.3989  0.1920
  533TIP3    H1 1563   0.538   2.309   4.900  0.0697  0.8365 -0.0319
  533TIP3    H2 1564   0.684   2.273   4.879  0.2293  0.7449  1.1920
  534TIP3   OH2 1565   2.787   3.769   3.467  0.2262 -0.0766  0.0847
  534TIP3    H1 1566   2.873   3.807   3.484  0.6319 -0.1903 -1.5276
  534TIP3    H2 1567   2.728   3.817   3.525  0.9568  1.9522 -0.7391
  535TIP3   OH2 1568   3.131   2.437   1.780  0.9433 -0.1326 -0.4798
  535TIP3    H1 1569   3.134   2.350   1.822 -0.4904  0.6244  1.3684
  535TIP3    H2 1570   3.189   2.491   1.833 -0.1444  0.6165 -0.0112
  536TIP3   OH2 1571   5.401   3.103   2.054  0.5116  0.1163 -0.5786
  536TIP3    H1 1572   5.454   3.056   2.118  0.0445  0.1010 -0.1929
  536TIP3    H2 1573   5.325   3.135   2.104  0.5319  0.7820 -0.9543
  537TIP3   OH2 1574   7.229   6.398   4.752  0.3228 -0.6005  0.3051
  537TIP3    H1 1575   7.190   6.392   4.839 -1.6818  1.0733 -0.3937
  537TIP3    H2 1576   7.163   6.361   4.694  2.2772 -3.1811 -0.4419
  538TIP3   OH2 1577   5.391   0.781   4.026  0.2218  0.1585 -0.2165
  538TIP3    H1 1578   5.426   0.694   4.006 -0.4694  0.1491 -1.4932
  538TIP3    H2 1579   5.343   0.769   4.108  0.8256 -0.4539  0.0667
  539TIP3   OH2 1580   2.027   5.020   0.270  0.1092  0.2499 -0.5010
  539TIP3    H1 1581   2.116   4.985   0.277 -0.6015 -1.6132 -0.2328
  539TIP3    H2 1582   1.993   4.981   0.190 -0.9269 -0.1459  0.1198
  540TIP3   OH2 1583   1.245   6.084   0.026  0.3117 -0.7632 -0.3814
  540TIP3    H1 1584   1.321   6.143   0.020 -0.9644  0.9124 -1.0412
  540TIP3    H2 1585   1.171   6.140   0.005 -1.4441 -1.6858  2.7761
  541TIP3   OH2 1586   6.282   5.790   5.191 -0.2554 -0.2901  0.1788
  541TIP3    H1 1587   6.326   5.776   5.275  0.6239  2.0997  0.2054
  541TIP3    H2 1588   6.264   5.884   5.190 -1.7010 -0.5379 -1.6462
  542TIP3   OH2 1589   5.577   0.326   5.640  0.2621  0.1300 -0.7028
  542TIP3    H1 1590   5.614   0.303   5.725 -0.8273 -0.8121 -0.4643
  542TIP3    H2 1591   5.619   0.409   5.617 -0.7132  1.3575  1.6017
  543TIP3   OH2 1592   6.109   0.970   4.716 -0.1117  0.0753  0.4787
  543TIP3    H1 1593   6.145   0.952   4.629  0.5363 -0.4391  0.8404
  543TIP3    H2 1594   6.184   0.959   4.775 -0.8627 -1.0064  1.2636
  544TIP3   OH2 1595   3.144   4.267   5.836  0.2929  0.3880 -0.5451
  544TIP3    H1 1596   3.121   4.223   5.754 -0.1698  0.1739 -0.3088
  544TIP3    H2 1597   3.134   4.360   5.817  0.9323  0.3808 -0.9484
  545TIP3   OH2 1598   3.998   2.077   2.008  0.3058  0.4069 -0.0941
  545TIP3    H1 1599   4.087   2.093   1.977  0.8240  0.1255  1.1719
  545TIP3    H2 1600   3.957   2.026   1.939  1.2626  0.1903 -0.5145
  546TIP3   OH2 1601   3.707   5.115   2.155  0.5590  0.0098 -0.0411
  546TIP3    H1 1602   3.655   5.043   2.190  0.8318 -0.3996 -0.4701
  546TIP3    H2 1603   3.654   5.151   2.084  1.7694 -1.8442 -2.0020
  547TIP3   OH2 1604   7.014   3.710   2.562 -0.5668 -0.7787 -0.1368
  547TIP3    H1 1605   6.946   3.662   2.609 -0.5720  0.1308  0.8232
  547TIP3    H2 1606   6.966   3.762   2.498 -0.8755  0.3488  0.9629
  548TIP3   OH2 1607   3.370   6.253   4.890 -0.3341  0.5713 -0.3703
  548TIP3    H1 1608   3.451   6.202   4.897  0.4814  1.7291 -0.8779
  548TIP3    H2 1609   3.327   6.243   4.974  0.5389  0.2315  0.0437
  549TIP3   OH2 1610   3.962   6.387   2.098 -0.4145 -0.4329  0.1967
  549TIP3    H1 1611   4.056   6.368   2.095 -0.2889 -0.0944 -3.4477
  549TIP3    H2 1612   3.933   6.353   2.182  3.1362  0.5048  2.0307
  550TIP3   OH2 1613   0.603   6.350   2.160  0.2431  0.2254 -0.0022
  550TIP3    H1 1614   0.588   6.354   2.065 -2.5028  1.7032  0.3617
  550TIP3    H2 1615   0.636   6.438   2.182 -0.5872  0.4067  0.5640
  551TIP3   OH2 1616   5.661   2.825   4.080 -0.0862  0.0745  0.0078
  551TIP3    H1 1617   5.604   2.793   4.151  0.6061  0.2595  0.6648
  551TIP3    H2 1618   5.647   2.919   4.079  0.4675  0.1692  0.4228
  552TIP3   OH2 1619   2.980   1.663   2.761 -0.1841  0.6287  0.8895
  552TIP3    H1 1620   3.053   1.602   2.772 -0.7336 -0.6124 -1.5388
  552TIP3    H2 1621   2.923   1.647   2.836 -0.1683 -1.6834  0.4627
  553TIP3   OH2 1622   0.682   3.267   0.750  0.2451  0.2287 -0.4178
  553TIP3    H1 1623   0.648   3.275   0.661 -2.1378  0.1207  0.4168
  553TIP3    H2 1624   0.617   3.214   0.796  1.6937 -0.1790  1.2657
  554TIP3   OH2 1625   6.868   2.130   5.438  0.2850  0.3252 -0.4765
  554TIP3    H1 1626   6.871   2.127   5.533  0.4477  0.7609 -0.4634
  554TIP3    H2 1627   6.954   2.100   5.410  0.2409  0.2073 -0.4868
  555TIP3   OH2 1628   6.000   1.170   4.427 -0.4799 -0.3427  0.3232
  555TIP3    H1 1629   6.095   1.164   4.435 -0.4493 -0.6637 -0.2308
  555TIP3    H2 1630   5.979   1.259   4.456 -0.1806 -0.7578  1.9233
  556TIP3   OH2 1631   2.056   6.370   2.671  0.5012 -0.0214  0.3649
  556TIP3    H1 1632   2.007   6.425   2.732 -1.3199 -1.1750  0.0286
  556TIP3    H2 1633   2.071   6.289   2.719  0.0913 -0.5030 -0.2973
  557TIP3   OH2 1634   4.169   1.020   5.704  0.0657 -0.5161  0.1031
  557TIP3    H1 1635   4.228   1.093   5.686  0.9722 -1.6003 -1.6288
  557TIP3    H2 1636   4.227   0.945   5.718 -0.8594 -1.2147  0.2916
  558TIP3   OH2 1637   6.066   0.511   0.338  0.0881 -0.0980 -0.0168
  558TIP3    H1 1638   6.002   0.532   0.270  0.3799  0.4765 -0.1189
  558TIP3    H2 1639   6.147   0.492   0.291  0.5140  1.1152  0.1927
  559TIP3   OH2 1640   6.224   6.142   4.056 -0.4259 -0.1924  0.0385
  559TIP3    H1 1641   6.166   6.191   4.114 -0.4015 -0.1782  0.0513
  559TIP3    H2 1642   6.173   6.127   3.977  0.2914  1.8732 -0.9072
  560TIP3   OH2 1643   1.952   0.715   4.303  0.3335  0.6042 -0.2384
  560TIP3    H1 1644   1.876   0.667   4.337  0.7527 -0.1487 -0.3501
  560TIP3    H2 1645   2.014   0.717   4.376  1.2431 -1.0266 -0.9285
  561TIP3   OH2 1646   1.241   0.034   1.645  0.3390 -0.6949  0.3333
  561TIP3    H1 1647   1.243  -0.019   1.724 -1.2105  0.3821  1.1450
  561TIP3    H2 1648   1.149   0.037   1.620  0.6830 -0.2276 -0.9815
  562TIP3   OH2 1649   5.237   2.580   0.212  0.0981 -0.1158 -0.0469
  562TIP3    H1 1650   5.246   2.519   0.286  0.3899  1.1654  1.0202
  562TIP3    H2 1651   5.326   2.609   0.193 -0.2367  2.0788  1.3532
  563TIP3   OH2 1652   2.216   0.283   4.441  0.5928  0.6679  0.1420
  563TIP3    H1 1653   2.299   0.235   4.447  1.0646  1.5416  0.8299
  563TIP3    H2 1654   2.207   0.304   4.348  0.1370 -1.1185 -0.2661
  564TIP3   OH2 1655   7.012   5.452   0.557  0.5026  0.1193 -0.5297
  564TIP3    H1 1656   7.105   5.430   0.555  0.4109 -0.1934 -2.4523
  564TIP3    H2 1657   7.004   5.530   0.503 -0.4003 -0.0488 -0.6603
  565TIP3   OH2 1658   2.115   2.018   3.896 -0.0416 -0.0101  0.2004
  565TIP3    H1 1659   2.197   1.995   3.852  0.5189  1.7757  0.2320
  565TIP3    H2 1660   2.084   2.096   3.849 -1.4529 -0.3425  0.5360
  566TIP3   OH2 1661   3.716   4.716   2.006 -0.1913 -0.2959  0.1640
  566TIP3    H1 1662   3.706   4.644   2.068 -0.2367 -2.0059 -1.7199
  566TIP3    H2 1663   3.726   4.673   1.921  0.9487  1.9036 -0.9053
  567TIP3   OH2 1664   0.947   4.739   3.616 -0.0460 -0.0573 -0.0266
  567TIP3    H1 1665   0.904   4.702   3.538 -1.0742  0.2605  0.3707
  567TIP3    H2 1666   0.965   4.663   3.671  1.3767 -0.3774 -0.8728
  568TIP3   OH2 1667   0.366   5.869   0.215 -0.2501  0.1715 -0.4216
  568TIP3    H1 1668   0.342   5.923   0.291 -0.4074  0.7584 -0.8741
  568TIP3    H2 1669   0.439   5.917   0.174 -0.8555  0.4234 -1.2304
  569TIP3   OH2 1670   5.148   1.082   2.684  0.1964  0.1753 -0.4133
  569TIP3    H1 1671   5.209   1.097   2.757 -0.6098 -0.2830  0.3834
  569TIP3    H2 1672   5.199   1.034   2.620  0.5778 -0.5758  0.4243
  570TIP3   OH2 1673   5.622   1.442   2.960 -0.2543  0.4666 -0.5185
  570TIP3    H1 1674   5.528   1.452   2.970  0.0207  1.0978  1.9986
  570TIP3    H2 1675   5.632   1.371   2.897 -2.4440 -1.8696  1.5651
  571TIP3   OH2 1676   0.683   6.705   1.125  0.0882 -0.0285  0.1066
  571TIP3    H1 1677   0.743   6.686   1.054 -0.1596 -0.6900  0.0592
  571TIP3    H2 1678   0.708   6.644   1.195 -0.1538  0.0939  0.3048
  572TIP3   OH2 1679   0.896   6.846   4.481 -0.5839  0.1866  0.2238
  572TIP3    H1 1680   0.927   6.773   4.428 -2.7848  1.4016 -3.0891
  572TIP3    H2 1681   0.820   6.811   4.528 -0.5784 -0.0830  0.0322
  573TIP3   OH2 1682   0.358   3.750   1.207  0.2242 -0.3055  0.0750
  573TIP3    H1 1683   0.403   3.822   1.165 -0.7011  0.2775  0.0593
  573TIP3    H2 1684   0.405   3.672   1.179  0.6548  0.2171 -0.6628
  574TIP3   OH2 1685   5.654   5.983   3.284 -0.1105 -0.6919  0.9902
  574TIP3    H1 1686   5.632   6.054   3.344  0.1315  0.2205  0.0411
  574TIP3    H2 1687   5.742   6.005   3.254  0.5752 -2.2154  1.8135
  575TIP3   OH2 1688   5.518   5.135   4.924 -0.1444 -0.4956  0.2650
  575TIP3    H1 1689   5.488   5.047   4.901  1.4639 -0.7073 -1.2869
  575TIP3    H2 1690   5.520   5.183   4.841  1.1534  0.2810  0.6997
  576TIP3   OH2 1691   6.208   2.253   3.800 -0.1263  0.7177 -0.5667
  576TIP3    H1 1692   6.129   2.231   3.851  1.1556  0.2539  1.3242
  576TIP3    H2 1693   6.242   2.168   3.772 -0.6957  0.9597 -2.0857
  577TIP3   OH2 1694   3.842   6.052   3.043 -0.1555 -0.1025  0.2399
  577TIP3    H1 1695   3.761   6.101   3.048 -0.2757 -0.3939  1.4690
  577TIP3    H2 1696   3.816   5.961   3.058  0.1238 -0.5095 -1.5397
  578TIP3   OH2 1697   1.740   2.393   3.996  0.0540 -0.0992 -0.2398
  578TIP3    H1 1698   1.741   2.308   3.952  0.3614 -0.6253  0.7492
  578TIP3    H2 1699   1.783   2.377   4.080  0.4693  1.1262 -0.1900
  579TIP3   OH2 1700   4.835   4.644   1.446 -0.1896 -0.5845  0.6780
  579TIP3    H1 1701   4.794   4.633   1.532 -1.7184 -2.8365 -0.2497
  579TIP3    H2 1702   4.764   4.630   1.384  1.3019 -1.1693 -0.9661
  580TIP3   OH2 1703   3.557   1.919   4.975  0.2154  0.2615 -0.1389
  580TIP3    H1 1704   3.468   1.930   5.010  0.2419  1.1136 -0.3105
  580TIP3    H2 1705   3.611   1.901   5.052 -0.0118  0.3608  0.0446
  581TIP3   OH2 1706   3.576   2.888   4.535  0.0910 -0.3757  0.2457
  581TIP3    H1 1707   3.543   2.888   4.445  0.0684 -1.6254  0.2397
  581TIP3    H2 1708   3.576   2.981   4.560  0.6197  0.0573 -1.2284
  582TIP3   OH2 1709   6.800   2.116   0.640 -0.4565 -0.1511 -0.4585
  582TIP3    H1 1710   6.705   2.131   0.650 -0.2619  1.0479 -0.2854
  582TIP3    H2 1711   6.820   2.147   0.552 -0.3827 -1.3306 -0.8730
  583TIP3   OH2 1712   1.181   4.021   1.703 -0.0871 -0.1977  0.4228
  583TIP3    H1 1713   1.183   3.947   1.643 -0.2340  1.3298 -1.5610
  583TIP3    H2 1714   1.248   4.081   1.670 -0.6984  1.0244  1.3330
  584TIP3   OH2 1715   1.222   3.839   5.487 -0.0638  0.2719  0.5087
  584TIP3    H1 1716   1.261   3.788   5.558 -0.1328  0.5612  0.7584
  584TIP3    H2 1717   1.199   3.775   5.421  0.9522  0.1017  0.2998
  585TIP3   OH2 1718   0.073   6.399   5.092 -0.1475  0.2381 -0.1773
  585TIP3    H1 1719   0.133   6.334   5.129 -0.5237  1.0024  1.9171
  585TIP3    H2 1720   0.128   6.474   5.071  0.0913 -0.2533 -1.4351
  586TIP3   OH2 1721   1.919   2.197   2.737 -0.4891  0.3931 -0.3522
  586TIP3    H1 1722   1.845   2.250   2.766  0.2475  1.5946 -0.6164
  586TIP3    H2 1723   1.989   2.216   2.800 -0.4575 -0.9291  0.0515
  587TIP3   OH2 1724   5.182   2.905   1.549  0.1189 -0.4956 -0.0597
  587TIP3    H1 1725   5.190   2.856   1.631 -0.4785 -0.2899  0.1270
  587TIP3    H2 1726   5.204   2.995   1.573 -0.2627 -0.3970 -0.0825
  588TIP3   OH2 1727   0.621   1.147   4.967 -0.2961  0.3154 -0.5333
  588TIP3    H1 1728   0.699   1.176   5.013 -0.8493  0.4885  0.3102
  588TIP3    H2 1729   0.636   1.173   4.876  0.7402  0.0972 -0.4454
  589TIP3   OH2 1730   6.905   2.027   4.333 -0.2703  0.3901 -0.2065
  589TIP3    H1 1731   6.838   2.046   4.399  0.2801  1.1399  0.1471
  589TIP3    H2 1732   6.962   1.963   4.375 -0.9705 -0.5582 -0.6542
  590TIP3   OH2 1733   0.209   6.066   4.289 -0.2573 -0.2465  0.1930
  590TIP3    H1 1734   0.167   6.124   4.225 -1.3763 -1.8464 -0.5902
  590TIP3    H2 1735   0.293   6.045   4.250 -0.9716 -1.2875 -0.8512
  591TIP3   OH2 1736   3.242   0.860   2.940  0.1802  0.6120  0.8780
  591TIP3    H1 1737   3.279   0.949   2.938  0.4114  0.5196  0.9921
  591TIP3    H2 1738   3.290   0.814   2.871  0.3928  0.4477  1.1327
  592TIP3   OH2 1739   0.286   4.420   1.357  0.5291  0.3978 -0.0878
  592TIP3    H1 1740   0.361   4.447   1.411 -0.0847  1.7630  0.1391
  592TIP3    H2 1741   0.223   4.385   1.420  0.8631 -0.5412 -0.2541
  593TIP3   OH2 1742   5.104   0.072   2.041 -0.2655  0.2852 -0.3097
  593TIP3    H1 1743   5.091   0.167   2.051 -0.3296  0.4158 -1.4285
  593TIP3    H2 1744   5.056   0.051   1.960 -0.4403 -0.7435  0.0570
  594TIP3   OH2 1745   2.570   1.582   3.807 -0.5322 -0.7077 -0.0502
  594TIP3    H1 1746   2.572   1.627   3.892 -1.4704  0.9236 -0.8238
  594TIP3    H2 1747   2.500   1.517   3.817 -0.5534 -0.6152  0.4706
  595TIP3   OH2 1748   3.907   2.670   4.258 -0.0070 -0.5200  0.6286
  595TIP3    H1 1749   3.864   2.691   4.341  0.0378 -0.2498  0.5854
  595TIP3    H2 1750   4.000   2.680   4.276 -0.0181  0.0411  0.4149
  596TIP3   OH2 1751   4.776   6.771   0.377  0.4647  0.0647 -0.4200
  596TIP3    H1 1752   4.711   6.817   0.429  0.0579  1.6390 -2.2053
  596TIP3    H2 1753   4.726   6.733   0.305  1.2006 -0.7900 -0.4894
  597TIP3   OH2 1754   4.225   0.132   3.233 -0.6973 -0.2012 -0.2498
  597TIP3    H1 1755   4.206   0.186   3.310 -0.0120  1.0576 -0.9351
  597TIP3    H2 1756   4.225   0.193   3.160  0.1345 -1.1192 -1.0532
  598TIP3   OH2 1757   3.017   6.452   0.772 -0.2853 -0.1950 -0.1900
  598TIP3    H1 1758   3.098   6.484   0.812  1.2157 -1.4154 -2.0519
  598TIP3    H2 1759   2.963   6.530   0.761  0.2266  0.5172  1.9006
  599TIP3   OH2 1760   5.532   3.336   0.423  0.4887  0.2625  0.5910
  599TIP3    H1 1761   5.585   3.374   0.493  0.5659 -0.3463  0.8723
  599TIP3    H2 1762   5.594   3.282   0.374  0.7015  1.5759 -0.6607
  600TIP3   OH2 1763   1.428   4.047   3.840 -0.0803  0.2521  0.2969
  600TIP3    H1 1764   1.456   3.957   3.827  1.0082  0.5024  0.7790
  600TIP3    H2 1765   1.334   4.041   3.856  0.1596 -0.9127  1.4423
  601TIP3   OH2 1766   2.887   5.856   2.782 -0.7911  0.0910  0.2788
  601TIP3    H1 1767   2.837   5.857   2.701  1.6980 -0.7821 -1.4068
  601TIP3    H2 1768   2.914   5.765   2.792  2.6983  0.8803 -0.5225
  602TIP3   OH2 1769   1.861   3.003   4.347  0.2333 -0.1954  0.1181
  602TIP3    H1 1770   1.905   3.066   4.404  1.3156  0.0855 -0.9589
  602TIP3    H2 1771   1.905   3.013   4.262  0.2654 -2.1984 -0.1679
  603TIP3   OH2 1772   4.227   1.451   0.655  0.0890 -0.4862 -0.5626
  603TIP3    H1 1773   4.321   1.470   0.659 -0.0159  0.2212 -1.1761
  603TIP3    H2 1774   4.219   1.363   0.691  0.8925 -0.2696  0.1862
  604TIP3   OH2 1775   5.445   1.785   1.057 -0.2422 -0.3138  0.6005
  604TIP3    H1 1776   5.374   1.725   1.036  0.1841 -0.8075  0.5501
  604TIP3    H2 1777   5.462   1.832   0.975 -0.1163 -0.6147  0.4523
  605TIP3   OH2 1778   3.235   2.324   2.684  0.1824  0.0551 -0.4712
  605TIP3    H1 1779   3.233   2.259   2.614  2.2665 -2.0592  1.3012
  605TIP3    H2 1780   3.177   2.288   2.752 -0.3265  1.1401 -0.3049
  606TIP3   OH2 1781   1.901   6.021   1.870  0.1426  0.5715 -0.2003
  606TIP3    H1 1782   1.892   5.940   1.919 -0.1166  0.8980  0.2996
  606TIP3    H2 1783   1.817   6.032   1.825  0.6531 -0.1363 -1.3693
  607TIP3   OH2 1784   0.458   2.661   5.153 -0.5230  0.4498  0.8470
  607TIP3    H1 1785   0.434   2.605   5.080  0.7360 -0.4623  1.1030
  607TIP3    H2 1786   0.418   2.746   5.133 -0.5841  0.0846 -0.6595
  608TIP3   OH2 1787   2.922   0.067   2.787 -0.2421 -0.1357  0.3846
  608TIP3    H1 1788   2.871   0.005   2.736  1.4603 -0.4611 -1.0321
  608TIP3    H2 1789   2.922   0.147   2.735  0.1179  0.0722  0.6972
  609TIP3   OH2 1790   2.518   6.152   1.693  0.3634 -0.4956 -0.4171
  609TIP3    H1 1791   2.582   6.218   1.664 -0.3316  0.1485 -0.5019
  609TIP3    H2 1792   2.570   6.071   1.702  1.4910  0.3428  0.9701
  610TIP3   OH2 1793   1.057   3.904   2.426 -0.1716  0.5155  0.0993
  610TIP3    H1 1794   1.041   3.912   2.332  1.8918  1.3077 -0.2350
  610TIP3    H2 1795   0.989   3.957   2.467  0.3580  2.2017 -1.0994
  611TIP3   OH2 1796   3.879   4.231   5.529 -0.3748 -0.3852 -0.5967
  611TIP3    H1 1797   3.973   4.242   5.546 -0.7917  1.2374  0.9591
  611TIP3    H2 1798   3.872   4.146   5.485  1.8488 -0.3582 -1.1121
  612TIP3   OH2 1799   5.006   2.707   0.714 -0.3679  0.3244  0.4748
  612TIP3    H1 1800   5.068   2.665   0.775  0.5512  0.8935 -0.0343
  612TIP3    H2 1801   4.984   2.790   0.757 -1.5067 -0.2695  1.0765
  613TIP3   OH2 1802   2.766   1.364   3.398  0.7613 -0.0845 -0.5500
  613TIP3    H1 1803   2.692   1.396   3.449  0.9796  1.3559 -1.0802
  613TIP3    H2 1804   2.823   1.322   3.463  0.7960  1.2680  0.3300
  614TIP3   OH2 1805   1.673   6.055   0.337 -0.3021  0.5316  0.3068
  614TIP3    H1 1806   1.629   5.997   0.399 -0.1850 -0.2771 -0.3433
  614TIP3    H2 1807   1.718   5.995   0.277  4.2284  1.1932  2.6192
  615TIP3   OH2 1808   4.532   5.067   2.971  0.0605 -0.3188 -0.0535
  615TIP3    H1 1809   4.484   5.023   2.901 -1.8673 -1.4785  1.9090
  615TIP3    H2 1810   4.465   5.094   3.033  1.8275 -0.9077  2.2241
  616TIP3   OH2 1811   2.186   4.159   2.437  0.1386 -0.0749  0.1167
  616TIP3    H1 1812   2.237   4.223   2.388  1.1194 -0.4462  0.6324
  616TIP3    H2 1813   2.152   4.099   2.370 -0.8151  0.9821 -0.3724
  617TIP3   OH2 1814   0.808   6.647   0.015  0.4353  0.4022  0.3032
  617TIP3    H1 1815   0.775   6.710   0.079  0.7388  2.5638 -1.5361
  617TIP3    H2 1816   0.856   6.700  -0.049 -2.0844 -1.1748 -3.2310
  618TIP3   OH2 1817   2.034   0.772   4.045  0.3430  0.2594 -0.1969
  618TIP3    H1 1818   2.024   0.866   4.059 -0.2185  0.1359  0.2505
  618TIP3    H2 1819   2.015   0.732   4.130 -0.8129 -0.3441 -0.7102
  619TIP3   OH2 1820   2.429   4.574   2.228  0.1875 -0.5409 -0.0659
  619TIP3    H1 1821   2.379   4.494   2.244  1.4952 -1.3776 -0.0352
  619TIP3    H2 1822   2.370   4.645   2.255 -1.5815 -1.3800 -1.5467
  620TIP3   OH2 1823   2.533   4.529   3.042 -0.3647 -0.1927  0.6274
  620TIP3    H1 1824   2.453   4.558   3.087  0.1991  0.1866  1.4016
  620TIP3    H2 1825   2.507   4.450   2.995 -0.8274 -0.9497  2.1124
  621TIP3   OH2 1826   1.607   3.305   4.734  0.4150  0.2028 -0.7766
  621TIP3    H1 1827   1.608   3.210   4.738  0.0001  0.2373  0.5607
  621TIP3    H2 1828   1.557   3.326   4.655 -1.6388 -0.6897  0.2391
  622TIP3   OH2 1829   5.258   4.491   1.958  0.2176 -0.2581 -0.3739
  622TIP3    H1 1830   5.274   4.585   1.965  0.0935 -0.1137 -1.7974
  622TIP3    H2 1831   5.174   4.485   1.912 -1.4314 -1.0548  2.4528
  623TIP3   OH2 1832   2.448   2.589   4.512  0.0061  0.0340  0.2941
  623TIP3    H1 1833   2.382   2.642   4.556 -0.4920 -0.3762  0.0578
  623TIP3    H2 1834   2.460   2.630   4.426 -0.7909 -0.5521 -0.1039
  624TIP3   OH2 1835   5.966   6.680   1.105 -0.2663  0.0427 -0.3197
  624TIP3    H1 1836   5.886   6.682   1.157 -0.0353  0.8420  0.0193
  624TIP3    H2 1837   6.013   6.603   1.137  0.3708  1.1061  1.4459
  625TIP3   OH2 1838   6.575   5.630   1.681  0.8471  0.7221  0.4479
  625TIP3    H1 1839   6.566   5.719   1.716  1.7272  0.6146  0.9939
  625TIP3    H2 1840   6.571   5.641   1.586  0.9047  1.3378  0.5111
  626TIP3   OH2 1841   6.875   6.299   3.231 -0.1246 -0.7340 -0.2246
  626TIP3    H1 1842   6.962   6.341   3.230  0.2044 -1.3892 -1.8058
  626TIP3    H2 1843   6.829   6.339   3.158 -1.1070 -0.5502  0.4791
  627TIP3   OH2 1844   5.419   3.452   5.044  0.2132  0.8504 -0.4223
  627TIP3    H1 1845   5.505   3.440   5.003 -0.1089 -2.5597 -0.4036
  627TIP3    H2 1846   5.437   3.495   5.127  2.1996 -1.1956  0.3051
  628TIP3   OH2 1847   6.228   1.084   2.918 -0.3672  0.2074 -0.2020
  628TIP3    H1 1848   6.295   1.016   2.930 -0.2340  0.4595  0.5357
  628TIP3    H2 1849   6.162   1.042   2.863  0.1711 -0.2052 -0.5483
  629TIP3   OH2 1850   0.279   3.706   2.446 -0.1787  0.0455 -0.1383
  629TIP3    H1 1851   0.234   3.751   2.374 -0.4414  0.4834  0.2927
  629TIP3    H2 1852   0.268   3.613   2.427 -0.3826  0.1552 -0.5807
  630TIP3   OH2 1853   4.252   4.507   2.317  0.5076 -0.2429  0.0966
  630TIP3    H1 1854   4.276   4.589   2.360  0.6235 -0.3459  0.2287
  630TIP3    H2 1855   4.248   4.530   2.224  0.6912 -0.1228  0.1167
  631TIP3   OH2 1856   1.466   0.889   0.981  0.1539 -0.2355  0.0560
  631TIP3    H1 1857   1.432   0.802   0.962 -0.1704 -0.2026  0.4510
  631TIP3    H2 1858   1.529   0.876   1.051 -0.1945 -0.1108  0.4015
  632TIP3   OH2 1859   0.303   4.820   0.172  0.7307 -0.0180  0.7842
  632TIP3    H1 1860   0.380   4.784   0.216  1.8729  0.1165 -0.9846
  632TIP3    H2 1861   0.314   4.794   0.080 -1.4642 -0.1875  0.5171
  633TIP3   OH2 1862   5.117   4.160   1.405  0.4246  0.1689  0.9269
  633TIP3    H1 1863   5.110   4.065   1.417 -3.1644  0.2463  0.4797
  633TIP3    H2 1864   5.101   4.197   1.492  1.7204  0.4082  1.0810
  634TIP3   OH2 1865   2.162   5.252   4.597  0.6678 -0.2129  0.1313
  634TIP3    H1 1866   2.206   5.324   4.552  2.0986 -0.6117  0.8272
  634TIP3    H2 1867   2.086   5.231   4.542  1.3973  0.4497 -1.1549
  635TIP3   OH2 1868   6.284   3.991   0.995 -0.2051  0.7231 -0.0400
  635TIP3    H1 1869   6.362   4.046   0.983  0.6159 -0.4274 -0.1461
  635TIP3    H2 1870   6.273   3.986   1.090  1.3246 -1.0280  0.1215
  636TIP3   OH2 1871   0.303   3.257   0.615  0.3648 -0.3483  0.3607
  636TIP3    H1 1872   0.293   3.298   0.701 -2.1941 -0.8496  0.4099
  636TIP3    H2 1873   0.339   3.326   0.559 -0.2361  0.7728  1.3085
  637TIP3   OH2 1874   3.231   2.160   0.397 -0.4250  0.3385 -0.9052
  637TIP3    H1 1875   3.189   2.242   0.422  1.1664  1.0747 -0.4825
  637TIP3    H2 1876   3.268   2.126   0.479  3.2403  1.8268 -1.7034
  638TIP3   OH2 1877   3.421   5.363   5.390 -0.2179  0.2294 -0.0569
  638TIP3    H1 1878   3.495   5.330   5.341  1.1887  1.6478  1.0095
  638TIP3    H2 1879   3.348   5.307   5.364  1.3903 -1.8095 -0.4418
  639TIP3   OH2 1880   6.778   5.705   3.735  0.2472  0.0187 -0.3540
  639TIP3    H1 1881   6.700   5.751   3.705  0.6940  1.2492  0.3168
  639TIP3    H2 1882   6.750   5.614   3.743 -1.3081  0.5415  0.4923
  640TIP3   OH2 1883   4.337   0.125   3.948  0.3273  0.0481 -0.1177
  640TIP3    H1 1884   4.355   0.180   4.024  0.5025  0.4831 -0.4709
  640TIP3    H2 1885   4.243   0.133   3.935  0.6385  2.0268 -1.4854
  641TIP3   OH2 1886   5.041   2.188   3.201 -0.2763 -0.2196  0.4438
  641TIP3    H1 1887   5.131   2.189   3.167 -0.5111 -0.8962 -0.2299
  641TIP3    H2 1888   5.025   2.277   3.231  0.1148  0.2747 -0.7756
  642TIP3   OH2 1889   2.580   6.328   3.155  0.0435 -0.1065  0.2786
  642TIP3    H1 1890   2.560   6.253   3.212 -2.0378 -0.3307 -0.6588
  642TIP3    H2 1891   2.675   6.331   3.152  0.1846 -2.1695  1.0547
  643TIP3   OH2 1892   2.498   3.285   5.076  0.3881  0.4331  0.1035
  643TIP3    H1 1893   2.433   3.342   5.117 -1.2518 -1.2318 -0.0874
  643TIP3    H2 1894   2.567   3.345   5.047 -1.0128  2.2564  0.3569
  644TIP3   OH2 1895   2.318   4.340   2.265 -0.3687 -0.3776  0.4798
  644TIP3    H1 1896   2.393   4.299   2.221  0.7898  0.7806  1.3384
  644TIP3    H2 1897   2.242   4.305   2.218  0.7644  0.1039 -1.8640
  645TIP3   OH2 1898   3.412   3.999   3.222 -0.2843 -0.7632 -0.4697
  645TIP3    H1 1899   3.395   4.062   3.152 -1.0749  0.7155  0.9703
  645TIP3    H2 1900   3.325   3.971   3.251 -0.2551  1.6687  2.4542
  646TIP3   OH2 1901   4.218   3.538   1.534  0.1540  0.0610  0.1830
  646TIP3    H1 1902   4.205   3.610   1.596 -0.8054  0.4020 -0.3933
  646TIP3    H2 1903   4.133   3.529   1.490  0.7235 -0.3993 -0.8477
  647TIP3   OH2 1904   7.027   0.234   5.222  0.4219  0.0113  0.1569
  647TIP3    H1 1905   7.123   0.228   5.225  0.4102  0.1529  2.1854
  647TIP3    H2 1906   7.007   0.240   5.129  2.2237 -2.4029 -0.5142
  648TIP3   OH2 1907   2.179   0.900   0.048  0.0180  0.3581 -0.2838
  648TIP3    H1 1908   2.126   0.844   0.104 -1.3347  1.0035 -0.8622
  648TIP3    H2 1909   2.233   0.839  -0.003 -1.9829 -0.5386 -1.4787
  649TIP3   OH2 1910   2.683   4.117   1.355 -0.7372 -1.1696  0.1658
  649TIP3    H1 1911   2.767   4.125   1.400  0.2549  0.9782 -1.8643
  649TIP3    H2 1912   2.617   4.127   1.425  0.6911 -0.3036  1.4473
  650TIP3   OH2 1913   1.573   2.629   5.620  0.1326 -0.0250 -0.2985
  650TIP3    H1 1914   1.650   2.658   5.571  0.5350  0.2162  0.4773
  650TIP3    H2 1915   1.580   2.671   5.705  0.1418 -1.5122  0.4621
  651TIP3   OH2 1916   3.629   0.066   3.808 -0.0516  0.0316 -0.5877
  651TIP3    H1 1917   3.589   0.024   3.732 -0.6354  0.7871 -0.7105
  651TIP3    H2 1918   3.566   0.133   3.834  0.9043  0.9130 -0.4800
  652TIP3   OH2 1919   6.175   4.149   5.339 -0.1667 -0.0661  0.1489
  652TIP3    H1 1920   6.110   4.082   5.359 -1.2356  0.4761 -1.3002
  652TIP3    H2 1921   6.123   4.226   5.315  0.9652 -0.0642 -2.5787
  653TIP3   OH2 1922   2.383   5.114   1.276  0.4335 -0.2037 -0.9890
  653TIP3    H1 1923   2.387   5.114   1.371  1.5092  0.1990 -1.0284
  653TIP3    H2 1924   2.302   5.066   1.256  0.0277 -0.0137  0.1209
  654TIP3   OH2 1925   6.511   3.789   1.144 -0.2630 -0.3626 -0.2081
  654TIP3    H1 1926   6.444   3.763   1.081  0.0684 -1.8675  0.0177
  654TIP3    H2 1927   6.489   3.742   1.224  0.9767 -0.7917 -0.0927
  655TIP3   OH2 1928   0.487   2.859   5.394 -0.1115  0.1062  0.1045
  655TIP3    H1 1929   0.412   2.860   5.334 -0.1326  0.0173  0.1287
  655TIP3    H2 1930   0.480   2.775   5.439  0.0198  0.0866  0.0873
  656TIP3   OH2 1931   1.767   4.893   4.985 -0.0418  0.1506  0.9635
  656TIP3    H1 1932   1.812   4.875   5.067  1.9215  1.3176  0.2225
  656TIP3    H2 1933   1.745   4.807   4.950  1.4485 -0.4904  1.4913
  657TIP3   OH2 1934   1.915   0.734   5.524  0.2289 -0.4675  0.0645
  657TIP3    H1 1935   1.923   0.671   5.596  0.9905 -1.6314 -1.0061
  657TIP3    H2 1936   1.999   0.730   5.479 -0.0750  0.5870 -0.6309
  658TIP3   OH2 1937   1.888   1.454   3.591 -0.0818 -0.3372 -0.3054
  658TIP3    H1 1938   1.880   1.371   3.544 -3.9097 -0.2628 -0.1169
  658TIP3    H2 1939   1.864   1.433   3.681 -0.5039  0.8468 -0.1249
  659TIP3   OH2 1940   0.979   4.668   2.392  0.5655 -0.0543 -0.5328
  659TIP3    H1 1941   1.072   4.686   2.377  0.8635 -0.0535  1.1409
  659TIP3    H2 1942   0.974   4.573   2.397  0.4566 -0.0574 -0.6951
  660TIP3   OH2 1943   2.969   0.600   5.136 -0.0026  0.1926  0.2693
  660TIP3    H1 1944   3.061   0.575   5.137 -0.3186 -1.1966 -1.3322
  660TIP3    H2 1945   2.945   0.608   5.228  2.1214  2.2735  0.7262
  661TIP3   OH2 1946   6.663   5.508   0.108  0.2080  0.2230  0.6313
  661TIP3    H1 1947   6.715   5.445   0.058  1.5629  2.1490 -0.5023
  661TIP3    H2 1948   6.725   5.545   0.171  0.6013  3.1302 -1.2528
  662TIP3   OH2 1949   1.306   4.021   1.201 -0.1539  0.3367 -0.3196
  662TIP3    H1 1950   1.338   3.951   1.145 -0.0015  0.1755 -0.0317
  662TIP3    H2 1951   1.271   4.087   1.140 -1.2690 -0.4566 -0.5602
  663TIP3   OH2 1952   0.956   4.922   4.010 -0.2336 -0.3226 -0.0456
  663TIP3    H1 1953   0.877   4.941   4.061 -0.6728 -0.4567 -0.6471
  663TIP3    H2 1954   1.008   5.002   4.014 -0.9734  0.2040 -0.6299
  664TIP3   OH2 1955   3.563   3.569   3.776 -0.2815  0.7539  0.2891
  664TIP3    H1 1956   3.605   3.559   3.862  1.8724  1.7712 -0.5714
  664TIP3    H2 1957   3.577   3.484   3.733  0.8303  1.0166  0.0844
  665TIP3   OH2 1958   0.533   2.400   1.841  0.3711  0.2458 -0.0918
  665TIP3    H1 1959   0.626   2.400   1.821  0.3666  1.1338 -0.1513
  665TIP3    H2 1960   0.523   2.336   1.912  0.5578 -2.0565 -2.0492
  666TIP3   OH2 1961   4.346   3.213   2.094 -0.0249  0.3534 -0.0758
  666TIP3    H1 1962   4.293   3.260   2.030 -0.6500 -0.3550 -0.0969
  666TIP3    H2 1963   4.343   3.121   2.066 -1.2442 -0.1660  1.5652
  667TIP3   OH2 1964   1.936   5.232   5.831  0.2951  0.5836  0.3005
  667TIP3    H1 1965   1.914   5.310   5.779  1.4794  0.3630 -0.5747
  667TIP3    H2 1966   1.982   5.266   5.907  3.5062  0.6702 -1.5079
  668TIP3   OH2 1967   5.467   4.862   2.981  0.2541 -0.1781 -0.2860
  668TIP3    H1 1968   5.487   4.940   2.930 -0.3371 -1.3255 -2.4504
  668TIP3    H2 1969   5.379   4.879   3.016 -0.0688 -0.0170 -1.1294
  669TIP3   OH2 1970   7.113   0.839   4.921  0.1193 -0.4610 -0.1793
  669TIP3    H1 1971   7.018   0.847   4.925  0.2938  2.5081  0.0240
  669TIP3    H2 1972   7.139   0.893   4.846  1.7227 -0.1884  0.5235
  670TIP3   OH2 1973   2.979   2.740   4.741  0.1088 -0.1500  0.3037
  670TIP3    H1 1974   2.928   2.680   4.795  0.4242 -0.4621  0.2568
  670TIP3    H2 1975   3.044   2.777   4.802 -0.5757  0.7298  0.5127
  671TIP3   OH2 1976   6.722   6.761   4.084 -0.2489 -0.0660 -0.0933
  671TIP3    H1 1977   6.806   6.736   4.045 -1.4669 -0.7763 -2.4100
  671TIP3    H2 1978   6.686   6.680   4.118 -1.3138 -0.4063 -1.8750
  672TIP3   OH2 1979   1.155   1.499   3.073  0.2073 -0.8049  0.6941
  672TIP3    H1 1980   1.107   1.578   3.100  0.8940  0.9507 -2.6928
  672TIP3    H2 1981   1.093   1.428   3.086 -0.9721  0.4709  2.4897
  673TIP3   OH2 1982   0.304   0.226   3.312  0.1098 -0.0536 -0.0824
  673TIP3    H1 1983   0.359   0.238   3.390 -0.0182 -0.2037  0.0320
  673TIP3    H2 1984   0.226   0.182   3.345 -0.6858  1.3870 -0.0191
  674TIP3   OH2 1985   2.051   0.691   0.238 -0.1111 -0.0774 -0.3570
  674TIP3    H1 1986   2.087   0.649   0.160 -0.7382 -0.4144 -0.4755
  674TIP3    H2 1987   1.977   0.636   0.263  1.4176 -1.3173  1.8403
  675TIP3   OH2 1988   0.213   2.811   3.650  0.2991 -0.4375  0.1177
  675TIP3    H1 1989   0.268   2.748   3.603 -0.2552 -0.8426  0.0091
  675TIP3    H2 1990   0.256   2.896   3.634  0.8081 -0.7265 -0.0889
  676TIP3   OH2 1991   1.616   2.694   4.361  0.4996 -0.1482  0.3058
  676TIP3    H1 1992   1.668   2.618   4.334  2.2283  0.2148  2.3299
  676TIP3    H2 1993   1.665   2.731   4.435 -0.6875  2.5063 -0.1439
  677TIP3   OH2 1994   1.705   3.177   4.041 -0.3912 -0.1469  0.2561
  677TIP3    H1 1995   1.627   3.151   3.992  0.7308 -1.8485 -0.7314
  677TIP3    H2 1996   1.750   3.239   3.983  0.4387 -1.4172 -0.5193
  678TIP3   OH2 1997   0.305   5.406   5.199 -0.2588  0.0260 -0.5088
  678TIP3    H1 1998   0.390   5.373   5.229 -1.0319 -1.6412 -0.0443
  678TIP3    H2 1999   0.326   5.490   5.157  1.5289 -0.0542  0.1135
  679TIP3   OH2 2000   6.794   6.237   5.486  0.1118 -0.1041  0.2928
  679TIP3    H1 2001   6.812   6.168   5.551  0.6141  0.1996  0.4777
  679TIP3    H2 2002   6.868   6.297   5.493 -0.7233  0.8988  0.7146
  680TIP3   OH2 2003   3.104   3.451   4.215 -0.3867 -0.3031  0.3448
  680TIP3    H1 2004   3.037   3.409   4.161 -0.4316  0.3731 -0.1557
  680TIP3    H2 2005   3.184   3.444   4.163 -0.2882 -0.2424  0.4886
  681TIP3   OH2 2006   0.448   1.343   1.459  0.0989 -0.1216 -0.7539
  681TIP3    H1 2007   0.499   1.424   1.451  0.0191  0.1748  1.2028
  681TIP3    H2 2008   0.360   1.373   1.481 -0.2716 -0.7128 -1.4049
  682TIP3   OH2 2009   2.302   4.245   3.259 -0.2168 -0.1411  1.4429
  682TIP3    H1 2010   2.356   4.282   3.329  1.4580 -1.1314  0.7315
  682TIP3    H2 2011   2.364   4.203   3.200 -1.7229 -0.6869  0.1651
  683TIP3   OH2 2012   5.166   4.546   2.368  0.4651  0.0489 -0.3488
  683TIP3    H1 2013   5.142   4.527   2.459 -0.7841 -0.2392 -0.7164
  683TIP3    H2 2014   5.146   4.639   2.358 -1.4034 -0.3495 -0.8715
  684TIP3   OH2 2015   5.973   1.339   5.252  0.6627  0.1132 -0.0691
  684TIP3    H1 2016   6.041   1.333   5.319 -0.8282  0.6305  1.5996
  684TIP3    H2 2017   5.958   1.433   5.241 -1.2438  0.0520  1.2919
  685TIP3   OH2 2018   2.232   2.142   2.627  0.2652 -0.2427 -0.2600
  685TIP3    H1 2019   2.277   2.227   2.626 -0.1400 -0.0346 -0.6094
  685TIP3    H2 2020   2.155   2.154   2.572  0.9151 -1.2377 -1.4397
  686TIP3   OH2 2021   3.873   4.134   1.576  0.4131 -0.1895  0.5190
  686TIP3    H1 2022   3.930   4.146   1.652 -0.4359  1.4493  0.9349
  686TIP3    H2 2023   3.791   4.102   1.614  1.0610 -2.8111 -0.0990
  687TIP3   OH2 2024   5.540   2.362   3.254  0.2116 -0.0758  0.4824
  687TIP3    H1 2025   5.610   2.300   3.232 -0.1101 -0.3780  0.3064
  687TIP3    H2 2026   5.586   2.445   3.270  0.4687  0.2417 -1.5796
  688TIP3   OH2 2027   0.942   3.601   1.888 -0.3810  0.1566  0.1192
  688TIP3    H1 2028   0.995   3.557   1.821  0.7539  0.8308  0.5417
  688TIP3    H2 2029   0.988   3.684   1.904 -1.5064  0.7029  0.6059
  689TIP3   OH2 2030   5.898   0.742   4.155 -0.1328  0.3082 -0.3153
  689TIP3    H1 2031   5.823   0.801   4.153 -0.6334 -0.3040 -0.1294
  689TIP3    H2 2032   5.943   0.756   4.072 -0.4728  0.6623 -0.4383
  690TIP3   OH2 2033   3.892   1.561   5.518  0.3030 -0.1617 -0.1337
  690TIP3    H1 2034   3.820   1.623   5.529  0.4325  0.4480 -2.3155
  690TIP3    H2 2035   3.969   1.615   5.503  1.1295 -0.8322  1.4227
  691TIP3   OH2 2036   4.829   1.788   2.199 -0.0424  0.2736  0.0628
  691TIP3    H1 2037   4.921   1.777   2.175  0.5666 -0.9796  2.5942
  691TIP3    H2 2038   4.786   1.708   2.168  0.0012  0.2690  0.0148
  692TIP3   OH2 2039   0.596   0.708   1.867  0.3679  0.2981 -0.2676
  692TIP3    H1 2040   0.679   0.696   1.913 -0.4676 -0.0765  1.2053
  692TIP3    H2 2041   0.578   0.622   1.829  0.7618  0.4533 -0.8367
  693TIP3   OH2 2042   0.552   3.764   0.201 -0.5069  0.2690  0.9893
  693TIP3    H1 2043   0.522   3.815   0.125 -1.1853 -1.5450 -0.0271
  693TIP3    H2 2044   0.473   3.747   0.252 -0.5479 -0.9134  0.5689
  694TIP3   OH2 2045   6.343   3.929   5.215 -0.0200  0.7415  0.4013
  694TIP3    H1 2046   6.288   4.003   5.240 -0.7116 -0.0389  1.2520
  694TIP3    H2 2047   6.325   3.862   5.280 -1.3814 -1.1516 -1.7822
  695TIP3   OH2 2048   2.750   2.583   4.564  0.4031  0.0341 -0.7186
  695TIP3    H1 2049   2.737   2.618   4.652 -1.6195 -1.9082 -0.1617
  695TIP3    H2 2050   2.662   2.561   4.533  0.9846  1.0998 -3.4835
  696TIP3   OH2 2051   5.785   0.198   5.461 -0.0636 -0.1010  0.0737
  696TIP3    H1 2052   5.844   0.127   5.487 -0.0182 -1.1171 -2.5034
  696TIP3    H2 2053   5.699   0.157   5.457 -0.6281  0.8500  1.7419
  697TIP3   OH2 2054   4.677   3.881   0.703  0.0831 -0.5698 -0.0974
  697TIP3    H1 2055   4.772   3.872   0.712  0.0862 -0.3364  0.1095
  697TIP3    H2 2056   4.650   3.802   0.656  0.5111 -0.1517 -1.0590
  698TIP3   OH2 2057   5.761   5.832   1.557  0.4132  0.2544 -0.1466
  698TIP3    H1 2058   5.755   5.824   1.462  1.0703  0.0932 -0.1747
  698TIP3    H2 2059   5.717   5.754   1.591 -1.3328  1.1343 -0.2811
  699TIP3   OH2 2060   3.861   1.371   5.761  0.3074 -0.5566 -0.4706
  699TIP3    H1 2061   3.916   1.328   5.696  1.8950  0.3920  0.1775
  699TIP3    H2 2062   3.849   1.460   5.729 -0.7614 -0.7109 -0.5330
  700TIP3   OH2 2063   6.023   0.626   4.616 -0.0050 -0.2809  0.1003
  700TIP3    H1 2064   5.945   0.571   4.611 -0.3271  0.0083  1.4945
  700TIP3    H2 2065   6.054   0.633   4.526 -0.2027 -2.3768 -0.1634
  701TIP3   OH2 2066   2.463   1.816   1.172  0.5390  0.1135  0.2893
  701TIP3    H1 2067   2.412   1.789   1.095  0.5477 -2.3579  1.0789
  701TIP3    H2 2068   2.526   1.879   1.138  1.4563 -1.9361 -2.0400
  702TIP3   OH2 2069   5.553   4.644   5.713 -0.3186  0.3169  0.6035
  702TIP3    H1 2070   5.537   4.715   5.775  1.2173  0.5661  0.7590
  702TIP3    H2 2071   5.633   4.670   5.666  0.5688 -1.4838  0.9942
  703TIP3   OH2 2072   0.753   0.510   0.045 -0.7185  0.2177 -0.1559
  703TIP3    H1 2073   0.679   0.558   0.081 -1.1951 -0.8381  0.3252
  703TIP3    H2 2074   0.801   0.478   0.121  0.7561  1.5942 -0.4354
  704TIP3   OH2 2075   0.479   0.648   5.585 -0.8427 -0.2220 -0.4283
  704TIP3    H1 2076   0.556   0.602   5.549  0.8377  0.8743  1.5403
  704TIP3    H2 2077   0.408   0.626   5.525  0.6966 -2.3718 -1.6081
  705TIP3   OH2 2078   2.773   6.646   5.708 -0.4138 -0.2319 -0.1864
  705TIP3    H1 2079   2.700   6.649   5.647 -0.7730  0.4380  0.2597
  705TIP3    H2 2080   2.737   6.678   5.791  0.4380  0.3344 -0.0158
  706TIP3   OH2 2081   1.719   4.075   2.199  0.3095 -0.1712 -0.5908
  706TIP3    H1 2082   1.628   4.081   2.169  0.1404  1.3490  0.1163
  706TIP3    H2 2083   1.735   4.158   2.243  2.2295 -0.1792 -1.1731
  707TIP3   OH2 2084   2.591   2.366   2.945 -0.5390 -0.3452  0.0423
  707TIP3    H1 2085   2.557   2.293   2.894 -0.9551 -0.4335  0.4462
  707TIP3    H2 2086   2.584   2.442   2.886 -1.8586 -0.2708  0.2630
  708TIP3   OH2 2087   1.321   1.021   2.960 -0.3145 -0.1873  0.7931
  708TIP3    H1 2088   1.342   0.935   2.997  0.1372  0.8842  3.2196
  708TIP3    H2 2089   1.359   1.083   3.021  0.0716  1.7890 -1.3014
  709TIP3   OH2 2090   2.406   3.710   0.855 -0.0763 -0.1790 -0.1472
  709TIP3    H1 2091   2.451   3.721   0.771  0.8997 -0.5526  0.3142
  709TIP3    H2 2092   2.370   3.622   0.851 -2.1449  0.6314 -1.1315
  710TIP3   OH2 2093   6.834   6.032   3.882  0.2544  0.0815 -0.2719
  710TIP3    H1 2094   6.783   5.995   3.810 -0.6423  0.8340 -0.0444
  710TIP3    H2 2095   6.853   5.957   3.939 -3.0392  0.1146  1.0970
  711TIP3   OH2 2096   4.918   4.100   3.401  0.3018 -0.3254 -0.1056
  711TIP3    H1 2097   4.940   4.142   3.484  1.2246 -1.8873  0.4894
  711TIP3    H2 2098   5.000   4.094   3.353 -0.2384  0.6476 -1.2116
  712TIP3   OH2 2099   7.087   4.136   0.704 -0.3388  0.0702  0.0238
  712TIP3    H1 2100   7.076   4.043   0.725  1.0120 -0.0334  0.3977
  712TIP3    H2 2101   7.125   4.174   0.784 -0.1531  0.7732 -0.3898
  713TIP3   OH2 2102   2.631   4.732   2.069  0.0903  0.2197 -0.5261
  713TIP3    H1 2103   2.608   4.817   2.108 -1.8108  0.7489 -2.5948
  713TIP3    H2 2104   2.556   4.677   2.087 -0.3736  0.1680 -2.4375
  714TIP3   OH2 2105   3.206   5.194   0.618 -0.0337  0.0127  0.2187
  714TIP3    H1 2106   3.133   5.134   0.604 -0.5135  0.7098 -0.3656
  714TIP3    H2 2107   3.230   5.224   0.530  0.0903  0.7921  0.5097
  715TIP3   OH2 2108   4.638   3.064   3.955  0.0073 -0.3366 -0.3428
  715TIP3    H1 2109   4.593   3.128   4.011 -0.5597 -0.2630 -0.8650
  715TIP3    H2 2110   4.605   3.083   3.867 -0.5922 -1.7099 -0.4284
  716TIP3   OH2 2111   3.284   5.210   4.477 -0.6745  0.0746  0.3987
  716TIP3    H1 2112   3.322   5.296   4.494  0.5968 -0.3613 -0.1203
  716TIP3    H2 2113   3.263   5.211   4.383  0.8310 -0.7110  0.0207
  717TIP3   OH2 2114   3.736   3.411   3.450  0.4462  0.0643  0.0588
  717TIP3    H1 2115   3.678   3.487   3.446  1.0714  0.6061  1.0916
  717TIP3    H2 2116   3.676   3.336   3.454 -0.1870  0.5714  0.2468
  718TIP3   OH2 2117   0.960   3.049   5.711 -0.4682 -0.5514  0.0846
  718TIP3    H1 2118   0.947   3.012   5.798 -2.9356 -0.8632 -0.3431
  718TIP3    H2 2119   0.912   2.990   5.653 -1.3145  1.2227 -1.0915
  719TIP3   OH2 2120   6.072   6.253   0.477 -0.1749  0.0481  0.3071
  719TIP3    H1 2121   6.152   6.257   0.530 -1.1552 -1.9720  2.0981
  719TIP3    H2 2122   6.103   6.257   0.386  2.0974 -1.6622  0.9178
  720TIP3   OH2 2123   4.473   0.020   1.444  0.0636 -0.5898 -0.0704
  720TIP3    H1 2124   4.400  -0.014   1.393  0.3880 -1.9216  0.3090
  720TIP3    H2 2125   4.470   0.114   1.430 -1.4202 -0.6633 -0.4656
  721TIP3   OH2 2126   6.251   6.758   0.377  0.1621  0.0662  0.2254
  721TIP3    H1 2127   6.202   6.761   0.459 -0.7344 -1.7125 -0.1950
  721TIP3    H2 2128   6.186   6.778   0.309  0.8479  1.2894 -0.1091
  722TIP3   OH2 2129   5.346   6.270   3.129 -0.1711 -0.3009 -0.1374
  722TIP3    H1 2130   5.400   6.301   3.202  1.1330 -0.7345 -0.8846
  722TIP3    H2 2131   5.331   6.348   3.075  1.2018 -0.4967 -0.8347
  723TIP3   OH2 2132   2.797   6.498   3.843  0.4552 -0.2572 -0.6260
  723TIP3    H1 2133   2.820   6.413   3.882 -2.1538 -1.1645 -0.8769
  723TIP3    H2 2134   2.781   6.555   3.919 -0.0656 -0.6816 -0.4083
  724TIP3   OH2 2135   1.491   4.826   2.450 -0.4625  0.0975 -0.5916
  724TIP3    H1 2136   1.563   4.772   2.481 -1.7529 -2.4093 -1.6538
  724TIP3    H2 2137   1.441   4.848   2.529  0.9596  1.1833  0.0430
  725TIP3   OH2 2138   6.278   6.550   4.938 -0.4488 -0.7384  0.5154
  725TIP3    H1 2139   6.214   6.593   4.995  0.3984  0.6710  0.4396
  725TIP3    H2 2140   6.294   6.612   4.867  0.2304 -1.4974 -0.0140
  726TIP3   OH2 2141   3.975   2.925   0.600  0.4060 -0.6964 -0.1992
  726TIP3    H1 2142   3.919   2.876   0.660  0.9791 -0.1878  0.7548
  726TIP3    H2 2143   3.925   2.926   0.518  0.1751 -2.4858 -0.1358
  727TIP3   OH2 2144   6.134   5.217   2.225  0.1478  0.1591  0.2177
  727TIP3    H1 2145   6.141   5.122   2.232 -2.1488  0.0222  1.9767
  727TIP3    H2 2146   6.161   5.237   2.135 -1.3575 -2.4155 -0.9130
  728TIP3   OH2 2147   4.542   1.113   0.484 -0.3325 -0.8213  0.2090
  728TIP3    H1 2148   4.555   1.131   0.577  1.4159 -2.6261  0.3822
  728TIP3    H2 2149   4.467   1.168   0.460 -0.8089 -0.2512  2.6358
  729TIP3   OH2 2150   6.266   4.727   0.669  0.7577  0.1072  0.5667
  729TIP3    H1 2151   6.199   4.676   0.716 -0.7559  0.7317 -0.8115
  729TIP3    H2 2152   6.314   4.772   0.738 -1.0865  0.6330  1.5901
  730TIP3   OH2 2153   3.721   1.747   3.335  0.4980 -0.1366 -0.0730
  730TIP3    H1 2154   3.671   1.776   3.259  0.1908  0.7953  0.4620
  730TIP3    H2 2155   3.800   1.707   3.298  0.4046  0.3965 -0.8744
  731TIP3   OH2 2156   1.706   6.117   4.873 -0.1574 -0.2692  0.5023
  731TIP3    H1 2157   1.698   6.158   4.959 -0.3728 -1.0457  0.8653
  731TIP3    H2 2158   1.796   6.087   4.869  0.0360  0.3520  0.1841
  732TIP3   OH2 2159   3.181   4.318   0.964  0.1728 -0.6921 -0.7004
  732TIP3    H1 2160   3.099   4.293   1.006 -0.0908 -0.2099 -0.9225
  732TIP3    H2 2161   3.238   4.342   1.037 -0.4414  0.6059 -0.6281
  733TIP3   OH2 2162   2.809   0.517   2.358  0.0936 -0.4642 -0.2473
  733TIP3    H1 2163   2.887   0.462   2.371 -0.4628 -1.2095 -0.0044
  733TIP3    H2 2164   2.810   0.578   2.432 -0.5344 -1.6747  0.8056
  734TIP3   OH2 2165   0.031   2.575   4.526  0.1650 -0.3982  0.1552
  734TIP3    H1 2166   0.116   2.596   4.487 -0.3023 -1.0319 -1.2629
  734TIP3    H2 2167  -0.025   2.649   4.502  0.0222 -0.5205  0.1127
  735TIP3   OH2 2168   3.276   0.604   5.405 -0.4057 -0.1459 -0.4657
  735TIP3    H1 2169   3.326   0.622   5.485  1.4066  0.0856 -1.5837
  735TIP3    H2 2170   3.195   0.653   5.416  1.0283  2.3027  0.0171
  736TIP3   OH2 2171   1.738   1.062   2.138 -0.5078  0.6614  0.1558
  736TIP3    H1 2172   1.692   1.105   2.067  1.1318  2.3307  0.0173
  736TIP3    H2 2173   1.802   1.127   2.168 -0.8506 -0.1271  2.8861
  737TIP3   OH2 2174   4.278   5.019   3.715 -0.3907 -0.1722  0.2974
  737TIP3    H1 2175   4.232   5.027   3.631 -1.1942  0.2588  0.7688
  737TIP3    H2 2176   4.354   5.076   3.706  0.1120 -0.9509 -0.5184
  738TIP3   OH2 2177   3.309   4.026   3.685 -0.1814 -1.1450  0.1921
  738TIP3    H1 2178   3.265   4.086   3.746  0.1115 -1.2332  0.4965
  738TIP3    H2 2179   3.257   4.030   3.605  0.5013  0.4582 -0.2175
  739TIP3   OH2 2180   3.873   2.369   1.651  0.2323  0.6854  0.1424
  739TIP3    H1 2181   3.830   2.419   1.720 -0.9060 -0.1989  0.1040
  739TIP3    H2 2182   3.894   2.286   1.691 -0.5538  0.1120 -0.5806
  740TIP3   OH2 2183   5.722   0.573   0.560 -0.3295 -0.4324 -0.1426
  740TIP3    H1 2184   5.714   0.536   0.472 -0.0137 -1.7691  0.3635
  740TIP3    H2 2185   5.800   0.628   0.556 -0.5132 -0.2102 -0.7832
  741TIP3   OH2 2186   4.860   1.701   3.652 -0.0493  0.0454 -0.4307
  741TIP3    H1 2187   4.841   1.610   3.676 -1.2390  0.2961 -0.3741
  741TIP3    H2 2188   4.828   1.752   3.727 -0.7519  0.6132 -1.1139
  742TIP3   OH2 2189   2.866   0.850   2.999 -0.3087  0.1608  0.0540
  742TIP3    H1 2190   2.820   0.766   3.005 -0.7151  0.4036  0.4117
  742TIP3    H2 2191   2.815   0.901   2.935  0.9174 -0.4693 -1.4706
  743TIP3   OH2 2192   1.723   2.867   4.537  0.1095 -0.3047 -0.2452
  743TIP3    H1 2193   1.640   2.916   4.533 -0.5569 -1.2354  1.3733
  743TIP3    H2 2194   1.778   2.909   4.471 -1.0839  1.4128 -0.2288
  744TIP3   OH2 2195   3.041   3.855   3.277 -0.1421 -0.1101 -0.4553
  744TIP3    H1 2196   3.071   3.776   3.232 -0.0357  0.1932 -0.9249
  744TIP3    H2 2197   2.980   3.896   3.216  0.8322  0.8864 -0.7985
  745TIP3   OH2 2198   5.450   4.562   2.172 -0.2548 -0.1637 -0.3789
  745TIP3    H1 2199   5.436   4.656   2.184  0.2783  0.3302 -2.9309
  745TIP3    H2 2200   5.382   4.535   2.111 -1.0039 -1.7026  1.0558
  746TIP3   OH2 2201   0.113   4.057   1.394 -0.3896  0.5579  0.6169
  746TIP3    H1 2202   0.021   4.067   1.369 -0.0872 -1.5611 -1.7231
  746TIP3    H2 2203   0.114   3.981   1.452 -0.3698  2.1763  2.8505
  747TIP3   OH2 2204   0.401   3.437   3.537 -0.1432 -0.0698 -0.2806
  747TIP3    H1 2205   0.316   3.447   3.579  0.0009  0.6764 -0.1564
  747TIP3    H2 2206   0.414   3.518   3.488  0.9875  0.3265  0.6033
  748TIP3   OH2 2207   1.965   6.307   1.176  0.2777 -0.7193  0.3572
  748TIP3    H1 2208   2.028   6.372   1.145 -1.3499  0.5770 -0.3910
  748TIP3    H2 2209   1.890   6.359   1.207 -0.6052 -2.2093  0.8354
  749TIP3   OH2 2210   2.300   1.714   2.267 -0.3926  0.0402 -0.3164
  749TIP3    H1 2211   2.370   1.674   2.318 -2.4865 -2.2045  0.9831
  749TIP3    H2 2212   2.247   1.762   2.332 -1.7071 -0.7899 -0.7305
  750TIP3   OH2 2213   6.589   0.908   2.362  0.5050 -0.0383 -0.2992
  750TIP3    H1 2214   6.637   0.849   2.419 -0.7201 -1.8461 -1.0389
  750TIP3    H2 2215   6.597   0.869   2.275  1.1582  1.8851 -1.1509
  751TIP3   OH2 2216   5.134   1.251   4.099  0.0375  0.2955  0.0052
  751TIP3    H1 2217   5.132   1.160   4.068 -0.2089  0.2970  0.0149
  751TIP3    H2 2218   5.113   1.303   4.021 -0.2647  0.3183  0.1015
  752TIP3   OH2 2219   2.517   4.103   3.829  0.7924 -0.3645  0.2538
  752TIP3    H1 2220   2.460   4.080   3.902  2.7263 -1.0533  1.6360
  752TIP3    H2 2221   2.457   4.120   3.756 -1.2409  0.7925  2.0816
  753TIP3   OH2 2222   5.587   1.244   0.236  0.2518 -0.7591  0.2230
  753TIP3    H1 2223   5.658   1.241   0.300  0.4483 -0.6034  0.0135
  753TIP3    H2 2224   5.551   1.332   0.243  1.7140  0.0274 -1.4177
  754TIP3   OH2 2225   6.535   6.474   1.722  0.5432 -0.0895 -0.4549
  754TIP3    H1 2226   6.604   6.435   1.776 -0.2444  0.1104  0.7243
  754TIP3    H2 2227   6.571   6.558   1.694  1.4541 -0.7427 -1.3295
  755TIP3   OH2 2228   5.217   3.768   4.798  0.4419  0.0759  0.1777
  755TIP3    H1 2229   5.134   3.769   4.847  0.1422 -1.2873 -0.2557
  755TIP3    H2 2230   5.236   3.860   4.781  0.2867  0.5898  2.3925
  756TIP3   OH2 2231   7.094   4.358   3.044 -0.3418 -0.1021 -0.0461
  756TIP3    H1 2232   7.093   4.282   3.102 -0.8738  0.3310  0.5268
  756TIP3    H2 2233   7.003   4.370   3.018 -0.1519 -0.1093 -0.7368
  757TIP3   OH2 2234   5.872   3.046   1.365  0.8295  0.0989 -0.2855
  757TIP3    H1 2235   5.823   2.969   1.336  2.8803 -1.6313  0.5866
  757TIP3    H2 2236   5.932   3.065   1.293 -0.2434  1.4723 -0.8567
  758TIP3   OH2 2237   2.429   5.508   4.096  0.1364  0.0127 -0.9079
  758TIP3    H1 2238   2.506   5.457   4.123 -0.7505 -0.6215  0.5736
  758TIP3    H2 2239   2.383   5.450   4.035  0.2588 -0.0574 -0.9344
  759TIP3   OH2 2240   6.956   3.408  -0.004  0.4223 -0.1166 -0.1448
  759TIP3    H1 2241   6.940   3.314  -0.001  1.9260 -0.3782  1.2742
  759TIP3    H2 2242   6.900   3.444   0.065  1.4858 -0.2821  0.8292
  760TIP3   OH2 2243   5.600   0.982   0.384  0.1593 -0.0209 -0.6112
  760TIP3    H1 2244   5.593   1.076   0.366  0.2673 -0.1822 -1.5693
  760TIP3    H2 2245   5.612   0.976   0.479 -0.8707  0.8724 -0.4105
  761TIP3   OH2 2246   4.441   3.292   1.429  0.4097 -0.2723  0.0529
  761TIP3    H1 2247   4.462   3.268   1.519 -0.5821 -0.8455  0.1422
  761TIP3    H2 2248   4.353   3.259   1.415  1.0576 -1.4754 -1.5953
  762TIP3   OH2 2249   2.357   5.262   1.915 -0.5709 -0.1855 -0.2930
  762TIP3    H1 2250   2.374   5.258   1.820 -0.1443  0.4866 -0.2575
  762TIP3    H2 2251   2.282   5.204   1.929 -2.6339  1.9937 -1.5304
  763TIP3   OH2 2252   3.023   4.813   4.821 -0.1161 -0.2214 -0.2825
  763TIP3    H1 2253   3.084   4.773   4.883 -1.0298  0.2529  0.9584
  763TIP3    H2 2254   2.936   4.791   4.855 -0.6428  0.3317 -1.2203
  764TIP3   OH2 2255   3.198   6.750   4.237 -0.1241  0.3699  0.1467
  764TIP3    H1 2256   3.272   6.780   4.183 -0.6720  0.8860 -0.3464
  764TIP3    H2 2257   3.124   6.804   4.207 -0.8203 -0.5094  0.2522
  765TIP3   OH2 2258   4.591   1.568   2.681 -0.1912 -0.4627  0.3117
  765TIP3    H1 2259   4.645   1.554   2.604 -0.0511 -0.4909  0.4142
  765TIP3    H2 2260   4.629   1.511   2.748  0.7978  0.8743  0.9406
  766TIP3   OH2 2261   1.979   2.539   4.708  0.1529 -0.5405 -0.1766
  766TIP3    H1 2262   2.048   2.493   4.661 -0.1118  0.0720 -1.2071
  766TIP3    H2 2263   1.898   2.497   4.679  0.0060 -0.3994  0.0192
  767TIP3   OH2 2264   4.553   1.519   4.283  0.0143 -0.1559 -0.4242
  767TIP3    H1 2265   4.547   1.523   4.188  1.9554  0.4968 -0.5602
  767TIP3    H2 2266   4.517   1.602   4.313  0.0463 -0.0702 -0.6235
  768TIP3   OH2 2267   2.516   2.811   0.587 -0.3877  0.3926  0.3273
  768TIP3    H1 2268   2.465   2.732   0.571 -1.6489  1.4234 -0.9930
  768TIP3    H2 2269   2.606   2.786   0.564 -0.2702 -1.3625  2.4040
  769TIP3   OH2 2270   1.249   4.106   3.200  0.2072  0.3230  0.3207
  769TIP3    H1 2271   1.235   4.193   3.238  0.9105 -0.0142  1.3965
  769TIP3    H2 2272   1.344   4.099   3.192  0.1135 -0.0354 -0.5374
  770TIP3   OH2 2273   0.260   6.269   3.716  0.2542  0.5134  0.2098
  770TIP3    H1 2274   0.304   6.248   3.634  1.0563 -2.4997  1.2631
  770TIP3    H2 2275   0.189   6.328   3.691  0.6147 -0.0970 -2.5851
  771TIP3   OH2 2276   1.863   6.199   0.937  0.2068  0.3205  0.1006
  771TIP3    H1 2277   1.790   6.137   0.941  0.3714  0.1716  1.0532
  771TIP3    H2 2278   1.884   6.217   1.028  1.2200  0.5359 -0.1611
  772TIP3   OH2 2279   4.614   3.349   0.494  0.5407  0.3479  0.2325
  772TIP3    H1 2280   4.633   3.308   0.410  0.9281  1.6214 -0.3351
  772TIP3    H2 2281   4.688   3.327   0.550  0.0878 -0.8462  0.3910
  773TIP3   OH2 2282   1.193   1.425   5.541 -0.1082 -0.2048 -0.2672
  773TIP3    H1 2283   1.121   1.459   5.595  1.7812  1.6352  1.2448
  773TIP3    H2 2284   1.204   1.492   5.473 -0.6797 -1.1690 -1.3389
  774TIP3   OH2 2285   2.402   2.223   0.330  0.5385  0.3704  0.3432
  774TIP3    H1 2286   2.373   2.310   0.355  2.0949  0.7537  0.8655
  774TIP3    H2 2287   2.320   2.175   0.312 -0.3675  1.6317  0.9798
  775TIP3   OH2 2288   0.279   6.578   1.837  0.5801  0.0087 -0.4245
  775TIP3    H1 2289   0.303   6.603   1.748  0.9902 -0.6037 -0.4884
  775TIP3    H2 2290   0.334   6.633   1.893  1.2861 -0.5496 -0.5639
  776TIP3   OH2 2291   2.410   0.171   0.352 -0.2037 -0.2621  0.3256
  776TIP3    H1 2292   2.465   0.093   0.356 -1.0142 -0.9121 -0.7154
  776TIP3    H2 2293   2.321   0.138   0.342 -0.5180  0.7831 -0.6755
  777TIP3   OH2 2294   2.884   0.729   0.329  0.3713 -0.5760  0.4702
  777TIP3    H1 2295   2.850   0.783   0.259  0.0170 -2.5878 -1.0099
  777TIP3    H2 2296   2.978   0.721   0.311  0.2956 -1.0256  0.2551
  778TIP3   OH2 2297   4.358   5.625   1.741  0.0302  0.1130 -0.0826
  778TIP3    H1 2298   4.439   5.675   1.733  0.0341  0.2801  0.9265
  778TIP3    H2 2299   4.378   5.554   1.802 -0.5281  0.0321  0.0177
  779TIP3   OH2 2300   5.395   1.377   2.301  0.1194 -0.2368 -0.3694
  779TIP3    H1 2301   5.370   1.463   2.267  0.4117 -0.7837 -2.0399
  779TIP3    H2 2302   5.357   1.314   2.240 -2.0596 -1.4764  2.0429
  780TIP3   OH2 2303   5.135   0.603   5.096  0.2863 -0.4265  0.2611
  780TIP3    H1 2304   5.088   0.583   5.177 -0.2154  2.7077  0.8774
  780TIP3    H2 2305   5.077   0.571   5.027 -0.3178 -1.1907  1.0936
  781TIP3   OH2 2306   2.779   1.676   3.283  0.0895 -0.1744  0.2968
  781TIP3    H1 2307   2.799   1.698   3.374  0.4160 -1.3758  0.5277
  781TIP3    H2 2308   2.790   1.758   3.236 -0.2411  0.5042  1.3611
  782TIP3   OH2 2309  -0.006   0.986   1.687 -0.3861 -0.1397 -0.3923
  782TIP3    H1 2310   0.073   0.957   1.642  1.5103  0.2810  2.3955
  782TIP3    H2 2311  -0.026   1.071   1.647  0.7291 -0.1436 -1.0000
  783TIP3   OH2 2312   6.820   0.665   4.766  0.2630 -0.2332 -0.2098
  783TIP3    H1 2313   6.768   0.600   4.813 -0.1526  0.1576 -0.1171
  783TIP3    H2 2314   6.885   0.614   4.718  0.3868 -0.6666  0.4067
  784TIP3   OH2 2315   3.206   2.881   2.244 -0.6230 -0.5610  0.7587
  784TIP3    H1 2316   3.274   2.948   2.247 -0.6587 -0.5176  0.6030
  784TIP3    H2 2317   3.249   2.801   2.271 -1.1079 -0.0420  3.3744
  785TIP3   OH2 2318   3.955   6.154   3.807  0.0937  0.0023  0.3645
  785TIP3    H1 2319   3.928   6.183   3.720 -0.7758 -1.0638  0.2528
  785TIP3    H2 2320   3.928   6.224   3.865  1.9552  1.3922 -0.3419
  786TIP3   OH2 2321   1.447   2.167   3.010  0.0009  0.1826  0.0611
  786TIP3    H1 2322   1.451   2.257   2.980  0.6589 -0.2911 -1.3564
  786TIP3    H2 2323   1.521   2.124   2.966 -0.5941 -1.1582  0.3262
  787TIP3   OH2 2324   5.415   3.712   2.578  0.3681 -0.0921 -0.2235
  787TIP3    H1 2325   5.404   3.632   2.527 -1.4156 -0.5546  0.7711
  787TIP3    H2 2326   5.381   3.781   2.521  2.0389  0.0124 -1.1375
  788TIP3   OH2 2327   4.773   4.874   2.453 -0.0523 -0.2882 -0.5073
  788TIP3    H1 2328   4.688   4.918   2.458  1.2967  2.3671  2.4087
  788TIP3    H2 2329   4.765   4.798   2.512 -0.8032 -0.9646 -1.4503
  789TIP3   OH2 2330   0.264   4.845   4.800  0.4342  0.3457 -0.4980
  789TIP3    H1 2331   0.208   4.873   4.728 -1.4253  0.4149  0.8752
  789TIP3    H2 2332   0.229   4.759   4.825  0.6724  0.5716  0.6681
  790TIP3   OH2 2333   4.947   0.558   2.191  0.0696 -0.0630 -0.4592
  790TIP3    H1 2334   4.893   0.598   2.259  0.8122 -0.7366  0.5537
  790TIP3    H2 2335   4.975   0.474   2.228 -1.7211 -1.7619 -2.6462
  791TIP3   OH2 2336   1.520   4.992   0.153 -0.0061 -0.0671 -0.5380
  791TIP3    H1 2337   1.560   5.026   0.073  1.1529  0.9441  0.4319
  791TIP3    H2 2338   1.590   4.999   0.219 -0.5798 -1.8734  0.3221
  792TIP3   OH2 2339   1.287   6.662   1.407  0.2626  0.5933  0.9228
  792TIP3    H1 2340   1.318   6.588   1.355 -0.9784  0.1201  0.8022
  792TIP3    H2 2341   1.336   6.658   1.489 -1.0419 -1.4636  1.6561
  793TIP3   OH2 2342   3.969   4.066   3.596 -0.3212 -0.3522  0.8108
  793TIP3    H1 2343   3.992   4.053   3.504 -2.1464 -1.7703  0.4962
  793TIP3    H2 2344   3.895   4.127   3.595 -1.3589 -1.5446  1.1634
  794TIP3   OH2 2345   4.656   3.975   1.005  0.0090 -0.4094  0.1867
  794TIP3    H1 2346   4.714   3.926   0.948  1.0933  0.0040  0.9040
  794TIP3    H2 2347   4.596   3.909   1.040  0.6509 -1.0106  0.1720
  795TIP3   OH2 2348   6.745   4.840   5.824  0.0369 -0.6722  0.4613
  795TIP3    H1 2349   6.812   4.901   5.793  0.5748 -1.4751  0.0018
  795TIP3    H2 2350   6.741   4.855   5.918  1.2169 -0.9498  0.5654
  796TIP3   OH2 2351   4.018   5.841   0.512 -0.5391 -0.1001  0.1777
  796TIP3    H1 2352   4.089   5.811   0.569 -1.3473  0.5364  1.5628
  796TIP3    H2 2353   4.061   5.859   0.428  0.7928 -0.4475  0.7552
  797TIP3   OH2 2354   5.965   3.733   2.619  0.1406 -0.4642 -0.1497
  797TIP3    H1 2355   5.875   3.705   2.604 -0.3625  0.3140  1.1680
  797TIP3    H2 2356   5.993   3.682   2.695 -0.2860  1.4161  1.3572
  798TIP3   OH2 2357   4.485   2.484   3.104  0.0565  0.5206 -0.2571
  798TIP3    H1 2358   4.413   2.544   3.126  0.2190  0.7406 -0.3135
  798TIP3    H2 2359   4.505   2.441   3.187 -1.2154 -0.7476 -0.5729
  799TIP3   OH2 2360   6.132   3.830   3.438  0.0737  0.3490  0.0069
  799TIP3    H1 2361   6.193   3.828   3.364  0.4904 -0.6706  0.3605
  799TIP3    H2 2362   6.186   3.815   3.515 -0.2568  2.0901  0.6275
  800TIP3   OH2 2363   3.331   6.409   3.091 -0.4467  0.5841 -0.2346
  800TIP3    H1 2364   3.319   6.379   3.001  0.7699 -0.9855  0.0894
  800TIP3    H2 2365   3.294   6.498   3.092 -1.0109  0.4056 -2.1122
  801TIP3   OH2 2366   7.114   0.751   3.181 -0.4374  0.0314 -0.9163
  801TIP3    H1 2367   7.089   0.659   3.178  0.9233 -0.3370 -2.0769
  801TIP3    H2 2368   7.066   0.786   3.256 -0.8823 -1.6393 -0.3656
  802TIP3   OH2 2369   3.776   2.199   0.670 -0.1780  0.1903 -0.2091
  802TIP3    H1 2370   3.857   2.181   0.621 -0.9688 -1.5234 -0.9836
  802TIP3    H2 2371   3.707   2.157   0.618 -1.1741 -1.0753  2.0033
  803TIP3   OH2 2372  -0.001   3.561   4.674 -0.7253 -0.3034 -0.1104
  803TIP3    H1 2373   0.093   3.551   4.687 -0.6027 -1.3530 -1.5479
  803TIP3    H2 2374  -0.039   3.539   4.759  0.3132 -0.1131  0.4168
  804TIP3   OH2 2375   6.334   3.953   1.903 -0.2143  0.9877  0.0898
  804TIP3    H1 2376   6.266   3.888   1.917 -0.4220  1.2635  0.3724
  804TIP3    H2 2377   6.309   3.997   1.822  0.1193  0.4799 -0.2970
  805TIP3   OH2 2378   4.192   4.214   2.221  0.2057  0.7448  0.4758
  805TIP3    H1 2379   4.143   4.250   2.295 -2.4867  0.2313 -0.8995
  805TIP3    H2 2380   4.170   4.120   2.221 -0.6077  0.8711 -1.4047
  806TIP3   OH2 2381   7.103   3.264   0.965 -0.6081 -0.4350  0.2699
  806TIP3    H1 2382   7.091   3.315   0.886  1.4547 -0.1631  0.0701
  806TIP3    H2 2383   7.100   3.328   1.036 -0.2573 -0.3519  0.2116
  807TIP3   OH2 2384   6.995   6.469   5.551  0.2113 -0.4499  0.1948
  807TIP3    H1 2385   7.084   6.504   5.557 -0.8330  2.6877 -0.6018
  807TIP3    H2 2386   6.941   6.532   5.599 -2.0371 -0.0968 -2.4895
  808TIP3   OH2 2387   2.117   0.193   4.116 -0.5486  0.1936 -0.2784
  808TIP3    H1 2388   2.041   0.183   4.174 -0.1145 -1.6868  0.0419
  808TIP3    H2 2389   2.157   0.106   4.115 -0.0916  0.3566 -2.8084
  809TIP3   OH2 2390   4.187   4.598   1.468 -0.4746  0.6774 -0.2276
  809TIP3    H1 2391   4.111   4.655   1.471 -0.6558  0.4876 -1.0140
  809TIP3    H2 2392   4.154   4.515   1.433 -0.1696  0.1570  0.6686
  810TIP3   OH2 2393   5.788   4.769   5.639  0.5894 -0.1383  0.4774
  810TIP3    H1 2394   5.757   4.846   5.592  2.2928  0.9380  1.0435
  810TIP3    H2 2395   5.841   4.721   5.575  1.7732  0.6159  0.8513
  811TIP3   OH2 2396   3.759   2.933   3.198 -0.5429 -0.1277 -0.2002
  811TIP3    H1 2397   3.682   2.905   3.247  1.4373 -0.6611  2.9067
  811TIP3    H2 2398   3.828   2.872   3.225  1.4356  1.4415 -1.4029
  812TIP3   OH2 2399   0.285   6.458   2.237 -0.3022 -0.0488  0.1069
  812TIP3    H1 2400   0.191   6.451   2.219 -0.1374 -1.0798 -0.3729
  812TIP3    H2 2401   0.310   6.372   2.270  0.3966  0.3519  0.6537
  813TIP3   OH2 2402   4.827   5.657   0.989 -0.4607  0.1522 -0.2563
  813TIP3    H1 2403   4.912   5.653   0.945 -0.0640 -2.7297  0.5860
  813TIP3    H2 2404   4.829   5.740   1.038  0.1945  2.0785 -3.2748
  814TIP3   OH2 2405   0.730   1.095   2.589 -0.0551 -0.2597  0.6870
  814TIP3    H1 2406   0.659   1.125   2.645  1.0966  0.7414  1.6805
  814TIP3    H2 2407   0.792   1.168   2.589  1.0272 -1.1575 -0.0270
  815TIP3   OH2 2408   4.611   2.129   5.086  0.4640  0.4485  0.4067
  815TIP3    H1 2409   4.533   2.120   5.031 -0.4970  2.0206  1.4354
  815TIP3    H2 2410   4.684   2.128   5.023 -0.4544  0.0946 -0.6955
  816TIP3   OH2 2411   1.400   5.601   0.141  0.1604 -0.5037 -0.2596
  816TIP3    H1 2412   1.408   5.532   0.076 -1.6564 -0.7021 -0.3264
  816TIP3    H2 2413   1.395   5.682   0.090  0.8793 -0.4467 -0.2481
  817TIP3   OH2 2414   1.177   1.921   0.224 -0.0110 -0.2342  0.1662
  817TIP3    H1 2415   1.212   1.973   0.297 -0.0794 -0.3785  0.3038
  817TIP3    H2 2416   1.245   1.924   0.157 -0.6093  1.2497 -0.4128
  818TIP3   OH2 2417   4.063   1.910   2.613  0.2815 -0.2797  0.3691
  818TIP3    H1 2418   4.035   1.849   2.545 -2.2960  2.4449 -1.2136
  818TIP3    H2 2419   4.134   1.960   2.573  0.3670 -0.2357  0.5741
  819TIP3   OH2 2420   4.381   4.420   3.028 -0.5936  0.2353 -0.5081
  819TIP3    H1 2421   4.471   4.390   3.045 -1.1052 -1.4968 -0.6359
  819TIP3    H2 2422   4.391   4.484   2.957  0.4054 -1.2459 -1.7804
  820TIP3   OH2 2423   1.988   6.585   2.826 -0.0351  0.3103  0.2904
  820TIP3    H1 2424   1.907   6.604   2.874  0.0929  0.8315  0.3015
  820TIP3    H2 2425   2.004   6.663   2.773 -1.5136 -1.1607 -2.5467
  821TIP3   OH2 2426   1.170   5.143   0.265  0.6114 -0.3075 -0.3084
  821TIP3    H1 2427   1.099   5.096   0.309  0.4402 -0.5293 -0.8146
  821TIP3    H2 2428   1.250   5.104   0.301  0.4701 -0.6928 -0.4030
  822TIP3   OH2 2429   4.849   4.058   1.701 -0.6364 -0.4585  0.2355
  822TIP3    H1 2430   4.842   3.963   1.708 -0.0638 -0.4408  1.1873
  822TIP3    H2 2431   4.760   4.088   1.684 -0.9128 -1.1242  0.4828
  823TIP3   OH2 2432   2.484   6.837   1.797  1.0325 -0.2557 -0.0093
  823TIP3    H1 2433   2.427   6.839   1.874 -1.3986  1.1419 -1.7362
  823TIP3    H2 2434   2.488   6.745   1.772  0.1460 -0.4627  0.5774
  824TIP3   OH2 2435   5.217   6.731   0.907 -0.0823 -0.0195 -0.3741
  824TIP3    H1 2436   5.258   6.803   0.859 -0.2855  0.3902  0.0515
  824TIP3    H2 2437   5.151   6.696   0.846  0.2138 -0.0340 -0.6891
  825TIP3   OH2 2438   4.433   6.554   4.711  0.0297  0.3573 -0.2772
  825TIP3    H1 2439   4.388   6.624   4.759  0.3417  0.1392  0.3493
  825TIP3    H2 2440   4.516   6.593   4.684  0.5853 -0.0088  0.8214
  826TIP3   OH2 2441   1.239   6.611   5.160 -0.6085  0.1688  0.5335
  826TIP3    H1 2442   1.203   6.610   5.249  0.8806 -2.6155  1.2076
  826TIP3    H2 2443   1.182   6.551   5.111  0.0293 -0.2118  0.2555
  827TIP3   OH2 2444   4.022   1.825   0.180 -0.0682 -0.2952 -0.0003
  827TIP3    H1 2445   3.959   1.897   0.187  0.1184  0.0298 -1.3111
  827TIP3    H2 2446   4.041   1.801   0.270 -0.4964  0.9855  0.4582
  828TIP3   OH2 2447   6.142   6.213   5.554  0.1714 -0.1139  0.2572
  828TIP3    H1 2448   6.114   6.158   5.481  1.2651  2.3859 -2.2309
  828TIP3    H2 2449   6.064   6.262   5.579 -0.1230 -0.7321  0.5657
  829TIP3   OH2 2450   5.484   2.901   1.879 -0.3151 -0.6025  0.3579
  829TIP3    H1 2451   5.434   2.971   1.920 -0.2596 -0.6201  0.4564
  829TIP3    H2 2452   5.554   2.945   1.831 -1.0049 -0.5170 -0.5952
  830TIP3   OH2 2453   5.578   2.225   2.819  0.2514 -0.7837  0.0861
  830TIP3    H1 2454   5.624   2.293   2.770 -2.7387  1.3114 -0.0827
  830TIP3    H2 2455   5.576   2.257   2.909 -3.0174  0.6679 -0.3428
  831TIP3   OH2 2456   4.788   0.511   3.843 -0.0119  0.3260 -0.0977
  831TIP3    H1 2457   4.843   0.438   3.871  1.5412  1.0778 -1.0182
  831TIP3    H2 2458   4.835   0.589   3.872 -1.8066  0.9917  1.1808
  832TIP3   OH2 2459   4.114   6.061   0.804 -0.0588  0.0042 -0.9420
  832TIP3    H1 2460   4.166   6.122   0.750  0.2373  1.5082  0.9137
  832TIP3    H2 2461   4.171   5.986   0.817  0.5676  0.4124 -1.2703
  833TIP3   OH2 2462   0.884   1.779   5.880 -0.8614  0.1074  0.4500
  833TIP3    H1 2463   0.938   1.838   5.829  1.1175 -2.3395 -0.5019
  833TIP3    H2 2464   0.830   1.733   5.815 -0.0702 -1.3104  0.7408
  834TIP3   OH2 2465   4.756   0.266   5.330 -0.2151  0.0386 -0.2352
  834TIP3    H1 2466   4.750   0.238   5.239  2.8970  0.5773 -0.7083
  834TIP3    H2 2467   4.695   0.339   5.337 -0.0868  0.3634 -2.0698
  835TIP3   OH2 2468   5.668   4.684   1.366 -1.2343  0.3516 -0.5642
  835TIP3    H1 2469   5.619   4.718   1.290 -2.1801  1.7835  0.6109
  835TIP3    H2 2470   5.605   4.630   1.413 -1.1421  0.7331  0.0085
  836TIP3   OH2 2471   0.892   2.805   4.556  0.1509 -0.3300  0.1203
  836TIP3    H1 2472   0.858   2.869   4.493  1.9753 -0.0302 -0.6394
  836TIP3    H2 2473   0.826   2.801   4.624  0.2052  2.8739  0.5347
  837TIP3   OH2 2474   2.702   4.312   2.180 -0.0713  0.1365  0.1696
  837TIP3    H1 2475   2.787   4.272   2.162 -0.6826 -0.8054 -0.7004
  837TIP3    H2 2476   2.724   4.394   2.225  1.3297  0.2742 -0.7011
  838TIP3   OH2 2477   6.260   5.414   1.435  0.1917 -0.2590  0.0065
  838TIP3    H1 2478   6.225   5.328   1.456 -1.6101  0.3075 -0.5661
  838TIP3    H2 2479   6.355   5.404   1.445 -0.1144 -1.6697  2.2758
  839TIP3   OH2 2480   2.723   4.100   0.945  0.0927  0.5443 -0.2139
  839TIP3    H1 2481   2.634   4.066   0.942  0.0282  0.7484 -0.5908
  839TIP3    H2 2482   2.720   4.169   1.011 -0.4354  1.7183 -1.4357
  840TIP3   OH2 2483   6.132   4.213   2.134 -0.1549  0.3205 -0.0275
  840TIP3    H1 2484   6.201   4.239   2.195  0.2960 -0.9294  0.0240
  840TIP3    H2 2485   6.160   4.250   2.050  0.4621  0.0590  0.0505
  841TIP3   OH2 2486   1.235   3.019   0.125 -0.0398  0.4403 -0.2905
  841TIP3    H1 2487   1.240   3.024   0.221 -0.4310 -2.0484 -0.0881
  841TIP3    H2 2488   1.239   3.111   0.097 -0.6672  1.3032  2.1275
  842TIP3   OH2 2489   6.555   0.286   2.671  0.0221  0.1054 -0.5046
  842TIP3    H1 2490   6.482   0.340   2.701 -0.9798 -1.0616 -0.8051
  842TIP3    H2 2491   6.590   0.332   2.595  0.0205  0.9850  0.0060
  843TIP3   OH2 2492   5.334   1.771   5.787  0.4595  0.3672  0.4813
  843TIP3    H1 2493   5.333   1.782   5.882 -0.8320 -0.7730  0.6200
  843TIP3    H2 2494   5.250   1.731   5.766  1.0164 -0.0717 -1.0721
  844TIP3   OH2 2495   3.564   3.906   2.491 -0.3223 -0.2831 -0.0445
  844TIP3    H1 2496   3.514   3.979   2.527 -2.5848 -2.7526  2.2973
  844TIP3    H2 2497   3.598   3.860   2.568  0.9382 -1.7608 -1.4115
  845TIP3   OH2 2498   6.019   1.570   3.159  0.3823 -0.0697 -0.1211
  845TIP3    H1 2499   5.998   1.476   3.157  0.6018 -0.1393  0.6141
  845TIP3    H2 2500   6.083   1.581   3.089  0.5692 -0.5224 -0.0269
  846TIP3   OH2 2501   4.742   1.393   4.122  0.1373 -0.2237 -0.0265
  846TIP3    H1 2502   4.696   1.420   4.201  0.3818  1.7173 -0.4726
  846TIP3    H2 2503   4.828   1.436   4.129  0.1330  0.0532 -1.3672
  847TIP3   OH2 2504   4.325   2.159   5.480 -0.0814  0.0043 -0.5677
  847TIP3    H1 2505   4.285   2.082   5.519 -3.5322  1.8653 -0.0238
  847TIP3    H2 2506   4.364   2.206   5.554  0.6100 -0.4203 -0.6574
  848TIP3   OH2 2507   2.853   6.141   4.953 -0.1324  0.0449 -0.1345
  848TIP3    H1 2508   2.908   6.210   4.916  2.6976 -0.4705  2.7023
  848TIP3    H2 2509   2.867   6.066   4.895  0.7473  0.4368 -0.4532
  849TIP3   OH2 2510   1.061   0.134   2.977  0.3101  0.6704 -0.7665
  849TIP3    H1 2511   1.056   0.045   3.013  0.4505  0.3607 -1.4877
  849TIP3    H2 2512   0.972   0.154   2.950  0.1970  0.9182 -0.2184
  850TIP3   OH2 2513   7.146   1.313   3.961  0.0479 -0.0412  0.4566
  850TIP3    H1 2514   7.207   1.382   3.933 -0.6021  0.7360  0.9027
  850TIP3    H2 2515   7.184   1.232   3.928  0.6934  0.5651 -0.3240
  851TIP3   OH2 2516   5.775   4.262   0.009 -0.0087  0.1287  0.0740
  851TIP3    H1 2517   5.823   4.327   0.061 -0.2859 -0.5161  1.1519
  851TIP3    H2 2518   5.844   4.208  -0.031  0.2105  0.7878 -0.4643
  852TIP3   OH2 2519   3.248   6.215   0.055 -0.4313 -0.3453 -0.0951
  852TIP3    H1 2520   3.195   6.154   0.107  0.7626 -0.8016  0.6426
  852TIP3    H2 2521   3.287   6.161  -0.014  0.6144 -0.4583  0.5491
  853TIP3   OH2 2522   5.971   3.546   2.835 -0.6950  0.8303  0.1308
  853TIP3    H1 2523   5.911   3.505   2.898 -1.1416 -3.4815 -2.6921
  853TIP3    H2 2524   6.056   3.545   2.880 -1.6519  1.6338  2.0677
  854TIP3   OH2 2525   1.745   5.390   1.822  0.7519 -0.3017 -0.3795
  854TIP3    H1 2526   1.690   5.418   1.749 -0.0136  0.9176  0.6159
  854TIP3    H2 2527   1.719   5.447   1.894  0.2164 -2.6184  1.3656
  855TIP3   OH2 2528   3.432   1.216   0.027 -0.1164  0.3835 -0.0274
  855TIP3    H1 2529   3.356   1.220  -0.031  0.1227  0.4548 -0.3392
  855TIP3    H2 2530   3.459   1.124   0.024 -0.4749  0.2587  0.4570
  856TIP3   OH2 2531   0.418   2.445   4.899  0.2145 -0.0166 -0.0922
  856TIP3    H1 2532   0.423   2.536   4.867 -0.9262 -0.5149 -1.8694
  856TIP3    H2 2533   0.339   2.444   4.953  0.7005  0.2171  0.6451
  857TIP3   OH2 2534   6.988   6.248   0.699 -0.0902 -0.2584  0.3636
  857TIP3    H1 2535   6.966   6.340   0.713  1.3995  0.2185 -0.1951
  857TIP3    H2 2536   6.998   6.211   0.787 -2.3429 -0.3600  0.6354
  858TIP3   OH2 2537   7.083   0.847   3.567 -0.1276 -0.5066  0.0747
  858TIP3    H1 2538   7.148   0.779   3.550  1.6148  1.2630 -0.8857
  858TIP3    H2 2539   7.011   0.827   3.508  0.4270 -1.4167 -0.3173
  859TIP3   OH2 2540   2.783   3.527   5.547 -0.5021  0.4589 -0.2400
  859TIP3    H1 2541   2.824   3.457   5.497 -1.6172  0.0624 -0.6352
  859TIP3    H2 2542   2.822   3.608   5.512  2.5728  0.0448  1.8269
  860TIP3   OH2 2543   3.803   0.746   4.471 -0.1224 -0.0695 -0.0855
  860TIP3    H1 2544   3.829   0.764   4.562 -0.8675  2.8918 -0.3593
  860TIP3    H2 2545   3.884   0.719   4.428  1.0562  1.9760  0.7111
  861TIP3   OH2 2546   5.113   0.129   1.000  0.2234 -0.0001  0.0525
  861TIP3    H1 2547   5.027   0.113   0.961  0.1460 -1.1196  0.6292
  861TIP3    H2 2548   5.175   0.091   0.937  0.2923  0.5825 -0.2418
  862TIP3   OH2 2549   5.089   2.602   1.986 -0.5179  0.6136  1.0847
  862TIP3    H1 2550   5.093   2.508   1.968  0.8768  0.4680  2.0174
  862TIP3    H2 2551   5.003   2.629   1.953 -0.9186 -0.9656  0.7457
  863TIP3   OH2 2552   2.993   4.094   0.771  0.1129 -0.5388 -0.4629
  863TIP3    H1 2553   2.922   4.080   0.833  1.0002 -1.7606  0.3325
  863TIP3    H2 2554   2.963   4.166   0.716 -0.6558  0.7084  1.4705
  864TIP3   OH2 2555   0.498   1.761   0.519  0.4300 -0.1834  0.6020
  864TIP3    H1 2556   0.427   1.723   0.572 -1.8887  1.2405 -1.3090
  864TIP3    H2 2557   0.455   1.794   0.441  3.0658  1.9238 -0.0997
  865TIP3   OH2 2558   1.639   0.150   1.472  0.3452  0.0551  0.4811
  865TIP3    H1 2559   1.576   0.115   1.409  0.7030  0.2534  0.0132
  865TIP3    H2 2560   1.723   0.144   1.428  0.3918  1.7752  0.2591
  866TIP3   OH2 2561   5.300   3.793   3.096  1.0232 -0.0089 -0.3398
  866TIP3    H1 2562   5.298   3.747   3.012  0.4717  1.4532 -1.1663
  866TIP3    H2 2563   5.321   3.884   3.072 -0.7231  0.7682  0.9467
  867TIP3   OH2 2564   6.215   6.613   5.850 -0.3449 -0.2564 -0.5738
  867TIP3    H1 2565   6.218   6.550   5.922 -0.0328 -2.1143 -2.1356
  867TIP3    H2 2566   6.122   6.622   5.829 -0.2809 -2.0696 -1.8441
  868TIP3   OH2 2567   4.989   6.724   1.364  0.2119  0.3592  0.4195
  868TIP3    H1 2568   5.036   6.656   1.413  1.9961 -0.3050 -1.9730
  868TIP3    H2 2569   4.901   6.725   1.401  1.3460 -0.1718  3.4286
  869TIP3   OH2 2570   3.954   1.842   5.197  0.3859  0.1092  0.4099
  869TIP3    H1 2571   4.016   1.843   5.270 -0.8049  0.4405  1.4488
  869TIP3    H2 2572   3.979   1.765   5.145  1.9206  0.4825  0.5454
  870TIP3   OH2 2573   0.717   6.225   0.916 -0.1820 -0.0254 -0.1490
  870TIP3    H1 2574   0.774   6.149   0.908 -1.6364 -1.1402 -0.3454
  870TIP3    H2 2575   0.728   6.273   0.834 -0.1238 -0.6400 -0.5022
  871TIP3   OH2 2576   6.097   4.568   0.814 -0.2111 -0.0281 -0.1581
  871TIP3    H1 2577   6.150   4.490   0.796  1.2836  0.9303 -0.1432
  871TIP3    H2 2578   6.080   4.564   0.908  0.5871  0.0762  0.0009
  872TIP3   OH2 2579   1.386   4.148   2.705  0.6954  0.2643  0.0971
  872TIP3    H1 2580   1.455   4.158   2.640  2.2299 -1.7234  1.2988
  872TIP3    H2 2581   1.339   4.069   2.679  0.1753  0.4550  0.4356
  873TIP3   OH2 2582   6.248   3.770   4.990 -0.7406 -0.1431 -0.4940
  873TIP3    H1 2583   6.246   3.821   4.909  0.7916  2.1305  0.7755
  873TIP3    H2 2584   6.328   3.799   5.034  0.0062 -3.4265  0.5536
  874TIP3   OH2 2585   1.057   0.784   0.995  0.6750  0.2134  0.4628
  874TIP3    H1 2586   1.053   0.756   1.086  3.6999  0.2227  0.7066
  874TIP3    H2 2587   1.105   0.866   0.997 -0.2171  0.8188 -1.0699
  875TIP3   OH2 2588   4.752   1.427   5.793 -0.0847 -0.0987 -0.0022
  875TIP3    H1 2589   4.764   1.478   5.874 -0.9570  1.4378 -0.7985
  875TIP3    H2 2590   4.837   1.385   5.779  0.0925 -0.3913  1.6940
  876TIP3   OH2 2591   2.611   1.315   3.108 -0.1279  0.2549  0.1890
  876TIP3    H1 2592   2.630   1.304   3.201  1.3662  0.6766 -0.0511
  876TIP3    H2 2593   2.518   1.341   3.106 -0.4858 -0.8297  1.4698
  877TIP3   OH2 2594   3.870   3.508   0.735 -0.3170  0.1819 -0.2024
  877TIP3    H1 2595   3.916   3.439   0.783  0.9134  1.0066 -0.1774
  877TIP3    H2 2596   3.778   3.481   0.739  0.0332 -1.0075  0.5502
  878TIP3   OH2 2597   1.515   3.193   1.313  0.2190 -0.1699 -0.0725
  878TIP3    H1 2598   1.601   3.230   1.293  0.1372 -0.3782 -0.8456
  878TIP3    H2 2599   1.525   3.155   1.400  0.5965  0.7602  0.3006
  879TIP3   OH2 2600   0.968   6.067   1.155 -0.6558  0.2885  0.3820
  879TIP3    H1 2601   0.980   5.976   1.184 -0.5835  0.6366  1.4675
  879TIP3    H2 2602   1.042   6.083   1.096  0.7407  0.4037  2.0906
  880TIP3   OH2 2603   5.177   2.820   3.970 -0.0930 -0.2959 -0.3207
  880TIP3    H1 2604   5.213   2.749   4.023 -1.2263 -1.0213 -0.4711
  880TIP3    H2 2605   5.190   2.899   4.022  2.4069 -0.3791 -0.7228
  881TIP3   OH2 2606   4.732   1.358   1.176  0.6365 -0.2401 -0.1308
  881TIP3    H1 2607   4.769   1.400   1.253  0.3910 -0.0094 -0.1350
  881TIP3    H2 2608   4.777   1.399   1.102  0.3199  0.1071 -0.1401
  882TIP3   OH2 2609   0.441   1.323   1.185  0.2815 -0.8513 -0.1220
  882TIP3    H1 2610   0.373   1.255   1.186 -1.1730  0.5046 -1.5134
  882TIP3    H2 2611   0.444   1.354   1.276 -0.3933 -1.4873  0.1291
  883TIP3   OH2 2612   0.939   2.430   4.445 -0.3152 -0.3970 -0.5304
  883TIP3    H1 2613   0.954   2.338   4.469  1.6154 -0.0411 -0.1796
  883TIP3    H2 2614   1.013   2.452   4.388 -0.2921  1.1666  0.0590
  884TIP3   OH2 2615   3.310   5.956   1.443 -0.3489  0.5250 -0.9023
  884TIP3    H1 2616   3.262   5.985   1.521 -0.8636 -0.4118 -0.8523
  884TIP3    H2 2617   3.398   5.936   1.475  0.4291  3.1245 -1.1573
  885TIP3   OH2 2618   4.052   1.736   2.408  0.2502  0.4042 -0.5454
  885TIP3    H1 2619   4.077   1.655   2.365  0.1784  0.8090 -1.3583
  885TIP3    H2 2620   4.067   1.804   2.342 -0.4928  0.9570 -0.1529
  886TIP3   OH2 2621   1.773   2.916   0.125  0.1821 -0.5902 -0.0584
  886TIP3    H1 2622   1.681   2.910   0.153  0.2360 -2.9846 -0.1924
  886TIP3    H2 2623   1.779   3.001   0.080 -2.3519 -1.0050 -1.3773
  887TIP3   OH2 2624   1.286   6.747   4.062 -0.3382 -0.0337 -0.3212
  887TIP3    H1 2625   1.209   6.690   4.058 -4.6689  5.0130 -0.9786
  887TIP3    H2 2626   1.277   6.804   3.985  3.9977  1.1221 -0.2211
  888TIP3   OH2 2627   1.361   1.393   5.221 -0.3778 -0.2608 -0.5774
  888TIP3    H1 2628   1.350   1.298   5.225 -0.2662 -0.2173  1.3349
  888TIP3    H2 2629   1.278   1.425   5.185 -0.5241 -1.0359 -0.9641
  889TIP3   OH2 2630   5.165   0.964   1.513 -0.3806 -0.2352 -0.5753
  889TIP3    H1 2631   5.252   0.992   1.484 -0.2176  1.0198  0.9838
  889TIP3    H2 2632   5.155   0.875   1.478  2.2425 -1.0999  0.5843
  890TIP3   OH2 2633   6.571   4.213   5.015 -0.0299 -0.6607  0.5442
  890TIP3    H1 2634   6.479   4.211   5.041  0.0722 -0.4031  0.9335
  890TIP3    H2 2635   6.619   4.222   5.097  0.2873  0.4100  0.2549
  891TIP3   OH2 2636   4.226   4.422   0.943  0.1234  0.1722  0.1881
  891TIP3    H1 2637   4.260   4.368   1.014  0.5364 -1.2627 -1.0634
  891TIP3    H2 2638   4.300   4.480   0.919  0.0650  0.4789  0.7349
  892TIP3   OH2 2639   1.475   1.954   3.642  0.1645  0.0711  0.1439
  892TIP3    H1 2640   1.415   1.996   3.579 -1.2073 -2.2344 -0.1901
  892TIP3    H2 2641   1.534   1.903   3.588 -0.1159 -0.8044  0.6488
  893TIP3   OH2 2642   2.219   1.020   1.259 -0.4658 -0.0847  0.0867
  893TIP3    H1 2643   2.273   1.053   1.187 -0.0004  1.3961  1.0773
  893TIP3    H2 2644   2.227   0.925   1.253  1.0684  0.0600 -0.6923
  894TIP3   OH2 2645   7.092   6.772   1.829 -0.5314 -0.2422  0.1524
  894TIP3    H1 2646   7.142   6.715   1.887  0.6037 -0.2257 -0.7843
  894TIP3    H2 2647   7.135   6.764   1.744  0.0723  2.4737  0.1038
  895TIP3   OH2 2648   0.155   5.363   2.231 -0.0073  0.1935 -0.1619
  895TIP3    H1 2649   0.162   5.441   2.176 -0.5191  0.1319 -0.3244
  895TIP3    H2 2650   0.191   5.389   2.315 -0.4074  0.6822 -0.1405
  896TIP3   OH2 2651   2.316   4.941   0.319 -0.2365  0.3097  0.0851
  896TIP3    H1 2652   2.404   4.940   0.280 -0.3876  1.4829 -0.2987
  896TIP3    H2 2653   2.318   5.014   0.380 -1.0802  0.5877 -0.2169
  897TIP3   OH2 2654   6.842   0.106   3.803 -0.1145 -0.1403 -0.7810
  897TIP3    H1 2655   6.754   0.084   3.773  0.0500  0.1696 -1.5187
  897TIP3    H2 2656   6.850   0.062   3.887 -1.2290  0.3857 -0.3679
  898TIP3   OH2 2657   2.353   4.975   5.747  0.4247 -0.2415 -0.2177
  898TIP3    H1 2658   2.258   4.980   5.739  0.5527  1.0277 -1.3051
  898TIP3    H2 2659   2.369   4.888   5.785 -1.1863 -0.1736  0.7198
  899TIP3   OH2 2660   4.146   4.913   3.356  0.2805  0.2463 -0.1830
  899TIP3    H1 2661   4.227   4.898   3.308  1.5437  1.5335  1.4063
  899TIP3    H2 2662   4.121   4.827   3.389  1.6506 -0.0154  0.2355
  900TIP3   OH2 2663   3.559   6.527   2.814 -0.4536 -0.6125  0.1256
  900TIP3    H1 2664   3.603   6.563   2.737 -1.6829 -1.5283 -1.0438
  900TIP3    H2 2665   3.629   6.519   2.879  0.4519  0.9370 -0.6007
  901TIP3   OH2 2666   0.097   4.128   1.801  0.2106  0.7809  0.2137
  901TIP3    H1 2667   0.134   4.212   1.826  2.1501  0.0112  0.1206
  901TIP3    H2 2668   0.163   4.088   1.745 -1.1235 -0.3834 -0.6089
  902TIP3   OH2 2669   4.474   2.318   5.695  0.1097  0.1407 -0.0328
  902TIP3    H1 2670   4.516   2.358   5.619  1.2796  0.7916  0.9417
  902TIP3    H2 2671   4.464   2.389   5.758 -3.9776  0.4655 -0.7412
  903TIP3   OH2 2672   5.666   5.866   1.276 -0.4317  0.2894  0.1790
  903TIP3    H1 2673   5.683   5.822   1.193 -2.2215 -1.8376  0.8499
  903TIP3    H2 2674   5.587   5.918   1.259 -1.0097 -0.4251  0.5845
  904TIP3   OH2 2675   5.111   1.865   0.087 -0.6923 -0.1949  0.0528
  904TIP3    H1 2676   5.095   1.955   0.115  0.1476  0.1302 -0.4588
  904TIP3    H2 2677   5.094   1.866  -0.007  1.8297  0.1126 -0.4909
  905TIP3   OH2 2678   5.602   3.033   3.775 -0.0928  0.3654 -0.0137
  905TIP3    H1 2679   5.644   3.043   3.861  1.0952 -1.9426 -0.2438
  905TIP3    H2 2680   5.559   2.948   3.780  0.7748 -0.2462 -1.9866
  906TIP3   OH2 2681   3.165   2.650   3.075 -0.2916 -0.1884  0.0899
  906TIP3    H1 2682   3.146   2.652   2.982 -0.8459  0.9285  0.2049
  906TIP3    H2 2683   3.199   2.562   3.092  1.6703  0.1803 -1.5105
  907TIP3   OH2 2684   4.173   1.898   1.312 -0.3042 -0.3837 -0.7507
  907TIP3    H1 2685   4.191   1.918   1.404 -2.9259 -2.2277  0.2754
  907TIP3    H2 2686   4.129   1.976   1.279  0.9134  0.4080 -0.5797
  908TIP3   OH2 2687   7.193   6.086   4.837 -0.2692  0.2833 -0.1162
  908TIP3    H1 2688   7.139   6.022   4.884 -0.5990  0.6834  0.0534
  908TIP3    H2 2689   7.159   6.171   4.863  1.4472  0.6098  1.2209
  909TIP3   OH2 2690   1.088   0.658   1.588 -0.1780  0.1785 -0.3890
  909TIP3    H1 2691   1.144   0.671   1.511 -1.0631 -0.3853 -1.1575
  909TIP3    H2 2692   1.103   0.566   1.613  0.6582  0.5572  0.5901
  910TIP3   OH2 2693   0.475   6.285   0.475 -0.1118 -0.2841  0.2900
  910TIP3    H1 2694   0.386   6.321   0.467 -0.2080 -0.8829 -1.9694
  910TIP3    H2 2695   0.529   6.344   0.423  0.6560 -0.5317  0.7895
  911TIP3   OH2 2696   3.664   0.413   2.369  0.0437  0.4839  0.3817
  911TIP3    H1 2697   3.616   0.372   2.297  2.1261 -0.0381 -0.7631
  911TIP3    H2 2698   3.618   0.496   2.384 -2.3182 -0.7586  0.6255
  912TIP3   OH2 2699   4.557   6.721   3.310 -0.2129 -0.4616 -0.3998
  912TIP3    H1 2700   4.557   6.677   3.395 -0.3411  1.1105  0.4606
  912TIP3    H2 2701   4.484   6.682   3.262 -0.0092 -1.5138  0.1244
  913TIP3   OH2 2702   1.265   5.702   4.763 -0.2869  0.2737 -0.1133
  913TIP3    H1 2703   1.213   5.633   4.720  0.3937  1.4491 -3.0966
  913TIP3    H2 2704   1.250   5.688   4.856 -1.1760 -3.1149 -0.6010
  914TIP3   OH2 2705   3.968   0.894   0.318  0.0194  0.4617  0.2270
  914TIP3    H1 2706   3.894   0.948   0.289 -0.3144 -0.3962 -0.5943
  914TIP3    H2 2707   3.959   0.890   0.413  0.2170  2.0566  0.3234
  915TIP3   OH2 2708   5.909   4.427   5.451  0.4776  0.5226 -0.2254
  915TIP3    H1 2709   5.842   4.361   5.470 -0.1202  0.8022 -1.2968
  915TIP3    H2 2710   5.940   4.406   5.363 -0.9333  2.6526 -1.3046
  916TIP3   OH2 2711   2.730   2.586   0.246  0.6233  0.4446  0.6271
  916TIP3    H1 2712   2.654   2.645   0.243  0.1603 -0.2011 -0.9447
  916TIP3    H2 2713   2.713   2.529   0.321 -0.5933  0.1386  0.1438
  917TIP3   OH2 2714   4.236   6.213   1.648 -0.4871  0.4883  0.3692
  917TIP3    H1 2715   4.153   6.258   1.633 -0.8653  0.7796  2.9253
  917TIP3    H2 2716   4.229   6.179   1.737  2.4872  1.2744  1.0017
  918TIP3   OH2 2717   7.079   1.160   5.831 -0.0130  0.9176  0.1272
  918TIP3    H1 2718   7.117   1.149   5.744  2.4993 -0.0520  1.2607
  918TIP3    H2 2719   7.144   1.209   5.880  0.3106 -1.5982  2.4512
  919TIP3   OH2 2720   5.149   4.710   0.045  0.4722 -0.4357  0.4606
  919TIP3    H1 2721   5.198   4.779   0.090 -1.0712  0.4038  0.9196
  919TIP3    H2 2722   5.089   4.677   0.111 -0.0037 -1.0220 -0.2536
  920TIP3   OH2 2723   0.550   1.570   4.795 -0.2358 -0.4389  0.4320
  920TIP3    H1 2724   0.544   1.610   4.708 -0.2001 -0.3465  0.4717
  920TIP3    H2 2725   0.460   1.551   4.820 -0.2664 -0.2265  0.4860
  921TIP3   OH2 2726   1.321   4.819   4.708  0.3686  0.0069 -0.2203
  921TIP3    H1 2727   1.281   4.778   4.632  0.6342  0.6504 -0.7120
  921TIP3    H2 2728   1.313   4.754   4.778 -0.3874 -0.3649 -0.6472
  922TIP3   OH2 2729   4.388   1.756   3.264 -0.0960  0.0496  0.0114
  922TIP3    H1 2730   4.456   1.696   3.235 -1.2639 -0.0708 -2.8334
  922TIP3    H2 2731   4.306   1.708   3.250 -1.0021  1.8450 -1.3339
  923TIP3   OH2 2732   2.873   3.278   0.077  0.1419 -0.0389  0.1355
  923TIP3    H1 2733   2.913   3.192   0.073  0.9311  0.3645 -0.9478
  923TIP3    H2 2734   2.779   3.260   0.086  0.2787 -1.0031 -0.2563
  924TIP3   OH2 2735   1.545   6.712   3.158  0.7057 -0.1135 -0.5356
  924TIP3    H1 2736   1.453   6.687   3.156  0.9116 -0.8511 -2.0040
  924TIP3    H2 2737   1.545   6.802   3.191 -0.5785  0.0631 -0.9742
  925TIP3   OH2 2738   5.742   5.034   4.696 -0.3419  0.4142 -0.0221
  925TIP3    H1 2739   5.783   4.958   4.653 -0.3424  0.9777 -1.0670
  925TIP3    H2 2740   5.798   5.054   4.770  1.7542  1.5929 -1.8090
  926TIP3   OH2 2741   1.239   3.237   1.358  0.6550 -0.5861  0.6648
  926TIP3    H1 2742   1.247   3.262   1.451  2.1704 -1.2191  0.7297
  926TIP3    H2 2743   1.324   3.200   1.336 -0.3262 -2.2699 -0.4530
  927TIP3   OH2 2744   2.655   6.351   0.133 -0.0632 -0.8955 -0.2461
  927TIP3    H1 2745   2.666   6.257   0.117  0.4043 -0.6549 -1.4906
  927TIP3    H2 2746   2.623   6.385   0.049 -1.1448 -0.0829  0.4706
  928TIP3   OH2 2747   6.739   4.422   3.208  0.0656 -0.5832  0.3499
  928TIP3    H1 2748   6.782   4.399   3.126 -1.2261  0.3372 -0.6270
  928TIP3    H2 2749   6.664   4.363   3.214  0.5000 -1.0776  1.2177
  929TIP3   OH2 2750   7.134   2.194   4.236  0.0578  0.0074 -0.0121
  929TIP3    H1 2751   7.181   2.133   4.178 -1.9941 -0.9303 -0.8041
  929TIP3    H2 2752   7.067   2.139   4.278 -0.6295  1.3555  0.7079
  930TIP3   OH2 2753   4.162   3.509   3.649 -0.1340 -0.2060  0.2835
  930TIP3    H1 2754   4.166   3.421   3.612 -0.4616 -0.0861 -0.0545
  930TIP3    H2 2755   4.071   3.535   3.636  0.3754  0.9294 -1.4014
  931TIP3   OH2 2756   2.658   4.844   1.137 -0.8018 -0.2656 -0.1317
  931TIP3    H1 2757   2.749   4.824   1.115 -0.3187  1.0138  0.5743
  931TIP3    H2 2758   2.611   4.837   1.054 -0.0593 -0.9061 -0.5094
  932TIP3   OH2 2759   3.413   1.172   2.332  0.5674 -0.8763 -0.1709
  932TIP3    H1 2760   3.410   1.257   2.376  2.0013  0.0385 -1.6963
  932TIP3    H2 2761   3.370   1.187   2.248  2.5830 -1.0702 -1.2876
  933TIP3   OH2 2762   6.197   0.057   2.761  0.3384 -0.1260  0.8202
  933TIP3    H1 2763   6.225   0.012   2.841 -1.0882 -1.0651  0.8310
  933TIP3    H2 2764   6.269   0.042   2.699  1.2765  0.2596  1.7772
  934TIP3   OH2 2765   3.117   5.464   0.723 -0.2493 -0.7292 -0.2841
  934TIP3    H1 2766   3.128   5.442   0.815  0.9579 -0.9847 -0.4707
  934TIP3    H2 2767   3.189   5.420   0.679  1.1649  1.9928 -0.9360
  935TIP3   OH2 2768   2.683   2.870   2.500  0.1420 -0.0225  0.7193
  935TIP3    H1 2769   2.689   2.774   2.492 -1.0834 -0.0160 -0.6024
  935TIP3    H2 2770   2.768   2.901   2.467 -0.7264 -0.5473 -2.3158
  936TIP3   OH2 2771   0.346   1.452   3.266 -0.6345  0.7384 -0.1505
  936TIP3    H1 2772   0.284   1.387   3.300 -1.6040  1.0364 -1.2967
  936TIP3    H2 2773   0.360   1.428   3.175  1.6494  0.1714  0.2911
  937TIP3   OH2 2774   0.218   4.140   3.048 -0.4062  0.3555 -0.3882
  937TIP3    H1 2775   0.164   4.064   3.025 -0.6591  0.3791  0.1244
  937TIP3    H2 2776   0.298   4.129   2.996 -1.3611  0.9367 -2.0753
  938TIP3   OH2 2777   2.363   3.468   0.678 -0.3773 -0.7474  0.1793
  938TIP3    H1 2778   2.424   3.523   0.629  0.1962  0.2233  1.8820
  938TIP3    H2 2779   2.276   3.498   0.651 -0.0699  0.4002  0.4184
  939TIP3   OH2 2780   5.778   3.840   5.318 -0.4706  0.2342  0.6263
  939TIP3    H1 2781   5.773   3.799   5.231  0.6768  0.2302  0.5454
  939TIP3    H2 2782   5.707   3.904   5.319  0.4193  1.3133 -0.9108
  940TIP3   OH2 2783   0.998   6.610   4.014  0.0587 -0.7640 -0.6100
  940TIP3    H1 2784   1.070   6.549   3.998  0.1916 -0.2314 -2.2643
  940TIP3    H2 2785   0.919   6.561   3.994  0.1375 -0.5957 -1.3996
  941TIP3   OH2 2786   0.558   2.613   5.583 -0.1507  0.2423  0.4213
  941TIP3    H1 2787   0.650   2.621   5.555 -0.1878  1.7818  0.6203
  941TIP3    H2 2788   0.529   2.529   5.547  1.4743 -0.5224  0.7810
  942TIP3   OH2 2789   0.935   3.355   0.738 -0.4271  0.2226 -0.2960
  942TIP3    H1 2790   0.850   3.311   0.746 -1.2202  0.6134 -4.2694
  942TIP3    H2 2791   0.914   3.448   0.748 -0.3691  0.2694 -0.5958
  943TIP3   OH2 2792   4.391   1.157   3.347  0.7800 -0.4580  0.0260
  943TIP3    H1 2793   4.355   1.220   3.284 -0.4479 -1.5960 -0.4736
  943TIP3    H2 2794   4.412   1.209   3.424 -1.8444  0.3555  0.3000
  944TIP3   OH2 2795   0.247   4.277   5.206  0.1275  0.2565  0.1809
  944TIP3    H1 2796   0.262   4.352   5.263 -0.2121 -0.2779  0.9818
  944TIP3    H2 2797   0.167   4.236   5.239 -0.6024  0.4550 -1.2340
  945TIP3   OH2 2798   4.779   1.491   2.167 -0.2190  0.5528 -0.5751
  945TIP3    H1 2799   4.822   1.426   2.223 -1.3684  0.4076  0.1662
  945TIP3    H2 2800   4.789   1.456   2.078 -0.7916 -0.6481 -0.1945
  946TIP3   OH2 2801   2.680   6.625   3.036 -0.0288  0.0119 -0.1819
  946TIP3    H1 2802   2.711   6.569   3.108 -0.9859  0.7067  0.8157
  946TIP3    H2 2803   2.587   6.603   3.027  0.1343 -0.2414 -1.3967
  947TIP3   OH2 2804   5.805   0.428   4.524 -0.2527  0.1657 -0.4738
  947TIP3    H1 2805   5.765   0.507   4.487 -0.9898  0.8245  1.6210
  947TIP3    H2 2806   5.821   0.372   4.448 -1.4405  1.5506 -1.8128
  948TIP3   OH2 2807   6.573   6.362   5.608  0.0433 -0.1366  0.0514
  948TIP3    H1 2808   6.514   6.304   5.560  0.5166 -2.8475  2.4850
  948TIP3    H2 2809   6.656   6.356   5.560 -0.0726 -1.0339 -0.0536
  949TIP3   OH2 2810   1.685   3.018   4.805  0.1721 -0.2031  0.0721
  949TIP3    H1 2811   1.734   2.950   4.851  0.7716 -0.9504 -1.5927
  949TIP3    H2 2812   1.601   2.977   4.784 -0.6455  0.5776  1.5806
  950TIP3   OH2 2813   6.496   5.509   3.867 -0.7342  0.0780 -0.2772
  950TIP3    H1 2814   6.573   5.482   3.817  0.6025  0.0703  1.6896
  950TIP3    H2 2815   6.446   5.428   3.881 -0.7636 -0.0304 -0.9611
  951TIP3   OH2 2816   3.769   4.671   5.189  0.1622  0.1778 -0.0875
  951TIP3    H1 2817   3.813   4.610   5.248  0.6807 -0.8799 -1.5015
  951TIP3    H2 2818   3.799   4.646   5.101 -0.8360  1.4661 -0.8436
  952TIP3   OH2 2819   0.562   6.174   4.085  0.4144  0.0201 -0.0212
  952TIP3    H1 2820   0.524   6.162   3.998 -2.6017  0.6049  1.0982
  952TIP3    H2 2821   0.499   6.228   4.132  1.3969 -1.1205  2.8773
  953TIP3   OH2 2822   4.613   5.494   1.092  0.6355  0.0905  0.0270
  953TIP3    H1 2823   4.540   5.555   1.103  1.3034  1.2749 -1.7213
  953TIP3    H2 2824   4.687   5.549   1.069  1.9602 -1.1529  1.1186
  954TIP3   OH2 2825   0.986   4.504   3.293 -0.1864 -0.7772  0.1276
  954TIP3    H1 2826   0.946   4.590   3.305  0.0048 -0.6639 -0.0358
  954TIP3    H2 2827   0.912   4.444   3.290 -0.5498 -0.3302 -2.3744
  955TIP3   OH2 2828   4.064   3.681   2.212  0.5401  0.5288 -0.1213
  955TIP3    H1 2829   3.996   3.700   2.148 -0.6205  1.5029  1.3398
  955TIP3    H2 2830   4.056   3.587   2.229  2.1043 -0.1803 -2.6901
  956TIP3   OH2 2831   6.781   2.558   1.295  0.2326  0.2479  0.0831
  956TIP3    H1 2832   6.872   2.551   1.322  0.1066  1.0172  0.7426
  956TIP3    H2 2833   6.749   2.638   1.336 -0.1448  1.1837 -1.8743
  957TIP3   OH2 2834   2.702   1.513   5.522 -0.3311 -0.0993  0.1840
  957TIP3    H1 2835   2.648   1.519   5.443  1.4338 -0.1236 -1.0858
  957TIP3    H2 2836   2.663   1.442   5.572 -1.5126 -0.0637 -0.6343
  958TIP3   OH2 2837   3.615   4.884   5.271 -0.3510 -0.2436 -0.2060
  958TIP3    H1 2838   3.684   4.818   5.265 -0.2403 -0.2000  0.5500
  958TIP3    H2 2839   3.585   4.895   5.180 -0.2637 -1.2072 -0.3639
  959TIP3   OH2 2840   0.244   6.229   5.261  0.3910 -0.2453 -0.0019
  959TIP3    H1 2841   0.337   6.218   5.243  0.2562  0.2309 -1.1078
  959TIP3    H2 2842   0.239   6.247   5.354  1.5154  0.7955 -0.1124
  960TIP3   OH2 2843   6.784   6.599   2.204 -0.3796  0.1552  0.3674
  960TIP3    H1 2844   6.762   6.691   2.221 -0.1046  0.3503 -0.2832
  960TIP3    H2 2845   6.760   6.553   2.284 -0.4859  0.8028  0.7146
  961TIP3   OH2 2846   4.499   2.298   2.391 -0.0359  0.5633  0.2155
  961TIP3    H1 2847   4.562   2.252   2.446  0.2253 -0.3919 -0.8513
  961TIP3    H2 2848   4.548   2.371   2.354  0.2506  0.2497 -0.0311
  962TIP3   OH2 2849   1.904   3.323   5.601 -0.4343 -0.2127 -0.1011
  962TIP3    H1 2850   1.866   3.340   5.514 -0.6424 -1.5087 -0.2810
  962TIP3    H2 2851   1.990   3.366   5.598 -0.2534 -0.6143 -1.1206
  963TIP3   OH2 2852   1.963   1.359   1.314  0.6086  0.1786 -0.0115
  963TIP3    H1 2853   1.941   1.294   1.247  0.8162 -0.8354  0.8778
  963TIP3    H2 2854   2.058   1.350   1.325  0.5931  0.4349  0.3368
  964TIP3   OH2 2855   0.608   1.292   3.930 -0.3202  0.5228  0.3196
  964TIP3    H1 2856   0.683   1.312   3.986 -0.7092  0.2298  0.9636
  964TIP3    H2 2857   0.546   1.364   3.948 -0.1492  0.8293 -0.2983
  965TIP3   OH2 2858   3.744   2.862   2.868 -0.3588  0.4088  0.0360
  965TIP3    H1 2859   3.741   2.824   2.780 -0.1839  1.0724 -0.2575
  965TIP3    H2 2860   3.690   2.803   2.920  0.0448 -0.3474 -0.3756
  966TIP3   OH2 2861   4.207   3.986   4.479  0.6203  0.0015 -0.8891
  966TIP3    H1 2862   4.154   4.031   4.413  0.7339  1.1415 -0.2413
  966TIP3    H2 2863   4.144   3.955   4.544  0.5654 -0.5535 -1.2033
  967TIP3   OH2 2864   5.382   5.887   1.143  0.1889  0.3142 -0.0937
  967TIP3    H1 2865   5.353   5.797   1.156 -1.9210  0.7599 -1.2719
  967TIP3    H2 2866   5.443   5.882   1.069  2.2815 -0.4504  1.5707
  968TIP3   OH2 2867   1.145   1.623   2.232  0.3303 -0.0479  0.1521
  968TIP3    H1 2868   1.056   1.659   2.229  1.0944  2.1205 -3.5842
  968TIP3    H2 2869   1.191   1.677   2.295 -0.6916 -0.5012  1.3317
  969TIP3   OH2 2870   0.112   2.793   4.230 -0.8099  0.4640  0.3501
  969TIP3    H1 2871   0.149   2.871   4.188 -2.8101  1.1628 -0.2512
  969TIP3    H2 2872   0.104   2.818   4.323 -0.6119  0.6350  0.3216
  970TIP3   OH2 2873   0.837   2.377   0.396  0.1469  0.0503  0.3382
  970TIP3    H1 2874   0.853   2.300   0.451 -1.9564 -0.8947 -0.2794
  970TIP3    H2 2875   0.859   2.451   0.453  1.3623 -0.9707  1.2557
  971TIP3   OH2 2876   2.420   3.280   1.907  0.3991  0.1304 -0.1368
  971TIP3    H1 2877   2.457   3.235   1.831  1.0465  0.3674  0.0368
  971TIP3    H2 2878   2.329   3.299   1.882  0.6379  0.2969 -0.8857
  972TIP3   OH2 2879   6.162   1.546   2.541 -0.7262 -0.9943  0.1355
  972TIP3    H1 2880   6.114   1.501   2.610  0.4992  0.0787  1.7630
  972TIP3    H2 2881   6.218   1.478   2.503  1.4813 -0.8873  2.8890
  973TIP3   OH2 2882   3.571   3.119   1.908  0.1661  0.4466 -0.4636
  973TIP3    H1 2883   3.580   3.208   1.942 -0.3560  0.1104  0.6298
  973TIP3    H2 2884   3.660   3.083   1.911  0.1207  0.3738  0.7739
  974TIP3   OH2 2885   0.289   5.956   4.540  0.2572  0.1243  0.2255
  974TIP3    H1 2886   0.268   6.002   4.621  0.8194  0.8009 -0.0048
  974TIP3    H2 2887   0.245   6.005   4.472  1.2749  0.6268 -0.0787
  975TIP3   OH2 2888   3.929   6.426   3.593 -0.5668 -0.0557  0.5756
  975TIP3    H1 2889   3.867   6.354   3.584 -0.8785  0.1138  1.2978
  975TIP3    H2 2890   3.875   6.505   3.584  0.0726  0.1469 -2.3946
  976TIP3   OH2 2891   6.575   6.356   2.776 -0.4413  0.6575  0.3831
  976TIP3    H1 2892   6.657   6.405   2.771 -0.1818  0.1714 -0.2670
  976TIP3    H2 2893   6.600   6.265   2.764 -1.0488  0.4774  0.4296
  977TIP3   OH2 2894   0.683   2.114   0.826 -0.0862  0.1773 -0.6461
  977TIP3    H1 2895   0.778   2.112   0.837 -0.0615 -1.7623 -0.8600
  977TIP3    H2 2896   0.670   2.117   0.731 -0.2628  1.7789 -0.5900
  978TIP3   OH2 2897   3.058   0.969   2.529  0.0547 -0.0890 -0.1984
  978TIP3    H1 2898   3.057   1.049   2.581  1.7409 -0.5659  0.6120
  978TIP3    H2 2899   3.094   0.902   2.587 -0.9437 -1.3655 -0.9938
  979TIP3   OH2 2900   0.477   0.766   1.204  0.2185 -0.5899 -0.7937
  979TIP3    H1 2901   0.432   0.803   1.128  1.9160  1.5648 -0.8606
  979TIP3    H2 2902   0.568   0.756   1.175  0.6635 -0.7876  0.6194
  980TIP3   OH2 2903   6.389   1.939   0.701 -0.3672 -0.3960  0.5315
  980TIP3    H1 2904   6.477   1.910   0.676  0.6487  0.2187  3.1061
  980TIP3    H2 2905   6.331   1.872   0.665  1.2608 -1.5234 -0.1277
  981TIP3   OH2 2906   1.465   6.005   4.909  0.1944  0.1468 -0.5009
  981TIP3    H1 2907   1.555   6.017   4.881 -0.0392  0.3754 -1.1783
  981TIP3    H2 2908   1.433   6.093   4.929  0.2695  0.0169  0.2407
  982TIP3   OH2 2909   6.797   0.890   5.335 -0.0110  0.2578  0.1819
  982TIP3    H1 2910   6.814   0.913   5.426 -1.2779 -0.2201  0.5490
  982TIP3    H2 2911   6.756   0.804   5.338 -0.1829  0.2849 -0.8308
  983TIP3   OH2 2912   0.369   1.728   5.630 -0.6762 -0.3755 -0.0168
  983TIP3    H1 2913   0.453   1.708   5.589 -1.4642 -0.5751 -1.5990
  983TIP3    H2 2914   0.345   1.814   5.595 -0.5339  0.2959  1.4549
  984TIP3   OH2 2915   5.379   0.252   0.682  0.5307 -0.1042  0.1318
  984TIP3    H1 2916   5.314   0.322   0.681  0.3388 -0.1768  2.1946
  984TIP3    H2 2917   5.332   0.175   0.651 -0.3853 -0.1469  1.5473
  985TIP3   OH2 2918   4.841   0.836   5.874 -0.3164 -0.8332 -0.0249
  985TIP3    H1 2919   4.864   0.922   5.839 -1.8993 -0.9140 -1.4005
  985TIP3    H2 2920   4.925   0.794   5.893  0.4742  1.1709  1.1203
  986TIP3   OH2 2921   2.142  -0.017   0.700  0.0241  0.3253 -0.3609
  986TIP3    H1 2922   2.070   0.022   0.750 -0.3885 -0.5525 -0.2559
  986TIP3    H2 2923   2.141   0.030   0.616 -2.2883 -1.3124 -1.3508
  987TIP3   OH2 2924   1.583   6.626   2.100 -0.3889  0.6019 -0.3133
  987TIP3    H1 2925   1.625   6.543   2.123  0.1108  0.9316 -0.0180
  987TIP3    H2 2926   1.496   6.601   2.069  0.6894 -0.2799 -2.9242
  988TIP3   OH2 2927   2.662   1.991   1.218 -0.7924 -0.4058  0.1369
  988TIP3    H1 2928   2.657   2.067   1.160 -1.8667 -0.2384  0.4392
  988TIP3    H2 2929   2.599   2.009   1.287 -0.9155 -1.4888  0.3236
  989TIP3   OH2 2930   1.060   3.147   0.897 -0.2028 -0.1735 -0.4683
  989TIP3    H1 2931   1.087   3.082   0.833 -0.3653  0.4282 -1.1589
  989TIP3    H2 2932   1.025   3.220   0.845 -1.9863 -0.3936  0.3329
  990TIP3   OH2 2933   3.473   0.332   4.990  0.2072  0.2925  0.3079
  990TIP3    H1 2934   3.543   0.307   4.929 -1.6177 -0.0108 -1.8142
  990TIP3    H2 2935   3.462   0.426   4.976 -1.5131 -0.1029 -1.3923
  991TIP3   OH2 2936   3.113   5.700   1.285 -0.1609 -0.3223  0.0685
  991TIP3    H1 2937   3.203   5.717   1.311  0.7682 -2.6687 -1.3483
  991TIP3    H2 2938   3.105   5.738   1.198 -1.3498  1.9828  1.0951
  992TIP3   OH2 2939   3.015   3.487   0.254  0.8015 -0.0860 -0.2704
  992TIP3    H1 2940   2.944   3.437   0.215  0.7079  0.5749 -0.9855
  992TIP3    H2 2941   2.973   3.541   0.321  1.0770 -1.8079  1.3865
  993TIP3   OH2 2942   6.358   4.431   0.039 -0.1279  0.1722  0.8340
  993TIP3    H1 2943   6.437   4.422  -0.015 -1.1338  0.5702 -0.7580
  993TIP3    H2 2944   6.376   4.507   0.095 -0.0872  1.4999 -0.8789
  994TIP3   OH2 2945   2.856   3.979   1.875  0.1959 -0.0489 -0.1030
  994TIP3    H1 2946   2.915   3.908   1.900 -1.7264 -1.8825 -0.4688
  994TIP3    H2 2947   2.823   3.953   1.789 -1.9921  0.2426  0.5749
  995TIP3   OH2 2948   0.022   2.816   1.409 -0.0872  0.0135  0.4702
  995TIP3    H1 2949   0.009   2.885   1.473  0.7919  0.4239  0.2140
  995TIP3    H2 2950   0.113   2.788   1.420 -0.8899 -2.3851  1.8272
  996TIP3   OH2 2951   0.729   6.213   4.305 -0.0524 -0.2592  0.3454
  996TIP3    H1 2952   0.672   6.196   4.230  0.8825 -0.5245 -0.3264
  996TIP3    H2 2953   0.739   6.308   4.306  0.3099 -0.2899 -0.1587
  997TIP3   OH2 2954   5.867   1.025   1.669 -0.2137 -0.3644 -0.0153
  997TIP3    H1 2955   5.782   1.069   1.668  0.5019  1.1444  0.7542
  997TIP3    H2 2956   5.916   1.072   1.737  1.4501 -0.7702 -0.9018
  998TIP3   OH2 2957   4.473   0.543   4.602  0.8093 -0.5853  0.0597
  998TIP3    H1 2958   4.427   0.467   4.640  0.5509 -0.7117 -0.5018
  998TIP3    H2 2959   4.467   0.610   4.670 -0.8319 -0.3590 -0.2599
  999TIP3   OH2 2960   0.864   6.713   3.633  0.1861 -0.4504 -0.2121
  999TIP3    H1 2961   0.833   6.642   3.576  0.9561 -0.0949 -1.1102
  999TIP3    H2 2962   0.848   6.793   3.583  1.1485 -0.1494 -0.0705
 1000TIP3   OH2 2963   2.644   0.420   2.917  0.3323 -0.6053 -0.0952
 1000TIP3    H1 2964   2.713   0.372   2.962 -0.3495 -0.5538  1.0489
 1000TIP3    H2 2965   2.689   0.469   2.848  1.3414 -1.0306  0.2532
 1001TIP3   OH2 2966   2.568   4.153   3.539  0.0619  0.5772  0.0432
 1001TIP3    H1 2967   2.583   4.173   3.446 -0.8116  1.9919  0.1879
 1001TIP3    H2 2968   2.583   4.236   3.584 -1.3710  0.3580  0.9594
 1002TIP3   OH2 2969   1.190   2.236   3.716  0.1018  0.1451 -0.2105
 1002TIP3    H1 2970   1.263   2.206   3.661 -0.2000 -1.0162 -0.0070
 1002TIP3    H2 2971   1.141   2.156   3.736 -3.0016  1.1835 -2.7999
 1003TIP3   OH2 2972   0.088   0.188   4.290  0.4481 -0.1390  0.1252
 1003TIP3    H1 2973   0.171   0.234   4.301 -0.6938  2.4163 -1.1992
 1003TIP3    H2 2974   0.107   0.098   4.317  3.6261  0.3452 -0.1151
 1004TIP3   OH2 2975   2.574   6.450   1.065  0.0039  0.3587  0.4003
 1004TIP3    H1 2976   2.594   6.538   1.096 -0.6487  0.3441  0.8856
 1004TIP3    H2 2977   2.653   6.422   1.018  0.7442  0.6587  1.4443
 1005TIP3   OH2 2978   5.627   1.859   4.198 -0.2084  0.2121  0.2321
 1005TIP3    H1 2979   5.580   1.776   4.205 -0.3516  0.2393 -0.3528
 1005TIP3    H2 2980   5.629   1.878   4.104 -0.4343  1.0224  0.3791
 1006TIP3   OH2 2981   5.406   4.988   5.653  0.4540  0.9213  0.1477
 1006TIP3    H1 2982   5.454   4.915   5.691  1.5927  0.3920 -2.0946
 1006TIP3    H2 2983   5.353   4.949   5.584 -0.3609  1.9918  0.1369
 1007TIP3   OH2 2984   3.919   2.847   5.018  0.2290  0.1643  0.6376
 1007TIP3    H1 2985   3.927   2.835   5.113  0.1263 -1.2925  0.4898
 1007TIP3    H2 2986   3.837   2.895   5.007 -0.1582 -0.3342  1.2587
 1008TIP3   OH2 2987   2.789   4.244   4.636  0.0804 -0.0377 -0.3756
 1008TIP3    H1 2988   2.865   4.186   4.636  0.7230  0.7904 -0.6958
 1008TIP3    H2 2989   2.714   4.185   4.646  0.7781 -0.8386  0.2823
 1009TIP3   OH2 2990   1.515   4.743   1.666 -0.3976 -0.4744 -0.5192
 1009TIP3    H1 2991   1.523   4.651   1.693  0.8639  0.1419  1.3523
 1009TIP3    H2 2992   1.423   4.764   1.680 -0.2388 -0.8226  1.2958
 1010TIP3   OH2 2993   4.868   0.784   3.513 -0.0383 -0.1092 -0.1512
 1010TIP3    H1 2994   4.931   0.713   3.500  0.4871  0.4508 -0.6982
 1010TIP3    H2 2995   4.789   0.740   3.545  0.4162 -0.8928 -0.0832
 1011TIP3   OH2 2996   2.439   2.110   3.854 -0.0082 -0.0621  0.2506
 1011TIP3    H1 2997   2.533   2.092   3.858 -0.2681 -1.9375 -0.6830
 1011TIP3    H2 2998   2.432   2.205   3.850  1.7184  0.2964  3.0206
 1012TIP3   OH2 2999   6.454   2.428   1.771  0.0996  0.1882  0.0089
 1012TIP3    H1 3000   6.507   2.349   1.762 -0.3161 -0.3250  1.7603
 1012TIP3    H2 3001   6.479   2.483   1.696  0.2973 -1.6367 -1.3187
 1013TIP3   OH2 3002   4.677   5.954   3.539  0.4814  0.0909 -0.0805
 1013TIP3    H1 3003   4.692   6.040   3.501  0.4480 -0.0883 -0.5079
 1013TIP3    H2 3004   4.589   5.929   3.509  0.3385  0.0633  0.3440
 1014TIP3   OH2 3005   2.154   2.271   3.801  0.5493  0.2383 -0.5724
 1014TIP3    H1 3006   2.137   2.333   3.731  1.2560  0.9424 -0.1276
 1014TIP3    H2 3007   2.243   2.289   3.830  0.1399  0.2622  0.7918
 1015TIP3   OH2 3008   3.739   3.532   5.372  0.1108 -0.3126 -0.1341
 1015TIP3    H1 3009   3.763   3.454   5.322 -0.0832 -0.1405 -0.4965
 1015TIP3    H2 3010   3.644   3.538   5.364 -0.1582 -1.2624  1.6884
 1016TIP3   OH2 3011   5.808   6.107   1.366  0.2818 -0.0655  0.0056
 1016TIP3    H1 3012   5.773   6.120   1.454 -1.6242  0.7110 -0.8159
 1016TIP3    H2 3013   5.769   6.026   1.336 -0.0194  0.2825 -0.5568
 1017TIP3   OH2 3014   2.755   5.908   2.529 -0.0453  0.3963 -0.1192
 1017TIP3    H1 3015   2.683   5.938   2.585  0.3881  1.3656 -0.0601
 1017TIP3    H2 3016   2.769   5.981   2.468  0.8454  0.1951 -0.1594
 1018TIP3   OH2 3017   5.471   6.027   0.085 -0.0866 -0.4480  0.0953
 1018TIP3    H1 3018   5.389   6.076   0.077  1.9156  2.9772 -2.2641
 1018TIP3    H2 3019   5.522   6.076   0.148  0.8387 -1.4415  0.1425
 1019TIP3   OH2 3020  -0.021   2.465   5.832  0.3534 -0.2871  0.6734
 1019TIP3    H1 3021   0.021   2.422   5.758 -2.3059  0.2772 -1.2995
 1019TIP3    H2 3022   0.017   2.553   5.834  0.4680 -0.3215  0.0010
 1020TIP3   OH2 3023   6.218   0.713   2.224  0.4533 -0.1956  0.2551
 1020TIP3    H1 3024   6.268   0.631   2.229 -0.3214 -0.5904  1.9477
 1020TIP3    H2 3025   6.127   0.685   2.216  0.1334  0.4924  1.3651
 1021TIP3   OH2 3026   3.376   4.869   5.066 -0.1642 -0.2415 -0.0651
 1021TIP3    H1 3027   3.350   4.921   4.990 -0.7037 -0.1068  0.2112
 1021TIP3    H2 3028   3.325   4.905   5.139  0.8795  0.1181  0.5148
 1022TIP3   OH2 3029   1.718   0.151   4.122  0.1780  0.0715  0.1526
 1022TIP3    H1 3030   1.757   0.238   4.126 -1.3673  0.7757  0.3618
 1022TIP3    H2 3031   1.793   0.091   4.122  1.2668  1.4022 -0.4031
 1023TIP3   OH2 3032   3.114   1.629   4.804  0.0489  0.0702  0.3237
 1023TIP3    H1 3033   3.034   1.612   4.755 -0.0193  0.4072  0.3196
 1023TIP3    H2 3034   3.154   1.704   4.760 -0.1636  0.5626  0.9602
 1024TIP3   OH2 3035   2.338   4.052   5.549  0.4809  0.2209 -0.7845
 1024TIP3    H1 3036   2.380   3.972   5.581  0.0380  0.1711 -0.3318
 1024TIP3    H2 3037   2.319   4.103   5.627 -0.2299  0.2860 -0.9978
 1025TIP3   OH2 3038   6.419   6.321   4.275  0.1858  0.0961  0.1106
 1025TIP3    H1 3039   6.502   6.358   4.304  0.2704  0.7475 -0.8901
 1025TIP3    H2 3040   6.443   6.243   4.225  0.0679 -0.7664  1.3598
 1026TIP3   OH2 3041   0.662   3.210   3.704  0.1095 -0.0033 -0.0852
 1026TIP3    H1 3042   0.641   3.297   3.737 -0.9505 -0.1750 -0.2594
 1026TIP3    H2 3043   0.637   3.213   3.611 -1.3715 -0.9131  0.2389
 1027TIP3   OH2 3044   2.031   0.410   1.900  0.1653  0.5141  0.0356
 1027TIP3    H1 3045   2.067   0.388   1.986 -0.0421  0.4095  0.0987
 1027TIP3    H2 3046   2.044   0.504   1.892 -0.4533  0.6487  0.4909
 1028TIP3   OH2 3047   5.690   3.033   1.753  0.3167  0.2319 -0.0712
 1028TIP3    H1 3048   5.777   3.067   1.732  0.3334  0.1698 -0.1004
 1028TIP3    H2 3049   5.637   3.054   1.676  0.0164  1.3128  0.4116
 1029TIP3   OH2 3050   5.039   4.688   5.675  0.1018  0.2324  0.0700
 1029TIP3    H1 3051   5.053   4.617   5.738  2.4981 -1.1822 -1.8909
 1029TIP3    H2 3052   4.954   4.669   5.635 -0.0402 -0.5596  0.7332
 1030TIP3   OH2 3053   2.535   3.575   1.556 -0.1477  0.2678  0.4359
 1030TIP3    H1 3054   2.627   3.570   1.531  0.0038  0.8589  0.8480
 1030TIP3    H2 3055   2.497   3.493   1.525  0.1303  0.7634 -1.3198
 1031TIP3   OH2 3056   6.714   0.029   4.747 -0.7359 -0.1223  0.2720
 1031TIP3    H1 3057   6.630  -0.016   4.738 -0.8205  0.0998 -0.0700
 1031TIP3    H2 3058   6.700   0.093   4.817 -0.7880 -0.2299  0.3601
 1032TIP3   OH2 3059   5.620  -0.017   5.640  0.0202  0.0518  0.5092
 1032TIP3    H1 3060   5.549   0.003   5.579 -0.7137 -1.5284  0.7924
 1032TIP3    H2 3061   5.607   0.043   5.713 -0.2955  0.5837  0.0234
 1033TIP3   OH2 3062   3.246   5.940   5.179  0.1670  0.3588  0.9370
 1033TIP3    H1 3063   3.190   5.974   5.248  0.0258  2.9372 -0.3174
 1033TIP3    H2 3064   3.186   5.900   5.116 -0.0136  0.7206  0.8768
 1034TIP3   OH2 3065   2.519   2.103   1.921 -0.2566  0.0362 -0.0867
 1034TIP3    H1 3066   2.516   2.032   1.985 -0.0113 -1.0098 -1.2013
 1034TIP3    H2 3067   2.602   2.147   1.939 -0.9406  0.8025  1.3639
 1035TIP3   OH2 3068   7.170   3.207   2.167 -0.3934 -0.0382 -0.2338
 1035TIP3    H1 3069   7.158   3.115   2.189  0.2325  0.4315  2.3775
 1035TIP3    H2 3070   7.263   3.215   2.145 -0.5855 -0.1323 -1.1034
 1036TIP3   OH2 3071   7.110   4.121   3.498  0.6073  0.6928 -0.3944
 1036TIP3    H1 3072   7.089   4.112   3.405 -3.3988 -2.0325  0.5314
 1036TIP3    H2 3073   7.180   4.057   3.512 -0.3038 -0.5228 -1.1791
 1037TIP3   OH2 3074   3.876   1.563   4.849  0.4158  0.3583  0.4478
 1037TIP3    H1 3075   3.799   1.620   4.848  0.6682  0.7008  0.0220
 1037TIP3    H2 3076   3.846   1.482   4.808 -0.1090 -0.0484  1.5963
 1038TIP3   OH2 3077   2.473   0.210   4.976 -0.1869  0.0642  0.2541
 1038TIP3    H1 3078   2.428   0.252   4.902 -0.1821 -0.9336 -0.3296
 1038TIP3    H2 3079   2.406   0.154   5.016 -0.2921  0.8649  1.2504
 1039TIP3   OH2 3080   3.458   2.606   4.363 -0.2361  0.3185  0.7733
 1039TIP3    H1 3081   3.386   2.593   4.301  1.1267 -0.1768 -0.7876
 1039TIP3    H2 3082   3.452   2.531   4.422  0.2155 -0.9117 -0.6600
 1040TIP3   OH2 3083   5.984   0.614   1.770  0.0477 -0.3556  0.6305
 1040TIP3    H1 3084   6.002   0.683   1.834 -1.3857  2.5797 -1.8742
 1040TIP3    H2 3085   5.902   0.574   1.800 -1.4403  2.0186 -0.0416
 1041TIP3   OH2 3086   4.809   0.142   0.657  0.1400  0.3222  0.5751
 1041TIP3    H1 3087   4.727   0.111   0.695 -0.6012  1.8139  0.2990
 1041TIP3    H2 3088   4.875   0.126   0.724 -0.0174 -2.4148  0.1739
 1042TIP3   OH2 3089   6.733   0.912   0.074 -0.1726  0.6083  0.2874
 1042TIP3    H1 3090   6.658   0.965   0.047  0.5780  2.8653  2.3077
 1042TIP3    H2 3091   6.713   0.887   0.164  1.2646  0.8480  0.6943
 1043TIP3   OH2 3092   2.065   1.632   5.400  0.0180  0.2015 -0.3498
 1043TIP3    H1 3093   1.970   1.617   5.403  0.1135 -0.2095  0.8216
 1043TIP3    H2 3094   2.073   1.726   5.381 -0.6722  0.7811  1.9466
 1044TIP3   OH2 3095   4.474   3.388   5.251  0.1453  0.2621 -0.6395
 1044TIP3    H1 3096   4.442   3.429   5.170 -0.7166 -0.3584 -0.6254
 1044TIP3    H2 3097   4.564   3.418   5.259 -0.1710  1.3944 -1.1330
 1045TIP3   OH2 3098   6.981   0.571   5.089  0.2898 -0.0133  0.5094
 1045TIP3    H1 3099   7.055   0.520   5.057  0.8929 -0.8111  2.9858
 1045TIP3    H2 3100   6.908   0.545   5.033  1.1795 -1.5897  0.0259
 1046TIP3   OH2 3101   5.736   3.415   5.734  0.4124 -0.3306  0.3110
 1046TIP3    H1 3102   5.830   3.412   5.751  0.1596  0.9024  2.1612
 1046TIP3    H2 3103   5.708   3.499   5.770 -0.7913  1.2215 -3.6313
 1047TIP3   OH2 3104   6.620   2.791   3.935  0.4501 -0.0333 -0.1866
 1047TIP3    H1 3105   6.619   2.860   4.001  1.5178 -0.9151  0.7948
 1047TIP3    H2 3106   6.693   2.813   3.877 -0.3283  0.6019 -0.9622
 1048TIP3   OH2 3107   4.544   5.023   2.419  0.5029  0.0975 -0.5352
 1048TIP3    H1 3108   4.553   5.096   2.480  0.1579  0.8648 -1.3678
 1048TIP3    H2 3109   4.449   5.014   2.408  0.4888 -1.3824  0.5999
 1049TIP3   OH2 3110   5.560   5.061   0.524 -0.0752 -0.1968  0.4573
 1049TIP3    H1 3111   5.590   5.137   0.474 -1.4080 -0.9827 -1.6192
 1049TIP3    H2 3112   5.576   5.086   0.616  3.1361  0.9741 -0.2800
 1050TIP3   OH2 3113   2.693   2.338   3.213 -0.1378  0.0868  0.3272
 1050TIP3    H1 3114   2.706   2.252   3.252  2.3023  0.4111  0.3809
 1050TIP3    H2 3115   2.639   2.322   3.136 -0.0653 -1.4265  0.5618
 1051TIP3   OH2 3116   0.453   4.002   1.942  0.0465  0.0177  0.4693
 1051TIP3    H1 3117   0.394   3.959   2.005  0.6027 -0.7569  0.4670
 1051TIP3    H2 3118   0.395   4.031   1.872 -0.3144 -0.9877  0.3302
 1052TIP3   OH2 3119   3.371   6.675   2.630  0.1858 -0.1768  0.5931
 1052TIP3    H1 3120   3.406   6.654   2.717  1.5904 -0.3701  0.0075
 1052TIP3    H2 3121   3.448   6.691   2.576 -0.6956  0.9948 -0.3758
 1053TIP3   OH2 3122   5.906   3.745   3.955  0.7518  0.0623 -0.1821
 1053TIP3    H1 3123   5.879   3.765   4.045  0.4623 -0.8871 -0.0393
 1053TIP3    H2 3124   5.929   3.652   3.957  1.5963  0.2427 -0.8974
 1054TIP3   OH2 3125   0.893   2.683   2.306  0.2664  0.1300 -0.0403
 1054TIP3    H1 3126   0.936   2.716   2.385 -1.4148  0.5822  0.7199
 1054TIP3    H2 3127   0.831   2.618   2.339 -0.4551  0.3328 -0.9933
 1055TIP3   OH2 3128   3.327   5.149   1.266  0.4043 -0.0563 -0.1220
 1055TIP3    H1 3129   3.240   5.158   1.304  1.1075  0.7067  1.3782
 1055TIP3    H2 3130   3.344   5.055   1.267 -0.0169 -0.1308  0.4651
 1056TIP3   OH2 3131   6.740   0.381   3.352 -0.4298  0.2776  0.3926
 1056TIP3    H1 3132   6.646   0.362   3.359 -0.4881  0.8315  1.4068
 1056TIP3    H2 3133   6.783   0.306   3.393 -0.4570  0.2893  0.4424
 1057TIP3   OH2 3134   5.498   4.709   5.372  0.1888  0.0404 -0.3894
 1057TIP3    H1 3135   5.505   4.618   5.401  2.0883  0.8767  2.1569
 1057TIP3    H2 3136   5.414   4.738   5.406 -0.2525 -0.6312 -0.8781
 1058TIP3   OH2 3137   4.133   6.266   3.482  0.0253 -0.6774  0.4574
 1058TIP3    H1 3138   4.069   6.336   3.499  0.7736  0.5147 -1.3328
 1058TIP3    H2 3139   4.084   6.200   3.434 -0.5649 -1.2070  1.7290
 1059TIP3   OH2 3140   6.727   6.228   4.693  0.1566 -0.1533  0.3518
 1059TIP3    H1 3141   6.655   6.291   4.702  1.1120  1.0828 -0.3486
 1059TIP3    H2 3142   6.705   6.158   4.755 -1.8921 -0.0608 -0.2031
 1060TIP3   OH2 3143   5.323   2.433   2.176 -0.8018 -0.2742  0.0762
 1060TIP3    H1 3144   5.398   2.424   2.118  0.0311  0.8797  0.9396
 1060TIP3    H2 3145   5.350   2.390   2.257 -0.8579  0.6066  0.5742
 1061TIP3   OH2 3146   5.579   6.041   4.362  0.4041 -0.1729  0.2688
 1061TIP3    H1 3147   5.651   6.020   4.303  0.3792 -0.3030  0.2846
 1061TIP3    H2 3148   5.570   6.136   4.355 -1.7450 -0.4610 -2.4440
 1062TIP3   OH2 3149   2.648   0.874   0.744  0.3308  0.5680 -0.3575
 1062TIP3    H1 3150   2.691   0.827   0.815 -0.5873  0.1044 -0.0913
 1062TIP3    H2 3151   2.650   0.813   0.670 -0.1851  0.3970 -0.2352
 1063TIP3   OH2 3152   0.442   4.704   2.561 -0.1763 -0.1301  0.0661
 1063TIP3    H1 3153   0.408   4.615   2.572  0.7542 -0.4087  0.7637
 1063TIP3    H2 3154   0.529   4.692   2.525  0.7660  0.3828  2.0419
 1064TIP3   OH2 3155   5.483   4.291   0.081 -0.3220  0.3750  0.1927
 1064TIP3    H1 3156   5.439   4.229   0.140 -0.7579  0.7832  0.3041
 1064TIP3    H2 3157   5.568   4.251   0.064 -0.2156  0.2134  1.0445
 1065TIP3   OH2 3158   5.901   4.080   2.525  0.8733  0.2052 -0.3316
 1065TIP3    H1 3159   5.988   4.099   2.561  0.2856  1.0180  0.7219
 1065TIP3    H2 3160   5.846   4.066   2.602 -0.1544  0.7160 -0.9609
 1066TIP3   OH2 3161   3.997   3.896   2.649 -0.4416 -0.2379 -0.2915
 1066TIP3    H1 3162   3.930   3.926   2.586  0.7057 -0.1845 -1.5238
 1066TIP3    H2 3163   4.032   3.816   2.610 -0.6147 -0.9560  0.9648
 1067TIP3   OH2 3164   1.225   4.769   2.345  0.1380 -0.4239  0.3009
 1067TIP3    H1 3165   1.277   4.728   2.414  1.7436 -0.1730 -0.7068
 1067TIP3    H2 3166   1.273   4.850   2.324  1.3718 -1.8623 -3.0745
 1068TIP3   OH2 3167   1.725   6.065   4.584 -0.1791 -0.8374 -0.1872
 1068TIP3    H1 3168   1.742   6.003   4.655 -0.9152  0.0237  0.7806
 1068TIP3    H2 3169   1.631   6.056   4.566 -0.5893  0.8843  0.8788
 1069TIP3   OH2 3170   5.963   2.110   2.806 -0.3062  0.5184  0.0651
 1069TIP3    H1 3171   6.041   2.123   2.752  0.3740  0.3138  0.9755
 1069TIP3    H2 3172   5.980   2.161   2.885 -0.5219 -0.5824  0.8378
 1070TIP3   OH2 3173   5.144   2.513   1.372  0.5145 -0.1843  0.5612
 1070TIP3    H1 3174   5.159   2.447   1.305  0.5609 -0.1394  0.5277
 1070TIP3    H2 3175   5.120   2.463   1.450  0.3434 -0.2310  0.4788
 1071TIP3   OH2 3176   0.100   6.525   3.612  0.4118  0.1205  0.7241
 1071TIP3    H1 3177   0.053   6.494   3.690 -0.5313  1.1753  0.6090
 1071TIP3    H2 3178   0.133   6.611   3.637  1.1941 -0.0676  0.3616
 1072TIP3   OH2 3179   5.224   0.416   0.474  0.2552  0.0667 -0.0539
 1072TIP3    H1 3180   5.156   0.462   0.425  0.2362 -1.0453 -1.1262
 1072TIP3    H2 3181   5.211   0.444   0.565 -0.4196  1.3135 -0.5125
 1073TIP3   OH2 3182   4.939   1.068   0.678 -0.0409  0.1483  0.4182
 1073TIP3    H1 3183   4.925   1.161   0.695 -1.4133  0.2440 -1.0361
 1073TIP3    H2 3184   4.927   1.026   0.763  0.3368  1.2619  1.0436
 1074TIP3   OH2 3185   5.781   0.763   3.462  0.3210 -0.2053 -0.5803
 1074TIP3    H1 3186   5.764   0.849   3.502  0.9811 -0.6876  0.8006
 1074TIP3    H2 3187   5.787   0.782   3.368 -0.0240  1.1803 -0.3556
 1075TIP3   OH2 3188   1.363   4.385   0.487  0.0781  0.0682  0.3159
 1075TIP3    H1 3189   1.382   4.340   0.404 -1.6344 -0.8930  0.4004
 1075TIP3    H2 3190   1.441   4.372   0.540 -0.0137 -2.1037  0.0068
 1076TIP3   OH2 3191   2.479   6.139   0.241 -0.7347  0.2477  0.1571
 1076TIP3    H1 3192   2.485   6.210   0.305  1.8533  0.7295 -0.5166
 1076TIP3    H2 3193   2.431   6.176   0.167  0.8331  1.4322 -0.2992
 1077TIP3   OH2 3194   0.987   4.348   5.334  0.5038  0.0425  0.0870
 1077TIP3    H1 3195   0.957   4.437   5.319  2.3504  0.4779 -1.3274
 1077TIP3    H2 3196   0.909   4.301   5.366 -0.6396  1.9821  0.2654
 1078TIP3   OH2 3197   3.631   2.720   3.790 -0.2075 -0.1547  0.0690
 1078TIP3    H1 3198   3.556   2.682   3.836 -0.1222  0.7604  1.0128
 1078TIP3    H2 3199   3.703   2.713   3.853  0.4395 -0.7773 -0.7248
 1079TIP3   OH2 3200   6.652   5.361   5.401  0.3644 -0.3484 -0.5667
 1079TIP3    H1 3201   6.653   5.289   5.338  1.9089 -1.4950  0.6829
 1079TIP3    H2 3202   6.638   5.318   5.485  2.1614  0.6948  0.3112
 1080TIP3   OH2 3203   7.053   5.703   1.442  0.4522 -0.3176 -0.3434
 1080TIP3    H1 3204   7.004   5.665   1.515  1.8669 -1.7877 -0.0767
 1080TIP3    H2 3205   6.986   5.735   1.381 -0.7607  0.0184  1.1187
 1081TIP3   OH2 3206   7.031   5.548   4.998 -0.2063  0.0152 -0.0222
 1081TIP3    H1 3207   7.082   5.585   4.926 -0.6184  0.2765 -0.1845
 1081TIP3    H2 3208   6.943   5.583   4.985 -0.1601  0.5158  0.9347
 1082TIP3   OH2 3209   5.845   2.409   1.289  0.1267  0.8766 -0.1772
 1082TIP3    H1 3210   5.833   2.334   1.348 -1.7141  0.3616 -1.1120
 1082TIP3    H2 3211   5.860   2.369   1.203  0.1650  1.5956 -0.5108
 1083TIP3   OH2 3212   1.787   6.711   3.019  0.3116 -0.5085  0.1936
 1083TIP3    H1 3213   1.696   6.686   3.037  0.6208 -1.0118  1.1564
 1083TIP3    H2 3214   1.805   6.782   3.081  0.2886  0.2545 -0.6551
 1084TIP3   OH2 3215   4.684   3.356   4.237 -0.5691  0.3358 -0.4294
 1084TIP3    H1 3216   4.628   3.431   4.216 -1.5885  0.0243  1.0975
 1084TIP3    H2 3217   4.769   3.396   4.259 -0.9167  0.9923 -0.2508
 1085TIP3   OH2 3218   0.182   6.745   0.670  0.1637 -0.2604  0.0711
 1085TIP3    H1 3219   0.114   6.809   0.687  1.1117  0.5341  0.9906
 1085TIP3    H2 3220   0.136   6.670   0.633 -1.2433  0.1232  0.9969
 1086TIP3   OH2 3221   1.834  -0.013   3.762 -0.2321 -0.3950  0.8078
 1086TIP3    H1 3222   1.837   0.006   3.669  0.9534  0.3627  0.9855
 1086TIP3    H2 3223   1.890   0.053   3.802  0.4482 -1.6054  1.9177
 1087TIP3   OH2 3224   1.474   2.314   2.592 -0.1040 -0.2415 -1.0311
 1087TIP3    H1 3225   1.403   2.353   2.541 -1.1127 -0.7665 -0.0702
 1087TIP3    H2 3226   1.531   2.388   2.615 -0.3820  0.1995 -1.7226
 1088TIP3   OH2 3227   2.943   2.263   0.534  0.4418 -0.1786  0.2957
 1088TIP3    H1 3228   3.011   2.275   0.601  1.8950 -0.8857 -1.0069
 1088TIP3    H2 3229   2.908   2.175   0.551 -0.2112  0.1919  0.9760
 1089TIP3   OH2 3230   6.096   6.510   4.020 -0.6088  0.4721 -0.3694
 1089TIP3    H1 3231   6.111   6.460   4.100 -0.4347 -0.8427 -1.1852
 1089TIP3    H2 3232   6.023   6.568   4.041  0.9422  1.8790  1.4669
 1090TIP3   OH2 3233   3.034   1.099   2.293  0.0411 -0.2103  0.2909
 1090TIP3    H1 3234   3.125   1.127   2.288 -0.4750  1.4482 -1.3807
 1090TIP3    H2 3235   3.034   1.025   2.353  2.6678 -1.0326 -0.5815
 1091TIP3   OH2 3236   0.833   0.138   4.291 -0.0341 -0.8879  0.3788
 1091TIP3    H1 3237   0.836   0.074   4.362 -0.1513 -2.7690 -1.2296
 1091TIP3    H2 3238   0.772   0.100   4.227 -1.9022  1.9115  0.3007
 1092TIP3   OH2 3239   1.693   1.641   4.725 -0.2079 -0.4700 -0.5581
 1092TIP3    H1 3240   1.740   1.563   4.696 -2.4500 -2.0152 -0.2937
 1092TIP3    H2 3241   1.638   1.665   4.651 -2.0339 -1.2546  0.4568
 1093TIP3   OH2 3242   5.087   5.472   2.336  0.5209 -0.6394  0.2799
 1093TIP3    H1 3243   5.023   5.447   2.403 -1.0845 -0.3990 -1.0790
 1093TIP3    H2 3244   5.065   5.417   2.261 -0.3978  1.7839 -1.3698
 1094TIP3   OH2 3245   2.613   2.726   1.102 -0.1934 -0.1601  0.4624
 1094TIP3    H1 3246   2.680   2.747   1.038  2.5854 -0.7449  2.9592
 1094TIP3    H2 3247   2.614   2.800   1.163 -1.0104 -0.7090  1.1604
 1095TIP3   OH2 3248   6.891   5.737   2.646  0.1175 -0.4945 -0.3434
 1095TIP3    H1 3249   6.986   5.749   2.655 -0.0847 -0.1809  1.7426
 1095TIP3    H2 3250   6.862   5.816   2.600  1.1385 -1.8002 -3.5045
 1096TIP3   OH2 3251   3.730   2.363   1.428 -0.5644  0.2561  0.3990
 1096TIP3    H1 3252   3.785   2.363   1.506 -2.3287  0.0200  1.7043
 1096TIP3    H2 3253   3.738   2.451   1.392  0.9134  0.1234  0.3254
 1097TIP3   OH2 3254   7.074   0.126   3.652 -0.8238  1.1014  0.3979
 1097TIP3    H1 3255   7.125   0.058   3.695  0.1707  1.6848  0.1845
 1097TIP3    H2 3256   6.994   0.132   3.704 -1.5708 -1.1539 -0.3790
 1098TIP3   OH2 3257   1.574   1.169   0.345  0.3216  0.0061 -0.0239
 1098TIP3    H1 3258   1.514   1.191   0.417  0.3613 -1.3595  0.4652
 1098TIP3    H2 3259   1.518   1.126   0.280  0.4915  0.1949 -0.2970
 1099TIP3   OH2 3260   4.695   0.394   4.458 -0.1450 -0.0784 -0.9481
 1099TIP3    H1 3261   4.775   0.425   4.502  0.4211  0.4798 -2.3049
 1099TIP3    H2 3262   4.624   0.431   4.510  0.4778 -0.0980 -0.0493
 1100TIP3   OH2 3263   1.787   6.750   1.801  0.7597 -0.0671 -0.0723
 1100TIP3    H1 3264   1.861   6.752   1.861  2.5695  0.6201 -2.2141
 1100TIP3    H2 3265   1.780   6.659   1.773  2.2021  0.2145 -1.4562
 1101TIP3   OH2 3266   0.271   1.837   0.407  0.0722  0.4754 -0.5188
 1101TIP3    H1 3267   0.180   1.810   0.399 -0.0668  1.2185 -1.6541
 1101TIP3    H2 3268   0.267   1.921   0.453  0.3449 -0.3524  1.0890
 1102TIP3   OH2 3269   0.493   3.093   0.809  0.6545 -0.2874  0.1436
 1102TIP3    H1 3270   0.425   3.090   0.742  2.4267 -0.3024 -1.7412
 1102TIP3    H2 3271   0.478   3.014   0.862 -1.7785  0.5713  0.8930
 1103TIP3   OH2 3272   4.759   5.100   5.289  0.4787 -0.0285 -0.1022
 1103TIP3    H1 3273   4.680   5.140   5.255  0.1236 -1.8348 -1.6020
 1103TIP3    H2 3274   4.751   5.107   5.384 -1.6764 -0.4947 -0.1957
 1104TIP3   OH2 3275   2.601   1.410   4.105  0.3104 -0.3207 -0.1541
 1104TIP3    H1 3276   2.655   1.367   4.038  0.3487 -0.1932 -0.2056
 1104TIP3    H2 3277   2.516   1.422   4.062  1.5107  3.8505 -1.8807
 1105TIP3   OH2 3278   4.999   3.573   3.328  0.5306 -0.2780 -0.0795
 1105TIP3    H1 3279   5.086   3.587   3.290  1.0627 -1.0816  0.7833
 1105TIP3    H2 3280   4.994   3.638   3.398 -0.2540  0.8761 -1.1560
 1106TIP3   OH2 3281   6.792   0.679   0.825  0.1802  0.1352 -0.1387
 1106TIP3    H1 3282   6.786   0.759   0.878  0.1061  0.3024 -0.4019
 1106TIP3    H2 3283   6.702   0.660   0.799  0.3416  0.6038 -1.0323
 1107TIP3   OH2 3284   0.926   1.854   1.654  0.0490 -0.3313  0.1587
 1107TIP3    H1 3285   0.859   1.922   1.652  0.5058  0.2631  2.0998
 1107TIP3    H2 3286   0.941   1.839   1.747  3.3112  0.3102 -0.1411
 1108TIP3   OH2 3287   4.519   4.093   0.067 -0.0441 -1.3091 -0.0855
 1108TIP3    H1 3288   4.465   4.015   0.055 -0.0958 -0.8955 -3.9999
 1108TIP3    H2 3289   4.460   4.166   0.045  0.4323 -0.2319  1.9774
 1109TIP3   OH2 3290   0.592   0.868   3.097 -0.1536  0.1737  0.1412
 1109TIP3    H1 3291   0.654   0.815   3.047 -0.4277  3.1011 -3.8126
 1109TIP3    H2 3292   0.626   0.868   3.186  2.0439 -3.2083 -0.5193
 1110TIP3   OH2 3293   4.112   5.486   1.449  0.0803 -0.4879  0.8583
 1110TIP3    H1 3294   4.188   5.537   1.422  0.4640 -1.0003  0.9531
 1110TIP3    H2 3295   4.131   5.461   1.540 -0.4773 -0.1097  1.0856
 1111TIP3   OH2 3296   0.713   2.060   0.240  0.1309 -0.1086  0.0508
 1111TIP3    H1 3297   0.661   1.983   0.263  0.6658  0.0157  1.8411
 1111TIP3    H2 3298   0.652   2.119   0.196 -0.9395 -0.4775  1.0037
 1112TIP3   OH2 3299   6.062   0.818   1.949  0.1766 -0.0736  0.1297
 1112TIP3    H1 3300   6.061   0.889   2.014  3.1341 -0.2750  0.5688
 1112TIP3    H2 3301   6.143   0.834   1.900 -0.1590 -1.9974 -1.1079
 1113TIP3   OH2 3302   1.835   3.594   4.084  0.2452 -0.3621  0.0989
 1113TIP3    H1 3303   1.852   3.661   4.150  2.0674 -1.0291  0.3710
 1113TIP3    H2 3304   1.836   3.512   4.133  0.0551 -0.7392 -0.5228
 1114TIP3   OH2 3305   4.524   3.997   4.736 -0.4306 -0.8116  0.0157
 1114TIP3    H1 3306   4.533   3.902   4.738  0.9442 -0.6937  0.0031
 1114TIP3    H2 3307   4.466   4.017   4.810  0.7012 -1.5285  1.1316
 1115TIP3   OH2 3308   5.657   3.290   4.393 -0.1234 -0.1354  0.1172
 1115TIP3    H1 3309   5.563   3.271   4.383 -0.5367  0.7218  1.8885
 1115TIP3    H2 3310   5.692   3.214   4.440 -0.5039  0.6689  1.7634
 1116TIP3   OH2 3311   6.324   6.515   2.101 -0.7290 -0.1190 -0.9113
 1116TIP3    H1 3312   6.231   6.533   2.114 -0.5098  0.2112  0.3717
 1116TIP3    H2 3313   6.368   6.596   2.125 -0.1062 -0.1845 -1.7606
 1117TIP3   OH2 3314   5.556   1.554   0.487  0.1511 -0.3957  0.4764
 1117TIP3    H1 3315   5.533   1.602   0.567  0.2385  0.1986  0.1492
 1117TIP3    H2 3316   5.572   1.464   0.517 -0.5071 -0.3413  1.0218
 1118TIP3   OH2 3317   0.108   3.474   5.419 -0.0567  0.2022 -0.2117
 1118TIP3    H1 3318   0.158   3.457   5.499 -0.6822  0.3122  0.2089
 1118TIP3    H2 3319   0.056   3.551   5.439  0.8329  1.1016 -1.2256
 1119TIP3   OH2 3320   7.175   5.702   0.371 -0.2525  0.0588 -0.1540
 1119TIP3    H1 3321   7.122   5.708   0.450  0.5447 -0.6737  0.4560
 1119TIP3    H2 3322   7.131   5.760   0.308  0.0687  2.0110  1.3402
 1120TIP3   OH2 3323   3.783   1.460   1.534 -0.1003  0.8902 -0.1286
 1120TIP3    H1 3324   3.857   1.422   1.582 -0.2386 -1.8119 -1.8543
 1120TIP3    H2 3325   3.821   1.492   1.452 -0.5328  1.4739 -0.1101
 1121TIP3   OH2 3326   6.879   5.298   2.733 -0.2070  0.2423 -0.2887
 1121TIP3    H1 3327   6.930   5.283   2.812  0.2166 -0.9316 -0.7691
 1121TIP3    H2 3328   6.937   5.275   2.661 -0.8787  0.4384 -0.9155
 1122TIP3   OH2 3329   3.168   4.943   2.362 -0.3382 -0.3395  0.3607
 1122TIP3    H1 3330   3.105   4.904   2.302  0.2035 -0.6597 -0.0166
 1122TIP3    H2 3331   3.123   5.020   2.398 -1.1436 -0.8929  0.5506
 1123TIP3   OH2 3332   2.333   2.918   2.099 -0.2057  0.1589 -0.3676
 1123TIP3    H1 3333   2.300   2.833   2.071 -0.3164 -0.6846  2.0786
 1123TIP3    H2 3334   2.269   2.981   2.066 -1.7408 -1.0119  0.2478
 1124TIP3   OH2 3335   3.601   3.341   0.788  0.1685  0.2655 -0.1868
 1124TIP3    H1 3336   3.626   3.267   0.733  1.5839  0.8690 -0.4014
 1124TIP3    H2 3337   3.594   3.303   0.876 -0.8093 -0.4439 -0.5600
 1125TIP3   OH2 3338   5.095   0.825   3.022  0.2028 -0.1637  0.4147
 1125TIP3    H1 3339   5.036   0.815   3.096  0.1340 -0.2518  0.3481
 1125TIP3    H2 3340   5.045   0.795   2.946 -0.1384  1.0656  0.1470
 1126TIP3   OH2 3341   3.178   0.347   3.134 -0.2493  0.3605  0.4367
 1126TIP3    H1 3342   3.229   0.427   3.151 -2.1503  1.7376 -0.0156
 1126TIP3    H2 3343   3.089   0.369   3.160 -0.7706 -1.7790  0.6523
 1127TIP3   OH2 3344   5.202   5.671   2.205  0.3503 -0.1901  0.0756
 1127TIP3    H1 3345   5.263   5.694   2.275 -0.6431 -0.6715  1.1170
 1127TIP3    H2 3346   5.159   5.591   2.235 -2.4719  1.3607  0.4906
 1128TIP3   OH2 3347   4.679   4.389   0.051 -0.5587 -0.0393 -0.0890
 1128TIP3    H1 3348   4.590   4.405   0.021 -0.2256  0.7404 -0.6857
 1128TIP3    H2 3349   4.669   4.332   0.128 -1.5694  0.2231 -0.0200
 1129TIP3   OH2 3350   1.659   4.534   1.509  0.4143  0.2295 -0.0302
 1129TIP3    H1 3351   1.681   4.613   1.460  1.3368  1.2326  1.8993
 1129TIP3    H2 3352   1.589   4.493   1.458  2.0727  0.5472 -2.7891
 1130TIP3   OH2 3353   0.835   1.273   5.524 -0.2206  0.1022 -0.1571
 1130TIP3    H1 3354   0.882   1.195   5.497  0.7593  0.1957  1.2163
 1130TIP3    H2 3355   0.854   1.282   5.617 -3.8928 -0.5109  0.8049
 1131TIP3   OH2 3356   4.933   3.761   2.994  0.6263  0.1884 -0.0301
 1131TIP3    H1 3357   4.971   3.844   3.023 -0.0549 -0.0323  1.6304
 1131TIP3    H2 3358   4.840   3.782   2.979  0.2795 -0.4069  1.1588
 1132TIP3   OH2 3359   0.509   5.302   3.859  0.1346 -0.1118  1.0845
 1132TIP3    H1 3360   0.574   5.256   3.805  2.6855  0.6265  3.2766
 1132TIP3    H2 3361   0.554   5.381   3.888 -2.9489  2.1733  0.1754
 1133TIP3   OH2 3362   6.949   4.480   5.551  0.4352  0.2390  0.3266
 1133TIP3    H1 3363   6.859   4.455   5.529  0.6275  0.8898 -1.3708
 1133TIP3    H2 3364   6.941   4.539   5.625 -0.6601  1.3079 -0.6130
 1134TIP3   OH2 3365   0.474   3.882   2.487 -0.0655 -0.0740 -0.1653
 1134TIP3    H1 3366   0.432   3.961   2.451 -1.8865 -0.9394 -0.0405
 1134TIP3    H2 3367   0.422   3.809   2.453  0.8628 -1.1707  0.6781
 1135TIP3   OH2 3368   6.806   1.004   4.370 -0.1537 -0.4788 -0.5376
 1135TIP3    H1 3369   6.843   0.973   4.287 -1.4730 -0.7016 -1.0724
 1135TIP3    H2 3370   6.713   0.984   4.363 -0.5088  0.7201  0.4551
 1136TIP3   OH2 3371   3.654   0.599   1.919  0.0258 -0.3381 -0.4987
 1136TIP3    H1 3372   3.636   0.566   2.007 -0.0278  0.6032 -0.1457
 1136TIP3    H2 3373   3.575   0.579   1.869 -1.6269  2.6055  0.7053
 1137TIP3   OH2 3374   7.025   6.335   0.432 -0.0604  0.0951  0.0230
 1137TIP3    H1 3375   7.019   6.290   0.517  0.0365  0.3039  0.1420
 1137TIP3    H2 3376   6.938   6.372   0.418 -0.0387  0.1728  0.0944
 1138TIP3   OH2 3377   2.615   4.966   2.285 -0.3662  0.3959  0.7744
 1138TIP3    H1 3378   2.644   5.042   2.335  0.3052  0.0844  0.8726
 1138TIP3    H2 3379   2.572   5.002   2.208 -1.1634  0.8843  1.4254
 1139TIP3   OH2 3380   1.946   3.200   1.720  0.2571 -0.5729  0.4821
 1139TIP3    H1 3381   1.894   3.242   1.789 -1.1552 -0.5397 -0.5521
 1139TIP3    H2 3382   1.902   3.116   1.705  1.4767 -1.2682  0.6831
 1140TIP3   OH2 3383   3.523   2.483   2.015  0.3379  0.1231  0.0895
 1140TIP3    H1 3384   3.496   2.391   2.011  0.1465  0.2226 -1.9825
 1140TIP3    H2 3385   3.588   2.486   2.085  0.8678 -1.7510 -0.2615
 1141TIP3   OH2 3386   4.192   1.829   5.359 -0.2626 -0.5104 -0.2485
 1141TIP3    H1 3387   4.231   1.853   5.443 -1.6997 -1.5187  0.7597
 1141TIP3    H2 3388   4.204   1.734   5.354  1.4627 -0.2448 -2.0978
 1142TIP3   OH2 3389   4.800   6.715   3.776 -0.5236  0.7942  0.2268
 1142TIP3    H1 3390   4.792   6.620   3.788  5.1000  0.0813  1.4436
 1142TIP3    H2 3391   4.789   6.751   3.865  0.4312  0.7861  0.3659
 1143TIP3   OH2 3392   3.355   4.873   1.249  0.0915  0.3794 -0.4047
 1143TIP3    H1 3393   3.369   4.779   1.238  2.6909  0.6928 -0.3194
 1143TIP3    H2 3394   3.296   4.897   1.177  0.0806 -1.1474 -0.9406
 1144TIP3   OH2 3395   6.866   6.555   1.936 -0.4854 -0.2761 -0.7225
 1144TIP3    H1 3396   6.949   6.603   1.937  0.1412 -1.3231 -1.1271
 1144TIP3    H2 3397   6.838   6.555   2.028 -0.3088  0.5345 -0.6605
 1145TIP3   OH2 3398   6.917   3.160   5.074 -0.4498  0.0612  0.0643
 1145TIP3    H1 3399   6.978   3.228   5.103  1.2990 -2.7256  3.8979
 1145TIP3    H2 3400   6.835   3.181   5.118  0.3708 -0.6777  2.0855
 1146TIP3   OH2 3401   7.146   1.375   3.397 -0.3647 -0.2637 -0.6252
 1146TIP3    H1 3402   7.051   1.369   3.398 -0.5511  1.9393 -0.2723
 1146TIP3    H2 3403   7.166   1.446   3.336  0.7952  1.6825  1.8221
 1147TIP3   OH2 3404   7.122   4.077   4.749 -0.1097 -0.0047  0.3737
 1147TIP3    H1 3405   7.196   4.127   4.715  0.1297  0.0242  0.9257
 1147TIP3    H2 3406   7.077   4.138   4.808 -0.4001 -0.1182  0.2721
 1148TIP3   OH2 3407   0.651   4.627   3.150  0.5223  0.0521  0.1686
 1148TIP3    H1 3408   0.682   4.675   3.227 -0.2393 -0.6822  0.9505
 1148TIP3    H2 3409   0.698   4.544   3.154  0.5883  0.0693 -0.2490
 1149TIP3   OH2 3410   2.165   0.434   0.520  0.2645 -0.0783  0.2105
 1149TIP3    H1 3411   2.238   0.473   0.471  0.5681 -0.2379  0.5316
 1149TIP3    H2 3412   2.193   0.437   0.611 -1.7494  3.4928  0.8872
 1150TIP3   OH2 3413   6.052   2.626   4.424 -0.0812 -0.0338 -0.6352
 1150TIP3    H1 3414   6.007   2.637   4.340 -0.7598 -0.9808 -0.4189
 1150TIP3    H2 3415   5.981   2.620   4.489  0.3967 -0.2743 -0.1238
 1151TIP3   OH2 3416   3.024   2.962   0.733  0.1867 -0.3391 -0.7813
 1151TIP3    H1 3417   2.944   3.013   0.718  0.3700  0.2897  0.3019
 1151TIP3    H2 3418   3.016   2.931   0.823  2.1372  1.5616  0.1222
 1152TIP3   OH2 3419   4.010   1.380   5.306 -0.5610  0.0962 -0.1168
 1152TIP3    H1 3420   3.949   1.427   5.364 -1.2841 -0.1201 -0.6946
 1152TIP3    H2 3421   4.037   1.303   5.357  0.1634  0.7985  0.6015
 1153TIP3   OH2 3422   6.280   3.786   3.691  0.1644 -0.2416  0.3801
 1153TIP3    H1 3423   6.294   3.697   3.723  0.0820  0.6765  3.2981
 1153TIP3    H2 3424   6.360   3.833   3.713 -0.3326  0.7311  0.2029
 1154TIP3   OH2 3425   6.500   4.292   4.765  0.1720 -0.1281  0.2943
 1154TIP3    H1 3426   6.566   4.291   4.834 -0.6250 -1.4677  1.0898
 1154TIP3    H2 3427   6.470   4.382   4.761 -1.1043 -0.3347  3.0517
 1155TIP3   OH2 3428   6.707   6.658   4.778  0.0765  0.4420 -0.2799
 1155TIP3    H1 3429   6.638   6.592   4.781  0.5476 -0.0703 -0.3837
 1155TIP3    H2 3430   6.661   6.741   4.773 -0.5334  0.0635 -1.4698
 1156TIP3   OH2 3431   6.789   6.680   1.088  0.8516  0.1119 -0.5395
 1156TIP3    H1 3432   6.726   6.652   1.022  0.2032 -0.4193  0.2826
 1156TIP3    H2 3433   6.825   6.599   1.124  1.9871  0.4092 -0.9728
 1157TIP3   OH2 3434   3.581   1.557   0.088  0.3152 -0.2359 -0.3576
 1157TIP3    H1 3435   3.665   1.560   0.132 -0.7391 -1.6752  1.9319
 1157TIP3    H2 3436   3.595   1.497   0.015  1.2176 -0.6166  0.1125
 1158TIP3   OH2 3437   5.290   0.242   5.581  0.6269 -0.2659 -0.0335
 1158TIP3    H1 3438   5.264   0.333   5.566  0.3357 -0.4193 -0.4890
 1158TIP3    H2 3439   5.383   0.240   5.561  0.7620  0.0588  0.5522
 1159TIP3   OH2 3440   4.694   2.139   2.871  0.3648  0.3456 -0.0389
 1159TIP3    H1 3441   4.757   2.111   2.937 -1.4897 -0.1560  1.6213
 1159TIP3    H2 3442   4.671   2.058   2.824  1.1269  0.5738 -0.8253
 1160TIP3   OH2 3443   6.987   5.438   4.637  0.9084  0.7532 -0.2068
 1160TIP3    H1 3444   6.921   5.424   4.705  1.5434  0.8776  0.4395
 1160TIP3    H2 3445   6.939   5.426   4.555  0.2671  0.0180  0.2637
 1161TIP3   OH2 3446   1.032   0.684   4.648  0.2839 -0.0773  0.1298
 1161TIP3    H1 3447   0.955   0.672   4.703 -0.3495 -2.2133 -1.0807
 1161TIP3    H2 3448   0.999   0.725   4.569  0.7116  0.5651  0.2791
 1162TIP3   OH2 3449   5.839   4.095   1.872 -0.2350  0.8247 -0.1607
 1162TIP3    H1 3450   5.753   4.135   1.879 -2.0066 -2.7076  0.4692
 1162TIP3    H2 3451   5.859   4.064   1.961  0.9076  0.1590 -0.6190
 1163TIP3   OH2 3452   5.889   6.625   2.724  0.5461 -0.4776  0.3691
 1163TIP3    H1 3453   5.917   6.581   2.805  3.3521 -1.5053 -1.0359
 1163TIP3    H2 3454   5.826   6.564   2.685 -0.8766  0.0532  1.7320
 1164TIP3   OH2 3455   5.087   0.835   5.596  0.2188  0.5080 -0.2342
 1164TIP3    H1 3456   5.046   0.749   5.591 -0.5823  0.9241 -1.0490
 1164TIP3    H2 3457   5.097   0.851   5.690  2.1307 -1.2677 -0.0450
 1165TIP3   OH2 3458   5.063   3.664   1.109  0.8040 -0.3128  0.2794
 1165TIP3    H1 3459   5.077   3.596   1.175 -0.4690 -0.3317  0.5489
 1165TIP3    H2 3460   5.141   3.660   1.054  1.1071 -1.4604  0.7627
 1166TIP3   OH2 3461   0.709   2.444   2.262 -0.3987 -0.8359 -0.0187
 1166TIP3    H1 3462   0.675   2.400   2.340 -0.2180 -0.4884  0.2592
 1166TIP3    H2 3463   0.791   2.399   2.244  0.4367  0.1996  1.0283
 1167TIP3   OH2 3464   0.867   2.137   1.975 -0.1533 -0.6152 -0.3368
 1167TIP3    H1 3465   0.799   2.108   2.037  0.0064 -2.0837 -0.8179
 1167TIP3    H2 3466   0.838   2.223   1.947  0.3481  0.6605  2.6503
 1168TIP3   OH2 3467   4.156   3.255   1.835 -0.3859  0.1462 -0.0875
 1168TIP3    H1 3468   4.074   3.278   1.878 -0.4422 -1.6015  0.8543
 1168TIP3    H2 3469   4.133   3.247   1.742 -1.4188 -0.7529  0.2205
 1169TIP3   OH2 3470   2.652   4.398   1.800 -0.7345 -0.0573  0.2068
 1169TIP3    H1 3471   2.732   4.357   1.769 -0.3209  0.2397  0.8561
 1169TIP3    H2 3472   2.662   4.490   1.779 -0.6019  0.0904  0.8846
 1170TIP3   OH2 3473   1.253   5.787   5.042 -0.9966  0.0873  0.3717
 1170TIP3    H1 3474   1.168   5.822   5.014 -0.4957 -0.4504 -2.1219
 1170TIP3    H2 3475   1.317   5.852   5.014 -0.3669 -0.9914 -0.8090
 1171TIP3   OH2 3476   3.990   2.510   3.752 -0.1660 -0.1213  0.0829
 1171TIP3    H1 3477   4.064   2.536   3.807 -0.0088  1.3969 -0.7969
 1171TIP3    H2 3478   3.925   2.478   3.813 -0.0466  1.6548  1.2134
 1172TIP3   OH2 3479   5.954   6.171   4.733  0.1637  0.1597 -0.0029
 1172TIP3    H1 3480   6.016   6.241   4.753  0.3169  0.0227  0.0021
 1172TIP3    H2 3481   6.008   6.093   4.723  0.0454  0.1372 -0.5018
 1173TIP3   OH2 3482   1.822   3.766   0.341  0.2733  0.0661 -0.5578
 1173TIP3    H1 3483   1.776   3.791   0.261  0.4158  3.3489  0.2628
 1173TIP3    H2 3484   1.915   3.765   0.316  0.2016 -0.8064 -0.8346
 1174TIP3   OH2 3485   3.054   0.769   2.720  0.5057  0.2537 -0.2801
 1174TIP3    H1 3486   3.064   0.799   2.811 -0.9455  0.6673 -0.2253
 1174TIP3    H2 3487   3.067   0.674   2.725  1.1624  0.3592  0.2252
 1175TIP3   OH2 3488   5.294   3.747   4.265 -0.2048  0.1936  0.2466
 1175TIP3    H1 3489   5.251   3.832   4.276 -0.4737  0.1139 -0.1441
 1175TIP3    H2 3490   5.267   3.718   4.178 -0.4119 -0.4581  0.5171
 1176TIP3   OH2 3491   5.197   0.123   0.329  0.2737 -0.8551 -0.3763
 1176TIP3    H1 3492   5.276   0.158   0.369  0.7653 -0.5936 -1.5154
 1176TIP3    H2 3493   5.158   0.197   0.282  0.1825 -1.3297 -1.0724
 1177TIP3   OH2 3494   1.317   5.217   5.235 -0.3960  0.3505  0.1811
 1177TIP3    H1 3495   1.287   5.288   5.177 -1.8078  0.4895  1.0282
 1177TIP3    H2 3496   1.280   5.239   5.321  0.1509 -0.7949  0.7300
 1178TIP3   OH2 3497   3.334   0.784   3.336  0.0421  0.6438  0.0492
 1178TIP3    H1 3498   3.401   0.770   3.404  1.6562  1.0407 -1.3773
 1178TIP3    H2 3499   3.290   0.865   3.363  1.2667  1.2858  0.1946
 1179TIP3   OH2 3500   1.289   6.691   0.110  0.4875  0.4778  0.5518
 1179TIP3    H1 3501   1.260   6.756   0.173  1.0001 -0.9626  2.3461
 1179TIP3    H2 3502   1.221   6.623   0.113  0.8095  0.1220 -0.0419
 1180TIP3   OH2 3503   3.447   3.927   1.456 -0.4333 -0.2645 -0.0523
 1180TIP3    H1 3504   3.498   3.963   1.384 -0.8808  0.2736 -0.1065
 1180TIP3    H2 3505   3.478   3.974   1.534  0.9508 -1.7282  0.3335
 1181TIP3   OH2 3506   0.844   2.410   0.749  0.9970 -0.3794 -0.2715
 1181TIP3    H1 3507   0.804   2.491   0.717 -1.1564 -1.3906 -0.3116
 1181TIP3    H2 3508   0.893   2.437   0.827 -1.6185  0.6802  1.1284
 1182TIP3   OH2 3509   0.653   1.177   0.802 -0.1023  0.0627  0.5482
 1182TIP3    H1 3510   0.590   1.148   0.737 -0.4008  2.5520 -0.3845
 1182TIP3    H2 3511   0.718   1.107   0.806 -0.0115 -0.1339 -2.5130
 1183TIP3   OH2 3512   1.451   0.111   0.673  0.1418 -0.0124  0.4838
 1183TIP3    H1 3513   1.482   0.092   0.762  0.4711 -1.0646  0.1608
 1183TIP3    H2 3514   1.356   0.117   0.682  0.2754  1.4937  1.1752
 1184TIP3   OH2 3515   0.981   4.307   2.571  0.0687  0.1959  0.1634
 1184TIP3    H1 3516   0.917   4.335   2.506 -1.0428 -1.3664  0.5174
 1184TIP3    H2 3517   1.058   4.280   2.520  0.3297  1.7108 -0.2883
 1185TIP3   OH2 3518   4.843   5.441   3.040 -0.0517  0.2890 -0.2342
 1185TIP3    H1 3519   4.823   5.353   3.009  0.6285  0.3278 -0.7966
 1185TIP3    H2 3520   4.763   5.491   3.024  0.3599  0.3825 -2.2370
 1186TIP3   OH2 3521   2.047   1.009   3.059  0.1994  0.0029  0.0051
 1186TIP3    H1 3522   2.013   1.047   3.140  1.3043 -2.5207  1.7836
 1186TIP3    H2 3523   1.979   0.949   3.030  1.1478 -1.6682  1.0639
 1187TIP3   OH2 3524   3.889   6.732   0.741  0.3362  0.2403 -0.0200
 1187TIP3    H1 3525   3.798   6.708   0.726  0.6474 -0.2152 -1.2546
 1187TIP3    H2 3526   3.937   6.696   0.666  1.8212 -1.2366  1.5201
 1188TIP3   OH2 3527   0.448   3.373   0.890  0.4078 -0.2920 -0.4293
 1188TIP3    H1 3528   0.452   3.281   0.914  1.0975 -0.1080  0.2030
 1188TIP3    H2 3529   0.354   3.392   0.884  0.2431 -0.7782  0.4397
 1189TIP3   OH2 3530   0.918   0.872   5.116 -0.0843  0.2492 -0.4796
 1189TIP3    H1 3531   0.848   0.821   5.075 -0.0068  1.2396 -1.9492
 1189TIP3    H2 3532   0.873   0.947   5.155  0.0609  0.4937 -0.7704
 1190TIP3   OH2 3533   6.907   4.859   5.365 -0.3854 -0.6854  0.3689
 1190TIP3    H1 3534   6.827   4.837   5.412 -0.9535 -1.2947 -0.8425
 1190TIP3    H2 3535   6.915   4.791   5.297  1.1538 -0.6390  0.4572
 1191TIP3   OH2 3536   5.278   0.128   3.625 -0.3522 -0.0026 -0.0928
 1191TIP3    H1 3537   5.186   0.105   3.637 -0.0272 -0.7831  0.9915
 1191TIP3    H2 3538   5.322   0.044   3.613  0.3885  0.2781  0.6356
 1192TIP3   OH2 3539   7.134   3.896   2.315  0.3639 -0.2290  0.0962
 1192TIP3    H1 3540   7.070   3.825   2.314 -0.3990  0.4447  0.0213
 1192TIP3    H2 3541   7.094   3.963   2.370  0.4441  0.7105 -0.9610
 1193TIP3   OH2 3542   5.021   3.012   4.254  0.3297 -0.3077  0.0257
 1193TIP3    H1 3543   5.036   3.106   4.245  0.3013 -0.3896 -1.0116
 1193TIP3    H2 3544   4.926   3.003   4.256  0.2937 -0.4200 -1.3692
 1194TIP3   OH2 3545   0.963   1.341   1.941  0.2664 -0.0885 -0.3690
 1194TIP3    H1 3546   0.913   1.421   1.953  0.3216 -0.1405  0.2062
 1194TIP3    H2 3547   1.037   1.367   1.886  0.4296  0.3140  0.0366
 1195TIP3   OH2 3548   2.836   0.460   0.311  0.3995 -0.0060  0.2552
 1195TIP3    H1 3549   2.749   0.452   0.349 -0.1852  0.3491 -0.9768
 1195TIP3    H2 3550   2.863   0.550   0.330 -0.2100  0.4078 -0.8288
 1196TIP3   OH2 3551   4.745   4.913   1.921  0.0259 -0.2501 -0.3063
 1196TIP3    H1 3552   4.728   4.981   1.985 -1.9005  1.5360 -2.5516
 1196TIP3    H2 3553   4.695   4.837   1.952 -2.0281  1.0218 -0.3580
 1197TIP3   OH2 3554   1.363   0.056   1.122  0.4072 -0.4231  0.1227
 1197TIP3    H1 3555   1.287   0.003   1.100  0.7369 -1.7184  1.8596
 1197TIP3    H2 3556   1.418   0.053   1.043 -0.8951 -0.2205 -0.8235
 1198TIP3   OH2 3557   0.793   5.904   1.521 -0.2829 -1.1289  0.5795
 1198TIP3    H1 3558   0.735   5.968   1.561 -2.1559 -0.1315 -3.3008
 1198TIP3    H2 3559   0.751   5.820   1.537 -0.0799 -0.9940  1.9963
 1199TIP3   OH2 3560   4.667   6.694   2.854  0.3621 -0.2765 -0.1840
 1199TIP3    H1 3561   4.708   6.772   2.891  2.3941 -1.2890 -0.1419
 1199TIP3    H2 3562   4.625   6.724   2.774 -1.5820  1.3927  1.3459
 1200TIP3   OH2 3563   5.605   3.094   4.083 -0.3516 -0.1139  0.0507
 1200TIP3    H1 3564   5.698   3.107   4.061 -0.8294  2.0370 -0.9459
 1200TIP3    H2 3565   5.566   3.181   4.074 -2.4477 -0.9343  0.6507
 1201TIP3   OH2 3566   0.169   4.602   4.885 -0.4973 -0.6851  0.1848
 1201TIP3    H1 3567   0.088   4.551   4.883  0.0453 -1.6248  0.8889
 1201TIP3    H2 3568   0.197   4.597   4.977  0.4105 -0.4640 -0.0753
 1202TIP3   OH2 3569   2.509   1.468   0.592  0.0902 -0.7438 -0.4853
 1202TIP3    H1 3570   2.517   1.465   0.687  0.9309  0.3277 -0.5043
 1202TIP3    H2 3571   2.422   1.432   0.574 -0.5766  0.1761  0.7537
 1203TIP3   OH2 3572   4.916   5.812   3.807  0.4811  0.0149 -0.2746
 1203TIP3    H1 3573   4.825   5.782   3.800  0.0100  1.4359 -0.6384
 1203TIP3    H2 3574   4.960   5.744   3.858 -0.8769 -0.5356  0.2115
 1204TIP3   OH2 3575   4.950   5.884   2.257  0.1975  1.0312  0.4496
 1204TIP3    H1 3576   4.957   5.800   2.213 -1.4265  0.9051  0.3839
 1204TIP3    H2 3577   5.039   5.921   2.253  0.8503 -0.5129  0.2021
 1205TIP3   OH2 3578   2.424   3.212   1.225 -0.3947  0.3432  0.1942
 1205TIP3    H1 3579   2.443   3.160   1.147  2.5630  0.9717  0.3623
 1205TIP3    H2 3580   2.336   3.245   1.211 -0.1464  0.0772 -2.6990
 1206TIP3   OH2 3581   4.852   5.249   0.111 -0.2410 -0.9765 -0.0712
 1206TIP3    H1 3582   4.824   5.170   0.064 -0.1526 -0.6358 -0.7143
 1206TIP3    H2 3583   4.889   5.305   0.043  0.3299 -0.6616  0.4872
 1207TIP3   OH2 3584   4.766   5.555   5.168 -0.3224  0.5188 -0.9239
 1207TIP3    H1 3585   4.817   5.487   5.125  0.8558  0.3835  0.6380
 1207TIP3    H2 3586   4.757   5.623   5.101 -0.7754 -0.7580 -2.2193
 1208TIP3   OH2 3587   2.601   6.092   5.062  0.1383  0.5325 -0.1385
 1208TIP3    H1 3588   2.616   6.078   5.156 -0.8824  0.8416  0.0788
 1208TIP3    H2 3589   2.687   6.119   5.029  0.8618 -0.9451  0.4266
 1209TIP3   OH2 3590   0.250   6.311   5.534  0.0599  0.4152 -0.6727
 1209TIP3    H1 3591   0.292   6.382   5.486 -0.9502  1.7229  0.3350
 1209TIP3    H2 3592   0.263   6.332   5.626  0.9149 -1.4308 -0.3064
 1210TIP3   OH2 3593   2.038   4.925   3.174  0.7902  0.0748 -0.0544
 1210TIP3    H1 3594   2.092   4.896   3.246 -0.1163 -0.8523  0.2729
 1210TIP3    H2 3595   2.046   4.856   3.108  1.4097  0.7911 -0.7523
 1211TIP3   OH2 3596   2.166   1.561   5.629  0.1152  0.3585 -0.2892
 1211TIP3    H1 3597   2.138   1.471   5.646  2.6131 -0.5863 -0.6378
 1211TIP3    H2 3598   2.135   1.579   5.540 -0.1266 -0.3096 -0.3489
 1212TIP3   OH2 3599   4.620   0.848   1.645 -0.4755 -0.4916  0.0613
 1212TIP3    H1 3600   4.560   0.791   1.693 -0.4855 -1.3381 -0.9079
 1212TIP3    H2 3601   4.586   0.847   1.555  0.9721 -0.9988 -0.5118
 1213TIP3   OH2 3602   2.407   3.514   4.595  0.4558 -0.3434  0.1789
 1213TIP3    H1 3603   2.500   3.493   4.586  0.6734 -0.0917  1.5443
 1213TIP3    H2 3604   2.404   3.610   4.594 -0.2329 -0.2777 -3.3614
 1214TIP3   OH2 3605   6.625   0.776   3.058 -0.2275 -0.3666 -0.5289
 1214TIP3    H1 3606   6.665   0.726   3.129  0.3988  1.6377  0.6240
 1214TIP3    H2 3607   6.699   0.819   3.014 -0.8630  2.2081  0.6942
 1215TIP3   OH2 3608   6.560   3.723   5.444  0.0528  0.1853  0.2892
 1215TIP3    H1 3609   6.473   3.737   5.405 -0.4134 -2.4360  0.1953
 1215TIP3    H2 3610   6.548   3.743   5.537 -0.5725  0.0959  0.2331
 1216TIP3   OH2 3611   3.429   1.125   1.685 -0.2468 -0.1843 -0.4802
 1216TIP3    H1 3612   3.484   1.204   1.688 -1.5614  0.7272  1.0924
 1216TIP3    H2 3613   3.362   1.146   1.620  0.3280 -0.6822 -1.2542
 1217TIP3   OH2 3614   2.966   0.779   0.598  0.4380  0.1205 -0.1767
 1217TIP3    H1 3615   2.932   0.732   0.675  1.1514 -1.8303 -1.0054
 1217TIP3    H2 3616   2.915   0.745   0.525 -0.1771  1.9036 -0.6473
 1218TIP3   OH2 3617   6.411   6.146   5.551  0.2278  0.1206 -0.3184
 1218TIP3    H1 3618   6.316   6.156   5.537  0.0997 -0.3296  0.2146
 1218TIP3    H2 3619   6.420   6.062   5.595  0.8090  0.5019  0.3121
 1219TIP3   OH2 3620   1.636   2.504   1.788  0.5233 -0.3698  0.1971
 1219TIP3    H1 3621   1.651   2.541   1.875  1.4736  0.5297 -0.3288
 1219TIP3    H2 3622   1.615   2.412   1.805  1.6777 -0.4554  1.3438
 1220TIP3   OH2 3623   3.420   6.247   0.414  0.3573 -0.3315 -0.4617
 1220TIP3    H1 3624   3.364   6.308   0.365  1.4138  1.3440  0.3135
 1220TIP3    H2 3625   3.360   6.185   0.454 -0.6567 -0.7827 -2.5497
 1221TIP3   OH2 3626   4.974   6.402   1.248  0.5078 -0.0441  0.3775
 1221TIP3    H1 3627   4.882   6.376   1.242  0.9681 -1.4552 -3.0273
 1221TIP3    H2 3628   5.014   6.334   1.301 -0.1134 -0.4309  0.3681
 1222TIP3   OH2 3629   5.399   5.824   0.623  0.6175  0.3733  0.0398
 1222TIP3    H1 3630   5.471   5.882   0.601  1.3918 -0.4307  0.3952
 1222TIP3    H2 3631   5.366   5.856   0.707 -1.1151  2.2859 -1.2792
 1223TIP3   OH2 3632   3.943   3.537   1.934 -0.0601 -0.2579 -0.0672
 1223TIP3    H1 3633   3.896   3.620   1.936  0.7967  0.2413 -0.2408
 1223TIP3    H2 3634   4.035   3.561   1.923  0.0892 -1.2558 -1.3257
 1224TIP3   OH2 3635   3.336   4.944   4.494  0.1703  0.0110 -0.8431
 1224TIP3    H1 3636   3.244   4.921   4.504  0.1086  0.5130 -0.1483
 1224TIP3    H2 3637   3.336   5.040   4.486  0.6710  0.0862 -0.1284
 1225TIP3   OH2 3638   4.876   5.126   5.565 -0.4754  0.2043  0.2882
 1225TIP3    H1 3639   4.928   5.059   5.609  0.6889 -0.4110 -1.8685
 1225TIP3    H2 3640   4.926   5.207   5.576 -0.4654  0.1670  0.5249
 1226TIP3   OH2 3641   4.354   5.572   5.701  0.5002 -0.4310 -0.3923
 1226TIP3    H1 3642   4.384   5.524   5.779 -0.7977 -0.8300 -0.1195
 1226TIP3    H2 3643   4.405   5.653   5.702 -0.6931  0.3841  1.8718
 1227TIP3   OH2 3644   3.263   3.171   3.368 -0.1349  0.7317 -0.3957
 1227TIP3    H1 3645   3.223   3.084   3.360  0.0212  0.7794 -1.9349
 1227TIP3    H2 3646   3.234   3.218   3.291  1.9506  1.1459 -0.9896
 1228TIP3   OH2 3647   1.878   4.311   3.378 -0.4868  0.1469  0.5297
 1228TIP3    H1 3648   1.799   4.351   3.414 -1.1716  0.8899 -1.6808
 1228TIP3    H2 3649   1.846   4.243   3.319  0.5732 -0.3374  0.4829
 1229TIP3   OH2 3650   5.882   2.773   1.654  0.2052 -0.5966 -0.3230
 1229TIP3    H1 3651   5.904   2.724   1.575  1.6238 -0.3595 -0.0992
 1229TIP3    H2 3652   5.966   2.789   1.697 -0.4205  0.3333  0.6130
 1230TIP3   OH2 3653   4.436   4.091   0.632 -0.0840  0.6313 -0.9941
 1230TIP3    H1 3654   4.444   4.075   0.726 -0.1008  0.4118 -1.0292
 1230TIP3    H2 3655   4.375   4.164   0.625  1.3695  1.9345 -0.7373
 1231TIP3   OH2 3656   1.905   2.673   0.199 -0.0375  0.0906  0.2628
 1231TIP3    H1 3657   1.879   2.756   0.158 -1.2335 -0.1544  0.5044
 1231TIP3    H2 3658   1.910   2.611   0.126 -1.5058 -0.1850  0.3779
 1232TIP3   OH2 3659   5.077   3.325   4.257 -0.5020 -0.3607 -0.2457
 1232TIP3    H1 3660   5.009   3.364   4.311  0.0673 -0.5801  0.6541
 1232TIP3    H2 3661   5.159   3.357   4.295 -0.0835 -0.6191 -0.9072
 1233TIP3   OH2 3662   4.062   6.693   1.440 -0.5004  0.1614  0.2295
 1233TIP3    H1 3663   4.114   6.721   1.364 -1.0299  1.8273  0.4589
 1233TIP3    H2 3664   4.083   6.756   1.508  1.5103 -2.4306  2.2081
 1234TIP3   OH2 3665   6.695   4.768   4.883  0.2399 -0.3127 -1.1142
 1234TIP3    H1 3666   6.646   4.778   4.964  1.3523 -0.6243 -0.3874
 1234TIP3    H2 3667   6.700   4.856   4.846  0.1007 -0.0995 -0.6237
 1235TIP3   OH2 3668   4.925   5.366   0.335  0.7185 -0.2581  0.2083
 1235TIP3    H1 3669   4.907   5.328   0.249 -0.1235  0.0772  0.2295
 1235TIP3    H2 3670   5.007   5.324   0.363  0.1409 -1.5741 -0.0245
 1236TIP3   OH2 3671   6.943   1.900   5.713  0.1001 -0.4217 -0.9121
 1236TIP3    H1 3672   7.023   1.940   5.750 -0.1849  0.1747 -0.9201
 1236TIP3    H2 3673   6.923   1.828   5.772 -1.3336  1.5664  1.1878
 1237TIP3   OH2 3674   4.336   0.081   0.772 -0.3109  0.1326 -0.4202
 1237TIP3    H1 3675   4.266   0.016   0.780 -0.1511  0.1201  1.2926
 1237TIP3    H2 3676   4.353   0.087   0.678 -1.7272 -0.8009 -0.7660
 1238TIP3   OH2 3677   0.953   1.101   4.642 -0.0259  0.3116  0.1317
 1238TIP3    H1 3678   1.028   1.078   4.588 -0.8141  2.2244 -1.9086
 1238TIP3    H2 3679   0.885   1.039   4.615  0.1181  0.0595  0.3323
 1239TIP3   OH2 3680   6.724   4.150   0.875 -0.0593 -0.3857  0.2480
 1239TIP3    H1 3681   6.759   4.079   0.821 -0.3770 -1.3149  1.2163
 1239TIP3    H2 3682   6.799   4.207   0.892  0.4228 -1.0046  0.2322
 1240TIP3   OH2 3683   3.693   6.352   4.689 -0.3271  0.0295 -0.4961
 1240TIP3    H1 3684   3.788   6.340   4.689 -0.3884 -0.4904 -0.4272
 1240TIP3    H2 3685   3.659   6.278   4.740 -0.6958  0.8399  0.4825
 1241TIP3   OH2 3686   0.829   6.104   5.306  0.3002 -0.0851  0.3091
 1241TIP3    H1 3687   0.788   6.024   5.338  0.5712  0.3589  1.8773
 1241TIP3    H2 3688   0.806   6.108   5.213 -1.0080 -1.1684  0.5540
 1242TIP3   OH2 3689   0.893   3.641   0.865  0.0373  0.1121 -0.2523
 1242TIP3    H1 3690   0.809   3.648   0.820  1.1178 -1.3834 -2.7569
 1242TIP3    H2 3691   0.957   3.669   0.799  1.6489 -0.7830  0.8665
 1243TIP3   OH2 3692   5.931   5.850   5.205  0.0100  0.5001  0.6998
 1243TIP3    H1 3693   6.019   5.824   5.177 -0.7207  0.0046 -1.3100
 1243TIP3    H2 3694   5.881   5.856   5.124 -1.7730  0.9785  1.7789
 1244TIP3   OH2 3695   2.487   3.632   2.635 -0.3098 -0.4198  0.0372
 1244TIP3    H1 3696   2.548   3.580   2.688  1.0236 -0.1167 -1.1423
 1244TIP3    H2 3697   2.432   3.677   2.700  2.1471  0.9962  1.2969
 1245TIP3   OH2 3698   3.572   3.181   2.609 -0.2652  0.0866  0.0516
 1245TIP3    H1 3699   3.580   3.166   2.703  1.9777 -0.5098 -0.1741
 1245TIP3    H2 3700   3.631   3.254   2.591 -2.1624  1.5306 -0.6472
 1246TIP3   OH2 3701   4.085   5.655   1.692  0.1026 -0.1857 -0.1672
 1246TIP3    H1 3702   4.093   5.750   1.700 -0.9670 -0.2143  2.3080
 1246TIP3    H2 3703   4.172   5.622   1.716  0.1707  0.1519  0.0715
 1247TIP3   OH2 3704   2.334   2.378   5.207  0.2510 -0.1082 -0.0119
 1247TIP3    H1 3705   2.286   2.308   5.251  0.5426  0.0002  0.4754
 1247TIP3    H2 3706   2.334   2.451   5.269  1.5398 -0.2931  0.2333
 1248TIP3   OH2 3707   3.036   0.967   4.143 -0.2263 -0.2789 -0.1628
 1248TIP3    H1 3708   3.086   0.925   4.213  0.7473  1.1370  0.0614
 1248TIP3    H2 3709   2.960   0.912   4.130  1.4131 -2.5995 -0.5567
 1249TIP3   OH2 3710   6.937   2.896   2.152  0.0170  0.1476  0.5172
 1249TIP3    H1 3711   7.028   2.918   2.173  0.3094  0.7647 -1.2490
 1249TIP3    H2 3712   6.891   2.980   2.153 -0.2272  0.0227  0.0190
 1250TIP3   OH2 3713   2.470   2.134   3.089 -0.0446  0.3087  0.6200
 1250TIP3    H1 3714   2.459   2.049   3.133 -4.6027  0.1948 -0.2102
 1250TIP3    H2 3715   2.477   2.112   2.996 -1.8393  0.7543  0.3431
 1251TIP3   OH2 3716   2.338   1.700   5.789  0.2142  0.1155  0.4123
 1251TIP3    H1 3717   2.413   1.719   5.731  0.2681 -0.0372  0.4327
 1251TIP3    H2 3718   2.287   1.635   5.741  0.0655  0.2615  0.3742
 1252TIP3   OH2 3719   4.554   2.411   5.208  0.7411 -0.0520 -0.0451
 1252TIP3    H1 3720   4.487   2.342   5.210 -0.3202  0.9394  0.9871
 1252TIP3    H2 3721   4.542   2.454   5.123  0.1557  0.0053  0.0573
 1253TIP3   OH2 3722   6.952   5.357   5.445  0.0427 -0.1570 -0.0255
 1253TIP3    H1 3723   6.884   5.291   5.431  2.3634 -2.3935 -1.7932
 1253TIP3    H2 3724   6.956   5.367   5.540 -2.2760 -0.4081  0.1538
 1254TIP3   OH2 3725   2.260   2.976   5.499  0.3338  0.2676  0.6435
 1254TIP3    H1 3726   2.230   2.987   5.409  0.7156 -0.0916  0.4693
 1254TIP3    H2 3727   2.242   3.060   5.541 -1.0594  0.0066  0.5975
 1255TIP3   OH2 3728   3.577   4.456   4.348  0.0079 -0.1565 -0.1752
 1255TIP3    H1 3729   3.545   4.382   4.399  2.6970 -0.7589  0.8033
 1255TIP3    H2 3730   3.626   4.416   4.276  2.7438  0.5157  1.1790
 1256TIP3   OH2 3731   3.032   3.322   4.440 -0.5503 -1.0016 -0.3975
 1256TIP3    H1 3732   3.059   3.375   4.364  0.0874  1.1630  1.2363
 1256TIP3    H2 3733   3.052   3.377   4.516  1.0246 -3.9583  1.5362
 1257TIP3   OH2 3734   4.705   4.947   0.783  0.6677 -0.1689  0.9651
 1257TIP3    H1 3735   4.658   5.029   0.797 -0.7654 -0.7951  0.1311
 1257TIP3    H2 3736   4.786   4.972   0.738 -0.5286  0.6696 -0.8492
 1258TIP3   OH2 3737   0.112   1.849   0.701  0.0160 -0.1441 -0.6525
 1258TIP3    H1 3738   0.045   1.786   0.676  0.0219 -0.7522  0.7504
 1258TIP3    H2 3739   0.181   1.796   0.742  0.7205  0.6113 -0.8428
 1259TIP3   OH2 3740   4.703   6.096   2.868 -0.3873  0.4176  0.6666
 1259TIP3    H1 3741   4.713   6.166   2.804 -0.9464 -0.4318 -0.3738
 1259TIP3    H2 3742   4.732   6.135   2.951 -1.5679  2.1687  0.3025
 1260TIP3   OH2 3743   1.052   0.089   2.375  0.2185 -0.3595  0.3257
 1260TIP3    H1 3744   1.126   0.066   2.318  0.0212 -0.4058  0.0825
 1260TIP3    H2 3745   1.035   0.182   2.357 -0.1978 -0.5128 -0.1099
 1261TIP3   OH2 3746   3.673   3.721   2.218 -0.1375  0.3063  0.3444
 1261TIP3    H1 3747   3.649   3.738   2.310  0.4208  0.1363  0.5228
 1261TIP3    H2 3748   3.630   3.638   2.197  1.5203 -0.8079  1.1469
 1262TIP3   OH2 3749   2.158   3.603   4.246  0.7030  0.1065 -0.4913
 1262TIP3    H1 3750   2.131   3.694   4.252  0.1836 -0.1455  1.9362
 1262TIP3    H2 3751   2.152   3.582   4.152 -1.3156  1.9070 -0.8350
 1263TIP3   OH2 3752   0.028   2.004   1.414 -0.9757 -0.2515 -0.3149
 1263TIP3    H1 3753  -0.061   1.971   1.404 -0.4777 -1.7677  0.0834
 1263TIP3    H2 3754   0.083   1.926   1.414  0.3302  0.6404 -0.1822
 1264TIP3   OH2 3755   2.108   2.532   2.257 -0.1967 -0.2701 -0.2290
 1264TIP3    H1 3756   2.078   2.533   2.348  0.1744 -0.9288 -0.0904
 1264TIP3    H2 3757   2.088   2.620   2.224 -0.3585 -0.0331  0.4783
 1265TIP3   OH2 3758   2.486   4.178   2.083 -0.5192 -0.3412 -0.1458
 1265TIP3    H1 3759   2.552   4.239   2.116 -0.3024 -0.5319 -0.2192
 1265TIP3    H2 3760   2.537   4.106   2.046 -0.7705 -0.4948 -0.1957
 1266TIP3   OH2 3761   3.794   0.609   5.902  0.6723  0.5401  0.0608
 1266TIP3    H1 3762   3.847   0.664   5.844  0.1285 -0.4696 -1.4462
 1266TIP3    H2 3763   3.714   0.591   5.852 -1.3260  2.2651  2.3578
 1267TIP3   OH2 3764   1.743   3.630   3.320  0.2802  0.2452  0.1327
 1267TIP3    H1 3765   1.726   3.547   3.365 -0.5465  0.3730  0.0750
 1267TIP3    H2 3766   1.825   3.662   3.359 -1.3701  1.3368  3.0053
 1268TIP3   OH2 3767   2.450   6.369   3.531  0.0429 -0.3301 -0.2327
 1268TIP3    H1 3768   2.419   6.329   3.449  1.0452 -0.3437 -0.6170
 1268TIP3    H2 3769   2.397   6.328   3.599 -1.7771  0.6889 -0.9730
 1269TIP3   OH2 3770   6.769   6.703   1.626  0.1654  0.5112 -0.0738
 1269TIP3    H1 3771   6.786   6.707   1.720  1.4724  2.1338 -0.3213
 1269TIP3    H2 3772   6.740   6.791   1.603 -0.2761  0.0995 -1.1697
 1270TIP3   OH2 3773   5.340   1.688   3.360  0.1837 -1.1890  0.0258
 1270TIP3    H1 3774   5.371   1.725   3.442  1.2403  1.0587 -1.2869
 1270TIP3    H2 3775   5.420   1.672   3.309 -0.4950 -1.4803 -0.9811
 1271TIP3   OH2 3776   2.375   4.434   2.512 -0.2867  0.1081  0.7394
 1271TIP3    H1 3777   2.323   4.506   2.548  1.1882  2.9869 -2.2952
 1271TIP3    H2 3778   2.327   4.406   2.435  0.4000 -0.4084  0.4922
 1272TIP3   OH2 3779   0.827   3.194   1.105  0.5912 -0.1007 -0.1924
 1272TIP3    H1 3780   0.788   3.164   1.024  0.2534 -1.8987  0.6011
 1272TIP3    H2 3781   0.919   3.167   1.100  1.2110  1.9249 -0.9720
 1273TIP3   OH2 3782   6.035   2.983   3.818  0.0204  0.0083 -0.0672
 1273TIP3    H1 3783   6.000   2.947   3.736 -0.0398 -1.4278  0.5542
 1273TIP3    H2 3784   6.125   2.951   3.822  0.7421  1.8303 -0.5647
 1274TIP3   OH2 3785   2.868   4.639   2.877 -0.0404 -0.0999  0.1247
 1274TIP3    H1 3786   2.807   4.567   2.862  0.0057 -0.4236  1.4448
 1274TIP3    H2 3787   2.812   4.716   2.889 -0.1495 -0.2028  0.2740
 1275TIP3   OH2 3788   6.517   4.657   4.029 -0.3887 -0.3122  0.2931
 1275TIP3    H1 3789   6.430   4.626   4.052  0.1023 -2.4726 -0.4577
 1275TIP3    H2 3790   6.574   4.623   4.098  0.2955 -2.0132 -1.0200
 1276TIP3   OH2 3791   5.093   0.197   2.556  0.4695 -0.5069  0.1109
 1276TIP3    H1 3792   5.156   0.253   2.602 -0.7826 -1.3315  3.1315
 1276TIP3    H2 3793   5.147   0.131   2.512  1.8936  2.1192 -2.3498
 1277TIP3   OH2 3794   1.490   4.925   3.240  0.5570 -0.0731 -0.0246
 1277TIP3    H1 3795   1.450   4.840   3.221  0.0689 -0.2398  1.5631
 1277TIP3    H2 3796   1.560   4.933   3.176 -1.3052 -0.2585 -2.2135
 1278TIP3   OH2 3797   4.673   4.351   1.683  0.1720  0.0104 -0.8045
 1278TIP3    H1 3798   4.731   4.335   1.758  1.3041  0.6914 -1.5120
 1278TIP3    H2 3799   4.597   4.296   1.700  0.6124 -0.2071  0.6142
 1279TIP3   OH2 3800   0.505   2.683   4.533  0.6235  0.5167  0.4378
 1279TIP3    H1 3801   0.422   2.645   4.506  0.6629  0.1090  0.8734
 1279TIP3    H2 3802   0.569   2.614   4.515  0.9172  0.9377 -0.1764
 1280TIP3   OH2 3803   4.017   0.631   0.316 -0.1199  0.4676  0.1814
 1280TIP3    H1 3804   4.108   0.629   0.345  0.6516  0.4346 -2.0434
 1280TIP3    H2 3805   3.994   0.723   0.316  0.7501  0.7326 -1.4670
 1281TIP3   OH2 3806   5.840   6.171   4.983  0.2606 -0.1340 -0.7689
 1281TIP3    H1 3807   5.781   6.246   4.974  0.8631  0.4685  0.1375
 1281TIP3    H2 3808   5.884   6.164   4.898  1.5420  1.7143 -0.3232
 1282TIP3   OH2 3809   5.680   2.461   2.739  0.2289 -0.0566  0.4653
 1282TIP3    H1 3810   5.756   2.463   2.681 -0.2832  1.0940 -0.2079
 1282TIP3    H2 3811   5.618   2.522   2.699 -0.5140  0.0464  1.7284
 1283TIP3   OH2 3812   2.762   2.132   2.447 -0.1390 -0.7377  0.1035
 1283TIP3    H1 3813   2.669   2.131   2.467 -0.3219 -0.7453 -0.7319
 1283TIP3    H2 3814   2.798   2.199   2.505 -0.7747 -0.2529 -0.0510
 1284TIP3   OH2 3815   3.741   3.734   0.833 -0.2874  0.5324  0.1229
 1284TIP3    H1 3816   3.795   3.661   0.802 -0.5583  0.7944 -1.0294
 1284TIP3    H2 3817   3.797   3.781   0.895 -0.4408 -1.1621  1.6273
 1285TIP3   OH2 3818   2.071   3.233   4.960  0.2557  0.5543  0.0743
 1285TIP3    H1 3819   2.094   3.238   5.052  0.5391  1.9188 -0.0449
 1285TIP3    H2 3820   2.141   3.281   4.915 -0.4341  0.8338 -0.7293
 1286TIP3   OH2 3821   6.513   3.166   4.865 -0.1868  0.3927  0.5690
 1286TIP3    H1 3822   6.578   3.122   4.920 -0.2023  0.7798  0.9094
 1286TIP3    H2 3823   6.482   3.099   4.805  0.0724  0.0441  0.8203
 1287TIP3   OH2 3824   7.198   3.362   5.651 -0.1377  0.1027 -0.0653
 1287TIP3    H1 3825   7.175   3.440   5.602  0.6456  0.3252 -0.0865
 1287TIP3    H2 3826   7.254   3.393   5.722 -1.4620 -0.1763  1.1348
 1288TIP3   OH2 3827   6.332   4.982   4.775  0.4065 -0.3036 -0.2629
 1288TIP3    H1 3828   6.387   5.055   4.746 -0.5829  0.3918 -0.4334
 1288TIP3    H2 3829   6.265   4.974   4.708 -1.0435  0.3542  1.0642
 1289TIP3   OH2 3830   2.705   4.394   0.823 -0.3974  0.0399 -0.2543
 1289TIP3    H1 3831   2.726   4.461   0.888 -2.1404  0.4474 -0.0622
 1289TIP3    H2 3832   2.709   4.311   0.871 -0.1104  0.1890 -0.0194
 1290TIP3   OH2 3833   2.635   2.813   3.423  0.6759 -0.1986  0.3474
 1290TIP3    H1 3834   2.596   2.749   3.364  2.2414  1.0618 -2.2650
 1290TIP3    H2 3835   2.721   2.777   3.444  0.8962  0.2247  0.2092
 1291TIP3   OH2 3836   3.528   0.028   2.371 -0.0229  0.2680 -0.3221
 1291TIP3    H1 3837   3.573  -0.046   2.411 -1.7442  0.1822  1.6331
 1291TIP3    H2 3838   3.474   0.064   2.441 -1.0476  1.8962 -1.8629
 1292TIP3   OH2 3839   1.737   1.519   5.733 -0.0911  0.5217  0.0037
 1292TIP3    H1 3840   1.809   1.581   5.750  0.7996 -0.6655  0.7174
 1292TIP3    H2 3841   1.698   1.503   5.818  0.3171 -0.6288 -0.0031
 1293TIP3   OH2 3842   4.025   6.730   3.374 -0.1119  0.2399  0.2659
 1293TIP3    H1 3843   3.948   6.706   3.426  0.6667 -2.7518  0.2310
 1293TIP3    H2 3844   3.989   6.771   3.295 -1.6129 -0.4076  0.5847
 1294TIP3   OH2 3845   1.515   1.457   1.588  0.8556  0.4731 -0.4326
 1294TIP3    H1 3846   1.487   1.544   1.616 -0.0188  0.3082 -0.7671
 1294TIP3    H2 3847   1.443   1.399   1.613  2.3414 -0.5549  1.8525
 1295TIP3   OH2 3848   3.611   2.533   0.168  0.0725  0.0861 -0.4605
 1295TIP3    H1 3849   3.519   2.508   0.178  0.3824 -0.0853  3.2102
 1295TIP3    H2 3850   3.658   2.450   0.167  0.3018  0.2177 -1.0309
 1296TIP3   OH2 3851   2.802   0.318   4.247  0.4740 -0.5047 -0.1289
 1296TIP3    H1 3852   2.851   0.263   4.185 -0.9457 -0.3640 -1.4311
 1296TIP3    H2 3853   2.841   0.405   4.238  1.8713 -0.9787  0.9888
 1297TIP3   OH2 3854   2.945   1.530   5.914 -0.2532  0.1274  0.4124
 1297TIP3    H1 3855   3.036   1.539   5.944 -0.5879 -0.5424  1.6970
 1297TIP3    H2 3856   2.947   1.561   5.823  1.5859 -1.4413 -0.1483
 1298TIP3   OH2 3857   1.111   4.892   3.100 -0.0565  0.4525 -0.3298
 1298TIP3    H1 3858   1.134   4.978   3.067  2.0217 -0.0994 -0.4718
 1298TIP3    H2 3859   1.048   4.857   3.037 -0.2660  1.5075 -0.7227
 1299TIP3   OH2 3860   4.115   6.444   4.863 -0.5352 -0.2655  1.0912
 1299TIP3    H1 3861   4.207   6.418   4.872 -0.8313 -2.1559 -0.4541
 1299TIP3    H2 3862   4.070   6.396   4.933 -0.4974 -0.3007  1.0916
 1300TIP3   OH2 3863   1.439   0.971   4.535 -0.3791 -0.2458 -0.4313
 1300TIP3    H1 3864   1.368   0.968   4.600 -0.6201 -3.4985 -0.6707
 1300TIP3    H2 3865   1.494   1.044   4.563 -1.9702  0.2076  1.7994
 1301TIP3   OH2 3866   5.433   1.998   4.552  0.1660 -0.5707  0.0483
 1301TIP3    H1 3867   5.497   2.002   4.482 -1.1409 -1.3723 -1.2482
 1301TIP3    H2 3868   5.463   2.062   4.617  1.4620  0.0930 -1.1714
 1302TIP3   OH2 3869   7.177   1.200   1.294  0.7672 -0.3276 -0.1658
 1302TIP3    H1 3870   7.086   1.172   1.283  0.8185 -0.3778 -0.4542
 1302TIP3    H2 3871   7.194   1.257   1.220  0.8359  0.0369  0.1256
 1303TIP3   OH2 3872   5.127   3.578   5.499  0.5867  0.3348  0.0931
 1303TIP3    H1 3873   5.162   3.498   5.537  1.1112 -0.0561 -1.1647
 1303TIP3    H2 3874   5.205   3.631   5.480  0.2956  0.7708  0.0940
 1304TIP3   OH2 3875   4.530   5.856   4.609  0.4179 -0.7403  0.3149
 1304TIP3    H1 3876   4.529   5.902   4.693 -0.6292  0.6185 -0.4105
 1304TIP3    H2 3877   4.563   5.920   4.547  0.8662 -1.6308 -0.3793
 1305TIP3   OH2 3878   2.084   2.386   2.041 -0.2885 -0.3080  0.2443
 1305TIP3    H1 3879   2.082   2.296   2.073 -0.2695 -0.1842  0.6003
 1305TIP3    H2 3880   2.104   2.439   2.118  0.7027 -0.0825 -0.1415
 1306TIP3   OH2 3881   6.443   4.983   4.026 -0.4908 -0.4629  0.3483
 1306TIP3    H1 3882   6.418   4.894   4.004  0.6881 -0.6545 -0.2702
 1306TIP3    H2 3883   6.528   4.996   3.983 -1.4479  1.5569 -1.1290
 1307TIP3   OH2 3884   5.676   5.428   1.156  0.6772  0.4692 -0.6920
 1307TIP3    H1 3885   5.730   5.380   1.219  1.1159 -1.0901 -2.1953
 1307TIP3    H2 3886   5.639   5.361   1.100 -0.8580  1.7233 -1.2394
 1308TIP3   OH2 3887   7.192   1.412   3.051 -0.5090  0.2254 -0.3737
 1308TIP3    H1 3888   7.222   1.502   3.061  0.1406  0.0612 -0.7992
 1308TIP3    H2 3889   7.123   1.416   2.984 -1.8158  0.6739  0.9385
 1309TIP3   OH2 3890   6.919   1.925   5.023  0.0560 -1.0775  0.0009
 1309TIP3    H1 3891   6.982   1.875   5.076 -0.0282 -0.7004  0.4692
 1309TIP3    H2 3892   6.946   2.016   5.035  0.6177 -1.0467 -1.3821
 1310TIP3   OH2 3893   2.843   3.427   1.748  0.6929 -0.0774 -0.2942
 1310TIP3    H1 3894   2.930   3.389   1.737  0.7844  0.5756 -2.0869
 1310TIP3    H2 3895   2.783   3.358   1.720  0.5570 -0.7442  1.5045
 1311TIP3   OH2 3896   1.673   4.726   5.783 -0.6879 -0.7093  0.2733
 1311TIP3    H1 3897   1.663   4.715   5.689  0.6409  0.9734 -0.0932
 1311TIP3    H2 3898   1.633   4.811   5.802  0.5809 -0.2299  0.9261
 1312TIP3   OH2 3899   7.062   1.896   2.049  0.8573  0.1077 -0.8778
 1312TIP3    H1 3900   7.139   1.948   2.029  0.5002  1.0930  0.2373
 1312TIP3    H2 3901   7.066   1.882   2.144 -0.4849  0.4277 -0.7593
 1313TIP3   OH2 3902   5.219   5.471   1.722  0.3664  0.0549 -0.4473
 1313TIP3    H1 3903   5.201   5.423   1.641 -1.2699 -0.5030  0.2060
 1313TIP3    H2 3904   5.176   5.420   1.790 -1.7503  2.5513  0.2595
 1314TIP3   OH2 3905   6.216   3.765   0.134  0.5557  0.0709 -0.2743
 1314TIP3    H1 3906   6.212   3.775   0.229 -2.0103 -2.3531 -0.0108
 1314TIP3    H2 3907   6.212   3.855   0.100  0.6060  0.9341  1.8769
 1315TIP3   OH2 3908   4.481   4.083   2.334  0.1266 -0.0516  0.1342
 1315TIP3    H1 3909   4.507   4.034   2.412  0.0745  0.8276  0.7156
 1315TIP3    H2 3910   4.461   4.016   2.269  1.1227 -0.7836  0.5627
 1316TIP3   OH2 3911   3.410   5.772   4.177  0.1708 -0.4131  0.2348
 1316TIP3    H1 3912   3.315   5.766   4.183 -0.0488  1.4933 -0.6780
 1316TIP3    H2 3913   3.437   5.801   4.265 -0.7304  4.3472 -0.7597
 1317TIP3   OH2 3914   5.732   5.623   0.758 -0.4448  0.4408 -0.3116
 1317TIP3    H1 3915   5.787   5.667   0.694 -0.1415  0.1205 -0.2765
 1317TIP3    H2 3916   5.764   5.653   0.843  0.7337 -0.9250 -0.2263
 1318TIP3   OH2 3917   3.969   0.869   5.604 -0.1768  0.0089 -0.0357
 1318TIP3    H1 3918   3.985   0.789   5.653  0.5105 -0.8184 -1.5590
 1318TIP3    H2 3919   4.041   0.927   5.630 -1.0999  0.4746  1.6571
 1319TIP3   OH2 3920   0.441   6.116   5.808  0.6230 -0.2083 -0.0533
 1319TIP3    H1 3921   0.514   6.172   5.782  1.4723 -0.5931  1.3326
 1319TIP3    H2 3922   0.376   6.176   5.844  0.0868  0.1712 -1.6020
 1320TIP3   OH2 3923   0.211   6.121   2.965 -0.2236  0.9569  0.0106
 1320TIP3    H1 3924   0.189   6.047   3.021  0.0659  0.9151  0.0728
 1320TIP3    H2 3925   0.299   6.146   2.992  0.5337 -0.0040 -1.4135
 1321TIP3   OH2 3926   1.541   5.090   5.205  0.1827  0.1467 -0.9463
 1321TIP3    H1 3927   1.463   5.140   5.229 -0.7184 -1.1166 -1.1473
 1321TIP3    H2 3928   1.510   5.026   5.141  1.0660 -1.3550  0.0635
 1322TIP3   OH2 3929   4.225   5.214   2.027  0.4609 -0.0990  0.0542
 1322TIP3    H1 3930   4.147   5.159   2.021  0.7792 -0.4957 -0.5715
 1322TIP3    H2 3931   4.240   5.225   2.120  0.0888 -0.6506  0.1830
 1323TIP3   OH2 3932   4.637   2.384   3.993  0.1147 -0.6809  0.8820
 1323TIP3    H1 3933   4.718   2.347   4.027  0.4339  0.4670  1.4066
 1323TIP3    H2 3934   4.595   2.311   3.946  1.7190 -1.1427  0.1091
 1324TIP3   OH2 3935   4.198   1.567   5.394 -0.6429 -0.1722  0.5916
 1324TIP3    H1 3936   4.128   1.513   5.358  1.2092 -1.1582 -1.8018
 1324TIP3    H2 3937   4.275   1.511   5.393  0.8861  1.7999  0.0728
 1325TIP3   OH2 3938   6.694   0.100   5.011  0.0434 -0.2447 -0.4988
 1325TIP3    H1 3939   6.713   0.171   5.072  1.4731 -0.3816 -0.7459
 1325TIP3    H2 3940   6.599   0.094   5.009 -0.0354  0.0637  1.3500
 1326TIP3   OH2 3941   2.224   4.673   0.287  0.4315 -0.1263 -0.4712
 1326TIP3    H1 3942   2.252   4.759   0.319 -1.8211  0.4437  0.1595
 1326TIP3    H2 3943   2.286   4.652   0.218  1.0462  2.0133 -0.6403
 1327TIP3   OH2 3944   2.288   5.366   2.516  0.6867 -0.1997 -0.0220
 1327TIP3    H1 3945   2.339   5.343   2.595  0.5427  0.3580  0.2396
 1327TIP3    H2 3946   2.254   5.283   2.484  0.0318 -0.3448  1.0052
 1328TIP3   OH2 3947   0.902   6.150   3.463 -0.3797 -0.4987  0.0451
 1328TIP3    H1 3948   0.944   6.102   3.534  0.9793  1.0044  0.3290
 1328TIP3    H2 3949   0.922   6.099   3.384  0.6176 -0.6638  0.3916
 1329TIP3   OH2 3950   1.465   6.289   5.066 -0.2574 -0.2802  0.3487
 1329TIP3    H1 3951   1.439   6.303   4.975  0.3987 -0.7451  0.0881
 1329TIP3    H2 3952   1.485   6.377   5.099 -1.7769  0.0645  0.4585
 1330TIP3   OH2 3953   3.763   4.000   5.386  0.1218 -0.2427  0.4986
 1330TIP3    H1 3954   3.677   4.002   5.429 -0.3263 -1.1858 -0.3098
 1330TIP3    H2 3955   3.750   3.942   5.311  1.5307 -0.5626  0.4893
 1331TIP3   OH2 3956   7.127   4.950   4.444  0.0283  0.1337  0.1659
 1331TIP3    H1 3957   7.177   5.026   4.412 -1.2187  0.5407 -0.9456
 1331TIP3    H2 3958   7.173   4.874   4.408 -0.3762  0.5223 -1.2500
 1332TIP3   OH2 3959   2.831   5.893   0.662 -0.3337  0.3823  0.3705
 1332TIP3    H1 3960   2.810   5.962   0.599  1.5409  0.5144 -0.1753
 1332TIP3    H2 3961   2.900   5.842   0.619  0.4161 -0.0248  1.9815
 1333TIP3   OH2 3962   6.817   1.166   3.542  0.5269  0.0702  0.1918
 1333TIP3    H1 3963   6.844   1.235   3.602  0.8016 -0.8814  1.1999
 1333TIP3    H2 3964   6.761   1.210   3.478 -0.7731  0.9141  1.8256
 1334TIP3   OH2 3965   4.182   3.900   4.100  0.0198 -0.2004 -0.6326
 1334TIP3    H1 3966   4.153   3.826   4.153 -0.5206 -0.0675 -0.7327
 1334TIP3    H2 3967   4.130   3.894   4.020 -1.7523  1.5813  0.2879
 1335TIP3   OH2 3968   2.001   6.463   4.953 -0.4346  0.2441  0.6283
 1335TIP3    H1 3969   1.921   6.411   4.942 -0.2739 -0.3241  1.9342
 1335TIP3    H2 3970   1.970   6.554   4.951 -1.3153  0.0288  2.1926
 1336TIP3   OH2 3971   5.901   5.961   2.764  0.4110 -0.1028 -0.0801
 1336TIP3    H1 3972   5.843   5.896   2.803  0.2220  0.8587  1.3067
 1336TIP3    H2 3973   5.946   6.000   2.839  0.2146  1.6416 -0.8376
 1337TIP3   OH2 3974   7.207   3.875   2.673 -0.0905  0.0149  0.2908
 1337TIP3    H1 3975   7.123   3.829   2.661  0.2079 -0.7365  1.0504
 1337TIP3    H2 3976   7.213   3.932   2.596 -0.7081 -0.8493 -0.4302
 1338TIP3   OH2 3977   0.332   5.416   3.284  0.5287 -0.1839 -1.2030
 1338TIP3    H1 3978   0.396   5.406   3.355 -0.7319 -1.4908 -0.2009
 1338TIP3    H2 3979   0.250   5.435   3.328 -0.3757 -1.4664 -2.2546
 1339TIP3   OH2 3980   3.934   0.702   4.700 -0.0159  0.3360  0.3656
 1339TIP3    H1 3981   4.029   0.709   4.693 -0.2423  2.6058 -1.8722
 1339TIP3    H2 3982   3.916   0.717   4.793  1.7352  1.0471  0.6373
 1340TIP3   OH2 3983   2.797   0.824   1.734  0.0710 -0.1202 -0.3324
 1340TIP3    H1 3984   2.787   0.882   1.658 -0.1945 -1.8634 -1.6930
 1340TIP3    H2 3985   2.871   0.861   1.783 -0.0975  1.3524 -1.1179
 1341TIP3   OH2 3986   3.204   6.708   2.093  0.4603 -0.0393  0.2250
 1341TIP3    H1 3987   3.192   6.630   2.147  2.2625 -0.9670 -0.6093
 1341TIP3    H2 3988   3.127   6.762   2.110 -0.8669 -2.0183  0.7980
 1342TIP3   OH2 3989   1.719   1.679   0.304  0.1193  0.1709  0.8272
 1342TIP3    H1 3990   1.772   1.600   0.319  1.7533  0.4558 -2.5707
 1342TIP3    H2 3991   1.630   1.651   0.325  0.7206 -2.4137  0.3312
 1343TIP3   OH2 3992   4.065   2.327   3.983 -0.1782  0.0693 -0.2657
 1343TIP3    H1 3993   4.054   2.298   4.074 -1.6877  0.1324 -0.3940
 1343TIP3    H2 3994   3.975   2.336   3.951  0.3083  1.4162 -1.3340
 1344TIP3   OH2 3995   5.449   1.348   3.376  0.0707 -0.3320  0.5074
 1344TIP3    H1 3996   5.359   1.338   3.407  0.1266 -0.1149  0.7398
 1344TIP3    H2 3997   5.439   1.382   3.287 -0.0732 -0.0874  0.6151
 1345TIP3   OH2 3998   1.891   6.449   4.571 -0.4438 -0.2594 -0.4033
 1345TIP3    H1 3999   1.914   6.506   4.498 -0.6706  1.2720  0.6566
 1345TIP3    H2 4000   1.974   6.436   4.618 -0.4615 -0.5031 -0.4380
 1346TIP3   OH2 4001   3.512   3.398   5.075 -0.0309  0.1870 -0.0259
 1346TIP3    H1 4002   3.600   3.408   5.040 -0.3602 -1.6936 -1.5463
 1346TIP3    H2 4003   3.525   3.370   5.165  0.9676 -1.0545 -0.5294
 1347TIP3   OH2 4004   5.720   4.328   1.130 -0.1002  0.5073  0.6428
 1347TIP3    H1 4005   5.722   4.263   1.060 -0.2672  2.1049 -0.9343
 1347TIP3    H2 4006   5.704   4.278   1.210 -2.1233 -1.2191 -0.7372
 1348TIP3   OH2 4007   0.024   4.731   4.305  0.4869  0.5693  0.8958
 1348TIP3    H1 4008   0.112   4.743   4.340  0.9499 -1.2747  0.4747
 1348TIP3    H2 4009  -0.027   4.697   4.378 -0.1299  2.3984  1.3667
 1349TIP3   OH2 4010   0.181   2.444   5.604 -0.2727 -0.2668 -0.2240
 1349TIP3    H1 4011   0.222   2.464   5.688 -2.3815 -0.8590  1.0321
 1349TIP3    H2 4012   0.254   2.437   5.543  1.3017  0.6596  1.4416
 1350TIP3   OH2 4013   0.238   6.461   2.794  0.2671 -0.4864 -0.2475
 1350TIP3    H1 4014   0.270   6.386   2.745  1.4364  1.1758 -2.2073
 1350TIP3    H2 4015   0.317   6.509   2.820 -0.4643  0.8348 -0.3449
 1351TIP3   OH2 4016   2.641   0.907   0.317 -0.8728  0.2652  0.0189
 1351TIP3    H1 4017   2.668   0.867   0.235 -0.8748  0.8614 -0.2817
 1351TIP3    H2 4018   2.668   0.999   0.309 -0.8516  0.3234  0.6913
 1352TIP3   OH2 4019   2.408   2.698   3.737 -0.5307  0.1486  0.4784
 1352TIP3    H1 4020   2.471   2.769   3.747 -2.3204  1.8236  0.4001
 1352TIP3    H2 4021   2.395   2.691   3.642 -0.9282  0.2515  0.5240
 1353TIP3   OH2 4022   1.275   3.277   3.140  0.3697  0.0916 -0.3085
 1353TIP3    H1 4023   1.308   3.259   3.228  1.0027  0.2426 -0.5157
 1353TIP3    H2 4024   1.183   3.299   3.154  1.1630  3.1981  0.6909
 1354TIP3   OH2 4025   4.715   3.851   1.955 -0.1531 -0.2028  0.5699
 1354TIP3    H1 4026   4.669   3.772   1.926 -2.4936  0.1474  2.9948
 1354TIP3    H2 4027   4.647   3.917   1.964  1.3774  1.4040  1.0077
 1355TIP3   OH2 4028   4.841   1.892   5.891 -0.1220 -0.4213  0.0400
 1355TIP3    H1 4029   4.862   1.982   5.865 -0.3098 -0.5361 -0.5391
 1355TIP3    H2 4030   4.746   1.886   5.883 -0.2954 -0.2020  1.6617
 1356TIP3   OH2 4031   6.775   1.082   4.886 -0.1827 -0.4666  0.4671
 1356TIP3    H1 4032   6.783   1.026   4.964  0.9787 -0.4231  0.4014
 1356TIP3    H2 4033   6.822   1.034   4.818  1.0711  0.6815  0.4765
 1357TIP3   OH2 4034   5.480   0.751   2.722 -0.6711  0.1361  0.2378
 1357TIP3    H1 4035   5.558   0.778   2.770  0.6673 -0.5879 -1.4208
 1357TIP3    H2 4036   5.433   0.693   2.782 -0.4674  1.3377  1.6160
 1358TIP3   OH2 4037   2.781   3.412   3.201  0.5290  0.4038  0.1948
 1358TIP3    H1 4038   2.803   3.505   3.197 -0.0977  0.5204 -0.8562
 1358TIP3    H2 4039   2.685   3.410   3.205  0.5190 -0.2074 -0.2144
 1359TIP3   OH2 4040   2.897   0.320   2.673  0.1633 -0.1047  0.3464
 1359TIP3    H1 4041   2.812   0.306   2.632  0.5404 -0.3754 -0.3720
 1359TIP3    H2 4042   2.902   0.414   2.688 -0.0597 -0.0281 -0.0577
 1360TIP3   OH2 4043   1.162   5.612   3.850  0.0368 -0.0454 -0.0769
 1360TIP3    H1 4044   1.220   5.536   3.856 -3.0501 -2.6170  0.1372
 1360TIP3    H2 4045   1.136   5.629   3.941  0.0586  0.7510 -0.2152
 1361TIP3   OH2 4046   2.535   4.155   4.624  0.7503  0.0740 -0.2949
 1361TIP3    H1 4047   2.473   4.087   4.594 -0.3262  0.0746  1.7904
 1361TIP3    H2 4048   2.513   4.231   4.571 -2.2923  0.5971  1.4643
 1362TIP3   OH2 4049   3.383   6.718   5.468  0.3720  0.3729  0.1718
 1362TIP3    H1 4050   3.318   6.728   5.537 -0.9539 -0.8977 -0.8191
 1362TIP3    H2 4051   3.411   6.626   5.474 -0.5479 -0.0627 -1.5907
 1363TIP3   OH2 4052   2.441   0.887   5.765 -0.0988 -0.1059 -0.5591
 1363TIP3    H1 4053   2.368   0.929   5.811 -0.0783 -0.6919  0.0277
 1363TIP3    H2 4054   2.399   0.838   5.694 -0.2442 -0.1276 -0.4595
 1364TIP3   OH2 4055   1.929   4.180   4.722 -0.0267 -0.5642  0.2887
 1364TIP3    H1 4056   1.907   4.158   4.812  2.8555 -1.1631  0.9405
 1364TIP3    H2 4057   1.879   4.119   4.668 -0.2478 -1.5425  1.5859
 1365TIP3   OH2 4058   5.599   0.470   1.095 -0.2360  0.2001 -0.2195
 1365TIP3    H1 4059   5.686   0.508   1.110  0.8250 -2.7714  2.1224
 1365TIP3    H2 4060   5.592   0.464   0.999  2.3393  0.1175 -0.4699
 1366TIP3   OH2 4061   3.403   0.940  -0.011 -0.5998 -0.2807  0.5966
 1366TIP3    H1 4062   3.312   0.964  -0.029 -1.4430 -3.6187 -0.2836
 1366TIP3    H2 4063   3.397   0.872   0.055  1.0923 -1.7264 -0.6411
 1367TIP3   OH2 4064   3.736   6.463   1.982  0.3967  0.3556  0.0331
 1367TIP3    H1 4065   3.824   6.446   2.016  0.2865  1.1144  0.7179
 1367TIP3    H2 4066   3.723   6.557   1.994 -1.1476  0.0132  1.4894
 1368TIP3   OH2 4067   2.803   1.183   0.975 -0.3507  0.0999 -0.2528
 1368TIP3    H1 4068   2.809   1.263   0.922 -1.9682 -0.4241 -1.2993
 1368TIP3    H2 4069   2.716   1.148   0.955 -0.3725 -0.9736  1.5770
 1369TIP3   OH2 4070   2.761   6.059   0.469 -0.6918  0.2170  0.2942
 1369TIP3    H1 4071   2.700   6.006   0.418 -2.0259  1.7470  0.2128
 1369TIP3    H2 4072   2.817   6.102   0.403 -0.5711  0.0486  0.2855
 1370TIP3   OH2 4073   2.136   4.991   1.255  0.1102 -0.5274  0.1032
 1370TIP3    H1 4074   2.081   4.914   1.242 -1.1897  0.3419  0.3121
 1370TIP3    H2 4075   2.097   5.059   1.200  2.6594 -0.6362 -2.0171
 1371TIP3   OH2 4076   5.512   1.605   0.752  0.2262  0.5597 -0.0011
 1371TIP3    H1 4077   5.607   1.616   0.756  0.2159  0.4848  0.5730
 1371TIP3    H2 4078   5.494   1.534   0.814 -0.1026 -0.1057 -0.8323
 1372TIP3   OH2 4079   5.377   0.416   4.592 -0.5574  0.6880 -0.2419
 1372TIP3    H1 4080   5.399   0.503   4.557  3.0083 -1.0320 -2.8909
 1372TIP3    H2 4081   5.331   0.372   4.520  1.4468 -0.9377 -0.6066
 1373TIP3   OH2 4082   5.656   5.264   2.374 -0.5221 -0.3484  0.7311
 1373TIP3    H1 4083   5.724   5.275   2.308 -0.7942  0.4459  0.5768
 1373TIP3    H2 4084   5.658   5.170   2.394  0.8756 -0.2926  1.0135
 1374TIP3   OH2 4085   1.355   2.213   1.493 -0.0302  0.3124 -0.4560
 1374TIP3    H1 4086   1.317   2.300   1.502 -0.3143  0.2104 -0.6235
 1374TIP3    H2 4087   1.331   2.167   1.573  1.4586  0.8713  0.3451
 1375TIP3   OH2 4088   3.905   3.174   3.684  0.3642  0.1843  0.5990
 1375TIP3    H1 4089   3.894   3.147   3.592  1.7446 -0.9543  0.7416
 1375TIP3    H2 4090   3.905   3.092   3.733  0.0763  0.7607  1.5834
 1376TIP3   OH2 4091   0.095   0.767   4.517  0.4216  0.3840 -0.4692
 1376TIP3    H1 4092   0.104   0.719   4.434  1.2909 -0.8342  0.2977
 1376TIP3    H2 4093   0.142   0.849   4.502  0.6218  0.1506 -1.1614
 1377TIP3   OH2 4094   3.632   3.530   2.638 -0.7177  0.1145  0.3141
 1377TIP3    H1 4095   3.655   3.616   2.671  0.3022  0.2174 -0.6083
 1377TIP3    H2 4096   3.595   3.484   2.714  0.0292  0.8766  1.1582
 1378TIP3   OH2 4097   2.349   2.383   1.794  0.5546  0.1353 -0.4041
 1378TIP3    H1 4098   2.264   2.340   1.796  0.9085 -0.5767 -0.1802
 1378TIP3    H2 4099   2.397   2.345   1.867  0.4372  1.8804  0.6263
 1379TIP3   OH2 4100   3.711   2.977   5.690 -0.2407  0.2280  0.0731
 1379TIP3    H1 4101   3.640   2.920   5.661  0.4504 -0.1002 -1.0162
 1379TIP3    H2 4102   3.790   2.924   5.681  0.1173  0.4186  1.7358
 1380TIP3   OH2 4103   7.190   2.206   5.608 -0.5786  0.1328  0.0144
 1380TIP3    H1 4104   7.095   2.208   5.618 -0.3905 -0.5957  2.4624
 1380TIP3    H2 4105   7.221   2.146   5.675  1.5600 -0.7402 -1.6054
 1381TIP3   OH2 4106   2.151   3.831   4.520 -0.4308  0.0640  0.1618
 1381TIP3    H1 4107   2.164   3.826   4.614  1.6497 -0.0265 -0.0938
 1381TIP3    H2 4108   2.094   3.757   4.500 -1.2373  0.3248  1.3719
 1382TIP3   OH2 4109   5.207   5.458   0.632  0.0042  0.1870 -0.2158
 1382TIP3    H1 4110   5.216   5.514   0.555 -1.4438  1.3277  0.3894
 1382TIP3    H2 4111   5.276   5.488   0.691 -1.2192  1.9479  0.4099
 1383TIP3   OH2 4112   6.993   1.649   5.832 -0.4448 -0.1400 -0.1520
 1383TIP3    H1 4113   7.080   1.647   5.870 -0.3897  0.6929 -0.2102
 1383TIP3    H2 4114   6.979   1.561   5.798 -0.1027 -0.6184  0.9125
 1384TIP3   OH2 4115   5.220   4.863   2.460  0.0823  0.0408  0.3740
 1384TIP3    H1 4116   5.212   4.934   2.523 -0.0097  1.8822 -1.6090
 1384TIP3    H2 4117   5.131   4.848   2.430  0.2090 -0.3818  0.2010
 1385TIP3   OH2 4118   6.195   4.423   2.388  0.1715 -0.7592 -0.5320
 1385TIP3    H1 4119   6.132   4.485   2.426  0.5831  0.1714 -1.3452
 1385TIP3    H2 4120   6.244   4.474   2.324  0.1283 -2.0718 -1.6536
 1386TIP3   OH2 4121   4.790   0.136   0.338 -0.0445  0.6621  0.0978
 1386TIP3    H1 4122   4.704   0.154   0.300  0.2167 -0.8590 -1.2934
 1386TIP3    H2 4123   4.773   0.132   0.433 -1.7528 -0.7008 -0.2066
 1387TIP3   OH2 4124   6.404   5.652   5.610 -0.0756  0.7150  0.1988
 1387TIP3    H1 4125   6.434   5.567   5.642 -2.6481  0.8139  3.3056
 1387TIP3    H2 4126   6.325   5.632   5.560  0.2669  1.1923 -0.5612
 1388TIP3   OH2 4127   3.559   2.408   3.716  0.1063 -0.3020 -0.1041
 1388TIP3    H1 4128   3.540   2.501   3.727 -0.7030 -0.5732  0.9218
 1388TIP3    H2 4129   3.594   2.401   3.626 -0.0687  0.9360 -0.2833
 1389TIP3   OH2 4130   5.128   3.321   3.135  0.5750  0.0671  0.1199
 1389TIP3    H1 4131   5.045   3.351   3.171  0.5129 -0.8671  0.7779
 1389TIP3    H2 4132   5.194   3.357   3.193  0.6003  0.3285 -0.0690
 1390TIP3   OH2 4133   6.692   3.051   2.413 -0.3471  0.5647 -0.5980
 1390TIP3    H1 4134   6.698   2.955   2.408 -2.9387  0.4088 -2.9755
 1390TIP3    H2 4135   6.687   3.069   2.507  2.1923 -1.3719  0.0478
 1391TIP3   OH2 4136   0.769   2.319   2.878  0.2274 -0.1542 -0.2786
 1391TIP3    H1 4137   0.807   2.397   2.839 -1.0487  0.1702 -0.9222
 1391TIP3    H2 4138   0.800   2.247   2.823  0.2424  0.0589 -0.5507
 1392TIP3   OH2 4139   1.224   4.603   3.711  0.4056 -0.5669  0.2257
 1392TIP3    H1 4140   1.291   4.641   3.769 -0.1557  1.0654 -0.1381
 1392TIP3    H2 4141   1.151   4.583   3.769  0.8873 -1.6325  0.4996
 1393TIP3   OH2 4142   4.972   5.486   0.769  0.2680  0.1373 -0.0775
 1393TIP3    H1 4143   4.965   5.580   0.751 -0.2118 -0.0108 -0.6904
 1393TIP3    H2 4144   5.052   5.459   0.726 -0.0608  0.0933 -0.6671
 1394TIP3   OH2 4145   5.781   0.570   3.895 -0.0946 -0.3463 -0.1021
 1394TIP3    H1 4146   5.863   0.597   3.853  0.2359 -1.1412  0.0175
 1394TIP3    H2 4147   5.736   0.652   3.915  0.9152  0.1208  0.3060
 1395TIP3   OH2 4148   3.413   4.127   4.064 -0.6515 -0.2004 -0.5352
 1395TIP3    H1 4149   3.365   4.125   3.982 -1.6207 -1.7201  0.0225
 1395TIP3    H2 4150   3.364   4.187   4.120 -0.5134  0.1244 -0.7632
 1396TIP3   OH2 4151   3.120   1.884   3.515  0.4071  0.9756  0.4717
 1396TIP3    H1 4152   3.034   1.847   3.533  0.6440 -0.0231 -0.3526
 1396TIP3    H2 4153   3.176   1.851   3.586  0.0153  2.0712  1.3186
 1397TIP3   OH2 4154   1.329   3.122   4.222 -0.1841 -0.1096 -0.4561
 1397TIP3    H1 4155   1.294   3.097   4.308 -0.5952 -0.1211 -0.6228
 1397TIP3    H2 4156   1.399   3.060   4.206  0.7350  0.6519  0.4219
 1398TIP3   OH2 4157   4.733   4.372   3.574  0.3723 -0.3572 -0.3060
 1398TIP3    H1 4158   4.687   4.300   3.618  0.9368 -1.2101 -1.0614
 1398TIP3    H2 4159   4.709   4.450   3.624  1.4550 -1.3505  1.9061
 1399TIP3   OH2 4160   5.387   2.108   3.523 -0.6905  0.2972 -0.5714
 1399TIP3    H1 4161   5.352   2.020   3.535  0.1617 -0.5611 -3.5014
 1399TIP3    H2 4162   5.482   2.097   3.526 -0.5728  1.0950 -1.0803
 1400TIP3   OH2 4163   0.905   6.582   5.898  0.5885  0.5122  0.3424
 1400TIP3    H1 4164   0.896   6.519   5.827 -0.8031  0.0161  0.9358
 1400TIP3    H2 4165   0.997   6.608   5.894  0.7034 -0.0028 -1.2051
 1401TIP3   OH2 4166   5.911   3.260   5.453  0.9947 -0.6751 -0.2360
 1401TIP3    H1 4167   5.969   3.289   5.382  0.6487 -0.4461 -0.4270
 1401TIP3    H2 4168   5.878   3.342   5.491  0.3664 -0.8064 -0.4851
 1402TIP3   OH2 4169   4.116   0.920   3.015  0.5874 -0.1002 -0.8029
 1402TIP3    H1 4170   4.052   0.851   3.001  0.8502 -0.7726  1.0542
 1402TIP3    H2 4171   4.161   0.895   3.096 -1.1745  3.5946  1.5728
 1403TIP3   OH2 4172   1.350   3.248   2.875  0.4560 -0.1358  1.2107
 1403TIP3    H1 4173   1.321   3.275   2.962 -0.5549  0.8924  0.5885
 1403TIP3    H2 4174   1.411   3.317   2.849 -0.5918  0.5344  0.4256
 1404TIP3   OH2 4175   5.461   5.561   0.756  0.1629  0.2341  0.5277
 1404TIP3    H1 4176   5.554   5.569   0.777  0.2310 -0.3805  0.4780
 1404TIP3    H2 4177   5.451   5.606   0.673  0.1650  1.4438  1.1666
 1405TIP3   OH2 4178   2.023   6.252   3.870 -0.1458 -0.1596  0.4073
 1405TIP3    H1 4179   2.018   6.339   3.831  0.2635 -0.2852  0.0609
 1405TIP3    H2 4180   1.995   6.264   3.961 -3.0477 -0.2273 -0.3945
 1406TIP3   OH2 4181   0.222   6.409   1.320 -0.5502 -0.0795  0.2525
 1406TIP3    H1 4182   0.249   6.403   1.228 -3.3164  2.2110 -0.8581
 1406TIP3    H2 4183   0.164   6.334   1.333  0.5423 -0.9065  0.4296
 1407TIP3   OH2 4184   6.098   1.959   5.475 -0.5614 -0.1297  0.0916
 1407TIP3    H1 4185   6.043   2.037   5.470  0.0650  0.2914 -0.4956
 1407TIP3    H2 4186   6.038   1.886   5.468 -1.2331  0.2817  1.2989
 1408TIP3   OH2 4187   3.256   4.645   4.426  0.3700 -0.4839  0.3929
 1408TIP3    H1 4188   3.277   4.578   4.361  2.5043  0.8689 -0.4124
 1408TIP3    H2 4189   3.306   4.621   4.504 -1.5061 -1.6193  1.3129
 1409TIP3   OH2 4190   0.486   6.780   1.768 -0.1591 -0.2191 -0.2708
 1409TIP3    H1 4191   0.489   6.719   1.842 -0.8487  0.8355  0.6539
 1409TIP3    H2 4192   0.559   6.840   1.784 -1.8307  1.6049  1.0372
 1410TIP3   OH2 4193   0.292   3.836   5.309 -0.1024  0.0214 -0.3188
 1410TIP3    H1 4194   0.202   3.824   5.338  0.0835 -2.2628 -0.4742
 1410TIP3    H2 4195   0.335   3.880   5.382 -1.0929  0.1793  0.1837
 1411TIP3   OH2 4196   0.477   2.701   4.831 -0.4367  0.1750  0.0643
 1411TIP3    H1 4197   0.487   2.706   4.736 -0.7981 -2.2543 -0.1761
 1411TIP3    H2 4198   0.403   2.758   4.850 -0.4260  0.6183 -1.1427
 1412TIP3   OH2 4199   1.239   3.912   0.129 -0.8520 -0.5042 -0.2121
 1412TIP3    H1 4200   1.174   3.854   0.167 -1.5582 -0.5149 -1.3946
 1412TIP3    H2 4201   1.257   3.976   0.198 -2.0174 -0.5751  0.1808
 1413TIP3   OH2 4202   4.912   3.731   5.424  0.1118 -0.1347 -0.1650
 1413TIP3    H1 4203   4.991   3.685   5.451  0.4759  0.4196 -0.2546
 1413TIP3    H2 4204   4.878   3.679   5.351  1.7682  0.9001 -1.7844
 1414TIP3   OH2 4205   3.915   0.119   5.196  0.1866 -0.2742 -0.0257
 1414TIP3    H1 4206   3.913   0.075   5.281  2.4117  0.5394  0.5017
 1414TIP3    H2 4207   3.901   0.211   5.216 -0.0620 -0.1739 -0.6440
 1415TIP3   OH2 4208   1.405   3.899   4.995 -0.0900  0.7306  0.0985
 1415TIP3    H1 4209   1.440   3.828   4.941 -2.3962  1.2134 -2.2228
 1415TIP3    H2 4210   1.367   3.855   5.071  0.2229 -0.3290 -0.3450
 1416TIP3   OH2 4211   4.559   6.414   0.748 -0.4113 -0.4897  0.1163
 1416TIP3    H1 4212   4.641   6.461   0.765 -1.0004  1.3832 -1.7203
 1416TIP3    H2 4213   4.576   6.365   0.667 -1.6821  1.8058 -1.6928
 1417TIP3   OH2 4214   3.443   2.065   0.942 -0.2346  0.0413 -0.1469
 1417TIP3    H1 4215   3.384   1.991   0.934 -0.4825  0.3841 -1.9840
 1417TIP3    H2 4216   3.429   2.098   1.031 -1.2219 -1.1775  0.1709
 1418TIP3   OH2 4217   3.338   1.594   2.553  0.0672  0.2472 -0.0912
 1418TIP3    H1 4218   3.346   1.611   2.459 -0.8194 -0.4870 -0.3106
 1418TIP3    H2 4219   3.255   1.548   2.563  0.5975 -0.5497  0.9422
 1419TIP3   OH2 4220   3.350   1.817   3.749 -0.5516 -0.4603 -0.2911
 1419TIP3    H1 4221   3.413   1.781   3.810 -1.7543 -3.0083 -0.4078
 1419TIP3    H2 4222   3.390   1.805   3.663 -0.1465  0.3217 -0.2234
 1420TIP3   OH2 4223   3.529   0.589   4.280 -0.4169  0.1984  0.3632
 1420TIP3    H1 4224   3.585   0.544   4.217  0.9545  1.0695  0.8986
 1420TIP3    H2 4225   3.556   0.681   4.274 -0.6878  0.3979  1.7562
 1421TIP3   OH2 4226   6.622   5.918   5.107 -0.5332  0.3513 -0.7780
 1421TIP3    H1 4227   6.599   5.948   5.194 -0.3999  0.5720 -0.8176
 1421TIP3    H2 4228   6.576   5.834   5.097 -1.5793  0.9262 -0.9731
 1422TIP3   OH2 4229   6.682   3.978   0.642 -0.1982  0.0444 -0.6115
 1422TIP3    H1 4230   6.624   4.054   0.639 -2.1896 -1.3698 -0.0625
 1422TIP3    H2 4231   6.696   3.955   0.550 -0.2156  0.5930 -0.7562
 1423TIP3   OH2 4232   6.135   6.281   3.146 -0.3028  0.5228 -0.5390
 1423TIP3    H1 4233   6.158   6.362   3.191  0.3325  1.1553 -1.9509
 1423TIP3    H2 4234   6.211   6.224   3.160 -0.8432  0.0507  0.6459
 1424TIP3   OH2 4235   5.187   2.740   5.090 -1.0931  0.1633 -0.2463
 1424TIP3    H1 4236   5.126   2.801   5.133 -1.6274 -1.4959  1.4710
 1424TIP3    H2 4237   5.229   2.693   5.162  2.7996  1.6289 -1.2775
 1425TIP3   OH2 4238   2.488   0.938   3.630  0.0318  0.2742 -0.5709
 1425TIP3    H1 4239   2.483   0.992   3.709 -3.6115 -0.0698 -0.4073
 1425TIP3    H2 4240   2.530   0.857   3.659  2.3649  1.5902 -0.0077
 1426TIP3   OH2 4241   4.969   6.059   0.807 -0.0182 -0.1384  0.2264
 1426TIP3    H1 4242   5.033   5.995   0.839  0.9507 -0.1649 -1.6277
 1426TIP3    H2 4243   4.995   6.141   0.847  1.9257  0.0790 -1.3398
 1427TIP3   OH2 4244   5.629   1.177   0.852 -0.2094 -0.3120 -0.4155
 1427TIP3    H1 4245   5.595   1.186   0.941 -0.7965 -1.8572 -0.4549
 1427TIP3    H2 4246   5.724   1.172   0.863  0.0076  2.5950 -0.1828
 1428TIP3   OH2 4247   1.209   1.264   4.334  0.1684  0.0382 -0.0485
 1428TIP3    H1 4248   1.178   1.180   4.301  0.0132  0.7310 -1.7367
 1428TIP3    H2 4249   1.185   1.264   4.427 -0.0358 -1.6656 -0.0794
 1429TIP3   OH2 4250   6.812   3.884   4.988  0.3479 -0.2231 -0.1041
 1429TIP3    H1 4251   6.825   3.873   4.893 -1.3794 -0.8563 -0.3122
 1429TIP3    H2 4252   6.825   3.977   5.003 -2.9823  0.6720 -1.6941
 1430TIP3   OH2 4253   2.882   1.153   1.874 -0.6218 -0.0862 -0.0221
 1430TIP3    H1 4254   2.947   1.102   1.923  1.2934  2.3089  0.1477
 1430TIP3    H2 4255   2.859   1.225   1.932 -1.9770  0.1828 -0.8523
 1431TIP3   OH2 4256   5.454   1.399   0.913  0.3712  0.6484 -0.5568
 1431TIP3    H1 4257   5.439   1.445   0.995 -0.2728  0.3810 -0.5156
 1431TIP3    H2 4258   5.366   1.375   0.883  0.6072  0.6263 -1.2546
 1432TIP3   OH2 4259   5.792   6.352   4.585  0.4398 -0.4426 -0.2540
 1432TIP3    H1 4260   5.756   6.381   4.668  0.0512  0.8956 -0.8725
 1432TIP3    H2 4261   5.841   6.272   4.607 -0.5791 -0.7372  1.0489
 1433TIP3   OH2 4262   0.074   3.595   1.463  0.2806  0.4315 -0.0757
 1433TIP3    H1 4263   0.128   3.551   1.398  0.1716 -0.1168  0.1996
 1433TIP3    H2 4264  -0.013   3.599   1.422  0.7948  2.5652 -1.1089
 1434TIP3   OH2 4265   4.826   0.842   0.547  0.0221 -0.0835 -0.3067
 1434TIP3    H1 4266   4.839   0.846   0.452 -3.3264 -0.1931 -0.8975
 1434TIP3    H2 4267   4.833   0.933   0.576 -0.8215  0.2202 -1.0103
 1435TIP3   OH2 4268   4.614   6.498   5.357 -0.2890  0.0582 -0.7621
 1435TIP3    H1 4269   4.566   6.419   5.383  0.1044  0.5900  1.9080
 1435TIP3    H2 4270   4.693   6.497   5.411  0.9487  1.0506 -2.4642
 1436TIP3   OH2 4271   1.703   5.171   4.756  0.4371  0.0444 -0.4255
 1436TIP3    H1 4272   1.625   5.213   4.721  0.8088  1.6285  0.5222
 1436TIP3    H2 4273   1.725   5.102   4.693 -1.7573 -0.5097 -0.6566
 1437TIP3   OH2 4274   0.796   4.599   0.812 -0.7240 -0.5206 -0.0553
 1437TIP3    H1 4275   0.853   4.568   0.882  1.5034 -0.0692 -1.5778
 1437TIP3    H2 4276   0.822   4.548   0.735 -0.8325  1.2142 -1.3051
 1438TIP3   OH2 4277   3.956   4.631   2.404  0.1608  0.0368  0.2141
 1438TIP3    H1 4278   4.047   4.652   2.386  0.4647  1.0033  2.5901
 1438TIP3    H2 4279   3.950   4.627   2.499 -1.8170 -2.2192  0.0964
 1439TIP3   OH2 4280   6.608   5.182   2.455  0.0294 -0.0026  0.4638
 1439TIP3    H1 4281   6.621   5.276   2.441 -1.8559  0.3686  0.8309
 1439TIP3    H2 4282   6.513   5.170   2.447 -0.1602 -1.3289  3.3697
 1440TIP3   OH2 4283   5.008   6.108   2.670  0.4684  0.6775 -0.5401
 1440TIP3    H1 4284   5.060   6.157   2.733  0.4165  0.1297 -0.0643
 1440TIP3    H2 4285   4.924   6.153   2.666  0.1733  0.2385  0.4156
 1441TIP3   OH2 4286   4.444   1.380   2.352  0.1980  0.3990  0.0405
 1441TIP3    H1 4287   4.424   1.292   2.320  0.2260  0.7245 -0.9195
 1441TIP3    H2 4288   4.372   1.402   2.411 -1.0367  0.5998 -1.4740
 1442TIP3   OH2 4289   6.708   2.063   1.489  0.4357 -0.4691  0.1698
 1442TIP3    H1 4290   6.720   2.140   1.433 -1.5491  1.2803  1.9823
 1442TIP3    H2 4291   6.789   2.013   1.478  0.9406  0.7777 -2.6585
 1443TIP3   OH2 4292   6.576   2.569   1.533  0.1088 -0.1190 -0.4284
 1443TIP3    H1 4293   6.580   2.653   1.580 -0.8556 -0.1999 -0.1642
 1443TIP3    H2 4294   6.518   2.587   1.458 -0.2191 -0.5819 -0.2895
 1444TIP3   OH2 4295   5.525   6.054   5.414  0.3051 -0.2185  0.6162
 1444TIP3    H1 4296   5.546   6.006   5.494  2.1266 -1.1868 -0.3985
 1444TIP3    H2 4297   5.475   6.130   5.445  2.2931  0.3130  2.8629
 1445TIP3   OH2 4298   4.769   5.635   2.165  0.2384  0.2149  0.1048
 1445TIP3    H1 4299   4.750   5.617   2.257  0.8865 -0.1007  0.1811
 1445TIP3    H2 4300   4.693   5.685   2.134  0.7442  1.7876  1.2500
 1446TIP3   OH2 4301   3.409   6.094   1.228  0.3392  0.1931 -0.2381
 1446TIP3    H1 4302   3.463   6.033   1.178 -0.6754 -0.9527  0.0134
 1446TIP3    H2 4303   3.378   6.043   1.303 -1.6077  0.5812 -0.7176
 1447TIP3   OH2 4304   3.309   3.256   1.097  0.0411  0.2851 -0.8620
 1447TIP3    H1 4305   3.300   3.161   1.092  1.9819  0.0633 -0.9244
 1447TIP3    H2 4306   3.225   3.290   1.065 -1.2756 -1.3867  0.6086
 1448TIP3   OH2 4307   6.397   3.041   3.892  0.2432  0.1917  0.2313
 1448TIP3    H1 4308   6.458   3.005   3.827 -0.9063 -1.3287 -0.0673
 1448TIP3    H2 4309   6.451   3.098   3.947  1.4660  0.6772 -1.3774
 1449TIP3   OH2 4310   2.705   4.410   2.807 -0.1697  0.0257  0.0341
 1449TIP3    H1 4311   2.701   4.457   2.724  0.5310  1.6111  0.8530
 1449TIP3    H2 4312   2.615   4.380   2.821 -0.5267  0.6663 -0.7885
 1450TIP3   OH2 4313   1.650   6.455   3.088 -0.0549 -0.4126  0.4048
 1450TIP3    H1 4314   1.717   6.519   3.064  0.4722 -1.0446  0.1500
 1450TIP3    H2 4315   1.589   6.504   3.144 -0.4225  0.6636 -0.8844
 1451TIP3   OH2 4316   4.312   4.105   5.728  0.2570  0.1418  0.3877
 1451TIP3    H1 4317   4.256   4.034   5.761 -0.9984  1.0949  0.3887
 1451TIP3    H2 4318   4.288   4.113   5.636 -0.3227  1.1954  0.6154
 1452TIP3   OH2 4319   5.266   4.341   4.325  0.4080 -0.0002 -0.2024
 1452TIP3    H1 4320   5.192   4.294   4.284  0.9502 -0.8626 -0.2243
 1452TIP3    H2 4321   5.236   4.359   4.414  0.1222 -0.2248 -0.2495
 1453TIP3   OH2 4322   3.228   5.514   2.882  0.1608 -0.3576  0.3874
 1453TIP3    H1 4323   3.221   5.445   2.815  0.1664 -0.5065  0.5391
 1453TIP3    H2 4324   3.303   5.488   2.935  1.2238  0.6632 -0.5819
 1454TIP3   OH2 4325   5.995   0.274   0.477 -0.2077 -0.1237 -0.1767
 1454TIP3    H1 4326   6.033   0.356   0.447 -0.5146 -0.0255 -0.3002
 1454TIP3    H2 4327   5.946   0.241   0.402 -0.9794  0.1249  0.2046
 1455TIP3   OH2 4328   2.558   5.375   4.445 -0.0052 -0.2474 -0.0766
 1455TIP3    H1 4329   2.477   5.425   4.455  0.6696  0.6481  1.1875
 1455TIP3    H2 4330   2.533   5.285   4.469 -0.4244  0.2212  1.3353
 1456TIP3   OH2 4331   4.246   5.378   0.166 -0.5741  0.0889  0.0676
 1456TIP3    H1 4332   4.157   5.366   0.134 -0.1161 -0.4696 -1.0785
 1456TIP3    H2 4333   4.290   5.430   0.098  0.1630 -0.2761  0.2445
 1457TIP3   OH2 4334   1.099   1.388   3.697  0.0275  0.2544  0.5233
 1457TIP3    H1 4335   1.041   1.333   3.750 -0.0866  0.4222  0.5743
 1457TIP3    H2 4336   1.143   1.445   3.761 -0.9535  1.2403  0.3385
 1458TIP3   OH2 4337   4.006   2.534   3.226 -0.2723 -0.2545 -0.1507
 1458TIP3    H1 4338   4.040   2.503   3.311 -0.4560  1.6716  0.6733
 1458TIP3    H2 4339   3.943   2.603   3.249 -0.4472  0.1896 -1.8535
 1459TIP3   OH2 4340   2.236   4.904   4.072 -0.1598  0.1064  0.6959
 1459TIP3    H1 4341   2.214   4.975   4.133  0.2683  0.1591  0.7914
 1459TIP3    H2 4342   2.317   4.933   4.030  1.6673 -1.6036  2.8488
 1460TIP3   OH2 4343   1.313   5.727   4.433 -0.1433  0.1154  0.0965
 1460TIP3    H1 4344   1.316   5.822   4.420  0.5984  0.0625 -0.1911
 1460TIP3    H2 4345   1.237   5.713   4.490 -0.5084  0.8378 -0.1898
 1461TIP3   OH2 4346   4.730   2.166   4.835 -0.1809 -0.0283 -0.4250
 1461TIP3    H1 4347   4.751   2.079   4.801 -0.6120 -0.2240 -0.1942
 1461TIP3    H2 4348   4.667   2.202   4.772  0.2463  0.2488 -0.6979
 1462TIP3   OH2 4349   5.395   2.372   3.698 -0.0456  0.2353 -0.0380
 1462TIP3    H1 4350   5.325   2.313   3.671 -0.0688 -0.2080  0.9466
 1462TIP3    H2 4351   5.416   2.422   3.619 -1.4876  0.4011 -0.3546
 1463TIP3   OH2 4352   2.090   5.949   3.607  0.0313 -0.7318  1.0646
 1463TIP3    H1 4353   2.123   6.021   3.553 -0.6738 -0.5090  0.9133
 1463TIP3    H2 4354   2.145   5.874   3.584 -0.6878 -0.8236 -0.5051
 1464TIP3   OH2 4355   6.805   4.020   5.615  0.0900  0.4531  0.1767
 1464TIP3    H1 4356   6.810   3.937   5.662 -0.4805  0.9577  1.1729
 1464TIP3    H2 4357   6.858   4.080   5.667  2.7629  0.1235 -1.9717
 1465TIP3   OH2 4358   0.692   3.027   2.755  0.1734  0.2946 -0.1685
 1465TIP3    H1 4359   0.661   3.013   2.665 -0.9198 -1.3844  0.4333
 1465TIP3    H2 4360   0.645   3.105   2.785 -0.9557 -0.2698 -0.4145
 1466TIP3   OH2 4361   3.382   0.334   5.864  0.3670  0.1126  0.4039
 1466TIP3    H1 4362   3.301   0.382   5.881  0.5935  0.3002  0.9639
 1466TIP3    H2 4363   3.361   0.244   5.888  0.3605  0.1845  0.6743
 1467TIP3   OH2 4364   5.139   4.004   1.055  0.5481 -0.0226 -0.1587
 1467TIP3    H1 4365   5.221   4.048   1.033  0.5045 -0.0063 -0.2908
 1467TIP3    H2 4366   5.166   3.923   1.098  0.6453 -0.2609 -0.6573
 1468TIP3   OH2 4367   2.083   0.368   2.147  0.1726 -0.3288  0.0144
 1468TIP3    H1 4368   2.134   0.294   2.181 -0.3336 -0.6582  0.0636
 1468TIP3    H2 4369   2.033   0.399   2.222 -0.5512 -0.7255 -0.2965
 1469TIP3   OH2 4370   5.535   4.513   4.095  0.1964  0.1093 -0.2770
 1469TIP3    H1 4371   5.530   4.457   4.173  2.1845  0.9609  0.5215
 1469TIP3    H2 4372   5.462   4.574   4.104  0.5556  0.3577  1.0640
 1470TIP3   OH2 4373   6.983   0.925   5.570 -0.3026  0.0467 -0.2033
 1470TIP3    H1 4374   7.055   0.982   5.597 -0.3385  0.0488 -0.1086
 1470TIP3    H2 4375   7.024   0.840   5.552 -0.4395 -0.3245  1.1135
 1471TIP3   OH2 4376   2.887   1.411   0.824 -0.1697 -0.0622 -0.5697
 1471TIP3    H1 4377   2.842   1.471   0.763  0.3394  2.2122  1.1482
 1471TIP3    H2 4378   2.977   1.444   0.826  0.0693 -0.7548  0.6064
 1472TIP3   OH2 4379   0.813   6.309   0.681 -0.0927 -0.1755  0.0036
 1472TIP3    H1 4380   0.813   6.246   0.609 -0.7552  0.3133 -0.4387
 1472TIP3    H2 4381   0.852   6.388   0.644  0.2596 -0.1569  0.4050
 1473TIP3   OH2 4382   5.562   1.130   3.240  0.1649  0.1865 -1.0218
 1473TIP3    H1 4383   5.471   1.100   3.230 -0.2173  1.2596 -0.8731
 1473TIP3    H2 4384   5.555   1.207   3.297  1.3996 -0.9966  0.8444
 1474TIP3   OH2 4385   3.898   1.589   1.289  0.5813 -0.1517  0.0049
 1474TIP3    H1 4386   3.866   1.519   1.232 -2.4913 -0.7114  2.1299
 1474TIP3    H2 4387   3.882   1.669   1.239 -2.0430 -0.6221 -0.0814
 1475TIP3   OH2 4388   2.264   6.499   5.381 -0.0350  0.0946  0.0527
 1475TIP3    H1 4389   2.328   6.429   5.373  0.5265  0.7233 -1.4230
 1475TIP3    H2 4390   2.281   6.539   5.466  0.7399 -0.5023  0.1804
 1476TIP3   OH2 4391   2.260   5.602   5.804 -0.2613 -0.0797 -0.2755
 1476TIP3    H1 4392   2.294   5.609   5.894 -0.0133 -1.0358 -0.2839
 1476TIP3    H2 4393   2.337   5.608   5.748 -0.4285  0.6351 -0.4415
 1477TIP3   OH2 4394   6.915   5.681   2.070  0.0964  0.0974  0.0366
 1477TIP3    H1 4395   6.853   5.616   2.037  0.8217 -0.6870  0.2108
 1477TIP3    H2 4396   6.985   5.683   2.005  1.1656 -0.9160  1.1337
 1478TIP3   OH2 4397   0.440   3.410   1.528 -0.4874 -0.1935  0.4423
 1478TIP3    H1 4398   0.418   3.480   1.589 -0.1146 -0.2609  0.6553
 1478TIP3    H2 4399   0.536   3.408   1.527 -0.4948 -0.5338  0.2463
 1479TIP3   OH2 4400   5.148   6.003   5.130  0.6693 -0.1832  0.1229
 1479TIP3    H1 4401   5.064   6.049   5.133  0.7247 -0.0298 -0.5829
 1479TIP3    H2 4402   5.212   6.072   5.115  0.8869 -0.3520  0.2737
 1480TIP3   OH2 4403   5.396   3.114   0.263 -0.2360  0.2201  0.2621
 1480TIP3    H1 4404   5.382   3.026   0.297  1.1265 -0.1955 -0.1473
 1480TIP3    H2 4405   5.470   3.148   0.315 -1.2122  1.4226  0.9186
 1481TIP3   OH2 4406   0.724   0.201   1.410  0.3810 -0.1591  0.3375
 1481TIP3    H1 4407   0.788   0.266   1.438  0.1446  0.0612  0.3815
 1481TIP3    H2 4408   0.696   0.157   1.491  0.0577  0.1409  0.3936
 1482TIP3   OH2 4409   6.103   0.750   5.350  0.6202  0.2988  0.3934
 1482TIP3    H1 4410   6.135   0.802   5.276  0.1688 -0.9113 -0.6978
 1482TIP3    H2 4411   6.014   0.784   5.365  0.0294 -0.6175 -0.8260
 1483TIP3   OH2 4412   2.631   3.555   2.405 -0.2501 -0.2253 -0.1034
 1483TIP3    H1 4413   2.638   3.634   2.352  0.5223 -1.9273 -2.7013
 1483TIP3    H2 4414   2.574   3.580   2.478  0.7894  2.9802 -0.2398
 1484TIP3   OH2 4415   1.558   6.553   0.930  0.0796 -0.5809 -0.0643
 1484TIP3    H1 4416   1.597   6.640   0.936 -0.3686 -0.3802  0.0168
 1484TIP3    H2 4417   1.619   6.503   0.875 -0.0370  0.0012 -0.7424
 1485TIP3   OH2 4418   6.399   1.994   0.024  0.2702 -0.2031  0.1374
 1485TIP3    H1 4419   6.461   2.016  -0.045  0.3963  0.9077  0.5855
 1485TIP3    H2 4420   6.431   1.911   0.059 -1.1343 -2.1093 -2.6831
 1486TIP3   OH2 4421   5.479   2.768   5.576  0.7355  0.2171 -0.3207
 1486TIP3    H1 4422   5.552   2.725   5.532  0.8147  0.2873 -0.2575
 1486TIP3    H2 4423   5.417   2.698   5.594  0.9923  0.0748  0.0408
 1487TIP3   OH2 4424   4.841   0.068   3.294 -0.1710 -0.0518 -0.1309
 1487TIP3    H1 4425   4.777   0.103   3.356  0.9059  0.3243  0.7923
 1487TIP3    H2 4426   4.789   0.046   3.216 -1.2211  1.5952  0.0501
 1488TIP3   OH2 4427   5.405   5.753   4.802 -0.2266  0.2028  0.2389
 1488TIP3    H1 4428   5.413   5.686   4.734  0.5778 -0.8422  1.3271
 1488TIP3    H2 4429   5.468   5.820   4.778  1.1174 -0.8569  0.7136
 1489TIP3   OH2 4430   0.434   0.109   1.363 -0.3147 -0.1862 -0.1410
 1489TIP3    H1 4431   0.524   0.139   1.354  0.0034 -1.0445  0.1012
 1489TIP3    H2 4432   0.413   0.122   1.455 -0.6400  0.5375 -0.3082
 1490TIP3   OH2 4433   3.611   1.257   3.321 -0.0842  0.4180 -0.2907
 1490TIP3    H1 4434   3.599   1.343   3.363  0.1292  0.1589  0.3115
 1490TIP3    H2 4435   3.559   1.197   3.375  1.2452 -0.1473  0.3959
 1491TIP3   OH2 4436   6.501   1.495   0.297  0.7805 -0.7522  0.4099
 1491TIP3    H1 4437   6.443   1.420   0.308  0.7458 -0.8507 -0.3898
 1491TIP3    H2 4438   6.587   1.456   0.278  0.7791 -0.5966  0.0704
 1492TIP3   OH2 4439   3.644   0.620   3.316  1.2263 -0.1118 -0.4531
 1492TIP3    H1 4440   3.649   0.714   3.297  1.6351 -0.1339 -0.4427
 1492TIP3    H2 4441   3.670   0.612   3.408  0.6379 -0.1736 -0.2842
 1493TIP3   OH2 4442   2.087   5.567   2.993 -0.1047 -0.2890 -0.5922
 1493TIP3    H1 4443   2.045   5.653   2.993  0.8018  0.1546 -0.6212
 1493TIP3    H2 4444   2.140   5.566   2.913  0.2814 -0.6826 -0.3340
 1494TIP3   OH2 4445   4.336   3.876   0.070 -0.5460 -0.3401  0.7497
 1494TIP3    H1 4446   4.357   3.798   0.120  0.3892  0.6091  1.8758
 1494TIP3    H2 4447   4.247   3.900   0.098 -0.8906 -1.0600  0.2945
 1495TIP3   OH2 4448   1.023   0.391   2.367  0.0579 -0.0157 -0.1075
 1495TIP3    H1 4449   1.040   0.425   2.279  0.5072 -1.1139 -0.4672
 1495TIP3    H2 4450   1.099   0.418   2.419  0.6357 -0.8225 -0.5055
 1496TIP3   OH2 4451   4.849   2.714   5.249 -0.3627 -0.3888  0.5468
 1496TIP3    H1 4452   4.904   2.787   5.219  0.0396 -0.0720  1.9674
 1496TIP3    H2 4453   4.894   2.681   5.328 -1.7454 -0.6999  1.2356
 1497TIP3   OH2 4454   3.696   2.043   3.481 -0.6156 -0.2885  0.1707
 1497TIP3    H1 4455   3.708   1.994   3.399 -0.1586  0.7369 -0.3891
 1497TIP3    H2 4456   3.780   2.086   3.496 -0.4473 -1.0206  1.5776
 1498TIP3   OH2 4457   4.518   0.953   0.191  0.0286 -0.4860  0.3003
 1498TIP3    H1 4458   4.435   0.976   0.149 -0.1537 -1.7953 -0.1040
 1498TIP3    H2 4459   4.500   0.961   0.285 -0.5999 -0.8599  0.2235
 1499TIP3   OH2 4460   1.046   4.802   2.664  0.2132  0.6651 -0.0208
 1499TIP3    H1 4461   1.085   4.716   2.648 -0.6946  0.1031  0.7012
 1499TIP3    H2 4462   0.998   4.823   2.584 -0.0260  0.2490  0.0156
 1500TIP3   OH2 4463   1.562   3.076   1.574  0.3096 -0.2127 -0.2729
 1500TIP3    H1 4464   1.545   3.127   1.653  2.3350  0.8928 -0.4557
 1500TIP3    H2 4465   1.525   2.990   1.592 -0.7038  0.4851  1.2099
 1501TIP3   OH2 4466   2.117   0.669   1.825 -0.1884  0.2055 -0.7946
 1501TIP3    H1 4467   2.056   0.710   1.886  0.8321 -0.4063  0.6769
 1501TIP3    H2 4468   2.204   0.696   1.856  0.4025 -1.1797 -1.1865
 1502TIP3   OH2 4469   1.178   2.103   4.914 -0.4706  0.5987  0.5135
 1502TIP3    H1 4470   1.203   2.134   5.001  0.7290 -3.0134  1.6400
 1502TIP3    H2 4471   1.260   2.087   4.869 -1.0257 -0.1537 -0.2678
 1503TIP3   OH2 4472   1.363   4.501   1.418  0.4154  0.1291 -0.6806
 1503TIP3    H1 4473   1.267   4.493   1.414  0.0484  1.2589  2.5690
 1503TIP3    H2 4474   1.380   4.594   1.404  1.0228 -0.0374 -1.0620
 1504TIP3   OH2 4475   4.738   0.374   2.584  0.3268 -0.2525  0.4854
 1504TIP3    H1 4476   4.807   0.439   2.572  1.0067 -0.8431  1.1124
 1504TIP3    H2 4477   4.775   0.293   2.550  0.4589 -0.8650  1.9951
 1505TIP3   OH2 4478   5.769   2.797   5.168 -0.4814  0.7717  0.5108
 1505TIP3    H1 4479   5.823   2.863   5.210  1.6373 -0.0397 -0.7302
 1505TIP3    H2 4480   5.794   2.715   5.210  0.3058  0.2050 -0.9752
 1506TIP3   OH2 4481   1.143   2.952   0.390 -0.4997 -0.1119 -0.1772
 1506TIP3    H1 4482   1.085   2.883   0.358 -0.7289  0.4273 -0.9471
 1506TIP3    H2 4483   1.084   3.025   0.411 -0.3312 -0.3523  1.2514
 1507TIP3   OH2 4484   2.999   3.758   1.677 -0.2936 -0.6654 -0.3162
 1507TIP3    H1 4485   2.962   3.701   1.745 -0.5221 -0.1056  0.0357
 1507TIP3    H2 4486   2.924   3.804   1.640 -0.0401 -0.0744 -0.1112
 1508TIP3   OH2 4487   3.184   2.128   5.793 -0.1359 -0.3541  0.4264
 1508TIP3    H1 4488   3.198   2.066   5.864  1.9415 -0.3969  0.0331
 1508TIP3    H2 4489   3.131   2.198   5.833  2.1877  0.3851  2.5285
 1509TIP3   OH2 4490   5.069   1.063   3.501  0.1472 -0.6851 -0.0747
 1509TIP3    H1 4491   5.093   0.978   3.463 -1.3379  0.4323 -4.0205
 1509TIP3    H2 4492   4.973   1.062   3.501  0.1173  0.5767  0.9062
 1510TIP3   OH2 4493   6.100   3.243   5.255  0.3808  1.0084  0.6265
 1510TIP3    H1 4494   6.044   3.284   5.189 -0.4609 -0.7139  0.2323
 1510TIP3    H2 4495   6.139   3.168   5.210  0.5761  0.3929  1.7931
 1511TIP3   OH2 4496   1.826   5.448   4.729  0.2289  0.4246  0.0442
 1511TIP3    H1 4497   1.820   5.356   4.700 -2.5184  0.6035 -0.2515
 1511TIP3    H2 4498   1.736   5.481   4.721  1.3130  3.4661 -0.8705
 1512TIP3   OH2 4499   1.620   6.645   5.416  0.2180 -0.5666  0.3144
 1512TIP3    H1 4500   1.693   6.707   5.413  0.6202 -1.0445  0.0467
 1512TIP3    H2 4501   1.546   6.697   5.446 -0.1827  0.7937 -2.6757
 1513TIP3   OH2 4502   4.772   6.205   3.116  0.0202 -0.1305  0.0243
 1513TIP3    H1 4503   4.864   6.179   3.113 -0.2049 -0.9547 -0.0912
 1513TIP3    H2 4504   4.764   6.256   3.197  0.4334 -0.6571  0.4027
 1514TIP3   OH2 4505   6.079   2.374   4.331  0.2236 -0.6694 -0.3879
 1514TIP3    H1 4506   6.131   2.367   4.250 -1.1992  1.0766 -1.5281
 1514TIP3    H2 4507   6.050   2.465   4.333 -0.6530 -0.9370  1.5818
 1515TIP3   OH2 4508   0.630   5.799   0.540  0.3846  0.0316 -0.0865
 1515TIP3    H1 4509   0.683   5.810   0.461  1.3667 -0.0628  0.5485
 1515TIP3    H2 4510   0.556   5.859   0.527 -0.2165 -0.9789 -1.6819
 1516TIP3   OH2 4511   4.752   6.600   3.117  0.2173 -0.0951  0.1391
 1516TIP3    H1 4512   4.721   6.602   3.026 -0.7143 -0.4725  0.4334
 1516TIP3    H2 4513   4.688   6.652   3.165 -0.2136 -1.2386  0.8379
 1517TIP3   OH2 4514   1.499   0.017   4.238  0.2633 -0.7069 -0.4150
 1517TIP3    H1 4515   1.494  -0.056   4.177  3.3139 -0.9380 -0.5236
 1517TIP3    H2 4516   1.570   0.072   4.205 -2.7516  3.1704 -1.1018
 1518TIP3   OH2 4517   1.509   1.518   4.929  0.1450 -0.2837 -0.0004
 1518TIP3    H1 4518   1.571   1.548   4.862 -0.3204  0.3961 -0.1419
 1518TIP3    H2 4519   1.558   1.523   5.011  0.0799  0.9225 -0.0171
 1519TIP3   OH2 4520   0.248   2.716   0.049  0.4477  0.6287  0.2570
 1519TIP3    H1 4521   0.261   2.783  -0.018 -0.5725  2.0168  1.3729
 1519TIP3    H2 4522   0.286   2.637   0.012  0.6121  1.5341 -1.6222
 1520TIP3   OH2 4523   5.911   1.536   1.113  0.1316  0.1488 -0.2038
 1520TIP3    H1 4524   5.887   1.477   1.184 -1.6062  2.7890  1.5893
 1520TIP3    H2 4525   5.841   1.528   1.048  0.3210 -0.3113 -0.3538
 1521TIP3   OH2 4526   1.214   6.430   3.981 -0.0454 -0.0120  0.0916
 1521TIP3    H1 4527   1.308   6.426   4.000 -0.1596  0.0449  0.6799
 1521TIP3    H2 4528   1.173   6.382   4.052 -0.5671  1.2464  0.6659
 1522TIP3   OH2 4529   6.642   3.183   2.661  0.0327 -0.0144 -0.0977
 1522TIP3    H1 4530   6.691   3.170   2.742 -0.1576 -0.3160 -0.0299
 1522TIP3    H2 4531   6.550   3.175   2.686  0.0025 -2.5830 -0.7406
 1523TIP3   OH2 4532   6.460   0.958   0.804 -0.6834  0.0675 -0.2643
 1523TIP3    H1 4533   6.497   0.935   0.889  1.0056 -0.8147 -1.1780
 1523TIP3    H2 4534   6.439   0.874   0.764 -2.7892  0.5071 -0.2275
 1524TIP3   OH2 4535   1.181   6.114   4.708  0.0796 -0.2338 -0.3874
 1524TIP3    H1 4536   1.273   6.130   4.732  0.3889 -1.0897 -0.9424
 1524TIP3    H2 4537   1.137   6.104   4.793  0.5514 -0.0906 -0.1156
 1525TIP3   OH2 4538   5.373   2.180   4.302  0.5116 -0.8241  0.1354
 1525TIP3    H1 4539   5.368   2.274   4.315 -0.5536 -0.9596  0.8269
 1525TIP3    H2 4540   5.465   2.158   4.318  1.0272  0.2332 -1.1634
 1526TIP3   OH2 4541   2.882   3.516   5.278 -0.1046 -0.4429 -0.9899
 1526TIP3    H1 4542   2.900   3.447   5.213 -0.9177  0.5141 -2.2581
 1526TIP3    H2 4543   2.955   3.577   5.268 -0.5485  0.0154 -1.4304
 1527TIP3   OH2 4544   1.418   2.517   2.342 -0.1606 -0.4659  0.2145
 1527TIP3    H1 4545   1.495   2.567   2.369 -0.8167 -0.7378  2.8248
 1527TIP3    H2 4546   1.344   2.570   2.372 -0.9176 -1.6332  0.4327
 1528TIP3   OH2 4547   2.235   6.541   3.460  0.0591 -0.0005  0.1238
 1528TIP3    H1 4548   2.183   6.605   3.509 -0.7570 -1.7722  1.6901
 1528TIP3    H2 4549   2.283   6.493   3.528  1.4093 -0.4207 -1.0817
 1529TIP3   OH2 4550   0.651   1.288   2.250 -0.2375 -0.1595 -0.2037
 1529TIP3    H1 4551   0.674   1.369   2.295 -0.4456 -1.5287  2.5283
 1529TIP3    H2 4552   0.735   1.245   2.233 -0.0846  0.7867 -2.1520
 1530TIP3   OH2 4553   3.958   2.493   1.136  0.5694 -0.5542 -0.3679
 1530TIP3    H1 4554   4.022   2.470   1.204 -0.6250  0.1805  1.0769
 1530TIP3    H2 4555   3.914   2.571   1.170 -0.0760 -0.1573 -2.0174
 1531TIP3   OH2 4556   1.679   3.914   2.754  0.4522  0.1666  0.2809
 1531TIP3    H1 4557   1.714   3.908   2.665 -0.5087  0.3427 -0.1268
 1531TIP3    H2 4558   1.640   3.828   2.770  0.0786  0.3312  0.2805
 1532TIP3   OH2 4559   0.617   1.263   2.961 -0.7357 -0.4417  0.5744
 1532TIP3    H1 4560   0.585   1.176   2.938 -1.6524  0.1627 -0.5394
 1532TIP3    H2 4561   0.540   1.319   2.959 -0.0632  0.5236  0.6599
 1533TIP3   OH2 4562   0.293   4.121   0.655  0.1566 -0.2418  0.1516
 1533TIP3    H1 4563   0.210   4.107   0.610  1.2148  0.1967 -2.0689
 1533TIP3    H2 4564   0.299   4.049   0.718 -2.3598  0.3252  1.1280
 1534TIP3   OH2 4565   4.423   6.503   2.323  0.1019 -0.2834 -0.1167
 1534TIP3    H1 4566   4.373   6.577   2.359 -1.3583 -0.7820 -1.0245
 1534TIP3    H2 4567   4.437   6.525   2.231 -2.5765 -2.1433 -1.1058
 1535TIP3   OH2 4568   6.425   4.814   2.155 -0.5731 -0.0509 -0.3292
 1535TIP3    H1 4569   6.397   4.722   2.153 -0.2848 -0.2787  2.1329
 1535TIP3    H2 4570   6.519   4.810   2.138 -0.3582 -0.3792  0.8082
 1536TIP3   OH2 4571   7.115   1.801   5.191  0.3608  0.6918 -0.1733
 1536TIP3    H1 4572   7.050   1.836   5.252  0.8458  0.3379  0.5533
 1536TIP3    H2 4573   7.199   1.824   5.229  0.8414 -3.3334  1.7189
 1537TIP3   OH2 4574   1.558   3.196   0.070  0.2888  0.3011 -0.7221
 1537TIP3    H1 4575   1.641   3.209   0.116  0.9278 -3.4903 -0.4896
 1537TIP3    H2 4576   1.583   3.183  -0.022 -0.4419  2.1995 -1.2458
 1538TIP3   OH2 4577   2.078   1.896   5.659  0.4991 -0.1536  0.1573
 1538TIP3    H1 4578   2.107   1.897   5.567 -1.0134 -0.9882 -0.3765
 1538TIP3    H2 4579   2.159   1.901   5.710  1.3283  1.3832 -1.1985
 1539TIP3   OH2 4580   4.293   2.555   5.529 -0.0242  0.4547 -0.0871
 1539TIP3    H1 4581   4.203   2.533   5.503  0.0703 -0.2145  0.1147
 1539TIP3    H2 4582   4.300   2.649   5.515 -0.1344  0.2178 -2.0377
 1540TIP3   OH2 4583   6.187   2.344   5.658 -0.4264 -0.2307  0.4625
 1540TIP3    H1 4584   6.250   2.355   5.587 -0.8661 -1.0789 -0.0674
 1540TIP3    H2 4585   6.168   2.250   5.659 -1.4251 -0.0345  0.8326
 1541TIP3   OH2 4586   1.672   2.384   2.181 -0.2270 -0.2768 -0.4135
 1541TIP3    H1 4587   1.716   2.302   2.160 -0.5792 -0.6365  0.2235
 1541TIP3    H2 4588   1.580   2.367   2.160 -0.0604  0.5557 -2.0067
 1542TIP3   OH2 4589   4.562   1.802   5.879 -0.4097 -0.2054  0.3709
 1542TIP3    H1 4590   4.534   1.892   5.870  0.8431  0.3164  1.3399
 1542TIP3    H2 4591   4.513   1.754   5.813 -0.9558  1.2134 -0.2778
 1543TIP3   OH2 4592   1.358   1.369   2.499  0.3850 -0.3349 -0.0894
 1543TIP3    H1 4593   1.418   1.337   2.566  1.6481 -0.5793 -1.2920
 1543TIP3    H2 4594   1.365   1.465   2.505 -0.3076 -0.3387  0.8181
 1544TIP3   OH2 4595   5.444   5.642   5.459  0.2619 -0.1629  0.4305
 1544TIP3    H1 4596   5.531   5.671   5.430  0.6172  0.4299  1.9950
 1544TIP3    H2 4597   5.455   5.549   5.477  0.5266 -0.1318  0.4359
 1545TIP3   OH2 4598   4.592   2.792   2.253  0.1405 -0.1691  0.1280
 1545TIP3    H1 4599   4.579   2.872   2.202  0.9606  1.1630  1.9251
 1545TIP3    H2 4600   4.540   2.805   2.332  1.9004 -0.4782  1.3916
 1546TIP3   OH2 4601   3.811   5.911   2.231 -0.2420 -0.2386 -0.7046
 1546TIP3    H1 4602   3.811   5.950   2.318 -0.5796 -1.4346 -0.1424
 1546TIP3    H2 4603   3.860   5.830   2.241 -2.6597 -1.8415 -0.9133
 1547TIP3   OH2 4604   0.614   3.903   4.755 -0.4415 -0.1518  0.3053
 1547TIP3    H1 4605   0.668   3.849   4.813 -0.2808  1.1005  1.3788
 1547TIP3    H2 4606   0.626   3.865   4.668 -0.8831 -2.2537  1.1053
 1548TIP3   OH2 4607   0.519   3.214   5.267 -0.1334  0.0327 -0.1871
 1548TIP3    H1 4608   0.574   3.154   5.317  1.9341  1.4229 -0.6764
 1548TIP3    H2 4609   0.429   3.192   5.293  0.7188 -1.1866  1.9277
 1549TIP3   OH2 4610   6.166   2.500   3.608  0.4225  0.0148  0.1165
 1549TIP3    H1 4611   6.166   2.591   3.577 -0.2169 -0.4497 -1.2860
 1549TIP3    H2 4612   6.243   2.495   3.666 -0.1483  1.7286  1.1153
 1550TIP3   OH2 4613   6.980   4.316   0.026 -0.0477 -0.0969 -0.2678
 1550TIP3    H1 4614   6.969   4.401   0.069 -0.4492 -1.0809  1.6905
 1550TIP3    H2 4615   7.073   4.296   0.036 -0.1496 -0.3458  0.1797
 1551TIP3   OH2 4616   6.523   0.471   2.457  0.8487  0.2472 -0.2960
 1551TIP3    H1 4617   6.429   0.488   2.453  0.6686 -0.4483  0.5909
 1551TIP3    H2 4618   6.557   0.508   2.376 -0.3641 -0.5236 -1.2026
 1552TIP3   OH2 4619   2.842   6.214   4.038  0.2509 -0.3253  0.1157
 1552TIP3    H1 4620   2.887   6.176   3.963  2.2654 -1.3745  1.7583
 1552TIP3    H2 4621   2.908   6.268   4.082  0.7199 -3.4006  3.6731
 1553TIP3   OH2 4622   2.653   1.651   4.947  0.2873  0.0692 -0.6101
 1553TIP3    H1 4623   2.709   1.574   4.957  0.1111  0.1137  0.8622
 1553TIP3    H2 4624   2.713   1.724   4.935  0.4595 -0.2500 -1.8140
 1554TIP3   OH2 4625   5.611   0.209   4.582  0.1638  0.3636  0.9003
 1554TIP3    H1 4626   5.523   0.248   4.580 -0.0016  0.0106 -1.4154
 1554TIP3    H2 4627   5.670   0.283   4.565  0.0990  0.2015 -0.0940
 1555TIP3   OH2 4628   6.481   3.843   2.685  0.1813  0.5869 -0.8927
 1555TIP3    H1 4629   6.480   3.920   2.741  0.1249  0.9968 -1.4535
 1555TIP3    H2 4630   6.417   3.862   2.617  2.0387  1.1910 -2.5472
 1556TIP3   OH2 4631   0.202   4.301   2.652  0.2172 -0.5131 -0.3676
 1556TIP3    H1 4632   0.107   4.313   2.646  0.2002  1.1755  1.9253
 1556TIP3    H2 4633   0.213   4.207   2.664 -1.1367 -0.7798 -0.9293
 1557TIP3   OH2 4634   3.206   1.431   5.786 -0.3735 -0.0759 -0.1669
 1557TIP3    H1 4635   3.129   1.384   5.754 -1.1110  0.2507  1.0519
 1557TIP3    H2 4636   3.274   1.413   5.721 -1.5962  0.0231 -1.5330
 1558TIP3   OH2 4637   2.048   4.506   2.242 -0.3427 -0.2066  0.7914
 1558TIP3    H1 4638   2.041   4.546   2.155  0.7115 -1.2521  0.1819
 1558TIP3    H2 4639   2.096   4.571   2.294  0.4469 -0.2239  0.1130
 1559TIP3   OH2 4640   6.580   2.271   0.474  0.6561  0.1998  0.7780
 1559TIP3    H1 4641   6.640   2.203   0.444  0.2452  0.3012 -0.3008
 1559TIP3    H2 4642   6.633   2.350   0.476  0.4092  0.4529 -0.9386
 1560TIP3   OH2 4643   2.394   0.803   0.438 -0.2869  0.2076 -0.2796
 1560TIP3    H1 4644   2.471   0.842   0.396 -0.2062 -0.2871 -0.6011
 1560TIP3    H2 4645   2.325   0.867   0.424 -0.0013  0.5321 -0.2304
 1561TIP3   OH2 4646   0.921   5.552   1.396  0.0835  0.1605 -0.6140
 1561TIP3    H1 4647   0.861   5.616   1.358  0.5370  0.8698 -0.1598
 1561TIP3    H2 4648   0.954   5.594   1.475 -1.2112 -1.4566  0.8870
 1562TIP3   OH2 4649   1.183   4.989   4.259 -0.2686  0.3853 -0.2040
 1562TIP3    H1 4650   1.192   5.084   4.254 -0.5307  0.3873 -0.6359
 1562TIP3    H2 4651   1.138   4.974   4.342  0.7244  0.5727  0.3751
 1563TIP3   OH2 4652   0.196   3.055   4.202 -0.2259 -0.2516 -0.2917
 1563TIP3    H1 4653   0.217   3.079   4.292  2.3302 -0.2011 -0.8237
 1563TIP3    H2 4654   0.171   3.138   4.160 -0.5510 -0.1267  0.1464
 1564TIP3   OH2 4655   6.512   1.099   1.100 -0.1727  0.3530  0.3719
 1564TIP3    H1 4656   6.435   1.101   1.156 -0.6257  0.4476 -0.2557
 1564TIP3    H2 4657   6.479   1.107   1.011  0.3031 -2.1686 -0.1329
 1565TIP3   OH2 4658   5.532   1.179   1.106 -0.1673 -0.7758  0.1429
 1565TIP3    H1 4659   5.544   1.131   1.188 -0.9571 -0.4690  0.4497
 1565TIP3    H2 4660   5.511   1.268   1.132  0.0515 -0.5570 -0.4056
 1566TIP3   OH2 4661   0.809   4.193   4.139 -0.4939  0.6325  0.5305
 1566TIP3    H1 4662   0.894   4.152   4.151 -0.6999 -1.3969 -3.3970
 1566TIP3    H2 4663   0.759   4.168   4.217  1.7837  0.0288  1.8904
 1567TIP3   OH2 4664   6.065   5.062   2.886  0.1163  0.1678  0.6599
 1567TIP3    H1 4665   5.987   5.036   2.934  1.4586 -4.2186  0.8746
 1567TIP3    H2 4666   6.038   5.061   2.794 -0.8009  2.0611  0.8519
 1568TIP3   OH2 4667   3.073   5.617   5.240  0.1891 -0.0694  0.1427
 1568TIP3    H1 4668   3.130   5.592   5.168 -0.8823 -2.4359  0.0078
 1568TIP3    H2 4669   3.047   5.534   5.280 -1.1274  1.0507  1.7716
 1569TIP3   OH2 4670   6.106   0.721   0.106 -0.3072 -0.6063  0.3837
 1569TIP3    H1 4671   6.078   0.771   0.183 -0.8339 -0.8311  0.3423
 1569TIP3    H2 4672   6.035   0.658   0.091 -0.7011  0.1121 -0.9034
 1570TIP3   OH2 4673   4.801   3.277   0.693  0.7203  0.1594  0.0169
 1570TIP3    H1 4674   4.895   3.264   0.692  0.8120  0.0160  2.9278
 1570TIP3    H2 4675   4.764   3.189   0.695  0.5541  0.2299  0.0824
 1571TIP3   OH2 4676   4.389   4.586   4.916 -0.5627 -0.6888  0.0030
 1571TIP3    H1 4677   4.311   4.640   4.932 -0.6717 -1.2329  1.4323
 1571TIP3    H2 4678   4.385   4.518   4.983  0.3118 -1.6629 -0.9001
 1572TIP3   OH2 4679   2.781   4.302   3.042  0.3182  0.0636  0.3077
 1572TIP3    H1 4680   2.767   4.326   2.950 -0.0460 -1.8161 -0.1644
 1572TIP3    H2 4681   2.874   4.281   3.048  0.4132  0.5166  0.4612
 1573TIP3   OH2 4682   5.510   6.620   0.674 -0.6201  0.3541  0.0134
 1573TIP3    H1 4683   5.600   6.611   0.706 -0.7231 -0.7936  0.0261
 1573TIP3    H2 4684   5.491   6.536   0.633 -1.1039  1.1768 -1.5355
 1574TIP3   OH2 4685   6.277   3.733   5.403 -0.5187 -0.7020 -0.0684
 1574TIP3    H1 4686   6.219   3.747   5.478  0.3738 -0.8760  0.6734
 1574TIP3    H2 4687   6.252   3.647   5.370 -2.3135  0.2191 -1.2797
 1575TIP3   OH2 4688   0.298   5.387   2.847 -0.3530 -0.3971  0.3589
 1575TIP3    H1 4689   0.380   5.344   2.870 -0.5830 -1.1670 -0.2460
 1575TIP3    H2 4690   0.266   5.424   2.930  0.0902 -0.9755  0.7863
 1576TIP3   OH2 4691   6.780   6.547   2.801 -0.5724  0.0049 -0.6262
 1576TIP3    H1 4692   6.831   6.575   2.724 -1.1648 -0.2478 -1.1190
 1576TIP3    H2 4693   6.763   6.628   2.849  1.9270 -0.0911  0.6052
 1577TIP3   OH2 4694   5.686   5.750   5.635 -0.8611  0.0085 -0.4221
 1577TIP3    H1 4695   5.723   5.708   5.558 -0.0911  0.9192 -0.5732
 1577TIP3    H2 4696   5.670   5.840   5.608 -0.6377  0.3302  0.4547
 1578TIP3   OH2 4697   6.690   1.168   4.142  0.7110  0.2481  0.1095
 1578TIP3    H1 4698   6.758   1.181   4.077  1.4529 -1.0946  0.5597
 1578TIP3    H2 4699   6.693   1.246   4.197 -0.3410  1.6757 -1.7866
 1579TIP3   OH2 4700   1.792   4.615   3.491  0.0797  0.8983  1.0922
 1579TIP3    H1 4701   1.773   4.565   3.571 -1.6561  0.4755  0.4701
 1579TIP3    H2 4702   1.739   4.694   3.499  0.5014  1.2244  0.7025
 1580TIP3   OH2 4703   4.995   4.899   4.438  0.1688  0.1173  0.2933
 1580TIP3    H1 4704   5.016   4.958   4.366  1.4982  0.8483  1.2365
 1580TIP3    H2 4705   5.039   4.937   4.514  1.5245 -2.3108  0.8628
 1581TIP3   OH2 4706   6.555   4.019   4.666 -0.6383  0.2967  0.0722
 1581TIP3    H1 4707   6.535   4.105   4.704  0.5581  0.6573 -0.0819
 1581TIP3    H2 4708   6.650   4.012   4.672 -0.4446  0.1391 -2.3951
 1582TIP3   OH2 4709   5.517   0.859   3.752 -0.3483  0.2814  0.3091
 1582TIP3    H1 4710   5.602   0.880   3.789 -0.3395  1.0284 -0.1029
 1582TIP3    H2 4711   5.462   0.836   3.827 -0.1782  1.2188  0.7331
 1583TIP3   OH2 4712   6.968   4.973   2.137  0.1803  0.1305  0.1631
 1583TIP3    H1 4713   7.022   5.030   2.191 -0.5093  1.1702 -0.2192
 1583TIP3    H2 4714   7.029   4.938   2.071  0.8967 -0.6897  1.2218
 1584TIP3   OH2 4715   5.914   4.159   4.068  0.0499  0.2109 -0.7682
 1584TIP3    H1 4716   5.976   4.089   4.051 -1.5681 -1.5270  0.0752
 1584TIP3    H2 4717   5.931   4.185   4.159  0.9727  1.3142 -1.2294
 1585TIP3   OH2 4718   6.281   1.874   4.713 -0.2821  0.1254  0.1374
 1585TIP3    H1 4719   6.214   1.940   4.733 -0.6104 -0.0850 -0.2324
 1585TIP3    H2 4720   6.234   1.807   4.664  0.2947  0.1883 -0.5204
 1586TIP3   OH2 4721   5.984   5.006  -0.012 -0.0474 -0.0258  1.6925
 1586TIP3    H1 4722   6.073   5.005   0.024 -0.1492  1.5110  2.0198
 1586TIP3    H2 4723   5.956   4.914  -0.007  2.4801 -1.1083 -0.8417
 1587TIP3   OH2 4724   1.144   1.950   1.507  0.3226  0.1668  0.2717
 1587TIP3    H1 4725   1.152   1.994   1.592  0.3603 -0.7334  0.7434
 1587TIP3    H2 4726   1.076   1.885   1.520 -0.9929  1.2429 -0.9292
 1588TIP3   OH2 4727   0.657   1.931   4.876  0.4769 -0.0527  0.3310
 1588TIP3    H1 4728   0.695   1.983   4.805  0.8179 -0.4803  0.1952
 1588TIP3    H2 4729   0.597   1.871   4.833 -1.4322  1.5127  0.6564
 1589TIP3   OH2 4730   1.208   4.949   5.842 -1.1535  0.2763  0.0691
 1589TIP3    H1 4731   1.291   4.981   5.808 -1.1636 -0.0463 -0.2640
 1589TIP3    H2 4732   1.175   5.021   5.895 -0.9290  0.6191 -0.2485
 1590TIP3   OH2 4733   6.637   4.906  -0.016 -0.4680  0.0947  0.2969
 1590TIP3    H1 4734   6.720   4.858  -0.018 -1.2027 -1.2292  0.0629
 1590TIP3    H2 4735   6.579   4.851   0.036 -1.8440 -0.1463 -1.3853
 1591TIP3   OH2 4736   1.155   6.430   2.939  0.1110 -0.4264  0.1513
 1591TIP3    H1 4737   1.136   6.519   2.909 -1.9006 -0.5973  0.7650
 1591TIP3    H2 4738   1.119   6.374   2.869  2.8294 -0.8209 -1.0550
 1592TIP3   OH2 4739   5.691   2.378   0.980  0.1599  0.0376  0.2309
 1592TIP3    H1 4740   5.764   2.377   0.917 -1.7884  2.0519 -2.2469
 1592TIP3    H2 4741   5.624   2.323   0.939 -1.0260  1.0888  0.7164
 1593TIP3   OH2 4742   6.781   2.267   4.965 -0.3435  0.1056 -0.1481
 1593TIP3    H1 4743   6.732   2.246   5.044  0.3224  2.0632  0.8397
 1593TIP3    H2 4744   6.863   2.305   4.997  0.0119  0.7875 -1.7785
 1594TIP3   OH2 4745   4.471   0.116   5.447  0.1368  0.1823 -0.4324
 1594TIP3    H1 4746   4.517   0.104   5.365  2.1301  0.9003  0.5259
 1594TIP3    H2 4747   4.480   0.209   5.467  0.9538 -0.2252  1.2892
 1595TIP3   OH2 4748   6.352   0.313   1.695 -0.0745  0.0399  0.5283
 1595TIP3    H1 4749   6.296   0.235   1.694  0.2608 -0.2341 -1.3352
 1595TIP3    H2 4750   6.299   0.381   1.653  0.0562  0.5059  1.1060
 1596TIP3   OH2 4751   0.659   4.978   1.696  0.3938  0.8646  0.0361
 1596TIP3    H1 4752   0.583   4.928   1.664  0.5846  0.6813 -0.1330
 1596TIP3    H2 4753   0.724   4.970   1.626  1.4922 -1.0170  1.2147
 1597TIP3   OH2 4754   1.747   5.605   5.284  0.2699 -0.0774  0.3741
 1597TIP3    H1 4755   1.754   5.695   5.315  0.2101 -0.0007  0.1620
 1597TIP3    H2 4756   1.689   5.609   5.208  0.4080 -0.2682  0.2564
 1598TIP3   OH2 4757   0.297   4.578   4.078  0.3903  0.5155 -0.4175
 1598TIP3    H1 4758   0.324   4.509   4.017  1.1025  0.2651  0.1685
 1598TIP3    H2 4759   0.271   4.531   4.157  1.0702  0.9244  0.0566
 1599TIP3   OH2 4760   1.253   0.113   4.792 -0.0633  0.3705 -0.1264
 1599TIP3    H1 4761   1.186   0.165   4.836 -0.2014 -0.8190  1.1324
 1599TIP3    H2 4762   1.328   0.172   4.785 -0.5577  1.0654  0.3107
 1600TIP3   OH2 4763   5.149   3.999   1.685  0.4363  0.1980 -0.3208
 1600TIP3    H1 4764   5.110   3.917   1.653  1.4813 -0.2493 -0.4840
 1600TIP3    H2 4765   5.081   4.038   1.739 -0.4727 -0.2492 -1.1090
 1601TIP3   OH2 4766   6.724   1.639   4.742  0.5033  0.4645  0.3596
 1601TIP3    H1 4767   6.794   1.702   4.758  0.3570  0.9100 -0.6805
 1601TIP3    H2 4768   6.731   1.576   4.814  2.2673  0.2514  0.0445
 1602TIP3   OH2 4769   2.090   2.379   5.016  0.5597 -0.4285 -0.2885
 1602TIP3    H1 4770   2.178   2.358   5.048  1.8223  1.5938 -2.1727
 1602TIP3    H2 4771   2.087   2.474   5.013 -2.9086 -0.2116  2.6745
 1603TIP3   OH2 4772   5.419   4.185   4.832  0.3576 -0.0411  0.0075
 1603TIP3    H1 4773   5.338   4.150   4.868  0.1145 -1.1985 -1.5508
 1603TIP3    H2 4774   5.433   4.134   4.752  0.4704  2.8040 -1.9304
 1604TIP3   OH2 4775   4.000   4.100   1.346  0.3604  0.4429  0.3509
 1604TIP3    H1 4776   4.026   4.009   1.359  0.1847  0.5133  1.2278
 1604TIP3    H2 4777   3.943   4.119   1.420  0.2027  1.1963  0.0389
 1605TIP3   OH2 4778   0.509   6.217   5.190 -0.4756 -0.5879  0.3860
 1605TIP3    H1 4779   0.539   6.160   5.119  0.7143  0.3538  0.1082
 1605TIP3    H2 4780   0.545   6.178   5.270 -1.0744 -1.1481  0.3935
 1606TIP3   OH2 4781   2.366   5.554   1.977  0.0390 -0.2582 -0.3599
 1606TIP3    H1 4782   2.368   5.459   1.973  0.2335 -0.2511 -0.4575
 1606TIP3    H2 4783   2.458   5.581   1.969  0.0045 -0.0696 -0.1434
 1607TIP3   OH2 4784   3.405   4.195   3.038 -0.3218 -0.4556  0.2800
 1607TIP3    H1 4785   3.366   4.282   3.029  0.1053 -0.4386 -2.3795
 1607TIP3    H2 4786   3.498   4.211   3.051 -0.2240 -0.4893 -0.3382
 1608TIP3   OH2 4787   5.981   1.396   4.084 -0.0727  0.2020 -0.8147
 1608TIP3    H1 4788   5.953   1.485   4.067  1.7459  1.1580  0.7161
 1608TIP3    H2 4789   6.069   1.405   4.121 -0.2995 -2.1335  0.5311
 1609TIP3   OH2 4790   5.856   5.842   2.257  0.3141 -0.0215 -0.1670
 1609TIP3    H1 4791   5.844   5.749   2.277  0.4907 -0.0771 -0.3105
 1609TIP3    H2 4792   5.888   5.880   2.339 -2.2555  0.4387  0.7144
 1610TIP3   OH2 4793   0.182   0.053   5.740 -0.6336  0.3339  0.4026
 1610TIP3    H1 4794   0.240   0.086   5.809  0.0775 -2.3614  1.2211
 1610TIP3    H2 4795   0.117   0.000   5.787  0.2709 -2.1525 -0.9734
 1611TIP3   OH2 4796   1.198   5.195  -0.009 -0.3585  0.1780  0.2374
 1611TIP3    H1 4797   1.192   5.173   0.084 -0.8069  1.4138  0.5157
 1611TIP3    H2 4798   1.158   5.281  -0.016  1.2661  0.8897 -0.8176
 1612TIP3   OH2 4799   1.110   5.415   5.346  0.2658  0.8444 -0.1842
 1612TIP3    H1 4800   1.171   5.469   5.294  1.8438 -0.1880  0.5322
 1612TIP3    H2 4801   1.050   5.479   5.385  2.8015  2.3182  1.6121
 1613TIP3   OH2 4802   0.280   6.369   5.793 -0.3139 -0.1367  0.0095
 1613TIP3    H1 4803   0.225   6.445   5.776  0.6601  0.6839  0.3763
 1613TIP3    H2 4804   0.351   6.403   5.848  1.3332 -0.8224 -1.5946
 1614TIP3   OH2 4805   3.693   2.712   2.362  0.2091 -0.2211  0.6499
 1614TIP3    H1 4806   3.657   2.786   2.411  1.7808 -0.6834  2.6333
 1614TIP3    H2 4807   3.788   2.724   2.364  0.6082 -2.7441  1.9331
 1615TIP3   OH2 4808   2.447   2.291   4.620  0.1282  0.4104  0.1701
 1615TIP3    H1 4809   2.491   2.211   4.590 -1.6775  0.8019 -4.2628
 1615TIP3    H2 4810   2.490   2.361   4.571 -1.2569  1.5787  0.5729
 1616TIP3   OH2 4811   6.526   2.887   3.587  0.3720 -0.3506 -0.2006
 1616TIP3    H1 4812   6.531   2.872   3.493  2.5955 -0.3641 -0.1387
 1616TIP3    H2 4813   6.562   2.975   3.599  2.3243 -1.2176  0.7851
 1617TIP3   OH2 4814   3.994   3.299   1.584  0.2676 -0.1382 -0.4809
 1617TIP3    H1 4815   3.932   3.302   1.657 -0.9728 -3.0602 -1.2673
 1617TIP3    H2 4816   3.959   3.360   1.520 -1.6812 -1.4170 -0.7336
 1618TIP3   OH2 4817   5.258   2.135   2.171  0.3799 -0.2798 -0.1818
 1618TIP3    H1 4818   5.320   2.064   2.188 -0.1468 -0.5941  0.4452
 1618TIP3    H2 4819   5.313   2.212   2.160  0.8792 -0.5142  0.5880
 1619TIP3   OH2 4820   5.137   0.623   0.246  0.2593 -0.3213 -0.0010
 1619TIP3    H1 4821   5.058   0.569   0.248  0.4912 -0.6542  0.9105
 1619TIP3    H2 4822   5.166   0.620   0.155  0.2879 -1.7917  0.0313
 1620TIP3   OH2 4823   3.172   6.010   0.230  0.3279  0.3771  0.1716
 1620TIP3    H1 4824   3.174   6.055   0.314  1.6814  0.3449  0.1736
 1620TIP3    H2 4825   3.234   5.937   0.240 -0.9356 -0.7936 -0.2219
 1621TIP3   OH2 4826   4.109   2.959   5.437 -0.4521  0.1188  0.2707
 1621TIP3    H1 4827   4.165   2.898   5.485  0.8742 -0.0034 -1.3289
 1621TIP3    H2 4828   4.023   2.918   5.437 -0.0056 -0.8463  0.7854
 1622TIP3   OH2 4829   4.827   3.424   0.916 -0.2497 -0.4786 -0.2726
 1622TIP3    H1 4830   4.781   3.386   0.841 -0.5596 -0.9241  0.1370
 1622TIP3    H2 4831   4.759   3.464   0.969 -0.1049 -0.6746  0.0654
 1623TIP3   OH2 4832   6.983   6.364   4.382 -0.2405  0.0207  0.6254
 1623TIP3    H1 4833   6.986   6.436   4.445 -3.6017  0.9124 -0.0330
 1623TIP3    H2 4834   7.066   6.370   4.335  0.3654  2.2805  1.8494
 1624TIP3   OH2 4835   6.513   6.413   4.837 -0.3291 -0.0196  0.1457
 1624TIP3    H1 4836   6.561   6.379   4.912 -1.1443  1.4065  1.3726
 1624TIP3    H2 4837   6.437   6.456   4.875 -0.7922  0.7020 -1.5134
 1625TIP3   OH2 4838   5.935   2.725   5.564 -0.4411 -0.4038  0.4479
 1625TIP3    H1 4839   5.904   2.653   5.618  0.2815  0.1997  1.7206
 1625TIP3    H2 4840   5.901   2.804   5.607  0.1195  0.0869  0.0096
 1626TIP3   OH2 4841   1.852   4.054   2.883  0.5523 -0.3128  0.4921
 1626TIP3    H1 4842   1.782   3.994   2.856  0.0976  0.4550 -0.0598
 1626TIP3    H2 4843   1.931   4.019   2.843  0.1931 -0.2284 -0.2964
 1627TIP3   OH2 4844   5.889   5.854   4.628  0.0028 -0.7182 -0.9013
 1627TIP3    H1 4845   5.862   5.814   4.545  0.3699  0.0211 -1.3864
 1627TIP3    H2 4846   5.984   5.860   4.622  0.0307 -0.6251 -0.4359
 1628TIP3   OH2 4847   4.367   4.202   1.995  0.1693 -0.1480  0.4767
 1628TIP3    H1 4848   4.392   4.112   1.973 -1.3778 -0.5992  0.4123
 1628TIP3    H2 4849   4.293   4.191   2.055 -0.4133  1.0757  0.0067
 1629TIP3   OH2 4850   6.896   6.713   2.558  0.1057  0.1283  0.2086
 1629TIP3    H1 4851   6.958   6.784   2.539  0.4316  0.1827  1.3616
 1629TIP3    H2 4852   6.824   6.757   2.604  0.2194 -0.2562  0.7547
 1630TIP3   OH2 4853   4.787   6.415   3.314  0.2169 -0.1618  0.6272
 1630TIP3    H1 4854   4.776   6.471   3.237 -1.9628  0.1175  1.0792
 1630TIP3    H2 4855   4.860   6.454   3.362  1.2234  0.0031 -0.9831
 1631TIP3   OH2 4856   7.216   5.044   1.703 -0.1449 -0.4809  0.3077
 1631TIP3    H1 4857   7.219   5.106   1.630  2.4969 -0.0703  0.6779
 1631TIP3    H2 4858   7.207   4.958   1.661  0.8994 -0.2122 -0.4850
 1632TIP3   OH2 4859   4.516   1.941   5.271  0.1252 -0.1903  0.4311
 1632TIP3    H1 4860   4.421   1.932   5.266 -0.3159  2.2532  2.3580
 1632TIP3    H2 4861   4.538   2.005   5.203  0.4344 -0.7500 -0.0106
 1633TIP3   OH2 4862   6.294   1.271   4.696  0.4810 -0.3388  0.0796
 1633TIP3    H1 4863   6.372   1.326   4.694 -0.4808  1.1990  1.9578
 1633TIP3    H2 4864   6.320   1.195   4.748  1.4261 -1.0967 -1.4299
 1634TIP3   OH2 4865   3.432   2.480   2.838 -0.1259  0.4216  0.0132
 1634TIP3    H1 4866   3.380   2.430   2.775  0.7493  1.1348 -1.3176
 1634TIP3    H2 4867   3.367   2.532   2.886 -0.7686  0.2804 -0.6818
 1635TIP3   OH2 4868   5.925   5.739   4.891  0.1841  0.0489 -0.1291
 1635TIP3    H1 4869   5.847   5.763   4.942 -0.3619 -0.3194 -0.7811
 1635TIP3    H2 4870   5.905   5.768   4.802  0.1181 -1.5109 -0.6362
 1636TIP3   OH2 4871   1.993   2.569   1.035  0.2896  0.2983 -0.2139
 1636TIP3    H1 4872   1.914   2.598   0.988 -0.1461 -1.1532 -0.4447
 1636TIP3    H2 4873   1.976   2.592   1.126 -0.7621 -0.6383 -0.1403
 1637TIP3   OH2 4874   5.988   0.965   2.829  0.0683 -0.6153  0.1223
 1637TIP3    H1 4875   5.920   1.032   2.821  1.5718  1.2333  1.7016
 1637TIP3    H2 4876   6.019   0.951   2.739  0.3556  1.5673 -0.1691
 1638TIP3   OH2 4877   2.907   1.793   0.271  0.5579 -0.2175 -0.0963
 1638TIP3    H1 4878   2.926   1.788   0.365  0.8492  1.0996 -0.0511
 1638TIP3    H2 4879   2.824   1.748   0.260 -0.4209  1.1830  1.1243
 1639TIP3   OH2 4880   3.525   5.585   4.945 -0.4282  0.2550  0.2035
 1639TIP3    H1 4881   3.577   5.660   4.974  0.4765  0.3863 -1.5859
 1639TIP3    H2 4882   3.585   5.536   4.888 -2.0764  0.0994 -1.4847
 1640TIP3   OH2 4883   3.237   5.297   0.344 -0.1524 -0.0150  0.0413
 1640TIP3    H1 4884   3.323   5.292   0.387 -0.8557  1.3472  1.7136
 1640TIP3    H2 4885   3.228   5.389   0.320 -1.4823  0.0235  0.6371
 1641TIP3   OH2 4886   1.620   3.204   4.327  0.1975 -0.0120  0.4074
 1641TIP3    H1 4887   1.680   3.177   4.258  1.8446  1.3099  1.2528
 1641TIP3    H2 4888   1.594   3.122   4.369 -0.8189 -0.8449 -1.6875
 1642TIP3   OH2 4889   1.854   0.723   4.871 -0.0591 -0.0857  0.2415
 1642TIP3    H1 4890   1.937   0.683   4.843 -0.9233 -0.6284 -1.7349
 1642TIP3    H2 4891   1.855   0.809   4.830 -0.3563 -0.0015  0.4116
 1643TIP3   OH2 4892   1.592   2.357   1.071  0.1416  0.2061  0.0646
 1643TIP3    H1 4893   1.529   2.303   1.118  3.1690 -1.3967  2.7187
 1643TIP3    H2 4894   1.547   2.440   1.056 -3.4523 -1.7245 -0.8724
 1644TIP3   OH2 4895   6.551   1.344   3.709  0.2481 -0.2971 -0.1430
 1644TIP3    H1 4896   6.479   1.404   3.686 -1.8701 -1.5438  2.6474
 1644TIP3    H2 4897   6.630   1.394   3.693 -1.3765  2.8928  1.0108
 1645TIP3   OH2 4898   1.273   2.931   5.762  0.9710  0.1539  0.1146
 1645TIP3    H1 4899   1.362   2.965   5.750  1.3041 -0.8058 -0.2515
 1645TIP3    H2 4900   1.228   2.951   5.680  1.6069 -1.5388 -0.6916
 1646TIP3   OH2 4901   3.196   3.832   2.986 -0.2584 -0.3273 -0.1403
 1646TIP3    H1 4902   3.172   3.755   3.037  1.2430 -0.3832  0.5126
 1646TIP3    H2 4903   3.113   3.860   2.945 -1.2191 -1.0839  1.2061
 1647TIP3   OH2 4904   2.921   6.078   1.791  0.1335 -0.2259  0.1137
 1647TIP3    H1 4905   2.930   6.097   1.698  0.7049 -0.6438  0.0779
 1647TIP3    H2 4906   3.008   6.048   1.818 -0.6146 -2.4929  0.2200
 1648TIP3   OH2 4907   5.936   5.964   2.484  0.4330 -0.1053 -0.1151
 1648TIP3    H1 4908   5.878   6.039   2.470  1.2641  0.5269 -0.2606
 1648TIP3    H2 4909   5.938   5.952   2.579  0.2765  0.0455 -0.0927
 1649TIP3   OH2 4910   4.948   2.260   5.031  0.3041 -0.0784 -0.2377
 1649TIP3    H1 4911   4.872   2.265   4.972  0.5633 -0.3183 -0.5895
 1649TIP3    H2 4912   4.909   2.256   5.119 -0.0912 -0.1468 -0.4116
 1650TIP3   OH2 4913   5.332   1.662   1.671 -0.3174 -0.0686 -0.3418
 1650TIP3    H1 4914   5.297   1.714   1.598  3.9971 -0.6758 -3.2443
 1650TIP3    H2 4915   5.394   1.720   1.715 -0.5456 -0.7134  0.8753
 1651TIP3   OH2 4916   0.910   0.931   5.650 -0.8895 -0.4928 -0.0718
 1651TIP3    H1 4917   0.909   0.837   5.668 -0.1352 -0.5248 -0.1751
 1651TIP3    H2 4918   0.823   0.949   5.615 -0.1442 -1.7230 -2.8543
 1652TIP3   OH2 4919   0.737   5.706   1.246  0.2904  0.3519 -0.3775
 1652TIP3    H1 4920   0.743   5.725   1.152  2.0739 -1.6058 -0.7411
 1652TIP3    H2 4921   0.729   5.792   1.287  0.4516  1.3277 -2.2757
 1653TIP3   OH2 4922   1.163   5.276   4.295  0.1307  0.5729  0.2001
 1653TIP3    H1 4923   1.224   5.350   4.288  2.1604 -0.9277  1.1858
 1653TIP3    H2 4924   1.094   5.308   4.354  1.9333  1.1530  2.1297
 1654TIP3   OH2 4925   6.006   4.720   3.357 -0.3221 -0.7281  0.5597
 1654TIP3    H1 4926   5.990   4.753   3.446  1.4465 -0.7017  0.9106
 1654TIP3    H2 4927   6.014   4.625   3.369  0.5597 -0.6642  0.5605
 1655TIP3   OH2 4928   4.346   1.421   2.859 -0.1785  0.1624 -0.6165
 1655TIP3    H1 4929   4.367   1.511   2.833 -1.6480  0.4575 -0.8518
 1655TIP3    H2 4930   4.383   1.367   2.789  0.2062  0.6235 -0.7771
 1656TIP3   OH2 4931   4.634   0.640   1.940 -0.1769 -0.1301 -0.2783
 1656TIP3    H1 4932   4.637   0.564   1.999  2.7690  0.3339  0.3426
 1656TIP3    H2 4933   4.700   0.621   1.873  0.2809  1.6564 -0.3786
 1657TIP3   OH2 4934   4.294   4.810   3.130  0.1375 -0.7374  0.0584
 1657TIP3    H1 4935   4.274   4.901   3.106  1.3859  0.4775  3.1212
 1657TIP3    H2 4936   4.384   4.797   3.102 -0.0182 -1.0316 -0.3173
 1658TIP3   OH2 4937   2.744   4.668   4.523 -0.1734  0.2558 -0.2620
 1658TIP3    H1 4938   2.715   4.658   4.613 -0.6550 -1.1277 -0.5392
 1658TIP3    H2 4939   2.839   4.675   4.528 -0.2679  1.2059  0.4073
 1659TIP3   OH2 4940   6.196   2.830   0.636 -0.1456 -0.5683 -0.0047
 1659TIP3    H1 4941   6.190   2.828   0.732  0.0465 -1.9954  0.0009
 1659TIP3    H2 4942   6.113   2.868   0.607  0.4907  1.5353  0.7594
 1660TIP3   OH2 4943   3.821   4.220   3.334 -0.3227 -0.6243  0.2295
 1660TIP3    H1 4944   3.869   4.303   3.329 -1.3993 -0.0539 -1.1335
 1660TIP3    H2 4945   3.886   4.153   3.314  0.0756  0.0789 -0.8950
 1661TIP3   OH2 4946   5.507   2.428   5.088  0.4291  0.3614  0.0212
 1661TIP3    H1 4947   5.540   2.343   5.115  1.1185  0.2747 -1.0334
 1661TIP3    H2 4948   5.521   2.430   4.993 -0.5011  1.2484 -0.1119
 1662TIP3   OH2 4949   1.074   1.168   0.068  0.1934 -0.4769 -0.5931
 1662TIP3    H1 4950   1.104   1.259   0.070  0.7100 -0.6110 -1.4504
 1662TIP3    H2 4951   0.982   1.172   0.093  0.2269  0.2734 -0.5650
 1663TIP3   OH2 4952   0.456   6.817   1.257  0.5972 -0.4878 -0.1523
 1663TIP3    H1 4953   0.546   6.838   1.231  0.6201 -0.5230 -0.1033
 1663TIP3    H2 4954   0.459   6.724   1.279  1.1331  0.0052  2.1786
 1664TIP3   OH2 4955   4.048   5.803   1.403 -0.2781 -0.1311 -0.3802
 1664TIP3    H1 4956   3.961   5.772   1.427  0.3173 -0.0029  2.2678
 1664TIP3    H2 4957   4.108   5.734   1.433  0.6286  0.6032 -0.4444
 1665TIP3   OH2 4958   2.245   4.525   1.436  0.1875  0.3028 -0.0859
 1665TIP3    H1 4959   2.317   4.585   1.415 -1.2005  1.9648 -0.2886
 1665TIP3    H2 4960   2.166   4.579   1.428 -1.0938 -1.4766  0.0939
 1666TIP3   OH2 4961   5.670   3.708   3.097 -0.3739  0.3446 -0.1133
 1666TIP3    H1 4962   5.647   3.660   3.017  1.4518 -0.3068 -0.2857
 1666TIP3    H2 4963   5.662   3.643   3.166 -1.5826  0.8116  0.2091
 1667TIP3   OH2 4964   6.430   3.505   2.818  0.5403  0.0425 -0.6435
 1667TIP3    H1 4965   6.346   3.550   2.806 -0.2809 -1.0232  0.7403
 1667TIP3    H2 4966   6.466   3.499   2.730 -0.4388  1.2583 -1.1673
 1668TIP3   OH2 4967   1.270   4.582   2.569  0.0546 -0.2111  0.7981
 1668TIP3    H1 4968   1.314   4.632   2.638  1.2331  1.0730 -0.7986
 1668TIP3    H2 4969   1.329   4.508   2.553  1.7201  1.4378 -1.2480
 1669TIP3   OH2 4970   1.592   6.648   2.676 -0.3194 -0.1576 -0.3338
 1669TIP3    H1 4971   1.569   6.720   2.735  1.4694  0.2464 -0.0702
 1669TIP3    H2 4972   1.569   6.569   2.724  1.1435  0.1637  0.9837
 1670TIP3   OH2 4973   3.844   4.605   4.930 -0.0458 -0.0839 -0.0959
 1670TIP3    H1 4974   3.776   4.558   4.880  0.9004  0.3100 -1.8454
 1670TIP3    H2 4975   3.917   4.544   4.932  0.1894  0.2086  0.1659
 1671TIP3   OH2 4976   1.701   2.273   0.138  0.0162 -0.0036  0.1869
 1671TIP3    H1 4977   1.670   2.192   0.097  0.4068  0.2657 -0.6510
 1671TIP3    H2 4978   1.670   2.266   0.229 -1.3548 -0.3377 -0.2747
 1672TIP3   OH2 4979   5.819   3.812   3.720  0.3016  0.1849 -0.3336
 1672TIP3    H1 4980   5.839   3.786   3.810 -0.7470  0.6597  0.0441
 1672TIP3    H2 4981   5.870   3.892   3.706  0.8847 -0.1840 -0.3557
 1673TIP3   OH2 4982   4.677   3.945   5.031  0.0157 -0.5529 -0.3447
 1673TIP3    H1 4983   4.614   4.017   5.030  0.3221 -0.2626  0.4045
 1673TIP3    H2 4984   4.761   3.987   5.051 -0.1524 -1.3355  2.5149
 1674TIP3   OH2 4985   6.333   0.451   0.289  0.1379  0.3747  0.3475
 1674TIP3    H1 4986   6.401   0.436   0.354  1.7738  0.4231 -1.2832
 1674TIP3    H2 4987   6.372   0.424   0.206 -1.7445  0.6658 -0.6926
 1675TIP3   OH2 4988   5.789   6.517   0.355  0.0491  0.1332  0.2480
 1675TIP3    H1 4989   5.822   6.487   0.440 -1.9340  1.7232  1.6696
 1675TIP3    H2 4990   5.831   6.601   0.341  1.1776 -0.5874 -0.9274
 1676TIP3   OH2 4991   3.137   4.006   1.487 -0.3727  0.0386 -0.3476
 1676TIP3    H1 4992   3.188   4.046   1.417  1.7431 -2.8790 -0.6440
 1676TIP3    H2 4993   3.172   4.045   1.567 -1.0922  1.5782 -0.7473
 1677TIP3   OH2 4994   2.604   3.539   5.247  0.1305 -0.1818 -0.2199
 1677TIP3    H1 4995   2.690   3.505   5.269 -0.5216 -1.8741 -0.1478
 1677TIP3    H2 4996   2.621   3.611   5.186  1.5725 -0.5240 -0.2442
 1678TIP3   OH2 4997   0.726   4.653   2.822 -0.2624  0.2941  0.1131
 1678TIP3    H1 4998   0.643   4.670   2.867 -1.4957 -1.7819 -1.2232
 1678TIP3    H2 4999   0.713   4.684   2.733  0.2127 -0.4230 -0.2228
 1679TIP3   OH2 5000   1.337   3.113   3.613  0.0558  0.4108 -0.0451
 1679TIP3    H1 5001   1.350   3.146   3.702  2.8523  2.2627 -0.9921
 1679TIP3    H2 5002   1.267   3.168   3.577  1.4740  2.2845 -0.1018
 1680TIP3   OH2 5003   1.466   3.129   5.665 -0.1819  0.3685  0.3230
 1680TIP3    H1 5004   1.457   3.112   5.571 -0.3601  0.2872  0.3549
 1680TIP3    H2 5005   1.542   3.187   5.672  1.0950 -1.2077  0.2727
 1681TIP3   OH2 5006   3.133   1.888   1.465 -0.3802 -0.2288 -0.0411
 1681TIP3    H1 5007   3.117   1.981   1.477 -0.9707 -0.4093  0.6849
 1681TIP3    H2 5008   3.060   1.845   1.511 -0.7061 -1.0358 -1.2571
 1682TIP3   OH2 5009   2.212   4.516   2.859 -0.0817 -0.1793  0.3618
 1682TIP3    H1 5010   2.242   4.561   2.938 -1.1345  1.7789 -0.2610
 1682TIP3    H2 5011   2.130   4.475   2.885  0.0038 -0.2554  0.5104
 1683TIP3   OH2 5012   1.862   1.654   1.292  0.0423  0.3697 -0.4896
 1683TIP3    H1 5013   1.867   1.563   1.321  0.5858  0.6873  0.4555
 1683TIP3    H2 5014   1.923   1.659   1.218  0.9994  0.2525  0.2728
 1684TIP3   OH2 5015   4.645   2.797   0.931  0.0497 -0.5356  0.2513
 1684TIP3    H1 5016   4.558   2.756   0.927 -0.0517 -0.2942 -0.0907
 1684TIP3    H2 5017   4.706   2.724   0.924 -0.1245 -0.5914 -1.1486
 1685TIP3   OH2 5018   5.358   4.231   0.573 -0.2053  0.5030 -0.0563
 1685TIP3    H1 5019   5.296   4.162   0.598 -0.1515  0.0507 -1.1340
 1685TIP3    H2 5020   5.422   4.232   0.645  0.2753 -1.1765 -0.4260
 1686TIP3   OH2 5021   5.289   3.907   5.144 -0.5349 -0.3750  0.7738
 1686TIP3    H1 5022   5.273   3.988   5.192 -2.5072  0.1045 -0.5926
 1686TIP3    H2 5023   5.383   3.908   5.127 -0.8493  3.4855 -2.2276
 1687TIP3   OH2 5024   1.246   3.287   2.449  0.0684  0.5422  0.4641
 1687TIP3    H1 5025   1.269   3.208   2.498 -0.5098  0.0074 -0.1068
 1687TIP3    H2 5026   1.201   3.342   2.513  2.1663  1.2746  1.3912
 1688TIP3   OH2 5027   6.607   6.636   0.137 -0.3744 -0.3045  0.0084
 1688TIP3    H1 5028   6.667   6.680   0.077  0.0172 -0.5322  0.2264
 1688TIP3    H2 5029   6.522   6.640   0.093 -0.0623 -0.6281 -0.6530
 1689TIP3   OH2 5030   5.590   2.083   1.248  0.5641 -0.0593 -0.0694
 1689TIP3    H1 5031   5.648   2.146   1.291 -0.8227 -0.3110  2.3924
 1689TIP3    H2 5032   5.592   2.006   1.305 -0.2321 -1.0197 -1.2938
 1690TIP3   OH2 5033   1.025   1.195   4.891 -0.1725  0.1809 -0.3627
 1690TIP3    H1 5034   1.117   1.214   4.876  0.1609 -0.3516  0.9168
 1690TIP3    H2 5035   0.991   1.171   4.804  0.9310  0.1884 -0.8072
 1691TIP3   OH2 5036   1.006   5.836   4.895 -0.0633  0.8871  0.3268
 1691TIP3    H1 5037   0.956   5.755   4.892  0.3434  0.6094  0.9885
 1691TIP3    H2 5038   1.002   5.869   4.805 -0.1876  0.1141  0.0397
 1692TIP3   OH2 5039   0.978   2.636   5.776 -0.2637 -0.1408 -0.8532
 1692TIP3    H1 5040   0.935   2.554   5.753 -0.7888 -0.5951  1.4246
 1692TIP3    H2 5041   1.068   2.627   5.746  0.6259 -2.9976  2.1701
 1693TIP3   OH2 5042   4.344   3.147   5.355 -0.2923 -0.1034  0.1055
 1693TIP3    H1 5043   4.396   3.221   5.325 -1.3817  0.2692 -0.9351
 1693TIP3    H2 5044   4.380   3.072   5.309 -1.1033  0.2632 -1.1581
 1694TIP3   OH2 5045   2.425   3.673   3.330  0.0227 -0.9488 -0.3164
 1694TIP3    H1 5046   2.418   3.628   3.415  1.5602 -1.5714 -0.4994
 1694TIP3    H2 5047   2.489   3.742   3.345 -3.4030  2.4299  0.4075
 1695TIP3   OH2 5048   2.750   6.678   0.425  0.4858 -0.0778  0.0834
 1695TIP3    H1 5049   2.771   6.755   0.372  0.4489  0.1090  0.3407
 1695TIP3    H2 5050   2.805   6.608   0.389 -0.4130 -0.2610 -0.9977
 1696TIP3   OH2 5051   5.548   1.904   0.831 -1.1418 -0.0139  0.5188
 1696TIP3    H1 5052   5.589   1.971   0.776 -2.7627  0.1071 -0.6343
 1696TIP3    H2 5053   5.582   1.821   0.797  0.5201  0.1675  1.6496
 1697TIP3   OH2 5054   5.900   2.677   0.642 -0.0777 -0.4271 -0.0830
 1697TIP3    H1 5055   5.849   2.712   0.714 -0.0127 -0.5938  0.0448
 1697TIP3    H2 5056   5.926   2.754   0.590  0.2868 -0.2593  0.3404
 1698TIP3   OH2 5057   0.897   6.170   0.307 -0.6302 -0.4018  0.4109
 1698TIP3    H1 5058   0.886   6.114   0.230 -0.6104  0.9530 -0.5960
 1698TIP3    H2 5059   0.960   6.122   0.362 -0.0652 -1.0262 -0.7522
 1699TIP3   OH2 5060   4.089   2.786   4.037  0.2683 -0.6429 -0.1705
 1699TIP3    H1 5061   4.009   2.734   4.038 -0.4686  0.4493  1.3075
 1699TIP3    H2 5062   4.104   2.810   4.128  2.2151 -0.6795 -0.4306
 1700TIP3   OH2 5063   1.975   5.452   3.240 -0.3679  0.0941  0.2426
 1700TIP3    H1 5064   2.010   5.502   3.167 -3.1035  1.1796 -0.4674
 1700TIP3    H2 5065   1.984   5.361   3.214  2.7460  0.1991  0.6048
 1701TIP3   OH2 5066   5.115   4.134   4.690  0.3162  0.2917 -0.0615
 1701TIP3    H1 5067   5.035   4.098   4.651  0.7682  1.7322 -2.4774
 1701TIP3    H2 5068   5.126   4.084   4.771 -1.8147 -1.4499 -0.7450
 1702TIP3   OH2 5069   1.836   5.040   2.290 -0.2271 -0.2871 -0.0909
 1702TIP3    H1 5070   1.742   5.025   2.303 -0.1745  0.2649  0.9534
 1702TIP3    H2 5071   1.862   5.099   2.360  0.0667  2.9472 -2.6731
 1703TIP3   OH2 5072   1.987   2.914   1.931 -0.0280  0.4421  0.3164
 1703TIP3    H1 5073   2.031   2.998   1.943 -1.1367  0.7958  2.3421
 1703TIP3    H2 5074   1.932   2.926   1.854  1.4705  0.7989 -0.7501
 1704TIP3   OH2 5075   2.182   3.779   2.467  0.7842  0.2236 -0.3095
 1704TIP3    H1 5076   2.255   3.829   2.502 -0.4735  2.2344 -0.4392
 1704TIP3    H2 5077   2.137   3.839   2.408  0.2349 -1.6408 -1.8983
 1705TIP3   OH2 5078   4.455   5.415   3.555  0.6421 -0.4967 -0.0478
 1705TIP3    H1 5079   4.390   5.481   3.580 -1.6750 -2.4672 -0.5051
 1705TIP3    H2 5080   4.470   5.431   3.462  0.1324 -0.5784 -0.1468
 1706TIP3   OH2 5081   1.507   6.575   5.133  0.2133  0.1996  0.7455
 1706TIP3    H1 5082   1.421   6.614   5.144 -0.7300 -1.9769  1.6055
 1706TIP3    H2 5083   1.559   6.612   5.204 -0.5109  0.2792  1.2457
 1707TIP3   OH2 5084   6.163   3.740   1.985  0.3397  0.5166  0.4350
 1707TIP3    H1 5085   6.104   3.728   1.910 -1.0714 -0.0915  1.5915
 1707TIP3    H2 5086   6.198   3.652   2.002 -0.2685  0.4119  1.2006
 1708TIP3   OH2 5087   2.737   1.108   1.263 -0.0753 -0.2928  0.0549
 1708TIP3    H1 5088   2.792   1.187   1.253  0.1448 -0.4561 -0.0276
 1708TIP3    H2 5089   2.734   1.070   1.175 -0.3337 -0.2773  0.0565
 1709TIP3   OH2 5090   4.691   2.744   0.549 -0.1599 -0.4504 -0.4383
 1709TIP3    H1 5091   4.658   2.657   0.574  0.1498 -0.7012 -0.8765
 1709TIP3    H2 5092   4.619   2.784   0.501 -0.6959 -0.0331  0.6873
 1710TIP3   OH2 5093   0.957   5.345   4.464 -0.0530  0.3712  0.5662
 1710TIP3    H1 5094   0.910   5.357   4.546 -0.4638  3.4755  0.0139
 1710TIP3    H2 5095   0.932   5.421   4.411  0.3047 -1.4251 -2.4137
 1711TIP3   OH2 5096   4.775   3.963   0.075  0.2784  0.6900  0.4157
 1711TIP3    H1 5097   4.789   3.936  -0.016 -1.1397 -0.3237  0.4719
 1711TIP3    H2 5098   4.719   4.040   0.068 -1.1548 -0.3143  0.4476
 1712TIP3   OH2 5099   2.922   6.224   2.069 -0.7428 -0.7977  0.0679
 1712TIP3    H1 5100   3.004   6.180   2.047 -1.6072 -2.1486 -0.5894
 1712TIP3    H2 5101   2.896   6.268   1.988 -1.1157 -1.1302  0.0032
 1713TIP3   OH2 5102   5.741   2.452   5.730 -0.1315 -0.4854 -0.0113
 1713TIP3    H1 5103   5.678   2.507   5.683 -0.6362 -0.4118  0.7312
 1713TIP3    H2 5104   5.687   2.387   5.776  0.3066 -0.2924  0.8071
 1714TIP3   OH2 5105   6.474   4.499   0.783 -0.1060 -0.1987 -0.3523
 1714TIP3    H1 5106   6.514   4.469   0.864  0.5025 -2.1495 -1.3283
 1714TIP3    H2 5107   6.394   4.447   0.775 -1.0180  1.1386 -0.2134
 1715TIP3   OH2 5108   5.015   0.542   3.439 -0.4836 -0.5262 -0.6152
 1715TIP3    H1 5109   4.971   0.466   3.475 -0.9461  0.3602  0.7379
 1715TIP3    H2 5110   5.087   0.506   3.387 -2.2208 -1.9566 -2.1532
 1716TIP3   OH2 5111   1.429   4.175   1.644  0.8323 -0.2095 -0.8661
 1716TIP3    H1 5112   1.481   4.203   1.569  1.0914  1.4510 -0.1158
 1716TIP3    H2 5113   1.484   4.110   1.689  0.5673 -1.4186 -2.1990
 1717TIP3   OH2 5114   3.521   2.000   1.995 -0.5439  0.7575  0.1507
 1717TIP3    H1 5115   3.607   2.005   2.036 -0.9902 -0.3191  1.2844
 1717TIP3    H2 5116   3.539   1.984   1.902  0.4849  2.6856 -0.0324
 1718TIP3   OH2 5117   6.158   0.883   3.560 -0.2352  0.1890 -0.2347
 1718TIP3    H1 5118   6.168   0.802   3.511  2.8326 -0.0362  0.5458
 1718TIP3    H2 5119   6.142   0.950   3.493  0.7800 -0.5656 -1.2663
 1719TIP3   OH2 5120   5.551   3.046   2.887  0.5590 -0.0818  0.4382
 1719TIP3    H1 5121   5.629   3.088   2.851 -0.3055  1.3529  0.1251
 1719TIP3    H2 5122   5.495   3.119   2.915 -0.4427 -1.0782  1.1471
 1720TIP3   OH2 5123   6.640   1.523   0.613  0.2318  0.0680  0.7807
 1720TIP3    H1 5124   6.635   1.599   0.555  0.5014 -0.6017 -0.1239
 1720TIP3    H2 5125   6.549   1.507   0.639  0.0237 -0.0292  0.0125
 1721TIP3   OH2 5126   3.695   5.454   4.503 -0.1724  0.4587 -0.6103
 1721TIP3    H1 5127   3.780   5.474   4.465 -0.2286 -0.4140 -1.2308
 1721TIP3    H2 5128   3.703   5.479   4.595  1.3114 -1.1055 -0.2596
 1722TIP3   OH2 5129   1.875   5.039   1.495 -0.3981  0.5193 -0.4114
 1722TIP3    H1 5130   1.897   5.127   1.464 -0.0986  1.3579  2.0171
 1722TIP3    H2 5131   1.847   5.051   1.585  0.6212 -2.0033  0.3353
 1723TIP3   OH2 5132   2.145   6.156   0.737  0.0958  0.9976 -0.5041
 1723TIP3    H1 5133   2.238   6.150   0.758 -0.1550 -0.2405  0.3653
 1723TIP3    H2 5134   2.143   6.164   0.642  1.1717  4.0403 -0.3749
 1724TIP3   OH2 5135   6.718   2.843   1.353 -0.2979 -0.2521  0.3616
 1724TIP3    H1 5136   6.659   2.903   1.306 -0.5908  0.1506  1.2361
 1724TIP3    H2 5137   6.797   2.843   1.300 -0.7296 -0.0398 -0.3064
 1725TIP3   OH2 5138   0.801   0.947   1.491 -0.2833 -0.0425 -0.2126
 1725TIP3    H1 5139   0.883   0.990   1.464  0.1634 -1.8715 -2.0531
 1725TIP3    H2 5140   0.734   1.014   1.481  0.8212  1.1459  0.1428
 1726TIP3   OH2 5141   4.268   6.647   3.233  0.2443 -0.1173  1.3279
 1726TIP3    H1 5142   4.201   6.683   3.290 -1.0643  0.9054 -0.7119
 1726TIP3    H2 5143   4.226   6.572   3.191  0.0881  0.8646 -0.3900
 1727TIP3   OH2 5144   6.082   5.655   1.152 -0.2937  0.7202  0.2611
 1727TIP3    H1 5145   6.093   5.687   1.242  0.4924  2.2819 -0.3463
 1727TIP3    H2 5146   6.170   5.633   1.124 -0.7582 -1.6995  0.4925
 1728TIP3   OH2 5147   3.514   5.519   3.347  0.2500 -1.1231  0.2363
 1728TIP3    H1 5148   3.520   5.426   3.370  1.0487 -0.8543  1.2066
 1728TIP3    H2 5149   3.481   5.561   3.426 -0.5682 -0.6270 -0.3541
 1729TIP3   OH2 5150   1.260   6.748   1.751 -0.6755  0.2571  0.0440
 1729TIP3    H1 5151   1.253   6.831   1.703 -0.3829 -0.3728 -1.1027
 1729TIP3    H2 5152   1.187   6.696   1.721  0.8873 -1.0808 -1.6254
 1730TIP3   OH2 5153   1.502   5.667   4.070 -0.2374  0.0098  0.0411
 1730TIP3    H1 5154   1.502   5.605   4.143  0.9594 -0.5945 -0.4339
 1730TIP3    H2 5155   1.558   5.738   4.098  0.3192 -0.2784 -0.3174
 1731TIP3   OH2 5156   1.927   3.393   3.501  0.2473  0.0173 -0.1799
 1731TIP3    H1 5157   1.996   3.428   3.444  0.3396 -0.1695 -0.1839
 1731TIP3    H2 5158   1.973   3.367   3.581  0.3087 -0.8123 -0.4699
 1732TIP3   OH2 5159   3.584   6.604   5.712 -0.3034  0.3447  0.0520
 1732TIP3    H1 5160   3.572   6.689   5.669 -1.9598  0.0973 -0.0358
 1732TIP3    H2 5161   3.646   6.623   5.784  1.3829  1.0463 -1.4943
 1733TIP3   OH2 5162   3.420   3.089   1.695 -0.1729 -0.3193  0.8364
 1733TIP3    H1 5163   3.448   3.121   1.781  0.7619  0.2233  0.3519
 1733TIP3    H2 5164   3.499   3.094   1.641 -0.9570  0.2345 -0.3001
 1734TIP3   OH2 5165   6.944   1.819   4.734  0.3289  0.5724 -0.0083
 1734TIP3    H1 5166   6.940   1.896   4.790 -1.1433  0.0829  0.6196
 1734TIP3    H2 5167   7.024   1.773   4.762  0.7257  1.4017  0.2317
 1735TIP3   OH2 5168   0.604   6.437   4.623  0.5150 -0.1060  0.1044
 1735TIP3    H1 5169   0.693   6.403   4.636  0.1945 -0.6288  1.1040
 1735TIP3    H2 5170   0.594   6.503   4.691  0.1332 -0.0755  0.0174
 1736TIP3   OH2 5171   0.486   1.127   1.013  0.3523  0.2757  0.7920
 1736TIP3    H1 5172   0.544   1.163   0.946 -1.6149  0.7967 -0.7462
 1736TIP3    H2 5173   0.472   1.199   1.074  1.8857 -0.0951  1.6236
 1737TIP3   OH2 5174   1.288   1.343   0.045 -0.0751 -0.3097  0.0107
 1737TIP3    H1 5175   1.378   1.373   0.037  0.5033 -2.0640 -0.5571
 1737TIP3    H2 5176   1.237   1.405  -0.008  0.7068  0.9637  0.7054
 1738TIP3   OH2 5177   3.930   0.727   4.993 -0.2662 -0.2016 -0.6504
 1738TIP3    H1 5178   3.945   0.821   4.987  0.2154 -0.2928 -0.9911
 1738TIP3    H2 5179   3.866   0.717   5.063 -1.0465  0.4470 -1.2535
 1739TIP3   OH2 5180   4.722   5.994   3.802  0.0898  0.1580  0.3715
 1739TIP3    H1 5181   4.704   5.981   3.709  2.0816  1.5501 -0.2769
 1739TIP3    H2 5182   4.811   5.960   3.814  0.1382  0.6696  1.5823
 1740TIP3   OH2 5183   2.574   0.105   3.458 -0.0237  0.2953 -0.0064
 1740TIP3    H1 5184   2.655   0.154   3.470 -0.4288  1.5793 -2.0926
 1740TIP3    H2 5185   2.559   0.063   3.543  1.3923  2.1771  1.2640
 1741TIP3   OH2 5186   0.783   0.638   3.008  0.4456  0.0127  0.3454
 1741TIP3    H1 5187   0.723   0.622   2.935 -1.5192  2.2310  1.3554
 1741TIP3    H2 5188   0.864   0.667   2.966 -0.1404 -0.1896 -0.9755
 1742TIP3   OH2 5189   4.815   3.164   1.615  0.1364  0.7401 -0.0533
 1742TIP3    H1 5190   4.794   3.184   1.524  1.4458 -0.5087 -0.6782
 1742TIP3    H2 5191   4.802   3.247   1.662 -2.6655  0.8956 -0.9238
 1743TIP3   OH2 5192   5.657   6.295   2.742 -0.3544 -0.1587  0.4978
 1743TIP3    H1 5193   5.666   6.359   2.813 -0.2567 -1.2816  1.5180
 1743TIP3    H2 5194   5.601   6.226   2.777  0.7956 -1.4128 -0.0115
 1744TIP3   OH2 5195   1.726   3.360   3.135 -0.7373 -0.4427  0.3667
 1744TIP3    H1 5196   1.812   3.340   3.097 -1.5360  1.2006 -2.6347
 1744TIP3    H2 5197   1.671   3.287   3.108 -0.4013 -1.4492  2.2133
 1745TIP3   OH2 5198   4.167   1.144   5.075  0.7303 -0.0039  0.1044
 1745TIP3    H1 5199   4.205   1.232   5.067  1.3811 -0.3283 -0.5383
 1745TIP3    H2 5200   4.241   1.089   5.102  0.2481 -0.2947  0.8367
 1746TIP3   OH2 5201   6.137   3.840   4.549  0.2467  0.7067 -0.0537
 1746TIP3    H1 5202   6.208   3.829   4.485  0.7205  1.8762  0.2320
 1746TIP3    H2 5203   6.113   3.751   4.574  1.2636  0.2747 -0.5474
 1747TIP3   OH2 5204   0.714   2.802   3.975  0.0008  0.0312 -0.3871
 1747TIP3    H1 5205   0.756   2.865   4.033 -0.5848 -0.1738  0.2683
 1747TIP3    H2 5206   0.760   2.719   3.992  0.8390  0.2825 -1.3217
 1748TIP3   OH2 5207   2.742   4.553   2.341  0.1397  0.3365 -0.5822
 1748TIP3    H1 5208   2.664   4.587   2.296  0.0570 -0.3144 -0.9481
 1748TIP3    H2 5209   2.709   4.525   2.427  0.0288  0.3466 -0.6206
 1749TIP3   OH2 5210   0.604   1.112   1.422 -0.0063  0.2455  0.2171
 1749TIP3    H1 5211   0.610   1.095   1.328  0.1759  0.0739  0.2587
 1749TIP3    H2 5212   0.534   1.177   1.430  0.0317  0.3220 -0.0439
 1750TIP3   OH2 5213   3.034   5.214   5.068 -0.3838 -0.1465 -0.1697
 1750TIP3    H1 5214   2.963   5.150   5.072  0.4373 -1.0449  0.1834
 1750TIP3    H2 5215   3.111   5.163   5.044 -0.0161  0.9597 -1.4824
 1751TIP3   OH2 5216   7.202   3.235   0.099  0.4334 -0.1176 -0.0652
 1751TIP3    H1 5217   7.176   3.303   0.161  1.5921 -1.4852  2.0739
 1751TIP3    H2 5218   7.128   3.174   0.096  0.9496 -0.8451  1.2411
 1752TIP3   OH2 5219   3.086   3.792   5.711  0.0194 -0.1825  0.5775
 1752TIP3    H1 5220   3.078   3.698   5.729  1.1068 -0.1700  1.2006
 1752TIP3    H2 5221   3.121   3.829   5.792  1.1880  0.4979 -0.2049
 1753TIP3   OH2 5222   5.827   2.628   3.448 -0.5527 -0.3791 -0.0623
 1753TIP3    H1 5223   5.847   2.708   3.400  2.1874 -0.4593  0.7507
 1753TIP3    H2 5224   5.841   2.558   3.385 -0.6959 -0.3174 -0.1630
 1754TIP3   OH2 5225   3.767   5.366   1.788  0.1634 -0.2482 -0.2245
 1754TIP3    H1 5226   3.726   5.439   1.742  0.3529  0.6841  1.0594
 1754TIP3    H2 5227   3.811   5.316   1.719 -2.9088 -1.1983 -1.6818
 1755TIP3   OH2 5228   5.525   5.190   3.344 -0.4500 -0.1412  0.4717
 1755TIP3    H1 5229   5.556   5.099   3.335 -1.2358 -0.3316 -0.3856
 1755TIP3    H2 5230   5.431   5.185   3.329 -0.5831  0.7484  0.9613
 1756TIP3   OH2 5231   4.796   0.087   2.487 -0.3342 -0.5184 -0.2098
 1756TIP3    H1 5232   4.845   0.106   2.567 -0.3678  2.5191 -0.7772
 1756TIP3    H2 5233   4.766  -0.003   2.498  0.0129 -0.3604  2.9858
 1757TIP3   OH2 5234   3.099   3.357   1.669 -0.0687  0.4578 -0.3394
 1757TIP3    H1 5235   3.189   3.379   1.692 -0.0285 -0.4296  0.4048
 1757TIP3    H2 5236   3.085   3.270   1.707 -0.0677 -1.0891 -3.4875
 1758TIP3   OH2 5237   4.180   2.976   1.722  0.7136 -0.4652 -0.2105
 1758TIP3    H1 5238   4.129   2.914   1.775 -1.5221  1.5646  0.1952
 1758TIP3    H2 5239   4.220   3.035   1.786 -1.0262  1.2817 -0.6487
 1759TIP3   OH2 5240   2.880   5.677   1.879 -0.0186  0.3915  0.0660
 1759TIP3    H1 5241   2.953   5.737   1.863  0.4974  0.0472  1.0323
 1759TIP3    H2 5242   2.917   5.609   1.935 -0.5254 -1.0069 -1.2537
 1760TIP3   OH2 5243   6.169   1.551   3.828  0.3942  0.0378 -0.0569
 1760TIP3    H1 5244   6.202   1.480   3.883 -1.1633 -0.5898  0.1130
 1760TIP3    H2 5245   6.225   1.548   3.750  0.4844 -1.2560  0.0324
 1761TIP3   OH2 5246   6.167   1.497   4.603 -0.2291  0.7182  0.5687
 1761TIP3    H1 5247   6.207   1.411   4.610 -0.6428  0.4627 -0.0708
 1761TIP3    H2 5248   6.237   1.553   4.568 -0.1610  0.4877  0.3337
 1762TIP3   OH2 5249   5.998   3.509   4.313 -0.4890 -0.3116  0.4382
 1762TIP3    H1 5250   5.910   3.543   4.293 -0.5519 -0.4344  0.5046
 1762TIP3    H2 5251   6.057   3.563   4.260 -0.4058  1.1911  1.9633
 1763TIP3   OH2 5252   1.405   6.332   2.139 -0.2176  0.1497  0.0399
 1763TIP3    H1 5253   1.374   6.285   2.061 -1.2193 -0.0442  0.5351
 1763TIP3    H2 5254   1.495   6.303   2.151 -0.4496 -0.7432 -0.3396
 1764TIP3   OH2 5255   6.565   5.880   1.809  0.4026  0.3442 -0.6262
 1764TIP3    H1 5256   6.488   5.930   1.781  1.1047  1.1891 -1.1107
 1764TIP3    H2 5257   6.634   5.946   1.819  1.4976 -0.5756 -1.7700
 1765TIP3   OH2 5258   0.314   2.707   2.997  0.4280  0.6729 -0.0454
 1765TIP3    H1 5259   0.407   2.711   2.973  0.5272  1.0022  0.3811
 1765TIP3    H2 5260   0.279   2.791   2.968  0.4720  0.9321  0.6295
 1766TIP3   OH2 5261   4.482   3.713   5.820 -0.0854  0.2688 -0.2648
 1766TIP3    H1 5262   4.502   3.700   5.727 -0.4626  0.2327 -0.3391
 1766TIP3    H2 5263   4.388   3.700   5.827  0.0717 -0.7446  0.2895
 1767TIP3   OH2 5264   5.100   6.045   5.447 -0.1793 -0.4555 -0.5591
 1767TIP3    H1 5265   5.136   6.130   5.472 -2.5396  0.0312  1.6251
 1767TIP3    H2 5266   5.169   5.982   5.470  0.7045  0.6779  0.0347
 1768TIP3   OH2 5267   1.751   3.291   1.216  0.0231 -0.5927 -0.5377
 1768TIP3    H1 5268   1.800   3.299   1.298  0.3316 -0.0474 -0.7716
 1768TIP3    H2 5269   1.818   3.273   1.150 -0.0933  0.0681 -0.8447
 1769TIP3   OH2 5270   6.830   0.764   0.323  0.4219 -0.0731  0.5770
 1769TIP3    H1 5271   6.739   0.789   0.309  0.9657  0.3654 -3.1153
 1769TIP3    H2 5272   6.859   0.820   0.395 -1.3747  2.1524 -0.3079
 1770TIP3   OH2 5273   0.384   2.627   2.389 -1.1277 -0.1662  0.0167
 1770TIP3    H1 5274   0.389   2.655   2.297 -4.5779 -0.7267 -0.4840
 1770TIP3    H2 5275   0.386   2.531   2.384 -2.6633 -0.2301  0.3623
 1771TIP3   OH2 5276   3.144   5.464   1.003  0.7987  0.2249 -0.8223
 1771TIP3    H1 5277   3.063   5.481   1.051  1.7405  0.2839  0.8036
 1771TIP3    H2 5278   3.197   5.543   1.016  1.3737 -0.0744 -1.3116
 1772TIP3   OH2 5279   3.527   5.551   3.949  0.1575 -0.2480 -0.4347
 1772TIP3    H1 5280   3.516   5.487   4.019 -1.2790 -0.0329 -0.4469
 1772TIP3    H2 5281   3.459   5.616   3.963  1.5837  1.3229 -0.4278
 1773TIP3   OH2 5282   4.275   1.918   5.625 -0.2497 -0.2305  0.0152
 1773TIP3    H1 5283   4.235   1.950   5.706 -1.0973  0.2711 -0.5812
 1773TIP3    H2 5284   4.316   1.835   5.649  0.9666  0.6944  1.3347
 1774TIP3   OH2 5285   2.600   4.929   3.676  0.0215  0.6303  0.0924
 1774TIP3    H1 5286   2.504   4.934   3.674  0.0177  0.4540 -0.2149
 1774TIP3    H2 5287   2.618   4.836   3.689  0.1670  0.4383 -1.3306
 1775TIP3   OH2 5288   2.284   5.718   0.732  0.0037 -0.1950 -0.0395
 1775TIP3    H1 5289   2.326   5.698   0.816 -1.1941  1.1293  0.9268
 1775TIP3    H2 5290   2.209   5.772   0.755 -0.8391 -0.4717 -1.9182
 1776TIP3   OH2 5291   3.480   3.110   3.155  0.3614  0.1337  0.7717
 1776TIP3    H1 5292   3.494   3.016   3.172 -1.8394 -0.1824  1.1114
 1776TIP3    H2 5293   3.507   3.153   3.236  3.3080  0.0711 -0.0587
 1777TIP3   OH2 5294   4.803   4.633   5.535  0.1098  0.2678  0.5677
 1777TIP3    H1 5295   4.789   4.549   5.578 -1.8143  1.3809  2.2734
 1777TIP3    H2 5296   4.759   4.624   5.450 -0.2664 -0.3538  0.8241
 1778TIP3   OH2 5297   5.256   5.793   3.865  0.3883  0.0260 -0.2141
 1778TIP3    H1 5298   5.282   5.786   3.773 -0.9930 -0.2481 -0.6192
 1778TIP3    H2 5299   5.245   5.702   3.893  1.3363  0.0921  0.3926
 1779TIP3   OH2 5300   3.858   6.565   5.346  0.0980 -0.1382 -0.6482
 1779TIP3    H1 5301   3.903   6.618   5.412  1.1812 -1.5252 -0.2255
 1779TIP3    H2 5302   3.793   6.624   5.308 -1.5872  0.3513  2.6332
 1780TIP3   OH2 5303   5.069   6.488   0.930 -0.3409  0.3439  0.4084
 1780TIP3    H1 5304   5.041   6.404   0.966 -1.1356  0.4454  0.0622
 1780TIP3    H2 5305   5.043   6.553   0.996 -0.6243  0.4062  0.2386
 1781TIP3   OH2 5306   3.129   6.671   2.513  0.1007 -0.3955 -0.7849
 1781TIP3    H1 5307   3.216   6.659   2.551 -1.1414 -0.5837  2.3003
 1781TIP3    H2 5308   3.130   6.617   2.434  1.9924 -2.5098  0.5446
 1782TIP3   OH2 5309   6.213   6.235   5.242  0.0050 -0.7194  0.2709
 1782TIP3    H1 5310   6.221   6.153   5.193  1.5673  0.1333 -0.9895
 1782TIP3    H2 5311   6.120   6.242   5.262 -0.6997 -1.2203 -2.4429
 1783TIP3   OH2 5312   6.536   2.468   2.881  0.6913 -0.3240 -0.1308
 1783TIP3    H1 5313   6.489   2.436   2.804  0.4469 -1.7328  0.5680
 1783TIP3    H2 5314   6.561   2.557   2.858 -1.1445  0.0078 -1.0469
 1784TIP3   OH2 5315   6.025   3.016   4.370  0.3299 -0.0674  0.0926
 1784TIP3    H1 5316   5.936   2.981   4.365 -0.7148  2.1356  1.5533
 1784TIP3    H2 5317   6.057   3.013   4.280 -0.8504 -1.7469 -0.3144
 1785TIP3   OH2 5318   4.995   4.770   2.289  0.4147 -0.4191  0.0901
 1785TIP3    H1 5319   5.010   4.836   2.221 -0.9754 -0.8807 -0.6911
 1785TIP3    H2 5320   4.918   4.802   2.337  1.2397 -0.2104  1.3351
 1786TIP3   OH2 5321   1.916   2.196   4.448 -0.0683  0.7263 -0.1950
 1786TIP3    H1 5322   1.851   2.143   4.494 -1.2851  0.7878 -1.7498
 1786TIP3    H2 5323   2.000   2.161   4.477 -0.7848  0.1291  1.2830
 1787TIP3   OH2 5324   7.009   0.264   1.932  0.2136 -0.2651 -0.3614
 1787TIP3    H1 5325   7.087   0.241   1.982  0.0198 -1.1754 -0.4731
 1787TIP3    H2 5326   7.037   0.262   1.840  0.3862  0.7030 -0.3414
 1788TIP3   OH2 5327   4.267   5.219   0.490 -0.2840 -0.2934  0.0989
 1788TIP3    H1 5328   4.194   5.219   0.552 -0.3477 -0.4545  0.0241
 1788TIP3    H2 5329   4.289   5.311   0.479  0.0586 -0.2898  0.7485
 1789TIP3   OH2 5330   5.728   4.133   0.917 -0.5998  0.2526 -0.3766
 1789TIP3    H1 5331   5.790   4.107   0.985 -1.9039  0.6749  1.0108
 1789TIP3    H2 5332   5.782   4.144   0.839  0.7160 -1.8209  0.1530
 1790TIP3   OH2 5333   4.348   6.575   2.926 -0.2883 -0.4079  0.3968
 1790TIP3    H1 5334   4.398   6.647   2.964 -0.8762  1.2505 -1.7614
 1790TIP3    H2 5335   4.414   6.508   2.905  0.6617  0.6626 -0.0926
 1791TIP3   OH2 5336   2.875   6.804   2.513 -0.5204 -0.6878  0.0478
 1791TIP3    H1 5337   2.906   6.775   2.598 -0.0996  1.0297  0.5105
 1791TIP3    H2 5338   2.953   6.805   2.457 -0.3737  0.2432  0.2494
 1792TIP3   OH2 5339   1.793   6.620   0.099  0.8645  0.0218 -0.3288
 1792TIP3    H1 5340   1.865   6.561   0.120  0.6844  0.3501  1.3781
 1792TIP3    H2 5341   1.716   6.564   0.093  1.0901 -0.2105 -1.2460
 1793TIP3   OH2 5342   0.307   1.343   0.364 -0.6706  0.1288 -0.2680
 1793TIP3    H1 5343   0.317   1.252   0.392  0.4382  0.3419  0.0755
 1793TIP3    H2 5344   0.257   1.338   0.282 -0.3304 -0.8048 -0.4255
 1794TIP3   OH2 5345   4.509   3.231   2.337 -1.1928  0.0017 -0.1122
 1794TIP3    H1 5346   4.442   3.220   2.269 -2.1625 -1.9145  1.0623
 1794TIP3    H2 5347   4.473   3.185   2.413  1.4402 -1.0555  0.5893
 1795TIP3   OH2 5348   5.295   5.608   0.406  0.7020 -0.1845 -0.1100
 1795TIP3    H1 5349   5.371   5.642   0.453  0.3888  0.6101 -0.1615
 1795TIP3    H2 5350   5.257   5.685   0.364  0.7862 -0.8186 -1.4051
 1796TIP3   OH2 5351   4.584   1.055   1.227  0.5096 -0.3500 -0.1298
 1796TIP3    H1 5352   4.584   1.072   1.133 -0.9845 -0.9379 -0.2718
 1796TIP3    H2 5353   4.675   1.066   1.254  1.0171 -0.4830 -1.6998
 1797TIP3   OH2 5354   3.400   6.256   5.763  0.2674 -0.3205  0.3539
 1797TIP3    H1 5355   3.439   6.226   5.681 -0.7058 -1.2942  0.2228
 1797TIP3    H2 5356   3.459   6.224   5.831  0.8814  0.1726  0.0617
 1798TIP3   OH2 5357   4.019   4.822   4.897  0.6950 -0.3138  0.1901
 1798TIP3    H1 5358   3.950   4.756   4.908  0.2462 -0.0215 -0.7797
 1798TIP3    H2 5359   4.050   4.810   4.807  0.4329  0.9509 -0.0862
 1799TIP3   OH2 5360   3.485   3.739   5.404  0.5494 -0.4842  0.1826
 1799TIP3    H1 5361   3.518   3.786   5.480 -0.8136 -0.5561  0.8443
 1799TIP3    H2 5362   3.502   3.798   5.330 -0.7818  0.9313  0.9421
 1800TIP3   OH2 5363   3.876   0.097   4.229  0.1715 -0.2663 -0.0282
 1800TIP3    H1 5364   3.793   0.063   4.194  0.2355 -1.0001  0.5106
 1800TIP3    H2 5365   3.869   0.192   4.219 -0.7063 -0.3261 -0.0662
 1801TIP3   OH2 5366   1.861   2.962   3.887 -0.2780 -0.2933 -0.4490
 1801TIP3    H1 5367   1.808   2.883   3.894  0.6719 -0.8529  0.9197
 1801TIP3    H2 5368   1.815   3.027   3.940 -2.0800  0.7383 -3.0837
 1802TIP3   OH2 5369   1.200   5.649   0.434 -0.1178 -0.0982 -0.4112
 1802TIP3    H1 5370   1.288   5.648   0.471 -0.9627  1.9228  1.9650
 1802TIP3    H2 5371   1.188   5.561   0.398  1.4790 -1.7842  2.7133
 1803TIP3   OH2 5372   0.740   4.501   5.110 -0.0068  0.2691  0.0243
 1803TIP3    H1 5373   0.814   4.503   5.050  0.3943  1.2721  0.5334
 1803TIP3    H2 5374   0.675   4.559   5.069  0.4095  1.2497  0.7066
 1804TIP3   OH2 5375   3.456   2.291   0.667 -0.4288  0.1359 -0.7111
 1804TIP3    H1 5376   3.444   2.336   0.584  0.5221  0.7187 -0.5480
 1804TIP3    H2 5377   3.535   2.237   0.655 -0.1116  0.4535 -0.1002
 1805TIP3   OH2 5378   1.767   0.940   2.442 -0.4208  0.2186  0.5565
 1805TIP3    H1 5379   1.759   0.957   2.348 -1.0827 -0.1829  0.5314
 1805TIP3    H2 5380   1.677   0.933   2.472 -0.2095  0.3555  1.2272
 1806TIP3   OH2 5381   2.227   2.299   1.302 -0.1399 -0.3249  0.6718
 1806TIP3    H1 5382   2.229   2.240   1.377  0.7528  0.0084  0.9318
 1806TIP3    H2 5383   2.234   2.386   1.340 -1.9362  0.0110  0.3240
 1807TIP3   OH2 5384   1.877   1.440   4.983 -0.1139  0.7830 -0.0747
 1807TIP3    H1 5385   1.825   1.507   5.029  0.9680  2.3595 -1.0546
 1807TIP3    H2 5386   1.967   1.472   4.988  0.4535 -0.6750 -0.5069
 1808TIP3   OH2 5387   4.962   0.775   3.937  0.6703  0.1244  0.8222
 1808TIP3    H1 5388   4.987   0.785   4.029  0.2924 -1.3228  1.1117
 1808TIP3    H2 5389   4.900   0.846   3.922  0.0626 -0.1361  1.9476
 1809TIP3   OH2 5390   1.226   2.298   2.398 -0.0622  0.3274 -0.1652
 1809TIP3    H1 5391   1.265   2.379   2.364  1.3255  0.0949  0.7584
 1809TIP3    H2 5392   1.183   2.258   2.322  0.0747  1.4427 -0.8568
 1810TIP3   OH2 5393   7.136   4.008   4.086 -0.2328  0.2686  0.2936
 1810TIP3    H1 5394   7.199   4.080   4.077 -0.9445  1.0069  1.1268
 1810TIP3    H2 5395   7.144   3.960   4.003  1.2488  0.4784  0.2866
 1811TIP3   OH2 5396   6.998   0.957   1.146  0.1753  0.7015 -0.3071
 1811TIP3    H1 5397   6.980   0.870   1.111 -0.3953  1.1713 -1.1928
 1811TIP3    H2 5398   7.093   0.958   1.158  0.2834  0.2582 -1.0978
 1812TIP3   OH2 5399   2.419   0.284   2.829 -0.4248  0.7299 -0.1197
 1812TIP3    H1 5400   2.357   0.337   2.878 -0.3497  0.0659  0.7081
 1812TIP3    H2 5401   2.505   0.313   2.859 -0.3930 -0.3242  0.8586
 1813TIP3   OH2 5402   5.917   6.403   0.896 -0.9403  0.4466  0.1641
 1813TIP3    H1 5403   5.872   6.321   0.918  0.5626 -0.8076 -1.1737
 1813TIP3    H2 5404   6.003   6.395   0.937 -0.4848  0.9793 -0.6567
 1814TIP3   OH2 5405   1.920   0.040   0.863 -0.0338  0.1732 -0.3445
 1814TIP3    H1 5406   1.883   0.061   0.777 -2.4814  0.7447  0.7367
 1814TIP3    H2 5407   1.881   0.106   0.921  0.3787 -1.0968  1.4252
 1815TIP3   OH2 5408   1.653   0.086   3.088  0.1610 -0.3907 -0.3728
 1815TIP3    H1 5409   1.639   0.151   3.157  2.4636  0.1548 -0.3315
 1815TIP3    H2 5410   1.639   0.135   3.007 -1.7203 -0.8244 -0.3563
 1816TIP3   OH2 5411   5.777   2.469   2.113 -0.0652  0.0009  0.3528
 1816TIP3    H1 5412   5.864   2.451   2.077 -0.4925  0.5090 -0.9682
 1816TIP3    H2 5413   5.765   2.402   2.180  1.9052  0.7739  1.5618
 1817TIP3   OH2 5414   6.534   0.660   5.630  0.0109 -0.1429  0.5673
 1817TIP3    H1 5415   6.492   0.576   5.614 -1.0461  0.0995  1.8559
 1817TIP3    H2 5416   6.597   0.642   5.700  0.1412  0.0273  0.4937
 1818TIP3   OH2 5417   4.962   2.140   5.520 -0.6209 -0.4138  0.0823
 1818TIP3    H1 5418   4.920   2.196   5.455  2.0725  1.7539 -0.0081
 1818TIP3    H2 5419   4.965   2.054   5.479  0.4373  0.7355 -2.4831
 1819TIP3   OH2 5420   1.975   4.525   1.110  0.8997 -0.7176 -0.3300
 1819TIP3    H1 5421   1.976   4.615   1.077 -1.6289 -0.8069 -0.8384
 1819TIP3    H2 5422   1.984   4.470   1.032 -2.4838 -0.8846 -0.7650
 1820TIP3   OH2 5423   3.640   1.443   2.816  0.1438  0.0440 -0.0364
 1820TIP3    H1 5424   3.583   1.393   2.874  0.4800  0.0437  0.2909
 1820TIP3    H2 5425   3.721   1.454   2.865 -0.0202  1.1476  0.0149
 1821TIP3   OH2 5426   3.227   3.641   0.922 -0.1088  0.1236 -0.0372
 1821TIP3    H1 5427   3.311   3.640   0.968  0.3609  0.4209 -0.8799
 1821TIP3    H2 5428   3.245   3.683   0.838 -0.9828 -0.2873 -0.4480
 1822TIP3   OH2 5429   2.719   0.578   1.774  0.5779  0.6657  0.4959
 1822TIP3    H1 5430   2.734   0.666   1.740  1.5909  0.0003 -0.8533
 1822TIP3    H2 5431   2.791   0.562   1.834 -0.2490  1.1714  1.6628
 1823TIP3   OH2 5432   6.774   2.824   2.634  0.9447 -0.1512  0.0726
 1823TIP3    H1 5433   6.778   2.754   2.568  0.6561 -1.6282  1.5423
 1823TIP3    H2 5434   6.685   2.820   2.668  1.2051  0.3090  0.8322
 1824TIP3   OH2 5435   4.849   0.604   0.010 -0.5464  0.5690 -0.3303
 1824TIP3    H1 5436   4.944   0.595   0.010 -0.5502  0.2052 -1.9822
 1824TIP3    H2 5437   4.833   0.691   0.048  0.6567  2.0984 -3.0544
 1825TIP3   OH2 5438   3.716   0.882   5.473 -0.1878 -0.0155  0.0986
 1825TIP3    H1 5439   3.685   0.972   5.471  0.1845  0.1049 -0.5498
 1825TIP3    H2 5440   3.785   0.881   5.539  0.9020  0.5469 -0.9973
 1826TIP3   OH2 5441   5.579   4.116   2.147  0.2604  0.0652  0.0954
 1826TIP3    H1 5442   5.648   4.093   2.210 -0.1115 -1.9551 -0.1519
 1826TIP3    H2 5443   5.626   4.143   2.068  0.8570 -1.9876 -0.3180
 1827TIP3   OH2 5444   2.318   3.812   3.124 -0.1714 -0.9113  0.3170
 1827TIP3    H1 5445   2.354   3.771   3.203 -1.4811  0.2211  1.5730
 1827TIP3    H2 5446   2.223   3.805   3.135 -0.4434  1.6527  0.2017
 1828TIP3   OH2 5447   4.052   3.973   2.253  0.4126  0.1807  0.3544
 1828TIP3    H1 5448   4.065   3.880   2.233  1.1791  0.7268 -1.9794
 1828TIP3    H2 5449   3.981   3.974   2.318  0.0479 -1.9936  0.0605
 1829TIP3   OH2 5450   5.994   5.406   5.615  0.1358  0.3216 -0.0903
 1829TIP3    H1 5451   6.054   5.336   5.642 -0.7220 -0.0516  0.9243
 1829TIP3    H2 5452   5.913   5.387   5.663  0.3337  2.8448  1.4043
 1830TIP3   OH2 5453   3.211   1.260   5.173  0.1314  0.2634  0.0833
 1830TIP3    H1 5454   3.176   1.349   5.167  0.5527  0.4996  0.9750
 1830TIP3    H2 5455   3.255   1.246   5.090  1.0355  1.3252  0.3502
 1831TIP3   OH2 5456   5.838   6.556   5.510  0.3416  0.6121 -0.3712
 1831TIP3    H1 5457   5.842   6.600   5.425  0.1329 -0.1478 -0.7825
 1831TIP3    H2 5458   5.793   6.474   5.493 -0.6285  0.8985  0.6794
 1832TIP3   OH2 5459   3.843   6.507   2.379 -0.4689  0.0263  0.2806
 1832TIP3    H1 5460   3.927   6.484   2.419 -1.3575  0.1739  2.3831
 1832TIP3    H2 5461   3.861   6.589   2.333  0.4519  0.2822  1.0475
 1833TIP3   OH2 5462   3.130   0.991   0.011 -0.4090  0.2354 -0.5565
 1833TIP3    H1 5463   3.098   1.056  -0.052 -1.0877  2.1756  1.6614
 1833TIP3    H2 5464   3.078   1.006   0.090  0.7553 -1.7573  0.6767
 1834TIP3   OH2 5465   6.240   1.505   2.011  0.5592 -0.2353 -0.3004
 1834TIP3    H1 5466   6.210   1.537   2.096  1.7212 -2.6428  1.1512
 1834TIP3    H2 5467   6.335   1.494   2.022  0.6202 -1.2761 -1.6198
 1835TIP3   OH2 5468   1.629   0.854   1.950 -0.2192  0.8575  0.2114
 1835TIP3    H1 5469   1.589   0.941   1.940  0.3489  1.0797 -0.1348
 1835TIP3    H2 5470   1.624   0.837   2.044  0.6349  1.7419  0.4398
 1836TIP3   OH2 5471   6.678   6.227   0.528  0.0993  0.0452  0.1118
 1836TIP3    H1 5472   6.642   6.260   0.446  0.9291  1.3789  0.2502
 1836TIP3    H2 5473   6.739   6.295   0.556  1.7211 -1.5178  0.5599
 1837TIP3   OH2 5474   2.706   2.570   3.914 -0.3927  0.0132 -0.0976
 1837TIP3    H1 5475   2.793   2.608   3.903 -0.1726 -0.3659  0.2550
 1837TIP3    H2 5476   2.688   2.526   3.831  0.4775 -1.3145  0.3691
 1838TIP3   OH2 5477   2.026   3.860   1.134 -0.3999  0.1325 -0.4015
 1838TIP3    H1 5478   1.937   3.830   1.152 -0.5104  1.3974  1.4307
 1838TIP3    H2 5479   2.016   3.951   1.108  0.2687 -0.1498 -1.7664
 1839TIP3   OH2 5480   4.405   2.363   0.222  0.4334 -0.0976  0.2928
 1839TIP3    H1 5481   4.357   2.330   0.298  2.0082  1.1218  1.9157
 1839TIP3    H2 5482   4.495   2.372   0.253  1.1917  0.2382 -1.8216
 1840TIP3   OH2 5483   2.607   1.274   2.021 -0.6032  0.3832 -0.1315
 1840TIP3    H1 5484   2.576   1.187   1.993  0.6122 -0.2597  0.4283
 1840TIP3    H2 5485   2.690   1.256   2.064  0.6260  2.0256 -1.6637
 1841TIP3   OH2 5486   3.727   3.251   0.307  0.0016 -0.0269 -0.5874
 1841TIP3    H1 5487   3.726   3.205   0.223 -0.7637 -1.5899  0.2092
 1841TIP3    H2 5488   3.784   3.326   0.294 -0.1955 -0.1734 -2.5269
 1842TIP3   OH2 5489   0.179   4.018   3.530  0.0730 -0.1818 -0.0915
 1842TIP3    H1 5490   0.208   4.071   3.457  0.7486 -0.2151  0.1521
 1842TIP3    H2 5491   0.237   4.042   3.603 -0.1192 -0.6764  0.2340
 1843TIP3   OH2 5492   4.891   6.125   4.894 -0.4119 -0.0407  0.6962
 1843TIP3    H1 5493   4.970   6.159   4.937 -0.5255  0.4755  0.5055
 1843TIP3    H2 5494   4.834   6.201   4.884  1.2627  0.9611 -4.2137
 1844TIP3   OH2 5495   0.868   2.112   5.252  0.1490 -0.8056 -0.1770
 1844TIP3    H1 5496   0.788   2.116   5.199  0.2770 -3.4293 -0.7154
 1844TIP3    H2 5497   0.918   2.190   5.227 -2.4758  1.2897  0.6907
 1845TIP3   OH2 5498   0.855   5.492   0.399 -0.6907 -0.4075 -0.0251
 1845TIP3    H1 5499   0.823   5.401   0.394 -0.1134 -0.5504 -2.0817
 1845TIP3    H2 5500   0.950   5.484   0.399 -0.6330  0.2015 -0.7729
 1846TIP3   OH2 5501   1.826   2.389   1.207 -0.5235 -0.0917  0.1435
 1846TIP3    H1 5502   1.875   2.319   1.164 -0.6934  0.0714 -0.3193
 1846TIP3    H2 5503   1.739   2.386   1.167 -0.7795 -0.1401  0.7009
 1847TIP3   OH2 5504   3.041   2.680   1.584  0.6035 -0.6563 -0.1510
 1847TIP3    H1 5505   2.996   2.654   1.503  0.3304  0.1453 -0.2612
 1847TIP3    H2 5506   3.082   2.764   1.563 -1.2033  0.6280  1.1420
 1848TIP3   OH2 5507   7.211   4.446   0.664 -0.2363  0.7157  0.2955
 1848TIP3    H1 5508   7.229   4.535   0.694  1.7501  0.0887  1.1150
 1848TIP3    H2 5509   7.227   4.391   0.740 -0.1041 -0.4724 -0.5654
 1849TIP3   OH2 5510   1.262   2.203   2.726 -0.2418  0.0795  0.1762
 1849TIP3    H1 5511   1.286   2.143   2.797 -1.5015  0.8676  1.3088
 1849TIP3    H2 5512   1.345   2.223   2.683  0.2862 -2.1058  0.0257
 1850TIP3   OH2 5513   1.725   0.610   1.152  0.0201  0.4882 -0.1190
 1850TIP3    H1 5514   1.750   0.556   1.226 -1.7093  0.0498  0.1906
 1850TIP3    H2 5515   1.791   0.592   1.084  0.4178 -0.6911  0.5701
 1851TIP3   OH2 5516   3.928   2.190   2.521 -0.3291 -0.1822 -0.3220
 1851TIP3    H1 5517   3.929   2.108   2.472 -0.4249 -0.2439 -0.2202
 1851TIP3    H2 5518   4.014   2.194   2.563 -0.8251 -0.9130  0.8048
 1852TIP3   OH2 5519   1.726   0.721   5.805  0.2457  0.0965  0.6748
 1852TIP3    H1 5520   1.752   0.794   5.861  0.0750  1.7172 -1.2551
 1852TIP3    H2 5521   1.809   0.685   5.773  0.3115 -0.0862  1.0467
 1853TIP3   OH2 5522   0.799   0.689   5.700 -0.5015 -0.0285  0.3454
 1853TIP3    H1 5523   0.784   0.628   5.627  0.6984 -0.5967  0.5438
 1853TIP3    H2 5524   0.810   0.632   5.776 -2.2188  0.5810  1.0923
 1854TIP3   OH2 5525   4.853   1.064   1.345 -0.1392 -0.5880  0.2264
 1854TIP3    H1 5526   4.880   1.124   1.415 -0.3566 -0.0339 -0.1508
 1854TIP3    H2 5527   4.917   1.080   1.275 -0.9617  0.1653 -0.3751
 1855TIP3   OH2 5528   5.006   0.383   1.577  0.2559 -0.1337 -0.1735
 1855TIP3    H1 5529   4.993   0.381   1.671  0.8980  1.8701  0.0007
 1855TIP3    H2 5530   4.918   0.373   1.540 -0.1841  0.5670  0.6673
 1856TIP3   OH2 5531   6.097   5.834   2.086 -0.2243 -0.3458  0.0746
 1856TIP3    H1 5532   6.042   5.821   2.163  0.5549 -0.1653  0.6782
 1856TIP3    H2 5533   6.104   5.929   2.078 -0.4136 -0.3633 -0.3016
 1857TIP3   OH2 5534   6.651   3.637   3.171 -0.1169 -0.0134  0.8933
 1857TIP3    H1 5535   6.615   3.654   3.084  0.8363  0.3176  0.5563
 1857TIP3    H2 5536   6.633   3.544   3.187  0.4817 -0.3016 -0.0309
 1858TIP3   OH2 5537   0.183   2.798   2.085 -0.5365 -0.0121  0.3003
 1858TIP3    H1 5538   0.133   2.806   2.004  1.8796  1.1874 -1.2084
 1858TIP3    H2 5539   0.237   2.720   2.072  1.6694  1.5217 -0.4510
 1859TIP3   OH2 5540   1.994   5.782   1.707 -0.6681 -0.1449  0.1686
 1859TIP3    H1 5541   1.901   5.768   1.690 -0.6554 -0.1831  0.1315
 1859TIP3    H2 5542   1.996   5.824   1.793 -0.6698 -1.0729  0.6330
 1860TIP3   OH2 5543   2.284   1.652   2.629  0.1733 -0.4458 -0.2954
 1860TIP3    H1 5544   2.372   1.619   2.611  0.9553  0.7044  1.2007
 1860TIP3    H2 5545   2.282   1.669   2.723 -2.4363 -2.5372  0.1441
 1861TIP3   OH2 5546   4.867   4.968   4.955  0.0796  0.2743 -0.4831
 1861TIP3    H1 5547   4.832   4.933   5.038 -0.9400 -0.9037 -1.3699
 1861TIP3    H2 5548   4.935   5.030   4.982 -0.1455 -0.1695  1.2331
 1862TIP3   OH2 5549   4.020   3.005   2.238 -0.3310 -0.4091 -0.0062
 1862TIP3    H1 5550   3.956   3.064   2.199  1.2717  0.9805 -0.6810
 1862TIP3    H2 5551   4.052   3.051   2.315  0.2548 -0.8173  0.0088
 1863TIP3   OH2 5552   5.836   3.935   3.057 -0.2948 -0.2313 -0.0115
 1863TIP3    H1 5553   5.818   3.852   3.103  0.3223 -0.7540 -0.6977
 1863TIP3    H2 5554   5.813   4.002   3.121  1.4515 -0.9306  1.4608
 1864TIP3   OH2 5555   6.478   6.322   3.137  0.0387  0.5661 -0.4649
 1864TIP3    H1 5556   6.483   6.403   3.087  2.7216 -0.1389 -1.5139
 1864TIP3    H2 5557   6.505   6.254   3.076 -0.5246 -0.8961  0.8453
 1865TIP3   OH2 5558   6.657   3.247   3.966 -0.0731  0.0811  0.5183
 1865TIP3    H1 5559   6.577   3.298   3.975 -0.9343 -1.1559  0.1532
 1865TIP3    H2 5560   6.688   3.235   4.056 -0.3094  0.5409  0.6643
 1866TIP3   OH2 5561   4.411   5.056   4.892 -0.6193  0.3328 -0.6056
 1866TIP3    H1 5562   4.394   5.149   4.883 -1.5447  0.4625  1.8707
 1866TIP3    H2 5563   4.507   5.049   4.894 -0.5558  1.3636  0.3340
 1867TIP3   OH2 5564   3.258   3.328   4.676 -0.2197 -0.1462 -0.2066
 1867TIP3    H1 5565   3.212   3.409   4.698 -0.4156 -0.4127  0.3791
 1867TIP3    H2 5566   3.261   3.278   4.758  1.8249  0.2104  0.0017
 1868TIP3   OH2 5567   0.521   4.268   0.957 -0.1658  0.0363  0.2729
 1868TIP3    H1 5568   0.571   4.242   1.035  0.3417 -0.7453 -0.2996
 1868TIP3    H2 5569   0.584   4.268   0.886 -1.0830 -1.7941 -0.6339
 1869TIP3   OH2 5570   6.558   6.757   5.032 -0.3425 -0.3972 -0.0285
 1869TIP3    H1 5571   6.493   6.767   4.963 -0.2538 -0.5552 -0.1358
 1869TIP3    H2 5572   6.592   6.845   5.047  0.9485 -0.6083 -1.4703
 1870TIP3   OH2 5573   6.539   6.631   3.091 -0.0697  0.0078 -0.7363
 1870TIP3    H1 5574   6.498   6.624   3.005 -1.5732 -0.8119  0.0032
 1870TIP3    H2 5575   6.521   6.721   3.118 -0.6233 -0.0785 -0.7981
 1871TIP3   OH2 5576   3.483   0.512   2.563 -0.2179  0.2737 -0.2667
 1871TIP3    H1 5577   3.552   0.577   2.555 -1.3884  1.7037  0.7312
 1871TIP3    H2 5578   3.516   0.449   2.628  0.0374  1.1181  0.4384
 1872TIP3   OH2 5579   3.721   1.327   5.474 -0.5911  0.0871 -0.4323
 1872TIP3    H1 5580   3.759   1.414   5.482 -1.6137  0.4698  0.6198
 1872TIP3    H2 5581   3.670   1.330   5.393  0.0876  0.1683 -0.8603
 1873TIP3   OH2 5582   3.886   1.139   2.780 -0.0205  0.2653 -0.2452
 1873TIP3    H1 5583   3.909   1.220   2.827  2.6000 -1.0095  0.9234
 1873TIP3    H2 5584   3.929   1.148   2.695 -0.6182  0.5057 -0.5299
 1874TIP3   OH2 5585   2.783   0.624   1.285 -0.3934  0.1989  0.5203
 1874TIP3    H1 5586   2.716   0.605   1.219 -1.2975  2.1412  0.8211
 1874TIP3    H2 5587   2.752   0.581   1.364 -0.4596 -0.2518  0.2514
 1875TIP3   OH2 5588   5.885   4.785   1.582  0.6744  0.4057 -0.1063
 1875TIP3    H1 5589   5.799   4.767   1.545  1.3439 -0.6638 -1.2237
 1875TIP3    H2 5590   5.867   4.831   1.664 -0.8489  2.9499 -1.7613
 1876TIP3   OH2 5591   1.497   3.013   5.132 -0.0339 -0.2549 -0.1976
 1876TIP3    H1 5592   1.437   2.979   5.198  0.8712 -0.9633  0.2795
 1876TIP3    H2 5593   1.442   3.031   5.056 -1.0569  0.3625  0.6604
 1877TIP3   OH2 5594   3.132   0.980   3.665  0.2572  0.5052  0.1018
 1877TIP3    H1 5595   3.096   1.047   3.723 -2.8907 -1.5388  0.7440
 1877TIP3    H2 5596   3.181   0.922   3.723 -0.4489  0.0668  0.2780
 1878TIP3   OH2 5597   1.627   3.556   2.087  0.0535 -0.5705 -1.1103
 1878TIP3    H1 5598   1.547   3.604   2.110  2.0538  3.2663 -1.2349
 1878TIP3    H2 5599   1.623   3.548   1.992 -1.1147 -2.4006 -0.9441
 1879TIP3   OH2 5600   0.289   3.477   3.843 -0.1095 -0.1238 -0.2731
 1879TIP3    H1 5601   0.316   3.388   3.868 -1.3546 -0.4822 -0.1128
 1879TIP3    H2 5602   0.299   3.528   3.923  0.6903 -0.0953 -0.3870
 1880TIP3   OH2 5603   4.283   2.311   2.066 -0.7678  0.3389  0.2355
 1880TIP3    H1 5604   4.268   2.317   2.160 -1.6057  1.1276  0.0662
 1880TIP3    H2 5605   4.339   2.234   2.055 -2.7537 -1.3393  1.1663
 1881TIP3   OH2 5606   1.498   0.344   5.521 -0.1793  0.3438 -0.2175
 1881TIP3    H1 5607   1.589   0.323   5.498  0.2852  1.0300  0.9296
 1881TIP3    H2 5608   1.476   0.417   5.462  0.4303  0.9682  0.3013
 1882TIP3   OH2 5609   5.334   4.228   1.903 -0.1601 -0.0003 -0.0247
 1882TIP3    H1 5610   5.242   4.227   1.876 -0.9606  0.9140  2.3928
 1882TIP3    H2 5611   5.352   4.320   1.922  1.5168 -0.0555 -1.2177
 1883TIP3   OH2 5612   4.780   0.475   5.092  0.3408  0.2488 -0.0128
 1883TIP3    H1 5613   4.848   0.458   5.158  0.9239 -0.7396 -0.8264
 1883TIP3    H2 5614   4.765   0.389   5.051 -0.9780  0.5731 -0.2579
 1884TIP3   OH2 5615   0.161   0.480   3.412 -0.2794 -0.0971  0.3924
 1884TIP3    H1 5616   0.146   0.402   3.358 -1.0462  0.7222 -0.6434
 1884TIP3    H2 5617   0.157   0.553   3.349 -0.6036  0.8501  1.4859
 1885TIP3   OH2 5618   7.012   1.474   2.807 -0.3488 -0.1515 -0.3126
 1885TIP3    H1 5619   7.055   1.491   2.723 -2.9968  0.5299 -1.6740
 1885TIP3    H2 5620   7.020   1.555   2.856  2.4852 -1.0038  0.8292
 1886TIP3   OH2 5621   0.993   1.966   2.924  0.4560 -0.5152  0.5308
 1886TIP3    H1 5622   1.030   2.005   3.003 -1.5724 -0.4669  1.5349
 1886TIP3    H2 5623   0.941   2.036   2.884  1.6015 -0.4816 -0.9895
 1887TIP3   OH2 5624   2.688   5.162   0.524  0.7231 -0.1603  0.5967
 1887TIP3    H1 5625   2.721   5.232   0.580 -0.0161  0.7297 -0.0636
 1887TIP3    H2 5626   2.618   5.202   0.473  0.1796 -1.4151  0.3074
 1888TIP3   OH2 5627   5.630   2.213   5.826 -0.1645  0.3287  0.1870
 1888TIP3    H1 5628   5.539   2.195   5.849 -0.3179 -0.8909 -1.2343
 1888TIP3    H2 5629   5.681   2.169   5.895 -0.6243 -2.2936 -1.0078
 1889TIP3   OH2 5630   2.089   5.794   3.303  0.1202  0.2365 -0.1863
 1889TIP3    H1 5631   2.083   5.802   3.208  1.7274  1.4891 -0.2421
 1889TIP3    H2 5632   2.183   5.790   3.320 -0.0388  2.0441  1.4524
 1890TIP3   OH2 5633   4.637   5.729   1.684 -0.0338 -0.2167  0.3269
 1890TIP3    H1 5634   4.630   5.657   1.622  1.4483 -0.3738  0.3153
 1890TIP3    H2 5635   4.705   5.786   1.647 -0.6689  0.8173  0.7049
 1891TIP3   OH2 5636   2.029   6.596   4.360  0.0082 -0.5790 -0.3920
 1891TIP3    H1 5637   2.012   6.690   4.368 -1.0086 -0.8018  0.2794
 1891TIP3    H2 5638   2.121   6.587   4.383  0.5441  0.4180 -1.9835
 1892TIP3   OH2 5639   6.537   5.844   2.665  0.5562  0.2282 -0.3383
 1892TIP3    H1 5640   6.577   5.762   2.692 -0.7802 -0.5250 -0.5497
 1892TIP3    H2 5641   6.515   5.831   2.572 -1.1252  0.1836  0.0354
 1893TIP3   OH2 5642   6.905   0.846   4.111  0.1522 -0.1423  0.0910
 1893TIP3    H1 5643   6.927   0.864   4.020  2.0156  0.2543  0.5723
 1893TIP3    H2 5644   6.925   0.754   4.124  2.1758  0.3318  0.6571
 1894TIP3   OH2 5645   2.920   3.782   5.026 -0.1573 -0.1873  0.3364
 1894TIP3    H1 5646   2.903   3.827   4.944  0.2257 -0.9221 -0.1571
 1894TIP3    H2 5647   2.837   3.784   5.073 -0.4902 -0.1351 -0.2493
 1895TIP3   OH2 5648   1.955   5.048   4.834  0.8045 -0.3992  0.3955
 1895TIP3    H1 5649   1.885   5.026   4.895  0.4077  1.3316  0.6255
 1895TIP3    H2 5650   1.931   5.006   4.752 -0.6005  0.2918  0.4337
 1896TIP3   OH2 5651   6.497   5.748   1.442 -0.5532  0.0539 -0.0399
 1896TIP3    H1 5652   6.528   5.673   1.392  2.2718 -0.9134  2.8085
 1896TIP3    H2 5653   6.404   5.729   1.458 -0.7381 -1.1213 -2.1549
 1897TIP3   OH2 5654   6.740   3.128   1.915 -0.3854  0.6797 -0.4071
 1897TIP3    H1 5655   6.808   3.190   1.889  0.0499 -0.1595 -1.3556
 1897TIP3    H2 5656   6.766   3.100   2.003  2.2283 -1.7756 -1.7595
 1898TIP3   OH2 5657   3.402   5.050   2.765 -0.1122  0.6737 -0.3951
 1898TIP3    H1 5658   3.422   5.011   2.680  1.7284 -1.0173  0.7290
 1898TIP3    H2 5659   3.479   5.103   2.785  0.4742 -0.6644  1.1221
 1899TIP3   OH2 5660   0.946   5.884   2.880 -0.3066  0.1287 -0.5023
 1899TIP3    H1 5661   1.003   5.961   2.874 -1.0471  0.8814  1.3801
 1899TIP3    H2 5662   1.005   5.812   2.903 -0.1161  1.0657  2.3118
 1900TIP3   OH2 5663   1.002   3.368   2.056 -0.5317  0.3703 -0.5814
 1900TIP3    H1 5664   0.965   3.452   2.031 -0.6619  0.8958  1.2114
 1900TIP3    H2 5665   0.926   3.317   2.086 -0.0343  1.2058  2.4433
 1901TIP3   OH2 5666   3.723   1.112   2.070  0.0698  0.5302  0.1510
 1901TIP3    H1 5667   3.682   1.031   2.038 -1.1641  0.9582  0.6002
 1901TIP3    H2 5668   3.719   1.104   2.165  1.9687  0.1389  0.2378
 1902TIP3   OH2 5669   2.734   4.370   3.849 -0.1609 -0.2897  0.0366
 1902TIP3    H1 5670   2.818   4.324   3.856 -0.0149  0.1233  1.1444
 1902TIP3    H2 5671   2.706   4.354   3.759 -0.6401 -3.4618  0.6460
 1903TIP3   OH2 5672  -0.003   1.075   5.609  0.0423  0.4247  0.3289
 1903TIP3    H1 5673   0.084   1.037   5.619 -0.2320 -0.5785 -0.8259
 1903TIP3    H2 5674  -0.001   1.118   5.523 -0.3948  0.9796  0.5908
 1904TIP3   OH2 5675   6.548   4.171   3.319 -0.3641 -0.1196  0.4094
 1904TIP3    H1 5676   6.604   4.187   3.395  0.3670 -0.2325 -0.0964
 1904TIP3    H2 5677   6.534   4.076   3.319 -3.2046  0.1496  2.3569
 1905TIP3   OH2 5678   2.492   2.731   3.005 -0.1112 -0.3444 -0.1192
 1905TIP3    H1 5679   2.402   2.759   3.025 -0.3202 -1.2448  0.2195
 1905TIP3    H2 5680   2.503   2.753   2.912 -1.1312 -1.3790 -0.5078
 1906TIP3   OH2 5681   4.959   0.861   4.216 -0.1516  0.0787 -0.0341
 1906TIP3    H1 5682   4.868   0.837   4.197  0.0492  0.0173 -0.9548
 1906TIP3    H2 5683   4.952   0.928   4.285 -0.8000 -1.2392  1.2442
 1907TIP3   OH2 5684   0.050   1.862   4.266 -0.0639  0.1496  0.7462
 1907TIP3    H1 5685   0.004   1.861   4.350  0.0129  0.7100  0.7987
 1907TIP3    H2 5686   0.009   1.792   4.215  0.8741 -1.1976  1.7746
 1908TIP3   OH2 5687   4.649   5.467   3.936  0.2600  1.0756 -0.1714
 1908TIP3    H1 5688   4.626   5.374   3.935  0.8822  0.9115 -1.2375
 1908TIP3    H2 5689   4.641   5.493   4.028 -1.1967  0.3024 -0.0563
 1909TIP3   OH2 5690   6.820   3.403   1.735  0.2760 -0.0185 -0.0359
 1909TIP3    H1 5691   6.812   3.499   1.734 -3.1939 -0.1304 -2.5159
 1909TIP3    H2 5692   6.913   3.387   1.728  0.9378  3.1969 -0.3054
 1910TIP3   OH2 5693   2.737   6.613   0.722 -0.0224 -0.1947  0.1106
 1910TIP3    H1 5694   2.649   6.580   0.740  0.3724 -0.5168  1.6114
 1910TIP3    H2 5695   2.734   6.641   0.630 -1.6452 -0.2910  0.1045
 1911TIP3   OH2 5696   2.098   1.316   5.675 -1.0012  0.1249 -0.0419
 1911TIP3    H1 5697   2.090   1.293   5.582 -0.5558  1.4341 -0.4273
 1911TIP3    H2 5698   2.012   1.298   5.712 -0.4146 -3.2686  0.0070
 1912TIP3   OH2 5699   2.113   5.109   3.856  0.6393 -0.1655  0.4910
 1912TIP3    H1 5700   2.128   5.169   3.928 -1.0735  0.6476  0.2068
 1912TIP3    H2 5701   2.116   5.163   3.777 -0.0063 -0.6040  0.1546
 1913TIP3   OH2 5702   7.123   5.032   1.231 -0.6243  0.4586 -0.2140
 1913TIP3    H1 5703   7.173   4.955   1.205 -0.0042  0.5263  0.7453
 1913TIP3    H2 5704   7.145   5.098   1.165 -1.3824 -0.2455 -1.2084
 1914TIP3   OH2 5705   3.613   3.388   3.213  0.1816  0.0063 -0.5477
 1914TIP3    H1 5706   3.682   3.399   3.278 -0.5538 -1.0077  0.4467
 1914TIP3    H2 5707   3.657   3.348   3.138  0.6647 -0.6999  0.1040
 1915TIP3   OH2 5708   1.702   3.844   3.154 -0.4172  0.4298 -0.3413
 1915TIP3    H1 5709   1.765   3.832   3.083  0.0027  0.1224  0.0746
 1915TIP3    H2 5710   1.731   3.784   3.223  0.9738  2.7798  1.2939
 1916TIP3   OH2 5711   0.515   0.865   2.685  0.0092  0.1898 -0.2624
 1916TIP3    H1 5712   0.541   0.955   2.700  1.0183 -0.2811  0.9321
 1916TIP3    H2 5713   0.427   0.858   2.723 -1.2950  1.3231 -2.7666
 1917TIP3   OH2 5714   4.589   4.959   0.173 -0.5786 -0.1015 -0.4790
 1917TIP3    H1 5715   4.614   5.019   0.104  1.3152 -0.7657 -0.4153
 1917TIP3    H2 5716   4.608   5.006   0.254  0.8053 -0.7152 -0.4292
 1918TIP3   OH2 5717   4.594   3.612   1.969 -0.2978  0.0423 -0.4196
 1918TIP3    H1 5718   4.533   3.583   2.036  0.9622 -2.0672 -0.0853
 1918TIP3    H2 5719   4.634   3.531   1.937 -0.3317  1.0475 -3.2349
 1919TIP3   OH2 5720   1.938   2.628   5.228  0.3979  0.4271  0.0418
 1919TIP3    H1 5721   1.986   2.679   5.163 -0.0569  0.3464 -0.3627
 1919TIP3    H2 5722   1.971   2.660   5.313  0.6469  0.8694 -0.2175
 1920TIP3   OH2 5723   5.294   2.519   5.218 -0.0734 -0.1177  0.1216
 1920TIP3    H1 5724   5.362   2.480   5.163  1.5884  2.5304  0.1055
 1920TIP3    H2 5725   5.266   2.448   5.276  1.5987 -1.7110 -0.9247
 1921TIP3   OH2 5726   1.007   4.353   4.997 -0.0964  0.6682  0.3297
 1921TIP3    H1 5727   0.962   4.270   5.007  1.2123 -0.4295 -2.0661
 1921TIP3    H2 5728   1.089   4.342   5.045 -0.7897  1.3710  1.7247
 1922TIP3   OH2 5729   4.317   2.742   1.865 -0.5002 -0.0769  0.2707
 1922TIP3    H1 5730   4.288   2.719   1.777  1.3054 -0.1849 -0.3279
 1922TIP3    H2 5731   4.327   2.657   1.909  0.9309 -0.1824 -0.2154
 1923TIP3   OH2 5732   2.424   0.331   0.115 -0.1275  0.5382 -0.2524
 1923TIP3    H1 5733   2.501   0.323   0.058  0.0782 -1.2768  0.2165
 1923TIP3    H2 5734   2.447   0.280   0.192 -2.2573 -1.0692 -0.6074
 1924TIP3   OH2 5735   1.464   5.643   0.521 -0.3940  0.1356 -0.1226
 1924TIP3    H1 5736   1.488   5.708   0.454 -1.2603  0.6356  0.0273
 1924TIP3    H2 5737   1.526   5.657   0.592 -0.2883  0.5009 -0.2845
 1925TIP3   OH2 5738   2.601   1.651   2.707 -0.1212 -0.0211  0.3294
 1925TIP3    H1 5739   2.651   1.731   2.726  0.9388  0.1659 -2.7462
 1925TIP3    H2 5740   2.655   1.603   2.645 -1.6362 -2.2099  0.6092
 1926TIP3   OH2 5741   6.097   3.559   0.017 -0.2406  1.3690 -0.1849
 1926TIP3    H1 5742   6.123   3.646   0.047  0.9090  0.2519  2.2903
 1926TIP3    H2 5743   6.174   3.504   0.031 -1.9286 -0.7289  1.4459
 1927TIP3   OH2 5744   4.484   2.057   5.833  0.2699  0.5790  0.0748
 1927TIP3    H1 5745   4.564   2.088   5.876  0.5975 -0.5685  0.3394
 1927TIP3    H2 5746   4.465   2.123   5.766  1.3659  0.9370  0.1013
 1928TIP3   OH2 5747   1.966   1.668   5.803  0.4234 -0.2340 -0.0907
 1928TIP3    H1 5748   2.029   1.668   5.731  1.7021  0.8317  0.9858
 1928TIP3    H2 5749   2.013   1.706   5.877 -1.3297  0.1249  0.9037
 1929TIP3   OH2 5750   4.600   4.334   4.110  0.0902  0.4892  0.1241
 1929TIP3    H1 5751   4.667   4.365   4.050 -0.4123  0.5872 -0.3917
 1929TIP3    H2 5752   4.599   4.239   4.097 -0.2584  0.5440 -0.2851
 1930TIP3   OH2 5753   1.109   1.220   0.388 -0.1374  0.2816  0.0121
 1930TIP3    H1 5754   1.070   1.177   0.463  1.2427  0.0407  0.6274
 1930TIP3    H2 5755   1.064   1.183   0.312  1.0703 -2.4399  0.4939
 1931TIP3   OH2 5756   2.465   5.248   2.714 -0.4402  0.0899 -0.4376
 1931TIP3    H1 5757   2.558   5.257   2.732 -0.4829  1.3250 -0.7700
 1931TIP3    H2 5758   2.461   5.191   2.637 -0.0509 -1.1539  0.4238
 1932TIP3   OH2 5759   2.181   4.905   4.558 -0.2233  0.1217 -0.4378
 1932TIP3    H1 5760   2.244   4.897   4.486  0.6326  1.0956  0.1595
 1932TIP3    H2 5761   2.183   4.998   4.580 -0.1889 -0.2097  1.0689
 1933TIP3   OH2 5762   1.229   5.217   2.632 -0.4751 -0.0990  0.4860
 1933TIP3    H1 5763   1.286   5.288   2.663  0.8827 -1.5532  1.4427
 1933TIP3    H2 5764   1.282   5.170   2.568 -1.3949 -0.2334 -0.2005
 1934TIP3   OH2 5765   5.790   1.516   1.875  0.0660  0.2574  0.2739
 1934TIP3    H1 5766   5.875   1.559   1.879  0.4252 -0.3989 -0.1034
 1934TIP3    H2 5767   5.756   1.520   1.964  0.7765 -0.0392  0.5638
 1935TIP3   OH2 5768   6.539   5.884   5.647  0.2759  0.2827 -0.5970
 1935TIP3    H1 5769   6.484   5.806   5.649 -0.4871  0.7915  1.6370
 1935TIP3    H2 5770   6.628   5.851   5.641 -0.0763 -0.7194 -0.4640
 1936TIP3   OH2 5771   4.040   5.269   0.739 -0.4909 -0.3428 -0.3063
 1936TIP3    H1 5772   3.947   5.245   0.735 -0.2496 -1.2749 -0.6477
 1936TIP3    H2 5773   4.078   5.206   0.800 -0.0526 -0.0704 -0.2976
 1937TIP3   OH2 5774   5.700   5.422   4.706 -0.5357  0.6503 -0.4024
 1937TIP3    H1 5775   5.630   5.357   4.699  0.9479 -2.4342  5.8287
 1937TIP3    H2 5776   5.771   5.386   4.653 -1.5764  0.3505 -1.6388
 1938TIP3   OH2 5777   5.143   3.196   1.704 -0.3811 -0.1470  0.2433
 1938TIP3    H1 5778   5.135   3.291   1.718  1.8416 -0.1027  1.8171
 1938TIP3    H2 5779   5.071   3.158   1.753 -1.2689  0.6974 -0.3659
 1939TIP3   OH2 5780   5.355   0.428   4.295  0.5383 -0.0313  0.1977
 1939TIP3    H1 5781   5.277   0.434   4.241  0.2393 -0.0632  0.6225
 1939TIP3    H2 5782   5.370   0.518   4.325 -0.0789 -0.2249  1.1456
 1940TIP3   OH2 5783   7.027   0.759   5.275 -0.3132  0.1420 -0.5044
 1940TIP3    H1 5784   6.946   0.810   5.269 -1.2961 -1.4527 -1.3951
 1940TIP3    H2 5785   7.007   0.677   5.231  0.6688 -1.7329  2.3031
 1941TIP3   OH2 5786   3.705   0.003   4.576  0.0533  0.4003  0.8268
 1941TIP3    H1 5787   3.714   0.019   4.482  1.0425  1.0084  1.0088
 1941TIP3    H2 5788   3.794  -0.020   4.604 -0.5963 -1.8820  1.2541
 1942TIP3   OH2 5789   7.143   0.236   4.742  0.3704  0.1180 -0.3962
 1942TIP3    H1 5790   7.079   0.203   4.678 -2.6043  1.5665  1.5982
 1942TIP3    H2 5791   7.194   0.300   4.693 -1.5925  0.9460 -1.4952
 1943TIP3   OH2 5792   5.964   5.755   3.248 -0.0950  0.1727  0.3956
 1943TIP3    H1 5793   6.046   5.783   3.207  0.0592 -0.7769  0.0264
 1943TIP3    H2 5794   5.913   5.717   3.177 -1.0052  1.0279  0.5650
 1944TIP3   OH2 5795   6.618   1.627   4.274 -0.0663  0.0586  0.0449
 1944TIP3    H1 5796   6.582   1.661   4.356 -1.0022 -1.9755  0.5514
 1944TIP3    H2 5797   6.636   1.534   4.292  1.1440 -0.0805 -1.6076
 1945TIP3   OH2 5798   6.608   6.465   1.402 -0.5935  0.5684 -0.3963
 1945TIP3    H1 5799   6.515   6.489   1.391 -1.4376 -2.1603  0.0944
 1945TIP3    H2 5800   6.624   6.477   1.496 -0.3250  1.3454 -0.5331
 1946TIP3   OH2 5801   2.991   0.980   5.623 -0.3494 -0.3418 -0.3531
 1946TIP3    H1 5802   2.896   0.966   5.624 -0.1674 -1.7434  1.4543
 1946TIP3    H2 5803   3.007   1.042   5.694  0.0783  0.0437 -0.7822
 1947TIP3   OH2 5804   7.085   1.057   2.715  0.1674  0.1007  0.0044
 1947TIP3    H1 5805   7.153   1.009   2.762 -0.4326  0.0043  0.7998
 1947TIP3    H2 5806   7.046   0.992   2.657 -0.2690 -0.2489  0.6738
 1948TIP3   OH2 5807   1.079   5.995   1.767  1.0002 -0.2958  0.1547
 1948TIP3    H1 5808   1.038   5.957   1.844  0.2233 -0.6514 -0.4225
 1948TIP3    H2 5809   1.054   6.087   1.769  1.0879 -0.2789  0.4021
 1949TIP3   OH2 5810   6.424   1.233   0.789 -0.0350 -0.4024 -0.6328
 1949TIP3    H1 5811   6.443   1.140   0.789 -0.9062 -0.5858 -0.7281
 1949TIP3    H2 5812   6.335   1.240   0.824  0.8743  0.5803  1.7282
 1950TIP3   OH2 5813   5.421   5.391   3.762 -0.1227  0.1475  0.8362
 1950TIP3    H1 5814   5.457   5.431   3.841 -2.5674 -0.6620  2.4532
 1950TIP3    H2 5815   5.498   5.371   3.708  1.4440  3.0572  1.8180
 1951TIP3   OH2 5816   3.189   5.529   3.662  0.4349  0.0035 -0.3081
 1951TIP3    H1 5817   3.099   5.542   3.693  0.8736  0.3403  0.8400
 1951TIP3    H2 5818   3.188   5.441   3.624 -0.1624 -0.3398  0.4801
 1952TIP3   OH2 5819   5.281   0.420   2.209 -0.0881  0.1277 -0.0302
 1952TIP3    H1 5820   5.270   0.509   2.242 -0.2815  0.1570 -0.1718
 1952TIP3    H2 5821   5.330   0.375   2.278  1.1439  0.6784 -0.5042
 1953TIP3   OH2 5822   5.552   3.729   4.383  0.7473 -0.2614  0.0547
 1953TIP3    H1 5823   5.479   3.718   4.323  1.4693  0.2416 -0.9336
 1953TIP3    H2 5824   5.511   3.739   4.469 -0.3072 -0.7168 -0.3798
 1954TIP3   OH2 5825   2.912   6.528   0.227 -0.1104 -0.0889  0.2356
 1954TIP3    H1 5826   2.985   6.587   0.209 -0.7089  0.8328  0.7360
 1954TIP3    H2 5827   2.906   6.473   0.150 -0.0053  1.0142 -0.5783
 1955TIP3   OH2 5828   2.098   5.126   0.966  0.0259 -0.3656 -0.2690
 1955TIP3    H1 5829   2.145   5.131   0.883 -0.2106 -1.8110 -0.5224
 1955TIP3    H2 5830   2.008   5.103   0.942 -0.2277 -0.0509  0.3501
 1956TIP3   OH2 5831   2.621   2.602   5.378 -0.3547  0.2227  0.6734
 1956TIP3    H1 5832   2.589   2.528   5.430 -1.4102  0.1625 -0.0393
 1956TIP3    H2 5833   2.712   2.578   5.357 -0.4622 -0.5410  1.0300
 1957TIP3   OH2 5834   3.424   0.549   3.163 -0.8484 -0.2810 -0.2164
 1957TIP3    H1 5835   3.361   0.610   3.201 -0.2696 -0.2649  0.7263
 1957TIP3    H2 5836   3.505   0.564   3.212 -0.7422 -1.9269  0.1524
 1958TIP3   OH2 5837   1.417   2.606   0.503  0.6418  0.2556  0.1185
 1958TIP3    H1 5838   1.501   2.563   0.518  0.7317  0.4901  0.3024
 1958TIP3    H2 5839   1.356   2.559   0.559  1.2264  1.9506  2.3045
 1959TIP3   OH2 5840   0.635   0.476   1.708  0.6422 -0.1330 -0.2382
 1959TIP3    H1 5841   0.684   0.461   1.789  1.3229 -0.8520 -0.7671
 1959TIP3    H2 5842   0.697   0.518   1.649 -0.3031  1.8466  0.1035
 1960TIP3   OH2 5843   5.316   2.336   4.881  0.0330 -0.1403  0.5972
 1960TIP3    H1 5844   5.374   2.268   4.846 -0.3684  0.8146 -2.1726
 1960TIP3    H2 5845   5.370   2.415   4.884 -0.4005  0.1609  0.5938
 1961TIP3   OH2 5846   5.028   2.323   1.056 -0.4161  0.1116 -0.0620
 1961TIP3    H1 5847   4.968   2.329   0.982 -1.2496 -1.3882  0.4428
 1961TIP3    H2 5848   5.115   2.336   1.018 -0.9261  0.5935 -1.0864
 1962TIP3   OH2 5849   0.088   3.546   1.060  0.4283 -0.0147  0.2881
 1962TIP3    H1 5850   0.099   3.628   1.109  0.7800  1.1333 -1.6261
 1962TIP3    H2 5851   0.007   3.508   1.095  0.4771  0.9325  1.4893
 1963TIP3   OH2 5852   5.986   5.798   4.269 -0.8273  0.2455  0.0973
 1963TIP3    H1 5853   6.057   5.857   4.295  0.9780 -1.5195 -0.5656
 1963TIP3    H2 5854   5.984   5.804   4.173 -0.1836 -1.2090 -0.0286
 1964TIP3   OH2 5855   5.528   3.009   5.692  0.0369  0.9218 -0.4836
 1964TIP3    H1 5856   5.524   2.939   5.626  2.5095 -0.2980  0.5211
 1964TIP3    H2 5857   5.445   3.004   5.738  0.1182 -1.3712 -0.4785
 1965TIP3   OH2 5858   6.223   2.532   4.634 -0.0707  0.5756  0.4122
 1965TIP3    H1 5859   6.165   2.574   4.570  0.5624 -1.4653 -1.6432
 1965TIP3    H2 5860   6.198   2.439   4.631  0.5191  0.2905  2.6086
 1966TIP3   OH2 5861   0.359   6.164   2.276 -0.2721 -0.4568 -1.0069
 1966TIP3    H1 5862   0.351   6.124   2.189  0.7449  1.0251 -1.8307
 1966TIP3    H2 5863   0.452   6.186   2.284 -0.6016  0.7266 -0.1397
 1967TIP3   OH2 5864   1.275   4.098   3.581  0.1093  0.4403 -0.0314
 1967TIP3    H1 5865   1.308   4.164   3.643 -0.3901  0.1909  0.5029
 1967TIP3    H2 5866   1.343   4.031   3.580 -1.4417 -1.3850  3.0767
 1968TIP3   OH2 5867   4.992   5.019   3.340 -0.2701  0.3733 -0.3207
 1968TIP3    H1 5868   5.025   5.108   3.344 -0.9084  0.7119 -1.7846
 1968TIP3    H2 5869   5.064   4.968   3.303  0.2936  0.1394  1.0280
 1969TIP3   OH2 5870   2.372   6.114   2.511 -0.4671  0.5858  0.2455
 1969TIP3    H1 5871   2.374   6.077   2.423 -1.1857  2.9793 -0.8601
 1969TIP3    H2 5872   2.281   6.105   2.539 -0.6056  1.3558  0.0428
 1970TIP3   OH2 5873   5.099   5.746   0.816  0.0182 -0.2335 -0.2474
 1970TIP3    H1 5874   5.168   5.812   0.810 -0.9617  1.0998  1.8384
 1970TIP3    H2 5875   5.106   5.713   0.905 -1.0935 -1.1751 -0.4882
 1971TIP3   OH2 5876   4.463   6.626   3.560  0.0663 -0.0530  0.1427
 1971TIP3    H1 5877   4.379   6.671   3.557  0.8358  1.3934 -1.5168
 1971TIP3    H2 5878   4.445   6.539   3.524 -0.6074  0.4609 -0.7938
 1972TIP3   OH2 5879   0.733   1.200   4.378 -0.2230 -0.4609 -0.6269
 1972TIP3    H1 5880   0.674   1.149   4.324 -1.0149 -1.1258  0.8174
 1972TIP3    H2 5881   0.764   1.139   4.445  0.8033  0.3063 -0.3635
 1973TIP3   OH2 5882   2.700   6.803   4.634  0.0544  0.3318 -0.3938
 1973TIP3    H1 5883   2.764   6.768   4.696  1.7575 -0.4355 -2.4341
 1973TIP3    H2 5884   2.618   6.759   4.656  0.2645  0.9937  2.0133
 1974TIP3   OH2 5885   0.686   2.044   3.222  0.5267  0.3764 -0.2411
 1974TIP3    H1 5886   0.771   2.085   3.211  0.4903  0.7340  0.6901
 1974TIP3    H2 5887   0.702   1.970   3.280  0.3937 -0.2564 -0.9925
 1975TIP3   OH2 5888   4.972   4.189   1.173  0.0767 -0.4324 -0.1057
 1975TIP3    H1 5889   5.015   4.225   1.250  0.2860  0.8521 -0.7989
 1975TIP3    H2 5890   5.026   4.114   1.148  1.3685  0.5766 -0.3907
 1976TIP3   OH2 5891   4.330   0.924   0.835 -0.1107  0.3767 -0.5344
 1976TIP3    H1 5892   4.394   0.860   0.867 -0.4096  1.3440  2.3320
 1976TIP3    H2 5893   4.247   0.876   0.837 -0.1129  0.3949  0.1555
 1977TIP3   OH2 5894   1.663   0.552   1.436 -0.2493 -0.2882 -0.7384
 1977TIP3    H1 5895   1.577   0.518   1.414 -1.1347  1.0931  0.3712
 1977TIP3    H2 5896   1.648   0.645   1.457  1.5614  0.0809 -0.8656
 1978TIP3   OH2 5897   2.632   5.547   0.603  0.9595  0.1099  0.2274
 1978TIP3    H1 5898   2.575   5.547   0.680 -0.6938  0.8581 -0.9293
 1978TIP3    H2 5899   2.715   5.513   0.635  0.0484 -0.5013  2.1271
 1979TIP3   OH2 5900   2.972   4.761   2.258 -0.5699 -0.1251 -0.2907
 1979TIP3    H1 5901   2.960   4.733   2.349  1.0548  0.1183  0.0302
 1979TIP3    H2 5902   2.888   4.744   2.217 -1.1019 -0.9868  1.0646
 1980TIP3   OH2 5903   5.556   3.838   2.810  0.0428 -0.7136  0.8166
 1980TIP3    H1 5904   5.612   3.767   2.841  1.8004 -0.0424 -0.5707
 1980TIP3    H2 5905   5.496   3.797   2.748 -0.6287 -1.3515  1.8672
 1981TIP3   OH2 5906   1.605   3.373   2.852 -0.3648 -0.7840 -0.3352
 1981TIP3    H1 5907   1.677   3.311   2.837  1.1168 -0.0234  2.8005
 1981TIP3    H2 5908   1.625   3.412   2.937 -5.2454 -1.5537  1.4902
 1982TIP3   OH2 5909   0.982   1.521   5.106 -0.4919 -0.1140 -0.3394
 1982TIP3    H1 5910   0.916   1.526   5.036 -0.5717  0.6761 -0.2238
 1982TIP3    H2 5911   1.061   1.558   5.066 -0.7538  1.1045  0.2105
 1983TIP3   OH2 5912   4.634   0.949   4.540  0.2285  0.1485 -0.9932
 1983TIP3    H1 5913   4.586   0.916   4.617  1.9184 -1.1565 -0.4280
 1983TIP3    H2 5914   4.676   1.029   4.571  1.2502 -0.5961 -0.3727
 1984TIP3   OH2 5915   3.672   0.311   4.338  0.0978  0.7797 -0.1850
 1984TIP3    H1 5916   3.701   0.359   4.260  0.0465  1.6131  0.2953
 1984TIP3    H2 5917   3.577   0.303   4.327 -0.0736  1.8893  0.3064
 1985TIP3   OH2 5918   6.071   0.101   5.643 -0.0905 -0.3546  0.2180
 1985TIP3    H1 5919   6.146   0.051   5.610 -0.1587  0.3996 -1.1706
 1985TIP3    H2 5920   6.095   0.193   5.627 -1.3518 -0.1119 -0.3722
 1986TIP3   OH2 5921   3.834   6.587   1.313  0.0579 -0.8086 -0.2647
 1986TIP3    H1 5922   3.913   6.622   1.354  0.2244 -0.7238 -0.6559
 1986TIP3    H2 5923   3.766   6.597   1.380  0.0381  0.5376 -0.4581
 1987TIP3   OH2 5924   6.054   5.403   0.755 -0.0688  0.2542  0.1490
 1987TIP3    H1 5925   6.061   5.428   0.663 -2.0515 -1.2643 -0.4873
 1987TIP3    H2 5926   5.986   5.336   0.756  0.0895  0.0506  2.7060
 1988TIP3   OH2 5927   5.989   5.077   5.549  0.3290  0.1322  0.2237
 1988TIP3    H1 5928   6.019   5.037   5.467  1.9978  1.8601 -0.0995
 1988TIP3    H2 5929   5.952   5.161   5.521  1.7079  1.1331  1.2477
 1989TIP3   OH2 5930   2.987   0.522   1.946 -0.1096 -0.1605  0.2035
 1989TIP3    H1 5931   2.989   0.437   1.989  0.3675 -0.7162 -0.8546
 1989TIP3    H2 5932   3.062   0.570   1.982  0.3980 -0.6876 -0.1358
 1990TIP3   OH2 5933   3.818   5.094   3.629 -0.1531  0.0011  0.0472
 1990TIP3    H1 5934   3.759   5.028   3.664  0.1509 -0.7670 -0.8380
 1990TIP3    H2 5935   3.830   5.156   3.700  1.1137 -1.9430  1.6293
 1991TIP3   OH2 5936   2.690   3.956   3.681  0.0146 -0.6402  0.6487
 1991TIP3    H1 5937   2.650   4.004   3.609  0.5988 -0.4039  0.4738
 1991TIP3    H2 5938   2.675   4.010   3.758  2.0337  0.6518  0.2120
 1992TIP3   OH2 5939   6.373   5.746   4.791  0.3658  0.5147 -0.5077
 1992TIP3    H1 5940   6.451   5.742   4.846  0.8102 -1.5223 -1.2189
 1992TIP3    H2 5941   6.304   5.707   4.844  0.5642 -0.5198 -0.9838
 1993TIP3   OH2 5942   5.370   0.951   2.548 -0.4527  0.1553  0.2511
 1993TIP3    H1 5943   5.410   0.865   2.559  0.3998  0.2675 -1.5654
 1993TIP3    H2 5944   5.354   0.958   2.454 -1.2441  1.6713  0.4659
 1994TIP3   OH2 5945   1.808   2.686   3.144  0.5698 -0.1723 -0.5650
 1994TIP3    H1 5946   1.730   2.673   3.090  1.0007 -0.3513 -1.1610
 1994TIP3    H2 5947   1.802   2.776   3.175 -0.4062 -0.5122  0.2618
 1995TIP3   OH2 5948   3.749   3.726   1.180 -0.3768 -0.3573 -0.0502
 1995TIP3    H1 5949   3.698   3.729   1.261 -0.1073 -0.3912  0.1239
 1995TIP3    H2 5950   3.725   3.642   1.140  0.2333 -0.8056  0.4968
 1996TIP3   OH2 5951   2.652   1.616   4.259 -0.2876 -0.1910  0.0345
 1996TIP3    H1 5952   2.740   1.584   4.278 -0.3992 -0.8252 -0.4824
 1996TIP3    H2 5953   2.609   1.543   4.216 -0.7898  0.4138 -0.5087
 1997TIP3   OH2 5954   5.334   6.672   1.942  0.1168 -0.8527  0.0540
 1997TIP3    H1 5955   5.354   6.600   2.002 -0.7113 -2.0525 -1.0490
 1997TIP3    H2 5956   5.252   6.709   1.975  1.5005  0.9403  1.7647
 1998TIP3   OH2 5957   3.002   2.455   4.518  0.5797  0.3938  0.4597
 1998TIP3    H1 5958   3.054   2.533   4.540  0.0582  0.2187  2.5219
 1998TIP3    H2 5959   2.913   2.476   4.546  0.0725 -0.3444 -0.5080
 1999TIP3   OH2 5960   6.947   0.101   4.587  0.1769 -0.2475  0.7162
 1999TIP3    H1 5961   6.871   0.075   4.639  0.6138  0.5103  1.7534
 1999TIP3    H2 5962   6.910   0.127   4.503 -0.5074 -1.7614  0.5088
 2000TIP3   OH2 5963   6.823   5.055   1.668 -0.5947 -0.2245 -0.1209
 2000TIP3    H1 5964   6.794   4.968   1.640 -0.1737 -0.0189 -1.2522
 2000TIP3    H2 5965   6.851   5.098   1.588 -0.4784  0.8445  0.4733
 2001TIP3   OH2 5966   6.796   0.160   3.497  0.6331 -0.0147  0.5585
 2001TIP3    H1 5967   6.725   0.107   3.532  0.9074 -0.1873  0.8523
 2001TIP3    H2 5968   6.875   0.127   3.539  0.7984  0.6878  0.8241
 2002TIP3   OH2 5969   5.462   2.495   4.012 -0.2426  0.5044  0.3879
 2002TIP3    H1 5970   5.370   2.518   4.020 -0.0179  1.7037 -0.3021
 2002TIP3    H2 5971   5.473   2.469   3.921  0.1828  0.7710  0.3599
 2003TIP3   OH2 5972   1.985   4.333   1.889 -0.5484 -0.4171 -0.0944
 2003TIP3    H1 5973   1.984   4.421   1.926 -1.5003 -0.5292  0.1845
 2003TIP3    H2 5974   2.039   4.282   1.950  0.8084  0.1582 -0.7644
 2004TIP3   OH2 5975   1.878   1.162   4.149  0.5984 -0.1935 -0.2353
 2004TIP3    H1 5976   1.967   1.191   4.168  0.7524 -0.5934 -0.3249
 2004TIP3    H2 5977   1.856   1.104   4.222  0.5353 -0.3537 -0.3807
 2005TIP3   OH2 5978   5.471   1.331   5.410  0.8038 -0.0015  0.2793
 2005TIP3    H1 5979   5.489   1.280   5.331 -0.9044  0.5633 -0.5185
 2005TIP3    H2 5980   5.526   1.409   5.400 -0.5016  0.8002 -1.1602
 2006TIP3   OH2 5981   0.319   6.275   3.300 -0.2013 -0.5231  0.0360
 2006TIP3    H1 5982   0.240   6.319   3.270  0.2417 -0.3536 -0.9135
 2006TIP3    H2 5983   0.372   6.344   3.339 -0.7970 -0.7510  1.3006
 2007TIP3   OH2 5984   6.451   4.534   1.813  0.4222 -0.1752  0.8599
 2007TIP3    H1 5985   6.509   4.602   1.849  0.1046  1.4697 -1.5264
 2007TIP3    H2 5986   6.499   4.497   1.740  0.1783 -1.8876  1.5306
 2008TIP3   OH2 5987   1.193   4.434   5.921  0.2141  0.1526  1.0365
 2008TIP3    H1 5988   1.273   4.414   5.871  0.0083 -0.9399  1.1298
 2008TIP3    H2 5989   1.138   4.481   5.859 -0.5589 -2.2798 -0.2256
 2009TIP3   OH2 5990   2.872   2.679   1.136 -0.1956 -0.5812 -0.0181
 2009TIP3    H1 5991   2.792   2.629   1.149 -0.4238 -0.0551  0.6492
 2009TIP3    H2 5992   2.886   2.725   1.219  1.4907 -1.6338  0.3254
 2010TIP3   OH2 5993   2.237   3.927   4.924 -0.1917 -0.3955  0.3901
 2010TIP3    H1 5994   2.165   3.871   4.895 -0.8350  0.0938  1.0019
 2010TIP3    H2 5995   2.247   3.907   5.017 -1.7185  1.8065  1.1266
 2011TIP3   OH2 5996   6.612   3.589   0.868  0.1662  0.1763 -0.3344
 2011TIP3    H1 5997   6.680   3.534   0.906 -0.4216 -0.7511 -0.6108
 2011TIP3    H2 5998   6.643   3.679   0.882  1.2818 -0.2273 -0.1650
 2012TIP3   OH2 5999   3.582   0.294   3.581 -0.0364 -0.0721 -0.1621
 2012TIP3    H1 6000   3.649   0.242   3.538 -1.4978 -2.1452 -0.1244
 2012TIP3    H2 6001   3.505   0.236   3.583 -0.8068  0.8572  2.8873
 2013TIP3   OH2 6002   6.103   5.185   1.458 -0.3104  0.8845  0.0796
 2013TIP3    H1 6003   6.016   5.154   1.481  0.3036 -1.8384 -0.9065
 2013TIP3    H2 6004   6.161   5.113   1.482  1.1800  0.9345 -2.9417
 2014TIP3   OH2 6005   1.412   4.734   0.148  0.1899  0.9155  0.0077
 2014TIP3    H1 6006   1.457   4.650   0.148  1.1341  1.4016  0.1237
 2014TIP3    H2 6007   1.481   4.797   0.171  0.1781  2.0648 -2.8038
 2015TIP3   OH2 6008   2.401   1.708   5.503  0.1061  0.3943 -0.3873
 2015TIP3    H1 6009   2.439   1.644   5.442 -1.6269 -0.6074 -0.4751
 2015TIP3    H2 6010   2.309   1.681   5.512 -0.0863  1.5115  1.3982
 2016TIP3   OH2 6011   6.943   6.722   4.689  0.0027  0.0141  0.0561
 2016TIP3    H1 6012   6.931   6.711   4.594 -0.5741  1.5153 -0.0834
 2016TIP3    H2 6013   6.863   6.686   4.728 -0.6178  1.0788 -0.1837
 2017TIP3   OH2 6014   3.061   0.728  -0.019 -0.8980 -0.4055 -0.1282
 2017TIP3    H1 6015   3.085   0.821  -0.017  0.7982 -0.8154 -0.0839
 2017TIP3    H2 6016   3.077   0.697   0.071  1.9236 -1.4953 -0.9158
 2018TIP3   OH2 6017   1.220   2.327   1.722  0.0753  0.1380 -0.1048
 2018TIP3    H1 6018   1.239   2.417   1.694  0.8570 -0.7388 -2.7075
 2018TIP3    H2 6019   1.131   2.311   1.692  1.0144 -0.9022 -2.6493
 2019TIP3   OH2 6020   5.677   0.824   5.225  0.4282  0.2012  0.6805
 2019TIP3    H1 6021   5.734   0.857   5.295 -0.4980  0.1570  1.4713
 2019TIP3    H2 6022   5.721   0.850   5.144  1.9595 -0.4955  1.2569
 2020TIP3   OH2 6023   2.038   2.309   1.783 -0.4368  0.0903  0.2144
 2020TIP3    H1 6024   2.035   2.327   1.877  0.4175  0.9888  0.0864
 2020TIP3    H2 6025   2.005   2.389   1.742  3.5282  1.6594 -0.3723
 2021TIP3   OH2 6026   1.935   4.799   5.848  0.2626  0.4932  0.1607
 2021TIP3    H1 6027   1.945   4.772   5.939  1.0683 -1.3861 -0.4264
 2021TIP3    H2 6028   1.844   4.780   5.827 -0.0501  1.3663  0.6835
 2022TIP3   OH2 6029   2.278   0.809   3.155  0.0824  0.2284 -0.0335
 2022TIP3    H1 6030   2.213   0.857   3.104  1.6904  2.7139  0.1221
 2022TIP3    H2 6031   2.278   0.851   3.241 -0.1544 -1.6835  0.9710
 2023TIP3   OH2 6032   5.552   6.630   3.088 -0.0595  0.2674  0.0822
 2023TIP3    H1 6033   5.489   6.646   3.018  0.9916  1.9635 -0.5461
 2023TIP3    H2 6034   5.500   6.632   3.169 -1.2058 -1.1829 -0.5798
 2024TIP3   OH2 6035   6.625   4.426   2.208  0.1825  0.2366 -0.5419
 2024TIP3    H1 6036   6.585   4.378   2.280 -0.4084  1.4510 -0.0362
 2024TIP3    H2 6037   6.688   4.484   2.250 -0.5962  1.3899 -0.9315
 2025TIP3   OH2 6038   5.179   5.389   2.873 -0.0130 -0.6364 -0.1476
 2025TIP3    H1 6039   5.143   5.472   2.903 -0.1068 -0.7383  0.0265
 2025TIP3    H2 6040   5.106   5.343   2.832  0.3485 -0.0647 -1.4891
 2026TIP3   OH2 6041   2.934   1.910   4.276 -0.5273  0.1612  0.7509
 2026TIP3    H1 6042   2.939   2.001   4.248 -0.8097  0.8385  2.7370
 2026TIP3    H2 6043   2.845   1.900   4.311 -0.2574 -0.6592  1.2400
 2027TIP3   OH2 6044   6.188   6.313   4.823  0.1662 -0.9127 -0.3602
 2027TIP3    H1 6045   6.210   6.383   4.762  0.9045 -1.5089 -0.7893
 2027TIP3    H2 6046   6.181   6.356   4.908  1.2113 -0.4140 -0.5159
 2028TIP3   OH2 6047   5.686   3.104   4.643 -0.4811  0.8439 -0.1934
 2028TIP3    H1 6048   5.744   3.032   4.617  1.6805  1.9544  1.2255
 2028TIP3    H2 6049   5.601   3.063   4.657  0.0490 -0.9699 -1.8094
 2029TIP3   OH2 6050   1.520   2.938   0.750  0.0832 -0.3747 -0.2659
 2029TIP3    H1 6051   1.558   2.850   0.759  3.1190  0.5935 -2.1978
 2029TIP3    H2 6052   1.504   2.948   0.656 -0.5932  1.0149 -0.0298
 2030TIP3   OH2 6053   5.439   6.055   2.083  0.3716  0.3048 -0.0083
 2030TIP3    H1 6054   5.521   6.084   2.123  1.4725 -0.9340 -1.2353
 2030TIP3    H2 6055   5.461   5.970   2.045 -0.8992  0.8800 -2.1799
 2031TIP3   OH2 6056   3.061   6.581   4.701  0.0202  0.0679  0.3019
 2031TIP3    H1 6057   2.994   6.621   4.757 -1.2287 -0.0330 -1.0390
 2031TIP3    H2 6058   3.080   6.648   4.635  2.2597  0.5944  1.3945
 2032TIP3   OH2 6059   5.945   6.344   5.646 -0.0060 -0.4117  0.3388
 2032TIP3    H1 6060   5.925   6.367   5.736 -0.3260  0.7874 -0.0201
 2032TIP3    H2 6061   5.936   6.426   5.597  0.6635 -0.9282 -0.7002
 2033TIP3   OH2 6062   5.778   6.128   3.838 -0.4962 -0.1100 -0.5642
 2033TIP3    H1 6063   5.833   6.154   3.764 -1.5220  2.8660 -0.4198
 2033TIP3    H2 6064   5.775   6.206   3.894  1.9438 -2.7163  3.8325
 2034TIP3   OH2 6065   6.498   0.305   1.927  0.3534 -0.5390  0.1267
 2034TIP3    H1 6066   6.425   0.317   1.866  0.1616 -0.8358  0.2936
 2034TIP3    H2 6067   6.498   0.383   1.982  0.4659 -0.3152 -0.1894
 2035TIP3   OH2 6068   2.089   5.001   5.745 -0.0958 -0.3778 -0.3775
 2035TIP3    H1 6069   2.051   4.922   5.783  0.8453 -0.4671  0.4163
 2035TIP3    H2 6070   2.013   5.055   5.721 -0.7303 -1.1203 -0.0750
 2036TIP3   OH2 6071   1.960   4.329   0.920 -0.2377 -0.4083  0.1480
 2036TIP3    H1 6072   2.052   4.327   0.895  0.1156  2.7772  0.7984
 2036TIP3    H2 6073   1.915   4.279   0.851  1.8148 -0.9851 -0.8379
 2037TIP3   OH2 6074   1.312   2.641   0.238  0.3002  0.2753 -0.2463
 2037TIP3    H1 6075   1.402   2.643   0.204  0.5259 -0.4132  0.3036
 2037TIP3    H2 6076   1.322   2.627   0.332 -0.3429  1.6931  0.0531
 2038TIP3   OH2 6077   1.698   5.532   3.129  0.2365 -0.5419 -0.1085
 2038TIP3    H1 6078   1.756   5.532   3.205  1.3850  0.2004 -0.9455
 2038TIP3    H2 6079   1.685   5.439   3.108 -3.6915 -1.0829  3.5501
 2039TIP3   OH2 6080   2.028   5.613   4.470  0.2077  0.0134 -0.2321
 2039TIP3    H1 6081   1.972   5.659   4.407  2.0052  1.0921 -1.1232
 2039TIP3    H2 6082   2.020   5.663   4.551  0.2245  0.4176 -0.4799
 2040TIP3   OH2 6083   4.111   3.706   4.268  0.3221 -0.1015  0.0507
 2040TIP3    H1 6084   4.126   3.677   4.358 -3.5865 -1.5558  0.4352
 2040TIP3    H2 6085   4.128   3.628   4.215 -3.3942 -1.3086  0.3516
 2041TIP3   OH2 6086   6.285   2.101   0.401 -0.0320  1.1784 -0.8926
 2041TIP3    H1 6087   6.219   2.131   0.464  0.3587 -1.0658  0.7392
 2041TIP3    H2 6088   6.367   2.138   0.434  0.0510  0.7091 -0.5583
 2042TIP3   OH2 6089   5.758   4.783   4.278 -0.5346  0.2799  0.5974
 2042TIP3    H1 6090   5.732   4.739   4.197 -1.7629 -1.0242  1.6687
 2042TIP3    H2 6091   5.720   4.871   4.270 -0.2101  0.3457 -0.4410
 2043TIP3   OH2 6092   6.812   6.020   0.389 -0.0488  0.3182  1.2140
 2043TIP3    H1 6093   6.757   6.078   0.442  1.4857  0.9834  2.1354
 2043TIP3    H2 6094   6.779   6.030   0.300 -1.6753  0.3723  1.7833
 2044TIP3   OH2 6095   4.164   4.121   5.317  0.3865  0.1068 -0.0233
 2044TIP3    H1 6096   4.227   4.123   5.245  0.8425  0.2050  0.3802
 2044TIP3    H2 6097   4.130   4.032   5.317  1.8722 -0.4812  0.9230
 2045TIP3   OH2 6098   5.968   4.813   4.861  0.0146 -0.2179 -0.4260
 2045TIP3    H1 6099   5.952   4.903   4.887 -0.8372 -0.8686  1.4713
 2045TIP3    H2 6100   5.989   4.818   4.768 -2.2852  1.7114 -0.9282
 2046TIP3   OH2 6101   6.080   5.286   2.474  0.4557  0.3656 -0.5273
 2046TIP3    H1 6102   6.048   5.376   2.482 -0.8757 -0.1338 -0.0482
 2046TIP3    H2 6103   6.082   5.269   2.380 -1.2943  0.2292 -0.5767
 2047TIP3   OH2 6104   0.712   6.382   1.149 -0.3076  0.3543 -0.3373
 2047TIP3    H1 6105   0.668   6.326   1.214  0.3108 -0.7750 -0.8732
 2047TIP3    H2 6106   0.725   6.325   1.074 -0.1423  1.3907 -1.1029
 2048TIP3   OH2 6107   0.430   2.512   1.470 -0.0523 -0.6692 -0.4177
 2048TIP3    H1 6108   0.381   2.528   1.389  0.5601 -1.2911 -0.9281
 2048TIP3    H2 6109   0.465   2.424   1.460  1.4331 -0.1389 -0.2289
 2049TIP3   OH2 6110   3.482   4.951   1.542  0.0238 -0.4957 -0.2539
 2049TIP3    H1 6111   3.490   4.906   1.458  1.2296 -0.6918 -0.0532
 2049TIP3    H2 6112   3.537   4.900   1.601 -2.2320 -1.4645  1.1522
 2050TIP3   OH2 6113   5.988   0.151   5.887  0.0193 -0.4128 -0.0415
 2050TIP3    H1 6114   6.059   0.205   5.922 -0.8322  0.0607  0.9936
 2050TIP3    H2 6115   6.015   0.132   5.797  1.2574  0.1026  0.2031
 2051TIP3   OH2 6116   5.478   2.963   4.727  0.3380 -0.2123 -0.4683
 2051TIP3    H1 6117   5.397   3.009   4.705 -1.3325 -2.5904  0.2423
 2051TIP3    H2 6118   5.451   2.896   4.790  3.0908 -0.3960  0.6516
 2052TIP3   OH2 6119   4.513   5.966   2.245 -0.4654 -0.0294  1.0417
 2052TIP3    H1 6120   4.481   6.054   2.265  1.2052  0.9442 -0.3641
 2052TIP3    H2 6121   4.530   5.927   2.331  1.4697  2.0794  1.6984
 2053TIP3   OH2 6122   3.849   1.989   0.327 -0.2032 -0.5180  0.4968
 2053TIP3    H1 6123   3.899   2.063   0.361  1.1611 -1.2020  0.0815
 2053TIP3    H2 6124   3.762   1.998   0.366 -0.0782  1.2875  0.4479
 2054TIP3   OH2 6125   3.463   5.420   3.034  0.0590  0.0682  0.3751
 2054TIP3    H1 6126   3.502   5.388   3.115 -0.3776 -1.1539  0.1179
 2054TIP3    H2 6127   3.509   5.503   3.017  2.3296 -1.1396  0.2341
 2055TIP3   OH2 6128   0.859   3.206   5.324  0.2351 -0.7739  0.1318
 2055TIP3    H1 6129   0.833   3.292   5.357  0.3862 -1.4866  2.3291
 2055TIP3    H2 6130   0.824   3.145   5.390 -0.6733 -2.4900 -1.8295
 2056TIP3   OH2 6131   1.865   2.919   1.681  0.1490 -0.3940 -0.4962
 2056TIP3    H1 6132   1.925   2.864   1.632  0.3221 -1.1696  0.5645
 2056TIP3    H2 6133   1.778   2.885   1.659  0.0961  0.4718 -1.7154
 2057TIP3   OH2 6134   4.891   2.093   3.419  0.1196  0.1067 -0.3409
 2057TIP3    H1 6135   4.946   2.028   3.462 -0.5140  0.3093  0.8105
 2057TIP3    H2 6136   4.945   2.127   3.348  0.6357 -1.3158 -0.6600
 2058TIP3   OH2 6137   2.811   0.776   2.172 -0.4880 -0.4929  0.0420
 2058TIP3    H1 6138   2.835   0.708   2.235  0.9950 -0.3249 -0.3205
 2058TIP3    H2 6139   2.753   0.731   2.110 -1.9072 -0.6758  1.4450
 2059TIP3   OH2 6140   3.074   6.116   3.434  0.0762 -0.1913  0.1989
 2059TIP3    H1 6141   3.039   6.036   3.474  0.5570 -0.2301  0.5588
 2059TIP3    H2 6142   3.061   6.184   3.500 -1.5230  0.3353 -0.6063
 2060TIP3   OH2 6143   0.666   6.437   0.333 -0.2142 -0.2579 -0.2404
 2060TIP3    H1 6144   0.748   6.484   0.349  0.1876 -0.8815 -0.4205
 2060TIP3    H2 6145   0.688   6.374   0.264 -0.6589 -0.9283  0.2221
 2061TIP3   OH2 6146   0.004   6.755   1.588  0.0488 -0.5955  0.5301
 2061TIP3    H1 6147   0.096   6.782   1.586  0.1891 -1.0711  0.3333
 2061TIP3    H2 6148   0.007   6.659   1.588 -0.4576 -0.6230 -0.1003
 2062TIP3   OH2 6149   4.935   2.333   2.461  0.0793  0.4946 -0.3220
 2062TIP3    H1 6150   4.990   2.306   2.535 -0.3422 -2.7061 -1.0379
 2062TIP3    H2 6151   4.847   2.305   2.486 -0.2539  0.3955 -1.5665
 2063TIP3   OH2 6152   1.276   0.989   3.420 -0.3938 -0.0708 -0.2735
 2063TIP3    H1 6153   1.354   0.933   3.421 -0.7393 -0.5563  0.3917
 2063TIP3    H2 6154   1.287   1.046   3.496 -0.7643 -0.2581 -0.0759
 2064TIP3   OH2 6155   1.014   5.913   0.364 -0.1241  0.7996 -0.4650
 2064TIP3    H1 6156   1.046   5.827   0.338 -0.0492  1.0366 -1.1714
 2064TIP3    H2 6157   1.086   5.951   0.416 -0.9984 -0.4199  1.7712
 2065TIP3   OH2 6158   4.045   5.527   2.862 -0.4920  0.2955 -0.4131
 2065TIP3    H1 6159   3.987   5.602   2.876  0.5464  1.0851 -0.2031
 2065TIP3    H2 6160   4.118   5.563   2.811 -0.0131 -0.5921 -0.3641
 2066TIP3   OH2 6161   3.544   2.100   5.699  0.1464 -0.4152 -0.1369
 2066TIP3    H1 6162   3.519   2.010   5.679 -0.0978 -0.5995  0.9613
 2066TIP3    H2 6163   3.462   2.144   5.722  0.0505  0.4740 -2.0093
 2067TIP3   OH2 6164   4.401   2.245   1.488 -0.9569 -0.2269  0.6622
 2067TIP3    H1 6165   4.426   2.246   1.580  0.3657  0.6521  0.3159
 2067TIP3    H2 6166   4.443   2.167   1.453 -1.2408 -0.4144  0.7308
 2068TIP3   OH2 6167   6.687   2.265   1.298  0.3067 -0.0872  0.0125
 2068TIP3    H1 6168   6.712   2.354   1.322  0.4007 -0.1405  0.1165
 2068TIP3    H2 6169   6.646   2.273   1.212  0.5223  0.0245 -0.0811
 2069TIP3   OH2 6170   2.563   2.998   0.329  0.9167 -0.7783  0.3281
 2069TIP3    H1 6171   2.591   3.058   0.398 -0.5331 -0.9735  1.1239
 2069TIP3    H2 6172   2.593   3.039   0.247  1.1583  0.3252  0.9546
 2070TIP3   OH2 6173   4.554   4.687   5.237 -0.6742 -0.5367  0.8612
 2070TIP3    H1 6174   4.608   4.612   5.214  0.8743  0.7527  0.1301
 2070TIP3    H2 6175   4.484   4.650   5.291 -0.7043 -2.6788 -0.5240
 2071TIP3   OH2 6176   6.936   1.358   3.733 -0.4322  0.1082  0.1387
 2071TIP3    H1 6177   7.008   1.388   3.787  3.1156 -2.5105 -2.6297
 2071TIP3    H2 6178   6.894   1.438   3.700  0.4166  1.7042  2.7246
 2072TIP3   OH2 6179   4.633   4.624   3.637  0.0529  0.0793  0.2831
 2072TIP3    H1 6180   4.588   4.694   3.684 -0.2747  0.6150 -0.7978
 2072TIP3    H2 6181   4.723   4.655   3.627  0.1019  0.0018  0.4775
 2073TIP3   OH2 6182   6.899   4.003   1.624 -0.2548  0.1695  0.1642
 2073TIP3    H1 6183   6.897   4.048   1.709 -0.0975  0.5489 -0.0337
 2073TIP3    H2 6184   6.811   4.013   1.589  0.0966  1.3882 -0.4307
 2074TIP3   OH2 6185   0.639   0.552   2.261  0.2401 -0.5802 -0.0270
 2074TIP3    H1 6186   0.576   0.576   2.329  1.1713  1.0448  0.3061
 2074TIP3    H2 6187   0.635   0.456   2.257 -3.6575 -0.5670 -1.3768
 2075TIP3   OH2 6188   6.246   0.903   5.877 -0.1191 -0.0915  0.3402
 2075TIP3    H1 6189   6.178   0.963   5.905  0.0356  1.2969 -2.0349
 2075TIP3    H2 6190   6.198   0.826   5.845 -0.5827  0.6229 -0.7409
 2076TIP3   OH2 6191   2.986   2.860   4.496 -0.7822  0.0384  0.0278
 2076TIP3    H1 6192   2.981   2.816   4.581 -1.5970  0.8111  0.3867
 2076TIP3    H2 6193   3.080   2.864   4.477 -0.5870  0.0210  0.9705
 2077TIP3   OH2 6194   2.116   1.303   4.213 -0.1100  0.0650 -0.2248
 2077TIP3    H1 6195   2.171   1.358   4.156 -0.2159  1.2745  0.8033
 2077TIP3    H2 6196   2.179   1.257   4.268 -0.0370 -0.5834 -0.8338
 2078TIP3   OH2 6197   0.330   3.946   5.079 -0.0369  0.4430  0.1236
 2078TIP3    H1 6198   0.405   4.006   5.083  0.4961 -0.1226 -1.1188
 2078TIP3    H2 6199   0.323   3.911   5.168  4.0163 -2.8807 -0.5864
 2079TIP3   OH2 6200   1.991   1.479   4.729 -0.2966  0.2042 -0.0287
 2079TIP3    H1 6201   1.944   1.451   4.808  0.6414 -0.1942  0.4004
 2079TIP3    H2 6202   1.928   1.468   4.658 -0.3224 -1.9801  0.2803
 2080TIP3   OH2 6203   1.622   6.056   2.700 -0.1270 -0.0312  0.0141
 2080TIP3    H1 6204   1.546   6.112   2.717 -0.1159 -0.1408  0.4338
 2080TIP3    H2 6205   1.665   6.096   2.624  0.0832  0.7366  0.5231
 2081TIP3   OH2 6206   2.338   2.650   2.027 -0.2193 -0.4377  0.8489
 2081TIP3    H1 6207   2.429   2.633   2.050 -0.2155  0.0690  1.2184
 2081TIP3    H2 6208   2.289   2.574   2.061  0.0054 -0.4979  1.0364
 2082TIP3   OH2 6209   1.656   1.316   5.216  0.1509 -0.4290  0.1744
 2082TIP3    H1 6210   1.648   1.221   5.211 -0.8063 -0.6471  3.5841
 2082TIP3    H2 6211   1.579   1.345   5.265  1.8434  1.6954  1.8281
 2083TIP3   OH2 6212   4.066   5.535   0.383 -0.0050 -0.4560  0.2266
 2083TIP3    H1 6213   4.158   5.553   0.360 -0.6777  2.0062 -0.9044
 2083TIP3    H2 6214   4.057   5.568   0.472  0.1574 -0.5015  0.2609
 2084TIP3   OH2 6215   6.717   2.041   1.941 -0.1377 -0.3779 -0.0931
 2084TIP3    H1 6216   6.754   1.953   1.937  0.6753 -0.0315 -0.3143
 2084TIP3    H2 6217   6.785   2.094   1.984 -1.2413 -0.1789  1.5176
 2085TIP3   OH2 6218   2.051   4.318   1.572  1.1056 -0.5087  0.2275
 2085TIP3    H1 6219   2.045   4.389   1.507  0.4877 -1.1024 -0.3706
 2085TIP3    H2 6220   2.078   4.362   1.652  2.4478  0.1760 -0.5546
 2086TIP3   OH2 6221   6.328   4.782   3.041 -0.2891  0.3862  0.1414
 2086TIP3    H1 6222   6.349   4.825   2.959  0.4649  2.1764  1.2032
 2086TIP3    H2 6223   6.238   4.750   3.029 -0.5467  1.4714 -1.0444
 2087TIP3   OH2 6224   4.417   1.589   3.515 -0.3323 -0.9495 -0.1880
 2087TIP3    H1 6225   4.442   1.669   3.469 -0.5852 -0.6446  0.2028
 2087TIP3    H2 6226   4.406   1.616   3.606  1.1817 -1.7550  0.2597
 2088TIP3   OH2 6227   4.836   3.221   0.261  0.1064 -0.1608  0.0399
 2088TIP3    H1 6228   4.928   3.198   0.273 -0.0813 -0.6193  0.6278
 2088TIP3    H2 6229   4.788   3.158   0.314 -0.6004 -0.4736 -0.9304
 2089TIP3   OH2 6230   2.543   0.778   4.229 -0.1195 -0.3304  0.1122
 2089TIP3    H1 6231   2.486   0.845   4.268 -0.5856 -1.3782  1.3133
 2089TIP3    H2 6232   2.506   0.695   4.259 -1.0151 -1.3139 -3.2743
 2090TIP3   OH2 6233   5.350   6.485   0.955 -0.1663 -0.0601  0.1806
 2090TIP3    H1 6234   5.268   6.446   0.924  0.0680  1.0933 -2.0706
 2090TIP3    H2 6235   5.340   6.579   0.937  1.5317  0.1312  0.1490
 2091TIP3   OH2 6236   1.990   4.762   4.663  0.0884 -0.1636 -0.1641
 2091TIP3    H1 6237   2.051   4.812   4.609  1.2735 -1.2571  0.1285
 2091TIP3    H2 6238   2.038   4.741   4.743 -0.8251 -0.6375  0.2819
 2092TIP3   OH2 6239   6.229   3.678   2.786  0.1595  0.3991  0.2352
 2092TIP3    H1 6240   6.269   3.725   2.713  0.2340  0.1945  0.1432
 2092TIP3    H2 6241   6.172   3.743   2.828  1.5602  1.0709  1.1533
 2093TIP3   OH2 6242  -0.008   5.917   4.348  0.0444  0.0944  0.9707
 2093TIP3    H1 6243   0.029   5.836   4.312 -0.8958 -0.4603  1.2140
 2093TIP3    H2 6244   0.068   5.973   4.363  0.5373  0.3286 -1.7557
 2094TIP3   OH2 6245   6.379   4.048   5.794 -0.2146  0.0977  0.2603
 2094TIP3    H1 6246   6.311   4.028   5.859  0.2597 -2.0189  0.1756
 2094TIP3    H2 6247   6.334   4.043   5.710 -0.0390 -1.0951  0.2179
 2095TIP3   OH2 6248   5.038   6.584   5.132 -0.7345  0.0500 -0.0910
 2095TIP3    H1 6249   5.007   6.656   5.078 -1.4288 -0.0377  0.1764
 2095TIP3    H2 6250   5.087   6.626   5.203 -1.9825  0.3504  0.6269
 2096TIP3   OH2 6251   5.233   4.420   0.248 -0.5159  0.1019 -0.0017
 2096TIP3    H1 6252   5.263   4.329   0.256  1.2564  0.5270 -1.1235
 2096TIP3    H2 6253   5.162   4.416   0.184 -0.0348 -0.4465 -0.5283
 2097TIP3   OH2 6254   5.505   1.856   5.016 -0.7576 -0.3875  0.3222
 2097TIP3    H1 6255   5.551   1.853   5.100 -0.9655 -3.5042  0.4288
 2097TIP3    H2 6256   5.414   1.834   5.038 -1.1020  0.0887 -0.5730
 2098TIP3   OH2 6257   6.052   0.455   4.050 -0.5638 -0.0373  0.4740
 2098TIP3    H1 6258   5.956   0.453   4.050 -0.5564 -0.5631 -0.3151
 2098TIP3    H2 6259   6.078   0.374   4.094 -0.4758  0.5201  1.4792
 2099TIP3   OH2 6260   0.513   6.174   2.984  0.9050  0.5233  1.0200
 2099TIP3    H1 6261   0.591   6.152   2.933  1.0491  0.7153  1.1582
 2099TIP3    H2 6262   0.542   6.174   3.075 -0.0274 -3.0805  1.4982
 2100TIP3   OH2 6263   6.548   5.098   4.998  0.1639 -0.0644  0.2343
 2100TIP3    H1 6264   6.584   5.077   4.912 -1.7503 -0.9624 -0.3998
 2100TIP3    H2 6265   6.586   5.183   5.019  0.6551  0.1922 -1.5101
 2101TIP3   OH2 6266   1.901   3.401   2.643 -0.2163  0.6640  0.1276
 2101TIP3    H1 6267   1.826   3.424   2.589  0.0675  0.3669 -0.4057
 2101TIP3    H2 6268   1.866   3.340   2.709 -0.4685  0.6391 -0.0304
 2102TIP3   OH2 6269   5.734   4.755   3.782  0.3660  0.6893 -0.6172
 2102TIP3    H1 6270   5.821   4.736   3.746  0.3391  1.8044 -1.3147
 2102TIP3    H2 6271   5.677   4.757   3.705 -0.3386 -0.2984 -0.1352
 2103TIP3   OH2 6272   4.650   5.122   1.061 -0.0060 -0.0639  0.3165
 2103TIP3    H1 6273   4.564   5.145   1.026 -0.3168 -2.4828 -0.6839
 2103TIP3    H2 6274   4.656   5.171   1.143 -1.9632  0.8351 -0.0112
 2104TIP3   OH2 6275   3.299   5.520   2.005  0.0765 -0.5185  0.1888
 2104TIP3    H1 6276   3.327   5.542   1.916 -0.4795 -0.3278  0.0560
 2104TIP3    H2 6277   3.292   5.424   2.005  0.7955 -0.5723  0.2482
 2105TIP3   OH2 6278   2.913   0.041   0.403 -0.5525  0.4788 -0.1327
 2105TIP3    H1 6279   2.841   0.076   0.454 -0.4357  0.0035  0.3695
 2105TIP3    H2 6280   2.939  -0.038   0.450 -2.0157 -1.3468 -2.1611
 2106TIP3   OH2 6281   3.276   5.651   4.673 -0.0508 -0.5846  0.1032
 2106TIP3    H1 6282   3.181   5.646   4.658 -0.5575  1.6717  2.0323
 2106TIP3    H2 6283   3.300   5.737   4.639  1.5032 -1.4032 -0.9898
 2107TIP3   OH2 6284   6.407   4.058   0.186 -0.2681 -0.5921 -0.4035
 2107TIP3    H1 6285   6.337   4.044   0.122  0.9823 -0.4184 -1.8667
 2107TIP3    H2 6286   6.485   4.072   0.133  1.1198 -1.9493  1.1649
 2108TIP3   OH2 6287   4.359   3.679   4.950  0.0146 -0.0723  0.2213
 2108TIP3    H1 6288   4.436   3.652   5.001 -0.3868 -1.3360  0.1845
 2108TIP3    H2 6289   4.395   3.707   4.866  0.4209 -0.9438  0.0970
 2109TIP3   OH2 6290   1.736   6.465   1.134  0.0227  0.3435 -0.2233
 2109TIP3    H1 6291   1.693   6.513   1.205  0.3199  0.5503 -0.1826
 2109TIP3    H2 6292   1.672   6.398   1.109 -0.3730  0.7308 -0.2555
 2110TIP3   OH2 6293   7.136   6.093   5.455 -0.2486  0.2890  0.1956
 2110TIP3    H1 6294   7.199   6.093   5.527  0.5434  0.4047 -0.4810
 2110TIP3    H2 6295   7.082   6.015   5.470  0.3885 -0.0989  0.4989
 2111TIP3   OH2 6296   1.575   1.187   4.631 -0.4230  0.8094 -0.5874
 2111TIP3    H1 6297   1.600   1.221   4.717  2.5588 -0.4912 -0.7948
 2111TIP3    H2 6298   1.659   1.175   4.586 -1.6218 -1.8875 -2.3576
 2112TIP3   OH2 6299   5.250   1.546   5.346 -0.0637  0.6355  0.9156
 2112TIP3    H1 6300   5.195   1.472   5.369  1.4765 -0.1159  2.3507
 2112TIP3    H2 6301   5.332   1.507   5.316 -0.0032  1.7392 -0.4468
 2113TIP3   OH2 6302   2.841   4.289   5.766 -0.0326 -0.6840 -0.0800
 2113TIP3    H1 6303   2.862   4.366   5.820  0.5364 -0.6900 -0.2874
 2113TIP3    H2 6304   2.873   4.215   5.817  0.9129 -0.6575 -0.6187
 2114TIP3   OH2 6305   1.363   2.018   0.518  0.4609 -0.7088  0.2185
 2114TIP3    H1 6306   1.376   1.924   0.522  1.1459 -0.6232  0.1244
 2114TIP3    H2 6307   1.435   2.055   0.571 -0.0717 -0.2599  0.6490
 2115TIP3   OH2 6308   2.548   6.416   0.401 -0.0441 -0.2771 -0.1032
 2115TIP3    H1 6309   2.605   6.405   0.324 -0.4530 -0.6846 -0.3525
 2115TIP3    H2 6310   2.542   6.511   0.412 -1.9868 -0.0729 -2.1159
 2116TIP3   OH2 6311   1.098   1.283   5.306  0.0027 -0.0329 -0.3437
 2116TIP3    H1 6312   1.117   1.345   5.377 -0.4760 -0.3143  0.0396
 2116TIP3    H2 6313   1.065   1.205   5.351  0.1293 -0.3833 -0.8525
 2117TIP3   OH2 6314   0.957   2.346   3.784 -0.1306 -0.8760 -0.3558
 2117TIP3    H1 6315   1.040   2.305   3.760 -0.2521 -0.5070 -1.4711
 2117TIP3    H2 6316   0.982   2.418   3.842  0.2265 -1.4398  0.2016
 2118TIP3   OH2 6317   6.697   4.925   2.070 -0.0966 -0.6045 -0.3582
 2118TIP3    H1 6318   6.767   4.950   2.130 -0.6010 -0.3483  0.1347
 2118TIP3    H2 6319   6.715   4.974   1.989  0.3263 -0.5940 -0.2587
 2119TIP3   OH2 6320   1.945   2.044   5.232  0.5486  0.1297  0.2555
 2119TIP3    H1 6321   2.001   2.079   5.163  0.2527  1.4632  0.6625
 2119TIP3    H2 6322   1.906   1.966   5.194  1.7088 -0.1185 -0.4703
 2120TIP3   OH2 6323   0.303   2.314   3.944 -0.2949 -0.3581  0.0134
 2120TIP3    H1 6324   0.327   2.275   3.860  0.2241  1.4436 -0.7114
 2120TIP3    H2 6325   0.349   2.259   4.009  2.5020  0.4731 -1.1086
 2121TIP3   OH2 6326   2.285   5.531   4.464 -0.0847 -0.1484 -0.2074
 2121TIP3    H1 6327   2.194   5.548   4.486 -0.0165  0.2440 -0.2221
 2121TIP3    H2 6328   2.311   5.606   4.410  0.6464  0.4232  0.9102
 2122TIP3   OH2 6329   6.818   3.226   4.213  0.0031 -0.2950 -0.8500
 2122TIP3    H1 6330   6.772   3.260   4.290  3.5849  1.0509  0.9214
 2122TIP3    H2 6331   6.821   3.132   4.227  0.1889 -0.1226  0.4904
 2123TIP3   OH2 6332   4.934   6.269   1.560  0.6881 -0.2837 -0.4527
 2123TIP3    H1 6333   4.930   6.174   1.543 -1.8703 -0.3580  0.2501
 2123TIP3    H2 6334   4.880   6.282   1.638  1.5682  1.6977 -0.1182
 2124TIP3   OH2 6335   3.232   6.484   4.181  0.5196  0.2926  0.0062
 2124TIP3    H1 6336   3.270   6.492   4.094 -0.1474 -1.3545 -0.4668
 2124TIP3    H2 6337   3.223   6.575   4.211  2.1772  0.8318 -0.9805
 2125TIP3   OH2 6338   4.679   2.033   1.067  0.2988  0.4662  0.5146
 2125TIP3    H1 6339   4.586   2.021   1.045  0.4019 -0.3780  0.4865
 2125TIP3    H2 6340   4.713   2.086   0.995  0.1859 -0.6033 -0.3769
 2126TIP3   OH2 6341   4.057   5.150   1.633  0.2045 -0.5317 -0.2205
 2126TIP3    H1 6342   4.116   5.225   1.625 -0.5429 -0.1718 -3.7394
 2126TIP3    H2 6343   4.115   5.074   1.623  0.4961 -0.2804 -0.4960
 2127TIP3   OH2 6344   0.786   1.419   3.112 -0.1369 -1.1933 -0.0101
 2127TIP3    H1 6345   0.726   1.359   3.068 -0.2562 -2.2455  1.5334
 2127TIP3    H2 6346   0.859   1.364   3.141 -0.2505 -0.6212  1.4413
 2128TIP3   OH2 6347   1.464   3.497   5.320 -0.0977  0.4895 -0.4181
 2128TIP3    H1 6348   1.475   3.501   5.415 -0.2820  1.3361 -0.4273
 2128TIP3    H2 6349   1.509   3.416   5.294 -1.2571 -0.5086  0.5511
 2129TIP3   OH2 6350   5.932   6.255   2.632  0.3015 -0.1733 -0.3435
 2129TIP3    H1 6351   5.870   6.189   2.603 -0.3472  0.3526 -0.1751
 2129TIP3    H2 6352   5.914   6.267   2.725  0.6180  0.0242 -0.3035
 2130TIP3   OH2 6353   3.865   5.396   4.271 -0.2740 -0.0801 -0.4153
 2130TIP3    H1 6354   3.925   5.356   4.333  1.1785 -0.7298 -2.1515
 2130TIP3    H2 6355   3.906   5.479   4.247 -1.0044  0.3421 -0.2239
 2131TIP3   OH2 6356   5.080   4.426   5.214  0.5661  0.2742 -0.3445
 2131TIP3    H1 6357   5.126   4.507   5.192 -0.0120  0.5065 -0.7094
 2131TIP3    H2 6358   5.100   4.412   5.307 -1.1687  2.0836  0.3689
 2132TIP3   OH2 6359   0.722   0.088   2.775 -0.6256 -0.5284 -0.0828
 2132TIP3    H1 6360   0.750   0.157   2.835 -1.8441 -0.4245  0.3984
 2132TIP3    H2 6361   0.799   0.069   2.722  0.0166  0.4898  0.4607
 2133TIP3   OH2 6362   1.360   5.816   0.841  0.5913  0.1741 -0.7617
 2133TIP3    H1 6363   1.397   5.733   0.813 -0.2494 -0.0844 -1.1656
 2133TIP3    H2 6364   1.271   5.794   0.871  0.8789  0.6997  0.5667
 2134TIP3   OH2 6365   0.806   3.434   5.485 -0.3850  0.1390 -0.0372
 2134TIP3    H1 6366   0.819   3.360   5.544  0.7383  0.0056 -0.4288
 2134TIP3    H2 6367   0.846   3.508   5.530 -1.5423  0.5307  0.3713
 2135TIP3   OH2 6368   5.186   2.542   4.445 -0.1360 -0.3095  0.5336
 2135TIP3    H1 6369   5.106   2.563   4.397 -0.4421 -2.8658 -0.2590
 2135TIP3    H2 6370   5.157   2.482   4.514  0.6574  1.4173  2.4420
 2136TIP3   OH2 6371   1.429   5.613   3.162  0.2715 -0.2783  0.3907
 2136TIP3    H1 6372   1.512   5.587   3.123 -0.1266  0.4092 -1.0003
 2136TIP3    H2 6373   1.445   5.702   3.195 -0.5169  0.9379 -2.1777
 2137TIP3   OH2 6374   2.201   1.003   4.190  0.3791  0.5510  0.1638
 2137TIP3    H1 6375   2.282   1.005   4.241  0.1550  1.5129  0.5010
 2137TIP3    H2 6376   2.133   1.025   4.253  0.0760  1.5720 -0.5051
 2138TIP3   OH2 6377   2.989   1.034   3.197 -0.1024 -0.1230 -0.5075
 2138TIP3    H1 6378   2.979   0.945   3.164  0.3478 -0.2788 -0.2382
 2138TIP3    H2 6379   2.941   1.089   3.135  0.8106 -0.3908 -1.4775
 2139TIP3   OH2 6380   2.062   3.147   0.212  0.1816  0.2951  0.1986
 2139TIP3    H1 6381   2.040   3.084   0.143 -1.3899  1.2286 -0.2040
 2139TIP3    H2 6382   1.987   3.207   0.215 -0.1006 -0.0802  3.1856
 2140TIP3   OH2 6383   5.852   1.678   5.445 -0.5139 -0.5482  0.2155
 2140TIP3    H1 6384   5.794   1.750   5.471  1.1049  0.1311  2.3028
 2140TIP3    H2 6385   5.852   1.619   5.521  2.0375 -0.1199  0.6437
 2141TIP3   OH2 6386   7.186   0.973   4.696 -0.6453 -0.0719  0.1437
 2141TIP3    H1 6387   7.178   0.920   4.617 -1.7378  0.3594 -0.0508
 2141TIP3    H2 6388   7.117   1.040   4.687  1.8112  2.5566 -0.5042
 2142TIP3   OH2 6389   6.140   5.119   4.072 -0.4112 -0.3279  0.5390
 2142TIP3    H1 6390   6.108   5.199   4.030 -1.2174 -1.4743 -1.1554
 2142TIP3    H2 6391   6.214   5.148   4.125 -0.1352  1.4246 -0.7105
 2143TIP3   OH2 6392   2.425   2.603   5.785 -0.3476  0.0143 -0.0324
 2143TIP3    H1 6393   2.438   2.693   5.815 -0.5991  0.3876 -1.0024
 2143TIP3    H2 6394   2.462   2.548   5.855  1.4021  0.8997 -0.2274
 2144TIP3   OH2 6395   1.722   4.488   5.898  0.2410  0.6945  0.2100
 2144TIP3    H1 6396   1.701   4.579   5.877 -2.2319 -0.0034 -0.6086
 2144TIP3    H2 6397   1.737   4.446   5.813  2.1855  0.4467  0.6131
 2145TIP3   OH2 6398   1.919   3.688   2.679  0.8033 -0.4276 -0.4098
 2145TIP3    H1 6399   1.899   3.721   2.591  0.8479 -1.7503 -0.9420
 2145TIP3    H2 6400   1.888   3.598   2.678  3.6759 -1.4926 -0.1028
 2146TIP3   OH2 6401   5.249   1.328   2.063  0.0126  0.4237 -0.2922
 2146TIP3    H1 6402   5.191   1.300   1.992  0.1305 -0.9189  0.1024
 2146TIP3    H2 6403   5.314   1.384   2.020 -1.4931  1.8779 -0.7507
 2147TIP3   OH2 6404   4.347   5.484   0.440  0.7173 -0.5405 -0.5118
 2147TIP3    H1 6405   4.427   5.469   0.489  1.6756  1.1543 -1.4954
 2147TIP3    H2 6406   4.376   5.505   0.352 -0.7642  1.0279 -0.6698
 2148TIP3   OH2 6407   1.615   4.094   0.517 -0.2131 -0.3300 -0.2866
 2148TIP3    H1 6408   1.577   4.161   0.574 -1.2680  0.1810 -1.5274
 2148TIP3    H2 6409   1.589   4.121   0.429  3.7567  0.5871 -1.4154
 2149TIP3   OH2 6410   7.060   3.373   5.258 -0.5218  0.0398  0.0548
 2149TIP3    H1 6411   7.133   3.400   5.314 -0.0923 -0.0647 -0.4463
 2149TIP3    H2 6412   7.039   3.451   5.206 -0.6976  0.0389  0.1236
 2150TIP3   OH2 6413   5.175   6.552   2.297 -0.8154  0.3270  0.3990
 2150TIP3    H1 6414   5.197   6.478   2.242 -0.3798  1.2137 -0.6588
 2150TIP3    H2 6415   5.190   6.521   2.387 -0.5493 -0.8136 -0.0286
 2151TIP3   OH2 6416   6.556   0.744   1.486  0.1863  0.0017  0.1449
 2151TIP3    H1 6417   6.624   0.736   1.419  0.0349 -0.7977  0.0786
 2151TIP3    H2 6418   6.604   0.742   1.569  0.3176  0.3194  0.0771
 2152TIP3   OH2 6419   0.133   5.635   3.397  0.3586 -0.6094  0.3177
 2152TIP3    H1 6420   0.083   5.710   3.428  0.6726 -0.6334  0.9028
 2152TIP3    H2 6421   0.157   5.588   3.477  1.7774 -0.3009  0.0877
 2153TIP3   OH2 6422   6.316   6.264   1.982  0.3490  0.1488 -0.1662
 2153TIP3    H1 6423   6.316   6.357   2.005  1.9865  0.1813 -0.1397
 2153TIP3    H2 6424   6.402   6.232   2.012 -0.6543 -1.6714  0.9654
 2154TIP3   OH2 6425   2.309   4.689   3.129  0.5014  0.1649  0.6807
 2154TIP3    H1 6426   2.359   4.755   3.177 -1.0955  2.4413 -0.6223
 2154TIP3    H2 6427   2.246   4.656   3.193 -0.5942  2.0614  0.6606
 2155TIP3   OH2 6428   0.020   4.819   1.561 -0.1032 -0.1510  0.1612
 2155TIP3    H1 6429   0.016   4.731   1.600  0.1625 -0.4205 -0.4049
 2155TIP3    H2 6430   0.096   4.815   1.502  0.0441  0.5302  0.3013
 2156TIP3   OH2 6431   3.051   3.301   0.445  0.1230  0.1574 -0.0554
 2156TIP3    H1 6432   3.040   3.370   0.379  2.4661 -0.2433 -0.9568
 2156TIP3    H2 6433   3.126   3.250   0.415 -1.8983 -3.2984  0.1924
 2157TIP3   OH2 6434   4.007   4.946   0.482 -0.0119  0.4630 -0.3009
 2157TIP3    H1 6435   3.962   4.973   0.562  0.7280 -0.3018  0.3875
 2157TIP3    H2 6436   4.064   5.020   0.461  0.3118  0.3793  0.2786
 2158TIP3   OH2 6437   1.915   0.730   3.029 -0.1599 -0.2797 -0.3853
 2158TIP3    H1 6438   2.000   0.731   2.986  0.1035 -0.2344  0.1377
 2158TIP3    H2 6439   1.892   0.637   3.032  0.0856 -0.3294 -0.0962
 2159TIP3   OH2 6440   6.064   6.124   2.942 -0.0342 -0.1398  0.2472
 2159TIP3    H1 6441   6.140   6.121   2.884  0.9373 -3.0790  1.4799
 2159TIP3    H2 6442   6.083   6.196   3.003  0.0821  1.3796 -1.5102
 2160TIP3   OH2 6443   5.469   3.772   0.066 -0.1578 -0.5657 -0.0192
 2160TIP3    H1 6444   5.397   3.835   0.060  0.4139  0.1852  0.8194
 2160TIP3    H2 6445   5.434   3.702   0.122 -0.6670 -0.8251 -0.6530
 2161TIP3   OH2 6446   3.162   2.844   0.527 -0.4268 -0.3696 -0.0560
 2161TIP3    H1 6447   3.123   2.881   0.606 -1.3213 -1.6566  0.1441
 2161TIP3    H2 6448   3.248   2.885   0.520 -0.9144  0.8271  0.7858
 2162TIP3   OH2 6449   3.185   0.051   3.147  0.3395 -0.4645  0.1368
 2162TIP3    H1 6450   3.208   0.144   3.154 -0.8744 -0.1357 -0.0218
 2162TIP3    H2 6451   3.097   0.051   3.110  0.9253 -1.7415 -1.3704
 2163TIP3   OH2 6452   5.892   6.745   1.935  0.0216 -0.6110  0.4487
 2163TIP3    H1 6453   5.943   6.826   1.945 -2.1788  0.8765  0.2896
 2163TIP3    H2 6454   5.806   6.767   1.971 -1.0521 -2.4549 -0.8800
 2164TIP3   OH2 6455   3.692   5.951   3.661  0.3232 -0.0879 -0.1585
 2164TIP3    H1 6456   3.598   5.934   3.665  0.2215  0.1273 -1.3813
 2164TIP3    H2 6457   3.719   5.955   3.753 -0.6672 -1.1702  0.2080
 2165TIP3   OH2 6458   4.581   4.461   0.919 -0.2027  0.1545 -0.4143
 2165TIP3    H1 6459   4.662   4.495   0.957 -0.4490 -0.7848  1.0009
 2165TIP3    H2 6460   4.519   4.535   0.924  0.0056  0.2866  0.2752
 2166TIP3   OH2 6461   1.638   5.522   2.046 -0.1090  0.0567  0.2820
 2166TIP3    H1 6462   1.682   5.491   2.125 -0.6698 -2.6853 -0.3956
 2166TIP3    H2 6463   1.560   5.468   2.038  0.2617 -0.2241 -2.4790
 2167TIP3   OH2 6464   0.197   2.748   4.729  0.4486 -0.1849  0.1403
 2167TIP3    H1 6465   0.160   2.667   4.763 -0.0673 -0.1724 -0.3815
 2167TIP3    H2 6466   0.127   2.813   4.738  0.7176  0.1061  0.1730
 2168TIP3   OH2 6467   0.729   2.699   5.193 -0.1797  0.3495 -0.2882
 2168TIP3    H1 6468   0.745   2.792   5.178  0.8546  0.0361 -1.2554
 2168TIP3    H2 6469   0.635   2.694   5.213 -0.5148  1.4557 -1.4230
 2169TIP3   OH2 6470   6.742   0.467   2.857  0.3830  0.0487  0.4290
 2169TIP3    H1 6471   6.827   0.497   2.890 -0.4897  2.0586  0.9917
 2169TIP3    H2 6472   6.695   0.438   2.935  0.1856 -0.1520  0.2388
 2170TIP3   OH2 6473   3.898   6.607   1.732 -0.1484  0.3276  0.1755
 2170TIP3    H1 6474   3.937   6.679   1.783  0.3270  0.0411  0.2179
 2170TIP3    H2 6475   3.823   6.647   1.688 -0.7131  0.5370  1.2793
 2171TIP3   OH2 6476   1.887   5.905   5.017  0.0130 -0.2188 -0.7083
 2171TIP3    H1 6477   1.951   5.842   4.984 -1.3067 -2.1227  0.1615
 2171TIP3    H2 6478   1.933   5.952   5.087  0.6968 -1.0233 -0.6053
 2172TIP3   OH2 6479   6.696   0.174   2.353  0.4465 -0.0999  0.3733
 2172TIP3    H1 6480   6.773   0.228   2.341 -0.3353  0.5728 -2.2541
 2172TIP3    H2 6481   6.623   0.236   2.359 -0.0926 -0.7717  1.1487
 2173TIP3   OH2 6482   3.143   3.168   1.389 -0.3270  0.1822 -0.1707
 2173TIP3    H1 6483   3.101   3.120   1.318 -1.9938  1.3311 -0.0202
 2173TIP3    H2 6484   3.099   3.138   1.468  1.4619 -1.0298  0.4319
 2174TIP3   OH2 6485   3.814   1.622   4.566 -0.3179 -0.1322 -0.5042
 2174TIP3    H1 6486   3.850   1.537   4.589  2.1418  1.3251  1.6165
 2174TIP3    H2 6487   3.874   1.657   4.501  0.7808  1.3074  1.1904
 2175TIP3   OH2 6488   6.855   6.474   3.940 -0.6093  0.1234 -0.2094
 2175TIP3    H1 6489   6.904   6.396   3.967  0.9741  0.6164 -1.5203
 2175TIP3    H2 6490   6.897   6.547   3.985 -0.8608  0.4334 -0.4657
 2176TIP3   OH2 6491   6.606   3.693   2.893 -0.4881 -0.3420 -0.2328
 2176TIP3    H1 6492   6.538   3.626   2.900 -0.3138 -0.6285 -1.1229
 2176TIP3    H2 6493   6.577   3.747   2.819 -0.4211  0.3315  0.2227
 2177TIP3   OH2 6494   3.244   4.035   1.226  0.0783  0.2026 -0.2128
 2177TIP3    H1 6495   3.232   3.997   1.139 -1.0172 -1.0553  0.4646
 2177TIP3    H2 6496   3.290   3.968   1.276 -2.1516 -0.4377  1.0913
 2178TIP3   OH2 6497   2.946   6.741   2.167 -0.0664 -0.3454  0.1156
 2178TIP3    H1 6498   2.953   6.645   2.167 -0.8560 -0.4290 -1.4031
 2178TIP3    H2 6499   2.855   6.759   2.144 -0.0133  0.7946  0.6882
 2179TIP3   OH2 6500   2.165   6.149   5.428  0.3604  0.6841 -0.3798
 2179TIP3    H1 6501   2.176   6.055   5.415 -3.3655  0.1621 -0.9129
 2179TIP3    H2 6502   2.193   6.165   5.518  0.1520 -1.1020  0.0369
 2180TIP3   OH2 6503   6.219   1.172   5.142  0.0302 -0.0339 -0.8430
 2180TIP3    H1 6504   6.188   1.189   5.053  0.9716  0.7787 -1.0422
 2180TIP3    H2 6505   6.274   1.248   5.162  1.2065 -1.0122 -0.2127
 2181TIP3   OH2 6506   3.286   5.932   2.267  0.5188  0.1522  0.3336
 2181TIP3    H1 6507   3.246   5.953   2.351 -0.8197 -0.4042 -0.1520
 2181TIP3    H2 6508   3.326   6.015   2.239  0.0894  0.6035  1.0225
 2182TIP3   OH2 6509   5.584   6.547   4.170 -0.7289 -0.1747  0.1598
 2182TIP3    H1 6510   5.577   6.643   4.172 -0.4739 -0.1382 -0.4064
 2182TIP3    H2 6511   5.657   6.526   4.228  0.1281  0.0808 -0.8019
 2183TIP3   OH2 6512   4.999   6.041   1.952  0.0329  0.0218  0.3800
 2183TIP3    H1 6513   4.971   6.115   2.007 -0.5374 -0.7106  1.0911
 2183TIP3    H2 6514   5.054   5.988   2.010 -0.4350 -0.6727  0.2015
 2184TIP3   OH2 6515   5.966   3.688   0.271  0.3740  0.1500 -0.2128
 2184TIP3    H1 6516   5.880   3.725   0.288 -0.9279 -1.6953 -2.3063
 2184TIP3    H2 6517   5.962   3.656   0.181  3.2191 -0.1223 -0.3465
 2185TIP3   OH2 6518   0.862   3.217   0.252  0.1797  0.2019 -0.6584
 2185TIP3    H1 6519   0.914   3.290   0.286  0.5831 -0.0392 -0.7594
 2185TIP3    H2 6520   0.863   3.152   0.322 -2.1048  1.1950  0.4083
 2186TIP3   OH2 6521   5.699   0.422   3.647  0.0658 -0.3894  0.5836
 2186TIP3    H1 6522   5.738   0.446   3.731 -0.9780 -0.0384  0.9732
 2186TIP3    H2 6523   5.606   0.408   3.666 -0.0951 -0.7806 -0.4220
 2187TIP3   OH2 6524   1.193   0.190   1.943  0.2530 -0.4875  0.0046
 2187TIP3    H1 6525   1.213   0.222   2.031  0.0000  0.2796 -0.2094
 2187TIP3    H2 6526   1.276   0.197   1.895 -0.1636  1.5232 -0.5292
 2188TIP3   OH2 6527   5.929   2.165   4.630 -1.1275 -0.0753  0.0336
 2188TIP3    H1 6528   5.875   2.234   4.592 -1.9809  1.6010  3.8614
 2188TIP3    H2 6529   6.019   2.195   4.618 -1.4089  0.8054  0.0562
 2189TIP3   OH2 6530   3.458   3.358   5.767 -0.3380  0.1835 -0.3584
 2189TIP3    H1 6531   3.432   3.417   5.696 -0.8317 -2.2438 -2.3502
 2189TIP3    H2 6532   3.549   3.379   5.784 -0.6680  1.9053 -0.5511
 2190TIP3   OH2 6533   6.029   5.385   5.035  0.7122 -0.0968  0.1651
 2190TIP3    H1 6534   6.059   5.336   4.959  1.2179 -1.1846  1.0271
 2190TIP3    H2 6535   5.935   5.393   5.024  0.5803 -1.5324  0.1261
 2191TIP3   OH2 6536   6.209   3.266   2.983 -0.4795  0.0173 -0.0803
 2191TIP3    H1 6537   6.192   3.352   3.022 -0.4993  0.4606 -1.0312
 2191TIP3    H2 6538   6.135   3.212   3.010 -0.7422  0.4542  0.0852
 2192TIP3   OH2 6539   4.648   1.083   5.682  0.9094  0.5346  0.4387
 2192TIP3    H1 6540   4.661   1.003   5.631  0.3653 -0.1438  1.3194
 2192TIP3    H2 6541   4.662   1.056   5.773 -0.3079  1.1897  0.8428
 2193TIP3   OH2 6542   3.747   6.808   4.701 -0.0656  0.1156  0.3012
 2193TIP3    H1 6543   3.730   6.735   4.760  0.1685 -0.8427 -0.7688
 2193TIP3    H2 6544   3.661   6.844   4.680 -0.4005 -1.3181 -0.9268
 2194TIP3   OH2 6545   4.558   4.689   4.323  0.9114  0.2410 -0.0963
 2194TIP3    H1 6546   4.507   4.712   4.401  0.0240 -0.1962 -0.5320
 2194TIP3    H2 6547   4.570   4.594   4.330  2.0579  0.3971  0.2235
 2195TIP3   OH2 6548   6.376   3.997   4.132 -0.5624 -0.3352  0.2782
 2195TIP3    H1 6549   6.453   4.041   4.095 -0.8045  0.7577  1.0298
 2195TIP3    H2 6550   6.392   3.996   4.226 -1.1034 -0.8231  0.3693
 2196TIP3   OH2 6551   2.232   4.634   3.979  0.5453 -0.1839 -0.3099
 2196TIP3    H1 6552   2.184   4.584   4.045 -0.4250  1.1938  0.0996
 2196TIP3    H2 6553   2.199   4.724   3.989  1.2219  0.2848 -1.8936
 2197TIP3   OH2 6554   1.187   4.661   4.495 -0.1380  0.4188 -0.3536
 2197TIP3    H1 6555   1.101   4.657   4.453  0.6294 -0.5415 -1.9278
 2197TIP3    H2 6556   1.207   4.570   4.517  0.5835  0.6025 -0.2231
 2198TIP3   OH2 6557   2.048   0.102   1.848  0.3448 -0.4663 -0.0703
 2198TIP3    H1 6558   2.090   0.186   1.869  0.8938 -0.6859 -0.2778
 2198TIP3    H2 6559   2.120   0.039   1.846 -0.2975 -1.3846  2.2770
 2199TIP3   OH2 6560   1.022   2.377   5.111 -0.5363 -0.5115 -0.3379
 2199TIP3    H1 6561   0.987   2.432   5.041  0.8030  1.5818  0.5549
 2199TIP3    H2 6562   1.109   2.412   5.129 -0.1639 -2.0805  1.2240
 2200TIP3   OH2 6563   3.416   6.707   1.518  0.4236  0.0000 -0.2721
 2200TIP3    H1 6564   3.394   6.787   1.469  3.0628  0.0607 -1.5112
 2200TIP3    H2 6565   3.341   6.694   1.576 -0.6110  2.7301 -0.8274
 2201TIP3   OH2 6566   5.927   1.796   5.011  0.1449  0.3465  0.4457
 2201TIP3    H1 6567   5.853   1.748   4.974  1.1815  1.1656 -2.9760
 2201TIP3    H2 6568   5.953   1.743   5.087 -1.1968 -2.3703 -0.8341
 2202TIP3   OH2 6569   0.119   1.797   5.832  0.3145 -0.7385  0.3552
 2202TIP3    H1 6570   0.169   1.807   5.751  1.1333 -1.0466  0.8100
 2202TIP3    H2 6571   0.077   1.711   5.822 -0.4667 -0.3054 -0.2004
 2203TIP3   OH2 6572   3.192   5.535   4.259 -0.8031  0.2997  0.3446
 2203TIP3    H1 6573   3.235   5.459   4.220  1.3668  1.6240 -0.0308
 2203TIP3    H2 6574   3.106   5.537   4.219  0.3946  0.1192 -2.4743
 2204TIP3   OH2 6575   0.794   0.287   0.666  0.3911  0.4216  0.2707
 2204TIP3    H1 6576   0.737   0.318   0.736 -3.1796 -1.2681 -1.6512
 2204TIP3    H2 6577   0.770   0.340   0.590  0.4928 -1.1125 -0.8870
 2205TIP3   OH2 6578   2.644   4.888   2.818  0.1724 -0.3900 -0.1151
 2205TIP3    H1 6579   2.581   4.877   2.890 -1.2862  1.2213 -1.0634
 2205TIP3    H2 6580   2.717   4.935   2.857  1.4497 -3.2782  1.2868
 2206TIP3   OH2 6581   2.829   1.789   3.555  0.0816  0.1986  0.3375
 2206TIP3    H1 6582   2.739   1.820   3.565  0.1029  0.6296 -0.7075
 2206TIP3    H2 6583   2.825   1.698   3.583 -0.5819  0.3366  0.7348
 2207TIP3   OH2 6584   4.423   3.214   0.653  0.3602 -0.3007 -0.4494
 2207TIP3    H1 6585   4.453   3.123   0.646  0.1510 -0.2802 -2.0941
 2207TIP3    H2 6586   4.487   3.264   0.601 -0.6493  0.2044 -1.2301
 2208TIP3   OH2 6587   1.995   2.139   1.312 -0.0712 -0.4300  1.1353
 2208TIP3    H1 6588   2.054   2.210   1.337  0.4682 -0.3930 -0.2164
 2208TIP3    H2 6589   2.052   2.073   1.272 -1.0665  0.2590 -1.6069
 2209TIP3   OH2 6590   0.721   4.370   3.114 -0.9918 -0.1425  0.8231
 2209TIP3    H1 6591   0.762   4.284   3.121 -2.9405 -1.4222 -1.6724
 2209TIP3    H2 6592   0.631   4.351   3.087 -1.8406  2.6642  1.4092
 2210TIP3   OH2 6593   5.152   5.005   2.717  0.1663  0.4210  0.3127
 2210TIP3    H1 6594   5.098   5.082   2.695  0.3381  0.7579  1.0516
 2210TIP3    H2 6595   5.215   5.038   2.781  0.3336 -0.3139  0.5250
 2211TIP3   OH2 6596   4.706   4.958   2.733 -0.2737  0.3545  0.0462
 2211TIP3    H1 6597   4.787   4.979   2.779  0.0241  0.6146 -0.5918
 2211TIP3    H2 6598   4.691   5.033   2.674  1.6558 -1.7691 -3.4724
 2212TIP3   OH2 6599   5.966   3.697   3.258  0.0714 -0.8839 -0.3366
 2212TIP3    H1 6600   6.023   3.726   3.329 -0.5435 -0.5161  0.0144
 2212TIP3    H2 6601   5.879   3.693   3.297 -0.5044  0.5858 -1.3680
 2213TIP3   OH2 6602   2.118   1.684   3.951 -0.3860 -0.3824  0.3978
 2213TIP3    H1 6603   2.107   1.779   3.942  1.6205 -0.1321  0.2399
 2213TIP3    H2 6604   2.142   1.671   4.043  1.1099 -0.5198  0.0067
 2214TIP3   OH2 6605   2.909   4.153   1.494  0.3960 -0.4704  0.8339
 2214TIP3    H1 6606   2.995   4.112   1.497  0.4523 -0.3027  1.9019
 2214TIP3    H2 6607   2.883   4.160   1.585 -1.8894 -2.9062  0.4844
 2215TIP3   OH2 6608   4.189   5.833   2.714  0.4324 -0.3071 -0.1563
 2215TIP3    H1 6609   4.234   5.749   2.725  0.0358 -0.4434  0.4707
 2215TIP3    H2 6610   4.164   5.835   2.622  0.2525 -0.9720 -0.1252
 2216TIP3   OH2 6611   1.540   2.042   4.038 -0.3815 -0.1318 -0.1626
 2216TIP3    H1 6612   1.460   2.002   4.002 -0.4134  0.1717 -0.4361
 2216TIP3    H2 6613   1.509   2.115   4.091 -0.2069  1.5205 -2.2183
 2217TIP3   OH2 6614   5.756   3.009   2.316 -0.1932  0.4901 -0.2618
 2217TIP3    H1 6615   5.816   2.958   2.262  1.2966  0.8097  1.0150
 2217TIP3    H2 6616   5.731   3.082   2.260 -0.2952 -0.2464 -1.2085
 2218TIP3   OH2 6617   6.223   1.425   3.404 -0.0240  0.3116  0.6732
 2218TIP3    H1 6618   6.316   1.446   3.392  0.0030 -0.1107  0.1190
 2218TIP3    H2 6619   6.205   1.358   3.339 -0.8594  0.7785  0.4144
 2219TIP3   OH2 6620   5.214   0.137   4.049 -0.3235  0.3777  0.6886
 2219TIP3    H1 6621   5.132   0.124   4.098  0.1941  1.7064  1.9648
 2219TIP3    H2 6622   5.186   0.177   3.967 -1.0782 -0.5628  0.4604
 2220TIP3   OH2 6623   4.191   0.758   4.648  0.3022 -0.0297 -0.3594
 2220TIP3    H1 6624   4.250   0.759   4.724  0.9791 -1.9310 -0.7971
 2220TIP3    H2 6625   4.231   0.820   4.586  1.0995 -0.2748 -0.1053
 2221TIP3   OH2 6626   0.615   5.209   2.898  0.0391 -0.0553  0.4141
 2221TIP3    H1 6627   0.701   5.178   2.928 -0.1920  0.4215  1.6439
 2221TIP3    H2 6628   0.565   5.220   2.979 -1.0251  0.1374 -0.2597
 2222TIP3   OH2 6629   4.739   2.493   1.093  0.2806  0.5229 -0.3554
 2222TIP3    H1 6630   4.737   2.522   1.001  0.0616  0.1858 -0.4573
 2222TIP3    H2 6631   4.752   2.399   1.088 -1.6967  0.2043 -0.0988
 2223TIP3   OH2 6632   3.732   3.834   3.769  0.8482  0.4348  0.2180
 2223TIP3    H1 6633   3.647   3.793   3.788  0.3997  1.7196  1.1275
 2223TIP3    H2 6634   3.760   3.794   3.686 -0.5830 -0.1003 -0.0386
 2224TIP3   OH2 6635   2.131   5.027   1.882  0.0211 -0.7686  0.1800
 2224TIP3    H1 6636   2.064   5.057   1.821  0.4640  0.1070  0.1059
 2224TIP3    H2 6637   2.095   5.046   1.969 -0.7932 -2.4040  0.2426
 2225TIP3   OH2 6638   6.562   3.311   0.459  0.2538  0.7602 -0.0341
 2225TIP3    H1 6639   6.515   3.309   0.376 -0.9796  1.1903  0.6291
 2225TIP3    H2 6640   6.513   3.252   0.516  0.6869  0.9896  0.5886
 2226TIP3   OH2 6641   6.056   4.131   0.935  0.0527 -0.2648  0.9188
 2226TIP3    H1 6642   6.072   4.163   1.024 -0.8520 -0.3856  1.1275
 2226TIP3    H2 6643   6.100   4.046   0.932 -0.7980 -0.7431  1.5953
 2227TIP3   OH2 6644   6.564   1.656   2.826 -0.1280  0.0400  0.4116
 2227TIP3    H1 6645   6.489   1.701   2.787  1.0765  1.0473 -0.8517
 2227TIP3    H2 6646   6.639   1.687   2.775  1.0263 -1.7144  0.9795
 2228TIP3   OH2 6647   0.549   5.806   4.554 -0.0398 -0.2995 -0.4987
 2228TIP3    H1 6648   0.484   5.851   4.501  2.0440  2.8866 -0.5855
 2228TIP3    H2 6649   0.543   5.847   4.640  1.4089 -0.3705 -0.3341
 2229TIP3   OH2 6650   0.743   4.341   2.785  0.0952  0.0347  0.3307
 2229TIP3    H1 6651   0.712   4.430   2.801  0.3058  0.1360  0.1765
 2229TIP3    H2 6652   0.761   4.305   2.872 -0.3479  0.0122  0.4190
 2230TIP3   OH2 6653   5.257   5.120   3.555 -0.1934  0.0328  0.4984
 2230TIP3    H1 6654   5.304   5.082   3.629 -1.5632 -0.3204  1.2130
 2230TIP3    H2 6655   5.283   5.213   3.556  0.9045 -0.2514  0.5092
 2231TIP3   OH2 6656   1.914   2.106   0.259 -0.2974  0.4288 -0.0810
 2231TIP3    H1 6657   1.864   2.182   0.228  1.4277  1.0566 -1.5163
 2231TIP3    H2 6658   1.870   2.031   0.221 -0.7505  0.8772 -0.4652
 2232TIP3   OH2 6659   5.526   5.506   2.793 -0.1168 -0.3560 -0.1061
 2232TIP3    H1 6660   5.555   5.490   2.883  0.0514 -0.2377 -0.1388
 2232TIP3    H2 6661   5.603   5.540   2.749 -0.3332  0.0560 -0.1714
 2233TIP3   OH2 6662   4.786   2.872   0.225 -0.5531 -0.6856 -0.1385
 2233TIP3    H1 6663   4.782   2.868   0.130 -0.2997 -2.2723 -0.1197
 2233TIP3    H2 6664   4.872   2.910   0.244 -0.3567 -0.9169 -0.5523
 2234TIP3   OH2 6665   4.597   2.120   3.869  0.1908 -0.0135  0.1466
 2234TIP3    H1 6666   4.614   2.116   3.775  2.6147 -1.1143  0.5545
 2234TIP3    H2 6667   4.502   2.124   3.876 -0.0303  0.3454 -2.3502
 2235TIP3   OH2 6668   1.962   5.392   1.991 -0.1340  0.5014  0.1703
 2235TIP3    H1 6669   2.049   5.416   1.957 -0.1456  0.2112 -0.0710
 2235TIP3    H2 6670   1.904   5.400   1.916 -0.2219  0.1945  0.2013
 2236TIP3   OH2 6671   4.154   2.341   1.815  0.1375  0.6305 -0.3198
 2236TIP3    H1 6672   4.207   2.320   1.892 -0.0396  2.1800  0.2483
 2236TIP3    H2 6673   4.134   2.255   1.777 -0.1410 -0.2241  1.5967
 2237TIP3   OH2 6674   3.059   3.334   3.208  0.4444  0.2837  0.1073
 2237TIP3    H1 6675   2.994   3.343   3.139 -0.1603 -0.9103  0.4844
 2237TIP3    H2 6676   3.050   3.413   3.261  0.5287  0.9456 -0.8386
 2238TIP3   OH2 6677   2.779   5.715   4.543 -0.1344  0.3925  0.1550
 2238TIP3    H1 6678   2.777   5.697   4.449 -2.2133 -0.2854  0.3007
 2238TIP3    H2 6679   2.844   5.654   4.578 -3.0638 -3.2179 -0.1488
 2239TIP3   OH2 6680   3.947   5.799   0.896 -0.1971 -0.3474  0.4031
 2239TIP3    H1 6681   3.895   5.848   0.832 -0.8132 -0.7726  0.5731
 2239TIP3    H2 6682   3.990   5.731   0.844 -0.0767 -0.2074  0.3176
 2240TIP3   OH2 6683   1.891   5.395   0.032  0.2156  0.1565  0.2108
 2240TIP3    H1 6684   1.831   5.396  -0.043 -0.7806  0.1348  0.9885
 2240TIP3    H2 6685   1.902   5.487   0.056 -0.2916  0.0969  0.6781
 2241TIP3   OH2 6686   6.901   0.819   3.341  0.0044  0.3873 -0.0336
 2241TIP3    H1 6687   6.850   0.745   3.311  1.9782 -0.7201 -0.8226
 2241TIP3    H2 6688   6.851   0.896   3.313 -0.8885 -0.6378 -1.3669
 2242TIP3   OH2 6689   2.418   6.541   3.095 -0.9952  0.3101 -0.0116
 2242TIP3    H1 6690   2.330   6.517   3.066 -1.4597  2.3424 -0.4611
 2242TIP3    H2 6691   2.457   6.459   3.125 -1.3389 -1.5615 -4.0885
 2243TIP3   OH2 6692   4.252   3.992   3.525 -0.2180  0.0225  0.2799
 2243TIP3    H1 6693   4.286   4.065   3.577  0.5110 -0.1959  0.1127
 2243TIP3    H2 6694   4.191   3.948   3.584 -0.3685  0.5355  0.5132
 2244TIP3   OH2 6695   1.252   2.008   5.656 -0.1458  0.3573  0.0922
 2244TIP3    H1 6696   1.281   2.053   5.735 -0.2031  0.7189 -0.0941
 2244TIP3    H2 6697   1.332   1.968   5.620  0.2234  1.7166 -0.6599
 2245TIP3   OH2 6698   1.624   4.026   4.880  0.0089 -0.1807 -0.2997
 2245TIP3    H1 6699   1.569   4.032   4.958 -0.2838  1.2682 -0.5852
 2245TIP3    H2 6700   1.709   3.996   4.913 -0.3762 -0.4781  0.4377
 2246TIP3   OH2 6701   6.563   4.032   1.239 -0.4493 -0.1502 -0.3857
 2246TIP3    H1 6702   6.538   3.946   1.205 -2.5225  0.3785 -0.3653
 2246TIP3    H2 6703   6.484   4.064   1.283  0.2828  1.7352 -0.3568
 2247TIP3   OH2 6704   1.660   5.875   0.623  0.5086 -0.1221 -0.3382
 2247TIP3    H1 6705   1.720   5.949   0.637 -0.0717  0.7049 -1.9906
 2247TIP3    H2 6706   1.718   5.802   0.601  0.9641  0.7619 -2.3264
 2248TIP3   OH2 6707   3.427   5.835   3.345 -0.3835 -0.4974 -0.7725
 2248TIP3    H1 6708   3.408   5.756   3.395  1.6497  0.2968  1.4703
 2248TIP3    H2 6709   3.507   5.815   3.298  1.4641  0.8179  1.5954
 2249TIP3   OH2 6710   1.111   0.684   3.638  0.2115 -0.8743 -0.6362
 2249TIP3    H1 6711   1.184   0.664   3.579  0.0025 -2.4038 -0.4073
 2249TIP3    H2 6712   1.078   0.599   3.665 -2.3009 -0.2460 -1.4920
 2250TIP3   OH2 6713   3.751   5.064   3.357 -0.2195 -0.8600 -0.0878
 2250TIP3    H1 6714   3.733   4.970   3.360 -0.5251 -0.8645 -1.5078
 2250TIP3    H2 6715   3.785   5.085   3.444 -1.7850 -1.9501  0.8333
 2251TIP3   OH2 6716   3.725   2.478   2.204 -0.5071  0.0339  0.3630
 2251TIP3    H1 6717   3.711   2.391   2.242 -0.8675  0.6902  1.8012
 2251TIP3    H2 6718   3.738   2.535   2.280  1.4163  0.9709 -0.6117
 2252TIP3   OH2 6719   6.287   5.143   0.429  0.2492 -0.1866  0.4003
 2252TIP3    H1 6720   6.239   5.225   0.416  0.7247 -0.0933 -0.8640
 2252TIP3    H2 6721   6.378   5.170   0.441  0.3588 -0.5152  0.3237
 2253TIP3   OH2 6722   1.977   4.063   4.041 -0.2808 -0.4610 -0.0920
 2253TIP3    H1 6723   1.899   4.012   4.024 -0.3104  0.2274 -2.3519
 2253TIP3    H2 6724   1.945   4.152   4.057  0.0005 -0.1957 -0.9294
 2254TIP3   OH2 6725   4.874   3.770   0.911  0.7725 -0.2506  0.0969
 2254TIP3    H1 6726   4.800   3.710   0.926 -0.9944  1.8961  0.4248
 2254TIP3    H2 6727   4.942   3.739   0.972 -0.4575 -1.2984  1.0024
 2255TIP3   OH2 6728   0.343   0.777   2.132  0.1993 -0.3918 -0.0753
 2255TIP3    H1 6729   0.420   0.780   2.075  0.5396 -3.3915  0.1061
 2255TIP3    H2 6730   0.269   0.777   2.071  0.4722 -0.8399 -0.4151
 2256TIP3   OH2 6731   6.879   3.640   5.182 -0.4289 -0.0072  0.1733
 2256TIP3    H1 6732   6.856   3.732   5.166  0.5351  0.4611  1.3891
 2256TIP3    H2 6733   6.865   3.597   5.097 -0.8455  1.2630 -0.4242
 2257TIP3   OH2 6734   4.345   4.830   0.148 -0.3048  0.8871 -0.1809
 2257TIP3    H1 6735   4.436   4.845   0.175 -0.5931  0.1252  1.3512
 2257TIP3    H2 6736   4.311   4.918   0.130  0.7990  1.1607 -1.0389
 2258TIP3   OH2 6737   4.479   3.815   1.135  0.9063 -0.2407  0.2261
 2258TIP3    H1 6738   4.397   3.841   1.093  1.1040 -0.1505 -0.1146
 2258TIP3    H2 6739   4.455   3.792   1.224  1.1021  3.9489  1.5572
 2259TIP3   OH2 6740   6.857   2.723   1.665  0.1862 -1.0325  0.3458
 2259TIP3    H1 6741   6.802   2.791   1.626  0.0299 -0.8535  0.8779
 2259TIP3    H2 6742   6.881   2.667   1.591 -0.7566 -1.1390  0.1057
 2260TIP3   OH2 6743   2.683   1.003   1.538  0.1872  0.3250 -0.5170
 2260TIP3    H1 6744   2.711   1.059   1.466 -0.4036  0.1638 -0.8800
 2260TIP3    H2 6745   2.661   0.920   1.496 -1.0002  0.5019 -0.2848
 2261TIP3   OH2 6746   5.084   2.782   1.330 -0.2237  0.2587 -0.0446
 2261TIP3    H1 6747   5.109   2.832   1.407 -1.8661  0.7462  0.2101
 2261TIP3    H2 6748   5.112   2.692   1.349 -1.2627  0.2297  1.4556
 2262TIP3   OH2 6749   3.121   1.944   2.750 -0.0303 -0.1468  0.7356
 2262TIP3    H1 6750   3.106   2.008   2.680 -0.2598 -1.1930 -0.1977
 2262TIP3    H2 6751   3.192   1.889   2.717  1.0455  0.3854  2.0716
 2263TIP3   OH2 6752   3.612   2.040   0.499  0.3063 -0.3141  0.0043
 2263TIP3    H1 6753   3.584   2.048   0.407  0.0963  1.0134  0.1612
 2263TIP3    H2 6754   3.544   1.986   0.540 -0.9891  1.1835 -0.0768
 2264TIP3   OH2 6755   4.033   3.081   0.240  0.0432  0.3788 -0.1386
 2264TIP3    H1 6756   4.051   2.997   0.283  1.7843  0.7458 -0.0760
 2264TIP3    H2 6757   4.064   3.070   0.150  2.3774  1.5948  0.4390
 2265TIP3   OH2 6758   3.409   0.594   3.673 -0.0829 -0.3975  0.1142
 2265TIP3    H1 6759   3.496   0.574   3.706 -0.6881 -2.4819  0.6340
 2265TIP3    H2 6760   3.353   0.593   3.750 -0.9828 -2.0246 -0.4991
 2266TIP3   OH2 6761   6.054   4.293   1.844  0.4928 -0.1509  0.1839
 2266TIP3    H1 6762   6.036   4.382   1.813  1.2803 -0.1442 -0.2857
 2266TIP3    H2 6763   5.969   4.250   1.847  0.0944  0.6524  0.5226
 2267TIP3   OH2 6764   1.197   4.327   5.167 -0.1242  0.0297 -0.5501
 2267TIP3    H1 6765   1.280   4.279   5.158 -0.9678 -1.5812 -0.1071
 2267TIP3    H2 6766   1.184   4.335   5.261 -0.3626  0.5078 -0.6195
 2268TIP3   OH2 6767   0.954   3.108   2.896  0.0615 -0.1036  0.8678
 2268TIP3    H1 6768   0.958   3.201   2.922  1.0541  0.3197 -0.6867
 2268TIP3    H2 6769   0.878   3.103   2.838  0.8909  0.1001 -0.2764
 2269TIP3   OH2 6770   3.664   1.863   4.299  0.3140  0.0238  0.2693
 2269TIP3    H1 6771   3.628   1.837   4.214  0.8858  0.3938 -0.0993
 2269TIP3    H2 6772   3.603   1.828   4.363 -0.9857  1.0941 -0.3455
 2270TIP3   OH2 6773   6.902   2.528   5.412  0.7614 -0.1097 -0.8846
 2270TIP3    H1 6774   6.832   2.492   5.467  1.2646  1.0774  0.5946
 2270TIP3    H2 6775   6.858   2.552   5.330 -0.3290 -0.4582 -0.4163
 2271TIP3   OH2 6776   2.400   3.008   5.071  0.2639 -0.5153  0.3842
 2271TIP3    H1 6777   2.436   3.096   5.074 -1.0400  0.0008  1.8585
 2271TIP3    H2 6778   2.312   3.016   5.107 -1.3348 -1.7731 -2.8195
 2272TIP3   OH2 6779   2.447   5.437   0.878 -0.0820  0.5022 -0.0734
 2272TIP3    H1 6780   2.397   5.393   0.948 -0.3343  0.4402 -0.2920
 2272TIP3    H2 6781   2.483   5.515   0.920  0.7118 -0.1182  0.4301
 2273TIP3   OH2 6782   5.127   4.829   5.253  0.2516  0.2915 -0.2521
 2273TIP3    H1 6783   5.038   4.815   5.222 -0.2458  1.9321  0.3635
 2273TIP3    H2 6784   5.161   4.899   5.197  1.1260 -0.2600 -0.4243
 2274TIP3   OH2 6785   0.383   2.502   0.769  0.1213  0.5010  0.0847
 2274TIP3    H1 6786   0.309   2.448   0.740 -0.8782  0.8184  1.8947
 2274TIP3    H2 6787   0.369   2.587   0.728 -0.3754  0.4644  0.1679
 2275TIP3   OH2 6788   4.466   0.699   0.856  0.2537  0.2506 -0.5885
 2275TIP3    H1 6789   4.561   0.702   0.843  0.9515 -2.9151  2.2437
 2275TIP3    H2 6790   4.440   0.614   0.822 -0.3618 -1.5241  3.6833
 2276TIP3   OH2 6791   0.247   4.507   2.892  0.1445 -0.3006  0.2785
 2276TIP3    H1 6792   0.208   4.464   2.968  2.7949 -2.8145  0.3527
 2276TIP3    H2 6793   0.224   4.451   2.818 -2.8547  2.3835 -1.0650
 2277TIP3   OH2 6794   1.468   2.757   4.792 -0.4696  0.3318 -0.5232
 2277TIP3    H1 6795   1.401   2.826   4.784 -0.6458  0.1422 -0.6811
 2277TIP3    H2 6796   1.467   2.713   4.707  0.4160  0.8366 -0.8018
 2278TIP3   OH2 6797   6.231   5.249   5.666 -0.8388  0.3001 -0.0003
 2278TIP3    H1 6798   6.321   5.263   5.635 -0.6053 -0.9941  0.0598
 2278TIP3    H2 6799   6.217   5.155   5.658 -3.1316  0.7357 -2.5512
 2279TIP3   OH2 6800   2.137   4.363   5.574 -0.0048  0.1991 -0.3037
 2279TIP3    H1 6801   2.085   4.292   5.612  1.3177 -0.5675  0.1198
 2279TIP3    H2 6802   2.184   4.400   5.648  3.1418 -1.7478 -1.1572
 2280TIP3   OH2 6803   7.050   2.457   1.951  0.2853 -0.1510 -0.2113
 2280TIP3    H1 6804   7.106   2.390   1.991 -0.3172 -1.5905 -1.6556
 2280TIP3    H2 6805   7.090   2.474   1.865 -0.2803  0.3948 -0.3746
 2281TIP3   OH2 6806   6.252   6.036   2.465  0.0408  0.3150  0.0266
 2281TIP3    H1 6807   6.159   6.020   2.451  0.2973  0.1832 -1.8375
 2281TIP3    H2 6808   6.260   6.132   2.465  0.1372  0.3462 -1.9832
 2282TIP3   OH2 6809   0.822   4.052   2.434  0.1155 -0.1950  0.6038
 2282TIP3    H1 6810   0.781   3.982   2.484  1.3850 -0.4650  1.3097
 2282TIP3    H2 6811   0.780   4.132   2.466 -1.3448 -0.5972 -0.2134
 2283TIP3   OH2 6812   3.734   1.489   4.277  0.4157 -0.2596  0.7733
 2283TIP3    H1 6813   3.690   1.567   4.243  0.2653 -0.1593  1.1911
 2283TIP3    H2 6814   3.674   1.417   4.259  0.7520 -0.3585 -0.0260
 2284TIP3   OH2 6815   1.454   1.168   4.168 -0.2486  0.1052  0.7070
 2284TIP3    H1 6816   1.523   1.204   4.112 -2.0313  2.3558 -0.1635
 2284TIP3    H2 6817   1.472   1.205   4.255 -0.0195  0.1582  0.6375
 2285TIP3   OH2 6818   4.419   0.684   1.739  0.0056 -0.5844 -0.0381
 2285TIP3    H1 6819   4.328   0.713   1.742  0.6334  1.5373  0.0086
 2285TIP3    H2 6820   4.438   0.656   1.829 -0.0195  0.9711  0.4783
 2286TIP3   OH2 6821   0.746   0.418   2.642 -0.2713 -0.5213 -0.2140
 2286TIP3    H1 6822   0.832   0.401   2.681 -0.5554 -1.0063  0.2200
 2286TIP3    H2 6823   0.732   0.512   2.655  0.9262 -0.0736 -1.8253
 2287TIP3   OH2 6824   6.621   1.901   4.167 -0.1342  0.2431  0.0639
 2287TIP3    H1 6825   6.712   1.905   4.137  0.7807  0.0666  2.5866
 2287TIP3    H2 6826   6.612   1.813   4.204  0.0253  1.5039  3.4781
 2288TIP3   OH2 6827   2.598   2.873   5.210 -0.4673 -0.6166  0.0838
 2288TIP3    H1 6828   2.528   2.934   5.187  2.3688  3.2910  0.7144
 2288TIP3    H2 6829   2.660   2.879   5.138  1.9720  0.9601  2.1046
 2289TIP3   OH2 6830   5.044   6.277   2.161  0.5975  0.4030  0.1597
 2289TIP3    H1 6831   4.965   6.255   2.211  1.3771  0.2416  1.3645
 2289TIP3    H2 6832   5.015   6.344   2.100  0.1059  2.4718  2.5169
 2290TIP3   OH2 6833   5.689   0.862   1.833  0.1293 -0.0030 -0.0361
 2290TIP3    H1 6834   5.649   0.949   1.841 -2.7419 -1.1182 -0.7951
 2290TIP3    H2 6835   5.769   0.876   1.784 -0.4679  2.1814 -0.4778
 2291TIP3   OH2 6836   3.815   5.192   4.098 -0.3142 -0.0273 -0.2931
 2291TIP3    H1 6837   3.820   5.266   4.159 -0.3969  1.5571 -2.1001
 2291TIP3    H2 6838   3.881   5.130   4.130  0.4024  1.2209  0.7688
 2292TIP3   OH2 6839   6.415   5.707   0.828  0.3359 -0.1423  0.7199
 2292TIP3    H1 6840   6.383   5.618   0.815  2.2786 -0.8701  0.4932
 2292TIP3    H2 6841   6.339   5.756   0.859 -1.6531 -1.0361 -2.3355
 2293TIP3   OH2 6842   6.496   2.814   0.933  0.1540 -0.0092 -0.2122
 2293TIP3    H1 6843   6.547   2.796   0.854  1.7181  1.0341  0.5075
 2293TIP3    H2 6844   6.455   2.731   0.955 -0.9525 -0.1620 -2.5190
 2294TIP3   OH2 6845   5.409   4.249   1.502  0.1457  0.6550  0.2803
 2294TIP3    H1 6846   5.364   4.320   1.549  0.1315  0.5866  0.3698
 2294TIP3    H2 6847   5.341   4.211   1.447  0.3505  1.2401 -0.3836
 2295TIP3   OH2 6848   2.470   1.328   1.680  0.5900 -0.2577  0.2862
 2295TIP3    H1 6849   2.506   1.308   1.767 -1.9180  1.1043  1.7581
 2295TIP3    H2 6850   2.395   1.268   1.671  0.1022  0.4452 -0.3910
 2296TIP3   OH2 6851   0.799   0.653   0.948 -0.2353 -0.6838 -0.0152
 2296TIP3    H1 6852   0.745   0.669   1.026  1.3129  1.4919  0.6991
 2296TIP3    H2 6853   0.889   0.663   0.979  0.5363 -2.1175 -1.6265
 2297TIP3   OH2 6854   3.830   3.013   1.856 -0.2445 -0.5496 -0.1164
 2297TIP3    H1 6855   3.780   3.005   1.775 -0.6340 -1.4834  0.2003
 2297TIP3    H2 6856   3.906   2.956   1.844  0.1833  0.0236 -0.1754
 2298TIP3   OH2 6857   5.099   6.402   5.325  0.4433 -0.3831  0.4274
 2298TIP3    H1 6858   5.160   6.463   5.367  0.3831 -0.2179  0.2774
 2298TIP3    H2 6859   5.058   6.453   5.255 -1.4086  0.1630  1.8147
 2299TIP3   OH2 6860   6.023   0.130   0.959  0.3251 -0.1945 -0.3892
 2299TIP3    H1 6861   5.967   0.084   1.022  0.9453  0.9170  1.0209
 2299TIP3    H2 6862   6.006   0.086   0.876  0.1801 -2.3338  0.6996
 2300TIP3   OH2 6863   1.662   6.206   3.937 -0.0492 -0.2274  0.0984
 2300TIP3    H1 6864   1.583   6.156   3.918 -0.3034  0.7742 -1.6962
 2300TIP3    H2 6865   1.716   6.198   3.858 -0.3896  2.7951 -0.5807
 2301TIP3   OH2 6866   6.529   2.956   0.121  0.4655 -0.1158 -0.1382
 2301TIP3    H1 6867   6.489   2.948   0.207 -0.5763  0.0662 -0.5900
 2301TIP3    H2 6868   6.559   2.867   0.100 -0.2383 -0.3849 -0.0362
 2302TIP3   OH2 6869   2.387   6.740   1.195  0.3860  0.0230  0.1345
 2302TIP3    H1 6870   2.335   6.812   1.158  0.8842  0.2793 -0.0754
 2302TIP3    H2 6871   2.345   6.661   1.162  0.3302  0.2368 -0.3106
 2303TIP3   OH2 6872   6.374   2.942   5.087  0.3286  0.2257  0.2846
 2303TIP3    H1 6873   6.366   3.007   5.016 -0.0950  0.8184  0.8573
 2303TIP3    H2 6874   6.437   2.981   5.147 -0.6622  0.5969  1.1282
 2304TIP3   OH2 6875   5.854   5.045   3.312 -0.1611  0.3766 -0.2876
 2304TIP3    H1 6876   5.855   5.070   3.220  1.6186 -0.5236 -0.5480
 2304TIP3    H2 6877   5.840   4.951   3.311 -0.1745  0.3665  0.3782
 2305TIP3   OH2 6878   0.335   5.434   4.777  0.7088  0.3284 -0.4820
 2305TIP3    H1 6879   0.262   5.382   4.811  1.9035 -0.9859  0.1219
 2305TIP3    H2 6880   0.309   5.453   4.686 -0.2042 -0.4601 -0.4097
 2306TIP3   OH2 6881   4.418   5.964   1.217  0.2088 -0.0179  0.0289
 2306TIP3    H1 6882   4.344   5.949   1.157 -1.0011  2.7590  0.6662
 2306TIP3    H2 6883   4.417   5.889   1.276 -4.2254  1.2819  2.0135
 2307TIP3   OH2 6884   2.025   2.062   4.151  0.3542 -0.7725 -0.2734
 2307TIP3    H1 6885   2.078   2.040   4.074  0.4656  2.5798 -1.3355
 2307TIP3    H2 6886   2.088   2.067   4.223  0.9605 -0.0358 -0.8347
 2308TIP3   OH2 6887   3.002   3.759   0.698 -0.4046  0.2471  0.3077
 2308TIP3    H1 6888   3.009   3.854   0.711  0.1749 -0.0205  2.2003
 2308TIP3    H2 6889   3.089   3.732   0.668  0.3353 -0.0433  2.5608
 2309TIP3   OH2 6890   5.261   2.774   4.844 -0.4093 -0.0580 -0.0798
 2309TIP3    H1 6891   5.254   2.775   4.940  0.6053  0.3580  0.0096
 2309TIP3    H2 6892   5.174   2.800   4.813 -0.8749 -0.6189  0.7167
 2310TIP3   OH2 6893   2.700   2.444   5.701 -0.1756 -0.0949  0.1735
 2310TIP3    H1 6894   2.776   2.396   5.668 -0.0390 -0.1741  0.5991
 2310TIP3    H2 6895   2.708   2.439   5.796  0.7325  2.1518  0.2727
 2311TIP3   OH2 6896   1.967   4.668   3.262 -0.2979  0.1679  0.0264
 2311TIP3    H1 6897   1.906   4.660   3.188 -2.2427  4.4210  0.8382
 2311TIP3    H2 6898   1.911   4.660   3.339  0.1959  3.0203  0.8027
 2312TIP3   OH2 6899   0.622   6.326   5.479  0.2045 -0.3405 -0.7022
 2312TIP3    H1 6900   0.621   6.355   5.570 -1.7495 -0.0156 -0.7888
 2312TIP3    H2 6901   0.586   6.237   5.481  2.5034 -1.3557 -0.9108
 2313TIP3   OH2 6902   5.617   2.625   1.879  0.3673 -0.4526 -0.0507
 2313TIP3    H1 6903   5.676   2.587   1.945  1.7858  0.1832 -0.9212
 2313TIP3    H2 6904   5.580   2.702   1.922  1.9209  0.4340 -0.2429
 2314TIP3   OH2 6905   6.967   4.353   0.993 -0.1709  0.0564 -0.2775
 2314TIP3    H1 6906   7.052   4.362   0.951 -1.2651  0.3697 -2.6271
 2314TIP3    H2 6907   6.986   4.331   1.084  2.3925  0.9392 -0.5436
 2315TIP3   OH2 6908   7.024   3.894   5.460 -0.2592 -0.0108 -0.0698
 2315TIP3    H1 6909   6.933   3.910   5.485 -0.6390 -0.3372 -1.1590
 2315TIP3    H2 6910   7.076   3.942   5.524 -1.2187  0.6949  0.1969
 2316TIP3   OH2 6911   6.888   0.051   0.498 -0.1915 -0.0483  0.2160
 2316TIP3    H1 6912   6.957   0.083   0.556 -0.9874 -0.9133  1.7121
 2316TIP3    H2 6913   6.826   0.007   0.557 -0.9148 -1.1916 -1.3292
 2317TIP3   OH2 6914   1.166   4.115   3.864  0.3569  0.3572  1.0801
 2317TIP3    H1 6915   1.195   4.202   3.892 -0.9906  1.6483 -1.1971
 2317TIP3    H2 6916   1.075   4.128   3.838  0.3088 -1.6238  0.1121
 2318TIP3   OH2 6917   5.500   3.974   5.385 -0.1481  0.2124 -0.3492
 2318TIP3    H1 6918   5.436   3.903   5.395  1.4448 -1.1032  1.3148
 2318TIP3    H2 6919   5.494   4.023   5.467 -2.2875  3.0891 -2.0323
 2319TIP3   OH2 6920   3.720   4.256   3.659  0.4509  0.1246  0.0395
 2319TIP3    H1 6921   3.658   4.247   3.731  0.9379 -1.1912  0.3286
 2319TIP3    H2 6922   3.669   4.236   3.580  0.8021 -2.6162  0.4103
 2320TIP3   OH2 6923   1.577   5.541   5.058  0.5852  0.5077  0.2444
 2320TIP3    H1 6924   1.495   5.528   5.104  0.3143  0.8545 -0.1311
 2320TIP3    H2 6925   1.583   5.636   5.045  0.4902  0.3916 -0.7142
 2321TIP3   OH2 6926   6.701   5.467   4.819  0.2375  0.1703  0.1056
 2321TIP3    H1 6927   6.684   5.561   4.816 -0.1732  0.1638  1.4967
 2321TIP3    H2 6928   6.617   5.426   4.796 -0.2815  0.1686  1.8129
 2322TIP3   OH2 6929   4.221   6.734   5.331 -0.1286 -0.1872  0.1110
 2322TIP3    H1 6930   4.196   6.802   5.268  0.5209 -1.0094 -1.0862
 2322TIP3    H2 6931   4.314   6.751   5.349 -0.0372 -0.5851  0.0219
 2323TIP3   OH2 6932   0.061   1.956   2.345 -0.1766  0.7112 -0.2602
 2323TIP3    H1 6933   0.140   2.004   2.371  0.0446  0.8334 -1.1141
 2323TIP3    H2 6934   0.091   1.895   2.278 -0.8210  0.8078 -0.6486
 2324TIP3   OH2 6935   4.438   1.562   1.089  0.0976  0.2935  0.5729
 2324TIP3    H1 6936   4.417   1.501   1.159 -0.0858  0.3925  0.6054
 2324TIP3    H2 6937   4.370   1.630   1.095  0.8992  1.0565  1.1961
 2325TIP3   OH2 6938   2.796   1.881   3.119 -0.8532  0.1122 -0.0059
 2325TIP3    H1 6939   2.802   1.886   3.024 -1.9176  1.7185 -0.0208
 2325TIP3    H2 6940   2.758   1.965   3.146 -1.1120 -0.5272  1.7890
 2326TIP3   OH2 6941   3.766   2.303   0.167 -0.1017 -0.3064  0.4222
 2326TIP3    H1 6942   3.845   2.279   0.119 -0.5007  1.3002 -1.1577
 2326TIP3    H2 6943   3.706   2.230   0.153  0.3785 -0.6017 -0.1159
 2327TIP3   OH2 6944   6.672   4.554   5.583 -0.2713 -0.2841  0.3197
 2327TIP3    H1 6945   6.679   4.637   5.536  0.8856 -0.9973 -0.8390
 2327TIP3    H2 6946   6.588   4.518   5.555  0.1100 -0.3980 -0.7589
 2328TIP3   OH2 6947   7.239   2.164   4.862  0.6940 -0.0777  0.0289
 2328TIP3    H1 6948   7.161   2.137   4.815  0.2684 -0.1462  0.7735
 2328TIP3    H2 6949   7.253   2.255   4.835 -0.9277  0.6731  1.5666
 2329TIP3   OH2 6950   2.888   0.576   4.235 -0.1906  0.1982  0.4014
 2329TIP3    H1 6951   2.848   0.651   4.193 -0.8036  0.5149  1.5048
 2329TIP3    H2 6952   2.957   0.613   4.290  1.6046 -0.3345 -1.4068
 2330TIP3   OH2 6953   6.635   2.022   4.448  1.0441 -0.0752  0.2847
 2330TIP3    H1 6954   6.598   2.057   4.368  0.2669 -0.0956  0.6248
 2330TIP3    H2 6955   6.620   2.090   4.514  1.3713 -0.1969  0.4911
 2331TIP3   OH2 6956   4.128   4.796   2.688  0.1874  0.0049  0.2831
 2331TIP3    H1 6957   4.089   4.860   2.747 -0.2835 -0.1617  0.1638
 2331TIP3    H2 6958   4.075   4.717   2.701 -0.1779  0.0836 -0.6473
 2332TIP3   OH2 6959   7.048   5.239   5.680  0.5782  0.6229 -0.1435
 2332TIP3    H1 6960   7.111   5.217   5.748  0.5745  0.4524 -0.1951
 2332TIP3    H2 6961   7.093   5.220   5.598 -0.6531 -2.7942 -0.1952
 2333TIP3   OH2 6962   3.057   5.742   3.823 -0.1315  0.2649 -0.5182
 2333TIP3    H1 6963   3.150   5.720   3.823 -0.0823  0.4475 -0.0935
 2333TIP3    H2 6964   3.032   5.737   3.915 -0.9900 -1.5822 -0.8034
 2334TIP3   OH2 6965   4.933   5.240   4.616 -0.0044  0.2078  0.0073
 2334TIP3    H1 6966   4.894   5.313   4.665  0.0018 -0.6289  1.2978
 2334TIP3    H2 6967   4.986   5.282   4.548  0.8579  1.4458  1.3901
 2335TIP3   OH2 6968   4.301   2.928   3.985  0.3485  0.2360 -1.0604
 2335TIP3    H1 6969   4.243   3.004   3.987  2.2697  1.7861  0.3145
 2335TIP3    H2 6970   4.242   2.853   3.992 -1.5105  1.7413  1.4513
 2336TIP3   OH2 6971   4.223   3.179   3.242  0.3695 -0.3265 -0.3666
 2336TIP3    H1 6972   4.280   3.103   3.234  0.8023 -0.0976  0.4356
 2336TIP3    H2 6973   4.279   3.247   3.280 -0.2181  0.1516 -0.3453
 2337TIP3   OH2 6974   6.104   0.410   2.310 -0.9820  0.7300  0.0497
 2337TIP3    H1 6975   6.150   0.395   2.392 -1.9188 -0.2442  0.4157
 2337TIP3    H2 6976   6.056   0.492   2.323 -0.3793  1.0721  0.1255
 2338TIP3   OH2 6977   4.722   5.361   2.108 -0.2535 -0.3066 -0.2124
 2338TIP3    H1 6978   4.714   5.418   2.185  2.5873 -2.2000  1.6673
 2338TIP3    H2 6979   4.769   5.415   2.044 -1.7140  0.9416 -0.2971
 2339TIP3   OH2 6980   3.222   0.228   0.046 -0.4113  0.0773  0.3058
 2339TIP3    H1 6981   3.187   0.167   0.110 -1.1068  0.1554  0.0111
 2339TIP3    H2 6982   3.231   0.311   0.093 -0.2646 -0.0389  0.4819
 2340TIP3   OH2 6983   6.510   4.604   2.517 -0.3044 -0.0621  1.0058
 2340TIP3    H1 6984   6.559   4.639   2.443 -0.1902 -0.1405  1.0445
 2340TIP3    H2 6985   6.474   4.681   2.561 -0.8597 -0.0451  0.5285
 2341TIP3   OH2 6986   4.874   6.610   1.630  0.2543  0.4586 -0.8644
 2341TIP3    H1 6987   4.847   6.523   1.598  2.0857 -0.6436  0.3976
 2341TIP3    H2 6988   4.945   6.592   1.692  2.3434  3.0013 -2.3079
 2342TIP3   OH2 6989   5.693   3.171   2.108 -0.4579 -0.0178  0.3785
 2342TIP3    H1 6990   5.643   3.145   2.032 -1.2975  2.5782 -0.0587
 2342TIP3    H2 6991   5.767   3.220   2.073 -1.7922  2.7611  1.1503
 2343TIP3   OH2 6992   1.619   4.470   3.298 -0.4403  0.1650  0.1839
 2343TIP3    H1 6993   1.666   4.422   3.229 -1.2616  1.4190 -1.3095
 2343TIP3    H2 6994   1.670   4.551   3.309 -0.8463  0.3921  0.3955
 2344TIP3   OH2 6995   4.356   2.184   4.194 -0.0186 -0.1230 -0.4211
 2344TIP3    H1 6996   4.352   2.179   4.098 -0.4372 -0.5968 -0.3786
 2344TIP3    H2 6997   4.287   2.125   4.224  1.3905 -1.5249  0.2064
 2345TIP3   OH2 6998   6.117   2.098   5.707 -0.4426 -0.0157 -0.2147
 2345TIP3    H1 6999   6.047   2.091   5.771  2.1514 -2.1023  2.6296
 2345TIP3    H2 7000   6.113   2.016   5.657  0.5648 -0.6079  0.6565
 2346TIP3   OH2 7001   4.566   0.044   3.806 -0.2402  0.5105 -0.1000
 2346TIP3    H1 7002   4.483   0.083   3.834 -0.7103  0.3528 -1.2321
 2346TIP3    H2 7003   4.631   0.111   3.826 -0.5844  0.5423  1.0288
 2347TIP3   OH2 7004   0.754   2.103   1.673 -0.3051 -0.4167 -0.2744
 2347TIP3    H1 7005   0.709   2.074   1.593  0.4594 -1.6552 -0.2688
 2347TIP3    H2 7006   0.684   2.143   1.725 -1.0013 -0.4455 -1.1474
 2348TIP3   OH2 7007   4.444   3.962   1.929  0.2290 -0.1282 -0.1405
 2348TIP3    H1 7008   4.445   3.936   1.837  0.7326  0.0139 -0.1788
 2348TIP3    H2 7009   4.397   3.891   1.973 -0.8453  0.2644 -0.6368
 2349TIP3   OH2 7010   0.828   1.237   1.118  0.2354  0.2266  0.7624
 2349TIP3    H1 7011   0.899   1.184   1.154 -2.2812 -1.1289  4.2598
 2349TIP3    H2 7012   0.828   1.316   1.171 -0.8161  0.2112  0.8030
 2350TIP3   OH2 7013   4.152   1.639   4.090  0.0520  0.3370  0.3604
 2350TIP3    H1 7014   4.113   1.636   4.177  2.4046 -0.5359  1.4760
 2350TIP3    H2 7015   4.243   1.665   4.105  1.0112 -1.5572 -1.6043
 2351TIP3   OH2 7016   0.744   1.967   2.538  0.3811  0.1820 -0.3185
 2351TIP3    H1 7017   0.709   1.922   2.615  0.7479  1.6018  0.7102
 2351TIP3    H2 7018   0.677   1.952   2.470 -0.3047 -0.4612  0.4661
 2352TIP3   OH2 7019   3.906   5.455   3.631  0.2191  0.0060 -0.0295
 2352TIP3    H1 7020   3.911   5.389   3.700 -0.0123  0.3739  0.3468
 2352TIP3    H2 7021   3.977   5.432   3.571  1.9365  0.9929  1.5048
 2353TIP3   OH2 7022   5.814   3.401   3.053 -0.4926  0.0443 -0.2387
 2353TIP3    H1 7023   5.783   3.471   3.111 -0.0999  0.3169 -0.3514
 2353TIP3    H2 7024   5.900   3.378   3.087  0.1814  0.8902 -1.2763
 2354TIP3   OH2 7025   6.302   1.862   5.107  0.3512 -0.5766  0.5593
 2354TIP3    H1 7026   6.251   1.811   5.044 -0.3252  1.3608 -0.5331
 2354TIP3    H2 7027   6.319   1.801   5.179 -0.0074 -2.4662 -0.8701
 2355TIP3   OH2 7028   3.100   3.846   4.063 -0.2486  0.5744  0.0391
 2355TIP3    H1 7029   3.187   3.807   4.067  0.3354  1.9144  1.7572
 2355TIP3    H2 7030   3.048   3.796   4.126 -0.1305  1.0625  0.5360
 2356TIP3   OH2 7031   6.490   2.568   5.715 -0.0042 -0.0051  0.4003
 2356TIP3    H1 7032   6.401   2.555   5.748 -0.2255  1.1974  0.3283
 2356TIP3    H2 7033   6.479   2.626   5.639  0.8318  0.1156  0.3629
 2357TIP3   OH2 7034   1.037   2.995   3.433 -0.9072  0.0570  0.0696
 2357TIP3    H1 7035   0.978   2.935   3.478 -0.4698 -0.5462 -0.1415
 2357TIP3    H2 7036   1.116   2.943   3.416 -0.5800  0.6451 -0.2628
 2358TIP3   OH2 7037   6.136   3.493   5.365 -0.3010 -0.3454 -0.1179
 2358TIP3    H1 7038   6.170   3.504   5.453  0.0860 -0.8572 -0.1967
 2358TIP3    H2 7039   6.169   3.407   5.337  0.2471  0.1488 -1.0562
 2359TIP3   OH2 7040   6.971   6.530   0.756 -0.0449 -0.0809  0.5938
 2359TIP3    H1 7041   7.040   6.530   0.821  2.6446  1.4992 -1.9804
 2359TIP3    H2 7042   6.942   6.621   0.752  0.4067  0.0377 -0.8499
 2360TIP3   OH2 7043   6.235   5.953   3.582  0.1302 -0.0884 -0.0286
 2360TIP3    H1 7044   6.306   5.960   3.645 -1.6249  0.9479  1.9512
 2360TIP3    H2 7045   6.228   6.041   3.543  0.3077 -0.3484 -0.6618
 2361TIP3   OH2 7046   5.285   4.944   3.363  0.0251  0.3853  0.1712
 2361TIP3    H1 7047   5.294   4.868   3.420 -0.1187  0.9862  1.0235
 2361TIP3    H2 7048   5.268   5.017   3.423 -0.9502  0.9083 -0.6955
 2362TIP3   OH2 7049   3.353   5.540   0.030 -0.0022 -0.5997  0.0907
 2362TIP3    H1 7050   3.371   5.468  -0.031 -0.7883 -0.9569  0.2659
 2362TIP3    H2 7051   3.276   5.511   0.079  2.0240 -1.4282  3.0010
 2363TIP3   OH2 7052   2.424   3.607   1.820  0.6088  0.4012 -0.6612
 2363TIP3    H1 7053   2.463   3.609   1.732  1.0860 -0.2899 -0.4766
 2363TIP3    H2 7054   2.342   3.655   1.811  0.7964  0.5991 -1.4149
 2364TIP3   OH2 7055   2.679   0.728   4.620 -0.3088  0.0056  0.1196
 2364TIP3    H1 7056   2.764   0.685   4.620  0.6522  1.6983 -2.4208
 2364TIP3    H2 7057   2.695   0.813   4.581 -3.2586  0.2253 -0.8381
 2365TIP3   OH2 7058   2.064   5.975   2.276 -0.0971  0.8191 -0.4868
 2365TIP3    H1 7059   2.113   5.930   2.207  0.4157 -1.7614  1.4052
 2365TIP3    H2 7060   2.126   5.985   2.348 -1.6005 -0.3179  1.0690
 2366TIP3   OH2 7061   1.686   5.011   0.371  0.2679 -0.1497  0.0180
 2366TIP3    H1 7062   1.682   5.028   0.465 -1.8540  2.1964 -0.3694
 2366TIP3    H2 7063   1.753   4.944   0.361  0.8946 -0.1328  3.1376
 2367TIP3   OH2 7064   2.305   3.285   3.383  0.0744 -0.4213  0.2613
 2367TIP3    H1 7065   2.292   3.208   3.438 -0.9832 -0.4146  0.0398
 2367TIP3    H2 7066   2.217   3.310   3.354  0.5357 -0.0228 -0.8808
 2368TIP3   OH2 7067   4.375   2.019   3.546  0.2129  0.3717 -0.0165
 2368TIP3    H1 7068   4.446   2.026   3.482  1.6047  0.2225  1.4346
 2368TIP3    H2 7069   4.351   2.109   3.566 -0.3740  0.4155 -0.8815
 2369TIP3   OH2 7070   2.922   2.650   3.482 -0.6516  0.0799  0.2056
 2369TIP3    H1 7071   2.890   2.561   3.496 -1.1383  0.2345  0.1073
 2369TIP3    H2 7072   2.932   2.658   3.387  0.6629 -0.2924  0.2914
 2370TIP3   OH2 7073   5.380   3.185   0.801 -0.3560  0.2456 -0.2366
 2370TIP3    H1 7074   5.331   3.144   0.729  1.2229  0.5770 -1.5698
 2370TIP3    H2 7075   5.460   3.133   0.808 -0.2020  0.6144  0.8701
 2371TIP3   OH2 7076   5.142   0.592   5.776 -0.5259  0.4484  0.2220
 2371TIP3    H1 7077   5.226   0.594   5.822 -0.2548  3.6595 -0.2222
 2371TIP3    H2 7078   5.080   0.559   5.841  1.0346 -2.5826  0.3929
 2372TIP3   OH2 7079   5.547   1.067   2.736  0.0339  0.1993  0.4419
 2372TIP3    H1 7080   5.495   1.089   2.658  0.8698 -2.2464 -0.9279
 2372TIP3    H2 7081   5.505   0.988   2.771  2.0263 -1.1364 -0.0132
 2373TIP3   OH2 7082   4.479   3.971   4.370 -0.3387 -0.3135 -0.7119
 2373TIP3    H1 7083   4.503   4.042   4.430 -0.4143 -2.1899  1.6786
 2373TIP3    H2 7084   4.385   3.961   4.380 -0.4082 -0.4447 -1.4172
 2374TIP3   OH2 7085   2.026   5.721   3.869  0.5111  0.2028 -0.4485
 2374TIP3    H1 7086   2.059   5.811   3.867  2.0704 -0.3457 -1.1074
 2374TIP3    H2 7087   1.937   5.727   3.834 -0.2914  1.7938  1.6328
 2375TIP3   OH2 7088   0.104   5.896   2.093 -0.1160  0.3019  0.2270
 2375TIP3    H1 7089   0.172   5.961   2.077  1.6305 -1.7265 -1.2641
 2375TIP3    H2 7090   0.032   5.921   2.035 -0.4761  2.1403  1.3838
 2376TIP3   OH2 7091   1.610   2.090   2.643  0.0401  0.2184  0.0671
 2376TIP3    H1 7092   1.568   2.175   2.632  0.8962  0.7355  0.7301
 2376TIP3    H2 7093   1.641   2.067   2.555  0.1717  0.7776 -0.0342
 2377TIP3   OH2 7094   1.557   4.314   0.665  0.5550 -0.0328  0.6513
 2377TIP3    H1 7095   1.570   4.347   0.754  0.8852  0.2422  0.5023
 2377TIP3    H2 7096   1.623   4.359   0.612  0.3201 -0.1440  0.2529
 2378TIP3   OH2 7097   4.159   0.495   4.908 -0.3642 -0.0445 -0.0017
 2378TIP3    H1 7098   4.225   0.476   4.975  1.4076  0.4967 -1.5123
 2378TIP3    H2 7099   4.120   0.578   4.936  0.6920  0.4193  0.1319
 2379TIP3   OH2 7100   1.738   4.131   0.876 -0.1756 -0.8163 -0.2161
 2379TIP3    H1 7101   1.807   4.114   0.812  0.0094 -1.2626  0.0966
 2379TIP3    H2 7102   1.688   4.203   0.839 -0.7090 -1.7406 -1.3771
 2380TIP3   OH2 7103   0.233   5.158   5.081 -0.0056  0.0530 -0.5711
 2380TIP3    H1 7104   0.237   5.254   5.076  0.0068  0.0579 -0.4791
 2380TIP3    H2 7105   0.313   5.128   5.039 -0.2685  0.0664 -1.0840
 2381TIP3   OH2 7106   5.137   1.735   2.028 -0.2158  0.5320  0.3369
 2381TIP3    H1 7107   5.151   1.826   2.001  0.3358  0.2344 -0.4041
 2381TIP3    H2 7108   5.212   1.715   2.085 -1.3447  1.1401  2.1301
 2382TIP3   OH2 7109   2.037   2.766   4.242  0.1415 -0.5637  0.1448
 2382TIP3    H1 7110   2.060   2.834   4.178 -1.5287 -1.0987 -1.0962
 2382TIP3    H2 7111   2.081   2.793   4.323  0.4642  1.3646 -0.6249
 2383TIP3   OH2 7112   5.575   1.356   2.649  0.4140  1.2996  0.0455
 2383TIP3    H1 7113   5.641   1.288   2.634 -1.3235 -0.1493 -1.4330
 2383TIP3    H2 7114   5.621   1.438   2.633  1.6961  0.3028 -1.6912
 2384TIP3   OH2 7115   2.419   6.211   2.101  0.2878 -0.7130  0.0950
 2384TIP3    H1 7116   2.395   6.147   2.035  0.0587 -0.3485 -0.1825
 2384TIP3    H2 7117   2.335   6.246   2.132  0.4200  0.1141 -0.4251
 2385TIP3   OH2 7118   4.615   4.026   2.575  0.4615  0.3037  0.1862
 2385TIP3    H1 7119   4.557   4.087   2.619  0.9411  2.0636 -1.4787
 2385TIP3    H2 7120   4.698   4.033   2.622  0.7354  1.5478 -0.4401
 2386TIP3   OH2 7121   1.093   4.800   0.647 -0.2145  0.0017 -0.1049
 2386TIP3    H1 7122   1.169   4.792   0.590  0.3161  0.1622  0.5734
 2386TIP3    H2 7123   1.019   4.770   0.593 -0.1760  2.6419 -1.7827
 2387TIP3   OH2 7124   3.574   5.744   0.843  0.2060  0.0689 -0.1721
 2387TIP3    H1 7125   3.613   5.785   0.766 -0.5400  1.5595  0.2239
 2387TIP3    H2 7126   3.599   5.652   0.836  0.7536  0.3183 -1.8057
 2388TIP3   OH2 7127   4.637   1.438   3.505  0.7933 -0.0745  0.1987
 2388TIP3    H1 7128   4.706   1.497   3.476 -0.9402  2.6772  1.2582
 2388TIP3    H2 7129   4.558   1.492   3.506 -0.6603 -2.0065  2.6276
 2389TIP3   OH2 7130  -0.002   0.420   5.032 -0.4504  0.2438 -0.4811
 2389TIP3    H1 7131   0.027   0.344   4.981 -0.5834  0.5736 -1.0499
 2389TIP3    H2 7132   0.014   0.395   5.123  0.1744 -0.1852 -0.7057
 2390TIP3   OH2 7133   4.920   2.269   1.288 -0.1679  0.1896  0.0209
 2390TIP3    H1 7134   4.927   2.356   1.327 -1.6920 -0.0300  0.8727
 2390TIP3    H2 7135   4.975   2.273   1.210  0.4808  1.6326  0.5203
 2391TIP3   OH2 7136   5.348   1.461   5.073  0.1443 -0.3879  0.7413
 2391TIP3    H1 7137   5.281   1.527   5.092  0.5653  0.0025  0.8807
 2391TIP3    H2 7138   5.313   1.412   4.999  0.8726  1.5370 -0.9671
 2392TIP3   OH2 7139   2.592   1.329   5.707  0.0737 -0.5210 -0.4845
 2392TIP3    H1 7140   2.662   1.317   5.772  0.0926  0.8385 -0.2238
 2392TIP3    H2 7141   2.511   1.310   5.755  0.1028  0.2741 -0.0964
 2393TIP3   OH2 7142   2.678   2.459   1.463  0.2393 -0.2194 -0.2563
 2393TIP3    H1 7143   2.715   2.464   1.552 -1.2186  0.6469  0.3394
 2393TIP3    H2 7144   2.631   2.541   1.452 -0.8461 -0.9421 -1.2631
 2394TIP3   OH2 7145   1.131   5.353   2.060 -0.1418 -0.6305  0.5523
 2394TIP3    H1 7146   1.159   5.332   2.149  1.7327 -0.3549  0.0693
 2394TIP3    H2 7147   1.206   5.398   2.021 -1.6981  1.2387 -0.4831
 2395TIP3   OH2 7148   0.470   0.431   1.357  0.1334 -0.0382  0.1597
 2395TIP3    H1 7149   0.462   0.382   1.438  1.3954  0.3860  0.5737
 2395TIP3    H2 7150   0.448   0.521   1.381 -0.9130 -0.1627 -0.3038
 2396TIP3   OH2 7151   2.233   1.036   3.902  0.2211  0.1831  0.1529
 2396TIP3    H1 7152   2.213   1.029   3.995  0.3428  2.5408  0.4216
 2396TIP3    H2 7153   2.325   1.065   3.900 -0.5940  2.9778 -0.5343
 2397TIP3   OH2 7154   1.538   6.687   4.611  0.3190  0.7066  0.3410
 2397TIP3    H1 7155   1.512   6.613   4.665 -1.6936  1.9689  1.2229
 2397TIP3    H2 7156   1.609   6.728   4.661  1.1421 -0.3265  0.0613
 2398TIP3   OH2 7157   0.167   2.336   0.738 -0.0207  0.3192  0.2544
 2398TIP3    H1 7158   0.091   2.338   0.797  0.0358  1.8652  0.3201
 2398TIP3    H2 7159   0.208   2.251   0.755 -0.8342  0.1193  1.3778
 2399TIP3   OH2 7160   4.477   1.528   5.501  0.2597 -0.1082  0.0355
 2399TIP3    H1 7161   4.554   1.567   5.542 -0.1414  1.3609 -0.5648
 2399TIP3    H2 7162   4.502   1.518   5.409 -0.1687  0.1155 -0.1041
 2400TIP3   OH2 7163   0.096   3.143   3.840  0.0544  0.0876 -0.1013
 2400TIP3    H1 7164   0.098   3.203   3.914  1.0210 -0.1759  0.0966
 2400TIP3    H2 7165   0.155   3.071   3.864  0.3002 -0.0600 -1.0709
 2401TIP3   OH2 7166   0.860   2.618   5.523 -0.0808  0.3755  0.7358
 2401TIP3    H1 7167   0.940   2.607   5.574  0.1384  1.3816  0.6310
 2401TIP3    H2 7168   0.885   2.595   5.434 -0.2069 -0.3971  0.8892
 2402TIP3   OH2 7169   1.232   5.334   3.867 -0.3984  0.0257  0.7087
 2402TIP3    H1 7170   1.322   5.304   3.859 -0.7000 -0.5760 -0.8244
 2402TIP3    H2 7171   1.208   5.316   3.958  1.7335  2.3460  1.8678
 2403TIP3   OH2 7172   3.168   1.092   0.449  0.0856  0.3115 -0.0900
 2403TIP3    H1 7173   3.239   1.079   0.513  0.2681 -1.4158 -0.5765
 2403TIP3    H2 7174   3.089   1.066   0.497 -0.1631  1.7032  0.2795
 2404TIP3   OH2 7175   1.559   3.573   5.660  0.5084 -0.1217 -0.5076
 2404TIP3    H1 7176   1.640   3.617   5.633  0.6643  1.4370  2.1421
 2404TIP3    H2 7177   1.587   3.504   5.719 -0.0115 -0.9299 -1.1841
 2405TIP3   OH2 7178   2.913   1.239   4.821 -0.2770  0.2300 -0.0956
 2405TIP3    H1 7179   2.950   1.151   4.823  0.2762  0.4539 -0.2141
 2405TIP3    H2 7180   2.989   1.297   4.821 -0.6398  0.7211  0.5206
 2406TIP3   OH2 7181   6.401   0.069   2.570 -0.0049 -0.5396  0.0298
 2406TIP3    H1 7182   6.476   0.119   2.604  0.2778  0.0809 -1.4277
 2406TIP3    H2 7183   6.437  -0.017   2.550  0.4107 -0.1597 -0.9234
 2407TIP3   OH2 7184   6.560   1.738   4.508  0.1914  0.3189  0.3508
 2407TIP3    H1 7185   6.625   1.713   4.574  0.4517  0.6828  0.2408
 2407TIP3    H2 7186   6.569   1.833   4.501 -1.7494  0.6702  1.7971
 2408TIP3   OH2 7187   1.216   5.343   2.353  0.1411 -0.2172  0.4319
 2408TIP3    H1 7188   1.243   5.411   2.414  1.6436 -1.9957  1.8620
 2408TIP3    H2 7189   1.126   5.321   2.378 -0.8960  2.0801 -0.9359
 2409TIP3   OH2 7190   1.817   1.142   4.512 -0.4010 -1.0531 -0.2488
 2409TIP3    H1 7191   1.913   1.144   4.515 -0.4170  0.9802  0.0122
 2409TIP3    H2 7192   1.797   1.105   4.426  0.6761  1.2475 -1.5873
 2410TIP3   OH2 7193   2.611   5.351   1.185  0.1649 -0.4616 -0.1787
 2410TIP3    H1 7194   2.644   5.297   1.113  2.0494  1.5348 -0.9404
 2410TIP3    H2 7195   2.517   5.358   1.169  0.6440  0.6495 -3.0235
 2411TIP3   OH2 7196   4.561   4.382   5.171  0.2925  0.2461  0.1635
 2411TIP3    H1 7197   4.475   4.422   5.183 -0.1833 -1.0904  1.4841
 2411TIP3    H2 7198   4.603   4.390   5.256  0.7013 -0.8257  0.0797
 2412TIP3   OH2 7199   3.395   6.704   3.313 -0.2234 -0.1662  0.3908
 2412TIP3    H1 7200   3.434   6.672   3.394  0.2802  0.4918  0.4223
 2412TIP3    H2 7201   3.304   6.723   3.335 -0.4272 -1.1760  0.4677
 2413TIP3   OH2 7202   2.028   4.836   1.617 -0.0765  0.5135 -0.1018
 2413TIP3    H1 7203   2.115   4.848   1.578  0.0728  0.1590  0.1103
 2413TIP3    H2 7204   1.972   4.896   1.569 -0.1885 -0.9046 -1.8384
 2414TIP3   OH2 7205   4.982   3.458   1.457 -0.3111 -0.1372  0.0274
 2414TIP3    H1 7206   4.915   3.507   1.410  0.0392  1.1557  0.8326
 2414TIP3    H2 7207   5.051   3.444   1.392 -1.0040 -0.7973 -0.5859
 2415TIP3   OH2 7208   6.471   0.628   4.036  0.0377  0.7375  0.2540
 2415TIP3    H1 7209   6.411   0.702   4.032 -0.2007  0.6316  1.6343
 2415TIP3    H2 7210   6.537   0.648   3.969 -1.4548  0.8861 -1.2521
 2416TIP3   OH2 7211   4.132   3.613   4.561  0.2453 -0.2804 -0.4159
 2416TIP3    H1 7212   4.110   3.673   4.633 -1.2877 -0.5521 -0.6246
 2416TIP3    H2 7213   4.182   3.543   4.602 -0.8604 -0.5824  0.4680
 2417TIP3   OH2 7214   1.488   4.514   1.813  0.3538 -0.3365  0.5031
 2417TIP3    H1 7215   1.496   4.558   1.897  0.0942 -1.2941  1.0452
 2417TIP3    H2 7216   1.402   4.471   1.817 -0.3144  0.8029 -0.8343
 2418TIP3   OH2 7217   3.612   5.570   1.161  0.0119 -0.1560 -0.0518
 2418TIP3    H1 7218   3.614   5.487   1.210  0.3476  0.4199  0.9352
 2418TIP3    H2 7219   3.546   5.622   1.206  1.1356  0.8146  0.5172
 2419TIP3   OH2 7220   2.830   4.593   4.987 -0.8149 -0.8226  0.2899
 2419TIP3    H1 7221   2.899   4.573   5.050 -1.6806 -0.2313  1.4640
 2419TIP3    H2 7222   2.850   4.539   4.911 -0.3245 -2.3378  1.4620
 2420TIP3   OH2 7223   2.136   0.329   3.276  0.0007 -0.5728 -0.5976
 2420TIP3    H1 7224   2.177   0.304   3.359 -1.0974  0.9449  0.4510
 2420TIP3    H2 7225   2.079   0.255   3.255  0.4397 -1.0578 -0.1116
 2421TIP3   OH2 7226   0.696   0.997   1.150  0.7365 -0.0823 -0.5020
 2421TIP3    H1 7227   0.730   1.086   1.140 -0.3782  0.3517 -0.5552
 2421TIP3    H2 7228   0.607   1.002   1.116  0.2201 -0.9184  0.6966
 2422TIP3   OH2 7229   2.271   0.421   4.166 -0.5436 -0.3122 -0.0815
 2422TIP3    H1 7230   2.277   0.471   4.085 -2.8192 -0.3222 -0.3370
 2422TIP3    H2 7231   2.229   0.339   4.139 -1.9749 -0.0343  1.1816
 2423TIP3   OH2 7232   3.494   6.470   5.455 -0.2802  0.3823  0.2145
 2423TIP3    H1 7233   3.541   6.402   5.407 -0.6544  0.4302 -0.2318
 2423TIP3    H2 7234   3.551   6.492   5.528 -0.1264 -0.3590  0.3248
 2424TIP3   OH2 7235   1.297   0.135   3.839 -0.0246 -0.2490  0.0062
 2424TIP3    H1 7236   1.392   0.132   3.848  0.2063  2.2768 -0.7319
 2424TIP3    H2 7237   1.270   0.213   3.887 -1.8615 -1.3221  0.8530
 2425TIP3   OH2 7238   2.807   5.677   1.350 -0.0942  0.2829  0.0696
 2425TIP3    H1 7239   2.866   5.714   1.416  0.1490  1.1948 -0.6541
 2425TIP3    H2 7240   2.828   5.723   1.269 -0.6584 -0.5548 -0.5737
 2426TIP3   OH2 7241   3.323   1.093   2.718 -0.0685 -0.1133 -0.1360
 2426TIP3    H1 7242   3.348   1.138   2.798 -1.4930  0.1569  0.1867
 2426TIP3    H2 7243   3.343   1.155   2.648  1.3954 -0.4416 -0.0359
 2427TIP3   OH2 7244   7.158   2.867   5.631 -0.3900 -0.0405  0.6093
 2427TIP3    H1 7245   7.084   2.816   5.597 -2.1594  0.0507  3.8642
 2427TIP3    H2 7246   7.125   2.956   5.637  0.2199  0.1373  1.4922
 2428TIP3   OH2 7247   5.937   2.660   4.189 -0.1798  0.3500 -0.1659
 2428TIP3    H1 7248   5.938   2.598   4.116  1.9313  0.2146 -0.0653
 2428TIP3    H2 7249   5.901   2.741   4.152  0.6073  0.1982 -1.2950
 2429TIP3   OH2 7250   5.261   0.167   4.490  0.2106  0.5072 -0.1523
 2429TIP3    H1 7251   5.205   0.116   4.549 -0.6286  1.0800 -0.4303
 2429TIP3    H2 7252   5.302   0.101   4.434 -1.6741  0.1678 -1.2160
 2430TIP3   OH2 7253   5.619   2.092   4.373 -0.5953  0.8286 -0.0019
 2430TIP3    H1 7254   5.694   2.150   4.361 -1.2296  1.6694  0.0337
 2430TIP3    H2 7255   5.645   2.010   4.331  0.4257  1.0369  0.2054
 2431TIP3   OH2 7256   3.566   3.865   5.662  0.1718  0.0991  0.0254
 2431TIP3    H1 7257   3.614   3.836   5.740  0.2306  0.2841  0.0580
 2431TIP3    H2 7258   3.485   3.902   5.697 -0.3035 -0.8313 -0.0698
 2432TIP3   OH2 7259   3.854   2.867   2.559 -0.3268 -0.4546 -0.1577
 2432TIP3    H1 7260   3.910   2.829   2.492 -0.2593 -0.5223 -0.0639
 2432TIP3    H2 7261   3.782   2.906   2.511 -1.1283 -1.9045 -0.1886
 2433TIP3   OH2 7262   3.365   3.986   2.857 -0.7001  0.2198 -0.3933
 2433TIP3    H1 7263   3.298   3.959   2.920  0.3669 -0.2151  0.6091
 2433TIP3    H2 7264   3.396   4.070   2.890  0.1417 -0.1982 -0.0874
 2434TIP3   OH2 7265   2.045   6.505   3.753  0.0895  0.3493 -0.2085
 2434TIP3    H1 7266   1.990   6.560   3.810  0.5669  0.4189  0.1905
 2434TIP3    H2 7267   2.044   6.550   3.669 -0.9146  0.0607 -0.3721
 2435TIP3   OH2 7268   4.296   1.383   5.011  0.0833 -0.5183  0.2925
 2435TIP3    H1 7269   4.327   1.467   5.043  0.7906 -0.7660  0.2658
 2435TIP3    H2 7270   4.254   1.403   4.927 -1.9256  0.1609  1.3943
 2436TIP3   OH2 7271   5.610   5.264   3.614 -0.0190 -0.4802 -0.1515
 2436TIP3    H1 7272   5.703   5.245   3.623  0.0101  0.0613  0.8092
 2436TIP3    H2 7273   5.590   5.243   3.522  0.8006 -1.6014 -0.0930
 2437TIP3   OH2 7274   5.543   5.439   1.445 -0.1184  0.1246 -0.4403
 2437TIP3    H1 7275   5.586   5.376   1.503 -2.6337  0.2747  1.7395
 2437TIP3    H2 7276   5.481   5.386   1.394 -1.4325  0.6140  0.5928
 2438TIP3   OH2 7277   3.575   5.034   5.479 -0.6179  0.0032  0.3042
 2438TIP3    H1 7278   3.586   4.964   5.416  3.4890 -1.3193  2.1286
 2438TIP3    H2 7279   3.617   5.110   5.439 -1.0555  0.1526  0.1215
 2439TIP3   OH2 7280   2.641   0.629   5.543  0.5516  0.7884  0.4698
 2439TIP3    H1 7281   2.603   0.559   5.491 -0.4814  2.0186 -0.4999
 2439TIP3    H2 7282   2.579   0.702   5.535  1.4913  1.7580  1.5832
 2440TIP3   OH2 7283   4.569   0.460   4.122 -0.3418 -0.4328 -0.8878
 2440TIP3    H1 7284   4.502   0.406   4.165 -0.9310 -0.5218 -1.8866
 2440TIP3    H2 7285   4.651   0.433   4.163 -1.0175  0.5452  1.2495
 2441TIP3   OH2 7286   0.319   2.024   2.479  0.2483 -0.2517 -0.3873
 2441TIP3    H1 7287   0.400   2.034   2.431  0.4518 -1.4306 -0.3195
 2441TIP3    H2 7288   0.321   1.933   2.511  0.0586  0.4251  1.6940
 2442TIP3   OH2 7289   3.000   5.675   0.562 -0.5330 -0.1670  0.4859
 2442TIP3    H1 7290   2.995   5.592   0.609 -1.7753 -0.2333  0.2538
 2442TIP3    H2 7291   3.009   5.650   0.470 -3.3630 -0.1253  0.1151
 2443TIP3   OH2 7292   0.988   1.259   3.181 -0.3174 -0.1876  0.5319
 2443TIP3    H1 7293   0.956   1.243   3.270  0.5037 -2.5501  0.4804
 2443TIP3    H2 7294   1.080   1.234   3.183 -0.0705  0.4846 -0.8116
 2444TIP3   OH2 7295   5.474   6.532   4.499  0.9793 -0.2018  0.2818
 2444TIP3    H1 7296   5.555   6.583   4.494  0.7807  0.2252  1.3575
 2444TIP3    H2 7297   5.404   6.597   4.498  0.6830 -0.5151  0.4639
 2445TIP3   OH2 7298   3.242   1.622   3.062  0.5762  0.0500 -0.1571
 2445TIP3    H1 7299   3.273   1.547   3.113 -0.9039 -0.5736 -0.1063
 2445TIP3    H2 7300   3.187   1.671   3.123  0.3267  0.3442 -0.6115
 2446TIP3   OH2 7301   3.418   4.694   2.329 -1.0071 -0.0830  0.2743
 2446TIP3    H1 7302   3.482   4.645   2.276  0.5382  0.6904  1.3360
 2446TIP3    H2 7303   3.369   4.746   2.265  0.7251  0.7464 -0.4738
 2447TIP3   OH2 7304   6.475   0.166   4.546  0.4413  0.3017  0.0213
 2447TIP3    H1 7305   6.485   0.096   4.610  0.3413 -0.6404 -0.9602
 2447TIP3    H2 7306   6.469   0.120   4.461 -1.3006  1.3686 -0.4949
 2448TIP3   OH2 7307   3.854   0.165   0.187 -0.1640  0.6014 -0.0855
 2448TIP3    H1 7308   3.847   0.255   0.221 -0.2256  1.0322 -1.2017
 2448TIP3    H2 7309   3.948   0.145   0.192 -0.4389 -0.4236  2.9588
 2449TIP3   OH2 7310   2.411   0.115   0.712  0.2966  0.0756 -0.3345
 2449TIP3    H1 7311   2.420   0.167   0.633 -0.0731 -0.5045 -0.7689
 2449TIP3    H2 7312   2.325   0.074   0.704  0.6992 -0.8283 -0.1554
 2450TIP3   OH2 7313   5.819   6.272   0.168  0.1308 -0.0498  0.1042
 2450TIP3    H1 7314   5.896   6.254   0.114  0.6134  0.8373  0.4894
 2450TIP3    H2 7315   5.792   6.360   0.143 -1.2147 -0.6239 -0.5630
 2451TIP3   OH2 7316   0.275   2.294   0.132  0.3089  0.8019  0.3223
 2451TIP3    H1 7317   0.201   2.273   0.189 -0.7159  1.8423 -0.5597
 2451TIP3    H2 7318   0.332   2.348   0.186 -1.0782  2.5080  0.1643
 2452TIP3   OH2 7319   6.877   2.721   4.312 -0.0830 -0.3535 -0.6717
 2452TIP3    H1 7320   6.875   2.765   4.227  0.4652 -0.2022 -0.6136
 2452TIP3    H2 7321   6.786   2.705   4.334 -0.3015  0.8295 -0.6660
 2453TIP3   OH2 7322   5.527   6.033   0.452 -0.0367 -0.4068 -0.4077
 2453TIP3    H1 7323   5.615   5.998   0.462  0.0982 -0.6678 -2.1901
 2453TIP3    H2 7324   5.537   6.104   0.389 -0.6328  1.6011  1.6259
 2454TIP3   OH2 7325   2.508   5.045   3.922 -0.1109  0.4561  0.7555
 2454TIP3    H1 7326   2.524   5.001   3.838  0.8244  1.0134  0.6280
 2454TIP3    H2 7327   2.585   5.100   3.935  0.7227 -1.0804  2.9289
 2455TIP3   OH2 7328   6.225   6.569   4.649  0.1445 -0.1194 -0.0304
 2455TIP3    H1 7329   6.246   6.645   4.595  3.2101  0.3787  1.6354
 2455TIP3    H2 7330   6.272   6.496   4.608 -1.2053 -0.7420 -0.5210
 2456TIP3   OH2 7331   4.133   0.741   0.878  0.3152  0.6319  0.1780
 2456TIP3    H1 7332   4.172   0.654   0.888  0.8935  0.7265 -1.0482
 2456TIP3    H2 7333   4.063   0.729   0.815 -0.8654  0.7146  1.4327
 2457TIP3   OH2 7334   3.504   6.387   2.117 -0.2276 -0.3452 -0.2682
 2457TIP3    H1 7335   3.589   6.416   2.083 -1.9107  1.9973 -2.9518
 2457TIP3    H2 7336   3.491   6.438   2.197  0.0352  0.8357 -0.9638
 2458TIP3   OH2 7337   0.028   5.291   2.797 -0.3888 -0.0951  0.4703
 2458TIP3    H1 7338   0.016   5.211   2.746  0.0927 -0.1265  0.4015
 2458TIP3    H2 7339   0.123   5.300   2.806 -0.3340  1.3712 -0.9744
 2459TIP3   OH2 7340   5.974   4.524   4.254  0.1062  0.2204  0.0039
 2459TIP3    H1 7341   5.909   4.457   4.272  0.3603 -0.0122  0.0549
 2459TIP3    H2 7342   5.923   4.597   4.218 -0.5413  1.0354  2.4200
 2460TIP3   OH2 7343   3.351   3.578   3.510  0.3764 -0.5864  0.2047
 2460TIP3    H1 7344   3.414   3.639   3.548  1.0463 -0.2659 -1.3250
 2460TIP3    H2 7345   3.268   3.626   3.508  0.3261 -0.6191  1.2318
 2461TIP3   OH2 7346   4.914   5.862   4.822  0.2021 -0.0151  0.3183
 2461TIP3    H1 7347   4.998   5.871   4.777 -0.6930  2.7455 -1.0253
 2461TIP3    H2 7348   4.907   5.942   4.874 -0.9254 -0.9487  1.6621
 2462TIP3   OH2 7349   2.524   3.993   2.836  0.1378  0.0911  0.1972
 2462TIP3    H1 7350   2.540   4.055   2.765 -0.1807 -1.2775 -1.1453
 2462TIP3    H2 7351   2.602   3.937   2.837  0.4442  0.5113  1.4129
 2463TIP3   OH2 7352   3.786   3.187   4.338 -0.4429  0.0775 -0.0167
 2463TIP3    H1 7353   3.843   3.262   4.318 -0.0287 -0.0879  0.5217
 2463TIP3    H2 7354   3.702   3.227   4.358  0.1577  0.5417  1.7654
 2464TIP3   OH2 7355   4.447   2.905   4.339  0.3238 -0.3348  0.2351
 2464TIP3    H1 7356   4.360   2.937   4.363 -0.1105 -1.4981  0.2699
 2464TIP3    H2 7357   4.491   2.981   4.301 -1.3292 -0.1374 -1.4255
 2465TIP3   OH2 7358   3.685   2.578   3.316 -0.1669  0.7051  0.4119
 2465TIP3    H1 7359   3.654   2.492   3.344  1.8212  0.3559  1.7162
 2465TIP3    H2 7360   3.698   2.569   3.221  0.3594 -0.5723  0.5813
 2466TIP3   OH2 7361   1.877   6.019   4.241  0.5621  0.0580  0.2650
 2466TIP3    H1 7362   1.873   6.109   4.274 -0.5375  0.6631 -1.3652
 2466TIP3    H2 7363   1.970   5.999   4.234  0.8122  0.9426  0.9454
 2467TIP3   OH2 7364   5.917   2.442   2.586  0.6264 -0.0904  0.1388
 2467TIP3    H1 7365   5.929   2.524   2.635  0.6225 -0.1762  0.2844
 2467TIP3    H2 7366   6.003   2.400   2.588  0.6578 -0.0309 -0.0416
 2468TIP3   OH2 7367   4.202   0.311   0.346 -0.2015  0.1918  0.0652
 2468TIP3    H1 7368   4.276   0.308   0.407  0.0794  0.5274 -0.2512
 2468TIP3    H2 7369   4.192   0.405   0.327 -1.4041  0.2663  0.9449
 2469TIP3   OH2 7370   0.119   3.523   3.626 -0.7278  0.1030  0.0383
 2469TIP3    H1 7371   0.042   3.485   3.669 -0.5411  0.4502  0.6940
 2469TIP3    H2 7372   0.186   3.527   3.694 -0.7334  1.5753  0.0003
 2470TIP3   OH2 7373   6.483   5.976   2.983 -0.2972  0.4372 -0.5925
 2470TIP3    H1 7374   6.557   6.026   2.949 -0.5081  0.1666 -1.4962
 2470TIP3    H2 7375   6.503   5.962   3.075  0.6337  0.6237 -0.7572
 2471TIP3   OH2 7376   6.969   3.744   0.405 -0.0862  0.0148  0.0128
 2471TIP3    H1 7377   6.954   3.837   0.421 -1.2382 -0.1811  0.1863
 2471TIP3    H2 7378   6.993   3.740   0.312  0.1642  0.5001  0.0523
 2472TIP3   OH2 7379   5.146   4.037   4.937 -0.1317  0.5188 -0.2809
 2472TIP3    H1 7380   5.054   4.029   4.961 -0.3996 -1.6550 -1.8271
 2472TIP3    H2 7381   5.193   4.009   5.015 -0.7449  1.2809  0.3927
 2473TIP3   OH2 7382   4.344   0.294   5.735  0.3012  0.1949  0.3627
 2473TIP3    H1 7383   4.323   0.337   5.818  0.5666  1.2393 -0.0957
 2473TIP3    H2 7384   4.440   0.293   5.732  0.2925 -0.0669  0.1934
 2474TIP3   OH2 7385   6.613   0.589   0.495 -0.1508 -0.4105 -0.3698
 2474TIP3    H1 7386   6.623   0.601   0.400 -0.3229 -0.2493 -0.3677
 2474TIP3    H2 7387   6.688   0.536   0.520 -0.7470 -1.4759 -0.7895
 2475TIP3   OH2 7388   6.204   2.893   4.552 -0.1994  0.1346  0.1710
 2475TIP3    H1 7389   6.263   2.850   4.490 -0.4628 -1.1117  0.7586
 2475TIP3    H2 7390   6.151   2.950   4.497  0.2151 -0.2202 -0.6285
 2476TIP3   OH2 7391   7.036   3.252   2.407 -0.6444 -0.5334 -0.0444
 2476TIP3    H1 7392   7.089   3.238   2.328  1.3139 -0.0192  1.0995
 2476TIP3    H2 7393   6.958   3.297   2.375  0.0297 -0.4488 -1.7083
 2477TIP3   OH2 7394   0.275   4.283   4.884 -0.3407  0.1667  0.7863
 2477TIP3    H1 7395   0.260   4.309   4.975 -0.8644  1.5884  0.3235
 2477TIP3    H2 7396   0.350   4.334   4.856 -0.4073  0.0104  0.3109
 2478TIP3   OH2 7397   1.442   0.012   1.999 -0.0143 -0.4503 -0.1502
 2478TIP3    H1 7398   1.534   0.013   2.025 -0.3495  1.7377  1.2741
 2478TIP3    H2 7399   1.439   0.068   1.921 -0.1579 -0.3427 -0.0682
 2479TIP3   OH2 7400   0.899   2.163   3.552 -0.1062 -0.0547 -0.0804
 2479TIP3    H1 7401   0.897   2.219   3.630  0.9412 -0.5646  0.3381
 2479TIP3    H2 7402   0.960   2.206   3.492  0.0141 -0.2779 -0.1211
 2480TIP3   OH2 7403   6.048   2.272   3.015  0.0060  0.3828 -0.2167
 2480TIP3    H1 7404   6.094   2.251   3.096 -0.8664 -0.1994  0.1361
 2480TIP3    H2 7405   5.969   2.317   3.043 -1.4560 -1.8001 -0.5496
 2481TIP3   OH2 7406   0.789   5.989   4.505  0.0239  0.0983 -0.7749
 2481TIP3    H1 7407   0.756   6.031   4.426  0.7191 -0.3117 -1.2897
 2481TIP3    H2 7408   0.792   5.896   4.483 -1.5579 -0.2739  0.3707
 2482TIP3   OH2 7409   5.945   2.664   2.745 -0.1215 -0.0918 -0.1896
 2482TIP3    H1 7410   5.917   2.735   2.687 -1.1074  0.4062  0.8665
 2482TIP3    H2 7411   5.934   2.700   2.833  1.8308 -0.6396  0.3350
 2483TIP3   OH2 7412   3.650   0.306   0.020 -0.0412  0.6952 -0.1160
 2483TIP3    H1 7413   3.710   0.272   0.087  0.1109  0.9960 -0.0978
 2483TIP3    H2 7414   3.617   0.228  -0.025  1.1049  0.5666 -0.7708
 2484TIP3   OH2 7415   3.342   4.385   4.668 -0.1752  0.1208  0.1748
 2484TIP3    H1 7416   3.342   4.354   4.759  0.8753 -0.8042 -0.1328
 2484TIP3    H2 7417   3.323   4.479   4.676  2.8694  0.7291  1.6064
 2485TIP3   OH2 7418   2.956   6.696   5.099  0.2023 -0.2269 -0.9587
 2485TIP3    H1 7419   2.927   6.787   5.103 -0.3403 -0.4309  1.4807
 2485TIP3    H2 7420   3.049   6.700   5.121  0.3368 -0.2246 -1.5084
 2486TIP3   OH2 7421   2.453   4.642   0.085 -0.1428  0.0333 -0.1989
 2486TIP3    H1 7422   2.546   4.663   0.085 -0.1328  0.1048  1.2214
 2486TIP3    H2 7423   2.447   4.560   0.134 -0.9234  0.5867  0.6699
 2487TIP3   OH2 7424   0.811   4.690   5.819 -0.0989 -1.0359  0.0205
 2487TIP3    H1 7425   0.896   4.683   5.777  0.2251 -0.5135  0.5915
 2487TIP3    H2 7426   0.812   4.774   5.864 -1.5378 -0.2250 -1.3299
 2488TIP3   OH2 7427   0.822   2.460   2.554 -0.0164  0.5581  0.0001
 2488TIP3    H1 7428   0.803   2.508   2.635 -0.3552  0.4554 -0.0192
 2488TIP3    H2 7429   0.907   2.419   2.570 -1.1253 -1.4132  1.2056
 2489TIP3   OH2 7430   2.093   6.384   0.889 -0.0074  0.7072 -0.4093
 2489TIP3    H1 7431   2.049   6.304   0.858  0.2689  0.8276 -1.1305
 2489TIP3    H2 7432   2.184   6.373   0.861  0.2469  0.8338  0.3547
 2490TIP3   OH2 7433   4.273   0.256   2.678  0.0224 -0.1374  0.1993
 2490TIP3    H1 7434   4.289   0.314   2.603  2.6265 -2.1340 -0.9703
 2490TIP3    H2 7435   4.214   0.188   2.643 -0.0079 -0.2387  0.4447
 2491TIP3   OH2 7436   3.915   1.328   0.191  0.1877  0.5734  0.1335
 2491TIP3    H1 7437   3.995   1.283   0.163 -0.1386  0.8879 -1.4357
 2491TIP3    H2 7438   3.879   1.273   0.260  1.0844 -0.2576 -0.0406
 2492TIP3   OH2 7439   4.561   6.560   3.855  0.1910  0.0059  0.6737
 2492TIP3    H1 7440   4.513   6.623   3.908  0.3234  1.1656 -0.5264
 2492TIP3    H2 7441   4.561   6.597   3.767  1.1823 -1.1684  0.1360
 2493TIP3   OH2 7442   1.574   1.950   1.843 -0.4054  0.2611 -0.2016
 2493TIP3    H1 7443   1.546   1.927   1.931  0.1370 -0.0502 -0.1042
 2493TIP3    H2 7444   1.670   1.955   1.849 -0.2422 -1.1961 -1.0891
 2494TIP3   OH2 7445   3.377   1.097   5.016 -0.0243 -0.2113 -0.3464
 2494TIP3    H1 7446   3.363   1.063   5.104  0.5763 -0.2866 -0.2762
 2494TIP3    H2 7447   3.463   1.139   5.020  0.0427 -0.2858 -0.9159
 2495TIP3   OH2 7448   2.806   5.949   2.126 -0.6874  0.2628  0.2799
 2495TIP3    H1 7449   2.826   6.034   2.086  1.6835 -0.3735 -0.0148
 2495TIP3    H2 7450   2.890   5.904   2.130 -2.0101 -2.4748 -0.4761
 2496TIP3   OH2 7451   3.392   3.298   3.790  0.2820  0.0920 -0.0286
 2496TIP3    H1 7452   3.342   3.290   3.708 -0.7962 -0.8305  0.6802
 2496TIP3    H2 7453   3.343   3.362   3.841  0.9347  0.6403 -0.0934
 2497TIP3   OH2 7454   3.029   1.767   0.543  0.7229  0.1227  0.3166
 2497TIP3    H1 7455   3.118   1.747   0.575  1.1592  1.1009 -0.2381
 2497TIP3    H2 7456   3.037   1.855   0.505 -0.7108  0.6382  1.1330
 2498TIP3   OH2 7457   4.939   6.069   3.329  0.3633  0.6403 -0.5552
 2498TIP3    H1 7458   4.998   6.133   3.288 -0.5612  0.5866 -2.0438
 2498TIP3    H2 7459   4.888   6.033   3.256  0.1587 -1.0781  0.3771
 2499TIP3   OH2 7460   1.396   2.523   3.240 -0.3198  0.3938 -0.6393
 2499TIP3    H1 7461   1.431   2.461   3.304 -0.7836 -1.1968 -1.8711
 2499TIP3    H2 7462   1.311   2.550   3.276  0.7458  1.9493  0.8873
 2500TIP3   OH2 7463   1.879   4.028   3.688  0.3254  0.0234  0.2317
 2500TIP3    H1 7464   1.803   4.072   3.726  0.5712  0.2207  0.4886
 2500TIP3    H2 7465   1.843   3.946   3.653  0.2001 -0.4524  1.4221
 2501TIP3   OH2 7466   6.436   0.443   5.076 -0.4745 -0.1021  0.0279
 2501TIP3    H1 7467   6.448   0.395   5.158 -0.9922 -1.9532 -0.9418
 2501TIP3    H2 7468   6.341   0.442   5.062 -0.2644 -1.3724 -1.4738
 2502TIP3   OH2 7469   2.427   4.011   0.431 -0.2392  0.2503 -0.4052
 2502TIP3    H1 7470   2.431   4.020   0.527 -1.8982  2.9672 -0.4879
 2502TIP3    H2 7471   2.344   3.966   0.415 -0.5966  0.9747 -0.6018
 2503TIP3   OH2 7472   5.240   0.508   0.722 -0.0828  0.1009 -0.5558
 2503TIP3    H1 7473   5.184   0.584   0.738  1.3226  0.6576  2.4083
 2503TIP3    H2 7474   5.327   0.545   0.708  0.4783 -0.8807  0.1741
 2504TIP3   OH2 7475   6.927   2.170   1.244  0.2753 -0.0035  0.1722
 2504TIP3    H1 7476   7.004   2.227   1.249  1.2714 -0.8738 -2.9873
 2504TIP3    H2 7477   6.853   2.231   1.238  1.1909  1.0241 -1.5301
 2505TIP3   OH2 7478   4.762   4.310   1.424 -0.0936 -0.3844 -0.0465
 2505TIP3    H1 7479   4.727   4.334   1.509 -2.0444 -1.9086 -0.3368
 2505TIP3    H2 7480   4.851   4.344   1.423 -0.0146 -0.3663  2.6112
 2506TIP3   OH2 7481   6.159   2.201   5.217  0.4091  0.3492  0.0542
 2506TIP3    H1 7482   6.153   2.123   5.272 -1.9551  0.5021  0.1135
 2506TIP3    H2 7483   6.234   2.184   5.160  1.8874 -0.5509  2.1348
 2507TIP3   OH2 7484   4.087   3.806   0.238  0.0024 -0.3854  0.2337
 2507TIP3    H1 7485   4.153   3.848   0.293 -0.1964  0.7944 -0.4125
 2507TIP3    H2 7486   4.008   3.860   0.249  0.2026  0.4012 -1.8579
 2508TIP3   OH2 7487   1.505   3.763   5.230 -0.3184  0.5524 -0.2395
 2508TIP3    H1 7488   1.492   3.693   5.294 -0.6861  1.2125  0.4138
 2508TIP3    H2 7489   1.502   3.718   5.145 -1.8063 -0.0521  0.1131
 2509TIP3   OH2 7490   3.256   0.540   3.430 -0.6718 -0.0142  0.1403
 2509TIP3    H1 7491   3.312   0.555   3.506  0.3499  0.2775 -0.6435
 2509TIP3    H2 7492   3.273   0.615   3.373 -1.7618  0.0018 -0.1857
 2510TIP3   OH2 7493   3.032   5.564   2.097 -0.6047  0.5230  0.4231
 2510TIP3    H1 7494   2.996   5.493   2.150 -0.3999  0.0187 -0.0978
 2510TIP3    H2 7495   3.118   5.531   2.068 -0.4593  1.0276  0.2701
 2511TIP3   OH2 7496   4.699   4.189   1.173 -0.4488  0.2088  0.2512
 2511TIP3    H1 7497   4.794   4.200   1.168 -0.2202 -0.8271  1.7463
 2511TIP3    H2 7498   4.681   4.116   1.113 -0.2606  0.2172  0.1813
 2512TIP3   OH2 7499   0.413   5.659   5.716  0.0734  0.0594  0.0993
 2512TIP3    H1 7500   0.337   5.601   5.718  0.9143 -1.1852 -1.7599
 2512TIP3    H2 7501   0.472   5.620   5.652  2.4977  0.7691  1.7446
 2513TIP3   OH2 7502   0.750   1.173   0.457 -1.2784  0.0793  0.3814
 2513TIP3    H1 7503   0.819   1.157   0.522 -2.8538  0.4091  2.2302
 2513TIP3    H2 7504   0.755   1.267   0.440  0.2805 -0.2729 -1.4045
 2514TIP3   OH2 7505   6.144   5.963   4.734  0.0054  0.0331  0.1938
 2514TIP3    H1 7506   6.218   5.970   4.794 -0.6030  2.0365  0.7838
 2514TIP3    H2 7507   6.168   6.016   4.658 -0.5307  0.1333  0.0863
 2515TIP3   OH2 7508   4.330   2.184   4.901 -0.0487  0.4501 -0.3549
 2515TIP3    H1 7509   4.418   2.219   4.885  0.2396  0.1814  0.5679
 2515TIP3    H2 7510   4.272   2.244   4.855  0.5118  1.5981  0.3833
 2516TIP3   OH2 7511   2.825   5.114   3.705  0.1609  0.2018  0.4961
 2516TIP3    H1 7512   2.846   5.062   3.783  0.1457  0.5808  0.7555
 2516TIP3    H2 7513   2.743   5.078   3.674  0.7288 -0.6897  0.0042
 2517TIP3   OH2 7514   5.726   1.063   2.103 -0.0052  1.0424 -0.2523
 2517TIP3    H1 7515   5.708   0.987   2.158  0.8529  1.1538  0.1920
 2517TIP3    H2 7516   5.728   1.137   2.165 -0.1598  1.3317 -0.5905
 2518TIP3   OH2 7517   2.147   1.468   2.247  0.1917  0.0863 -0.2655
 2518TIP3    H1 7518   2.180   1.428   2.327 -2.1699 -0.4759  0.5051
 2518TIP3    H2 7519   2.195   1.550   2.240  1.6166 -0.6126  0.8220
 2519TIP3   OH2 7520   6.315   2.282   1.159 -0.4626  0.3526  0.1890
 2519TIP3    H1 7521   6.237   2.226   1.157 -0.3522  0.1999  0.0698
 2519TIP3    H2 7522   6.381   2.233   1.109  0.0572 -0.0330  1.2338
 2520TIP3   OH2 7523   6.780   5.004   3.608 -0.5728  0.0105 -0.3543
 2520TIP3    H1 7524   6.784   5.099   3.610 -0.9549  0.0463 -1.0563
 2520TIP3    H2 7525   6.872   4.976   3.604 -0.4828  0.3642 -0.7960
 2521TIP3   OH2 7526   4.280   1.997   1.997 -0.4269  0.4389  0.0393
 2521TIP3    H1 7527   4.254   1.948   1.919 -1.5694  0.2444  0.5216
 2521TIP3    H2 7528   4.261   1.938   2.070 -2.4736  1.7771  0.6904
 2522TIP3   OH2 7529   6.058   6.362   1.550  0.2051  0.0888 -0.2850
 2522TIP3    H1 7530   6.153   6.354   1.552  0.1165 -1.6058 -0.7294
 2522TIP3    H2 7531   6.036   6.406   1.632  1.3050 -0.5071  0.3616
 2523TIP3   OH2 7532   7.000   4.583   0.098 -0.3207  0.0093 -0.3713
 2523TIP3    H1 7533   7.029   4.663   0.055 -0.1117  0.4960  0.6404
 2523TIP3    H2 7534   6.909   4.599   0.121 -0.3917 -0.1961 -0.5001
 2524TIP3   OH2 7535   5.848   0.221   4.336 -0.3719 -0.8752 -0.3729
 2524TIP3    H1 7536   5.924   0.189   4.386 -0.0750  1.5436  0.8661
 2524TIP3    H2 7537   5.778   0.160   4.358  0.2571 -0.9829  1.5298
 2525TIP3   OH2 7538   4.002   2.149   1.232 -0.4011  0.0179 -0.8751
 2525TIP3    H1 7539   4.047   2.227   1.263  0.3483 -1.1412  1.1533
 2525TIP3    H2 7540   3.972   2.105   1.311  0.6866 -2.6110 -1.8054
 2526TIP3   OH2 7541   1.490   0.323   4.529 -0.1073  0.1872  0.0249
 2526TIP3    H1 7542   1.412   0.349   4.481 -0.5154  0.6174  0.9006
 2526TIP3    H2 7543   1.494   0.383   4.603 -0.4392 -1.5036  1.4817
 2527TIP3   OH2 7544   0.442   4.882   1.548  0.0818 -0.2031 -0.3305
 2527TIP3    H1 7545   0.384   4.836   1.608 -0.1762  0.3438 -0.1599
 2527TIP3    H2 7546   0.395   4.883   1.465 -0.1638  0.2632 -0.1855
 2528TIP3   OH2 7547   4.125   5.913   4.306  0.8439  0.1271 -0.3365
 2528TIP3    H1 7548   4.087   5.987   4.353  2.1596  1.0956 -0.7577
 2528TIP3    H2 7549   4.159   5.856   4.375 -2.8119 -1.7235  0.2089
 2529TIP3   OH2 7550   6.957   2.798   0.134  0.2883  0.1000 -0.0966
 2529TIP3    H1 7551   6.980   2.781   0.225 -0.3827  1.5815  0.3740
 2529TIP3    H2 7552   6.862   2.806   0.134  0.4074  1.7210 -0.6204
 2530TIP3   OH2 7553   4.330   4.710   0.436  0.0580  0.1510  0.1736
 2530TIP3    H1 7554   4.363   4.745   0.353  2.1349 -1.7569  0.1217
 2530TIP3    H2 7555   4.406   4.710   0.494 -0.1538 -2.8280  0.5898
 2531TIP3   OH2 7556   5.177   4.985   3.126 -0.6243 -0.2580  0.3946
 2531TIP3    H1 7557   5.236   4.975   3.201 -0.7113 -2.0450  0.2721
 2531TIP3    H2 7558   5.206   5.066   3.083  1.6392 -0.9840  0.4157
 2532TIP3   OH2 7559   0.390   1.621   2.100 -0.0897  0.0406  0.0795
 2532TIP3    H1 7560   0.449   1.642   2.027  0.5959 -0.1359  0.5740
 2532TIP3    H2 7561   0.347   1.540   2.073  0.5178 -0.2861  0.0739
 2533TIP3   OH2 7562   5.710   0.579   1.709 -0.3595 -0.0692  0.1983
 2533TIP3    H1 7563   5.716   0.540   1.796 -1.7749  0.2569  0.4732
 2533TIP3    H2 7564   5.665   0.662   1.723  0.4398  0.5375 -0.7081
 2534TIP3   OH2 7565   6.944   2.689   5.636 -0.6562  0.4924 -0.1594
 2534TIP3    H1 7566   6.964   2.620   5.700  0.8348  0.2999 -0.7895
 2534TIP3    H2 7567   6.932   2.642   5.553 -1.6544  0.8270 -0.2155
 2535TIP3   OH2 7568   2.093   4.668   0.650 -0.0629 -0.7049 -0.3652
 2535TIP3    H1 7569   2.041   4.748   0.658  0.1834 -0.4454 -1.2323
 2535TIP3    H2 7570   2.054   4.622   0.576  0.3651 -0.9572 -0.4337
 2536TIP3   OH2 7571   2.187   0.420   2.968 -0.1631 -0.1578  0.5390
 2536TIP3    H1 7572   2.189   0.422   3.064  2.0538 -1.7642  0.5892
 2536TIP3    H2 7573   2.094   0.410   2.946 -0.6451 -0.4537  2.5282
 2537TIP3   OH2 7574   5.465   3.521   5.303  0.2469 -0.0582  0.0913
 2537TIP3    H1 7575   5.428   3.438   5.331  1.0612 -0.7227 -0.7603
 2537TIP3    H2 7576   5.559   3.505   5.295  0.5198  1.1433  0.6243
 2538TIP3   OH2 7577   2.856   0.467   4.869  0.0242  0.5721  0.0144
 2538TIP3    H1 7578   2.879   0.521   4.793  1.8209 -1.2752 -0.8674
 2538TIP3    H2 7579   2.931   0.407   4.879 -1.0463 -0.5409  2.0524
 2539TIP3   OH2 7580   6.222   0.340   5.898 -0.4060 -0.1539 -0.1055
 2539TIP3    H1 7581   6.148   0.394   5.924  2.0679  3.1403  0.7945
 2539TIP3    H2 7582   6.259   0.386   5.822  0.6265 -1.8099 -0.6545
 2540TIP3   OH2 7583   0.511   5.540   1.250 -0.7172  0.5358  0.2799
 2540TIP3    H1 7584   0.592   5.590   1.236 -1.0766  2.3944  3.7203
 2540TIP3    H2 7585   0.467   5.542   1.165  0.7980  3.4384 -0.5956
 2541TIP3   OH2 7586   1.433   3.353   0.963  0.0500 -0.4566 -0.0234
 2541TIP3    H1 7587   1.447   3.401   1.044  2.5094 -0.5363 -0.3309
 2541TIP3    H2 7588   1.440   3.419   0.894 -1.6542 -0.4494 -0.2240
 2542TIP3   OH2 7589   6.295   6.612   3.723 -0.2555 -0.3397  0.1695
 2542TIP3    H1 7590   6.287   6.678   3.792 -1.4725  0.8873 -1.0513
 2542TIP3    H2 7591   6.334   6.536   3.765 -0.0050  0.7250  1.9405
 2543TIP3   OH2 7592   0.244   2.656   0.307  0.1778  0.3597 -0.3219
 2543TIP3    H1 7593   0.172   2.594   0.307  0.1058  0.3761 -2.3921
 2543TIP3    H2 7594   0.243   2.695   0.219  1.7552  1.4688  0.0962
 2544TIP3   OH2 7595   4.959   0.143   1.358  0.1706 -0.0405 -0.1111
 2544TIP3    H1 7596   5.008   0.130   1.439  2.4073 -0.8667 -1.4850
 2544TIP3    H2 7597   4.912   0.061   1.344 -0.2308  0.1088  0.3346
 2545TIP3   OH2 7598   1.645   1.314   3.024 -0.2959 -0.3094  0.0196
 2545TIP3    H1 7599   1.694   1.303   2.942  2.4184 -1.6876  1.6933
 2545TIP3    H2 7600   1.712   1.332   3.089 -2.3338  0.2111  2.0882
 2546TIP3   OH2 7601   4.131   5.337   5.787  0.1489  0.0840  0.1849
 2546TIP3    H1 7602   4.125   5.343   5.691  0.5175  0.7631  0.1998
 2546TIP3    H2 7603   4.224   5.341   5.806  0.0143  2.8849  0.7218
 2547TIP3   OH2 7604   2.961   0.713   3.839  0.6831 -0.0430 -0.3085
 2547TIP3    H1 7605   2.890   0.749   3.786  0.6007  0.0304 -0.1485
 2547TIP3    H2 7606   2.935   0.622   3.854  0.1417  0.2416  0.5630
 2548TIP3   OH2 7607   3.646   0.854   3.976  0.0200 -0.0530  0.4567
 2548TIP3    H1 7608   3.625   0.873   4.068 -2.2409  0.7204 -0.1385
 2548TIP3    H2 7609   3.592   0.916   3.926  1.0266 -0.6034 -1.3993
 2549TIP3   OH2 7610   6.492   3.676   0.074  0.3275 -0.2160 -0.2619
 2549TIP3    H1 7611   6.417   3.734   0.057  0.0947  0.2036  1.9212
 2549TIP3    H2 7612   6.556   3.733   0.116  0.8388 -1.1566  0.2414
 2550TIP3   OH2 7613   4.064   2.014   5.801  0.2234  0.1111  0.6086
 2550TIP3    H1 7614   4.107   2.077   5.859  1.2498  0.6096 -0.6643
 2550TIP3    H2 7615   4.040   2.064   5.723 -0.5929 -0.6853  0.3291
 2551TIP3   OH2 7616   0.780   3.412   4.041 -0.2134  0.1366  0.2069
 2551TIP3    H1 7617   0.700   3.454   4.073  0.0464  0.2931  0.6719
 2551TIP3    H2 7618   0.779   3.325   4.081  0.0051  0.2563  0.4847
 2552TIP3   OH2 7619   4.640   5.405   5.641  0.1625  0.2209  0.2157
 2552TIP3    H1 7620   4.733   5.421   5.626  0.1810  0.5686  0.6896
 2552TIP3    H2 7621   4.596   5.446   5.567  0.2992  1.3190  0.7164
 2553TIP3   OH2 7622   0.766   2.208   4.233 -0.4899  0.3366 -0.6385
 2553TIP3    H1 7623   0.746   2.180   4.143  2.4447 -0.3368 -1.1694
 2553TIP3    H2 7624   0.732   2.136   4.287 -0.5643 -0.1771 -1.3453
 2554TIP3   OH2 7625   5.310   4.576   5.870  0.2578  0.0990  0.2367
 2554TIP3    H1 7626   5.352   4.661   5.878 -0.0222  0.2987 -0.3311
 2554TIP3    H2 7627   5.252   4.585   5.795 -0.5355 -0.2820  0.7932
 2555TIP3   OH2 7628   6.323   6.780   5.523  0.0513  0.1083 -0.7949
 2555TIP3    H1 7629   6.407   6.825   5.525  0.4624 -0.5397 -2.0165
 2555TIP3    H2 7630   6.346   6.687   5.524 -0.7202 -0.0911  0.2655
 2556TIP3   OH2 7631   0.639   6.739   5.874  0.3132 -0.0250 -0.3406
 2556TIP3    H1 7632   0.714   6.680   5.873  0.6849  0.2845  1.9995
 2556TIP3    H2 7633   0.677   6.825   5.894 -0.6253  0.1284  0.9066
 2557TIP3   OH2 7634   3.225   2.996   4.728  0.2214 -0.4354 -0.3606
 2557TIP3    H1 7635   3.168   3.061   4.686  2.8402  1.7528 -0.8189
 2557TIP3    H2 7636   3.225   2.922   4.667 -0.8129  0.1827 -1.1581
 2558TIP3   OH2 7637   0.059   1.040   0.656  0.0421  0.1408 -0.1513
 2558TIP3    H1 7638   0.019   1.125   0.637  0.1194  0.5987  1.5633
 2558TIP3    H2 7639   0.005   1.004   0.726  0.8666 -0.5757  0.1278
 2559TIP3   OH2 7640   2.661   2.339   4.377 -0.1829 -0.2067  0.0147
 2559TIP3    H1 7641   2.619   2.380   4.302  1.5034 -0.1782 -0.9751
 2559TIP3    H2 7642   2.754   2.359   4.366  0.7136 -3.9113 -0.3202
 2560TIP3   OH2 7643   4.431   0.052   2.418  0.5453  0.0265 -0.5144
 2560TIP3    H1 7644   4.432   0.034   2.512  1.5242  0.8273 -0.3569
 2560TIP3    H2 7645   4.338   0.056   2.395  0.2759  1.0283  0.6732
 2561TIP3   OH2 7646   4.384   6.178   5.124  0.7024  0.4626 -0.0388
 2561TIP3    H1 7647   4.428   6.225   5.054  2.1374 -0.3365  0.3011
 2561TIP3    H2 7648   4.299   6.222   5.132  0.7948  1.0362 -1.7536
 2562TIP3   OH2 7649   1.672   0.382   5.307  0.3455 -0.1685  0.0778
 2562TIP3    H1 7650   1.744   0.329   5.340  0.2350 -0.6519 -0.4396
 2562TIP3    H2 7651   1.706   0.471   5.305  1.7036 -0.6738 -2.2631
 2563TIP3   OH2 7652   2.215   6.641   2.150 -0.0260  0.2859 -0.5339
 2563TIP3    H1 7653   2.233   6.682   2.235 -2.6057  3.3161 -1.2532
 2563TIP3    H2 7654   2.293   6.660   2.098  1.1799 -0.7554  0.8091
 2564TIP3   OH2 7655   3.509   4.458   3.153 -0.0813  0.1220 -0.0725
 2564TIP3    H1 7656   3.566   4.387   3.127 -0.5391  0.1914 -1.3331
 2564TIP3    H2 7657   3.558   4.538   3.132  0.6859  0.2083  1.9085
 2565TIP3   OH2 7658   5.005   1.865   3.494  0.5924  0.1638 -0.0650
 2565TIP3    H1 7659   4.951   1.818   3.557 -1.1237 -0.1962 -1.6871
 2565TIP3    H2 7660   5.050   1.796   3.445  1.4867  0.4134  0.3943
 2566TIP3   OH2 7661   0.889   4.106   5.794  0.7357  0.3612  0.1589
 2566TIP3    H1 7662   0.821   4.048   5.828 -0.1577  0.6601 -1.0126
 2566TIP3    H2 7663   0.957   4.107   5.861  0.2540 -1.1230  0.7026
 2567TIP3   OH2 7664   4.493   1.515   3.989 -0.0902 -0.1300 -0.1834
 2567TIP3    H1 7665   4.502   1.610   3.980 -1.9503  0.0880 -0.2385
 2567TIP3    H2 7666   4.447   1.487   3.909 -0.9477 -0.8247  0.5253
 2568TIP3   OH2 7667   1.035   5.153   0.754 -0.1156 -0.5369 -0.0696
 2568TIP3    H1 7668   0.981   5.229   0.735  0.0776 -0.2313  0.5581
 2568TIP3    H2 7669   0.975   5.079   0.749 -0.5805 -0.2155  0.5067
 2569TIP3   OH2 7670   5.555   3.311   3.780  0.4795  0.0182 -0.3601
 2569TIP3    H1 7671   5.565   3.216   3.779 -1.5532 -0.2666 -2.3881
 2569TIP3    H2 7672   5.535   3.333   3.871  1.5512 -1.3929  0.2416
 2570TIP3   OH2 7673   0.980   0.576   3.318  0.0240  0.1132  0.0679
 2570TIP3    H1 7674   0.981   0.517   3.242  0.3908 -0.6608  0.6625
 2570TIP3    H2 7675   1.062   0.559   3.363 -0.6006 -0.1246  1.1626
 2571TIP3   OH2 7676   7.130   2.421   0.811 -0.0549 -0.5043  0.0379
 2571TIP3    H1 7677   7.102   2.497   0.863 -0.5446  1.3188 -2.6510
 2571TIP3    H2 7678   7.049   2.386   0.775  0.4523  0.5742 -2.3339
 2572TIP3   OH2 7679   2.896   4.322   0.658  0.6421 -0.1488  0.4848
 2572TIP3    H1 7680   2.872   4.309   0.566  0.7067 -0.3716  0.4992
 2572TIP3    H2 7681   2.823   4.372   0.695  0.0924 -1.0059  0.5815
 2573TIP3   OH2 7682   5.622   1.823   3.933  0.1049  0.0455  0.0756
 2573TIP3    H1 7683   5.528   1.832   3.918  0.2848  0.6572 -0.7399
 2573TIP3    H2 7684   5.646   1.745   3.885  0.2314  0.5980 -0.7739
 2574TIP3   OH2 7685   1.657   6.112   5.208 -0.1984  0.0033  0.3370
 2574TIP3    H1 7686   1.718   6.186   5.200  0.0182 -0.2569 -0.5681
 2574TIP3    H2 7687   1.581   6.138   5.155 -0.3853 -0.1731  0.5134
 2575TIP3   OH2 7688   0.330   2.760   3.321 -0.1787 -0.4045 -0.0616
 2575TIP3    H1 7689   0.310   2.707   3.244 -0.5556  0.7600 -0.7787
 2575TIP3    H2 7690   0.248   2.804   3.342  0.5443  1.2026 -0.5050
 2576TIP3   OH2 7691   4.696   3.535   5.271 -0.1605  0.2068  0.2805
 2576TIP3    H1 7692   4.693   3.488   5.354  0.1226  0.3565  0.3773
 2576TIP3    H2 7693   4.780   3.510   5.232 -0.3619  0.0104 -0.0361
 2577TIP3   OH2 7694   0.540   0.062   0.708  0.6383  0.2708  0.4717
 2577TIP3    H1 7695   0.586  -0.021   0.696 -0.1539  0.0781 -1.6166
 2577TIP3    H2 7696   0.542   0.103   0.621  0.2300  2.0300  1.2507
 2578TIP3   OH2 7697   1.778   5.012   3.414 -0.6352  0.5649 -0.5698
 2578TIP3    H1 7698   1.713   4.972   3.472  0.0405  1.7480  1.0662
 2578TIP3    H2 7699   1.858   4.963   3.431 -0.7984 -0.1704 -1.7785
 2579TIP3   OH2 7700  -0.002   5.540   2.887 -0.2084  0.5121 -0.1327
 2579TIP3    H1 7701  -0.017   5.593   2.809  2.1615  0.3599 -0.7435
 2579TIP3    H2 7702   0.037   5.459   2.854 -0.1766 -0.0085  1.1243
 2580TIP3   OH2 7703   4.547   1.827   3.657 -0.5262  0.0475  0.6864
 2580TIP3    H1 7704   4.621   1.852   3.601 -0.5036 -1.1241  0.1541
 2580TIP3    H2 7705   4.485   1.899   3.648 -0.0199  0.4195  0.0578
 2581TIP3   OH2 7706   1.631   4.512   0.230  0.5815 -0.1499 -0.2409
 2581TIP3    H1 7707   1.655   4.594   0.274  0.3401  0.2349 -0.8091
 2581TIP3    H2 7708   1.701   4.498   0.166  0.2222  0.0314 -0.6787
 2582TIP3   OH2 7709   6.988   3.281   1.434 -0.2727 -0.0743  0.1553
 2582TIP3    H1 7710   6.919   3.223   1.467 -1.3369  0.1778 -1.5356
 2582TIP3    H2 7711   7.046   3.293   1.509 -2.0031 -0.3790  1.6164
 2583TIP3   OH2 7712   7.172   5.177   4.680 -0.1672 -0.4869  0.3277
 2583TIP3    H1 7713   7.096   5.128   4.649 -0.3623 -2.4480  3.4690
 2583TIP3    H2 7714   7.139   5.265   4.700 -0.7584 -0.2564 -1.4961
 2584TIP3   OH2 7715   1.065   6.328   5.301  0.4137  0.3985  0.6764
 2584TIP3    H1 7716   1.005   6.256   5.281  0.3776 -0.0457  2.2517
 2584TIP3    H2 7717   1.153   6.291   5.287  0.3609  0.4990  0.0822
 2585TIP3   OH2 7718   2.284   2.812   0.077  0.3849 -0.3310 -0.3604
 2585TIP3    H1 7719   2.231   2.875   0.027 -0.3068 -1.1180 -0.6452
 2585TIP3    H2 7720   2.254   2.821   0.167  0.6901  0.1438 -0.3026
 2586TIP3   OH2 7721   0.941   0.101   3.491 -0.4314  0.4961  0.0168
 2586TIP3    H1 7722   0.981   0.103   3.577 -0.2687  0.8233 -0.0655
 2586TIP3    H2 7723   0.890   0.020   3.490 -1.0391  0.8563  0.6943
 2587TIP3   OH2 7724   4.110   4.221   3.951  0.2282  0.2046 -0.2892
 2587TIP3    H1 7725   4.107   4.131   3.918  0.9395  0.2822 -0.5897
 2587TIP3    H2 7726   4.176   4.219   4.020  1.1742  0.7644 -1.1670
 2588TIP3   OH2 7727   1.067   4.448   0.276 -0.0084  0.6072  0.3174
 2588TIP3    H1 7728   1.070   4.374   0.336 -1.1721  0.4189  0.1709
 2588TIP3    H2 7729   1.128   4.426   0.206  0.2998  0.1865  0.7135
 2589TIP3   OH2 7730   5.560   5.176   2.833 -0.2735 -0.1209  0.0657
 2589TIP3    H1 7731   5.634   5.118   2.817 -0.2957 -0.1576  0.0963
 2589TIP3    H2 7732   5.580   5.255   2.783  0.5423  0.4765  1.2868
 2590TIP3   OH2 7733   5.922   0.155   5.173 -0.8454  0.4256 -0.3690
 2590TIP3    H1 7734   5.880   0.165   5.259 -1.5544  0.6006 -0.7313
 2590TIP3    H2 7735   5.853   0.176   5.110 -0.9158 -1.6254 -1.0453
 2591TIP3   OH2 7736   1.281   6.636   0.475 -0.2967  0.0527 -0.6496
 2591TIP3    H1 7737   1.245   6.696   0.410  0.1970  1.1721  0.0877
 2591TIP3    H2 7738   1.236   6.658   0.556 -0.8772 -1.3013 -0.5775
 2592TIP3   OH2 7739   1.502   2.915   4.227 -0.6632 -0.6698  0.2581
 2592TIP3    H1 7740   1.494   2.881   4.138  0.9594  0.9995 -0.6203
 2592TIP3    H2 7741   1.553   2.849   4.274  0.9251 -0.3322 -0.9047
 2593TIP3   OH2 7742   0.483   3.269   4.728  0.0085 -0.0701  0.0623
 2593TIP3    H1 7743   0.512   3.288   4.638  0.4579 -1.3429 -0.0806
 2593TIP3    H2 7744   0.515   3.344   4.779 -0.1970  0.6388 -0.8210
 2594TIP3   OH2 7745   2.879   4.248   1.754 -0.7322 -0.2386  0.4320
 2594TIP3    H1 7746   2.893   4.175   1.814 -0.7832  0.4187  1.2613
 2594TIP3    H2 7747   2.966   4.285   1.741 -0.7888 -0.0865  0.4844
 2595TIP3   OH2 7748   3.243   1.855   1.010 -0.5035 -0.5142  0.0912
 2595TIP3    H1 7749   3.162   1.838   0.962  0.0231 -0.9022 -0.6788
 2595TIP3    H2 7750   3.227   1.818   1.097 -0.6543 -1.8741 -0.4817
 2596TIP3   OH2 7751   5.009   3.099   1.919 -0.1791 -0.1354  0.0599
 2596TIP3    H1 7752   4.925   3.054   1.905 -0.5888 -0.2483  2.4504
 2596TIP3    H2 7753   5.069   3.030   1.947 -0.3406  0.4774  2.0436
 2597TIP3   OH2 7754   2.939   1.210   3.625  0.3902  0.0578 -0.2070
 2597TIP3    H1 7755   2.916   1.158   3.702 -1.1009 -0.5139 -0.9824
 2597TIP3    H2 7756   3.023   1.249   3.646  1.1583 -1.9786  0.7801
 2598TIP3   OH2 7757   5.926   6.067   3.302 -0.3684 -0.0223 -0.0611
 2598TIP3    H1 7758   5.943   6.143   3.247  1.3368 -0.2011  0.1489
 2598TIP3    H2 7759   5.930   5.992   3.242 -2.8216  0.0534 -0.4097
 2599TIP3   OH2 7760   0.367   3.182   2.564 -0.0607  0.1610  0.2751
 2599TIP3    H1 7761   0.444   3.186   2.621  0.2243  0.1455 -0.0982
 2599TIP3    H2 7762   0.313   3.112   2.600  0.5834 -0.5180 -0.0421
 2600TIP3   OH2 7763   0.499   0.788   4.512  0.4362 -0.2639 -0.0895
 2600TIP3    H1 7764   0.466   0.822   4.429  0.2796 -1.0743 -0.3707
 2600TIP3    H2 7765   0.482   0.857   4.576  0.3248  0.2608 -0.6855
 2601TIP3   OH2 7766   2.897   4.696   2.522  0.0593  0.8892 -0.0781
 2601TIP3    H1 7767   2.823   4.757   2.523 -0.2044  0.6797 -2.0154
 2601TIP3    H2 7768   2.863   4.617   2.482  1.2056  0.6114 -0.5571
 2602TIP3   OH2 7769   1.229   4.175   1.411 -0.2532 -0.7905  0.4566
 2602TIP3    H1 7770   1.295   4.241   1.433 -1.0517  0.0141  0.4607
 2602TIP3    H2 7771   1.270   4.124   1.341  0.0815  0.1940 -0.0919
 2603TIP3   OH2 7772   1.678   5.163   2.778 -0.6429 -0.4812 -0.1020
 2603TIP3    H1 7773   1.715   5.076   2.794 -1.2409 -0.6417  0.4436
 2603TIP3    H2 7774   1.652   5.161   2.685  2.0067  0.1391 -0.9266
 2604TIP3   OH2 7775   6.979   0.511   4.619 -0.7548 -0.1103 -0.0126
 2604TIP3    H1 7776   7.035   0.543   4.689 -1.4338  0.6721  0.1946
 2604TIP3    H2 7777   7.039   0.479   4.552 -0.0465  1.2593 -0.0602
 2605TIP3   OH2 7778   5.823   4.899   1.265  0.3777 -0.2084  1.0707
 2605TIP3    H1 7779   5.837   4.812   1.302 -1.4455 -0.9688  0.1201
 2605TIP3    H2 7780   5.878   4.902   1.187 -1.5192 -1.5953 -0.4019
 2606TIP3   OH2 7781   7.023   0.532   3.761 -0.0773  0.2941 -0.5394
 2606TIP3    H1 7782   7.067   0.550   3.677  0.3259  0.9908 -0.1836
 2606TIP3    H2 7783   6.943   0.486   3.736  0.4372 -0.2607 -1.2583
 2607TIP3   OH2 7784   4.068   6.577   2.538 -0.4735  0.5282  0.8935
 2607TIP3    H1 7785   4.105   6.500   2.581 -0.9812 -0.1779  0.1067
 2607TIP3    H2 7786   4.143   6.620   2.497 -0.5449 -1.3939 -1.4783
 2608TIP3   OH2 7787   6.845   5.511   5.708 -0.4280 -0.5991  0.0043
 2608TIP3    H1 7788   6.939   5.496   5.705 -0.5372 -1.6923  1.0656
 2608TIP3    H2 7789   6.834   5.583   5.769 -0.2444  0.0903 -0.7593
 2609TIP3   OH2 7790   0.802   5.972   0.735  0.2403  0.1844  0.0010
 2609TIP3    H1 7791   0.895   5.954   0.719  0.1539 -0.4670  0.2035
 2609TIP3    H2 7792   0.776   6.029   0.663  0.7380  0.1867 -0.1830
 2610TIP3   OH2 7793   5.781   5.819   0.545 -0.4764 -0.1732 -0.0972
 2610TIP3    H1 7794   5.828   5.901   0.555 -0.6069 -0.1195  0.0793
 2610TIP3    H2 7795   5.768   5.809   0.451 -1.6922  0.7053 -0.0450
 2611TIP3   OH2 7796   0.041   4.509   2.612 -0.1833 -0.3833  0.8810
 2611TIP3    H1 7797   0.110   4.520   2.546 -0.3990  0.2842  0.7642
 2611TIP3    H2 7798  -0.027   4.572   2.587 -1.1488 -1.4790  0.5976
 2612TIP3   OH2 7799   4.764   0.323   1.829 -0.1499  0.6992  0.2725
 2612TIP3    H1 7800   4.728   0.345   1.915  0.3556  1.0436  0.3956
 2612TIP3    H2 7801   4.830   0.256   1.847  1.1241  1.9381  0.3528
 2613TIP3   OH2 7802   3.162   2.180   1.910  0.5648  0.0631 -0.4971
 2613TIP3    H1 7803   3.176   2.107   1.850  1.5803 -0.2166  0.0642
 2613TIP3    H2 7804   3.086   2.154   1.962  0.4796 -0.2683 -0.7809
 2614TIP3   OH2 7805   1.016   5.919   4.647  0.1646  0.4521  0.1893
 2614TIP3    H1 7806   0.954   5.943   4.577  0.2338  0.5775  0.1700
 2614TIP3    H2 7807   1.077   5.993   4.650 -1.1412  1.5451  1.9017
 2615TIP3   OH2 7808   5.199   6.461   4.370 -0.5426 -0.3863  0.0569
 2615TIP3    H1 7809   5.225   6.492   4.284 -0.5291 -2.9236 -0.9478
 2615TIP3    H2 7810   5.276   6.414   4.403 -0.9820 -0.5784  0.8463
 2616TIP3   OH2 7811   0.381   2.260   3.672 -0.0008  0.4681 -0.1935
 2616TIP3    H1 7812   0.469   2.255   3.636  0.4430  0.4032  0.8526
 2616TIP3    H2 7813   0.336   2.182   3.638  0.7588 -0.2055  0.3046
 2617TIP3   OH2 7814   0.810   5.257   1.154  0.0371  0.4735  0.5594
 2617TIP3    H1 7815   0.813   5.162   1.150  1.1977  0.5402 -0.8598
 2617TIP3    H2 7816   0.789   5.277   1.246  1.9687 -1.1038  1.4027
 2618TIP3   OH2 7817   4.466   4.400   3.426 -0.3893 -0.5800 -0.2322
 2618TIP3    H1 7818   4.434   4.457   3.355  1.8136 -0.7020 -1.4063
 2618TIP3    H2 7819   4.559   4.421   3.434 -0.0958 -2.1831  1.1061
 2619TIP3   OH2 7820   6.521   6.729   2.032 -0.2013 -0.4591 -0.2151
 2619TIP3    H1 7821   6.616   6.741   2.035  0.0057 -1.0556 -2.5284
 2619TIP3    H2 7822   6.507   6.669   1.959 -2.4555  0.4870 -0.6267
 2620TIP3   OH2 7823   2.894   4.462   0.355 -0.2891 -0.4294 -0.0956
 2620TIP3    H1 7824   2.903   4.518   0.278 -0.9538 -0.8443 -0.4924
 2620TIP3    H2 7825   2.816   4.408   0.336  0.1878 -1.3052  0.3732
 2621TIP3   OH2 7826   0.800   4.962   2.616  0.2771  0.2275 -0.2187
 2621TIP3    H1 7827   0.876   4.992   2.666  1.1248 -0.2430 -1.1861
 2621TIP3    H2 7828   0.748   5.040   2.601  1.3326  0.8364 -0.8191
 2622TIP3   OH2 7829   3.236   4.785   5.581 -0.2752  0.0922 -0.0851
 2622TIP3    H1 7830   3.167   4.720   5.569  0.1468 -1.0990  3.0420
 2622TIP3    H2 7831   3.316   4.740   5.554 -0.4499  1.0842 -2.5809
 2623TIP3   OH2 7832   2.708   5.074   1.333 -0.1136  0.4054 -0.2770
 2623TIP3    H1 7833   2.652   5.004   1.298 -1.4330  1.7129 -0.9002
 2623TIP3    H2 7834   2.672   5.154   1.295  3.4217  1.2171 -2.3259
 2624TIP3   OH2 7835   0.034   2.048   0.954  0.4337 -0.5061 -0.0474
 2624TIP3    H1 7836   0.063   2.128   0.998 -1.3004  0.1097  0.0537
 2624TIP3    H2 7837   0.112   2.014   0.912  2.0920 -0.8267  3.0004
 2625TIP3   OH2 7838   5.776   4.356   4.293 -0.9378  0.0246 -0.3056
 2625TIP3    H1 7839   5.812   4.280   4.337  1.0349  0.8177 -0.4560
 2625TIP3    H2 7840   5.695   4.325   4.252 -0.4219 -1.8332  0.0328
 2626TIP3   OH2 7841   3.251   1.120   4.006 -0.4330 -0.0424 -0.3876
 2626TIP3    H1 7842   3.258   1.184   4.077  0.1435 -0.1244 -0.3666
 2626TIP3    H2 7843   3.181   1.060   4.034 -0.6222  0.2782 -0.1717
 2627TIP3   OH2 7844   5.634   3.683   1.910  0.1267  0.7104 -0.0753
 2627TIP3    H1 7845   5.543   3.708   1.894  0.7356  2.5673 -0.9199
 2627TIP3    H2 7846   5.633   3.587   1.909 -1.9436  0.6759  0.7824
 2628TIP3   OH2 7847   2.809   6.456   3.481 -0.2045  0.1434  0.0088
 2628TIP3    H1 7848   2.754   6.531   3.459  2.0711  1.8307 -0.2378
 2628TIP3    H2 7849   2.855   6.483   3.561  0.2412 -1.2098  0.2303
 2629TIP3   OH2 7850   1.987   1.727   2.583  0.1815  0.3530 -0.0064
 2629TIP3    H1 7851   1.951   1.718   2.671  0.8397  0.3535  0.2668
 2629TIP3    H2 7852   2.071   1.770   2.595  0.3007  0.3175 -0.6334
 2630TIP3   OH2 7853   4.228   0.877   0.334 -0.2870 -0.3555  0.2868
 2630TIP3    H1 7854   4.141   0.884   0.296 -0.6863 -0.9035  1.0767
 2630TIP3    H2 7855   4.254   0.786   0.318  0.2132 -0.1577 -0.0792
 2631TIP3   OH2 7856   5.153   1.861   1.530  0.0755 -0.5554 -0.4192
 2631TIP3    H1 7857   5.206   1.939   1.519  1.0491 -1.3565 -1.7053
 2631TIP3    H2 7858   5.135   1.832   1.441  1.4659 -2.9128 -0.0156
 2632TIP3   OH2 7859   4.414   5.694   2.933 -0.1617 -0.1032  0.3681
 2632TIP3    H1 7860   4.506   5.720   2.939  0.2888 -1.5451  0.1268
 2632TIP3    H2 7861   4.384   5.693   3.024 -0.9631  3.5664  0.3180
 2633TIP3   OH2 7862   4.730   2.909   3.123  0.6303  0.0679  0.1054
 2633TIP3    H1 7863   4.681   2.990   3.136  0.8724  0.3168 -0.5461
 2633TIP3    H2 7864   4.800   2.931   3.062  2.0526 -0.0870  1.5785
 2634TIP3   OH2 7865   0.518   5.335   3.458  0.1941 -0.6286 -0.3845
 2634TIP3    H1 7866   0.541   5.320   3.549  0.7817  0.5724 -0.3210
 2634TIP3    H2 7867   0.536   5.251   3.415 -0.2172 -1.2467  0.6031
 2635TIP3   OH2 7868   1.044   4.281   4.731 -0.0234 -0.0461  0.0942
 2635TIP3    H1 7869   0.974   4.217   4.745 -0.7235  0.7446  0.2485
 2635TIP3    H2 7870   1.060   4.318   4.818  2.1640 -1.7954  0.5215
 2636TIP3   OH2 7871   5.217   0.744   1.349  0.4040 -0.0619 -0.1551
 2636TIP3    H1 7872   5.133   0.703   1.370 -0.8657  1.4032 -1.9374
 2636TIP3    H2 7873   5.236   0.715   1.259 -0.2021  2.5424 -1.2170
 2637TIP3   OH2 7874   2.536   6.570   3.807 -0.0086  0.0744  0.1839
 2637TIP3    H1 7875   2.465   6.511   3.784 -0.3246  0.6447 -0.3397
 2637TIP3    H2 7876   2.616   6.520   3.791 -0.2779 -0.2860 -0.0238
 2638TIP3   OH2 7877   2.656   3.345   1.144 -0.1895 -0.5826  0.0642
 2638TIP3    H1 7878   2.663   3.438   1.167  0.7389 -0.3879 -0.8956
 2638TIP3    H2 7879   2.565   3.322   1.162 -0.7004  0.7816 -0.6219
 2639TIP3   OH2 7880   1.530   5.563   4.721 -0.0291 -0.1323 -0.8295
 2639TIP3    H1 7881   1.439   5.548   4.694 -0.1821 -0.9198  0.0756
 2639TIP3    H2 7882   1.529   5.649   4.762 -0.8723 -1.0479  1.2019
 2640TIP3   OH2 7883   4.728   5.079   4.507  0.5551 -0.2525 -0.3012
 2640TIP3    H1 7884   4.746   4.997   4.554 -0.5787 -0.1468  0.3565
 2640TIP3    H2 7885   4.803   5.135   4.527  1.9497 -1.5062 -1.7240
 2641TIP3   OH2 7886   2.677  -0.008   2.514 -0.1514  0.1154 -0.5070
 2641TIP3    H1 7887   2.750  -0.055   2.473 -0.4984 -0.7788 -0.1182
 2641TIP3    H2 7888   2.689   0.083   2.487  1.0461 -0.0386 -0.5399
 2642TIP3   OH2 7889   2.529   3.196   5.696  0.4367  0.0652 -0.2806
 2642TIP3    H1 7890   2.568   3.272   5.740  4.0260 -0.9161 -1.3911
 2642TIP3    H2 7891   2.552   3.209   5.604 -1.5062 -0.9616 -0.9474
 2643TIP3   OH2 7892   3.559   5.662   1.500 -0.1497 -0.3728 -0.2643
 2643TIP3    H1 7893   3.644   5.621   1.487  0.1129 -1.0310  2.6932
 2643TIP3    H2 7894   3.496   5.594   1.477  0.1680 -0.5116 -0.7265
 2644TIP3   OH2 7895   5.189   2.980   1.167  0.1037 -0.4778  0.3371
 2644TIP3    H1 7896   5.142   3.056   1.202  2.1262  0.5670  0.9836
 2644TIP3    H2 7897   5.140   2.904   1.199 -2.7052  0.4616 -1.3608
 2645TIP3   OH2 7898   6.128   5.226   4.838  0.6188  0.4051 -0.8993
 2645TIP3    H1 7899   6.180   5.168   4.894  0.1524  1.6028  0.8312
 2645TIP3    H2 7900   6.143   5.192   4.749  3.2017 -0.1746 -0.3374
 2646TIP3   OH2 7901   0.992   1.968   5.728 -0.2645 -0.4377 -0.7442
 2646TIP3    H1 7902   1.078   1.976   5.687  0.1419 -0.5354  0.0774
 2646TIP3    H2 7903   0.930   1.972   5.655  0.4763 -1.3423 -1.4322
 2647TIP3   OH2 7904   5.138   5.190   0.393 -0.6614 -0.1854 -0.3457
 2647TIP3    H1 7905   5.179   5.161   0.311 -0.1207  0.5097 -0.3241
 2647TIP3    H2 7906   5.066   5.128   0.406 -0.8337 -0.2419 -1.4141
 2648TIP3   OH2 7907   0.427   3.632   1.742 -0.0402 -0.3933  0.4064
 2648TIP3    H1 7908   0.444   3.698   1.674 -0.6606 -0.1080  0.5157
 2648TIP3    H2 7909   0.504   3.637   1.799 -0.1567  0.3715  0.5155
 2649TIP3   OH2 7910   1.586   1.670   1.286  0.2224 -0.1844  0.2412
 2649TIP3    H1 7911   1.669   1.717   1.280 -0.1613  0.5283  0.4993
 2649TIP3    H2 7912   1.524   1.734   1.319 -0.5237 -0.6153 -0.3068
 2650TIP3   OH2 7913   3.038   0.253   2.050 -0.0550 -0.7111  0.1384
 2650TIP3    H1 7914   3.016   0.200   2.126 -1.5323 -2.0328 -1.1514
 2650TIP3    H2 7915   3.056   0.190   1.980  1.2454  0.4631 -0.6362
 2651TIP3   OH2 7916   4.020   1.205   2.497  0.1380  0.6802  0.5880
 2651TIP3    H1 7917   3.992   1.296   2.491 -1.2530  0.2446 -0.1467
 2651TIP3    H2 7918   4.036   1.178   2.406  1.3364  0.4043  0.8594
 2652TIP3   OH2 7919   1.953   6.593   2.187  0.0497  0.3481 -0.2830
 2652TIP3    H1 7920   2.045   6.619   2.185  0.7274 -1.8422 -0.0833
 2652TIP3    H2 7921   1.946   6.537   2.264 -1.1878 -0.3879 -0.9017
 2653TIP3   OH2 7922   3.808   3.280   5.225  1.0147 -0.2371 -0.3349
 2653TIP3    H1 7923   3.846   3.246   5.144 -0.9010  1.5649 -2.1031
 2653TIP3    H2 7924   3.726   3.233   5.234  1.1336 -0.2972  0.4755
 2654TIP3   OH2 7925   2.140   1.980   5.036 -0.3026 -0.3641  0.0465
 2654TIP3    H1 7926   2.212   1.987   5.098 -1.9672  0.3220  2.0292
 2654TIP3    H2 7927   2.150   1.894   4.996 -0.2204 -1.7106  2.7441
 2655TIP3   OH2 7928   2.281   5.383   5.579 -0.4072  0.4440  0.4627
 2655TIP3    H1 7929   2.285   5.353   5.670  3.9312 -1.9519 -0.2588
 2655TIP3    H2 7930   2.345   5.454   5.575 -1.5282  1.4457 -0.5537
 2656TIP3   OH2 7931   6.067   3.995   3.757  0.3946  0.3398  0.3145
 2656TIP3    H1 7932   6.091   3.975   3.847 -0.4542  0.1146  0.5073
 2656TIP3    H2 7933   6.093   3.917   3.707  0.0250  0.0785  0.5259
 2657TIP3   OH2 7934   1.463   0.821   5.760  0.3321 -0.0231  0.0706
 2657TIP3    H1 7935   1.547   0.781   5.739  0.9909  1.0855  0.5489
 2657TIP3    H2 7936   1.401   0.748   5.756  1.3140 -0.8675 -0.2176
 2658TIP3   OH2 7937   2.631   4.083   0.230  0.2127  0.5218  0.2589
 2658TIP3    H1 7938   2.559   4.070   0.292  1.2021 -1.1193  1.1385
 2658TIP3    H2 7939   2.596   4.052   0.147 -0.0052 -0.6485  0.7613
 2659TIP3   OH2 7940   1.478   3.948   2.124 -0.6131 -0.5208 -0.0042
 2659TIP3    H1 7941   1.501   3.981   2.037  3.7720 -0.3383  0.9851
 2659TIP3    H2 7942   1.444   3.860   2.109  1.7681 -1.2088 -1.8657
 2660TIP3   OH2 7943   4.543   6.553   4.317 -0.5610  0.4275 -0.1279
 2660TIP3    H1 7944   4.570   6.631   4.270  0.1813  0.9140  1.0546
 2660TIP3    H2 7945   4.622   6.500   4.326 -1.2436 -1.0081 -1.8068
 2661TIP3   OH2 7946   6.517   0.342   5.863  0.6192  0.3837  0.2653
 2661TIP3    H1 7947   6.604   0.374   5.842  0.3960  1.5833  1.0473
 2661TIP3    H2 7948   6.458   0.400   5.813  0.2513  0.0386  0.2935
 2662TIP3   OH2 7949   3.336   3.486   3.251 -0.2778  0.2766  0.2218
 2662TIP3    H1 7950   3.420   3.446   3.230 -1.1076 -1.2503 -0.2937
 2662TIP3    H2 7951   3.341   3.503   3.346  0.7781  0.6735  0.1088
 2663TIP3   OH2 7952   4.101   0.899   2.663 -0.0408 -0.1079 -0.0249
 2663TIP3    H1 7953   4.114   0.839   2.737  0.2521 -0.5819 -0.4542
 2663TIP3    H2 7954   4.126   0.985   2.697  1.1730 -0.4927  0.1144
 2664TIP3   OH2 7955   1.305   0.996   2.690 -0.0647  0.6360  0.0990
 2664TIP3    H1 7956   1.281   0.981   2.782  0.6375  0.3711  0.2445
 2664TIP3    H2 7957   1.325   1.090   2.686 -0.3665  0.7053  0.1457
 2665TIP3   OH2 7958   2.975   1.056   0.642 -0.1206  0.1764 -0.0314
 2665TIP3    H1 7959   2.971   0.970   0.601  1.7723 -1.0098  2.0417
 2665TIP3    H2 7960   2.912   1.053   0.713 -1.5756  1.3172 -1.2174
 2666TIP3   OH2 7961   3.106   5.923   2.945  0.0795  0.5829 -0.2306
 2666TIP3    H1 7962   3.048   5.887   2.878  1.0846 -0.3055 -0.6467
 2666TIP3    H2 7963   3.181   5.957   2.896  1.4430 -1.2457  0.4842
 2667TIP3   OH2 7964   2.368   5.706   2.758 -0.7367 -0.4425 -0.5939
 2667TIP3    H1 7965   2.406   5.708   2.670  1.9600 -0.7609  0.4600
 2667TIP3    H2 7966   2.404   5.627   2.799  2.2057  2.0867  2.3513
 2668TIP3   OH2 7967   2.072   0.095   4.886  0.4996  0.0237 -0.0601
 2668TIP3    H1 7968   2.090   0.036   4.812  0.2795  0.2813 -0.3208
 2668TIP3    H2 7969   2.129   0.063   4.956  0.9895  0.0112 -0.4592
 2669TIP3   OH2 7970   4.712   2.566   3.395 -0.1613  0.5976 -0.2429
 2669TIP3    H1 7971   4.684   2.487   3.350  0.0974  0.3545  0.0208
 2669TIP3    H2 7972   4.757   2.535   3.473  0.7183  0.9842 -0.5845
 2670TIP3   OH2 7973   2.501   4.206   2.630 -0.1835 -0.2688  0.3998
 2670TIP3    H1 7974   2.464   4.289   2.600 -0.2650 -0.0707  1.0337
 2670TIP3    H2 7975   2.558   4.178   2.558 -0.3626  0.2007  0.0697
 2671TIP3   OH2 7976   0.434   2.919   4.195  0.3176  0.0261  0.4279
 2671TIP3    H1 7977   0.350   2.954   4.166  1.1817  1.8170 -0.0477
 2671TIP3    H2 7978   0.433   2.827   4.169 -0.8601  0.4170 -0.9822
 2672TIP3   OH2 7979   5.081   1.691   3.257 -0.0927  0.0635 -0.1340
 2672TIP3    H1 7980   5.171   1.689   3.291 -0.1708 -0.3555  0.0574
 2672TIP3    H2 7981   5.057   1.599   3.250 -1.2877  0.1546  1.8998
 2673TIP3   OH2 7982   5.933   0.376   2.959  0.1788  0.2031 -0.3654
 2673TIP3    H1 7983   5.971   0.290   2.943  0.6571  0.6188 -1.5912
 2673TIP3    H2 7984   5.878   0.393   2.882  0.5722  1.2365 -0.4448
 2674TIP3   OH2 7985   0.053   4.026   0.530  0.2044  0.0889 -0.1949
 2674TIP3    H1 7986  -0.017   4.073   0.574  0.8038  0.8434 -0.0218
 2674TIP3    H2 7987   0.013   3.991   0.451 -0.3337  0.6465 -0.1769
 2675TIP3   OH2 7988   6.026   3.453   5.763  0.2121 -0.2241 -0.4319
 2675TIP3    H1 7989   6.048   3.366   5.797  0.8392 -0.1342 -0.5866
 2675TIP3    H2 7990   6.094   3.471   5.698  0.1359  0.4114 -0.3428
 2676TIP3   OH2 7991   1.356   2.476   0.727  0.2248  0.0824 -0.3187
 2676TIP3    H1 7992   1.306   2.431   0.795  1.3984  0.4938  0.8573
 2676TIP3    H2 7993   1.435   2.423   0.717  0.9470  1.0743  0.0316
 2677TIP3   OH2 7994   3.636   5.864   2.632  0.1010  0.1601 -0.4315
 2677TIP3    H1 7995   3.702   5.795   2.631 -0.2040 -0.1759 -2.3813
 2677TIP3    H2 7996   3.558   5.823   2.669  0.8810  0.5195  1.7534
 2678TIP3   OH2 7997   2.147   3.135   1.420  0.0016 -0.6384  0.2084
 2678TIP3    H1 7998   2.081   3.067   1.411 -0.4286 -0.2962  0.6894
 2678TIP3    H2 7999   2.108   3.213   1.381 -1.6722  0.7130  4.0614
 2679TIP3   OH2 8000   0.577   5.366   4.427 -0.3472  0.2482  0.1801
 2679TIP3    H1 8001   0.557   5.455   4.399 -0.2887  0.9144  2.1216
 2679TIP3    H2 8002   0.640   5.376   4.498  1.2654 -1.4734 -0.9229
 2680TIP3   OH2 8003   6.326   5.423   4.510  0.3518  0.2054 -0.1722
 2680TIP3    H1 8004   6.266   5.476   4.456  0.4963  0.5652  0.0182
 2680TIP3    H2 8005   6.409   5.471   4.508  0.4224  0.0985  0.1796
 2681TIP3   OH2 8006   4.005   2.285   4.244 -0.8304 -0.5455  0.4920
 2681TIP3    H1 8007   3.930   2.292   4.303 -1.4373 -1.4746 -0.1544
 2681TIP3    H2 8008   4.076   2.330   4.290 -1.4939 -0.6018  1.5962
 2682TIP3   OH2 8009   3.367   2.355   5.781  0.3139  0.6075  0.0124
 2682TIP3    H1 8010   3.275   2.332   5.771  0.2421  0.6051  0.6405
 2682TIP3    H2 8011   3.367   2.433   5.837  0.6527  1.0675 -0.6111
 2683TIP3   OH2 8012   3.225   2.917   1.632  0.2206 -0.1091  0.8101
 2683TIP3    H1 8013   3.284   2.987   1.662  0.2594 -0.1058  0.7272
 2683TIP3    H2 8014   3.171   2.898   1.708 -0.3452  0.5768  0.5898
 2684TIP3   OH2 8015   3.154   4.889   5.814 -0.4223  0.3692 -0.0233
 2684TIP3    H1 8016   3.095   4.958   5.784  0.6962  1.2348 -0.2923
 2684TIP3    H2 8017   3.190   4.852   5.733  0.1717  0.5394  0.1617
 2685TIP3   OH2 8018   6.177   2.719   3.898 -0.0218  0.9632 -0.0892
 2685TIP3    H1 8019   6.243   2.696   3.833  0.2598 -0.1138  0.5527
 2685TIP3    H2 8020   6.097   2.677   3.866  0.3969 -0.6540  0.8637
 2686TIP3   OH2 8021   0.203   3.379   3.320  0.3479 -0.6305  0.2934
 2686TIP3    H1 8022   0.144   3.418   3.384  1.6031  0.4746  0.8257
 2686TIP3    H2 8023   0.230   3.296   3.359 -0.4127 -0.8905  0.2855
 2687TIP3   OH2 8024   4.513   4.479   0.282 -0.0383 -0.1979  0.0987
 2687TIP3    H1 8025   4.577   4.409   0.298 -1.0831 -1.1523  0.2013
 2687TIP3    H2 8026   4.455   4.444   0.215  0.0416  1.0050 -0.6369
 2688TIP3   OH2 8027   3.196   5.482   2.372 -0.6604 -0.2492 -0.3978
 2688TIP3    H1 8028   3.205   5.557   2.429 -3.3694 -1.4859  1.9054
 2688TIP3    H2 8029   3.284   5.446   2.365 -0.0829  0.4363  2.3870
 2689TIP3   OH2 8030   2.765   0.138   3.825  0.3977  0.8737 -0.1682
 2689TIP3    H1 8031   2.807   0.193   3.891 -1.8091  1.0502  1.2061
 2689TIP3    H2 8032   2.721   0.200   3.767 -0.3161  0.6630  0.1285
 2690TIP3   OH2 8033   3.398   0.237   2.505 -0.2949  0.1184 -0.3603
 2690TIP3    H1 8034   3.342   0.254   2.581 -0.6901 -0.2185 -0.5725
 2690TIP3    H2 8035   3.360   0.289   2.435  0.1023  0.4713 -0.3144
 2691TIP3   OH2 8036   3.327   0.542   4.458  0.0027  0.0236 -0.6309
 2691TIP3    H1 8037   3.360   0.454   4.475  1.7993  0.9341  1.0134
 2691TIP3    H2 8038   3.379   0.574   4.385 -1.4827 -0.6497 -2.0463
 2692TIP3   OH2 8039   1.361   4.472   2.987  0.6935  0.3892 -0.7837
 2692TIP3    H1 8040   1.310   4.536   3.037 -0.0211 -0.4592 -0.4076
 2692TIP3    H2 8041   1.423   4.435   3.051  1.0030  0.5886 -0.9648
 2693TIP3   OH2 8042   6.658   1.920   1.242  0.1058  0.4707  0.3899
 2693TIP3    H1 8043   6.630   1.830   1.258  2.1085 -0.4748 -1.0452
 2693TIP3    H2 8044   6.652   1.962   1.328  0.7292 -1.4933  1.4549
 2694TIP3   OH2 8045   6.431   2.691   5.199  0.4176 -0.3548  0.0415
 2694TIP3    H1 8046   6.346   2.648   5.200  0.0527  0.3663  0.9540
 2694TIP3    H2 8047   6.418   2.770   5.146  0.5623 -0.3282  0.0445
 2695TIP3   OH2 8048   6.929   1.764   2.796 -0.2123  0.8337 -0.2191
 2695TIP3    H1 8049   6.879   1.802   2.868  0.5763  0.6677  0.4466
 2695TIP3    H2 8050   6.864   1.734   2.734 -0.9629  0.0606  0.9039
 2696TIP3   OH2 8051   6.042   5.352   3.635 -0.1636 -0.4660 -0.2394
 2696TIP3    H1 8052   5.972   5.294   3.604 -1.8514  0.5960  1.4558
 2696TIP3    H2 8053   6.122   5.310   3.603 -1.5429 -1.2911 -2.9688
 2697TIP3   OH2 8054   7.109   1.234   0.838 -0.1616 -0.4747 -0.5477
 2697TIP3    H1 8055   7.102   1.279   0.922 -0.0334 -1.1207 -0.1899
 2697TIP3    H2 8056   7.182   1.278   0.793 -0.6467  0.2946 -0.5931
 2698TIP3   OH2 8057   3.258   1.813   4.646  0.3066 -0.0851  0.0066
 2698TIP3    H1 8058   3.241   1.855   4.562 -0.1438  0.8089  0.5306
 2698TIP3    H2 8059   3.329   1.751   4.628  0.2356  0.1173 -1.0193
 2699TIP3   OH2 8060   3.338   2.496   1.605 -0.2174  0.1160 -0.4900
 2699TIP3    H1 8061   3.355   2.587   1.632  1.6648 -0.2859 -0.2062
 2699TIP3    H2 8062   3.256   2.474   1.649 -0.8628  1.7592 -0.7808
 2700TIP3   OH2 8063   6.347   3.844   1.527  0.5653 -0.6275  0.2254
 2700TIP3    H1 8064   6.380   3.915   1.582 -2.0287  0.2854  0.7507
 2700TIP3    H2 8065   6.276   3.805   1.579  1.0501 -2.7523 -0.6106
 2701TIP3   OH2 8066   5.427   6.285   2.342  0.1521 -0.3947  0.3074
 2701TIP3    H1 8067   5.516   6.315   2.321  0.5503 -1.3780  0.5211
 2701TIP3    H2 8068   5.414   6.313   2.433  0.1774 -0.1137  0.2264
 2702TIP3   OH2 8069   6.001   4.931   0.690 -0.4358  0.4587 -0.0995
 2702TIP3    H1 8070   5.978   4.840   0.674 -0.0570  0.2572  0.5050
 2702TIP3    H2 8071   6.086   4.928   0.733 -1.1057  1.0093  1.3387
 2703TIP3   OH2 8072   6.012   4.841   3.648  0.1998  0.4133 -0.3688
 2703TIP3    H1 8073   6.091   4.788   3.635  0.1799  0.0899  0.7637
 2703TIP3    H2 8074   6.038   4.906   3.714 -0.6554 -0.0884  0.4784
 2704TIP3   OH2 8075   6.871   1.407   4.041  0.4256  0.3654  0.5010
 2704TIP3    H1 8076   6.944   1.354   4.008 -0.5416 -1.0193  0.5289
 2704TIP3    H2 8077   6.913   1.471   4.098  1.7423  0.3809 -0.4457
 2705TIP3   OH2 8078   0.228   5.864   3.971  0.3879 -0.9355 -0.1816
 2705TIP3    H1 8079   0.241   5.823   4.056  1.1316  1.3200  0.8769
 2705TIP3    H2 8080   0.315   5.872   3.934  0.5096  1.1889  0.4410
 2706TIP3   OH2 8081   0.608   0.212   4.558 -0.5590 -0.0420  0.6949
 2706TIP3    H1 8082   0.700   0.233   4.574  0.5407 -1.5091 -2.6789
 2706TIP3    H2 8083   0.584   0.271   4.486 -1.7947 -0.6623  0.5872
 2707TIP3   OH2 8084   6.721   5.056   4.795  0.0364  0.4887  0.1672
 2707TIP3    H1 8085   6.782   5.046   4.722  0.0375 -3.2476  0.5010
 2707TIP3    H2 8086   6.765   5.117   4.854  2.8839 -0.9748 -0.2452
 2708TIP3   OH2 8087   1.418   5.339   2.050 -0.2268  0.2801 -0.2068
 2708TIP3    H1 8088   1.421   5.272   2.117  0.5432  0.3025 -0.2086
 2708TIP3    H2 8089   1.445   5.294   1.970 -1.2253  0.2310 -0.5316
 2709TIP3   OH2 8090   4.154   5.410   3.498 -0.7434 -0.0899  0.2362
 2709TIP3    H1 8091   4.168   5.397   3.591  0.7026 -1.1069 -0.0740
 2709TIP3    H2 8092   4.179   5.326   3.458 -1.6517  0.2101 -1.0302
 2710TIP3   OH2 8093   1.237   5.432   4.599 -0.5718  0.6928  0.0160
 2710TIP3    H1 8094   1.186   5.509   4.573  0.1512  2.0574  2.2927
 2710TIP3    H2 8095   1.173   5.361   4.605 -1.8559  1.8480  0.7270
 2711TIP3   OH2 8096   0.829   4.424   2.368 -0.1833 -0.1886  0.7354
 2711TIP3    H1 8097   0.851   4.401   2.278  2.7994  1.6800  0.8201
 2711TIP3    H2 8098   0.757   4.486   2.361 -0.0843 -0.1908 -0.3535
 2712TIP3   OH2 8099   2.883   0.310   2.993 -0.3503  0.1140 -0.4520
 2712TIP3    H1 8100   2.850   0.277   3.076  0.0209 -1.0470 -0.7468
 2712TIP3    H2 8101   2.945   0.244   2.964 -1.3962 -0.1457 -2.2595
 2713TIP3   OH2 8102   6.610   6.047   4.863 -0.0455 -0.1795  0.4796
 2713TIP3    H1 8103   6.587   6.025   4.953  1.1067 -1.9757  0.3896
 2713TIP3    H2 8104   6.694   6.003   4.848 -0.3242 -0.1288 -1.5466
 2714TIP3   OH2 8105   0.228   6.032   4.806 -0.6212 -0.0987 -0.9414
 2714TIP3    H1 8106   0.273   6.055   4.888 -1.5976 -0.7170 -0.2082
 2714TIP3    H2 8107   0.135   6.038   4.828 -0.9201 -2.3715 -1.3609
 2715TIP3   OH2 8108   4.505   5.355   0.869  0.3089  0.0870  0.0398
 2715TIP3    H1 8109   4.442   5.303   0.918  0.3988  1.3144  1.5161
 2715TIP3    H2 8110   4.554   5.404   0.935  0.7724  1.4343 -1.2234
 2716TIP3   OH2 8111   4.164   5.428   5.058  0.0447  0.2142  0.2354
 2716TIP3    H1 8112   4.154   5.509   5.108  0.3043  1.3692 -1.5016
 2716TIP3    H2 8113   4.172   5.456   4.967 -0.0874 -1.7876 -0.4556
 2717TIP3   OH2 8114   2.205   6.224   0.494  0.1370 -0.0116 -0.0371
 2717TIP3    H1 8115   2.218   6.275   0.414  0.2897  2.3722  1.4243
 2717TIP3    H2 8116   2.277   6.250   0.551 -0.4055 -1.0923  1.1944
 2718TIP3   OH2 8117   2.095   3.382   3.708  0.5567  0.4919  0.4427
 2718TIP3    H1 8118   2.173   3.336   3.738  1.3881  2.4017  1.3834
 2718TIP3    H2 8119   2.128   3.466   3.674 -1.0842  1.4116  0.9935
 2719TIP3   OH2 8120   0.354   5.439   2.564 -0.1724 -0.5154 -0.6882
 2719TIP3    H1 8121   0.448   5.424   2.575 -0.3700 -1.9289 -0.7998
 2719TIP3    H2 8122   0.317   5.425   2.651 -0.5033 -1.8619 -1.0278
 2720TIP3   OH2 8123   2.115   0.623   4.522 -0.0867 -0.1979  0.3806
 2720TIP3    H1 8124   2.089   0.562   4.591 -1.8727 -1.4137 -1.2609
 2720TIP3    H2 8125   2.162   0.693   4.568 -2.6267 -0.0667  3.0688
 2721TIP3   OH2 8126   2.500   2.578   1.663  0.2254 -0.8738  0.2146
 2721TIP3    H1 8127   2.440   2.510   1.694  0.3422 -1.3841 -0.6670
 2721TIP3    H2 8128   2.502   2.642   1.735  0.8902 -2.2622  1.4820
 2722TIP3   OH2 8129   4.513   1.207   4.931  0.2840  0.7581 -0.4996
 2722TIP3    H1 8130   4.495   1.135   4.991  1.7504  0.9541  0.2344
 2722TIP3    H2 8131   4.458   1.279   4.962  1.7443  1.1679  1.2844
 2723TIP3   OH2 8132   6.514   6.149   4.089 -0.0626 -0.2862  0.5803
 2723TIP3    H1 8133   6.569   6.187   4.020 -0.2808  2.3040  1.6931
 2723TIP3    H2 8134   6.434   6.122   4.044  0.3568  0.0187 -0.3855
 2724TIP3   OH2 8135   5.433   2.976   5.388 -0.3706 -0.0185 -0.2837
 2724TIP3    H1 8136   5.424   2.906   5.453  1.3890 -0.5293 -0.5428
 2724TIP3    H2 8137   5.468   2.932   5.310 -0.7219  0.8957 -0.9730
 2725TIP3   OH2 8138   2.017   1.308   0.314  0.4907  0.0934  0.2807
 2725TIP3    H1 8139   2.052   1.266   0.235  1.9306  1.3163  0.2175
 2725TIP3    H2 8140   2.094   1.344   0.357 -0.4819  0.9411  1.3518
 2726TIP3   OH2 8141   0.788   2.551   1.452  0.1614  0.6951 -0.0241
 2726TIP3    H1 8142   0.783   2.617   1.384  0.0145 -0.4081 -1.1128
 2726TIP3    H2 8143   0.772   2.468   1.407  1.4721 -0.2083  1.0950
 2727TIP3   OH2 8144   3.370   4.016   4.790  0.0536 -0.5787  0.2274
 2727TIP3    H1 8145   3.337   3.930   4.815 -0.5112 -0.2425  0.6696
 2727TIP3    H2 8146   3.367   4.068   4.870 -0.8447  0.2318 -0.3035
 2728TIP3   OH2 8147   3.637   1.649   0.972 -0.3220  0.6132  0.3308
 2728TIP3    H1 8148   3.679   1.690   0.896 -0.3003  0.2826  0.1621
 2728TIP3    H2 8149   3.693   1.673   1.046  2.1143 -2.4861 -0.2880
 2729TIP3   OH2 8150   1.921   4.629   4.444  0.0861 -0.5375 -0.3482
 2729TIP3    H1 8151   1.945   4.666   4.529 -0.2799  2.8775 -1.5964
 2729TIP3    H2 8152   1.844   4.678   4.417  0.1864 -1.5143 -2.6790
 2730TIP3   OH2 8153   4.756   4.151   5.245 -0.1600 -0.0510 -0.0600
 2730TIP3    H1 8154   4.817   4.111   5.307 -0.1301  0.5587  0.3070
 2730TIP3    H2 8155   4.735   4.236   5.283 -1.0364 -0.1419 -0.3136
 2731TIP3   OH2 8156   4.284   1.436   0.197  0.5231  0.1503 -0.8656
 2731TIP3    H1 8157   4.330   1.389   0.266 -0.6156 -0.3677 -0.4329
 2731TIP3    H2 8158   4.207   1.474   0.240 -0.7192 -0.9780 -1.9979
 2732TIP3   OH2 8159   1.286   5.082   4.744  0.2615  0.6561 -0.5797
 2732TIP3    H1 8160   1.374   5.120   4.741  1.1757 -1.0946  1.5455
 2732TIP3    H2 8161   1.300   4.988   4.732 -1.0184  0.0590  1.9528
 2733TIP3   OH2 8162   5.359   0.630   4.799  0.6209 -0.4495  0.0693
 2733TIP3    H1 8163   5.444   0.613   4.841  0.4068 -1.8283  0.0029
 2733TIP3    H2 8164   5.331   0.544   4.768 -1.0258 -0.0862  0.4915
 2734TIP3   OH2 8165   6.442   4.722   1.504  0.0348 -0.3699 -0.2967
 2734TIP3    H1 8166   6.477   4.810   1.516 -0.1927 -0.1530 -1.1361
 2734TIP3    H2 8167   6.355   4.725   1.544  0.5803 -0.6413  0.9587
 2735TIP3   OH2 8168   0.107   4.981   4.080 -0.2809  0.4459 -0.4703
 2735TIP3    H1 8169   0.180   4.946   4.028 -1.0177  1.1067 -2.0072
 2735TIP3    H2 8170   0.090   4.913   4.145  0.9475 -0.2311 -0.8226
 2736TIP3   OH2 8171   0.521   3.543   5.558  0.5020 -0.0924 -0.6231
 2736TIP3    H1 8172   0.534   3.453   5.530  1.1643  0.1138 -1.0081
 2736TIP3    H2 8173   0.607   3.572   5.588 -0.2248 -0.3835  1.9441
 2737TIP3   OH2 8174   5.059   2.852   0.276 -0.6041  0.3955 -0.5665
 2737TIP3    H1 8175   5.065   2.807   0.361  0.8179 -0.1589 -0.9250
 2737TIP3    H2 8176   5.066   2.782   0.211 -0.6566  0.9182 -1.1456
 2738TIP3   OH2 8177   1.026   0.045   0.947 -0.2711 -0.2021 -0.4812
 2738TIP3    H1 8178   0.990   0.122   0.989 -1.7718  0.5907 -2.9832
 2738TIP3    H2 8179   1.084   0.006   1.012  0.6416  3.0662  0.8364
 2739TIP3   OH2 8180   3.116   5.987   2.487  0.3528  0.4613  0.0854
 2739TIP3    H1 8181   3.143   6.027   2.570  1.3730 -0.0001 -0.0099
 2739TIP3    H2 8182   3.044   6.043   2.456  1.1519  1.6959  0.3845
 2740TIP3   OH2 8183   4.027   5.933   2.526  0.2323  0.2718  0.6932
 2740TIP3    H1 8184   3.945   5.969   2.557 -0.3945  1.2692 -1.8611
 2740TIP3    H2 8185   4.004   5.847   2.491 -0.3692  1.5958 -2.4426
 2741TIP3   OH2 8186   1.150   6.391   4.878  0.7382 -0.3383 -0.2854
 2741TIP3    H1 8187   1.125   6.302   4.903  0.8467 -0.5433 -0.8793
 2741TIP3    H2 8188   1.084   6.417   4.814  0.0517  0.4465  0.7115
 2742TIP3   OH2 8189   3.784   6.045   2.504 -0.3349 -0.0201  0.1418
 2742TIP3    H1 8190   3.725   5.988   2.552 -1.2617  0.4003 -0.4771
 2742TIP3    H2 8191   3.739   6.129   2.499  0.8552  0.6856  0.7405
 2743TIP3   OH2 8192   3.123   3.626   3.141 -0.2392 -0.1137  0.0485
 2743TIP3    H1 8193   3.082   3.568   3.077  0.5343 -0.5624 -0.0484
 2743TIP3    H2 8194   3.191   3.573   3.182  0.1525  0.5682  0.3074
 2744TIP3   OH2 8195   3.303   4.668   4.725  0.3332  0.1288  0.9165
 2744TIP3    H1 8196   3.339   4.746   4.683 -2.0352  0.1823 -1.2595
 2744TIP3    H2 8197   3.251   4.702   4.797 -2.2187  0.8653 -1.1332
 2745TIP3   OH2 8198   5.184   5.510   3.854  0.2233 -0.5212  0.0177
 2745TIP3    H1 8199   5.115   5.480   3.796 -0.7177 -0.3963  1.0333
 2745TIP3    H2 8200   5.265   5.480   3.813 -0.2546  1.1066 -2.2819
 2746TIP3   OH2 8201   7.166   4.489   5.182 -0.4123 -0.0248 -0.7917
 2746TIP3    H1 8202   7.125   4.424   5.239 -1.0009  0.0859 -1.0761
 2746TIP3    H2 8203   7.120   4.479   5.098  1.4175 -1.2010 -1.7345
 2747TIP3   OH2 8204   3.104   2.381   4.860  0.1618  0.7487 -0.5366
 2747TIP3    H1 8205   3.137   2.417   4.778  0.3276 -0.1403 -0.8742
 2747TIP3    H2 8206   3.012   2.409   4.862 -0.9496 -2.1892 -2.8666
 2748TIP3   OH2 8207   2.904   0.388   3.313 -0.0541 -0.0113  0.0506
 2748TIP3    H1 8208   2.879   0.476   3.286 -0.0671 -0.3650 -1.1554
 2748TIP3    H2 8209   2.829   0.333   3.290  0.6107 -0.5943 -0.7620
 2749TIP3   OH2 8210   2.722   3.189   4.265 -0.4480 -0.4890 -0.3335
 2749TIP3    H1 8211   2.785   3.236   4.211  1.8272 -1.7259  1.0681
 2749TIP3    H2 8212   2.637   3.222   4.237  0.6680  0.0644 -3.5023
 2750TIP3   OH2 8213   2.247   1.729   0.961  0.1022  0.4042  0.1500
 2750TIP3    H1 8214   2.164   1.710   1.005 -0.9767  2.0016 -1.0900
 2750TIP3    H2 8215   2.275   1.645   0.924 -1.4778  0.0259 -0.2516
 2751TIP3   OH2 8216   5.634   1.186   4.036 -0.0835  0.2258  0.6925
 2751TIP3    H1 8217   5.552   1.139   4.041 -1.7261  2.9037  0.8767
 2751TIP3    H2 8218   5.667   1.187   4.126 -0.9897  0.9214  1.0388
 2752TIP3   OH2 8219   6.780   2.573   1.920 -0.0636 -0.2748 -0.0092
 2752TIP3    H1 8220   6.759   2.589   1.828 -1.4772 -0.2680  0.2883
 2752TIP3    H2 8221   6.872   2.548   1.920  0.6805  2.1792 -1.1377
 2753TIP3   OH2 8222   1.570   3.853   1.631 -0.1290  0.0451 -0.1996
 2753TIP3    H1 8223   1.582   3.900   1.548 -2.3843  3.8633  1.3760
 2753TIP3    H2 8224   1.649   3.874   1.682 -0.5327  1.1112  0.0112
 2754TIP3   OH2 8225   2.454   3.618   5.001  0.6159 -0.4605  0.8667
 2754TIP3    H1 8226   2.429   3.569   5.079  0.6963 -1.8787  0.0294
 2754TIP3    H2 8227   2.522   3.565   4.960  0.4958  0.2146 -0.2312
 2755TIP3   OH2 8228   1.220   3.130   3.889  0.1076  0.3098 -0.0148
 2755TIP3    H1 8229   1.124   3.126   3.886  0.1230 -0.4315  0.3540
 2755TIP3    H2 8230   1.244   3.074   3.962  0.8102  0.8363  0.1651
 2756TIP3   OH2 8231   5.134   0.872   5.883 -0.0988 -0.5530  0.3575
 2756TIP3    H1 8232   5.169   0.956   5.914  0.0515 -0.3071 -0.4734
 2756TIP3    H2 8233   5.212   0.820   5.864 -0.1113  0.2791 -2.2836
 2757TIP3   OH2 8234   4.201   4.538   1.768 -0.4806  0.0566 -0.0259
 2757TIP3    H1 8235   4.169   4.543   1.677  1.4193 -0.8262 -0.8024
 2757TIP3    H2 8236   4.230   4.627   1.788 -2.7340  0.7365  0.4896
 2758TIP3   OH2 8237   1.215   5.926   2.026  0.1851 -0.3877 -0.7876
 2758TIP3    H1 8238   1.265   5.852   2.061  0.3657 -0.0647 -0.3455
 2758TIP3    H2 8239   1.134   5.887   1.995  0.3843 -0.8085 -0.7935
 2759TIP3   OH2 8240   2.918   4.947   2.873 -0.4948 -0.0684 -0.0164
 2759TIP3    H1 8241   3.005   4.983   2.892  0.4214 -1.5289 -1.1209
 2759TIP3    H2 8242   2.936   4.875   2.812 -2.6042  0.3532 -1.2387
 2760TIP3   OH2 8243   1.967   5.671   0.053 -0.0349  0.8063  0.5912
 2760TIP3    H1 8244   1.985   5.696   0.144 -1.1239  1.2046  0.7027
 2760TIP3    H2 8245   1.876   5.694   0.039  0.1576  0.8598 -0.6558
 2761TIP3   OH2 8246   1.234   2.291   1.990  0.2709 -0.5396  0.1222
 2761TIP3    H1 8247   1.225   2.311   1.897  1.9759 -1.3157 -0.2398
 2761TIP3    H2 8248   1.217   2.374   2.034 -0.5013 -0.1535 -0.8622
 2762TIP3   OH2 8249   1.713   0.594   1.893  0.6578  0.6883  0.2585
 2762TIP3    H1 8250   1.681   0.682   1.912 -0.6666  0.1800  0.4571
 2762TIP3    H2 8251   1.714   0.589   1.797  0.4833  0.8377  0.2483
 2763TIP3   OH2 8252   1.083   4.681   3.949  0.2130  0.6364 -0.1798
 2763TIP3    H1 8253   1.010   4.731   3.987  1.1119  0.2919  2.1463
 2763TIP3    H2 8254   1.093   4.605   4.006  1.4735 -0.0989 -1.3121
 2764TIP3   OH2 8255   3.264   5.976   3.871  0.3040  0.1532  0.0311
 2764TIP3    H1 8256   3.340   5.940   3.824  0.1430 -1.7204  1.1177
 2764TIP3    H2 8257   3.300   6.012   3.951  0.0362 -1.2189  0.8018
 2765TIP3   OH2 8258   6.536   1.658   1.603 -0.2666 -0.2323  0.2485
 2765TIP3    H1 8259   6.499   1.572   1.621  0.4065 -0.3350  1.2023
 2765TIP3    H2 8260   6.631   1.644   1.605 -0.0864  0.8610  2.3325
 2766TIP3   OH2 8261   4.158   0.253   5.531 -0.1520  1.3083 -0.5729
 2766TIP3    H1 8262   4.131   0.326   5.475  1.7441  1.8344 -0.8792
 2766TIP3    H2 8263   4.215   0.294   5.596  2.1232 -0.0551 -1.6113
 2767TIP3   OH2 8264   0.822   3.264   3.344  0.1899  0.0298 -0.1402
 2767TIP3    H1 8265   0.728   3.259   3.363  0.6812 -0.3334  2.5226
 2767TIP3    H2 8266   0.857   3.179   3.371  1.8566  1.5270  2.9837
 2768TIP3   OH2 8267   5.210   4.264   5.477  0.4992  0.2254  0.0942
 2768TIP3    H1 8268   5.257   4.334   5.522 -0.2974  0.6418  0.3006
 2768TIP3    H2 8269   5.210   4.191   5.539  0.8765  0.2190  0.0884
 2769TIP3   OH2 8270   3.448   0.995   3.850 -0.7217  0.2087  0.2006
 2769TIP3    H1 8271   3.399   0.913   3.853 -0.5892  0.1456  0.8048
 2769TIP3    H2 8272   3.392   1.057   3.897 -0.2901  0.1710  0.7706
 2770TIP3   OH2 8273   0.609   1.153   5.705 -0.4496 -0.2819  0.1295
 2770TIP3    H1 8274   0.632   1.084   5.768 -0.3249 -0.9993 -0.6845
 2770TIP3    H2 8275   0.666   1.226   5.728 -1.7284  0.1693  2.0586
 2771TIP3   OH2 8276   5.560   3.395   4.694  0.0684 -0.1796 -0.3850
 2771TIP3    H1 8277   5.639   3.388   4.641  0.6295  2.7427 -0.1147
 2771TIP3    H2 8278   5.539   3.305   4.719  1.4176 -1.3658 -3.1270
 2772TIP3   OH2 8279   1.270   3.313   0.061 -0.4884  0.1920 -0.2036
 2772TIP3    H1 8280   1.362   3.337   0.056  0.3616 -2.7667 -0.2715
 2772TIP3    H2 8281   1.223   3.394   0.041  2.0455  1.8935  0.2919
 2773TIP3   OH2 8282   2.854   3.933   3.089 -0.0956 -0.2874 -0.0075
 2773TIP3    H1 8283   2.823   3.904   3.004  0.6695 -1.5923  0.1279
 2773TIP3    H2 8284   2.879   4.024   3.077 -0.9987 -0.1521 -0.8996
 2774TIP3   OH2 8285   2.480   5.484   3.468  0.4055  0.6834  0.4376
 2774TIP3    H1 8286   2.529   5.435   3.534  1.1030 -1.3866 -1.4777
 2774TIP3    H2 8287   2.545   5.539   3.424  1.1725 -1.7960 -1.8596
 2775TIP3   OH2 8288   3.998   3.378   3.870  0.4798  0.4817  0.0929
 2775TIP3    H1 8289   3.936   3.334   3.812  1.2180  0.0990 -0.4242
 2775TIP3    H2 8290   4.020   3.459   3.823 -0.7677  1.3801  0.9752
 2776TIP3   OH2 8291   4.999   0.447   5.313 -0.4678 -0.5271  0.2032
 2776TIP3    H1 8292   5.002   0.351   5.316  3.0582 -0.6324 -1.7058
 2776TIP3    H2 8293   5.066   0.475   5.376 -1.8247  0.7909  1.1351
 2777TIP3   OH2 8294   5.901   0.138   3.844 -0.2160 -0.3196 -0.7155
 2777TIP3    H1 8295   5.871   0.161   3.756 -0.9016  1.3029 -0.0910
 2777TIP3    H2 8296   5.996   0.143   3.840 -0.0845 -2.3542 -1.8769
 2778TIP3   OH2 8297   1.815   2.512   4.426  0.0020  0.9866 -0.3863
 2778TIP3    H1 8298   1.827   2.434   4.481 -3.7077  0.8109  0.4350
 2778TIP3    H2 8299   1.896   2.518   4.376  1.3810 -2.0287  1.1771
 2779TIP3   OH2 8300   6.182   0.986   1.024  0.1589 -0.3066 -0.3244
 2779TIP3    H1 8301   6.138   0.908   0.989  0.8399  0.1357 -2.3133
 2779TIP3    H2 8302   6.162   0.985   1.117 -1.3538 -1.8730 -0.6115
 2780TIP3   OH2 8303   1.880   2.224   4.944  0.4419 -0.3091 -0.7589
 2780TIP3    H1 8304   1.959   2.276   4.959  0.9001 -1.3467  0.5985
 2780TIP3    H2 8305   1.808   2.284   4.965  0.8250  0.6587 -2.0469
 2781TIP3   OH2 8306   6.359   5.489   1.817  0.7156 -0.2247  0.1836
 2781TIP3    H1 8307   6.371   5.402   1.857 -1.1201 -0.9909 -0.8069
 2781TIP3    H2 8308   6.437   5.501   1.763  0.0886 -2.2527 -1.3186
 2782TIP3   OH2 8309   6.604   0.434   1.662  0.2798  0.9255 -0.0083
 2782TIP3    H1 8310   6.658   0.376   1.716  0.4948  0.2571 -0.9339
 2782TIP3    H2 8311   6.514   0.404   1.679  0.2498  1.4155  0.7853
 2783TIP3   OH2 8312   6.529   5.604   4.503 -0.3256 -0.1790  0.2827
 2783TIP3    H1 8313   6.492   5.693   4.507 -1.8197 -0.7484 -0.1958
 2783TIP3    H2 8314   6.624   5.618   4.506 -0.5364  1.3910  0.9042
 2784TIP3   OH2 8315   1.151   6.437   1.925 -0.6318  0.1958 -0.6629
 2784TIP3    H1 8316   1.078   6.496   1.946 -0.5846  0.2092 -0.5371
 2784TIP3    H2 8317   1.113   6.349   1.931 -0.6757  0.2079 -0.7492
 2785TIP3   OH2 8318   5.140   5.693   1.375  0.1468 -0.1330  0.4939
 2785TIP3    H1 8319   5.224   5.687   1.420  0.8222 -1.0653 -0.8016
 2785TIP3    H2 8320   5.113   5.602   1.361 -0.8809  0.1527  0.5291
 2786TIP3   OH2 8321   4.303   2.767   4.970 -0.5381  0.2004 -0.3117
 2786TIP3    H1 8322   4.329   2.856   4.946  2.2606 -0.4178  0.1044
 2786TIP3    H2 8323   4.297   2.768   5.065  0.6282 -0.2665 -0.2086
 2787TIP3   OH2 8324   4.297   5.296   2.309  0.4665  0.2214 -0.1508
 2787TIP3    H1 8325   4.228   5.357   2.280 -0.1490 -0.5259 -0.3060
 2787TIP3    H2 8326   4.379   5.344   2.295 -0.0728  2.0233  2.1569
 2788TIP3   OH2 8327   6.317   5.360   4.140  0.7172 -0.0811 -0.4764
 2788TIP3    H1 8328   6.266   5.402   4.070  1.1573  1.7116  0.2383
 2788TIP3    H2 8329   6.314   5.422   4.213 -0.3939 -2.2315  1.4383
 2789TIP3   OH2 8330   4.862   0.988   4.889 -0.2649  0.2352  0.2220
 2789TIP3    H1 8331   4.851   1.082   4.902  0.3612  0.2601  0.6153
 2789TIP3    H2 8332   4.919   0.960   4.961  0.7519 -0.1784 -0.7106
 2790TIP3   OH2 8333   5.246   1.523   0.726  0.6290  0.2360  0.1018
 2790TIP3    H1 8334   5.336   1.549   0.707  0.2997  1.0339 -0.4353
 2790TIP3    H2 8335   5.242   1.516   0.821  0.9022  1.5734  0.2246
 2791TIP3   OH2 8336   0.933   2.334   5.714 -0.7756 -0.6058 -0.0466
 2791TIP3    H1 8337   0.942   2.265   5.780  0.2929 -0.7822 -0.3491
 2791TIP3    H2 8338   1.001   2.314   5.649 -1.4809 -0.1569 -0.9551
 2792TIP3   OH2 8339   0.089   2.904   3.330  0.3427  0.1396  0.0616
 2792TIP3    H1 8340   0.140   2.985   3.337  1.4198 -0.5863  0.8757
 2792TIP3    H2 8341   0.027   2.908   3.403  0.2771  0.2950 -0.0008
 2793TIP3   OH2 8342   4.074   2.814   0.327  0.6238  0.1291  0.4945
 2793TIP3    H1 8343   4.106   2.759   0.256 -1.7177 -1.3728  0.5154
 2793TIP3    H2 8344   4.047   2.753   0.396  1.7817  1.4924  2.2664
 2794TIP3   OH2 8345   6.561   1.778   3.768  0.2761 -0.1933 -0.2823
 2794TIP3    H1 8346   6.591   1.755   3.856  3.3191  1.1386 -0.8572
 2794TIP3    H2 8347   6.580   1.871   3.760 -0.1350 -0.2374 -2.2828
 2795TIP3   OH2 8348   2.547   1.977   5.794 -0.5880 -0.3322  0.2136
 2795TIP3    H1 8349   2.631   2.022   5.800 -0.9229  0.5470 -1.2173
 2795TIP3    H2 8350   2.570   1.888   5.768 -0.1124  0.0819 -0.8435
 2796TIP3   OH2 8351   6.735   0.900   0.965  0.1701 -0.3047  0.6401
 2796TIP3    H1 8352   6.746   0.980   0.914  1.0625 -0.5948  0.3637
 2796TIP3    H2 8353   6.717   0.931   1.053  0.1221  0.2037  0.4590
 2797TIP3   OH2 8354   4.243   0.342   5.209 -0.2234  0.0268  0.9503
 2797TIP3    H1 8355   4.216   0.261   5.166 -0.8485  0.2425  0.9345
 2797TIP3    H2 8356   4.212   0.332   5.299 -0.5977  0.3927  0.8632
 2798TIP3   OH2 8357   6.224   5.367   3.196  0.7721 -0.1379  0.0374
 2798TIP3    H1 8358   6.166   5.383   3.122  0.0187  0.5685  0.7615
 2798TIP3    H2 8359   6.222   5.272   3.207 -1.3760 -0.0550  0.8974
 2799TIP3   OH2 8360   3.133   4.364   2.260  0.1728 -0.0270 -0.4178
 2799TIP3    H1 8361   3.147   4.392   2.169  0.7789  1.9656  0.2556
 2799TIP3    H2 8362   3.216   4.325   2.286  1.4133  2.9432  0.4561
 2800TIP3   OH2 8363   3.157   0.045   1.893  0.0911 -0.3063  0.2491
 2800TIP3    H1 8364   3.189  -0.045   1.885 -0.2202 -0.2992 -1.3873
 2800TIP3    H2 8365   3.235   0.099   1.883  0.1992 -0.3718  0.7063
 2801TIP3   OH2 8366   0.424   0.595   2.488  0.4966 -0.1188 -1.1471
 2801TIP3    H1 8367   0.354   0.629   2.432  1.0384 -0.3805 -2.0036
 2801TIP3    H2 8368   0.459   0.673   2.532 -0.4553 -0.0131 -0.5479
 2802TIP3   OH2 8369   6.158   4.918   1.325 -0.1323  0.7161 -0.3668
 2802TIP3    H1 8370   6.096   4.991   1.333 -0.1700  0.6798 -0.3289
 2802TIP3    H2 8371   6.243   4.960   1.313 -0.2579  0.7677 -1.1361
 2803TIP3   OH2 8372   5.421   2.517   4.302  0.1227  0.3153  0.4851
 2803TIP3    H1 8373   5.396   2.503   4.211  1.2669 -3.1943  0.5363
 2803TIP3    H2 8374   5.339   2.522   4.350 -0.5274 -1.1400 -0.4155
 2804TIP3   OH2 8375   6.856   5.279   3.554 -0.3227 -0.3399  0.3444
 2804TIP3    H1 8376   6.951   5.266   3.555 -0.4594 -1.4239  1.6975
 2804TIP3    H2 8377   6.831   5.271   3.462  0.8460 -0.4329  0.0248
 2805TIP3   OH2 8378   5.699   1.341   5.830  0.1022 -0.4199 -0.0040
 2805TIP3    H1 8379   5.733   1.422   5.793  0.3037  0.8823  2.7527
 2805TIP3    H2 8380   5.766   1.312   5.892 -1.0596 -1.2871  0.9132
 2806TIP3   OH2 8381   6.437   3.420   1.172 -0.3266 -0.2041  0.4038
 2806TIP3    H1 8382   6.499   3.455   1.236 -0.9750 -0.2245  1.0677
 2806TIP3    H2 8383   6.412   3.495   1.119 -0.0898 -0.0989  0.4394
 2807TIP3   OH2 8384   5.474   3.713   2.237  0.1358 -0.0002 -0.1345
 2807TIP3    H1 8385   5.441   3.737   2.150 -2.3500  0.2873  0.8194
 2807TIP3    H2 8386   5.458   3.619   2.244  1.4266 -0.2676 -0.3783
 2808TIP3   OH2 8387   5.526   2.295   1.788 -0.1231  0.2000 -0.3411
 2808TIP3    H1 8388   5.434   2.314   1.772  0.4268  0.7840 -3.3097
 2808TIP3    H2 8389   5.562   2.378   1.820 -0.4126  0.2603 -0.1661
 2809TIP3   OH2 8390   4.907   0.330   3.569  0.1184 -0.1032 -0.0360
 2809TIP3    H1 8391   4.829   0.362   3.613  0.7761 -0.3147  1.3392
 2809TIP3    H2 8392   4.889   0.237   3.552  0.2130 -0.2572  0.6583
 2810TIP3   OH2 8393   6.572   5.472   5.745  0.6904  0.2410  0.2829
 2810TIP3    H1 8394   6.586   5.394   5.798  0.2981  2.9563  4.9397
 2810TIP3    H2 8395   6.659   5.511   5.735  0.7734 -0.2542 -1.3428
 2811TIP3   OH2 8396   4.979   2.077   4.543 -0.3663  0.5550  0.4850
 2811TIP3    H1 8397   4.908   2.013   4.544 -0.8462  0.9979 -1.3068
 2811TIP3    H2 8398   5.047   2.036   4.489  0.1588  0.7280  1.0070
 2812TIP3   OH2 8399   4.097   2.814   4.820 -0.3586  0.2934 -0.3814
 2812TIP3    H1 8400   4.175   2.796   4.873  0.4419  2.1499 -0.8633
 2812TIP3    H2 8401   4.026   2.818   4.884  0.2850  0.6820  0.3376
 2813TIP3   OH2 8402   2.331   5.928   1.113 -0.0395  0.0122 -0.0934
 2813TIP3    H1 8403   2.283   5.893   1.039  0.4321  0.1977 -0.4930
 2813TIP3    H2 8404   2.416   5.885   1.110 -0.0419 -0.0391  0.3878
 2814TIP3   OH2 8405   1.131   2.087   1.264  0.3449 -0.4956  0.0753
 2814TIP3    H1 8406   1.152   2.058   1.353 -1.5885  1.5885  1.3352
 2814TIP3    H2 8407   1.198   2.151   1.243  0.2464 -0.2576  0.4671
 2815TIP3   OH2 8408   3.531   4.392   5.346  0.0521  0.3947  0.3907
 2815TIP3    H1 8409   3.613   4.411   5.300 -0.6223  1.9439 -0.2637
 2815TIP3    H2 8410   3.493   4.318   5.299  0.9825 -0.2372  0.6066
 2816TIP3   OH2 8411   1.580   4.888   1.087  0.4966  0.0772 -0.0785
 2816TIP3    H1 8412   1.513   4.930   1.141 -0.8020 -3.0125  0.9527
 2816TIP3    H2 8413   1.539   4.879   1.001  0.6722  0.6500 -0.2241
 2817TIP3   OH2 8414   6.514   5.370   1.480 -0.3314 -0.1502  0.2494
 2817TIP3    H1 8415   6.533   5.359   1.573  1.2703  2.0006  0.2512
 2817TIP3    H2 8416   6.591   5.333   1.436 -0.6615 -0.3181 -0.1957
 2818TIP3   OH2 8417   1.926   6.018   2.790  0.4478 -0.1789  0.6006
 2818TIP3    H1 8418   1.997   6.077   2.814  0.5963 -0.7952  1.7531
 2818TIP3    H2 8419   1.854   6.043   2.848  0.1308 -0.3569  0.2841
 2819TIP3   OH2 8420   2.527   2.034   0.057 -0.2799 -0.4574  0.2315
 2819TIP3    H1 8421   2.568   2.043  -0.029 -1.3485 -0.6555 -0.3169
 2819TIP3    H2 8422   2.574   2.097   0.112  1.7751 -1.7289  0.0546
 2820TIP3   OH2 8423   0.382   0.282   2.307 -0.0675  0.0909  0.1254
 2820TIP3    H1 8424   0.336   0.360   2.275  1.7921  1.0233 -0.4091
 2820TIP3    H2 8425   0.347   0.268   2.395 -2.2918 -0.0499 -0.7005
 2821TIP3   OH2 8426   4.026   2.136   0.555  0.2655 -0.5709  0.0338
 2821TIP3    H1 8427   4.061   2.165   0.470  1.1986 -1.3515  0.1334
 2821TIP3    H2 8428   4.083   2.064   0.581 -0.4076 -0.7650  1.0305
 2822TIP3   OH2 8429   4.839   5.185   4.103  0.0078 -0.3474 -0.3099
 2822TIP3    H1 8430   4.898   5.189   4.178  1.0137 -0.9474 -1.0514
 2822TIP3    H2 8431   4.753   5.165   4.141  0.2360  0.6403  0.7913
 2823TIP3   OH2 8432   4.775   6.113   1.036  0.5834  0.1019  0.6724
 2823TIP3    H1 8433   4.751   6.177   1.103 -0.4407  0.3232  0.1124
 2823TIP3    H2 8434   4.825   6.047   1.084  3.7636  2.4466  0.8773
 2824TIP3   OH2 8435   1.755   2.859   5.130 -0.1055  0.5020 -0.4335
 2824TIP3    H1 8436   1.734   2.798   5.059 -0.3693 -0.1591  0.2115
 2824TIP3    H2 8437   1.689   2.928   5.122  1.4067  1.8615 -2.4697
 2825TIP3   OH2 8438   5.957   4.043   4.650  0.1394  0.1184  0.3017
 2825TIP3    H1 8439   5.992   3.960   4.618  0.1925 -0.1372  1.0180
 2825TIP3    H2 8440   5.921   4.023   4.736  0.1037  0.8272  0.4587
 2826TIP3   OH2 8441   5.986   3.990   5.418 -0.3192 -0.5206 -0.5430
 2826TIP3    H1 8442   5.928   4.056   5.457 -1.6961 -2.3763  0.7511
 2826TIP3    H2 8443   5.928   3.938   5.362  1.2033  0.7186 -3.4606
 2827TIP3   OH2 8444   5.739   0.681   4.412 -0.0814 -0.2204  0.3519
 2827TIP3    H1 8445   5.740   0.730   4.330 -1.0680 -1.7374 -0.6009
 2827TIP3    H2 8446   5.820   0.707   4.456 -0.1481  1.5780 -0.4994
 2828TIP3   OH2 8447   3.222   5.262   3.054 -0.6670  0.4800  0.2749
 2828TIP3    H1 8448   3.187   5.285   3.140  1.2372  2.7506  0.5427
 2828TIP3    H2 8449   3.305   5.310   3.047 -0.2764 -0.3697 -2.4514
 2829TIP3   OH2 8450   3.768   6.078   5.667 -0.2388 -0.4655 -0.2790
 2829TIP3    H1 8451   3.771   6.042   5.578  0.1149 -1.5827  0.1667
 2829TIP3    H2 8452   3.675   6.092   5.684 -0.2928 -0.0307 -0.9074
 2830TIP3   OH2 8453   3.644   0.888   1.597 -0.2948 -0.2214 -0.0479
 2830TIP3    H1 8454   3.571   0.839   1.635 -1.2721 -0.0421 -1.6141
 2830TIP3    H2 8455   3.625   0.891   1.503  0.5747  1.7622 -0.2067
 2831TIP3   OH2 8456   4.590   1.787   3.921 -0.0688 -0.0401 -0.2215
 2831TIP3    H1 8457   4.685   1.788   3.924 -0.0728  1.2840  0.1164
 2831TIP3    H2 8458   4.568   1.805   3.829  0.0318  1.1182 -0.0427
 2832TIP3   OH2 8459   2.356   3.203   4.448 -0.3278  0.1742  0.0716
 2832TIP3    H1 8460   2.304   3.283   4.439 -1.6152 -0.7141 -0.9377
 2832TIP3    H2 8461   2.325   3.163   4.529 -0.4292  0.1956  0.0441
 2833TIP3   OH2 8462   0.287   5.456   0.422 -0.2152 -0.2296  0.0442
 2833TIP3    H1 8463   0.377   5.448   0.390 -0.3782  0.8066 -0.7240
 2833TIP3    H2 8464   0.233   5.443   0.344 -0.6136  2.4577 -0.2548
 2834TIP3   OH2 8465   2.501   3.379   3.544  0.0487  0.8029 -0.5755
 2834TIP3    H1 8466   2.437   3.334   3.488 -0.5275  0.6892  0.1614
 2834TIP3    H2 8467   2.450   3.411   3.618  0.6135  1.9202 -0.6480
 2835TIP3   OH2 8468   5.098   2.045   2.428  0.1176  0.4531  0.7286
 2835TIP3    H1 8469   5.008   2.076   2.424  0.1079  0.3318 -0.0706
 2835TIP3    H2 8470   5.145   2.098   2.364  0.2516 -0.6508 -0.1236
 2836TIP3   OH2 8471   3.550   4.377   2.362  0.6315  0.5329  0.1859
 2836TIP3    H1 8472   3.475   4.331   2.324  1.1038  1.0309 -1.4042
 2836TIP3    H2 8473   3.511   4.443   2.419 -0.1268  0.4031 -0.1684
 2837TIP3   OH2 8474   6.615   3.350   1.370 -0.2901 -0.2846  0.6166
 2837TIP3    H1 8475   6.570   3.379   1.449  0.8321 -0.6246  1.3990
 2837TIP3    H2 8476   6.686   3.295   1.401  0.8655  0.4716 -0.5464
 2838TIP3   OH2 8477   1.001   2.452   0.997  0.4626  0.4552 -0.3055
 2838TIP3    H1 8478   0.970   2.529   1.045  0.6365  0.3765 -0.0663
 2838TIP3    H2 8479   0.947   2.380   1.030 -0.6140  0.6892 -1.4766
 2839TIP3   OH2 8480   2.163   1.100   2.831  0.2173  0.3106 -0.0818
 2839TIP3    H1 8481   2.129   1.063   2.912  2.2105 -0.4448  0.4840
 2839TIP3    H2 8482   2.228   1.036   2.801 -0.5136  0.5488 -2.3211
 2840TIP3   OH2 8483   4.212   0.035   5.382 -0.6952  0.0567  0.1937
 2840TIP3    H1 8484   4.167   0.101   5.434 -1.6799 -0.6430  0.2605
 2840TIP3    H2 8485   4.305   0.045   5.404 -0.9498  0.7234  0.9808
 2841TIP3   OH2 8486   2.651   4.167   3.252  0.1443  0.3734 -0.6013
 2841TIP3    H1 8487   2.591   4.105   3.211  0.5348 -0.8010  0.5267
 2841TIP3    H2 8488   2.666   4.234   3.185 -3.1584  1.2884 -0.6353
 2842TIP3   OH2 8489   1.657   0.616   3.815  0.0976  0.1231 -0.2094
 2842TIP3    H1 8490   1.591   0.574   3.870  1.2904 -0.4076  0.8832
 2842TIP3    H2 8491   1.685   0.693   3.865 -0.2170  0.7747 -1.0076
 2843TIP3   OH2 8492   1.764   4.594   3.091 -0.2515 -0.5274  0.0088
 2843TIP3    H1 8493   1.775   4.501   3.071 -0.9674 -0.7562  0.6305
 2843TIP3    H2 8494   1.699   4.625   3.028 -0.8350 -0.7158  0.5116
 2844TIP3   OH2 8495   2.030   1.016   1.817 -0.2533 -0.5986  0.2136
 2844TIP3    H1 8496   1.998   1.086   1.874  1.1974  1.5546 -1.4623
 2844TIP3    H2 8497   1.990   0.937   1.852 -1.7916  1.0078  2.3611
 2845TIP3   OH2 8498   4.669   2.982   4.989 -0.4745 -0.3064 -0.6491
 2845TIP3    H1 8499   4.723   3.033   4.928  1.9138 -0.3269  1.2735
 2845TIP3    H2 8500   4.713   2.897   4.995 -0.0607 -0.0133  1.6731
 2846TIP3   OH2 8501   1.663   1.376   1.822  0.1106  0.2121  0.0276
 2846TIP3    H1 8502   1.619   1.399   1.740 -0.6254 -0.3993  0.2451
 2846TIP3    H2 8503   1.611   1.305   1.859 -1.1326  2.1946  2.3544
 2847TIP3   OH2 8504   1.132   0.904   4.472  0.2737  0.0561 -0.3506
 2847TIP3    H1 8505   1.095   0.822   4.440 -0.4776 -0.5455  1.8988
 2847TIP3    H2 8506   1.111   0.968   4.403  0.0291 -1.4166 -1.7023
 2848TIP3   OH2 8507   1.398   1.803   3.081 -0.0708  0.0609  0.1905
 2848TIP3    H1 8508   1.334   1.785   3.012  0.0052  0.0345  0.1271
 2848TIP3    H2 8509   1.440   1.718   3.097  0.0053  0.0961  0.1754
 2849TIP3   OH2 8510   4.854   6.271   0.491  0.1768  0.0602 -0.3006
 2849TIP3    H1 8511   4.883   6.332   0.559 -2.2695 -0.9682  1.8787
 2849TIP3    H2 8512   4.918   6.201   0.493  0.0594 -0.0432  1.1659
 2850TIP3   OH2 8513   3.411   6.022   3.008  0.3242  0.2467 -0.2097
 2850TIP3    H1 8514   3.345   6.041   3.074  0.7150  1.0565 -0.0425
 2850TIP3    H2 8515   3.367   6.039   2.924  0.1631  0.2789 -0.1185
 2851TIP3   OH2 8516   6.919   5.070   4.573  0.3037 -0.2482 -0.5288
 2851TIP3    H1 8517   6.848   5.084   4.510  0.6295  0.1542 -0.8148
 2851TIP3    H2 8518   6.979   5.010   4.529 -1.0756 -2.6879  0.6861
 2852TIP3   OH2 8519   2.766   1.720   2.385 -0.2744  0.0727 -0.0957
 2852TIP3    H1 8520   2.846   1.731   2.437  1.3913 -1.9914 -1.9944
 2852TIP3    H2 8521   2.769   1.792   2.322  0.8124 -0.6701 -0.9357
 2853TIP3   OH2 8522   2.523   6.498   2.518  0.1990 -0.9464 -0.2134
 2853TIP3    H1 8523   2.515   6.466   2.608 -1.6712 -0.7444 -0.2707
 2853TIP3    H2 8524   2.433   6.501   2.485  0.5430  1.7023 -1.1333
 2854TIP3   OH2 8525   1.238   5.637   1.425 -0.2966  0.2671  0.0424
 2854TIP3    H1 8526   1.242   5.676   1.338 -0.1509  0.0668 -0.0424
 2854TIP3    H2 8527   1.166   5.682   1.469 -0.1038  0.6609 -0.0369
 2855TIP3   OH2 8528   5.759   5.639   4.515 -0.2430  0.4198  0.0814
 2855TIP3    H1 8529   5.665   5.629   4.499 -0.0322  0.5145 -1.2866
 2855TIP3    H2 8530   5.770   5.614   4.607 -1.5112 -0.1918  0.0863
 2856TIP3   OH2 8531   4.776   0.712   0.946 -0.0806  0.3110 -0.0463
 2856TIP3    H1 8532   4.802   0.652   1.016 -0.0383 -0.7535 -0.9558
 2856TIP3    H2 8533   4.828   0.791   0.961  0.8137 -0.3539  0.4124
 2857TIP3   OH2 8534   6.894   1.578   2.414  0.5342  0.1950  0.1087
 2857TIP3    H1 8535   6.881   1.668   2.383  0.1438  0.8538  2.0972
 2857TIP3    H2 8536   6.981   1.579   2.455  0.2933 -0.1950  0.6339
 2858TIP3   OH2 8537   2.969   2.279   1.504 -0.5904 -0.1823  0.1073
 2858TIP3    H1 8538   2.908   2.205   1.503 -0.6259 -0.1608 -1.0954
 2858TIP3    H2 8539   3.049   2.244   1.464 -0.0057 -0.0461  1.1332
 2859TIP3   OH2 8540   1.591   2.056   0.662  0.7125  0.8044  0.1522
 2859TIP3    H1 8541   1.625   1.989   0.603 -0.4562 -0.4456  0.8121
 2859TIP3    H2 8542   1.631   2.036   0.747  0.6640  1.1737  0.2628
 2860TIP3   OH2 8543   4.340   0.516   3.119 -0.3230  0.4572 -0.1350
 2860TIP3    H1 8544   4.245   0.517   3.111 -0.2751 -0.5949 -0.9394
 2860TIP3    H2 8545   4.370   0.455   3.052  0.8959  0.3903  0.4402
 2861TIP3   OH2 8546   4.541   3.150   3.697 -0.0021  0.3831  0.1832
 2861TIP3    H1 8547   4.556   3.135   3.603  1.3833  2.6184 -0.0178
 2861TIP3    H2 8548   4.584   3.233   3.715 -2.7819  1.5527  2.1870
 2862TIP3   OH2 8549   2.487   5.114   3.014  0.5190  0.5014  0.1294
 2862TIP3    H1 8550   2.582   5.104   3.002  0.4785  2.5142 -3.3835
 2862TIP3    H2 8551   2.475   5.209   3.024 -1.0821  0.1762  1.5496
 2863TIP3   OH2 8552   5.550   0.202   3.909  0.4347  0.4744  0.1656
 2863TIP3    H1 8553   5.549   0.230   4.000 -0.2601  1.7950 -0.2334
 2863TIP3    H2 8554   5.509   0.274   3.861 -1.1104 -1.0693 -0.9433
 2864TIP3   OH2 8555   4.657   3.043   1.068  0.5299 -0.3471  0.2927
 2864TIP3    H1 8556   4.680   3.011   1.155  0.8528 -1.2807 -0.1273
 2864TIP3    H2 8557   4.639   2.964   1.017 -0.5645  0.2234 -0.2456
 2865TIP3   OH2 8558   4.398   0.283   1.391  0.5213 -0.0898  0.1377
 2865TIP3    H1 8559   4.310   0.273   1.356 -0.2366 -0.7535  2.1157
 2865TIP3    H2 8560   4.389   0.346   1.463  1.8574  0.5741 -0.2250
 2866TIP3   OH2 8561   2.563   5.086   2.026 -0.4708  0.4535 -0.7003
 2866TIP3    H1 8562   2.655   5.109   2.011 -0.5887 -0.6916 -3.9467
 2866TIP3    H2 8563   2.514   5.159   1.987 -0.9125  0.1068 -0.7914
 2867TIP3   OH2 8564   4.852   3.520   5.682  0.5179 -0.3331 -0.5955
 2867TIP3    H1 8565   4.921   3.541   5.618  1.6344 -0.8173  0.4212
 2867TIP3    H2 8566   4.882   3.560   5.764  1.5226 -3.6871  0.8242
 2868TIP3   OH2 8567   5.374   5.495   5.207  0.3986  0.1595  0.0633
 2868TIP3    H1 8568   5.421   5.443   5.272 -0.2519 -2.0905 -1.1530
 2868TIP3    H2 8569   5.296   5.526   5.252  1.7355  1.8345  1.3780
 2869TIP3   OH2 8570   1.474   3.516   3.584 -0.5229  0.0222  0.0018
 2869TIP3    H1 8571   1.528   3.459   3.639 -1.0249 -0.2763  0.1968
 2869TIP3    H2 8572   1.402   3.542   3.641  0.4939  2.1113  0.4022
 2870TIP3   OH2 8573   2.413   3.759   3.722 -0.3845  0.2371 -0.2826
 2870TIP3    H1 8574   2.464   3.838   3.738  1.6956 -1.3037  1.3538
 2870TIP3    H2 8575   2.438   3.700   3.793 -3.9813 -0.9465  0.2230
 2871TIP3   OH2 8576   1.694   1.476   0.658  0.0339 -0.0281 -0.2544
 2871TIP3    H1 8577   1.689   1.396   0.710  0.0070 -0.7749 -1.3589
 2871TIP3    H2 8578   1.707   1.445   0.568 -0.7912  1.1863 -0.8186
 2872TIP3   OH2 8579   7.060   0.172   3.308  0.1676 -0.2747 -0.2429
 2872TIP3    H1 8580   7.140   0.191   3.358 -0.2395  1.3139 -0.1435
 2872TIP3    H2 8581   7.048   0.078   3.317  1.4590 -0.3826  0.6119
 2873TIP3   OH2 8582   0.380   4.255   0.368  0.0415 -0.2095  1.0619
 2873TIP3    H1 8583   0.374   4.198   0.444 -1.4527 -1.0688  0.3469
 2873TIP3    H2 8584   0.299   4.306   0.370  0.8051  1.0259  1.0133
 2874TIP3   OH2 8585   1.357   1.918   2.726 -0.3029  0.0800 -0.1260
 2874TIP3    H1 8586   1.323   1.839   2.766  0.0822  0.4830  1.0452
 2874TIP3    H2 8587   1.452   1.907   2.728 -0.1235  1.4629  2.0543
 2875TIP3   OH2 8588   2.814   3.561   0.766 -0.1361  0.1707  0.0754
 2875TIP3    H1 8589   2.782   3.605   0.844 -0.8960  2.0037 -1.1853
 2875TIP3    H2 8590   2.893   3.609   0.743  1.2023 -1.5965  0.7524
 2876TIP3   OH2 8591   4.828   6.269   2.365 -0.5521  0.2637 -0.0954
 2876TIP3    H1 8592   4.793   6.213   2.434 -0.5326  0.2827 -0.0699
 2876TIP3    H2 8593   4.794   6.232   2.284  1.1643 -1.0531 -0.2612
 2877TIP3   OH2 8594   3.556   5.894   1.101 -0.3251 -0.1088 -0.3608
 2877TIP3    H1 8595   3.569   5.881   1.007 -0.7295  0.2889 -0.4786
 2877TIP3    H2 8596   3.636   5.861   1.142  0.5959  1.2918 -0.9661
 2878TIP3   OH2 8597   0.551   0.264   0.194  0.5218 -0.1213  0.3202
 2878TIP3    H1 8598   0.505   0.246   0.112 -0.1320 -0.0392  0.6619
 2878TIP3    H2 8599   0.560   0.359   0.197  3.2283 -0.2255 -1.0791
 2879TIP3   OH2 8600   1.886   4.057   4.973 -0.1909  1.2112 -0.0897
 2879TIP3    H1 8601   1.914   3.972   4.941 -0.2945  0.9908  0.3986
 2879TIP3    H2 8602   1.935   4.070   5.054 -2.1859  0.3631  1.3368
 2880TIP3   OH2 8603   6.845   3.572   2.723  0.4415 -0.7598 -0.3724
 2880TIP3    H1 8604   6.799   3.522   2.656  1.4167 -3.2554  0.7100
 2880TIP3    H2 8605   6.776   3.620   2.769 -0.3017  0.6314 -2.7386
 2881TIP3   OH2 8606   2.697   4.726   0.102 -0.4449 -0.1118  0.3115
 2881TIP3    H1 8607   2.782   4.684   0.115  0.3857  0.6484 -2.1555
 2881TIP3    H2 8608   2.716   4.802   0.047 -2.7933 -0.2313 -0.7966
 2882TIP3   OH2 8609   0.667   4.337   4.856 -0.0149  0.0307 -0.1290
 2882TIP3    H1 8610   0.594   4.364   4.911  1.6896 -0.8227  2.8133
 2882TIP3    H2 8611   0.709   4.266   4.906  3.1427  0.8841 -1.3048
 2883TIP3   OH2 8612   1.184   4.954   0.852  0.1253 -0.3020  1.2292
 2883TIP3    H1 8613   1.148   5.042   0.836  1.2782  0.1056  0.7309
 2883TIP3    H2 8614   1.135   4.898   0.792  1.3544  0.5054 -0.6337
 2884TIP3   OH2 8615   6.821   6.748   5.277 -0.1554  0.4908 -0.2459
 2884TIP3    H1 8616   6.907   6.710   5.294 -0.2456  0.1340 -0.5574
 2884TIP3    H2 8617   6.805   6.727   5.185  0.1831  2.0639 -0.6938
 2885TIP3   OH2 8618   7.068   0.475   3.241 -0.0864  0.3277 -0.6610
 2885TIP3    H1 8619   7.146   0.419   3.238 -0.3717 -0.1266  0.2033
 2885TIP3    H2 8620   6.995   0.415   3.253 -0.7225  0.6479 -2.6308
 2886TIP3   OH2 8621   4.640   5.709   3.780 -0.0495  0.3842  0.2911
 2886TIP3    H1 8622   4.644   5.636   3.843 -1.1513 -0.5496 -0.6854
 2886TIP3    H2 8623   4.553   5.703   3.742  0.6795  0.7363 -1.5430
 2887TIP3   OH2 8624   5.891   1.459   2.235 -0.1630 -0.0733  0.4315
 2887TIP3    H1 8625   5.951   1.528   2.261 -1.0277  1.0998 -0.5393
 2887TIP3    H2 8626   5.945   1.380   2.227  1.0903  0.7928  0.2415
 2888TIP3   OH2 8627   2.141   6.159   2.828 -0.2319 -0.3353  0.5354
 2888TIP3    H1 8628   2.155   6.216   2.904  0.0170 -0.7976  0.8354
 2888TIP3    H2 8629   2.216   6.100   2.827  0.5185  0.5930 -0.9224
 2889TIP3   OH2 8630   1.610   2.069   5.098 -0.0568 -0.3773  0.0503
 2889TIP3    H1 8631   1.660   2.011   5.041  0.5913  0.7159 -0.5214
 2889TIP3    H2 8632   1.675   2.104   5.159 -0.5645 -0.7538  0.8308
 2890TIP3   OH2 8633   1.675   1.604   5.167 -0.0978 -0.0451 -0.5832
 2890TIP3    H1 8634   1.627   1.668   5.219  0.4731  0.8878 -1.1782
 2890TIP3    H2 8635   1.687   1.529   5.227 -1.2853  0.1490 -0.0767
 2891TIP3   OH2 8636   2.888   6.682   1.504  0.5487 -0.6085 -0.1865
 2891TIP3    H1 8637   2.920   6.650   1.588 -0.8742  0.5900  0.8855
 2891TIP3    H2 8638   2.819   6.744   1.527  2.0419  1.9818 -2.1498
 2892TIP3   OH2 8639   2.157   3.981   3.691  0.1540  0.0223  0.4802
 2892TIP3    H1 8640   2.064   3.999   3.706  0.2829  0.7830  0.4129
 2892TIP3    H2 8641   2.171   4.006   3.600  0.5963  0.6574  0.7199
 2893TIP3   OH2 8642   0.540   3.289   3.384 -0.1376  0.1073  0.0942
 2893TIP3    H1 8643   0.506   3.341   3.457 -2.0588  0.0708 -0.6966
 2893TIP3    H2 8644   0.488   3.318   3.308  1.9640  0.3333 -1.3383
 2894TIP3   OH2 8645   0.678   6.741   4.581 -0.1565  0.1672 -0.2861
 2894TIP3    H1 8646   0.624   6.721   4.658  0.8016  0.8777  0.5902
 2894TIP3    H2 8647   0.619   6.786   4.521 -0.5509  0.9040  0.6432
 2895TIP3   OH2 8648   1.914   6.200   4.451 -0.5815  0.2159 -0.6371
 2895TIP3    H1 8649   1.912   6.275   4.512 -0.7494  0.0687 -0.4611
 2895TIP3    H2 8650   1.851   6.138   4.487 -0.6093  0.0851 -0.9099
 2896TIP3   OH2 8651   2.977   4.627   1.535 -0.3175 -0.4796  0.6987
 2896TIP3    H1 8652   3.035   4.700   1.557  0.7356 -1.0596 -0.0187
 2896TIP3    H2 8653   3.037   4.555   1.515 -1.3084 -1.2443  0.4056
 2897TIP3   OH2 8654   0.606   2.930   2.499  0.3438  1.0460  0.3976
 2897TIP3    H1 8655   0.583   2.842   2.528  0.3747  1.0045  0.2973
 2897TIP3    H2 8656   0.641   2.918   2.411  0.2904  1.1665  0.3599
 2898TIP3   OH2 8657   0.866   5.516   5.842  0.2336 -0.4233 -0.6459
 2898TIP3    H1 8658   0.944   5.469   5.871  0.0398 -0.7927 -0.7256
 2898TIP3    H2 8659   0.793   5.468   5.880  0.0754  0.4358  0.1797
 2899TIP3   OH2 8660   7.120   1.971   3.188 -0.0226 -0.0067 -0.1006
 2899TIP3    H1 8661   7.152   1.938   3.272 -1.2432 -0.1475  0.3367
 2899TIP3    H2 8662   7.140   1.902   3.125  2.4896  0.8137 -0.3270
 2900TIP3   OH2 8663   2.807   5.180   4.787  0.1537  0.1459 -0.5446
 2900TIP3    H1 8664   2.717   5.163   4.815  1.1204 -0.4472  2.5228
 2900TIP3    H2 8665   2.861   5.147   4.858  2.9276 -1.0047 -2.9939
 2901TIP3   OH2 8666   0.065   2.313   1.084 -0.4305  0.6724  0.1745
 2901TIP3    H1 8667   0.091   2.399   1.050 -0.3042  1.3487  1.9005
 2901TIP3    H2 8668  -0.020   2.328   1.124 -0.4180 -0.0251  0.4673
 2902TIP3   OH2 8669   2.605   2.006   5.080 -0.2850 -0.1407  0.3772
 2902TIP3    H1 8670   2.692   1.977   5.106  0.1391  1.6091  1.0514
 2902TIP3    H2 8671   2.620   2.082   5.024 -1.3700 -0.5448 -0.5143
 2903TIP3   OH2 8672   5.563   4.217   3.120 -0.5231 -0.1143 -0.0697
 2903TIP3    H1 8673   5.653   4.249   3.132 -0.5087 -0.4950  0.9403
 2903TIP3    H2 8674   5.567   4.125   3.146 -0.5660 -1.0255 -2.9276
 2904TIP3   OH2 8675   6.321   5.093   2.491  0.0549  0.3053 -0.5241
 2904TIP3    H1 8676   6.334   5.015   2.437 -0.0723  1.5340 -2.4231
 2904TIP3    H2 8677   6.233   5.123   2.469 -0.5887  0.0443  1.5136
 2905TIP3   OH2 8678   0.215   6.003   3.336 -0.6331  0.5202  0.1794
 2905TIP3    H1 8679   0.213   6.097   3.355  1.0400  0.9291 -1.3313
 2905TIP3    H2 8680   0.286   5.969   3.391 -1.1225  0.1621  0.5960
 2906TIP3   OH2 8681   2.756   6.607   2.768 -0.2690  0.1649  0.9779
 2906TIP3    H1 8682   2.751   6.608   2.864 -0.8605 -1.7941  1.0216
 2906TIP3    H2 8683   2.850   6.615   2.749 -0.2184  1.4168  1.6728
 2907TIP3   OH2 8684   2.936   0.126   3.560 -0.4950 -0.3382 -0.0209
 2907TIP3    H1 8685   2.998   0.194   3.533 -1.0394 -0.8490 -2.9076
 2907TIP3    H2 8686   2.941   0.125   3.655  2.0201  1.3948 -0.0472
 2908TIP3   OH2 8687   1.120   2.942   1.521  0.7227 -0.4485  0.4549
 2908TIP3    H1 8688   1.119   3.018   1.463  0.3728  0.7168  1.9032
 2908TIP3    H2 8689   1.029   2.910   1.519  0.4131  0.3337  1.2469
 2909TIP3   OH2 8690   0.014   6.449   0.336 -0.0346  0.2221 -0.2326
 2909TIP3    H1 8691   0.097   6.455   0.384  0.3337  0.2716 -0.8729
 2909TIP3    H2 8692  -0.044   6.401   0.395  0.3862  0.3546  0.2999
 2910TIP3   OH2 8693   4.263   6.531   4.081  0.4843  0.1424 -0.2438
 2910TIP3    H1 8694   4.275   6.487   3.997  2.1923  0.5020 -0.2159
 2910TIP3    H2 8695   4.225   6.464   4.137 -2.0797  0.2902 -1.6393
 2911TIP3   OH2 8696   1.362   4.422   1.028  0.1595 -0.2338 -0.1542
 2911TIP3    H1 8697   1.335   4.459   0.944 -0.3377 -0.5019 -0.1139
 2911TIP3    H2 8698   1.452   4.394   1.014 -0.1012 -0.7986 -0.7735
 2912TIP3   OH2 8699   4.195   2.600   2.269  0.1899  0.3471 -0.0023
 2912TIP3    H1 8700   4.287   2.611   2.244  0.4086 -1.1112  0.0919
 2912TIP3    H2 8701   4.192   2.514   2.311 -1.1635  0.5183  0.2843
 2913TIP3   OH2 8702   5.138   0.805   1.840 -0.0900  0.2791 -0.0371
 2913TIP3    H1 8703   5.162   0.744   1.909  0.6378 -0.0548 -0.5636
 2913TIP3    H2 8704   5.059   0.849   1.872 -1.6211 -2.1046 -0.3260
 2914TIP3   OH2 8705   3.265   2.273   4.207  0.2402  0.0694  0.2111
 2914TIP3    H1 8706   3.248   2.203   4.143  1.3553  1.1002 -1.2701
 2914TIP3    H2 8707   3.232   2.238   4.290  1.9131 -2.7654 -0.1870
 2915TIP3   OH2 8708   1.192   2.955   1.960 -0.2278  0.1529 -0.5012
 2915TIP3    H1 8709   1.268   2.919   2.004 -0.4139  0.5686  0.1809
 2915TIP3    H2 8710   1.134   2.880   1.946 -0.4027  0.0837  0.4696
 2916TIP3   OH2 8711   5.176   2.899   2.011  0.2425 -0.4294 -0.1489
 2916TIP3    H1 8712   5.159   2.819   2.061 -0.2984 -0.0687  0.2586
 2916TIP3    H2 8713   5.252   2.939   2.053 -1.5766  1.0748  1.9217
 2917TIP3   OH2 8714   1.349   6.655   5.661 -0.7457  0.0468  0.0633
 2917TIP3    H1 8715   1.444   6.653   5.674 -0.8752 -0.8661  1.1212
 2917TIP3    H2 8716   1.331   6.579   5.606 -1.1206 -1.6278  2.3400
 2918TIP3   OH2 8717   0.682   3.515   0.301 -0.2010  0.3798  0.1981
 2918TIP3    H1 8718   0.680   3.602   0.262 -0.6200  1.5068  2.5509
 2918TIP3    H2 8719   0.625   3.463   0.245 -0.9386  1.9505 -0.5904
 2919TIP3   OH2 8720   1.672   0.082   1.740 -0.4812  0.4908  0.0532
 2919TIP3    H1 8721   1.729   0.145   1.784 -1.3646  0.5110  1.2153
 2919TIP3    H2 8722   1.659   0.119   1.652  2.0860 -0.0283 -0.6333
 2920TIP3   OH2 8723   0.271   4.760   0.550  0.4256  0.6164 -0.3664
 2920TIP3    H1 8724   0.332   4.804   0.608  0.8282  1.2057 -1.2161
 2920TIP3    H2 8725   0.319   4.684   0.517 -1.3296 -2.7388  3.7592
 2921TIP3   OH2 8726   0.752   4.863   2.114 -0.1039  0.2566 -0.0789
 2921TIP3    H1 8727   0.828   4.876   2.172 -0.2958  0.2295  0.1835
 2921TIP3    H2 8728   0.743   4.946   2.067  0.4986  0.0296 -0.6065
 2922TIP3   OH2 8729   1.711   1.071   1.019  0.3207  0.2163  0.7270
 2922TIP3    H1 8730   1.769   1.016   1.071 -0.1799 -1.3013 -0.2309
 2922TIP3    H2 8731   1.657   1.009   0.970 -1.1023  1.5812  0.4857
 2923TIP3   OH2 8732   7.217   1.605   4.562 -0.0944  0.3903  0.3465
 2923TIP3    H1 8733   7.168   1.681   4.530 -2.6650 -1.5784 -0.7257
 2923TIP3    H2 8734   7.186   1.592   4.651 -1.0481 -0.4383 -0.0914
 2924TIP3   OH2 8735   2.602   4.532   2.591  0.1395 -0.3848 -0.4060
 2924TIP3    H1 8736   2.513   4.505   2.570  0.2907 -1.4300  0.2630
 2924TIP3    H2 8737   2.605   4.625   2.568 -1.1502 -0.3188 -0.3372
 2925TIP3   OH2 8738   5.443   3.570   0.297  0.0126  0.3074  0.3035
 2925TIP3    H1 8739   5.438   3.607   0.385 -2.0420 -1.9965  1.2889
 2925TIP3    H2 8740   5.465   3.477   0.312 -0.5895 -0.1729 -1.5859
 2926TIP3   OH2 8741   4.188   4.880   5.321  0.0787  0.1429  0.3481
 2926TIP3    H1 8742   4.124   4.878   5.392  0.2498 -0.9921  0.4834
 2926TIP3    H2 8743   4.251   4.948   5.347 -0.6972  0.8001  0.5331
 2927TIP3   OH2 8744   6.504   1.701   3.106  0.0062  0.1441 -0.3484
 2927TIP3    H1 8745   6.528   1.616   3.143  2.1603  1.5042  1.6462
 2927TIP3    H2 8746   6.530   1.696   3.014  2.0154 -0.7071  0.2166
 2928TIP3   OH2 8747   4.462   0.711   4.803 -0.4507 -0.1474 -0.2942
 2928TIP3    H1 8748   4.516   0.788   4.817 -2.7379  1.4220  0.5060
 2928TIP3    H2 8749   4.466   0.663   4.886 -1.8688  1.0636  0.5080
 2929TIP3   OH2 8750   0.778   0.346   4.926  0.2115 -0.4385 -0.3000
 2929TIP3    H1 8751   0.691   0.385   4.936  1.4876  2.3505  1.0813
 2929TIP3    H2 8752   0.792   0.298   5.007  0.8895  1.3598  0.7270
 2930TIP3   OH2 8753   6.686   6.154   2.991  0.2042 -0.1331  0.2543
 2930TIP3    H1 8754   6.775   6.122   3.004 -0.2073 -2.7519 -2.2984
 2930TIP3    H2 8755   6.692   6.248   3.005  2.8894 -0.4779  2.1719
 2931TIP3   OH2 8756   5.157   0.119   2.899 -0.0843 -0.1068 -0.4646
 2931TIP3    H1 8757   5.178   0.066   2.822 -0.0607  0.5912 -0.9449
 2931TIP3    H2 8758   5.200   0.203   2.883 -0.2213  0.0995  0.2323
 2932TIP3   OH2 8759   4.276   4.835   1.150 -0.3850  0.0090  0.1687
 2932TIP3    H1 8760   4.185   4.806   1.140 -0.2419 -0.8874  1.2055
 2932TIP3    H2 8761   4.322   4.795   1.077 -0.8161  0.4760 -0.3693
 2933TIP3   OH2 8762   0.861   3.940   3.567 -0.8137 -0.4202  0.7561
 2933TIP3    H1 8763   0.786   3.893   3.604  0.4706 -1.3652  2.2774
 2933TIP3    H2 8764   0.932   3.876   3.566 -0.3345  0.0646 -1.8913
 2934TIP3   OH2 8765   4.066   5.568   4.196  0.4477  0.2285  0.9005
 2934TIP3    H1 8766   4.138   5.505   4.193 -0.2600 -0.5805 -0.8407
 2934TIP3    H2 8767   4.078   5.621   4.117  0.0059  1.1196  1.4155
 2935TIP3   OH2 8768   3.186   6.505   3.490 -0.7909  0.3320  0.0763
 2935TIP3    H1 8769   3.130   6.582   3.505  0.6791  1.4274  0.0988
 2935TIP3    H2 8770   3.143   6.459   3.418 -2.3593  0.4867  0.8576
 2936TIP3   OH2 8771   7.192   5.717   2.669 -0.1200 -0.1151  0.2179
 2936TIP3    H1 8772   7.235   5.803   2.662 -1.3144  0.3847 -2.3749
 2936TIP3    H2 8773   7.241   5.661   2.609  0.3659 -1.1780  1.5542
 2937TIP3   OH2 8774   3.601   2.100   1.494  0.3668  0.1411  0.1290
 2937TIP3    H1 8775   3.516   2.105   1.537 -0.7341 -1.4039 -1.6763
 2937TIP3    H2 8776   3.617   2.188   1.461 -1.3080  0.1432 -0.7858
 2938TIP3   OH2 8777   0.474   2.244   1.430 -0.2487 -0.3960 -0.1403
 2938TIP3    H1 8778   0.442   2.201   1.350 -1.1247 -1.5400  0.7708
 2938TIP3    H2 8779   0.415   2.212   1.499  1.6818 -1.0409  1.3175
 2939TIP3   OH2 8780   0.865   0.810   3.586  0.7616 -0.0306 -0.1947
 2939TIP3    H1 8781   0.941   0.762   3.617 -0.8105 -2.1529  0.6121
 2939TIP3    H2 8782   0.872   0.895   3.630  3.0918  0.2037 -0.8796
 2940TIP3   OH2 8783   4.298   4.566   5.490  0.2140 -0.2412  0.3356
 2940TIP3    H1 8784   4.343   4.642   5.526 -0.1712 -0.3338  1.0165
 2940TIP3    H2 8785   4.251   4.601   5.414  1.0037 -0.0432 -0.0789
 2941TIP3   OH2 8786   3.289   6.551   3.751  0.5475  0.4728  0.0067
 2941TIP3    H1 8787   3.238   6.564   3.671  0.0121 -1.6887 -0.0724
 2941TIP3    H2 8788   3.275   6.630   3.802 -2.4689  0.2354 -0.2742
 2942TIP3   OH2 8789   0.813   2.638   4.271 -0.1753  0.2805  0.1496
 2942TIP3    H1 8790   0.860   2.721   4.281  0.9148 -0.0794 -1.5581
 2942TIP3    H2 8791   0.864   2.575   4.322  0.7643  0.0721 -0.9977
 2943TIP3   OH2 8792   2.704   5.300   2.854 -0.0949  0.2261 -0.0439
 2943TIP3    H1 8793   2.795   5.273   2.857  0.2371  1.0714 -1.2470
 2943TIP3    H2 8794   2.675   5.301   2.945  1.0550 -0.1888  0.3383
 2944TIP3   OH2 8795   6.608   5.396   4.196 -0.1027 -0.0311 -0.6491
 2944TIP3    H1 8796   6.531   5.342   4.212 -0.7569  0.9633 -0.3612
 2944TIP3    H2 8797   6.577   5.465   4.137 -0.5655  2.8139  2.6271
 2945TIP3   OH2 8798   4.425   1.212   4.406  0.0271 -0.0516 -0.2288
 2945TIP3    H1 8799   4.335   1.231   4.432  0.4729  1.4073  0.3181
 2945TIP3    H2 8800   4.436   1.258   4.323 -0.4637 -2.2789 -1.6389
 2946TIP3   OH2 8801   1.550   6.706   3.775 -0.4630 -0.2344 -0.5932
 2946TIP3    H1 8802   1.516   6.787   3.812 -0.7018 -0.2083 -0.8661
 2946TIP3    H2 8803   1.540   6.641   3.845  2.5716  0.6164  0.7909
 2947TIP3   OH2 8804   0.416   2.624   2.101  0.0556 -0.2399 -1.1758
 2947TIP3    H1 8805   0.490   2.564   2.115  0.6414  0.7250  0.0946
 2947TIP3    H2 8806   0.447   2.684   2.034  0.4252  0.1231 -0.6919
 2948TIP3   OH2 8807   4.135   2.379   1.356 -0.2247  0.2651 -0.1139
 2948TIP3    H1 8808   4.177   2.464   1.343 -0.7606  0.6921  0.8299
 2948TIP3    H2 8809   4.169   2.348   1.440 -1.9840  0.7774  0.8448
 2949TIP3   OH2 8810   5.649   2.565   1.606  0.1295 -0.4521 -0.0851
 2949TIP3    H1 8811   5.710   2.621   1.557 -1.3745  0.7424 -0.6607
 2949TIP3    H2 8812   5.642   2.607   1.692 -0.8811  0.2026 -0.4661
 2950TIP3   OH2 8813   6.405   3.527   4.770 -0.0839 -0.9160 -0.8368
 2950TIP3    H1 8814   6.330   3.534   4.711 -1.0494  1.6819  0.5193
 2950TIP3    H2 8815   6.370   3.490   4.851 -0.5073  2.0648  0.4886
 2951TIP3   OH2 8816   0.274   3.438   1.298 -0.2209  0.0562 -0.4899
 2951TIP3    H1 8817   0.324   3.494   1.238 -2.4369  3.1139  0.2747
 2951TIP3    H2 8818   0.332   3.426   1.373  1.0654 -0.4738 -1.5111
 2952TIP3   OH2 8819   5.848   5.608   2.064 -0.5011  0.1284 -0.6149
 2952TIP3    H1 8820   5.822   5.667   1.993  0.5848  0.7138 -0.5495
 2952TIP3    H2 8821   5.922   5.559   2.029 -0.8471 -0.5850 -0.3642
 2953TIP3   OH2 8822   4.264   3.385   0.068  0.0788  0.0501  0.2447
 2953TIP3    H1 8823   4.220   3.330   0.003  0.9268  1.7217 -1.8746
 2953TIP3    H2 8824   4.199   3.451   0.092  0.5918  1.0271 -0.9828
 2954TIP3   OH2 8825   3.145   4.069   5.628  0.1642 -0.4801  0.1706
 2954TIP3    H1 8826   3.120   3.977   5.621 -2.1333 -0.0693  1.8960
 2954TIP3    H2 8827   3.231   4.068   5.672  0.8482 -1.7842 -1.1118
 2955TIP3   OH2 8828   1.467   3.339   0.300 -0.0560  0.3237  0.7617
 2955TIP3    H1 8829   1.545   3.386   0.327 -0.9167  1.8089  0.7753
 2955TIP3    H2 8830   1.489   3.301   0.215  0.5632  1.0125  0.6126
 2956TIP3   OH2 8831   6.678   2.271   2.370  0.1619  0.0019 -0.0586
 2956TIP3    H1 8832   6.752   2.286   2.430 -0.9413  1.6764  0.9655
 2956TIP3    H2 8833   6.696   2.327   2.295  0.7244 -0.8635 -0.5978
 2957TIP3   OH2 8834   2.909   1.025   3.832 -0.2600 -0.0376 -0.0447
 2957TIP3    H1 8835   2.968   0.967   3.880 -1.3190 -1.1243 -0.0090
 2957TIP3    H2 8836   2.855   0.966   3.779 -0.5896  1.0015 -0.8969
 2958TIP3   OH2 8837   3.195   4.239   0.605 -0.0605 -0.1814 -0.0912
 2958TIP3    H1 8838   3.152   4.207   0.685 -0.5468  1.1188  0.1847
 2958TIP3    H2 8839   3.137   4.210   0.534  0.8165 -2.1066 -0.0949
 2959TIP3   OH2 8840   3.802   1.311   0.787 -0.2656 -0.4362 -0.3109
 2959TIP3    H1 8841   3.834   1.356   0.709 -0.5352  1.2231  0.4927
 2959TIP3    H2 8842   3.709   1.333   0.791 -0.4748 -1.3380 -0.0653
 2960TIP3   OH2 8843   4.387   2.391   2.815  0.4033  0.0766  0.5713
 2960TIP3    H1 8844   4.454   2.367   2.751  0.1048 -0.7772  0.5644
 2960TIP3    H2 8845   4.421   2.469   2.857  1.5750 -0.5353  0.7956
 2961TIP3   OH2 8846   2.948   5.904   4.320  0.4033  0.3610  0.3731
 2961TIP3    H1 8847   2.923   5.927   4.409 -0.5116  3.5622 -0.5859
 2961TIP3    H2 8848   2.875   5.934   4.265  0.4342 -2.4761 -1.4466
 2962TIP3   OH2 8849   1.215   3.633   5.306  0.6508  0.0768 -0.3446
 2962TIP3    H1 8850   1.295   3.581   5.300  0.9567  0.6586 -2.1350
 2962TIP3    H2 8851   1.193   3.653   5.215 -1.3184  0.2821  0.1138
 2963TIP3   OH2 8852   3.852   0.026   0.707 -0.5405 -1.1067 -0.1078
 2963TIP3    H1 8853   3.903   0.037   0.627 -1.6102 -0.0884 -0.6874
 2963TIP3    H2 8854   3.811   0.112   0.721 -0.2247 -1.2143  1.6403
 2964TIP3   OH2 8855   6.042   4.496   3.629  0.5721  0.3602 -0.0360
 2964TIP3    H1 8856   6.092   4.492   3.547 -0.6458 -0.5656 -0.7745
 2964TIP3    H2 8857   6.006   4.407   3.639  0.6772  0.4736  1.4967
 2965TIP3   OH2 8858   4.255   2.963   2.048 -0.5190 -0.0583  0.2512
 2965TIP3    H1 8859   4.257   2.875   2.010  0.6493 -1.1343  2.5698
 2965TIP3    H2 8860   4.225   2.950   2.138 -1.3846  2.0910  0.3400
 2966TIP3   OH2 8861   3.148   3.025   4.289  0.5161 -0.1219 -0.0668
 2966TIP3    H1 8862   3.129   3.105   4.339  0.7092 -0.5347  0.6929
 2966TIP3    H2 8863   3.063   2.995   4.259  0.3132 -0.2431  0.6135
 2967TIP3   OH2 8864   6.293   4.056   3.077  0.1614 -0.0157 -0.1791
 2967TIP3    H1 8865   6.242   4.049   2.996  0.5507 -2.3955 -0.2999
 2967TIP3    H2 8866   6.227   4.070   3.145 -0.6577 -2.0972 -0.4559
 2968TIP3   OH2 8867   4.814   6.598   1.079  0.0439  0.6631 -0.3054
 2968TIP3    H1 8868   4.841   6.593   1.170  0.4696 -1.7965 -0.4917
 2968TIP3    H2 8869   4.739   6.538   1.073 -0.4046  1.2930 -1.4527
 2969TIP3   OH2 8870   5.615   0.055   0.304 -0.6487  0.0274 -0.0998
 2969TIP3    H1 8871   5.569   0.127   0.348  0.7678 -0.2918  2.0496
 2969TIP3    H2 8872   5.660   0.008   0.374  0.8080 -1.2452 -1.7754
 2970TIP3   OH2 8873   2.461   4.045   0.715  0.3962  0.6012 -0.0028
 2970TIP3    H1 8874   2.474   4.006   0.801 -1.2390 -0.4017 -0.1871
 2970TIP3    H2 8875   2.378   4.092   0.722 -1.1150 -1.6348 -1.7326
 2971TIP3   OH2 8876   6.101   5.112   5.285  0.1065 -0.1562  0.0270
 2971TIP3    H1 8877   6.175   5.052   5.272 -0.4904 -0.9279  0.1354
 2971TIP3    H2 8878   6.042   5.093   5.213  0.3350  0.9735 -0.4788
 2972TIP3   OH2 8879   1.756   3.014   1.109 -0.0511  0.5257 -0.1503
 2972TIP3    H1 8880   1.671   3.051   1.085 -0.5381 -1.6424 -2.1782
 2972TIP3    H2 8881   1.820   3.068   1.063 -0.4759  1.0049 -0.1804
 2973TIP3   OH2 8882   0.622   6.687   3.346 -0.3324  0.7239 -0.2460
 2973TIP3    H1 8883   0.664   6.756   3.296  2.5940 -0.9341 -0.3099
 2973TIP3    H2 8884   0.612   6.723   3.434  3.3766  0.6048  0.3777
 2974TIP3   OH2 8885   2.221   4.771   1.858  0.8101  0.8200 -0.0345
 2974TIP3    H1 8886   2.174   4.843   1.817 -1.8616 -1.2059 -0.8172
 2974TIP3    H2 8887   2.254   4.719   1.784  0.2841 -0.2036  0.4268
 2975TIP3   OH2 8888   1.490   3.012   4.562  0.1249 -0.8283  0.4566
 2975TIP3    H1 8889   1.432   3.034   4.635 -1.8176 -0.1931 -1.1865
 2975TIP3    H2 8890   1.433   2.970   4.498  1.1032  1.2754 -1.9474
 2976TIP3   OH2 8891   3.790   0.808   5.214  0.4807  0.1400  0.5472
 2976TIP3    H1 8892   3.865   0.863   5.235 -1.0548  2.0715  1.3311
 2976TIP3    H2 8893   3.736   0.810   5.293 -0.1777 -1.6419  0.1999
 2977TIP3   OH2 8894   3.583   1.070   5.226  0.2951  0.3440  0.3095
 2977TIP3    H1 8895   3.677   1.089   5.217  0.3430 -0.1149 -0.1807
 2977TIP3    H2 8896   3.548   1.146   5.273  0.6675  1.1679 -0.7183
 2978TIP3   OH2 8897   0.630   1.569   1.516  0.1582 -0.3389  0.5285
 2978TIP3    H1 8898   0.704   1.584   1.458  0.5224  1.1571  1.3020
 2978TIP3    H2 8899   0.661   1.506   1.580  0.4400 -0.4443  0.2860
 2979TIP3   OH2 8900   0.933   1.991   3.347 -0.5083 -0.9612  0.5368
 2979TIP3    H1 8901   0.983   1.913   3.373 -1.6388 -1.7977  0.2856
 2979TIP3    H2 8902   0.907   2.030   3.430 -0.7058 -1.3729  0.6753
 2980TIP3   OH2 8903   4.872   3.879   3.894 -0.2680  0.6605 -0.3746
 2980TIP3    H1 8904   4.934   3.947   3.920  0.2800 -0.3220  0.9868
 2980TIP3    H2 8905   4.793   3.927   3.868  0.7437  1.8885 -1.3324
 2981TIP3   OH2 8906   0.497   3.517   1.127  0.0514 -0.2984  0.0650
 2981TIP3    H1 8907   0.462   3.486   1.044  1.2509 -0.6876 -0.3011
 2981TIP3    H2 8908   0.591   3.519   1.115  0.1227  2.3169  0.4845
 2982TIP3   OH2 8909   6.258   0.668   1.804 -0.2836  0.3117 -0.0274
 2982TIP3    H1 8910   6.293   0.650   1.717  0.0452 -0.2141  0.2052
 2982TIP3    H2 8911   6.171   0.628   1.804 -0.7183  1.2436 -0.4649
 2983TIP3   OH2 8912   1.841   5.494   4.993  0.0908  0.0507 -0.4672
 2983TIP3    H1 8913   1.749   5.500   5.018 -0.0767 -0.0744 -1.0527
 2983TIP3    H2 8914   1.844   5.523   4.902  0.6690  0.2915 -0.3788
 2984TIP3   OH2 8915   5.439   0.839   3.447 -0.2852  0.4157 -0.1953
 2984TIP3    H1 8916   5.435   0.935   3.451 -0.1620  0.3929  0.7127
 2984TIP3    H2 8917   5.470   0.813   3.534 -0.4655 -0.4589 -0.3859
 2985TIP3   OH2 8918   3.025   2.061   3.800  0.1811  0.2222 -0.3766
 2985TIP3    H1 8919   2.948   2.088   3.750 -0.1191  0.4821  0.2110
 2985TIP3    H2 8920   3.098   2.108   3.760  0.2717 -1.0555 -1.8062
 2986TIP3   OH2 8921   4.203   4.733   5.081 -0.0558  0.4036  0.5778
 2986TIP3    H1 8922   4.198   4.782   5.163 -1.9138  1.4646 -0.1159
 2986TIP3    H2 8923   4.134   4.769   5.026  0.5201 -0.9182 -1.1386
 2987TIP3   OH2 8924   3.149   4.937   1.053  0.1308  0.0656  0.8562
 2987TIP3    H1 8925   3.069   4.894   1.025  0.1096 -0.0273  1.0536
 2987TIP3    H2 8926   3.126   5.030   1.060  0.1222  0.0823  0.6245
 2988TIP3   OH2 8927   6.815   5.750   5.847 -0.2761 -0.3487  0.4542
 2988TIP3    H1 8928   6.802   5.756   5.942 -1.1666  2.2467  0.2505
 2988TIP3    H2 8929   6.891   5.806   5.831 -1.0615  0.4727 -0.4997
 2989TIP3   OH2 8930   6.855   3.302   5.423  0.3632 -0.1735  0.5227
 2989TIP3    H1 8931   6.851   3.390   5.460 -0.5290  0.0467 -0.0626
 2989TIP3    H2 8932   6.925   3.307   5.358 -0.0443  0.2647  0.1082
 2990TIP3   OH2 8933   1.735   3.989   1.169 -0.4001 -0.7690  0.3977
 2990TIP3    H1 8934   1.816   4.037   1.153 -0.1777 -1.2439  0.0927
 2990TIP3    H2 8935   1.690   3.990   1.084 -0.5185 -0.8797  0.4584
 2991TIP3   OH2 8936   5.005   3.782   1.631 -0.1796 -0.1802  0.4100
 2991TIP3    H1 8937   4.949   3.758   1.557 -0.1827  1.4476 -0.1623
 2991TIP3    H2 8938   5.037   3.699   1.665 -1.4732 -1.0506 -0.4112
 2992TIP3   OH2 8939   0.391   3.697   0.625  0.4570 -0.3016  0.5195
 2992TIP3    H1 8940   0.319   3.718   0.566  0.3909  1.9359  1.3009
 2992TIP3    H2 8941   0.357   3.717   0.712  1.1864 -1.7184  1.1605
 2993TIP3   OH2 8942   3.026   3.147   5.247 -0.0901  0.0143 -0.2120
 2993TIP3    H1 8943   2.992   3.057   5.246 -0.6883  0.1882  1.2292
 2993TIP3    H2 8944   3.121   3.137   5.249 -0.1557 -0.6058  0.0865
 2994TIP3   OH2 8945   2.652   2.205   0.225 -0.3265 -0.5140  0.1862
 2994TIP3    H1 8946   2.699   2.276   0.271  0.0805 -0.5572 -0.1615
 2994TIP3    H2 8947   2.573   2.191   0.278 -0.0014 -0.3668  0.7203
 2995TIP3   OH2 8948   1.857   6.629   3.913  0.3938 -0.2353  0.5936
 2995TIP3    H1 8949   1.900   6.577   3.982 -0.6651 -0.2546  1.2553
 2995TIP3    H2 8950   1.812   6.698   3.961  0.2138  0.1656 -0.1474
 2996TIP3   OH2 8951   0.650   6.146   2.605  0.3001  0.0654 -0.1136
 2996TIP3    H1 8952   0.717   6.164   2.540 -0.4510 -3.0835 -1.9686
 2996TIP3    H2 8953   0.682   6.068   2.651 -1.6324 -1.0336 -0.5233
 2997TIP3   OH2 8954   0.148   3.812   2.240  0.1531 -0.0376 -0.0320
 2997TIP3    H1 8955   0.172   3.851   2.156  0.7180  0.8269  0.5181
 2997TIP3    H2 8956   0.073   3.863   2.271  1.4097  1.2182  1.0820
 2998TIP3   OH2 8957   6.724   6.741   3.339  0.4741  0.2964  0.0690
 2998TIP3    H1 8958   6.705   6.648   3.350 -0.3030  0.4483  0.0357
 2998TIP3    H2 8959   6.815   6.743   3.307  0.6955 -0.4129  0.6321
 2999TIP3   OH2 8960   4.908   0.934   0.289 -0.1506  0.4067  0.3311
 2999TIP3    H1 8961   4.987   0.955   0.339 -0.1917 -1.2275  1.1232
 2999TIP3    H2 8962   4.903   1.003   0.223  2.1104  0.3947  0.0675
 3000TIP3   OH2 8963   4.889   5.760   3.504 -0.5294  0.2685  0.0644
 3000TIP3    H1 8964   4.822   5.812   3.549  2.1449  2.4524  1.8869
 3000TIP3    H2 8965   4.893   5.799   3.416 -1.8828 -0.1885 -0.2270
 3001TIP3   OH2 8966   2.170   1.306   1.957 -0.3459 -0.1795  0.3899
 3001TIP3    H1 8967   2.181   1.375   2.023  0.8859  2.3894 -2.2401
 3001TIP3    H2 8968   2.076   1.305   1.939 -0.3922  0.7442  0.5420
 3002TIP3   OH2 8969   3.667   4.246   3.053 -0.1314  0.0363  0.0388
 3002TIP3    H1 8970   3.733   4.297   3.007  2.0216 -1.2102  1.5911
 3002TIP3    H2 8971   3.717   4.187   3.109 -2.5831 -0.1976  2.1424
 3003TIP3   OH2 8972   7.152   0.457   2.164 -0.2745  0.0702  0.2570
 3003TIP3    H1 8973   7.167   0.509   2.243 -1.4783 -0.6968  1.0018
 3003TIP3    H2 8974   7.216   0.492   2.101  1.1909  0.2161  1.7607
 3004TIP3   OH2 8975   6.602   2.870   1.912 -0.2580 -0.0722  0.7033
 3004TIP3    H1 8976   6.651   2.952   1.918 -0.3638  0.0132  0.4708
 3004TIP3    H2 8977   6.659   2.804   1.950  1.5662 -0.6429 -2.5996
 3005TIP3   OH2 8978   4.060   4.156   4.866  0.2762 -0.5391 -0.2570
 3005TIP3    H1 8979   4.137   4.113   4.903  1.0978 -0.5487 -1.8726
 3005TIP3    H2 8980   3.998   4.085   4.849  0.3415 -0.6731  0.0709
 3006TIP3   OH2 8981   4.228   6.755   3.582  0.1923 -0.1412 -0.4502
 3006TIP3    H1 8982   4.174   6.748   3.504 -0.2619 -0.5435 -0.1114
 3006TIP3    H2 8983   4.168   6.784   3.651  0.7918  1.2138 -0.4588
 3007TIP3   OH2 8984   0.529   4.084   3.994  0.3651 -0.1196  0.3722
 3007TIP3    H1 8985   0.517   4.091   4.089  0.0746  0.4719  0.3022
 3007TIP3    H2 8986   0.568   3.998   3.980 -2.2786 -1.4803  0.7777
 3008TIP3   OH2 8987   3.693   1.744   5.527 -0.2099  0.4247  0.2314
 3008TIP3    H1 8988   3.716   1.821   5.475 -3.3144 -0.0708 -2.1832
 3008TIP3    H2 8989   3.644   1.779   5.601 -2.6494  0.9061 -1.4686
 3009TIP3   OH2 8990   6.356   0.299   1.331  0.4353 -0.3673 -0.6042
 3009TIP3    H1 8991   6.325   0.236   1.265  0.9128  0.8295 -2.0145
 3009TIP3    H2 8992   6.295   0.372   1.325  1.1252  0.2254 -0.4726
 3010TIP3   OH2 8993   3.592   0.507   2.911  0.2936 -0.6198 -0.0196
 3010TIP3    H1 8994   3.647   0.520   2.989 -0.9858 -2.5300  1.2903
 3010TIP3    H2 8995   3.650   0.464   2.848  1.1343  0.2493  0.1297
 3011TIP3   OH2 8996   6.632   6.370   5.071 -0.0574  0.1043  0.3283
 3011TIP3    H1 8997   6.597   6.357   5.159 -2.1994 -3.4164 -0.8151
 3011TIP3    H2 8998   6.709   6.313   5.068  1.3430  1.9302  0.5247
 3012TIP3   OH2 8999   1.258   1.696   2.846  0.5135  0.0847 -0.7197
 3012TIP3    H1 9000   1.175   1.653   2.868  0.7164  0.4475  0.8612
 3012TIP3    H2 9001   1.318   1.624   2.828 -0.0473 -0.1852 -1.6034
 3013TIP3   OH2 9002   2.304   3.497   2.330  0.2227 -0.0768  0.1496
 3013TIP3    H1 9003   2.310   3.536   2.243 -0.5796  0.3551  0.2837
 3013TIP3    H2 9004   2.356   3.416   2.323 -0.6363 -0.5597 -1.0161
 3014TIP3   OH2 9005   4.726   3.386   2.023 -0.2053 -0.2352  0.0831
 3014TIP3    H1 9006   4.812   3.343   2.031  0.5842  1.0413 -1.0561
 3014TIP3    H2 9007   4.709   3.422   2.110  1.2160  0.8871 -0.0551
 3015TIP3   OH2 9008   5.122   1.641   5.595 -0.4059 -0.2226  0.4553
 3015TIP3    H1 9009   5.209   1.629   5.555 -0.0158 -1.6907  1.6482
 3015TIP3    H2 9010   5.080   1.707   5.540  1.4902  0.6011 -0.1128
 3016TIP3   OH2 9011   4.589   0.967   5.353 -0.2106 -0.1854 -0.5142
 3016TIP3    H1 9012   4.666   0.982   5.298  0.1925 -0.6540 -0.0866
 3016TIP3    H2 9013   4.623   0.963   5.442 -0.8029  0.1250 -0.2706
 3017TIP3   OH2 9014   1.854   5.904   5.568 -0.0122  0.4101 -0.3870
 3017TIP3    H1 9015   1.857   5.972   5.636 -2.2096 -0.3317  0.5278
 3017TIP3    H2 9016   1.945   5.878   5.558  0.8328  2.9588 -0.2645
 3018TIP3   OH2 9017   2.476   3.296   4.227  0.3199  0.1061 -0.2412
 3018TIP3    H1 9018   2.453   3.385   4.254  0.4297 -0.2196  0.9673
 3018TIP3    H2 9019   2.438   3.240   4.295  1.2840 -0.6969 -0.3513
 3019TIP3   OH2 9020   2.187   3.377   1.157  0.1300 -0.1619 -0.4731
 3019TIP3    H1 9021   2.161   3.429   1.233  0.4843 -0.6466 -0.0059
 3019TIP3    H2 9022   2.243   3.435   1.106  0.7704 -0.1723  0.1954
 3020TIP3   OH2 9023   4.048   4.997   4.409 -0.0653 -0.3552  0.0301
 3020TIP3    H1 9024   4.041   5.089   4.386  0.3541 -0.2244  0.3989
 3020TIP3    H2 9025   3.959   4.963   4.402  0.0007 -0.2703 -1.4998
 3021TIP3   OH2 9026   6.160   2.939   2.776 -0.1058  0.1354  0.1188
 3021TIP3    H1 9027   6.116   2.974   2.699 -0.1201 -1.5566 -0.6796
 3021TIP3    H2 9028   6.107   2.969   2.850 -0.8125  0.7274 -0.6123
 3022TIP3   OH2 9029   3.530   1.111   0.315 -0.1384 -0.1443  0.4330
 3022TIP3    H1 9030   3.482   1.191   0.293 -2.0591 -1.1931  0.5620
 3022TIP3    H2 9031   3.522   1.104   0.410 -1.0350 -1.0856  0.3035
 3023TIP3   OH2 9032   1.602   5.985   3.535 -0.1146  0.3153 -0.5504
 3023TIP3    H1 9033   1.568   6.074   3.549  1.2803  0.8213 -0.1919
 3023TIP3    H2 9034   1.626   5.955   3.622 -0.7195 -0.4876 -0.6538
 3024TIP3   OH2 9035   5.705   6.372   3.016  0.1995 -0.0770 -0.0950
 3024TIP3    H1 9036   5.798   6.384   3.037  0.6917 -1.2599 -1.4473
 3024TIP3    H2 9037   5.671   6.461   3.010  0.9721  0.3552  1.5013
 3025TIP3   OH2 9038   1.511   6.016   1.871 -0.2164  0.1091  0.0637
 3025TIP3    H1 9039   1.577   6.063   1.820 -0.4082 -1.4562 -1.7280
 3025TIP3    H2 9040   1.458   6.085   1.911  1.4939  1.3858  0.2317
 3026TIP3   OH2 9041   3.860   1.527   1.921 -0.6639 -0.2692 -0.6640
 3026TIP3    H1 9042   3.873   1.455   1.860  1.0859 -0.3908 -0.2128
 3026TIP3    H2 9043   3.941   1.577   1.917 -1.1714  0.6890  0.3083
 3027TIP3   OH2 9044   0.915   4.052   1.002  0.4130  0.4279 -0.3352
 3027TIP3    H1 9045   0.974   3.985   1.038  0.6153 -0.1666 -1.6993
 3027TIP3    H2 9046   0.964   4.091   0.930 -1.4524 -1.3530 -2.7422
 3028TIP3   OH2 9047   6.038   1.309   4.872  0.0044 -0.8106 -0.2836
 3028TIP3    H1 9048   6.090   1.279   4.797 -0.2983 -1.0249 -0.4100
 3028TIP3    H2 9049   5.949   1.318   4.838  0.3740  1.9621 -0.7198
 3029TIP3   OH2 9050   1.464   2.334   3.439 -0.3160 -0.2556 -0.4627
 3029TIP3    H1 9051   1.471   2.239   3.430 -1.1441 -1.2070  5.3366
 3029TIP3    H2 9052   1.545   2.360   3.482 -1.2982  1.0843  0.6737
 3030TIP3   OH2 9053   1.768   3.972   5.263 -0.4554  0.8825  0.2183
 3030TIP3    H1 9054   1.674   3.958   5.255 -0.2495 -0.2761 -0.3419
 3030TIP3    H2 9055   1.778   4.024   5.343 -1.5647  1.0318  0.2696
 3031TIP3   OH2 9056   1.146   2.589   3.343 -0.1827  0.3708 -0.0689
 3031TIP3    H1 9057   1.114   2.612   3.256 -0.3957  0.0768 -0.0706
 3031TIP3    H2 9058   1.114   2.658   3.400 -0.5480  0.2521 -0.1269
 3032TIP3   OH2 9059   5.835   0.754   2.570  0.0412  0.0023  0.1065
 3032TIP3    H1 9060   5.797   0.762   2.657  0.8680 -1.1154  0.6014
 3032TIP3    H2 9061   5.918   0.708   2.585  0.3080  0.0160 -1.2413
 3033TIP3   OH2 9062   6.379   2.672   3.727 -0.6670 -0.5135 -0.2258
 3033TIP3    H1 9063   6.456   2.615   3.731 -1.2546 -1.4982 -1.8012
 3033TIP3    H2 9064   6.412   2.755   3.693 -0.5533 -1.5713 -2.9231
 3034TIP3   OH2 9065   1.158   0.259   5.175  0.2710 -0.1584 -0.2341
 3034TIP3    H1 9066   1.250   0.274   5.151  0.2827  2.4637  1.0963
 3034TIP3    H2 9067   1.156   0.275   5.269 -1.2558 -1.9785  0.0784
 3035TIP3   OH2 9068   7.183   6.775   3.348 -0.2313  0.3904 -0.1134
 3035TIP3    H1 9069   7.109   6.763   3.407  0.0254  0.3884  0.2111
 3035TIP3    H2 9070   7.229   6.852   3.381  0.1083  0.1861 -0.1030
 3036TIP3   OH2 9071   6.530   2.973   5.707 -0.0499 -0.1758  0.4615
 3036TIP3    H1 9072   6.564   3.040   5.649 -1.2945 -0.5206 -0.7080
 3036TIP3    H2 9073   6.604   2.914   5.722  0.8573  1.0668  0.9558
 3037TIP3   OH2 9074   1.487   0.255   4.833 -0.8157  0.2060 -0.6116
 3037TIP3    H1 9075   1.489   0.269   4.928 -1.2543  1.4278 -0.7561
 3037TIP3    H2 9076   1.492   0.344   4.796  1.7300 -0.3212 -1.7903
 3038TIP3   OH2 9077   3.310   3.463   4.044  0.6934  0.1224  0.2221
 3038TIP3    H1 9078   3.235   3.478   3.986 -0.3356 -1.8487  0.9590
 3038TIP3    H2 9079   3.351   3.549   4.053 -1.9436  1.4428  0.4252
 3039TIP3   OH2 9080   5.295   3.259   2.920 -0.1664 -0.2080 -0.8280
 3039TIP3    H1 9081   5.377   3.263   2.970 -0.4468 -0.8504 -0.2954
 3039TIP3    H2 9082   5.229   3.295   2.979  0.0992  2.8420 -2.1886
 3040TIP3   OH2 9083   0.053   2.052   1.930 -0.1666  0.3887  0.0307
 3040TIP3    H1 9084   0.033   2.091   1.845 -0.8188 -0.3466 -0.1665
 3040TIP3    H2 9085   0.143   2.020   1.920  0.5870  2.2663  0.3825
 3041TIP3   OH2 9086   1.412   6.410   2.636 -0.1419 -0.7316  0.2321
 3041TIP3    H1 9087   1.432   6.339   2.697  2.0606 -0.6011 -0.2509
 3041TIP3    H2 9088   1.319   6.399   2.616 -1.1498 -0.5256  3.9099
 3042TIP3   OH2 9089   2.863   1.973   2.848 -0.7248 -0.1841 -0.5352
 3042TIP3    H1 9090   2.886   2.065   2.863 -0.8913 -0.1465 -0.5141
 3042TIP3    H2 9091   2.940   1.936   2.805  0.0186 -0.4358  0.9274
 3043TIP3   OH2 9092   1.089   2.324   3.444 -0.5176  0.1362 -0.1626
 3043TIP3    H1 9093   1.095   2.327   3.539 -1.2959  0.2459 -0.1107
 3043TIP3    H2 9094   1.079   2.416   3.417  0.4808  0.1776 -0.4088
 3044TIP3   OH2 9095   5.674   1.502   4.399 -0.1730  0.3110 -0.3004
 3044TIP3    H1 9096   5.671   1.533   4.309  2.0865  1.9626  0.1122
 3044TIP3    H2 9097   5.758   1.532   4.432 -1.5090  1.0477  2.8098
 3045TIP3   OH2 9098   3.550   5.020   4.141  0.3741 -0.1107 -0.3770
 3045TIP3    H1 9099   3.611   5.066   4.198  0.0109 -1.9443  1.5830
 3045TIP3    H2 9100   3.600   4.946   4.107 -0.5100 -1.1792  0.6154
 3046TIP3   OH2 9101   6.155   6.507   0.043 -0.3657  0.3500  0.3962
 3046TIP3    H1 9102   6.115   6.485  -0.041 -0.1570  0.8353  0.1634
 3046TIP3    H2 9103   6.119   6.593   0.064  1.4896  1.3722 -0.4312
 3047TIP3   OH2 9104   0.294   5.101   2.690  0.0622  0.0539  0.0171
 3047TIP3    H1 9105   0.348   5.064   2.760 -0.4421  0.9561  0.8948
 3047TIP3    H2 9106   0.358   5.133   2.626  0.5211 -1.1380 -0.1660
 3048TIP3   OH2 9107   7.043   4.609   1.451  0.6435  0.5197 -0.0926
 3048TIP3    H1 9108   7.013   4.690   1.408  0.4513 -0.1149 -1.2000
 3048TIP3    H2 9109   7.137   4.608   1.437  0.7020  0.7260  0.2554
 3049TIP3   OH2 9110   7.083   4.083   2.544 -1.1085 -0.5898 -0.1289
 3049TIP3    H1 9111   7.109   4.163   2.590 -1.4892 -0.8041  0.4706
 3049TIP3    H2 9112   7.006   4.108   2.493 -0.7628 -0.3839 -0.5577
 3050TIP3   OH2 9113   4.234   3.555   4.043  0.3096 -0.2192 -0.0503
 3050TIP3    H1 9114   4.167   3.540   3.976  2.3895  1.6042 -2.7651
 3050TIP3    H2 9115   4.317   3.544   3.997  1.8835  2.8553  1.7160
 3051TIP3   OH2 9116   1.780   0.549   4.479  0.2493 -0.1370 -0.1142
 3051TIP3    H1 9117   1.715   0.608   4.517  0.7385  0.5281 -0.2994
 3051TIP3    H2 9118   1.816   0.501   4.554 -0.0488 -0.1084  0.0489
 3052TIP3   OH2 9119   0.986   3.069   2.592  0.4409 -0.2795 -0.6671
 3052TIP3    H1 9120   1.068   3.072   2.643 -0.1558 -0.4617  0.3256
 3052TIP3    H2 9121   0.961   3.160   2.581 -0.5309 -0.2757  1.2228
 3053TIP3   OH2 9122   3.874   2.595   4.832  0.1938 -0.0395 -0.0222
 3053TIP3    H1 9123   3.894   2.576   4.924  1.9037 -0.8090 -0.5077
 3053TIP3    H2 9124   3.840   2.684   4.833  0.3708  0.0428  1.3335
 3054TIP3   OH2 9125   0.180   3.925   0.079 -0.0678 -0.3372 -0.0925
 3054TIP3    H1 9126   0.105   3.925   0.139 -0.8998 -0.9573 -1.0836
 3054TIP3    H2 9127   0.250   3.881   0.127 -0.8334 -1.1593  0.2899
 3055TIP3   OH2 9128   0.608   0.944   0.548  0.2527  0.3353 -0.3795
 3055TIP3    H1 9129   0.651   1.024   0.519  0.0710  0.6547  0.2151
 3055TIP3    H2 9130   0.673   0.875   0.537  1.6118  1.0783  2.2173
 3056TIP3   OH2 9131   3.055   6.541   5.501 -0.0922 -0.0295 -0.2886
 3056TIP3    H1 9132   3.092   6.455   5.482 -0.8185 -0.2272 -0.8472
 3056TIP3    H2 9133   3.104   6.601   5.445  0.8077  0.0151  0.5194
 3057TIP3   OH2 9134   0.372   4.531   0.474  0.1594 -0.4727  0.1675
 3057TIP3    H1 9135   0.416   4.500   0.553  1.0476 -0.7150 -0.4135
 3057TIP3    H2 9136   0.308   4.463   0.454 -1.9187  0.7520  2.0996
 3058TIP3   OH2 9137   3.115   2.112   4.050 -0.0299  1.3059  0.6850
 3058TIP3    H1 9138   3.110   2.086   3.958 -0.2277  0.4669  0.9242
 3058TIP3    H2 9139   3.024   2.127   4.075 -0.0519  0.7947  0.9389
 3059TIP3   OH2 9140   3.145   6.509   2.276  0.3087 -0.2089  0.4942
 3059TIP3    H1 9141   3.062   6.472   2.245  0.9766 -2.3147  1.0922
 3059TIP3    H2 9142   3.186   6.439   2.326  2.4855  0.7717  0.2058
 3060TIP3   OH2 9143   2.967   2.022   0.409 -0.0188 -0.0690  0.1202
 3060TIP3    H1 9144   3.036   2.078   0.373  0.9209  0.0182  1.8920
 3060TIP3    H2 9145   2.945   1.961   0.338  1.5550  0.2160 -0.6637
 3061TIP3   OH2 9146   5.905   6.719   4.051 -0.3127  0.0858 -0.4097
 3061TIP3    H1 9147   5.926   6.781   4.121 -0.0617  0.6391 -0.9645
 3061TIP3    H2 9148   5.959   6.747   3.977 -0.0024 -0.9606 -0.5911
 3062TIP3   OH2 9149   0.084   0.890   2.612 -0.3545 -0.1656 -0.3449
 3062TIP3    H1 9150   0.072   0.811   2.664  0.3565  0.6864  1.1671
 3062TIP3    H2 9151   0.107   0.858   2.524 -0.1237 -1.6258  0.2285
 3063TIP3   OH2 9152   4.301   6.803   1.287 -0.3779 -0.2071  0.0563
 3063TIP3    H1 9153   4.351   6.880   1.261  2.2322 -1.3117  1.3998
 3063TIP3    H2 9154   4.306   6.744   1.212 -0.7417  0.1659 -0.2654
 3064TIP3   OH2 9155   0.627   1.998   3.961  0.8717 -0.1395  0.0614
 3064TIP3    H1 9156   0.553   2.029   4.013  1.4410 -2.0309  2.1693
 3064TIP3    H2 9157   0.672   2.077   3.933 -1.5264  1.0548 -0.7321
 3065TIP3   OH2 9158   6.801   6.483   3.403  0.0616  0.0449 -0.5661
 3065TIP3    H1 9159   6.846   6.473   3.486  0.1738  0.2467 -0.6048
 3065TIP3    H2 9160   6.840   6.416   3.346 -0.7546 -0.8174 -0.1368
 3066TIP3   OH2 9161   3.736   4.392   2.803  0.3486 -0.2907 -0.3060
 3066TIP3    H1 9162   3.724   4.359   2.714  2.1247  1.0091 -1.1072
 3066TIP3    H2 9163   3.650   4.425   2.829  0.1343  0.7895 -2.2237
 3067TIP3   OH2 9164   6.925   2.869   4.696  0.2049  0.5346  0.5787
 3067TIP3    H1 9165   6.877   2.848   4.776  0.8357 -1.3146  0.5222
 3067TIP3    H2 9166   6.857   2.880   4.630 -0.2630 -3.2452  0.2095
 3068TIP3   OH2 9167   5.727   0.265   5.893  1.0686  0.1776  0.6092
 3068TIP3    H1 9168   5.813   0.223   5.895  1.3891  0.6847 -1.2714
 3068TIP3    H2 9169   5.745   0.359   5.895  0.6199  0.3087 -0.6580
 3069TIP3   OH2 9170   0.871   4.463   0.583  0.1374 -0.0391  0.0518
 3069TIP3    H1 9171   0.827   4.460   0.498 -1.5584  1.0150  0.8261
 3069TIP3    H2 9172   0.950   4.410   0.572  0.3855  0.7230 -2.3965
 3070TIP3   OH2 9173   3.085   4.936   4.568 -0.6120 -0.1400 -0.1832
 3070TIP3    H1 9174   3.047   4.923   4.655  0.4485 -0.7628  0.2039
 3070TIP3    H2 9175   3.047   5.019   4.537 -0.6072  0.3604  1.0917
 3071TIP3   OH2 9176   1.716   0.904   3.888 -0.4175  0.1700 -0.2166
 3071TIP3    H1 9177   1.793   0.857   3.856 -0.4668  0.1206 -0.2601
 3071TIP3    H2 9178   1.688   0.855   3.965 -2.1619 -1.5288 -1.8319
 3072TIP3   OH2 9179   0.263   1.434   5.558  0.5452 -0.1216  0.0537
 3072TIP3    H1 9180   0.349   1.474   5.548  0.7572 -0.8019 -0.9303
 3072TIP3    H2 9181   0.210   1.476   5.490  0.3081 -0.2710  0.1463
 3073TIP3   OH2 9182   0.093   2.496   5.231 -0.9426  0.1663 -0.1212
 3073TIP3    H1 9183   0.032   2.465   5.298 -1.8727  1.8652 -0.1367
 3073TIP3    H2 9184   0.157   2.548   5.279  0.3143 -1.2779 -0.1599
 3074TIP3   OH2 9185   6.367   1.613   5.563 -0.2467 -0.1756  0.3353
 3074TIP3    H1 9186   6.386   1.572   5.648  0.0607  1.1629  0.9429
 3074TIP3    H2 9187   6.453   1.628   5.524 -0.3762 -0.5221 -0.0899
 3075TIP3   OH2 9188   0.125   5.864   0.001 -0.0597 -0.0757  0.3586
 3075TIP3    H1 9189   0.085   5.887   0.085  0.3010  0.5527  0.3575
 3075TIP3    H2 9190   0.180   5.788   0.021  0.3663  0.3395  0.7812
 3076TIP3   OH2 9191   6.385   4.354   4.503  0.0370 -0.4079 -0.5789
 3076TIP3    H1 9192   6.331   4.304   4.442 -1.6576  0.3245  0.2650
 3076TIP3    H2 9193   6.449   4.292   4.535 -1.1370 -1.6757 -0.6163
 3077TIP3   OH2 9194   0.751   4.416   3.969 -0.1030  0.5665 -0.2307
 3077TIP3    H1 9195   0.676   4.391   3.915 -2.8556  4.7111  1.1604
 3077TIP3    H2 9196   0.757   4.347   4.035 -2.6954  0.0018 -0.4752
 3078TIP3   OH2 9197   4.419   6.321   5.454 -0.3160 -0.8490 -0.3771
 3078TIP3    H1 9198   4.412   6.295   5.546  1.0347  0.1695  0.0515
 3078TIP3    H2 9199   4.459   6.246   5.411 -0.6526 -1.2047 -0.0867
 3079TIP3   OH2 9200   5.887   2.129   5.408 -0.3831  0.1777 -0.2978
 3079TIP3    H1 9201   5.832   2.067   5.361 -0.2954  0.6977 -1.1051
 3079TIP3    H2 9202   5.884   2.209   5.355 -0.0900  0.7027  0.4561
 3080TIP3   OH2 9203   5.410   3.830   1.897  0.1364  0.0212  0.2365
 3080TIP3    H1 9204   5.370   3.847   1.982 -1.4642  0.6973 -0.6255
 3080TIP3    H2 9205   5.425   3.917   1.859  0.3037 -0.2845 -0.4184
 3081TIP3   OH2 9206   5.501   5.204   4.654  0.0847  0.4696  0.1132
 3081TIP3    H1 9207   5.431   5.190   4.591  1.6541  1.7302 -2.0424
 3081TIP3    H2 9208   5.561   5.132   4.641  0.1828  0.4689  0.5428
 3082TIP3   OH2 9209   6.735   0.883   3.639 -0.2084  0.0591 -0.3034
 3082TIP3    H1 9210   6.714   0.974   3.619  2.5225  0.4715 -1.8281
 3082TIP3    H2 9211   6.830   0.882   3.650 -0.1028 -2.6892 -0.7548
 3083TIP3   OH2 9212   5.684   2.870   3.409 -0.6522 -0.0667  0.1906
 3083TIP3    H1 9213   5.662   2.877   3.316 -1.2271 -0.1181  0.3176
 3083TIP3    H2 9214   5.666   2.779   3.432 -1.4720  0.1808  0.5796
 3084TIP3   OH2 9215   2.719   1.733   4.017  0.2037 -0.3106  0.1277
 3084TIP3    H1 9216   2.814   1.742   4.024  0.1147  0.1588  0.8044
 3084TIP3    H2 9217   2.691   1.698   4.101 -0.4035  1.1684  0.5667
 3085TIP3   OH2 9218   1.443   6.194   3.619 -0.2351 -0.1047 -0.0046
 3085TIP3    H1 9219   1.424   6.153   3.703 -0.8048 -0.3343 -0.2436
 3085TIP3    H2 9220   1.395   6.277   3.622 -3.5481 -1.7535 -1.6024
 3086TIP3   OH2 9221   1.567   6.500   3.451  0.3361  0.3455 -0.1178
 3086TIP3    H1 9222   1.582   6.411   3.419 -0.9415 -0.7839  2.1844
 3086TIP3    H2 9223   1.623   6.507   3.528 -1.4526  0.5684  1.2250
 3087TIP3   OH2 9224   1.801   1.177   2.810 -0.6346 -0.3803  0.0218
 3087TIP3    H1 9225   1.889   1.147   2.786 -0.6780 -1.0563  0.6585
 3087TIP3    H2 9226   1.754   1.097   2.832 -0.7327  0.1363  1.8554
 3088TIP3   OH2 9227   5.976   6.479   1.794  0.4826  0.9838 -0.7416
 3088TIP3    H1 9228   5.898   6.458   1.846 -0.7995 -0.9225 -3.2082
 3088TIP3    H2 9229   5.971   6.573   1.778 -0.7603  1.0551  0.0023
 3089TIP3   OH2 9230   3.432   5.645   3.589 -0.1220 -0.0227 -0.0211
 3089TIP3    H1 9231   3.345   5.611   3.613 -0.5385  1.6137  0.9726
 3089TIP3    H2 9232   3.491   5.608   3.655 -0.0718 -0.9577 -0.5655
 3090TIP3   OH2 9233   6.597   1.100   3.816  0.4218  0.1711 -0.4359
 3090TIP3    H1 9234   6.526   1.051   3.775 -0.0592  0.1810  0.3638
 3090TIP3    H2 9235   6.592   1.187   3.778 -0.3629  0.3373  0.0403
 3091TIP3   OH2 9236   5.915   5.387   4.097  0.0430  0.1559  0.3260
 3091TIP3    H1 9237   5.872   5.472   4.089  1.0037  0.4600 -3.0889
 3091TIP3    H2 9238   5.936   5.380   4.190 -1.4504  2.9203  0.9925
 3092TIP3   OH2 9239   0.684   6.611   5.360 -0.0564  0.0104 -0.2308
 3092TIP3    H1 9240   0.635   6.649   5.433 -1.3504  0.2901 -1.2110
 3092TIP3    H2 9241   0.697   6.519   5.386  0.7462  0.4372  0.9610
 3093TIP3   OH2 9242   2.537   2.510   0.036  0.0503 -0.5379 -0.1663
 3093TIP3    H1 9243   2.613   2.510   0.094 -0.9239  1.3699  1.2435
 3093TIP3    H2 9244   2.570   2.544  -0.047  0.3883  2.6284  1.1207
 3094TIP3   OH2 9245   1.537   4.625   2.079 -0.5261  0.2829 -0.3530
 3094TIP3    H1 9246   1.613   4.680   2.098 -0.5034  0.2918 -0.4651
 3094TIP3    H2 9247   1.570   4.535   2.088 -0.9797  0.2694  1.4692
 3095TIP3   OH2 9248   3.208   1.403   3.477 -0.2146  0.2384 -0.4081
 3095TIP3    H1 9249   3.139   1.407   3.412 -0.4400 -1.1998 -0.2839
 3095TIP3    H2 9250   3.181   1.464   3.545  0.2492  2.1178 -1.8330
 3096TIP3   OH2 9251   1.975   4.547   0.437 -1.1937  0.2205  0.0938
 3096TIP3    H1 9252   1.981   4.456   0.409 -1.3799 -0.3367  1.7364
 3096TIP3    H2 9253   2.058   4.586   0.412 -0.2163 -1.0007  1.2657
 3097TIP3   OH2 9254   0.137   6.076   5.586 -0.2404 -0.1693  0.3469
 3097TIP3    H1 9255   0.221   6.031   5.598  0.2192  0.3830 -0.6678
 3097TIP3    H2 9256   0.160   6.166   5.563 -1.1282  0.2032  0.8503
 3098TIP3   OH2 9257   5.593   2.766   3.811  0.3067 -0.6523  0.0607
 3098TIP3    H1 9258   5.626   2.677   3.799  0.6489 -0.5471  0.2130
 3098TIP3    H2 9259   5.622   2.791   3.899  1.3763  0.0980 -0.4763
 3099TIP3   OH2 9260   2.337   4.213   0.042 -0.1968  0.3063 -0.6367
 3099TIP3    H1 9261   2.291   4.268  -0.022  1.1997  1.2684 -0.8540
 3099TIP3    H2 9262   2.337   4.126   0.003 -1.7950  0.2667 -0.6370
 3100TIP3   OH2 9263   2.640   0.116   5.672  0.3425  0.5574 -0.2294
 3100TIP3    H1 9264   2.568   0.153   5.724  1.4965  1.3126  0.8912
 3100TIP3    H2 9265   2.679   0.190   5.627  0.4041  0.1516 -0.8498
 3101TIP3   OH2 9266   4.187   2.398   0.966  1.0387 -0.0940 -0.0456
 3101TIP3    H1 9267   4.162   2.401   0.873  0.9798  0.4799 -0.0146
 3101TIP3    H2 9268   4.115   2.443   1.011  0.4275 -1.4790  0.4262
 3102TIP3   OH2 9269   4.460   1.232   3.608 -0.4439  0.1231  0.0123
 3102TIP3    H1 9270   4.390   1.260   3.667  0.5922 -0.3673  1.5282
 3102TIP3    H2 9271   4.515   1.309   3.597 -0.6643  0.2284 -0.3611
 3103TIP3   OH2 9272   6.110   6.314   3.774 -0.2205 -0.0200 -0.5219
 3103TIP3    H1 9273   6.201   6.338   3.793 -0.1314  0.9322 -2.0778
 3103TIP3    H2 9274   6.073   6.292   3.860  0.9491  1.4043  0.3857
 3104TIP3   OH2 9275   3.063   0.821   1.773  0.5213  0.5174  0.6105
 3104TIP3    H1 9276   3.108   0.778   1.846  1.6187  2.0247  0.8715
 3104TIP3    H2 9277   3.082   0.914   1.786 -0.1396  0.8989 -1.0290
 3105TIP3   OH2 9278   3.345   0.237   3.823 -0.6383 -0.1664 -0.5776
 3105TIP3    H1 9279   3.390   0.302   3.877 -1.1468  0.5006 -0.9404
 3105TIP3    H2 9280   3.323   0.166   3.884 -0.6766  0.3056 -0.0366
 3106TIP3   OH2 9281   6.380   6.570   2.436  0.4888 -0.1914 -0.1557
 3106TIP3    H1 9282   6.434   6.644   2.408  1.7793 -0.9266  0.3256
 3106TIP3    H2 9283   6.300   6.611   2.469  0.5636  0.8994 -1.2476
 3107TIP3   OH2 9284   5.875   2.784   3.172 -0.0624  0.1789  0.1260
 3107TIP3    H1 9285   5.956   2.832   3.188  0.7026 -0.8993 -0.4498
 3107TIP3    H2 9286   5.822   2.844   3.119  0.6226  0.6344 -0.0575
 3108TIP3   OH2 9287   1.542   0.423   2.545 -0.0254 -0.4944 -0.6932
 3108TIP3    H1 9288   1.615   0.452   2.491  0.3694 -1.0284 -0.4592
 3108TIP3    H2 9289   1.493   0.362   2.489 -0.1493 -0.3273 -0.7663
 3109TIP3   OH2 9290   3.681   4.807   3.366  0.0147  0.3994 -0.1907
 3109TIP3    H1 9291   3.622   4.772   3.299 -0.2615 -1.4191  0.9102
 3109TIP3    H2 9292   3.639   4.785   3.449 -1.1417  5.1443  0.7552
 3110TIP3   OH2 9293   3.895   2.263   5.852  0.7647 -0.3088  0.2854
 3110TIP3    H1 9294   3.930   2.244   5.765 -0.0080 -3.2173  0.5006
 3110TIP3    H2 9295   3.801   2.278   5.837  0.4135 -1.9371  0.6846
 3111TIP3   OH2 9296   2.257   2.326   3.140 -0.4693 -0.2633  0.2484
 3111TIP3    H1 9297   2.333   2.275   3.112 -0.8552 -1.3554  1.0998
 3111TIP3    H2 9298   2.193   2.315   3.070 -0.1708 -0.0587 -0.0622
 3112TIP3   OH2 9299   0.855   1.075   0.215  0.6674 -0.4548 -0.1531
 3112TIP3    H1 9300   0.793   1.124   0.161  0.8292 -1.4063 -1.2382
 3112TIP3    H2 9301   0.825   1.089   0.305 -2.4304 -2.5836 -0.7131
 3113TIP3   OH2 9302   0.557   1.275   1.988 -0.1425  0.0078 -0.1471
 3113TIP3    H1 9303   0.593   1.248   2.072  2.2433 -0.2137 -1.1535
 3113TIP3    H2 9304   0.464   1.256   1.994  0.0711 -0.5849  2.1957
 3114TIP3   OH2 9305   2.883   5.453   3.530  0.5751 -0.3705  0.0375
 3114TIP3    H1 9306   2.894   5.367   3.489 -1.2871 -0.7006  0.1358
 3114TIP3    H2 9307   2.877   5.514   3.457  0.0332 -0.5819 -0.0986
 3115TIP3   OH2 9308   3.994   6.105   3.290 -0.0088  0.2321  0.2460
 3115TIP3    H1 9309   3.946   6.116   3.208  0.0126  2.3315  0.4515
 3115TIP3    H2 9310   4.070   6.053   3.267 -1.2347 -1.3146 -0.5274
 3116TIP3   OH2 9311   1.883   0.526   0.510  0.0941  0.3570  0.7841
 3116TIP3    H1 9312   1.971   0.510   0.475 -0.1306  0.5256  0.1230
 3116TIP3    H2 9313   1.894   0.522   0.605  0.8649  0.6108  0.7179
 3117TIP3   OH2 9314   4.312   3.517   2.572  0.0710  0.2291  0.4064
 3117TIP3    H1 9315   4.382   3.577   2.598  0.3236 -0.6357  1.8412
 3117TIP3    H2 9316   4.311   3.451   2.641 -2.8006  0.7490  0.9936
 3118TIP3   OH2 9317   6.129   3.684   0.475 -0.3987 -0.5455 -0.0051
 3118TIP3    H1 9318   6.092   3.688   0.387  1.4710 -2.2842 -0.9610
 3118TIP3    H2 9319   6.183   3.763   0.482  1.2827 -1.4762 -1.4113
 3119TIP3   OH2 9320   2.757   4.183   4.314  0.4382  0.3136 -0.6752
 3119TIP3    H1 9321   2.680   4.238   4.302  0.6932  1.1269  1.1756
 3119TIP3    H2 9322   2.811   4.230   4.377  0.8512 -1.8247  0.6796
 3120TIP3   OH2 9323   2.481   2.514   1.276  0.0963  0.2309  0.3781
 3120TIP3    H1 9324   2.512   2.594   1.233 -0.6697  0.6011  0.5065
 3120TIP3    H2 9325   2.391   2.533   1.303  0.2042 -0.3665  1.2144
 3121TIP3   OH2 9326   6.464   3.653   1.379 -0.5164  0.3448  0.1395
 3121TIP3    H1 9327   6.494   3.582   1.436  2.1999  0.9506 -0.4165
 3121TIP3    H2 9328   6.423   3.716   1.438 -0.8932 -0.6028  0.9232
 3122TIP3   OH2 9329   3.908   6.788   5.626 -0.4744 -0.0276 -0.1255
 3122TIP3    H1 9330   3.924   6.749   5.712 -1.4552 -0.3398 -0.0728
 3122TIP3    H2 9331   3.987   6.840   5.609 -0.8442  1.2232  1.6016
 3123TIP3   OH2 9332   4.601   2.953   1.518 -0.6756 -0.6863 -0.1362
 3123TIP3    H1 9333   4.649   2.902   1.453 -0.6670  0.1724 -0.8271
 3123TIP3    H2 9334   4.670   3.000   1.566 -0.7972  0.7160 -1.2719
 3124TIP3   OH2 9335   0.032   3.855   5.336  0.2195  0.0377 -0.2705
 3124TIP3    H1 9336  -0.061   3.849   5.360  0.1134 -1.2045 -0.9042
 3124TIP3    H2 9337   0.040   3.941   5.294 -0.7283  0.0115 -0.5354
 3125TIP3   OH2 9338   2.393   0.827   2.275 -0.0463 -0.2087 -0.1333
 3125TIP3    H1 9339   2.418   0.850   2.364 -0.8011 -1.4519  0.4153
 3125TIP3    H2 9340   2.404   0.733   2.269  1.5164  0.0190 -1.8754
 3126TIP3   OH2 9341   0.127   6.576   5.813  1.0009 -0.2641 -0.0383
 3126TIP3    H1 9342   0.057   6.562   5.877  1.2159 -0.9587  0.0484
 3126TIP3    H2 9343   0.172   6.655   5.845 -0.5370  0.9917 -0.8170
 3127TIP3   OH2 9344   5.008   0.796   2.759  0.5994 -0.0227  0.1196
 3127TIP3    H1 9345   4.946   0.850   2.710  0.4719  0.0661  0.3767
 3127TIP3    H2 9346   4.953   0.734   2.807  0.7534 -0.5127 -0.3250
 3128TIP3   OH2 9347   6.201   3.779   5.688  0.3799 -0.3946 -0.2816
 3128TIP3    H1 9348   6.179   3.871   5.672  1.7742 -0.2655 -1.6825
 3128TIP3    H2 9349   6.169   3.762   5.777  0.0173  1.4183 -0.0298
 3129TIP3   OH2 9350   2.438   4.668   5.791  0.1279 -0.3205 -0.0041
 3129TIP3    H1 9351   2.373   4.677   5.861  0.5258 -1.0914  0.4893
 3129TIP3    H2 9352   2.412   4.588   5.745  0.7022 -0.6216  0.1848
 3130TIP3   OH2 9353   4.570   6.126   5.338  0.4864  0.0608  0.0661
 3130TIP3    H1 9354   4.654   6.160   5.369  0.4615  0.8553 -0.7117
 3130TIP3    H2 9355   4.591   6.081   5.256  0.0573  0.8487 -0.4829
 3131TIP3   OH2 9356   6.716   1.217   3.251  0.5422  0.3110  0.3353
 3131TIP3    H1 9357   6.668   1.145   3.292 -1.6486  1.9887  0.9350
 3131TIP3    H2 9358   6.726   1.191   3.160 -2.3950  0.2373 -0.0429
 3132TIP3   OH2 9359   0.322   0.815   0.572 -0.2698 -0.4714  0.3149
 3132TIP3    H1 9360   0.404   0.814   0.521 -0.1668  0.8616  0.4301
 3132TIP3    H2 9361   0.262   0.761   0.521  0.1870 -0.0940 -0.6483
 3133TIP3   OH2 9362   5.642   5.750   5.307  0.2689  0.0463  0.3365
 3133TIP3    H1 9363   5.715   5.811   5.294  2.4632 -2.4975 -0.1358
 3133TIP3    H2 9364   5.597   5.748   5.222 -1.9898  3.3697  1.2528
 3134TIP3   OH2 9365   0.777   5.314   1.413  0.4839 -0.5208  0.6101
 3134TIP3    H1 9366   0.730   5.317   1.496  0.5469  0.9994  0.6324
 3134TIP3    H2 9367   0.831   5.393   1.413  0.6554 -0.6029 -0.7658
 3135TIP3   OH2 9368   6.131   0.935   2.601  0.7300 -0.2364  0.0468
 3135TIP3    H1 9369   6.137   1.026   2.571 -0.6682  0.3056  1.2383
 3135TIP3    H2 9370   6.194   0.887   2.548 -0.7493  0.8341 -2.8792
 3136TIP3   OH2 9371   0.174   2.065   0.504  1.0636 -0.2342 -0.1508
 3136TIP3    H1 9372   0.252   2.093   0.552  0.9283 -0.6249  0.3004
 3136TIP3    H2 9373   0.126   2.009   0.566 -0.3681  1.2443  0.1524
 3137TIP3   OH2 9374   6.848   1.879   3.406  0.3928  0.4580 -0.1597
 3137TIP3    H1 9375   6.851   1.974   3.398 -1.4759  0.7580  1.7380
 3137TIP3    H2 9376   6.868   1.862   3.498  0.5921 -0.9883 -0.4401
 3138TIP3   OH2 9377   0.990   3.939   2.161  1.2108  0.0379 -0.0469
 3138TIP3    H1 9378   0.985   3.913   2.069  1.2480 -0.1923  0.0171
 3138TIP3    H2 9379   1.071   3.988   2.167  1.7035 -0.7790  0.0728
 3139TIP3   OH2 9380   5.369   1.408   3.072  1.3875 -0.1721  0.5059
 3139TIP3    H1 9381   5.287   1.360   3.062  1.4908 -0.9883  2.8115
 3139TIP3    H2 9382   5.354   1.491   3.028 -1.0374  0.0732  1.6333
 3140TIP3   OH2 9383   3.558   2.884   3.587  0.0619  0.5515 -0.2512
 3140TIP3    H1 9384   3.576   2.972   3.618 -1.5614  0.0534  2.3730
 3140TIP3    H2 9385   3.598   2.827   3.652  0.1986 -0.6627 -1.3546
 3141TIP3   OH2 9386   5.916   2.428   4.838  0.4617 -0.1975  0.1171
 3141TIP3    H1 9387   5.862   2.449   4.762 -0.3522 -1.3002  0.3603
 3141TIP3    H2 9388   5.992   2.383   4.802 -0.3099 -1.4388 -0.0064
 3142TIP3   OH2 9389   4.065   6.159   4.409  0.8178  0.4734 -0.2749
 3142TIP3    H1 9390   4.090   6.202   4.328  0.4145  2.7449  0.7358
 3142TIP3    H2 9391   4.132   6.185   4.472 -0.8741  1.9362  1.0341
 3143TIP3   OH2 9392   7.103   1.795   0.980  0.0102  0.1231  0.1215
 3143TIP3    H1 9393   7.154   1.876   0.985  0.3537  0.0303 -1.3826
 3143TIP3    H2 9394   7.012   1.823   0.982  0.0002  0.2688  3.2948
 3144TIP3   OH2 9395   5.065   0.163   5.731  0.4978 -0.2645  0.0385
 3144TIP3    H1 9396   5.127   0.228   5.698  0.0700  0.2341  0.2071
 3144TIP3    H2 9397   5.024   0.126   5.652 -0.2122  0.6169 -0.0203
 3145TIP3   OH2 9398   0.717   3.187   3.067 -1.0427  0.0947 -0.2570
 3145TIP3    H1 9399   0.744   3.263   3.118  0.2971  0.0427 -0.8421
 3145TIP3    H2 9400   0.795   3.163   3.016 -1.4775 -1.5724 -0.2062
 3146TIP3   OH2 9401   6.578   2.922   4.183 -0.1433  0.3525 -0.6965
 3146TIP3    H1 9402   6.501   2.866   4.184  0.9909 -1.3073  1.1892
 3146TIP3    H2 9403   6.544   3.010   4.171 -2.3023 -0.3621 -0.2099
 3147TIP3   OH2 9404   2.357   0.765   5.515 -0.0126 -0.2518  0.3352
 3147TIP3    H1 9405   2.427   0.770   5.450  0.2096  1.4417  0.6643
 3147TIP3    H2 9406   2.289   0.711   5.474  0.0037  0.9899 -1.4094
 3148TIP3   OH2 9407   6.505   3.572   4.467 -0.6543  0.1208 -0.1026
 3148TIP3    H1 9408   6.481   3.577   4.560 -0.6427  0.1552 -0.1015
 3148TIP3    H2 9409   6.552   3.489   4.460 -0.6223  0.1357 -0.0698
 3149TIP3   OH2 9410   1.066   2.946   4.966 -0.5226  0.0842 -0.1373
 3149TIP3    H1 9411   1.051   3.024   5.019  0.3894  0.3492 -0.2446
 3149TIP3    H2 9412   1.109   2.884   5.025  0.7325  0.4741 -0.6077
 3150TIP3   OH2 9413   5.339   2.422   0.455  0.4489  0.5600 -0.1691
 3150TIP3    H1 9414   5.403   2.458   0.518  0.4407  0.0251  0.1561
 3150TIP3    H2 9415   5.383   2.345   0.419  0.1979  0.4991 -0.3421
 3151TIP3   OH2 9416   1.245   1.897   1.975 -0.3356  0.9701  0.3147
 3151TIP3    H1 9417   1.269   1.807   1.995  1.2194  1.4919  0.9538
 3151TIP3    H2 9418   1.266   1.908   1.883  0.1285  0.8654  0.4042
 3152TIP3   OH2 9419   2.128   1.665   3.047 -0.1304  0.0748 -0.7597
 3152TIP3    H1 9420   2.097   1.731   3.108 -0.4665  0.1030 -0.9627
 3152TIP3    H2 9421   2.049   1.619   3.019 -0.0023  0.2034 -1.3368
 3153TIP3   OH2 9422   7.180   2.245   2.324 -0.5227  0.1424 -0.4017
 3153TIP3    H1 9423   7.182   2.151   2.343  1.4720  0.2960  0.4066
 3153TIP3    H2 9424   7.194   2.251   2.230  1.0498 -0.3685 -0.2287
 3154TIP3   OH2 9425   2.107   2.527   4.125 -0.6179  0.1438  0.5391
 3154TIP3    H1 9426   2.071   2.448   4.166  0.3939 -0.1255  0.9625
 3154TIP3    H2 9427   2.068   2.600   4.173 -2.7173 -0.0112 -0.8186
 3155TIP3   OH2 9428   5.303   4.179   2.189  0.4242  0.4017  0.3439
 3155TIP3    H1 9429   5.269   4.170   2.100 -0.8054  1.6037  0.6517
 3155TIP3    H2 9430   5.397   4.163   2.181  0.1586 -0.7241 -0.9455
 3156TIP3   OH2 9431   6.299   6.304   2.707  0.1251  0.4321  0.0082
 3156TIP3    H1 9432   6.391   6.321   2.729  0.0867 -0.1874  0.7096
 3156TIP3    H2 9433   6.285   6.213   2.733  0.0354 -0.3777 -2.5734
 3157TIP3   OH2 9434   6.230   1.724   4.203  0.0309 -0.1061 -0.1694
 3157TIP3    H1 9435   6.138   1.745   4.219  0.0838 -1.1910  1.8054
 3157TIP3    H2 9436   6.227   1.646   4.147 -0.2883 -0.7618  0.7391
 3158TIP3   OH2 9437   1.772   1.040   4.995 -0.0856  0.1866  0.6414
 3158TIP3    H1 9438   1.700   1.011   5.052  0.2122  1.1655  1.5512
 3158TIP3    H2 9439   1.834   1.082   5.055  1.1587 -0.4655 -0.1603
 3159TIP3   OH2 9440   4.037   3.171   0.496 -0.9459  0.5830  0.0864
 3159TIP3    H1 9441   4.000   3.090   0.530 -1.9221  1.5781  1.5560
 3159TIP3    H2 9442   4.030   3.163   0.401 -1.4621 -0.8486  0.2260
 3160TIP3   OH2 9443   1.708   5.493   1.190  0.4514 -0.2334 -0.5328
 3160TIP3    H1 9444   1.754   5.475   1.271  1.4583  1.5194 -0.6808
 3160TIP3    H2 9445   1.622   5.453   1.202  0.2164  0.8233  1.8017
 3161TIP3   OH2 9446   2.940   5.720   4.085 -0.1082  0.3638 -0.1037
 3161TIP3    H1 9447   2.986   5.754   4.161 -1.6414  1.4248  0.3952
 3161TIP3    H2 9448   2.847   5.729   4.106 -0.6042  1.3442 -2.3352
 3162TIP3   OH2 9449   4.131   6.411   1.387  0.0261  0.8663 -0.0073
 3162TIP3    H1 9450   4.132   6.496   1.431 -3.0286  1.4316 -0.7668
 3162TIP3    H2 9451   4.065   6.361   1.436  0.4686 -0.4163 -0.6954
 3163TIP3   OH2 9452   3.100   0.253   4.387  0.1521 -0.3838 -0.0782
 3163TIP3    H1 9453   3.008   0.231   4.373  0.1280  0.1273 -0.7503
 3163TIP3    H2 9454   3.134   0.179   4.437 -0.5969 -0.6292  0.0853
 3164TIP3   OH2 9455   0.362   0.343   5.626  0.2612 -0.3458 -0.1807
 3164TIP3    H1 9456   0.337   0.410   5.562 -2.4919  0.5212  1.6045
 3164TIP3    H2 9457   0.335   0.260   5.586  1.0587 -0.1151 -1.2235
 3165TIP3   OH2 9458   5.285   5.212   1.595  0.1059 -0.2695  0.4800
 3165TIP3    H1 9459   5.285   5.213   1.499  1.2051 -1.4916  0.4333
 3165TIP3    H2 9460   5.198   5.179   1.619 -0.1773  0.0417 -0.0971
 3166TIP3   OH2 9461   6.162   1.504   0.893  0.2060  0.1350 -0.1686
 3166TIP3    H1 9462   6.176   1.409   0.898  0.8395  0.1731 -1.1638
 3166TIP3    H2 9463   6.149   1.530   0.985  0.6563 -0.8149  0.1829
 3167TIP3   OH2 9464   5.951   6.315   2.257 -0.2462  0.1244  0.0701
 3167TIP3    H1 9465   5.910   6.398   2.280 -0.5096  0.0801 -0.2372
 3167TIP3    H2 9466   6.024   6.306   2.319  1.5665  1.9403 -1.6428
 3168TIP3   OH2 9467   6.899   1.852   2.382 -0.6629 -0.0384 -0.1857
 3168TIP3    H1 9468   6.915   1.897   2.465 -0.0848  1.7567 -1.2117
 3168TIP3    H2 9469   6.920   1.917   2.315 -3.6044 -0.5378 -1.7626
 3169TIP3   OH2 9470   4.343   0.824   5.780  0.4724  0.3836  0.4721
 3169TIP3    H1 9471   4.328   0.755   5.845  1.0259 -0.3069 -0.1172
 3169TIP3    H2 9472   4.412   0.878   5.818  2.1546 -1.1058 -0.3144
 3170TIP3   OH2 9473   2.165   4.906   5.256 -0.1803  0.1509  0.0535
 3170TIP3    H1 9474   2.153   4.838   5.189 -0.9022  0.0844  0.2405
 3170TIP3    H2 9475   2.175   4.857   5.338 -1.1278  0.2741  0.2479
 3171TIP3   OH2 9476   3.482   6.107   5.540 -0.0001  0.0515  0.2687
 3171TIP3    H1 9477   3.448   6.024   5.504  1.9438 -0.9910  0.6873
 3171TIP3    H2 9478   3.515   6.154   5.463  0.1968 -0.2359  0.1714
 3172TIP3   OH2 9479   1.084   2.403   4.080  0.0257 -0.8256 -0.0121
 3172TIP3    H1 9480   1.115   2.461   4.149 -1.2538  0.0482 -0.1266
 3172TIP3    H2 9481   1.161   2.383   4.028  0.4688  0.9493 -0.0720
 3173TIP3   OH2 9482   6.173   3.366   0.442  0.2600 -0.1209  0.1541
 3173TIP3    H1 9483   6.225   3.446   0.434  0.0471 -0.1409 -2.1737
 3173TIP3    H2 9484   6.232   3.296   0.416  0.0547 -0.5707  0.8749
 3174TIP3   OH2 9485   5.242   2.283   5.481  0.0130 -0.3326  0.2278
 3174TIP3    H1 9486   5.294   2.207   5.454  1.4410  0.1434  1.4887
 3174TIP3    H2 9487   5.153   2.249   5.488  0.3577 -1.5068 -0.7419
 3175TIP3   OH2 9488   4.040   4.955   0.098 -0.3586  0.1369  0.4925
 3175TIP3    H1 9489   4.078   5.012   0.165  0.3359  0.7091 -0.3632
 3175TIP3    H2 9490   3.948   4.981   0.093 -0.0758  1.1280  0.1991
 3176TIP3   OH2 9491   0.597   4.686   4.630  0.3042 -0.3730  0.4687
 3176TIP3    H1 9492   0.514   4.638   4.621 -0.2061  0.3550  1.1935
 3176TIP3    H2 9493   0.587   4.762   4.574  0.5094 -0.3112  0.5166
 3177TIP3   OH2 9494   4.591   4.266   4.930  0.3965  0.0892 -0.0653
 3177TIP3    H1 9495   4.606   4.350   4.888  1.7926  0.1467  0.5024
 3177TIP3    H2 9496   4.603   4.283   5.024  0.2986 -0.6572  0.0938
 3178TIP3   OH2 9497   3.564   2.008   4.692 -0.3610  0.0022 -0.4754
 3178TIP3    H1 9498   3.573   1.995   4.787  0.8686 -0.2206 -0.6081
 3178TIP3    H2 9499   3.654   2.013   4.660 -0.7515 -0.7621 -1.7504
 3179TIP3   OH2 9500   1.910   5.254   0.319  0.5753 -0.0227  0.3354
 3179TIP3    H1 9501   1.935   5.164   0.296 -0.0247  0.1526 -1.0833
 3179TIP3    H2 9502   1.960   5.309   0.258 -2.2469  0.3847 -1.8199
 3180TIP3   OH2 9503   6.876   1.870   0.743 -0.1108  0.1839 -0.1093
 3180TIP3    H1 9504   6.846   1.950   0.701  1.8424  1.1584  0.2200
 3180TIP3    H2 9505   6.854   1.883   0.836 -0.4615 -0.0127 -0.1615
 3181TIP3   OH2 9506   2.598   2.878   3.682  0.1924 -0.0172 -0.1864
 3181TIP3    H1 9507   2.615   2.871   3.588 -2.8315  1.0004 -0.9395
 3181TIP3    H2 9508   2.685   2.886   3.722  1.5732 -0.3429 -2.8887
 3182TIP3   OH2 9509   5.380   1.534   1.923  0.0977 -0.1475 -0.1545
 3182TIP3    H1 9510   5.417   1.582   1.849 -1.4900  0.9565 -0.2856
 3182TIP3    H2 9511   5.305   1.587   1.951  0.2000 -0.9186  1.7686
 3183TIP3   OH2 9512   3.515   0.398   0.388  0.4090 -0.1424  0.5147
 3183TIP3    H1 9513   3.566   0.478   0.378 -2.9660  2.0067 -1.5761
 3183TIP3    H2 9514   3.546   0.342   0.316 -1.7587  2.2690 -2.6089
 3184TIP3   OH2 9515   6.054   6.047   3.858 -0.5984 -0.3027  0.0658
 3184TIP3    H1 9516   5.959   6.055   3.848 -0.6629 -1.9101 -0.8774
 3184TIP3    H2 9517   6.072   5.954   3.850  1.3649  0.1767 -2.9507
 3185TIP3   OH2 9518   0.837   5.276   5.253 -0.4962  0.2842  0.1611
 3185TIP3    H1 9519   0.898   5.246   5.187 -1.2312  1.3338 -1.0299
 3185TIP3    H2 9520   0.880   5.257   5.337  1.9199  1.9042 -0.6237
 3186TIP3   OH2 9521   7.128   4.324   4.182  0.4034 -0.0989 -0.7754
 3186TIP3    H1 9522   7.094   4.272   4.110  0.4727  0.7944 -1.4616
 3186TIP3    H2 9523   7.160   4.405   4.142 -0.3792  0.8062  0.3546
 3187TIP3   OH2 9524   6.515   5.801   1.073  0.2378  0.4267 -0.1938
 3187TIP3    H1 9525   6.428   5.834   1.095 -0.0118 -0.8966  0.9134
 3187TIP3    H2 9526   6.500   5.735   1.005  0.5640  1.3643 -1.1991
 3188TIP3   OH2 9527   6.478   4.075   2.850 -0.2098  0.0378 -0.2379
 3188TIP3    H1 9528   6.475   4.149   2.790 -1.9902  0.1046 -0.1112
 3188TIP3    H2 9529   6.409   4.093   2.914  2.2794  0.5564  2.5889
 3189TIP3   OH2 9530   1.532   1.138   1.984  0.2880 -0.4750 -0.2577
 3189TIP3    H1 9531   1.514   1.165   2.074  0.8952 -2.9360  0.6689
 3189TIP3    H2 9532   1.447   1.115   1.948  0.1578 -0.3648 -0.0236
 3190TIP3   OH2 9533   1.700   4.897   1.803  0.0306 -0.2422  0.1717
 3190TIP3    H1 9534   1.767   4.834   1.776 -0.0779 -0.2895  0.0125
 3190TIP3    H2 9535   1.626   4.880   1.744  0.5073  0.9931 -0.8248
 3191TIP3   OH2 9536   1.573   2.011   0.102  0.4787  0.3179 -0.7010
 3191TIP3    H1 9537   1.626   1.998   0.024  0.2888  1.0773 -0.9709
 3191TIP3    H2 9538   1.531   1.927   0.117 -0.0691  0.3553 -1.8736
 3192TIP3   OH2 9539   0.541   0.792   3.789  0.2401  0.5695 -0.3259
 3192TIP3    H1 9540   0.508   0.799   3.699 -0.6031  0.5616 -0.0322
 3192TIP3    H2 9541   0.566   0.881   3.813 -2.8141  1.3002  0.6005
 3193TIP3   OH2 9542   0.803   1.773   3.623  0.2386 -0.0143  0.4128
 3193TIP3    H1 9543   0.800   1.681   3.598  0.4796 -0.3273  1.4608
 3193TIP3    H2 9544   0.827   1.771   3.716  0.2130  1.1039  0.4528
 3194TIP3   OH2 9545   2.875   0.682   5.658  0.8299 -0.0456 -0.2411
 3194TIP3    H1 9546   2.791   0.667   5.614 -0.0051 -0.9679  1.5411
 3194TIP3    H2 9547   2.857   0.754   5.718  1.3027 -0.2843  0.1879
 3195TIP3   OH2 9548   2.752   5.221   3.969 -0.4142 -0.7010  0.3812
 3195TIP3    H1 9549   2.749   5.260   4.056  0.2815 -1.0697  0.5756
 3195TIP3    H2 9550   2.795   5.287   3.914  2.3660 -1.7856  1.0713
 3196TIP3   OH2 9551   1.880   3.588   1.530 -0.2076  0.5391 -0.8858
 3196TIP3    H1 9552   1.833   3.642   1.466  1.5501  1.4358 -1.4820
 3196TIP3    H2 9553   1.811   3.544   1.580 -1.6903  2.4549 -1.1434
 3197TIP3   OH2 9554   4.288   1.483   4.724  0.5986 -0.5796  0.1525
 3197TIP3    H1 9555   4.320   1.552   4.666 -0.5789 -0.0862  0.0498
 3197TIP3    H2 9556   4.243   1.422   4.664 -2.6827  1.1150  0.6875
 3198TIP3   OH2 9557   0.813   6.345   0.078 -0.2103  0.1448 -0.0361
 3198TIP3    H1 9558   0.773   6.427   0.050 -1.0457 -0.6777 -1.3467
 3198TIP3    H2 9559   0.857   6.366   0.160  0.0647  2.0212 -0.6371
 3199TIP3   OH2 9560  -0.014   1.371   5.591 -0.0240 -0.1326  0.3498
 3199TIP3    H1 9561   0.073   1.386   5.629 -0.2022  2.3112 -0.0239
 3199TIP3    H2 9562   0.003   1.365   5.497 -0.3257  1.3070  0.1876
 3200TIP3   OH2 9563   1.652   1.379   1.325  0.4214 -0.4423  0.0051
 3200TIP3    H1 9564   1.655   1.473   1.307  0.7869 -0.6517 -1.1144
 3200TIP3    H2 9565   1.594   1.370   1.400  0.7491  0.7201  0.4068
 3201TIP3   OH2 9566   5.390   6.554   1.547  0.0279  0.8626  0.2513
 3201TIP3    H1 9567   5.434   6.570   1.463  0.0870  1.5058  0.4005
 3201TIP3    H2 9568   5.298   6.548   1.524  0.1977 -0.7156 -0.0936
 3202TIP3   OH2 9569   5.505   5.380   5.424 -0.5999 -0.0737 -0.3301
 3202TIP3    H1 9570   5.495   5.323   5.500 -0.6184  1.0528  0.5450
 3202TIP3    H2 9571   5.592   5.359   5.390 -0.1834  0.0687  0.5997
 3203TIP3   OH2 9572   3.421   6.079   2.505 -0.0070  0.7782  0.2888
 3203TIP3    H1 9573   3.438   6.168   2.537 -0.7934  0.8452  0.5406
 3203TIP3    H2 9574   3.508   6.044   2.485  0.3350  1.4932  0.4778
 3204TIP3   OH2 9575   0.397   6.522   3.308 -0.1609 -0.0565  0.1515
 3204TIP3    H1 9576   0.470   6.560   3.259 -0.9479  0.2792 -0.7943
 3204TIP3    H2 9577   0.326   6.585   3.298 -0.6632 -0.4999  0.8361
 3205TIP3   OH2 9578   5.030   2.375   3.911  0.3752  0.3001 -0.3820
 3205TIP3    H1 9579   5.000   2.284   3.913  0.6356  0.2148  1.1685
 3205TIP3    H2 9580   5.090   2.379   3.837  2.0848 -1.4052  0.8108
 3206TIP3   OH2 9581   1.719   4.339   3.048  0.3214  0.3232 -0.0544
 3206TIP3    H1 9582   1.699   4.319   2.956 -0.5513  2.5419 -0.3985
 3206TIP3    H2 9583   1.743   4.254   3.085 -0.3319 -0.8262 -2.0609
 3207TIP3   OH2 9584   6.299   3.897   4.754  0.3369  0.8436  0.2178
 3207TIP3    H1 9585   6.381   3.933   4.720  2.2245 -3.7878 -0.8657
 3207TIP3    H2 9586   6.239   3.899   4.680  0.1600  2.1612  0.3660
 3208TIP3   OH2 9587   2.629   1.198   5.392 -0.3992 -0.3048 -0.3241
 3208TIP3    H1 9588   2.718   1.233   5.396 -1.3775  2.4229 -0.1823
 3208TIP3    H2 9589   2.604   1.185   5.484 -0.2602 -0.7862 -0.3527
 3209TIP3   OH2 9590   1.221   4.339   3.353 -0.4043  0.4022 -0.1538
 3209TIP3    H1 9591   1.164   4.403   3.310 -0.6151 -0.0642 -0.5770
 3209TIP3    H2 9592   1.164   4.292   3.413 -1.1525 -1.8788 -2.4567
 3210TIP3   OH2 9593   6.973   6.384   2.303 -0.1073  0.0175  0.0014
 3210TIP3    H1 9594   6.886   6.390   2.342  0.0117  2.9437  0.0332
 3210TIP3    H2 9595   7.024   6.333   2.365 -0.9435  1.2347  1.7557
 3211TIP3   OH2 9596   3.746   4.822   1.222 -0.0467 -0.7238  0.0532
 3211TIP3    H1 9597   3.673   4.829   1.161 -1.8533 -0.4521  2.0945
 3211TIP3    H2 9598   3.733   4.738   1.266  0.6641 -0.5130  0.6916
 3212TIP3   OH2 9599   2.630   4.807   2.537 -0.4270 -0.1723  0.4880
 3212TIP3    H1 9600   2.577   4.852   2.471 -0.4095 -0.3947  0.3242
 3212TIP3    H2 9601   2.613   4.856   2.618  0.9943  1.2800 -0.0307
 3213TIP3   OH2 9602   1.554   2.383   5.781 -0.0738 -0.1282 -0.2954
 3213TIP3    H1 9603   1.598   2.311   5.735 -0.6321  0.2275 -1.4178
 3213TIP3    H2 9604   1.585   2.462   5.737 -0.6154  0.2226 -0.0556
 3214TIP3   OH2 9605   4.401   1.682   5.710 -0.1379 -0.7950  0.2234
 3214TIP3    H1 9606   4.343   1.642   5.774 -0.7008 -0.4612 -0.0622
 3214TIP3    H2 9607   4.406   1.619   5.639 -0.1459 -0.8282  0.2528
 3215TIP3   OH2 9608   5.526   1.476   1.517 -0.2015  0.2291 -0.4838
 3215TIP3    H1 9609   5.524   1.550   1.579 -0.4458 -0.3126  0.1640
 3215TIP3    H2 9610   5.435   1.446   1.513  0.0729 -0.6850  0.0498
 3216TIP3   OH2 9611   5.014   5.266   2.166  0.2314 -0.3742  0.0890
 3216TIP3    H1 9612   4.990   5.177   2.192 -0.1948 -0.0678  0.7606
 3216TIP3    H2 9613   5.046   5.256   2.076  1.7324 -1.4394  0.7129
 3217TIP3   OH2 9614   7.183   1.286   2.514  0.8260  0.1202  0.0976
 3217TIP3    H1 9615   7.246   1.303   2.444  0.2103 -0.0830 -0.5260
 3217TIP3    H2 9616   7.196   1.194   2.536  0.3642 -0.0809 -0.4387
 3218TIP3   OH2 9617   6.738   0.711   2.519  0.5250 -0.3618  0.2700
 3218TIP3    H1 9618   6.689   0.652   2.576  1.6506 -1.2120  0.3677
 3218TIP3    H2 9619   6.759   0.659   2.442 -0.5590  0.6385 -0.7576
 3219TIP3   OH2 9620   1.930   5.822   2.614 -0.6043 -0.5331 -0.2075
 3219TIP3    H1 9621   1.986   5.745   2.605 -0.0008 -0.0311 -0.9585
 3219TIP3    H2 9622   1.965   5.870   2.689  0.1167 -0.1306 -0.7812
 3220TIP3   OH2 9623   4.000   6.219   5.746 -0.1052 -0.6674 -0.1147
 3220TIP3    H1 9624   3.984   6.126   5.763 -0.1355 -0.6619 -0.1138
 3220TIP3    H2 9625   3.941   6.242   5.674 -0.1344 -0.6362 -0.0813
 3221TIP3   OH2 9626   1.343   2.281   0.414  0.1303  0.1466  0.4848
 3221TIP3    H1 9627   1.329   2.199   0.462  1.8717  0.4328  1.5377
 3221TIP3    H2 9628   1.436   2.301   0.425  0.1093  1.4262 -1.1476
 3222TIP3   OH2 9629   4.243   3.800   3.738 -0.3105  0.1261  0.1561
 3222TIP3    H1 9630   4.198   3.724   3.700  0.2051  0.8889 -2.1148
 3222TIP3    H2 9631   4.329   3.801   3.695  0.6696  0.5721  2.0252
 3223TIP3   OH2 9632   2.011   0.493   1.641  0.5733  0.4410  0.1238
 3223TIP3    H1 9633   2.011   0.421   1.704  0.7316 -0.0730 -0.4608
 3223TIP3    H2 9634   2.066   0.560   1.682 -1.3682  1.1510  1.6944
 3224TIP3   OH2 9635   1.693   4.801   1.464  0.1393 -0.1378 -0.0372
 3224TIP3    H1 9636   1.624   4.779   1.526  1.5471  0.6100  1.9130
 3224TIP3    H2 9637   1.701   4.896   1.470 -0.2233  0.0573 -2.0267
 3225TIP3   OH2 9638   3.469   4.922   0.292  0.3111 -0.1241  0.1729
 3225TIP3    H1 9639   3.552   4.886   0.321  0.2485  0.1360  0.6845
 3225TIP3    H2 9640   3.408   4.903   0.363 -0.0526 -0.2717 -0.1795
 3226TIP3   OH2 9641   6.052   2.398   5.393 -0.1758 -0.3424 -0.4146
 3226TIP3    H1 9642   6.055   2.399   5.489 -1.3905 -0.5162 -0.3540
 3226TIP3    H2 9643   6.104   2.322   5.368  0.6344  0.0378  0.0673
 3227TIP3   OH2 9644   1.913   2.173   3.626  0.5377  0.7428  0.1415
 3227TIP3    H1 9645   1.887   2.162   3.717 -0.1374  0.5155 -0.0719
 3227TIP3    H2 9646   1.974   2.101   3.609 -2.2541 -1.6229 -0.6529
 3228TIP3   OH2 9647   7.215   0.076   1.007 -0.5267  0.8168 -0.2514
 3228TIP3    H1 9648   7.136   0.108   0.964  0.5146  1.5089 -1.7319
 3228TIP3    H2 9649   7.187  -0.005   1.051 -1.9108  0.6958 -1.2889
 3229TIP3   OH2 9650   0.204   4.693   3.187  0.2972  0.1139 -0.4959
 3229TIP3    H1 9651   0.147   4.726   3.256  3.2409  1.4983  1.4671
 3229TIP3    H2 9652   0.171   4.735   3.107 -0.8117  1.6751  0.7104
 3230TIP3   OH2 9653   5.878   5.025   2.062  0.7975  0.1681  0.5502
 3230TIP3    H1 9654   5.934   5.078   2.120  1.4605  1.6283 -1.3233
 3230TIP3    H2 9655   5.939   4.965   2.019  0.7880  1.0240 -0.6980
 3231TIP3   OH2 9656   5.060   5.651   5.282 -0.2194 -0.1375  0.0813
 3231TIP3    H1 9657   5.101   5.581   5.333 -0.2826 -0.4347 -0.2738
 3231TIP3    H2 9658   5.045   5.612   5.196 -0.6054  0.1934 -0.0012
 3232TIP3   OH2 9659   1.753   3.988   4.631  0.1706 -0.1633  0.2466
 3232TIP3    H1 9660   1.693   3.986   4.705  0.4925 -1.6751  0.4971
 3232TIP3    H2 9661   1.754   3.898   4.598  0.8509  0.2478 -0.9284
 3233TIP3   OH2 9662   2.760   3.474   4.198 -0.4515 -0.6361  0.0441
 3233TIP3    H1 9663   2.827   3.501   4.261 -0.4716  1.5218 -0.7749
 3233TIP3    H2 9664   2.686   3.532   4.215 -1.1089 -1.1953 -0.8260
 3234TIP3   OH2 9665   4.040   0.062   1.287  0.0367 -0.3104 -0.1356
 3234TIP3    H1 9666   3.954   0.033   1.257 -1.1484 -0.2305  2.8968
 3234TIP3    H2 9667   4.063   0.002   1.358  1.6664  0.7357  0.2737
 3235TIP3   OH2 9668   3.468   3.845   3.539 -0.7257  0.0500 -0.0282
 3235TIP3    H1 9669   3.468   3.890   3.455 -1.8916 -0.5339 -0.3651
 3235TIP3    H2 9670   3.443   3.912   3.603 -0.0426  0.4442 -0.1648
 3236TIP3   OH2 9671   5.661   4.821   0.685  0.0785  0.4702 -0.7327
 3236TIP3    H1 9672   5.751   4.793   0.699  0.2302  1.2015 -0.1507
 3236TIP3    H2 9673   5.649   4.821   0.590  0.0869 -1.4342 -0.7730
 3237TIP3   OH2 9674   3.601   0.861   1.991 -0.0168 -0.4584  0.7602
 3237TIP3    H1 9675   3.619   0.772   1.961 -0.4054 -0.8022  1.5075
 3237TIP3    H2 9676   3.511   0.878   1.962 -0.5914 -0.9959  2.1441
 3238TIP3   OH2 9677   6.962   0.049   2.565  0.0098  0.4444 -0.7677
 3238TIP3    H1 9678   6.919   0.121   2.611 -0.3467  0.0375 -0.4635
 3238TIP3    H2 9679   6.907  -0.027   2.580  1.1197 -0.2239  0.1071
 3239TIP3   OH2 9680   4.985   1.671   5.847  0.6732 -0.5473 -0.2633
 3239TIP3    H1 9681   5.026   1.657   5.761 -0.4135 -0.6792 -0.7779
 3239TIP3    H2 9682   4.928   1.746   5.834  0.3513 -0.6924  0.2921
 3240TIP3   OH2 9683   3.220   2.595   0.880 -0.1571 -0.5464  0.1202
 3240TIP3    H1 9684   3.222   2.584   0.975 -0.1607 -3.0247 -0.1053
 3240TIP3    H2 9685   3.260   2.516   0.846  1.7583  1.2014 -1.9606
 3241TIP3   OH2 9686   0.624   3.631   4.598 -0.3035  0.2309  0.1421
 3241TIP3    H1 9687   0.653   3.552   4.551 -0.1889  0.3661 -0.0125
 3241TIP3    H2 9688   0.592   3.597   4.682 -0.0626  0.0410  0.1588
 3242TIP3   OH2 9689   3.343   5.965   4.590 -0.8503 -0.9180 -0.0979
 3242TIP3    H1 9690   3.285   5.958   4.514 -0.2186 -0.7417 -0.6118
 3242TIP3    H2 9691   3.361   6.059   4.598 -1.6571 -0.8321  0.8570
 3243TIP3   OH2 9692   0.801   3.001   0.728  0.4564 -0.6629 -0.1541
 3243TIP3    H1 9693   0.882   3.021   0.682  0.8409 -0.8367  0.4296
 3243TIP3    H2 9694   0.737   3.062   0.692  1.2253  0.5795  0.5081
 3244TIP3   OH2 9695   2.565   1.430   3.578  0.1226  0.4985  0.6352
 3244TIP3    H1 9696   2.469   1.429   3.579  0.1174 -0.2624  0.1889
 3244TIP3    H2 9697   2.590   1.470   3.661 -0.5866  1.8155  0.2371
 3245TIP3   OH2 9698   0.912   3.334   2.626  0.4818 -0.6204 -0.6942
 3245TIP3    H1 9699   0.887   3.342   2.718  1.0584 -0.2175 -0.5665
 3245TIP3    H2 9700   0.830   3.321   2.580  0.1041 -0.0013 -0.2144
 3246TIP3   OH2 9701   0.350   2.789   0.530 -0.0388 -0.1789 -0.5478
 3246TIP3    H1 9702   0.306   2.872   0.514  1.4263  0.7570  0.1025
 3246TIP3    H2 9703   0.318   2.731   0.461 -0.3131  1.2169 -1.6308
 3247TIP3   OH2 9704   6.282   5.279   1.983  0.0195  0.2614  0.6557
 3247TIP3    H1 9705   6.346   5.226   2.030 -0.3067 -1.1717 -0.4551
 3247TIP3    H2 9706   6.265   5.230   1.903 -2.2057  0.7736  0.7653
 3248TIP3   OH2 9707   5.652   4.629   4.747  0.0300  0.3410 -0.6181
 3248TIP3    H1 9708   5.687   4.636   4.658  0.5399 -2.6402 -0.7761
 3248TIP3    H2 9709   5.558   4.612   4.735  0.4939 -2.7334 -0.8818
 3249TIP3   OH2 9710   4.628   3.173   3.136 -0.0139  0.0746  0.2067
 3249TIP3    H1 9711   4.545   3.210   3.107  0.0451 -0.5465 -0.8045
 3249TIP3    H2 9712   4.680   3.249   3.163 -0.9332  0.4550  0.9409
 3250TIP3   OH2 9713   4.162   0.728   3.591  0.5874  0.4014 -0.2437
 3250TIP3    H1 9714   4.114   0.801   3.631  0.7022 -0.1670  0.9728
 3250TIP3    H2 9715   4.170   0.753   3.499 -0.4455  1.3557 -0.1062
 3251TIP3   OH2 9716   7.139   3.142   3.620 -0.4381  0.5702  0.0805
 3251TIP3    H1 9717   7.211   3.180   3.670  0.6353 -0.4627 -0.6250
 3251TIP3    H2 9718   7.161   3.049   3.614 -1.6572  0.2976 -0.4568
 3252TIP3   OH2 9719   0.729   0.675   2.731 -0.2699  0.3491  0.4042
 3252TIP3    H1 9720   0.654   0.732   2.717  0.2573  1.1043  0.6270
 3252TIP3    H2 9721   0.802   0.734   2.747  0.1990 -0.3893  1.0724
 3253TIP3   OH2 9722   6.679   3.406   0.119 -0.2139 -0.2201  0.0149
 3253TIP3    H1 9723   6.683   3.417   0.024  2.2666  3.3047  0.3381
 3253TIP3    H2 9724   6.636   3.485   0.151  0.4634 -0.5601  1.9304
 3254TIP3   OH2 9725   0.693   1.636   2.986  0.2585  0.0055  0.3567
 3254TIP3    H1 9726   0.778   1.658   2.949 -0.2487 -0.0108 -0.8543
 3254TIP3    H2 9727   0.703   1.546   3.019  0.2791 -0.5763 -1.1821
 3255TIP3   OH2 9728   4.070   5.315   5.483  0.1935  0.2384 -0.3917
 3255TIP3    H1 9729   4.047   5.227   5.514 -0.8910  0.6580  0.0771
 3255TIP3    H2 9730   4.164   5.312   5.470  0.3646 -0.6437  0.7931
 3256TIP3   OH2 9731   2.278   5.891   5.399  0.0359  0.1392 -0.1232
 3256TIP3    H1 9732   2.365   5.924   5.378  0.8416 -0.7507  1.5676
 3256TIP3    H2 9733   2.262   5.822   5.335  0.3170  0.6733 -0.7881
 3257TIP3   OH2 9734   6.588   6.548   3.896 -0.0820 -0.4631 -0.0678
 3257TIP3    H1 9735   6.670   6.500   3.905  0.1580 -0.2985 -1.2013
 3257TIP3    H2 9736   6.614   6.636   3.871 -0.5864 -0.2833  0.0202
 3258TIP3   OH2 9737   1.030   4.070   5.254 -0.4795 -0.2854  0.8952
 3258TIP3    H1 9738   1.061   4.139   5.312 -0.9789  0.4113  0.3529
 3258TIP3    H2 9739   0.936   4.064   5.271 -0.6155 -0.1376  0.2330
 3259TIP3   OH2 9740   5.366   0.177   3.360 -0.1889  0.4199  0.4446
 3259TIP3    H1 9741   5.323   0.228   3.292 -1.0691 -0.7884  0.0517
 3259TIP3    H2 9742   5.309   0.185   3.437 -1.1545 -1.1309 -0.0577
 3260TIP3   OH2 9743   5.455   2.315   2.397 -0.5240  0.4433  0.0448
 3260TIP3    H1 9744   5.542   2.343   2.369 -0.3075 -1.3498 -1.2328
 3260TIP3    H2 9745   5.471   2.241   2.456 -1.1143  2.1789  2.5265
 3261TIP3   OH2 9746   5.753   0.366   4.090 -0.2819 -0.7142 -0.4920
 3261TIP3    H1 9747   5.783   0.324   4.170 -0.0014 -1.5585 -1.0251
 3261TIP3    H2 9748   5.762   0.298   4.022 -0.6016 -0.0505 -1.2181
 3262TIP3   OH2 9749   2.515   0.456   5.382  0.2345 -0.6837 -0.0678
 3262TIP3    H1 9750   2.592   0.421   5.338  0.3215  1.1367 -1.5373
 3262TIP3    H2 9751   2.448   0.460   5.313 -0.8576 -1.2702  0.9219
 3263TIP3   OH2 9752   6.517   3.423   5.399 -0.2120 -0.5875 -0.0605
 3263TIP3    H1 9753   6.500   3.431   5.305 -1.0021 -0.9546  0.0409
 3263TIP3    H2 9754   6.542   3.511   5.427  0.6163 -0.6025 -0.7224
 3264TIP3   OH2 9755   6.152   0.697   5.610 -0.1681 -0.3642  0.5823
 3264TIP3    H1 9756   6.189   0.686   5.523 -0.0263 -1.3478  0.7572
 3264TIP3    H2 9757   6.058   0.689   5.597 -0.4926  2.8232  0.0274
 3265TIP3   OH2 9758   0.334   1.535   1.760 -0.1740 -0.2807 -0.0597
 3265TIP3    H1 9759   0.278   1.510   1.833  0.4344 -0.0284  0.5089
 3265TIP3    H2 9760   0.405   1.471   1.760  1.0259  0.9722  0.9827
 3266TIP3   OH2 9761   1.343   2.041   1.739 -0.2445  0.2346 -0.4281
 3266TIP3    H1 9762   1.368   2.128   1.771 -0.5588 -0.3406  1.5085
 3266TIP3    H2 9763   1.425   1.991   1.740 -0.2588  0.2105 -0.4832
 3267TIP3   OH2 9764   4.759   3.044   5.527 -0.0252  0.3813  0.3620
 3267TIP3    H1 9765   4.664   3.039   5.540  0.0736  1.7625  1.9332
 3267TIP3    H2 9766   4.796   3.001   5.603  0.6214  0.4306  0.0794
 3268TIP3   OH2 9767   4.503   1.092   4.153 -0.0501 -0.3967  0.1229
 3268TIP3    H1 9768   4.448   1.014   4.150  0.2118 -0.6098  0.7000
 3268TIP3    H2 9769   4.586   1.062   4.189 -0.0455  0.2011  0.6300
 3269TIP3   OH2 9770   2.935   0.580   4.600 -0.7132 -0.5998  0.5465
 3269TIP3    H1 9771   2.963   0.592   4.509  0.7422 -1.3276  0.8683
 3269TIP3    H2 9772   3.016   0.562   4.648 -1.3561  0.4504  2.1252
 3270TIP3   OH2 9773   2.926   1.600   5.659  0.3024  0.2094  0.5301
 3270TIP3    H1 9774   2.887   1.532   5.605 -1.6726 -0.9053  3.1044
 3270TIP3    H2 9775   2.901   1.683   5.617  0.3493 -0.6066 -1.1452
 3271TIP3   OH2 9776   3.845   4.207   0.663  0.0011  0.6082 -0.4943
 3271TIP3    H1 9777   3.875   4.297   0.679  1.6532 -0.0800  0.5478
 3271TIP3    H2 9778   3.916   4.152   0.697 -2.3792 -1.1664  2.0563
 3272TIP3   OH2 9779   6.873   4.375   3.881  0.5634 -0.2661 -0.2333
 3272TIP3    H1 9780   6.930   4.318   3.829  1.7414 -1.2520  2.0382
 3272TIP3    H2 9781   6.794   4.384   3.828  1.4014 -1.8154 -1.8484
 3273TIP3   OH2 9782   1.563   2.674   0.783  0.2999 -0.4225  0.8272
 3273TIP3    H1 9783   1.543   2.663   0.876  0.5390  0.4667  0.9972
 3273TIP3    H2 9784   1.521   2.600   0.740  0.9658 -1.3628  1.7473
 3274TIP3   OH2 9785   4.993   6.034   0.429  0.0013  0.0154  0.0402
 3274TIP3    H1 9786   4.979   5.958   0.487  0.4186 -1.9593 -2.3000
 3274TIP3    H2 9787   5.085   6.029   0.405 -0.2533  0.5751 -1.0925
 3275TIP3   OH2 9788   6.384   3.308   4.533 -0.1090 -0.0344 -0.4147
 3275TIP3    H1 9789   6.337   3.368   4.591  1.4929  1.1071 -0.2438
 3275TIP3    H2 9790   6.321   3.289   4.463 -0.7794  1.6271 -0.3153
 3276TIP3   OH2 9791   6.361   5.269   2.730 -0.1306  0.1438  0.3525
 3276TIP3    H1 9792   6.363   5.364   2.721  1.3378  0.1552  0.5779
 3276TIP3    H2 9793   6.330   5.237   2.646 -0.9617  0.8250  0.3862
 3277TIP3   OH2 9794   5.847   3.028   0.908 -0.0714 -0.2982  0.4096
 3277TIP3    H1 9795   5.778   2.988   0.856  0.6725 -0.8162 -0.1885
 3277TIP3    H2 9796   5.836   3.122   0.894 -0.7856 -0.3569  0.5061
 3278TIP3   OH2 9797   1.469   5.054   5.769 -0.8835 -0.7382 -0.5154
 3278TIP3    H1 9798   1.560   5.061   5.797 -0.4691 -1.8634 -1.5120
 3278TIP3    H2 9799   1.462   5.115   5.695 -1.2121  0.0681  0.1646
 3279TIP3   OH2 9800   4.623   5.575   5.402 -0.1617 -0.5696  0.5115
 3279TIP3    H1 9801   4.626   5.670   5.407 -1.3020 -0.4751 -0.0491
 3279TIP3    H2 9802   4.677   5.552   5.326  1.4756 -0.5179  1.6306
 3280TIP3   OH2 9803   0.960   3.902   2.808  0.1132  0.1043  0.0215
 3280TIP3    H1 9804   1.047   3.884   2.843 -0.5759 -2.7852  0.5451
 3280TIP3    H2 9805   0.963   3.871   2.718 -0.3729 -0.1081  0.0721
 3281TIP3   OH2 9806   4.904   1.312   2.327  0.7550  0.2160  0.3206
 3281TIP3    H1 9807   4.920   1.308   2.422 -0.4192 -1.8563  0.5040
 3281TIP3    H2 9808   4.977   1.262   2.290  0.1893 -0.6442  0.3292
 3282TIP3   OH2 9809   4.255   6.373   3.763 -0.6332 -0.1949 -0.6627
 3282TIP3    H1 9810   4.343   6.338   3.778 -0.2670  1.1692  0.6551
 3282TIP3    H2 9811   4.227   6.333   3.680  1.3749 -0.3749 -1.3202
 3283TIP3   OH2 9812   2.836   3.125   3.291 -0.2379  0.3539  0.2656
 3283TIP3    H1 9813   2.879   3.210   3.284 -0.2580  0.2820 -1.0658
 3283TIP3    H2 9814   2.890   3.075   3.351  0.7982  0.7089 -0.3491
 3284TIP3   OH2 9815   2.185   4.958   2.296  0.3370 -0.3466 -0.2093
 3284TIP3    H1 9816   2.164   5.051   2.291 -1.4624 -0.7190 -0.2394
 3284TIP3    H2 9817   2.247   4.944   2.224  0.0260  0.6780 -0.7009
 3285TIP3   OH2 9818   3.496   0.847   3.585  0.0444  0.2616 -0.6772
 3285TIP3    H1 9819   3.589   0.830   3.601 -0.5182 -0.0970  3.1512
 3285TIP3    H2 9820   3.452   0.766   3.610 -1.4523  1.4260  0.6392
 3286TIP3   OH2 9821   5.755   3.676   2.216 -0.6804  0.2781 -0.3243
 3286TIP3    H1 9822   5.739   3.691   2.123 -0.4713  1.8613 -0.1350
 3286TIP3    H2 9823   5.685   3.724   2.260  0.5087  1.4474  0.3584
 3287TIP3   OH2 9824   5.148   6.460   4.687 -0.2954  0.5261  0.0955
 3287TIP3    H1 9825   5.106   6.503   4.613 -1.8213  0.6155  0.9909
 3287TIP3    H2 9826   5.076   6.424   4.738  0.3862  3.2701  3.3412
 3288TIP3   OH2 9827   6.992   6.284   4.647 -0.2130  0.0543 -0.0682
 3288TIP3    H1 9828   6.986   6.291   4.552  0.3359  0.7059 -0.0656
 3288TIP3    H2 9829   6.901   6.277   4.677 -0.4355  0.6852 -0.5801
 3289TIP3   OH2 9830   6.518   1.372   1.353 -0.8544 -0.5881 -0.3593
 3289TIP3    H1 9831   6.457   1.313   1.310 -1.3098 -0.7026  0.4297
 3289TIP3    H2 9832   6.598   1.320   1.364  0.2313  0.2628 -3.4663
 3290TIP3   OH2 9833   4.354   1.327   4.125 -0.2439 -0.3928  0.3178
 3290TIP3    H1 9834   4.401   1.244   4.127  0.4544 -0.0964 -1.4176
 3290TIP3    H2 9835   4.417   1.389   4.087 -1.0752  0.7108  0.6813
 3291TIP3   OH2 9836   4.890   5.905   5.331  0.2429  0.2107 -0.4132
 3291TIP3    H1 9837   4.959   5.966   5.356  0.0036  0.6222 -0.7578
 3291TIP3    H2 9838   4.938   5.828   5.299  0.5493 -0.1690  0.8891
 3292TIP3   OH2 9839   0.843   6.248   2.434  0.2197 -0.5519  0.0244
 3292TIP3    H1 9840   0.807   6.197   2.362  0.1076 -0.2791 -0.1119
 3292TIP3    H2 9841   0.883   6.325   2.393  0.6164 -0.6551  0.2052
 3293TIP3   OH2 9842   6.313   3.346   1.403 -0.0479  0.6180 -0.1846
 3293TIP3    H1 9843   6.266   3.267   1.378 -0.1702  0.2436  1.1314
 3293TIP3    H2 9844   6.373   3.363   1.330  0.9024 -1.4354  0.0579
 3294TIP3   OH2 9845   4.617   3.767   0.231 -0.1953  0.5812 -0.5055
 3294TIP3    H1 9846   4.669   3.819   0.169  0.2294  2.0921  1.0550
 3294TIP3    H2 9847   4.603   3.826   0.305 -2.2612 -0.5596  0.0633
 3295TIP3   OH2 9848   0.309   0.480   2.989  0.1038 -0.3475 -0.2546
 3295TIP3    H1 9849   0.245   0.425   2.944 -0.1664  0.6984 -1.1863
 3295TIP3    H2 9850   0.393   0.440   2.969  0.0790  0.6363 -2.5427
 3296TIP3   OH2 9851   2.643   1.360   1.487  0.1110  0.0353 -0.4440
 3296TIP3    H1 9852   2.732   1.349   1.518  1.2246  1.2486 -2.9075
 3296TIP3    H2 9853   2.588   1.330   1.559  2.4839 -0.7702  1.1362
 3297TIP3   OH2 9854   1.483   4.021   5.324 -0.2456 -0.3830  0.3954
 3297TIP3    H1 9855   1.456   3.930   5.320  2.5145 -1.2294 -0.4124
 3297TIP3    H2 9856   1.508   4.035   5.416  0.9172 -0.9653  0.1817
 3298TIP3   OH2 9857   3.300   0.906   1.947  0.2142 -0.3152 -0.7000
 3298TIP3    H1 9858   3.309   0.980   1.888  0.1754  0.3301  0.0840
 3298TIP3    H2 9859   3.234   0.934   2.011  1.3363 -0.3909  0.5390
 3299TIP3   OH2 9860   0.381   2.412   5.404 -0.7369 -0.4057 -0.5499
 3299TIP3    H1 9861   0.416   2.325   5.386 -0.4205 -0.6648  1.1483
 3299TIP3    H2 9862   0.380   2.456   5.319  0.3385 -1.6169 -1.2143
 3300TIP3   OH2 9863   0.846   1.367   4.685 -0.3296  0.2763 -0.5996
 3300TIP3    H1 9864   0.884   1.286   4.649 -0.0342  0.2033 -0.1341
 3300TIP3    H2 9865   0.883   1.437   4.631 -0.7389  0.0942 -1.1333
 3301TIP3   OH2 9866   3.937   1.252   3.637 -0.0276  0.3309 -0.1456
 3301TIP3    H1 9867   3.871   1.226   3.573  0.4052 -0.4551 -0.2839
 3301TIP3    H2 9868   3.913   1.207   3.717 -0.2559  0.8822  0.1001
 3302TIP3   OH2 9869   1.698   6.388   0.756  0.7155  0.6468  0.5719
 3302TIP3    H1 9870   1.745   6.322   0.809  1.4717 -0.3668 -1.2719
 3302TIP3    H2 9871   1.667   6.339   0.680 -2.2764  1.5919  1.0794
 3303TIP3   OH2 9872   4.874   2.259   4.187  0.2622 -0.2032  1.2202
 3303TIP3    H1 9873   4.870   2.171   4.150 -1.7255  0.8415 -1.4114
 3303TIP3    H2 9874   4.946   2.301   4.140 -0.0856  0.1194  0.9593
 3304TIP3   OH2 9875   2.578   3.887   1.243  0.0987 -0.0313 -0.0450
 3304TIP3    H1 9876   2.617   3.972   1.264  0.2147  0.4761 -2.0967
 3304TIP3    H2 9877   2.484   3.906   1.234  0.0293 -0.2760  0.1455
 3305TIP3   OH2 9878   2.186   2.055   4.487 -0.3580 -0.4843  0.9020
 3305TIP3    H1 9879   2.252   2.116   4.521 -0.3456 -0.2271  0.4378
 3305TIP3    H2 9880   2.220   1.968   4.508  0.0350 -0.3488  0.8392
 3306TIP3   OH2 9881   1.521   5.180   3.893  0.0038 -0.1246 -0.0737
 3306TIP3    H1 9882   1.605   5.140   3.915  0.8673  0.5241 -1.9173
 3306TIP3    H2 9883   1.502   5.147   3.805 -0.3617  1.7385 -0.7287
 3307TIP3   OH2 9884   2.043   0.308   1.149 -0.6194 -0.1134 -0.2938
 3307TIP3    H1 9885   1.984   0.319   1.223 -1.1319 -1.9520 -0.3914
 3307TIP3    H2 9886   2.035   0.216   1.125  0.7026  0.0891 -1.6611
 3308TIP3   OH2 9887   4.710   4.706   0.251 -0.4648 -0.4919 -0.1714
 3308TIP3    H1 9888   4.695   4.785   0.198 -2.4038 -0.0334  0.9803
 3308TIP3    H2 9889   4.633   4.652   0.237 -0.2254 -1.1285  0.8493
 3309TIP3   OH2 9890   2.084   5.380   4.247  0.0416 -0.2120 -0.0128
 3309TIP3    H1 9891   2.159   5.440   4.249 -0.2440  0.1946 -0.8474
 3309TIP3    H2 9892   2.021   5.422   4.187  0.4290 -2.0032 -1.8052
 3310TIP3   OH2 9893   5.554   6.542   4.789 -0.5926 -0.0191  0.1618
 3310TIP3    H1 9894   5.542   6.526   4.695 -0.5684 -0.3313  0.2120
 3310TIP3    H2 9895   5.545   6.637   4.798 -0.2427  0.0549 -0.2127
 3311TIP3   OH2 9896   1.739   4.284   2.778  0.6836  0.1386  0.0467
 3311TIP3    H1 9897   1.815   4.338   2.801  0.4743 -0.3271  2.0364
 3311TIP3    H2 9898   1.765   4.195   2.800 -0.0301 -0.1733 -0.3376
 3312TIP3   OH2 9899   1.529   1.549   3.092 -0.0039  0.1718 -0.4484
 3312TIP3    H1 9900   1.612   1.596   3.089  0.4703 -0.6942 -1.3619
 3312TIP3    H2 9901   1.547   1.466   3.049 -1.1893 -0.2862 -0.0978
 3313TIP3   OH2 9902   5.484   5.615   1.239 -0.4035 -0.1473  0.1664
 3313TIP3    H1 9903   5.500   5.644   1.329  1.2760  2.4200 -0.8360
 3313TIP3    H2 9904   5.555   5.553   1.221  0.1185  0.4186  0.2173
 3314TIP3   OH2 9905   2.012   6.124   5.169 -0.6196  0.2205 -0.4405
 3314TIP3    H1 9906   2.093   6.082   5.143 -1.4945 -0.0555 -2.9727
 3314TIP3    H2 9907   2.017   6.130   5.264  1.1017 -2.3591 -0.2837
 3315TIP3   OH2 9908   3.427   6.599   1.914 -0.8478  0.1662 -0.1201
 3315TIP3    H1 9909   3.349   6.635   1.958 -1.7459 -1.8977  0.0797
 3315TIP3    H2 9910   3.453   6.525   1.969  2.0226  1.4711  0.4717
 3316TIP3   OH2 9911   0.153   0.198   4.930 -0.3213  0.1410  0.6067
 3316TIP3    H1 9912   0.233   0.231   4.972  0.4560 -0.1712 -0.5597
 3316TIP3    H2 9913   0.157   0.234   4.841 -1.5418  0.1899  0.5612
 3317TIP3   OH2 9914   3.333   2.655   4.875  0.3567  0.1324  0.3724
 3317TIP3    H1 9915   3.389   2.719   4.918 -1.3212  1.2807  0.9335
 3317TIP3    H2 9916   3.277   2.621   4.945 -0.8127  0.2754 -0.4724
 3318TIP3   OH2 9917   3.320   6.476   0.176 -0.2689 -0.5310  0.5717
 3318TIP3    H1 9918   3.297   6.384   0.163 -0.9657 -0.4482  1.1518
 3318TIP3    H2 9919   3.238   6.518   0.204  0.6522 -0.3601  3.3153
 3319TIP3   OH2 9920   2.941   0.197   5.483  0.4032 -0.0372 -0.0446
 3319TIP3    H1 9921   3.031   0.185   5.453  1.0416 -0.4501  1.8958
 3319TIP3    H2 9922   2.946   0.271   5.544 -0.8539  0.8207 -0.9234
 3320TIP3   OH2 9923   0.864   3.390   2.880 -0.0149  0.2780 -0.2175
 3320TIP3    H1 9924   0.947   3.436   2.894 -0.0781  0.6220 -0.8927
 3320TIP3    H2 9925   0.797   3.458   2.894 -0.2116 -0.1188  0.8177
 3321TIP3   OH2 9926   5.895   4.211   2.268 -0.1488 -0.3680  0.1040
 3321TIP3    H1 9927   5.936   4.173   2.345  0.8475 -1.4781 -0.9210
 3321TIP3    H2 9928   5.969   4.245   2.216 -0.7970  0.4063 -0.3385
 3322TIP3   OH2 9929   1.420   3.181   2.023 -0.0067  0.0059  0.4983
 3322TIP3    H1 9930   1.358   3.240   2.066  1.0234  0.5074  1.3637
 3322TIP3    H2 9931   1.393   3.094   2.051 -1.0467  0.1039 -0.1283
 3323TIP3   OH2 9932   5.252   4.759   4.527  0.6141 -0.0016  0.3343
 3323TIP3    H1 9933   5.262   4.723   4.615  1.2393 -0.5627  0.0341
 3323TIP3    H2 9934   5.157   4.761   4.513  0.5584 -2.2267  0.0790
 3324TIP3   OH2 9935   2.670   1.998   3.999  0.1025 -0.2316 -0.0302
 3324TIP3    H1 9936   2.584   1.997   4.041 -0.9044 -0.7664 -1.9906
 3324TIP3    H2 9937   2.693   1.905   3.989 -0.7835 -0.2457 -2.6656
 3325TIP3   OH2 9938   6.317   3.178   0.332 -0.4309 -0.1300 -0.2021
 3325TIP3    H1 9939   6.336   3.095   0.377 -0.0228  0.0837  0.0197
 3325TIP3    H2 9940   6.320   3.155   0.239 -0.3859 -0.3803 -0.1415
 3326TIP3   OH2 9941   5.444   4.604   1.520 -0.1029  0.2554  0.7950
 3326TIP3    H1 9942   5.401   4.689   1.522 -0.5636  0.0705 -0.3677
 3326TIP3    H2 9943   5.373   4.541   1.524  0.0484 -0.0510 -0.7500
 3327TIP3   OH2 9944   4.157   5.685   3.963 -0.2219  0.1308  0.4664
 3327TIP3    H1 9945   4.173   5.612   3.904  0.4700 -1.0023  1.9918
 3327TIP3    H2 9946   4.236   5.690   4.017 -0.1038  2.2370  0.1901
 3328TIP3   OH2 9947   0.960   4.179   2.879  0.1593 -0.1516 -0.1182
 3328TIP3    H1 9948   1.000   4.093   2.863 -0.4426 -0.0634 -2.6275
 3328TIP3    H2 9949   0.904   4.166   2.955  0.7666 -1.7381  0.1038
 3329TIP3   OH2 9950   4.674   2.156   3.577 -0.0958  0.3405  0.1369
 3329TIP3    H1 9951   4.739   2.110   3.524  1.3429 -0.5316  2.5080
 3329TIP3    H2 9952   4.706   2.246   3.581  1.3743 -0.2001  1.7421
 3330TIP3   OH2 9953   0.788   0.284   2.428 -0.5376  0.3757 -0.3236
 3330TIP3    H1 9954   0.751   0.333   2.502 -0.2813 -0.4329  0.3626
 3330TIP3    H2 9955   0.881   0.308   2.427 -0.2006 -0.7612  0.6090
 3331TIP3   OH2 9956   2.607   1.059   1.788 -0.4222 -0.1983 -0.1234
 3331TIP3    H1 9957   2.632   1.016   1.705 -0.1221 -2.6757  1.1405
 3331TIP3    H2 9958   2.684   1.110   1.812  0.8406 -2.1240  0.2029
 3332TIP3   OH2 9959   1.239   3.589   1.087 -0.4441  0.5522  0.0437
 3332TIP3    H1 9960   1.316   3.567   1.139 -0.0634  1.0570 -0.3046
 3332TIP3    H2 9961   1.176   3.519   1.107  0.4032 -0.3412 -0.3058
 3333TIP3   OH2 9962   3.760   2.576   3.038  0.2718  0.1430  0.2904
 3333TIP3    H1 9963   3.854   2.594   3.027  0.2142  0.5256  0.3991
 3333TIP3    H2 9964   3.736   2.525   2.961  0.4443  0.5409 -0.0353
 3334TIP3   OH2 9965   5.292   5.155   2.951 -0.1686 -0.3837 -0.3355
 3334TIP3    H1 9966   5.265   5.247   2.947  0.8074  0.1097  2.1611
 3334TIP3    H2 9967   5.385   5.157   2.927  0.4173 -0.3134  1.6972
 3335TIP3   OH2 9968   2.773   2.415   3.482 -0.2452 -0.1123  0.1234
 3335TIP3    H1 9969   2.730   2.423   3.397 -1.9150  1.0997  1.0270
 3335TIP3    H2 9970   2.702   2.421   3.546  1.1227  0.5642  1.6523
 3336TIP3   OH2 9971   3.045   4.488   3.334 -0.1148  0.5051 -0.7455
 3336TIP3    H1 9972   2.990   4.434   3.391 -0.9418  2.9171  0.8998
 3336TIP3    H2 9973   3.134   4.474   3.366 -0.4615  1.0349  0.5182
 3337TIP3   OH2 9974   1.003   2.813   4.139  0.1586  0.1478  0.1607
 3337TIP3    H1 9975   1.080   2.829   4.084 -0.4909 -0.7512 -1.0738
 3337TIP3    H2 9976   0.959   2.898   4.142 -0.8495 -0.1827 -2.4760
 3338TIP3   OH2 9977   6.072   1.855   0.535  0.1398  0.4261  0.1116
 3338TIP3    H1 9978   6.013   1.886   0.604  0.0536  1.0244 -0.2273
 3338TIP3    H2 9979   6.121   1.784   0.577 -0.8817 -0.1446  0.3634
 3339TIP3   OH2 9980   4.555   3.773   2.263 -0.4272 -0.4708  0.2849
 3339TIP3    H1 9981   4.645   3.800   2.281 -0.9406  2.7982 -1.3228
 3339TIP3    H2 9982   4.561   3.712   2.189  0.4786 -1.0637  0.8325
 3340TIP3   OH2 9983   3.031   4.089   2.385 -0.6162 -0.1947  0.4467
 3340TIP3    H1 9984   3.032   4.181   2.410  1.3248 -0.5000  1.7572
 3340TIP3    H2 9985   3.058   4.043   2.465  1.5338 -1.6176 -0.9801
 3341TIP3   OH2 9986   2.096   2.372   2.911  0.4218  0.4665  0.4326
 3341TIP3    H1 9987   2.013   2.417   2.895  0.7037  1.9470  2.8008
 3341TIP3    H2 9988   2.163   2.429   2.873  0.6117  1.0701  1.6336
 3342TIP3   OH2 9989   0.945   6.296   1.770  0.2695  0.3288 -0.1012
 3342TIP3    H1 9990   0.907   6.310   1.683  0.2941  2.3016  0.1569
 3342TIP3    H2 9991   0.927   6.378   1.817  0.5224 -0.5863  1.6588
 3343TIP3   OH2 9992   2.068   2.427   0.248  0.1454  0.1451  0.0236
 3343TIP3    H1 9993   2.019   2.391   0.322  0.0845 -1.2804 -0.6739
 3343TIP3    H2 9994   2.036   2.517   0.240 -1.3118 -0.2943  0.5095
 3344TIP3   OH2 9995   0.884   2.238   1.114  0.1578  0.4531  0.3575
 3344TIP3    H1 9996   0.959   2.219   1.171  2.1151  1.3056 -1.7944
 3344TIP3    H2 9997   0.894   2.178   1.041 -1.5040  0.3438  0.1879
 3345TIP3   OH2 9998   0.927   6.474   5.455  0.7993 -0.1561 -0.0542
 3345TIP3    H1 9999   0.938   6.420   5.377 -0.7827  0.2810 -0.6215
 3345TIP3    H210000   0.927   6.564   5.422  0.3935  0.0517  0.4891
 3346TIP3   OH210001   0.519   4.781   5.365  0.6640  0.1052  0.1904
 3346TIP3    H110002   0.553   4.833   5.292  0.7628 -0.4638 -0.1815
 3346TIP3    H210003   0.574   4.805   5.439  1.1488  0.0344 -0.1411
 3347TIP3   OH210004   6.279   5.512   5.417 -0.2556  0.1272  0.2983
 3347TIP3    H110005   6.214   5.468   5.472 -0.2489 -0.2770 -0.0164
 3347TIP3    H210006   6.269   5.472   5.331 -0.9335  1.4291 -0.2552
 3348TIP3   OH210007   2.269   1.622   1.737  0.1554  0.7255 -0.7283
 3348TIP3    H110008   2.308   1.607   1.823 -1.7209  1.9687  0.3862
 3348TIP3    H210009   2.221   1.541   1.718 -0.1506  0.7786 -0.1937
 3349TIP3   OH210010   2.581   3.231   2.964  0.4149 -0.6128  0.0464
 3349TIP3    H110011   2.551   3.307   3.013  0.1173 -1.9081  1.9573
 3349TIP3    H210012   2.617   3.268   2.883  0.2256  1.5387  0.8779
 3350TIP3   OH210013   4.363   3.008   1.189  0.2734 -0.4113 -0.0042
 3350TIP3    H110014   4.329   2.979   1.104  1.2462  0.3638 -0.6868
 3350TIP3    H210015   4.454   2.978   1.189  0.9916  1.6098 -0.2765
 3351TIP3   OH210016   1.486   3.459   0.005  0.2953 -0.4306  0.4369
 3351TIP3    H110017   1.560   3.448   0.066 -0.0380 -0.9084  0.7622
 3351TIP3    H210018   1.489   3.552  -0.019  1.1267 -0.4848  0.2873
 3352TIP3   OH210019   2.961   3.980   0.508 -0.2135  0.8467 -0.3208
 3352TIP3    H110020   2.874   4.001   0.541  0.6249  3.0178  0.6861
 3352TIP3    H210021   2.964   4.021   0.421 -0.7582 -0.7282 -1.1134
 3353TIP3   OH210022   4.669   5.776   2.988 -0.4192 -0.3185 -0.2718
 3353TIP3    H110023   4.685   5.821   2.905 -0.8564  0.3758  0.0150
 3353TIP3    H210024   4.729   5.701   2.985  1.8285  1.3320  0.0800
 3354TIP3   OH210025   2.074   0.181   0.487 -0.6059 -0.0086 -0.7261
 3354TIP3    H110026   2.100   0.272   0.472  3.1317 -0.7390  0.3179
 3354TIP3    H210027   2.072   0.142   0.399  1.3588  0.3116 -0.9538
 3355TIP3   OH210028   1.614   3.112   5.406  0.2762 -0.0868  0.3886
 3355TIP3    H110029   1.705   3.119   5.377 -0.5933 -0.7708 -2.9045
 3355TIP3    H210030   1.604   3.021   5.432  0.5740  0.0409  0.9573
 3356TIP3   OH210031   5.461   5.021   5.277 -0.6240  0.0934  0.1670
 3356TIP3    H110032   5.545   4.980   5.299 -0.1394  1.1212  0.2677
 3356TIP3    H210033   5.484   5.109   5.250 -1.5791  0.0368 -0.8776
 3357TIP3   OH210034   5.720   4.738   0.231 -0.0584  0.1080  0.3091
 3357TIP3    H110035   5.793   4.679   0.249  0.6482  1.2276  1.2644
 3357TIP3    H210036   5.754   4.800   0.167 -0.8168 -0.5268 -0.7369
 3358TIP3   OH210037   4.674   0.817   5.588 -0.5228 -0.0720  0.6999
 3358TIP3    H110038   4.695   0.758   5.516  1.7846  0.6984  0.6441
 3358TIP3    H210039   4.728   0.786   5.661  0.2025  1.4713  0.8700
 3359TIP3   OH210040   0.009   6.045   4.008 -0.4471 -0.8774 -0.3201
 3359TIP3    H110041   0.079   5.995   3.966  0.7921  1.2010 -0.8698
 3359TIP3    H210042   0.055   6.111   4.060 -2.0073 -0.2597  0.3300
 3360TIP3   OH210043   2.611   5.217   2.390 -0.0057 -0.1746 -0.1328
 3360TIP3    H110044   2.606   5.305   2.352 -1.6085  0.8293  2.1348
 3360TIP3    H210045   2.679   5.224   2.457 -0.5854 -0.4410  0.4947
 3361TIP3   OH210046   5.128   5.560   5.044  0.5627  0.2709 -0.0332
 3361TIP3    H110047   5.207   5.611   5.026  1.5612 -1.4077 -0.5989
 3361TIP3    H210048   5.114   5.508   4.965 -0.5603 -0.1718  0.4337
 3362TIP3   OH210049   1.889   1.156   0.722 -0.6807  0.0899  0.4256
 3362TIP3    H110050   1.813   1.115   0.682 -2.1376  1.7265  1.3310
 3362TIP3    H210051   1.915   1.096   0.792  0.3332 -1.5655 -1.2713
 3363TIP3   OH210052   2.888   6.784   5.491  0.4329  0.2043  0.1722
 3363TIP3    H110053   2.874   6.707   5.546  0.8266  0.4590  0.6368
 3363TIP3    H210054   2.856   6.857   5.544 -0.5232  0.2990 -0.5126
 3364TIP3   OH210055   1.027   3.783   1.359  0.4266  0.5507 -0.0033
 3364TIP3    H110056   1.048   3.811   1.270  0.3705  1.4755  0.2627
 3364TIP3    H210057   1.000   3.691   1.350  1.7044  0.2298 -0.7524
 3365TIP3   OH210058   4.719   6.411   0.073  0.1577 -0.2741  0.2974
 3365TIP3    H110059   4.711   6.488   0.017  2.0685  0.5870  1.0996
 3365TIP3    H210060   4.769   6.349   0.020 -2.6159 -1.6499 -0.9143
 3366TIP3   OH210061   4.576   1.923   0.627 -0.3845 -0.1883  0.0512
 3366TIP3    H110062   4.622   1.876   0.697  1.2813  2.2011  0.6980
 3366TIP3    H210063   4.637   1.991   0.600 -2.5688  1.5041 -0.9440
 3367TIP3   OH210064   1.077   4.957   4.536  0.1715  0.1040 -0.4485
 3367TIP3    H110065   1.072   4.862   4.549  1.5003 -0.2395 -2.0293
 3367TIP3    H210066   1.123   4.990   4.614 -1.7036 -0.2889  0.8806
 3368TIP3   OH210067   4.807   3.156   4.455 -0.0782 -0.0847 -0.1548
 3368TIP3    H110068   4.876   3.222   4.460 -1.2772  1.1358  1.1279
 3368TIP3    H210069   4.747   3.189   4.388 -1.2826  0.7732  1.3022
 3369TIP3   OH210070   0.743   3.661   3.551 -0.1543 -0.4415 -0.5322
 3369TIP3    H110071   0.743   3.622   3.638 -3.0506 -0.2577 -0.3390
 3369TIP3    H210072   0.669   3.723   3.553  0.3828  0.3564 -2.7872
 3370TIP3   OH210073   5.947   6.529   2.990  0.4446 -0.0421  0.0827
 3370TIP3    H110074   6.039   6.552   2.998  0.3138  0.0246  1.6448
 3370TIP3    H210075   5.901   6.594   3.042 -0.3655 -0.8886  0.4645
 3371TIP3   OH210076   1.380   6.671   1.101 -0.1077 -0.5901  1.1489
 3371TIP3    H110077   1.313   6.618   1.143 -0.2726 -0.7486  0.6976
 3371TIP3    H210078   1.411   6.616   1.028  2.9460 -2.0265  3.3241
 3372TIP3   OH210079   4.477   0.860   0.490 -0.0369  0.2244  0.3121
 3372TIP3    H110080   4.506   0.951   0.498  1.4276 -0.1701 -0.0236
 3372TIP3    H210081   4.386   0.866   0.462  1.0152  1.7106 -3.5701
 3373TIP3   OH210082   6.354   3.615   1.003  1.0014  0.3784  0.2148
 3373TIP3    H110083   6.436   3.617   0.954  0.4357  1.3921 -0.7251
 3373TIP3    H210084   6.299   3.551   0.958  1.7383 -1.3786  1.6826
 3374TIP3   OH210085   1.809   5.492   2.601 -0.2234 -0.4031 -0.2103
 3374TIP3    H110086   1.826   5.547   2.677 -1.2454  0.3946 -0.5348
 3374TIP3    H210087   1.880   5.514   2.540  0.4428 -0.8488  0.3932
 3375TIP3   OH210088   4.364   5.275   2.681 -0.6156 -0.7941  0.1235
 3375TIP3    H110089   4.452   5.295   2.649 -0.8730 -1.3412 -1.0020
 3375TIP3    H210090   4.366   5.295   2.774  0.6688 -0.6979  0.0850
 3376TIP3   OH210091   5.324   2.617   2.413  0.2671  0.6157  0.0941
 3376TIP3    H110092   5.255   2.645   2.353 -0.1397 -0.7648 -0.1171
 3376TIP3    H210093   5.331   2.523   2.400  0.2362  0.2767  2.1297
 3377TIP3   OH210094   6.207   6.228   3.519 -0.0781  0.1089  0.2064
 3377TIP3    H110095   6.153   6.303   3.492  0.9607  0.9372  0.3609
 3377TIP3    H210096   6.196   6.223   3.614  0.8501  0.8725  0.3585
 3378TIP3   OH210097   2.182   6.713   4.764 -0.5805  0.3206  0.2430
 3378TIP3    H110098   2.170   6.626   4.726  1.7009  0.0036  0.1158
 3378TIP3    H210099   2.169   6.701   4.858 -0.7999 -0.0486  0.1628
 3379TIP3   OH210100   2.800   2.645   2.956  0.1070  0.7756  0.4924
 3379TIP3    H110101   2.743   2.715   2.988 -0.8144  0.0591  0.4578
 3379TIP3    H210102   2.780   2.639   2.862  0.3717  0.6348  0.4425
 3380TIP3   OH210103   0.238   1.646   0.067  0.4135 -0.1183  0.1748
 3380TIP3    H110104   0.260   1.736   0.092 -0.3897  0.1131  0.0891
 3380TIP3    H210105   0.146   1.637   0.093  0.5252 -0.9548  0.2889
 3381TIP3   OH210106   7.034   3.566   1.387  0.1390 -0.0203 -0.2604
 3381TIP3    H110107   6.975   3.599   1.455  0.6717 -1.1674  0.8076
 3381TIP3    H210108   6.995   3.483   1.360 -0.1462  0.4916 -1.5047
 3382TIP3   OH210109   4.651   6.498   5.105  0.6607 -0.0271 -0.4483
 3382TIP3    H110110   4.617   6.508   5.194 -0.6111  1.1874 -1.0165
 3382TIP3    H210111   4.616   6.574   5.058  1.9014 -0.2497 -1.8124
 3383TIP3   OH210112   2.172   1.140   4.958 -0.3028 -0.3634  0.4998
 3383TIP3    H110113   2.210   1.069   5.010  2.1270  1.2603  1.0947
 3383TIP3    H210114   2.116   1.187   5.020  1.1377  0.4616  1.2497
 3384TIP3   OH210115   3.315   6.477   0.805 -0.4801  0.6685 -0.0532
 3384TIP3    H110116   3.296   6.441   0.892 -1.2026 -0.2968 -0.5952
 3384TIP3    H210117   3.354   6.562   0.823  3.9446 -1.3367  1.4767
 3385TIP3   OH210118   0.977   4.531   2.836 -0.2645  0.0173  0.1226
 3385TIP3    H110119   0.905   4.593   2.843 -2.1466 -2.2260  2.5327
 3385TIP3    H210120   1.041   4.560   2.900  1.6635  2.5920 -2.7023
 3386TIP3   OH210121   2.853   6.484   2.192  0.5054  0.3403  0.2968
 3386TIP3    H110122   2.798   6.416   2.152 -0.0924  1.9512 -1.7792
 3386TIP3    H210123   2.796   6.524   2.258  0.9288 -1.2263  1.6923
 3387TIP3   OH210124   6.645   6.094   2.682  0.0478 -0.2630  0.1156
 3387TIP3    H110125   6.732   6.084   2.723 -0.6413  1.2725  2.1337
 3387TIP3    H210126   6.608   6.006   2.684  1.4569 -0.9096 -0.5930
 3388TIP3   OH210127   4.265   4.031   2.597  0.0713  0.5260  0.3544
 3388TIP3    H110128   4.195   4.091   2.572  1.1535  1.7497  0.1647
 3388TIP3    H210129   4.261   3.961   2.532 -1.5536  0.0696  0.8989
 3389TIP3   OH210130   6.687   3.289   5.758 -0.7047  0.3422  0.3562
 3389TIP3    H110131   6.649   3.264   5.842  1.1949 -1.0312  0.8862
 3389TIP3    H210132   6.650   3.229   5.695 -0.5547 -0.0120  0.6014
 3390TIP3   OH210133   2.612   0.448   5.030  0.4643  0.2190  0.2232
 3390TIP3    H110134   2.590   0.359   5.002 -1.2318  0.0953  1.8101
 3390TIP3    H210135   2.705   0.457   5.009  1.4494 -2.9223  2.4721
 3391TIP3   OH210136   2.126   6.812   0.227  0.1691 -0.0208  0.2355
 3391TIP3    H110137   2.127   6.732   0.280  2.0310 -0.1915  0.0238
 3391TIP3    H210138   2.156   6.785   0.141  1.0162  0.9180  0.2095
 3392TIP3   OH210139   1.595   0.804   4.135  0.3480 -0.4252 -0.4542
 3392TIP3    H110140   1.508   0.840   4.150 -0.1645 -1.5631 -0.6757
 3392TIP3    H210141   1.602   0.730   4.196  2.3299  1.4384  1.8022
 3393TIP3   OH210142   6.973   3.674   1.132  0.1547 -0.0699  0.2275
 3393TIP3    H110143   7.012   3.628   1.206 -0.9710 -1.5277 -0.0148
 3393TIP3    H210144   6.923   3.745   1.171  2.2307  1.2554  0.5948
 3394TIP3   OH210145   3.417   6.508   3.982 -0.0176  0.0224 -0.1112
 3394TIP3    H110146   3.400   6.524   3.889 -1.1135  2.1835  0.3900
 3394TIP3    H210147   3.466   6.584   4.011  0.2858 -0.6088  1.1125
 3395TIP3   OH210148   0.689   5.530   2.394  0.2617  0.1365 -0.3130
 3395TIP3    H110149   0.751   5.577   2.339  1.0871 -1.0615 -0.4396
 3395TIP3    H210150   0.605   5.540   2.349  1.1661 -2.1374 -2.7251
 3396TIP3   OH210151   6.061   1.643   3.420  0.2889  0.3668 -0.0327
 3396TIP3    H110152   6.028   1.644   3.330  0.1337 -1.1341 -0.0202
 3396TIP3    H210153   6.133   1.580   3.419 -0.9853 -1.2083  1.2786
 3397TIP3   OH210154   5.480   3.057   1.428  0.1163 -0.7293 -0.3736
 3397TIP3    H110155   5.481   3.121   1.357  1.8645 -0.2166  0.0531
 3397TIP3    H210156   5.388   3.051   1.454 -0.0718  1.9413 -0.1443
 3398TIP3   OH210157   3.008   2.582   0.240  0.0785  0.2028 -0.3028
 3398TIP3    H110158   2.916   2.587   0.213 -0.0208  2.1185  0.2280
 3398TIP3    H210159   3.038   2.673   0.238  2.0966 -0.4220 -0.8345
 3399TIP3   OH210160   1.543   3.111   0.979 -0.3656 -0.8131  0.1243
 3399TIP3    H110161   1.510   3.200   0.964 -1.3009 -1.3527 -1.2456
 3399TIP3    H210162   1.500   3.058   0.911 -1.4519 -2.7009  2.1731
 3400TIP3   OH210163   7.084   2.721   5.203  0.1762 -0.0103 -0.2069
 3400TIP3    H110164   7.052   2.641   5.161 -0.9545  0.5406 -0.4378
 3400TIP3    H210165   7.151   2.691   5.264  1.1849 -0.9212 -1.7125
 3401TIP3   OH210166   3.825   4.685   0.570  0.1353  0.0986  0.3978
 3401TIP3    H110167   3.897   4.722   0.622  0.5245  0.7267 -0.5524
 3401TIP3    H210168   3.843   4.591   0.568  0.4638  0.1459  0.8626
 3402TIP3   OH210169   4.000   4.215   2.931  0.4356 -0.4740  0.4201
 3402TIP3    H110170   4.034   4.271   3.001 -2.5278  0.3094  1.3897
 3402TIP3    H210171   4.000   4.271   2.853 -0.5455  0.2332  0.9050
 3403TIP3   OH210172   4.031   1.914   3.353 -0.2531  0.2416  0.7071
 3403TIP3    H110173   3.960   1.942   3.295 -0.2542  1.2237  1.1580
 3403TIP3    H210174   4.010   1.823   3.374 -0.2674 -0.1380 -0.7931
 3404TIP3   OH210175   4.394   1.145   1.994 -0.1282 -0.0744  0.1829
 3404TIP3    H110176   4.403   1.051   1.975  0.9336 -0.1220  0.8297
 3404TIP3    H210177   4.375   1.148   2.088  1.0860  0.4038  0.4232
 3405TIP3   OH210178   4.477   0.540   1.284 -0.0070 -0.2324  0.1523
 3405TIP3    H110179   4.425   0.519   1.362  0.3281 -0.4484  0.3201
 3405TIP3    H210180   4.498   0.633   1.294  0.9097 -0.5017  0.8503
 3406TIP3   OH210181   1.682   0.261   2.130 -0.4425  0.4221 -0.4132
 3406TIP3    H110182   1.726   0.282   2.048 -0.9143  0.3200 -0.7003
 3406TIP3    H210183   1.671   0.166   2.128  1.5441  0.1221  0.8078
 3407TIP3   OH210184   4.391   4.683   1.340  0.2685  0.0646  0.0527
 3407TIP3    H110185   4.325   4.664   1.407  1.2125  0.4254  1.1202
 3407TIP3    H210186   4.349   4.746   1.282 -0.8201 -0.7974 -0.1253
 3408TIP3   OH210187   2.225   4.686   2.364  0.5876  0.4505  0.5142
 3408TIP3    H110188   2.218   4.780   2.345 -0.0671  0.1618 -0.7870
 3408TIP3    H210189   2.189   4.677   2.452 -0.2085  1.3084  0.2984
 3409TIP3   OH210190   5.160   2.013   1.936 -0.4712 -0.1576 -0.0234
 3409TIP3    H110191   5.090   2.053   1.885 -1.3890 -0.4927  0.9534
 3409TIP3    H210192   5.174   2.074   2.009  0.9095  0.3802 -0.7004
 3410TIP3   OH210193   1.482   3.379   2.364 -0.1989 -0.6695 -0.5295
 3410TIP3    H110194   1.415   3.342   2.422 -0.4222 -0.3885 -0.6026
 3410TIP3    H210195   1.445   3.369   2.276 -1.7895  2.6148 -0.4054
 3411TIP3   OH210196   0.887   2.889   1.379  0.1591 -0.1226  0.0257
 3411TIP3    H110197   0.808   2.898   1.432  0.3544 -0.2460  0.3430
 3411TIP3    H210198   0.909   2.979   1.354  1.0711  0.1555  1.6606
 3412TIP3   OH210199   6.201   6.722   2.540 -0.6841 -0.4267 -0.0254
 3412TIP3    H110200   6.243   6.784   2.599  0.1203 -1.3574  0.3943
 3412TIP3    H210201   6.109   6.748   2.540 -0.6999 -0.3959  1.6233
 3413TIP3   OH210202   6.340   4.090   1.635 -0.2300  0.5180  0.0383
 3413TIP3    H110203   6.251   4.117   1.612  0.1062  0.5126 -1.3874
 3413TIP3    H210204   6.394   4.168   1.617  0.3711 -0.2162 -1.4734
 3414TIP3   OH210205   5.016   4.565   1.821  0.3369 -0.3029 -0.2679
 3414TIP3    H110206   4.987   4.581   1.911  2.4897 -0.6524  0.5563
 3414TIP3    H210207   4.957   4.497   1.788  0.3194 -1.1236  1.3649
 3415TIP3   OH210208   6.845   5.869   3.259  0.1008 -0.7134 -0.0936
 3415TIP3    H110209   6.774   5.805   3.269  0.2909 -0.6710  1.9443
 3415TIP3    H210210   6.902   5.853   3.333  0.8816  0.9459 -0.2905
 3416TIP3   OH210211   5.552   3.711   4.049  0.1362  0.3849 -0.0842
 3416TIP3    H110212   5.589   3.785   4.097 -0.5634  0.1585  0.8197
 3416TIP3    H210213   5.628   3.657   4.026  0.6733  1.4360 -0.8929
 3417TIP3   OH210214   1.323   3.008   4.775  0.3509  0.2469  0.8386
 3417TIP3    H110215   1.294   3.035   4.862  0.9636 -0.9603  1.4435
 3417TIP3    H210216   1.247   3.023   4.719 -1.0268 -1.4631  2.1123
 3418TIP3   OH210217   5.293   1.610   0.121  0.4125  0.6162 -0.2971
 3418TIP3    H110218   5.221   1.673   0.109  0.1696  0.5442  0.6563
 3418TIP3    H210219   5.372   1.663   0.112  0.2065  1.3483  1.6960
 3419TIP3   OH210220   1.073   3.531   5.614  0.0708  0.2140 -0.1050
 3419TIP3    H110221   1.045   3.466   5.678  1.3814  1.0567  1.3846
 3419TIP3    H210222   1.099   3.479   5.538 -0.7359 -0.8621  0.3145
 3420TIP3   OH210223   1.226   5.251   5.529  0.3979 -0.2101 -0.0647
 3420TIP3    H110224   1.174   5.317   5.483 -0.0106  1.6933  2.7884
 3420TIP3    H210225   1.170   5.174   5.533 -0.1702  0.1141 -1.2823
 3421TIP3   OH210226   3.859   6.132   3.520  0.2974 -0.1365  0.5351
 3421TIP3    H110227   3.798   6.065   3.553 -0.3775  0.5898  0.7872
 3421TIP3    H210228   3.886   6.099   3.435 -0.5641 -0.4144  0.3560
 3422TIP3   OH210229   5.749   0.652   1.428  0.1223 -0.5244  0.2764
 3422TIP3    H110230   5.739   0.651   1.523 -0.7065 -0.8297  0.2007
 3422TIP3    H210231   5.660   0.667   1.395  0.6307  1.1206 -0.4275
 3423TIP3   OH210232   5.512   5.552   4.447  0.4054  0.3259  0.1919
 3423TIP3    H110233   5.446   5.604   4.401 -0.6848 -1.5976 -0.5399
 3423TIP3    H210234   5.470   5.529   4.530  1.8564  2.6620  1.6685
 3424TIP3   OH210235   3.071   0.300   3.774  0.1267  0.5325  0.5827
 3424TIP3    H110236   3.158   0.275   3.805  1.1026  1.1736 -1.4542
 3424TIP3    H210237   3.086   0.333   3.686 -2.3918 -0.7835 -0.4367
 3425TIP3   OH210238   0.111   5.680   3.723 -0.7979  0.1268  0.3373
 3425TIP3    H110239   0.103   5.588   3.745 -1.7726  0.4236  1.2643
 3425TIP3    H210240   0.133   5.723   3.805 -0.0843  0.7041 -0.1351
 3426TIP3   OH210241   4.449   2.446   4.300  0.4867 -0.1184  0.1023
 3426TIP3    H110242   4.435   2.351   4.298 -2.4722  0.0577  3.4085
 3426TIP3    H210243   4.421   2.476   4.213 -3.3645 -1.9232  0.4861
 3427TIP3   OH210244   5.468   0.183   4.197  0.1582  0.2656  0.0088
 3427TIP3    H110245   5.386   0.168   4.151  0.2563  0.0282 -0.0948
 3427TIP3    H210246   5.456   0.265   4.244  0.7607  1.5974 -2.0407
 3428TIP3   OH210247   6.785   0.710   1.309 -0.1639  0.1004  0.2866
 3428TIP3    H110248   6.740   0.714   1.225  0.8023  0.8317 -0.2220
 3428TIP3    H210249   6.842   0.633   1.303 -0.1360  0.1213  0.2783
 3429TIP3   OH210250   3.696   5.059   0.945 -0.0499  0.0107  0.5478
 3429TIP3    H110251   3.659   4.982   0.988 -0.3239 -0.1509  0.0256
 3429TIP3    H210252   3.778   5.075   0.991 -0.1874 -0.3459  0.9248
 3430TIP3   OH210253   1.862   2.926   2.380 -0.4460 -0.3846  0.0936
 3430TIP3    H110254   1.921   2.906   2.452  2.1065  3.2223 -0.7347
 3430TIP3    H210255   1.841   3.019   2.390 -1.0833 -0.0654 -3.0079
 3431TIP3   OH210256   0.485   6.654   4.791 -0.2186 -0.1469 -0.2932
 3431TIP3    H110257   0.455   6.745   4.787 -0.4413  0.2376  4.5248
 3431TIP3    H210258   0.404   6.602   4.787 -0.3705  0.0767 -0.1600
 3432TIP3   OH210259   4.246   5.564   2.674  0.4536  0.6871 -0.1234
 3432TIP3    H110260   4.287   5.478   2.681  0.8174  0.7722 -1.0899
 3432TIP3    H210261   4.198   5.561   2.592 -0.3310  1.0812  0.3095
 3433TIP3   OH210262   0.886   5.564   4.306 -0.6358  0.0670 -0.0943
 3433TIP3    H110263   0.843   5.643   4.338 -1.2198 -0.4493  0.4199
 3433TIP3    H210264   0.912   5.585   4.216  0.6162  1.3714  0.5291
 3434TIP3   OH210265   6.847   1.627   5.004  0.9443  0.3740 -0.1296
 3434TIP3    H110266   6.916   1.671   4.954 -0.1064 -0.3701 -2.3845
 3434TIP3    H210267   6.778   1.693   5.013  0.1369 -0.1753 -1.8774
 3435TIP3   OH210268   2.665   5.658   2.195 -0.4766 -0.4084 -0.4306
 3435TIP3    H110269   2.629   5.664   2.106  0.2209 -1.1530 -0.7830
 3435TIP3    H210270   2.741   5.717   2.194 -1.6137  1.1428  0.3034
 3436TIP3   OH210271   2.270   2.897   0.335 -1.2620 -0.4472 -0.1369
 3436TIP3    H110272   2.337   2.965   0.346  1.1498 -2.5115 -1.0028
 3436TIP3    H210273   2.236   2.882   0.423 -1.6904  1.6418  0.1141
 3437TIP3   OH210274   0.052   2.746   0.522 -0.1705  0.2208 -0.2635
 3437TIP3    H110275   0.065   2.651   0.523  0.5603  0.3116  0.4019
 3437TIP3    H210276   0.062   2.771   0.430  0.3589 -0.2552 -0.3391
 3438TIP3   OH210277   1.938   6.437   4.131 -0.4337 -0.7099  0.8635
 3438TIP3    H110278   1.971   6.512   4.180  1.7487  0.0020 -1.4853
 3438TIP3    H210279   2.001   6.367   4.149 -0.0079 -0.6497 -0.3087
 3439TIP3   OH210280   2.831   0.094   4.749  0.6275 -0.2747  0.3435
 3439TIP3    H110281   2.767   0.147   4.701  0.8569 -0.9811 -0.7751
 3439TIP3    H210282   2.908   0.152   4.757  0.8147 -0.3553 -0.7188
 3440TIP3   OH210283   2.649   4.653   4.777  0.4061  0.6001 -0.5501
 3440TIP3    H110284   2.691   4.615   4.855  0.2498  2.3637  0.4375
 3440TIP3    H210285   2.567   4.605   4.768  1.5964 -1.4544 -1.2656
 3441TIP3   OH210286   1.802   4.968   4.609  0.3916  0.1077  0.1321
 3441TIP3    H110287   1.840   4.882   4.627 -1.5103 -1.0323 -0.9614
 3441TIP3    H210288   1.717   4.949   4.571 -0.3384  2.5097  0.3938
 3442TIP3   OH210289   3.823   5.659   2.645 -0.7893 -0.3535 -0.8573
 3442TIP3    H110290   3.862   5.578   2.611 -0.8345 -0.2828 -1.0820
 3442TIP3    H210291   3.865   5.671   2.730 -1.2746 -0.9668 -0.5228
 3443TIP3   OH210292   1.817   5.334   0.575  0.0100  0.8227  0.2609
 3443TIP3    H110293   1.727   5.311   0.549  0.1477  0.1096  0.3732
 3443TIP3    H210294   1.869   5.314   0.497  0.0734  1.2406  0.1948
 3444TIP3   OH210295   0.859   1.467   4.443 -0.6841  0.0834 -0.6910
 3444TIP3    H110296   0.794   1.521   4.399  1.9943  2.6372 -1.8134
 3444TIP3    H210297   0.815   1.382   4.454 -3.8142  1.3331 -2.1870
 3445TIP3   OH210298   1.003   4.157   3.555 -0.4305 -0.2234  0.3848
 3445TIP3    H110299   1.091   4.126   3.578 -0.1190 -0.5027 -1.1006
 3445TIP3    H210300   0.948   4.078   3.558 -0.0792 -0.5709 -1.2277
 3446TIP3   OH210301   4.684   3.625   2.538  0.9269  0.4326  0.7221
 3446TIP3    H110302   4.606   3.680   2.543 -0.5348 -1.4622 -0.0862
 3446TIP3    H210303   4.756   3.687   2.522 -0.3832  2.2203  1.4470
 3447TIP3   OH210304   5.634   4.264   3.759  0.0750 -0.7336  0.0635
 3447TIP3    H110305   5.641   4.349   3.804  0.5810 -0.3898 -0.6365
 3447TIP3    H210306   5.578   4.212   3.816  1.5003 -0.6666  1.6255
 3448TIP3   OH210307   3.009   4.510   5.197  0.2219 -0.7159 -0.2600
 3448TIP3    H110308   3.087   4.538   5.244  0.2597 -0.3235 -0.5439
 3448TIP3    H210309   2.937   4.525   5.259  0.3517 -0.9247 -0.0569
 3449TIP3   OH210310   2.777   3.335   3.515 -0.6527  0.8604 -0.1142
 3449TIP3    H110311   2.830   3.395   3.462 -2.0958  1.0700 -1.4005
 3449TIP3    H210312   2.687   3.362   3.497 -1.2657 -0.7305  0.4836
 3450TIP3   OH210313   7.139   0.341   1.196 -0.3788  0.2642 -0.1496
 3450TIP3    H110314   7.097   0.290   1.127  1.1664 -0.6219 -0.4825
 3450TIP3    H210315   7.114   0.296   1.277  2.0255 -1.9615 -0.5073
 3451TIP3   OH210316   0.526   4.649   4.307 -0.4391  0.9496  0.1470
 3451TIP3    H110317   0.511   4.734   4.347  0.0092  1.6191 -1.0640
 3451TIP3    H210318   0.574   4.668   4.226 -0.7721 -0.4090 -0.4015
 3452TIP3   OH210319   2.542   3.149   3.988 -0.2828  0.0463  0.2365
 3452TIP3    H110320   2.636   3.135   3.998 -0.1373  0.9391  0.2342
 3452TIP3    H210321   2.518   3.204   4.063 -0.7249  0.1856 -0.0036
 3453TIP3   OH210322   0.702   5.642   1.596 -0.0741  0.1391 -0.5071
 3453TIP3    H110323   0.732   5.627   1.685  1.5789 -0.1860 -1.0689
 3453TIP3    H210324   0.621   5.592   1.589  0.4025 -0.8117  0.4636
 3454TIP3   OH210325   1.025   3.266   4.679  0.0264  0.2386 -0.3973
 3454TIP3    H110326   1.016   3.248   4.585  0.1778 -0.0777 -0.3517
 3454TIP3    H210327   0.993   3.186   4.721  1.3671 -0.2072 -0.2021
 3455TIP3   OH210328   3.965   5.650   4.435 -0.3060 -0.4849  0.1860
 3455TIP3    H110329   4.003   5.614   4.355 -0.1158 -2.8540  1.2764
 3455TIP3    H210330   3.908   5.721   4.405  1.4363  0.1722 -1.8463
 3456TIP3   OH210331   0.811   0.953   2.372 -0.0810  0.4058  0.0434
 3456TIP3    H110332   0.838   1.028   2.319 -2.2463  2.3145  1.4466
 3456TIP3    H210333   0.773   0.992   2.451 -1.5385 -2.1681  0.7188
 3457TIP3   OH210334   3.620   1.338   1.710 -0.0806  0.2775  0.1024
 3457TIP3    H110335   3.653   1.249   1.696 -0.7048  0.0887 -0.2418
 3457TIP3    H210336   3.663   1.391   1.643 -0.4606  0.0338 -0.3449
 3458TIP3   OH210337   1.930   4.178   0.684 -0.2068  0.2245  0.3885
 3458TIP3    H110338   2.024   4.185   0.665 -0.4743 -0.7390 -1.5486
 3458TIP3    H210339   1.893   4.138   0.605 -2.1529 -0.0694  1.4023
 3459TIP3   OH210340   0.496   0.732   5.857  0.5101 -0.5494 -0.3861
 3459TIP3    H110341   0.504   0.712   5.763  0.4140  0.0989 -0.5350
 3459TIP3    H210342   0.493   0.827   5.861  0.6130 -0.5707  0.2906
 3460TIP3   OH210343   5.814   5.244   3.829  0.0018  0.4480  0.2173
 3460TIP3    H110344   5.821   5.165   3.775 -2.4312 -0.1750  0.6537
 3460TIP3    H210345   5.776   5.212   3.912 -0.2016  1.9529  0.7320
 3461TIP3   OH210346   6.449   2.090   5.301  0.2498  0.1702  0.4189
 3461TIP3    H110347   6.411   2.086   5.213 -0.4534  3.5381  0.4440
 3461TIP3    H210348   6.412   2.014   5.346 -0.9864 -0.4987 -1.5914
 3462TIP3   OH210349   4.136   6.402   0.385 -0.8513  0.3547 -0.1552
 3462TIP3    H110350   4.080   6.365   0.317 -1.3632  0.3172  0.2768
 3462TIP3    H210351   4.211   6.437   0.338 -2.0982  2.0925 -0.9903
 3463TIP3   OH210352   1.777   0.245   5.540  0.2656  0.6163 -0.0302
 3463TIP3    H110353   1.813   0.188   5.472  0.1671 -2.5515  2.3017
 3463TIP3    H210354   1.834   0.229   5.616 -1.2500  1.8029  1.4171
 3464TIP3   OH210355   2.576   3.672   2.036  0.1084  0.1940  0.0261
 3464TIP3    H110356   2.519   3.722   2.094 -0.6220 -1.0312  0.4084
 3464TIP3    H210357   2.517   3.640   1.967  0.6675  0.3239 -0.5204
 3465TIP3   OH210358   7.204   2.604   0.208 -0.5191 -0.3578  0.2664
 3465TIP3    H110359   7.126   2.563   0.170 -1.0938  0.4354  0.5588
 3465TIP3    H210360   7.186   2.698   0.206  0.3658 -0.1696  0.4851
 3466TIP3   OH210361   7.141   6.293   2.541 -0.2863 -0.2640  0.1196
 3466TIP3    H110362   7.221   6.291   2.488  0.6492  3.7741  1.0058
 3466TIP3    H210363   7.163   6.242   2.619  0.7958 -0.6483 -0.4125
 3467TIP3   OH210364   3.013   5.036   5.607 -0.0836 -0.1445  0.3585
 3467TIP3    H110365   2.975   5.119   5.635 -0.6396 -0.9670  2.2288
 3467TIP3    H210366   3.069   5.059   5.533 -1.3163  1.6624 -0.0797
 3468TIP3   OH210367   0.207   3.361   2.842 -0.5111 -0.5422 -0.2793
 3468TIP3    H110368   0.211   3.333   2.933  2.5422  0.0562 -0.1215
 3468TIP3    H210369   0.155   3.442   2.844 -0.4486 -0.5113  0.9303
 3469TIP3   OH210370   1.288   1.775   2.403  0.4618  0.3829 -0.0592
 3469TIP3    H110371   1.308   1.869   2.396  0.8477  0.4255  1.2195
 3469TIP3    H210372   1.352   1.742   2.466  0.1210 -0.6797 -0.2505
 3470TIP3   OH210373   6.881   2.061   0.079 -0.2279  0.1073 -0.2490
 3470TIP3    H110374   6.856   2.117   0.153 -1.7943  0.4572 -1.0006
 3470TIP3    H210375   6.969   2.031   0.100 -0.8795 -0.3601  2.1104
 3471TIP3   OH210376   0.160   0.434   0.718 -0.0259  0.0639  0.7898
 3471TIP3    H110377   0.235   0.376   0.731 -1.2923 -1.8902 -0.1086
 3471TIP3    H210378   0.147   0.435   0.623 -0.9953  0.5742  0.9159
 3472TIP3   OH210379   5.303   1.475   0.375  0.2184 -0.3872 -0.1201
 3472TIP3    H110380   5.292   1.530   0.298 -1.6428  0.1490  0.4766
 3472TIP3    H210381   5.392   1.495   0.406  0.4534  0.4728 -1.2846
 3473TIP3   OH210382   4.843   5.613   1.453 -0.5773 -0.1525 -0.3187
 3473TIP3    H110383   4.915   5.587   1.396 -0.5271 -3.3961  1.0441
 3473TIP3    H210384   4.885   5.658   1.526  0.1894 -2.1740  0.5530
 3474TIP3   OH210385   6.267   3.138   2.437 -0.7422 -0.5345  0.3016
 3474TIP3    H110386   6.189   3.083   2.428 -0.3818 -1.0600  0.3350
 3474TIP3    H210387   6.255   3.183   2.520 -0.9969 -0.6387  0.3232
 3475TIP3   OH210388   5.424   1.808   3.682 -0.4077  0.1925  0.1499
 3475TIP3    H110389   5.336   1.777   3.704 -0.5622  1.1477  0.9313
 3475TIP3    H210390   5.447   1.868   3.753  1.9300 -1.9726  1.3907
 3476TIP3   OH210391   1.748   4.306   5.196 -0.1685  0.2495  0.1570
 3476TIP3    H110392   1.791   4.305   5.281 -1.1522 -1.4220  0.6814
 3476TIP3    H210393   1.758   4.216   5.163 -0.8484  0.5573 -0.9343
 3477TIP3   OH210394   5.539   0.116   5.346 -0.4525 -0.0960 -0.2827
 3477TIP3    H110395   5.577   0.151   5.265 -0.9941  0.6198 -0.2411
 3477TIP3    H210396   5.479   0.047   5.316 -0.1418 -0.2959 -0.4435
 3478TIP3   OH210397   1.667   2.726   1.635 -0.9638  0.4396 -0.3790
 3478TIP3    H110398   1.630   2.713   1.548  2.5182 -1.3584 -1.7921
 3478TIP3    H210399   1.684   2.638   1.667 -1.1277  1.1079  1.6920
 3479TIP3   OH210400   5.277   1.125   3.681  0.1957  0.0267  0.2771
 3479TIP3    H110401   5.202   1.111   3.739  0.9005  0.4504  1.3188
 3479TIP3    H210402   5.238   1.133   3.594 -0.8371 -1.1805  0.5989
 3480TIP3   OH210403   0.068   6.370   2.990 -0.4034 -0.3072 -0.1491
 3480TIP3    H110404   0.095   6.278   2.982  1.5222  0.3611 -2.0693
 3480TIP3    H210405   0.116   6.416   2.921 -1.8684  2.0538  0.2955
 3481TIP3   OH210406   0.805   3.403   2.310  0.2250 -0.5082 -0.1893
 3481TIP3    H110407   0.863   3.455   2.365  0.5293 -0.9469 -0.0922
 3481TIP3    H210408   0.837   3.313   2.318 -1.4817 -1.0523  1.1859
 3482TIP3   OH210409   5.351   6.763   4.526  0.1155  0.3717 -0.3400
 3482TIP3    H110410   5.290   6.775   4.453  2.0362  1.1672 -1.9212
 3482TIP3    H210411   5.399   6.846   4.530  0.8426 -0.0890  1.0897
 3483TIP3   OH210412   1.208   6.691   0.752 -0.6535 -0.7049  0.2124
 3483TIP3    H110413   1.299   6.717   0.739 -0.5770 -0.7732  0.6198
 3483TIP3    H210414   1.163   6.771   0.775 -0.3851 -0.9459  1.6418
 3484TIP3   OH210415   1.844   6.076   3.037  0.0668 -0.2515 -0.1775
 3484TIP3    H110416   1.752   6.079   3.063 -0.2955 -1.6458 -1.1730
 3484TIP3    H210417   1.892   6.080   3.120 -0.9514 -1.2439  0.4930
 3485TIP3   OH210418   2.520   5.137   5.591  0.6000 -0.0693  0.0365
 3485TIP3    H110419   2.487   5.081   5.661  1.0247  0.0664  0.3484
 3485TIP3    H210420   2.602   5.095   5.563  0.5234 -0.0269 -0.2637
 3486TIP3   OH210421   2.627   6.754   5.899 -0.0922  0.1455  0.8990
 3486TIP3    H110422   2.596   6.823   5.840  0.8376 -0.2051 -0.0078
 3486TIP3    H210423   2.551   6.696   5.910 -1.1327  1.6692  2.2733
 3487TIP3   OH210424   1.466   6.238   1.182 -0.6068  0.7098 -0.9214
 3487TIP3    H110425   1.452   6.146   1.205 -0.5688  0.9950  0.3416
 3487TIP3    H210426   1.445   6.243   1.089 -0.2726 -0.6431 -1.0990
 3488TIP3   OH210427   6.137   4.820   4.112  0.9470 -0.4337  0.1207
 3488TIP3    H110428   6.130   4.808   4.207  0.9942  0.1265  0.1984
 3488TIP3    H210429   6.128   4.914   4.099 -0.3112 -0.6141 -0.5312
 3489TIP3   OH210430   4.550   2.806   4.040  0.5477  0.5287  0.7232
 3489TIP3    H110431   4.563   2.893   4.002 -1.4671  0.8606  0.6438
 3489TIP3    H210432   4.456   2.802   4.058  0.7571 -1.2665  1.6672
 3490TIP3   OH210433   3.713   3.537   1.456  0.4551  0.1141  0.1068
 3490TIP3    H110434   3.622   3.538   1.428  0.7322 -3.5728 -1.3655
 3490TIP3    H210435   3.712   3.493   1.541  1.0315 -2.8953 -1.3317
 3491TIP3   OH210436   6.239   3.059   5.664  0.2844  0.2793  0.1099
 3491TIP3    H110437   6.301   3.118   5.706  1.1569 -0.8257  0.4286
 3491TIP3    H210438   6.178   3.116   5.618  0.5414  1.4484  1.1751
 3492TIP3   OH210439   2.046   2.695   0.437 -0.1334  0.3588  0.3454
 3492TIP3    H110440   2.129   2.743   0.435  0.0552  0.0114 -0.4803
 3492TIP3    H210441   2.012   2.701   0.347 -0.2857 -0.7376  0.3120
 3493TIP3   OH210442   3.130   2.035   0.778  0.0456  0.0913  0.6810
 3493TIP3    H110443   3.036   2.021   0.776 -0.1770  1.4499 -1.2305
 3493TIP3    H210444   3.141   2.127   0.803  0.8226  0.1323  0.2471
 3494TIP3   OH210445   6.436   5.849   0.611 -0.3661 -0.3142  0.2272
 3494TIP3    H110446   6.469   5.815   0.695 -0.2804 -0.5732  0.0925
 3494TIP3    H210447   6.341   5.847   0.620 -0.3550 -0.2632  0.3511
 3495TIP3   OH210448   4.246   2.773   2.662  0.2168  0.5046  0.1161
 3495TIP3    H110449   4.173   2.836   2.660  0.6087  0.9523 -0.1325
 3495TIP3    H210450   4.308   2.810   2.724  0.6536  0.5841 -0.3702
 3496TIP3   OH210451   2.280   1.402   0.107  0.3645  0.0342 -0.2286
 3496TIP3    H110452   2.274   1.469   0.039 -1.2548  0.1740  0.0080
 3496TIP3    H210453   2.222   1.332   0.078 -0.7588  0.3086  1.2109
 3497TIP3   OH210454   6.816   4.850   4.164  0.6164  0.0685 -0.1259
 3497TIP3    H110455   6.776   4.895   4.090 -0.4695 -1.3799 -0.4603
 3497TIP3    H210456   6.851   4.769   4.127 -1.8514 -1.7483  1.2256
 3498TIP3   OH210457   7.226   0.521   1.587 -0.4699  0.1528  0.3022
 3498TIP3    H110458   7.169   0.479   1.651  0.5709 -1.7245  0.0707
 3498TIP3    H210459   7.167   0.573   1.533 -1.5987  0.3354  1.6467
 3499TIP3   OH210460   4.367   0.524   1.532  0.3644 -0.2466 -0.1582
 3499TIP3    H110461   4.399   0.595   1.588 -0.1906  0.9279 -1.2779
 3499TIP3    H210462   4.278   0.508   1.563 -0.2447  0.9699 -1.1647
 3500TIP3   OH210463   1.261   5.666   1.111  0.4853 -0.0751  0.4607
 3500TIP3    H110464   1.342   5.655   1.060  0.6149  2.2887 -0.0044
 3500TIP3    H210465   1.197   5.611   1.066  1.3924 -0.5668 -0.2847
 3501TIP3   OH210466   3.678   6.116   4.810 -0.2884  0.0035 -0.2036
 3501TIP3    H110467   3.631   6.105   4.893 -0.5721 -0.1873 -0.3848
 3501TIP3    H210468   3.727   6.035   4.799 -0.9383 -0.3405 -0.6454
 3502TIP3   OH210469   6.227   0.375   0.849  0.0168  0.4293 -0.3096
 3502TIP3    H110470   6.131   0.375   0.843 -0.0148 -0.2158  0.0752
 3502TIP3    H210471   6.255   0.310   0.784  0.1140 -0.3855  0.5288
 3503TIP3   OH210472   5.724   3.545   4.259 -0.2655 -0.0571  0.8429
 3503TIP3    H110473   5.683   3.607   4.319 -0.6390 -0.1698  0.7104
 3503TIP3    H210474   5.700   3.459   4.294 -0.8300 -0.1249  0.3159
 3504TIP3   OH210475   6.155   3.197   3.359  0.1343 -0.0004 -0.2893
 3504TIP3    H110476   6.125   3.253   3.430  0.0233 -1.3150  0.7504
 3504TIP3    H210477   6.246   3.224   3.344 -0.3980  1.5292 -0.9541
 3505TIP3   OH210478   4.490   5.137   0.654 -0.7402 -0.0682 -0.3451
 3505TIP3    H110479   4.527   5.220   0.685 -1.6306 -0.3191  1.5735
 3505TIP3    H210480   4.415   5.163   0.601 -0.4298  0.3618 -0.5831
 3506TIP3   OH210481   1.858   2.477   5.583  0.1182  0.0661  0.2212
 3506TIP3    H110482   1.884   2.425   5.659  1.2750  0.7335  0.3142
 3506TIP3    H210483   1.941   2.511   5.549 -0.3959 -0.0587 -1.2267
 3507TIP3   OH210484   4.065   2.056   1.726 -0.0641 -0.1834 -0.5598
 3507TIP3    H110485   4.004   2.075   1.655  0.3882  0.2775 -0.8321
 3507TIP3    H210486   4.130   1.997   1.686 -0.4301 -0.8262 -0.2209
 3508TIP3   OH210487   5.055   2.330   0.301  0.4481  0.3849  0.0764
 3508TIP3    H110488   5.145   2.333   0.268 -0.7350  0.1909 -3.5581
 3508TIP3    H210489   5.032   2.421   0.315 -0.1367  0.9552 -3.5283
 3509TIP3   OH210490   2.659   5.610   3.747 -0.7421  0.1014 -0.5167
 3509TIP3    H110491   2.684   5.677   3.811 -2.7577  2.4058 -1.9864
 3509TIP3    H210492   2.671   5.652   3.662 -2.7268 -1.1394 -1.4846
 3510TIP3   OH210493   6.198   4.300   2.911 -0.4360  0.4450  0.0831
 3510TIP3    H110494   6.204   4.207   2.892 -0.7108  0.6293 -0.9490
 3510TIP3    H210495   6.140   4.335   2.844 -0.9233  1.2411  0.8977
 3511TIP3   OH210496   0.124   4.426   3.181 -0.0510  0.0800 -0.0681
 3511TIP3    H110497   0.036   4.436   3.145 -0.7714  3.3269  2.1649
 3511TIP3    H210498   0.163   4.513   3.173  2.0754 -0.6947  1.1683
 3512TIP3   OH210499   1.429   4.022   5.765 -0.3694 -0.0244 -0.2337
 3512TIP3    H110500   1.360   4.058   5.821 -0.3824  1.0154 -0.8939
 3512TIP3    H210501   1.405   4.049   5.677  1.0648  0.6769 -0.4385
 3513TIP3   OH210502   2.682   4.810   5.812 -0.1147  0.4004 -0.1441
 3513TIP3    H110503   2.665   4.883   5.872 -1.2059 -0.7541  1.0149
 3513TIP3    H210504   2.608   4.751   5.825 -0.5848  0.2646 -2.9621
 3514TIP3   OH210505   7.020   4.684   0.968  0.8215  0.4479 -0.0814
 3514TIP3    H110506   7.101   4.661   0.921  0.7206 -1.3041  0.5565
 3514TIP3    H210507   6.986   4.601   0.999 -2.1724  0.9174 -1.7692
 3515TIP3   OH210508   7.180   4.693   4.041  0.1040 -0.0896 -0.3496
 3515TIP3    H110509   7.233   4.701   4.120 -0.3478  1.6354 -0.1699
 3515TIP3    H210510   7.090   4.692   4.073 -0.0343 -0.8932 -0.7614
 3516TIP3   OH210511   5.600   6.194   4.794 -0.3931  0.3056 -0.5272
 3516TIP3    H110512   5.585   6.114   4.744  0.9806  0.7528 -1.7429
 3516TIP3    H210513   5.599   6.165   4.885 -0.1354 -1.0715 -0.9282
 3517TIP3   OH210514   5.244   1.499   4.080 -0.5517  0.2356 -0.5684
 3517TIP3    H110515   5.221   1.419   4.127  0.7968  0.9725  1.4899
 3517TIP3    H210516   5.325   1.476   4.033  0.4726  0.6390  0.9219
 3518TIP3   OH210517   4.787   0.409   0.534 -0.8323  0.1774 -0.5190
 3518TIP3    H110518   4.796   0.476   0.602  0.0733  0.4725 -0.9201
 3518TIP3    H210519   4.814   0.328   0.577 -1.5014  0.1318 -0.1642
 3519TIP3   OH210520   3.413   0.283   4.253  0.0844  0.1957 -0.0810
 3519TIP3    H110521   3.373   0.212   4.203 -0.5717  0.4485  0.0700
 3519TIP3    H210522   3.362   0.287   4.334 -0.0850  1.0342 -0.2192
 3520TIP3   OH210523   2.616   3.097   2.607  0.3009  0.0658 -0.4768
 3520TIP3    H110524   2.644   3.010   2.578 -0.5562 -0.6028  0.6320
 3520TIP3    H210525   2.638   3.155   2.534 -1.0945 -1.4150 -2.1578
 3521TIP3   OH210526   1.164   0.438   4.661  0.2048 -0.3651  0.5100
 3521TIP3    H110527   1.134   0.529   4.673 -0.0918 -0.2274 -0.9913
 3521TIP3    H210528   1.143   0.395   4.743 -2.1863  0.2778  0.3287
 3522TIP3   OH210529   4.657   5.108   2.095 -0.0662 -0.8556  0.1919
 3522TIP3    H110530   4.650   5.203   2.105 -0.3085 -0.6598 -1.5534
 3522TIP3    H210531   4.662   5.075   2.185 -0.5017  0.7619  0.8477
 3523TIP3   OH210532   6.636   5.222   2.864 -0.2320  0.4046 -0.1978
 3523TIP3    H110533   6.711   5.241   2.807  0.7767 -0.3528  0.8333
 3523TIP3    H210534   6.560   5.249   2.813  0.7173  0.9227 -1.3952
 3524TIP3   OH210535   2.021   6.381   5.385 -0.1387 -0.0784 -0.3977
 3524TIP3    H110536   2.101   6.424   5.356 -0.0502  0.1976  0.2486
 3524TIP3    H210537   2.049   6.293   5.411  0.0777  0.2447  0.4832
 3525TIP3   OH210538   4.489   4.195   0.915  0.1433  0.3194  0.0250
 3525TIP3    H110539   4.548   4.268   0.894  2.1778 -1.4860 -0.9003
 3525TIP3    H210540   4.539   4.139   0.973 -1.2796 -0.5105  0.4986
 3526TIP3   OH210541   5.503   0.698   2.036  0.2023 -0.0481  0.3588
 3526TIP3    H110542   5.545   0.768   1.987 -0.9075  0.6936  0.4437
 3526TIP3    H210543   5.526   0.715   2.127  1.4228 -0.8435  0.2150
 3527TIP3   OH210544   3.621   0.026   0.312 -0.1227 -0.5459 -0.0339
 3527TIP3    H110545   3.697   0.083   0.304 -0.0457 -0.4987  0.9631
 3527TIP3    H210546   3.572   0.060   0.387 -0.6102 -1.1705 -0.0528
 3528TIP3   OH210547   6.091   1.836   2.967 -0.8011 -0.3884  0.2561
 3528TIP3    H110548   6.142   1.756   2.971  0.0932  0.1100 -0.8532
 3528TIP3    H210549   6.153   1.903   2.939 -2.0326  0.2308 -1.1155
 3529TIP3   OH210550   1.021   5.108   2.473  0.1034  0.3909  0.2545
 3529TIP3    H110551   1.088   5.107   2.541  2.0828  1.0971 -1.5621
 3529TIP3    H210552   0.985   5.197   2.476  0.2066  0.4286  0.3487
 3530TIP3   OH210553   2.273   3.116   4.694 -0.1057 -0.6617 -0.2417
 3530TIP3    H110554   2.198   3.116   4.753 -0.9709  3.9338 -0.9628
 3530TIP3    H210555   2.348   3.136   4.749 -0.1376 -0.9320 -0.1001
 3531TIP3   OH210556   1.892   4.320   4.114  1.2079  0.2886 -0.2207
 3531TIP3    H110557   1.804   4.357   4.123  0.8385 -0.4645 -0.6125
 3531TIP3    H210558   1.951   4.389   4.146  0.4482  0.6015  0.5292
 3532TIP3   OH210559   4.463   2.826   2.514 -0.7697  0.4713 -0.6760
 3532TIP3    H110560   4.537   2.824   2.574  0.2227  0.6188 -1.8561
 3532TIP3    H210561   4.393   2.781   2.560  0.1579  0.0324  0.3291
 3533TIP3   OH210562   5.215   2.885   3.691 -0.1460 -0.6336  0.3694
 3533TIP3    H110563   5.213   2.867   3.785 -0.4915  0.1035  0.5120
 3533TIP3    H210564   5.297   2.847   3.660 -0.5847 -1.9252  0.7482
 3534TIP3   OH210565   5.115   0.896   2.314  0.5950 -0.2993  0.5585
 3534TIP3    H110566   5.026   0.878   2.344  0.8552 -0.8652  1.0094
 3534TIP3    H210567   5.116   0.991   2.301 -0.6883 -0.5264 -1.5408
 3535TIP3   OH210568   3.860   1.887   1.866  0.2200  0.3611  0.1743
 3535TIP3    H110569   3.785   1.829   1.877 -0.4332  0.8994 -1.2034
 3535TIP3    H210570   3.855   1.916   1.775  1.3130  1.5035  0.4491
 3536TIP3   OH210571   6.346   0.231   5.317  0.0127  0.2602  0.2808
 3536TIP3    H110572   6.366   0.179   5.239 -0.8083 -0.2166  0.3733
 3536TIP3    H210573   6.400   0.193   5.386 -0.4669 -0.3902  0.3114
 3537TIP3   OH210574   5.183   5.833   0.368  0.3141 -0.0916 -0.3225
 3537TIP3    H110575   5.114   5.789   0.418 -1.1086  1.3251 -0.9485
 3537TIP3    H210576   5.213   5.904   0.425 -1.2673  1.4872 -1.3654
 3538TIP3   OH210577   0.449   4.462   4.967  0.9949  0.3588  0.7134
 3538TIP3    H110578   0.467   4.542   4.917 -0.3459  1.0166  1.2056
 3538TIP3    H210579   0.387   4.490   5.034 -0.1586 -1.2504  0.3964
 3539TIP3   OH210580   1.743   4.531   0.593  0.0861 -0.9177  0.6146
 3539TIP3    H110581   1.757   4.617   0.632 -2.2740  0.1956 -0.7831
 3539TIP3    H210582   1.810   4.524   0.525 -1.4713  1.1787 -1.2671
 3540TIP3   OH210583   3.459   4.519   3.988  0.0079  0.4860 -0.3754
 3540TIP3    H110584   3.529   4.499   3.926  0.1127 -2.0184  0.4377
 3540TIP3    H210585   3.403   4.582   3.942  1.2427  0.3714 -2.1329
 3541TIP3   OH210586   1.021   3.379   3.152 -0.0238 -0.2300  0.1459
 3541TIP3    H110587   1.053   3.458   3.197  0.8447  0.4922 -1.6462
 3541TIP3    H210588   0.945   3.352   3.204 -0.2485  1.6832  0.9183
 3542TIP3   OH210589   5.244   2.017   5.314 -0.3166 -0.6857 -0.3586
 3542TIP3    H110590   5.236   2.067   5.233 -2.3910 -0.7294 -0.2472
 3542TIP3    H210591   5.332   2.036   5.346  0.2252  0.0262 -2.1543
 3543TIP3   OH210592   4.855   3.168   2.830  0.6420  0.0642  0.6985
 3543TIP3    H110593   4.869   3.102   2.897 -1.1904 -0.5242  0.5689
 3543TIP3    H210594   4.943   3.189   2.797  1.3482 -1.4901  1.5046
 3544TIP3   OH210595   3.341   3.744   2.703 -0.3586  0.1111  0.1608
 3544TIP3    H110596   3.391   3.818   2.737 -1.7925  0.5481  1.4507
 3544TIP3    H210597   3.325   3.689   2.780  1.5947 -2.1909 -0.9294
 3545TIP3   OH210598   4.923   6.637   2.224  0.1114 -0.3418  0.3838
 3545TIP3    H110599   5.004   6.606   2.265  0.5930  1.8978  1.2824
 3545TIP3    H210600   4.862   6.645   2.297  0.2913  1.5815  0.3651
 3546TIP3   OH210601   3.704   1.101   4.455 -0.2059  0.1489  0.1476
 3546TIP3    H110602   3.773   1.100   4.521 -0.2639 -0.0698  0.2064
 3546TIP3    H210603   3.749   1.080   4.373 -0.4815 -1.9775  0.4705
 3547TIP3   OH210604   2.534   5.004   4.777  0.5867 -0.2420  0.3080
 3547TIP3    H110605   2.482   5.045   4.846 -0.4495 -0.8758 -0.0831
 3547TIP3    H210606   2.559   4.919   4.813 -0.9059 -1.0517 -0.4940
 3548TIP3   OH210607   1.628   0.127   0.423  0.1154 -0.0963  0.1837
 3548TIP3    H110608   1.652   0.126   0.516  1.5702 -1.2257 -0.1605
 3548TIP3    H210609   1.538   0.094   0.421 -0.5533  1.5128  1.2952
 3549TIP3   OH210610   2.123   5.760   4.876 -0.1970  0.2018  0.2219
 3549TIP3    H110611   2.092   5.685   4.825  0.5098  0.1367 -0.1259
 3549TIP3    H210612   2.197   5.726   4.926  0.6231  0.8455 -0.5270
 3550TIP3   OH210613   1.366   5.291   4.096  0.3376  0.3152  0.0207
 3550TIP3    H110614   1.415   5.347   4.156  0.3721  0.4678 -0.1519
 3550TIP3    H210615   1.434   5.249   4.042  0.2373  1.2072 -0.8224
 3551TIP3   OH210616   3.318   1.726   1.712 -0.1418  0.0234 -0.2973
 3551TIP3    H110617   3.381   1.725   1.640 -0.1202 -1.2072 -0.2731
 3551TIP3    H210618   3.270   1.644   1.704 -0.5820  0.1633  0.7143
 3552TIP3   OH210619   4.082   3.437   2.898 -0.0533  0.2144 -1.0849
 3552TIP3    H110620   4.147   3.505   2.912 -0.6036  0.4054  0.8086
 3552TIP3    H210621   4.121   3.379   2.832  1.5080  0.9534 -0.8453
 3553TIP3   OH210622   1.504   0.223   0.095 -0.0846  0.2429 -0.4966
 3553TIP3    H110623   1.471   0.151   0.041  3.0432 -1.8644  0.1812
 3553TIP3    H210624   1.564   0.182   0.157  2.0458  3.4583 -0.1823
 3554TIP3   OH210625   4.570   6.771   2.004 -0.8451  0.5728 -0.0383
 3554TIP3    H110626   4.556   6.750   1.912  1.5723 -1.9367  0.0486
 3554TIP3    H210627   4.622   6.851   2.003 -1.0700  0.7167 -0.8259
 3555TIP3   OH210628   3.802   5.274   3.839  0.4505 -0.3144  0.4160
 3555TIP3    H110629   3.707   5.273   3.824  0.6830 -2.4001 -1.3524
 3555TIP3    H210630   3.813   5.240   3.928 -0.4106 -2.0383 -0.0926
 3556TIP3   OH210631   4.071   4.364   5.234 -0.1614  0.1386 -0.2408
 3556TIP3    H110632   4.015   4.434   5.267  0.7547  0.7236  0.1116
 3556TIP3    H210633   4.046   4.287   5.285 -0.8685  0.3112 -0.3217
 3557TIP3   OH210634   6.465   2.132   4.233 -0.2269  0.1351  0.5129
 3557TIP3    H110635   6.521   2.057   4.210  0.6035  1.1144 -0.7846
 3557TIP3    H210636   6.389   2.093   4.276  0.2695 -1.4384  0.0167
 3558TIP3   OH210637   0.235   5.719   4.233 -0.2853  0.0587 -0.0107
 3558TIP3    H110638   0.315   5.668   4.245  0.5870  1.8567  2.7437
 3558TIP3    H210639   0.165   5.657   4.247  0.7333 -0.7186  2.1673
 3559TIP3   OH210640   0.659   2.629   0.176 -0.4968 -0.2690  0.2488
 3559TIP3    H110641   0.669   2.682   0.097 -1.5767  0.1256  0.3600
 3559TIP3    H210642   0.650   2.539   0.144 -1.3479 -0.0625 -0.1095
 3560TIP3   OH210643   6.031   1.340   5.590  0.0727  0.5476 -1.1078
 3560TIP3    H110644   6.107   1.350   5.532 -1.4930  1.8008 -3.0799
 3560TIP3    H210645   6.029   1.421   5.641 -0.5838  1.0573 -1.9184
 3561TIP3   OH210646   7.156   5.750   1.051 -0.0531  0.3285 -0.0264
 3561TIP3    H110647   7.095   5.754   1.124 -1.1706 -1.5442 -0.8005
 3561TIP3    H210648   7.216   5.679   1.073  0.8290  1.0507 -0.0469
 3562TIP3   OH210649   5.388   6.719   3.289  0.2691  0.3580 -0.2612
 3562TIP3    H110650   5.368   6.725   3.382 -0.0093 -0.7192 -0.2332
 3562TIP3    H210651   5.427   6.804   3.266  1.1503  0.3290  1.0343
 3563TIP3   OH210652   3.897   3.773   3.200  0.4737 -0.0124 -0.3434
 3563TIP3    H110653   3.817   3.826   3.200  2.0222  2.5778  1.3409
 3563TIP3    H210654   3.868   3.687   3.171 -3.3739  0.1392  2.2521
 3564TIP3   OH210655   0.903   0.576   0.294 -0.1965  0.0427  0.4864
 3564TIP3    H110656   0.996   0.563   0.310 -0.2430  0.2465  0.9285
 3564TIP3    H210657   0.899   0.649   0.233 -0.0608 -0.0929  0.3132
 3565TIP3   OH210658   3.924   4.684   3.865 -0.0947  0.1628  0.1101
 3565TIP3    H110659   3.956   4.674   3.955  1.6768  1.1471 -0.3527
 3565TIP3    H210660   4.002   4.671   3.811 -0.6387  1.8466 -1.1652
 3566TIP3   OH210661   3.725   4.808   0.323  0.2279 -0.3464  0.0933
 3566TIP3    H110662   3.740   4.823   0.417 -0.3583  0.1723  0.1105
 3566TIP3    H210663   3.694   4.717   0.319 -2.6854  0.5069  0.7874
 3567TIP3   OH210664   3.244   0.787   3.870  0.1937 -0.1272  0.1228
 3567TIP3    H110665   3.257   0.708   3.922 -1.3740 -1.6544 -1.6256
 3567TIP3    H210666   3.153   0.781   3.839 -0.0260  2.4463  0.0123
 3568TIP3   OH210667   4.062   6.044   5.426  0.1129 -0.1556 -0.2861
 3568TIP3    H110668   4.110   6.017   5.504  0.9788  1.0814 -0.3598
 3568TIP3    H210669   4.058   6.140   5.432  1.3232  0.0828 -2.3699
 3569TIP3   OH210670   1.760   1.407   3.271  0.1567 -0.0374  0.7710
 3569TIP3    H110671   1.679   1.365   3.302 -0.6105  0.9524  0.1890
 3569TIP3    H210672   1.753   1.497   3.301  0.6690  0.2626  0.0270
 3570TIP3   OH210673   4.772   0.188   5.048 -0.2379 -0.5471  0.5950
 3570TIP3    H110674   4.716   0.166   4.973  1.5482  1.2282 -1.3656
 3570TIP3    H210675   4.830   0.112   5.058  1.5484  0.3586 -1.8998
 3571TIP3   OH210676   4.520   6.742   5.037  0.0545 -0.5801 -0.2696
 3571TIP3    H110677   4.537   6.800   4.963 -0.9027 -0.9998 -0.8425
 3571TIP3    H210678   4.426   6.749   5.052 -0.0860 -1.9616 -0.3541
 3572TIP3   OH210679   0.607   4.371   4.246  0.4191  0.3486  0.4633
 3572TIP3    H110680   0.622   4.402   4.157  0.0476  0.4429  0.4300
 3572TIP3    H210681   0.602   4.451   4.299  1.3184  0.2665  0.6843
 3573TIP3   OH210682   5.477   3.647   1.394 -0.0640  0.0904  0.0916
 3573TIP3    H110683   5.424   3.684   1.465  2.6858  0.1325  2.2830
 3573TIP3    H210684   5.509   3.564   1.429 -0.5368 -1.0635 -2.0809
 3574TIP3   OH210685   2.431   4.712   1.280 -0.1045 -0.2363 -0.0814
 3574TIP3    H110686   2.444   4.647   1.211  1.5572 -1.0042  0.9021
 3574TIP3    H210687   2.519   4.748   1.296 -0.9278  2.1237 -0.4343
 3575TIP3   OH210688   6.781   5.458   1.958 -0.1614  0.5268 -0.1155
 3575TIP3    H110689   6.828   5.380   1.986  0.7131  1.2555  0.5232
 3575TIP3    H210690   6.696   5.452   2.002 -0.0515  0.0047  0.0337
 3576TIP3   OH210691   6.860   1.423   0.796 -0.0378  0.1665  0.2892
 3576TIP3    H110692   6.850   1.424   0.891  1.9980  0.5675  0.5286
 3576TIP3    H210693   6.784   1.473   0.764 -0.4250  0.5488  1.7185
 3577TIP3   OH210694   1.578   5.410   1.586 -0.0771 -0.2538 -0.1451
 3577TIP3    H110695   1.515   5.361   1.533 -1.1289 -1.3130  1.9726
 3577TIP3    H210696   1.537   5.496   1.598  0.0213 -0.1166 -0.7710
 3578TIP3   OH210697   6.694   0.042   0.252 -0.2728  0.0256 -0.5661
 3578TIP3    H110698   6.782   0.046   0.213 -0.3798 -1.2887 -0.9911
 3578TIP3    H210699   6.708   0.069   0.343  0.3716  0.9119 -0.9092
 3579TIP3   OH210700   3.140   0.148   0.737  0.1830 -0.3569  0.4566
 3579TIP3    H110701   3.092   0.126   0.817 -0.0715 -0.1477  0.3659
 3579TIP3    H210702   3.121   0.241   0.723  1.0250 -0.1406  0.6925
 3580TIP3   OH210703   5.234   4.945   4.131  0.3866 -0.2084  0.7787
 3580TIP3    H110704   5.218   4.940   4.037  0.5341 -0.5119  0.7683
 3580TIP3    H210705   5.312   5.001   4.139  0.7265 -0.6593  0.6799
 3581TIP3   OH210706   6.886   0.404   2.188 -0.1153 -0.4637  0.9020
 3581TIP3    H110707   6.974   0.385   2.156 -0.0316  0.1516  0.7405
 3581TIP3    H210708   6.827   0.364   2.124  0.0509 -0.2679  0.6258
 3582TIP3   OH210709   0.658   5.803   5.102 -0.0540 -0.1307 -0.0785
 3582TIP3    H110710   0.649   5.744   5.176  1.2948  0.9721  1.0390
 3582TIP3    H210711   0.730   5.766   5.050  0.2486  0.0771  0.1861
 3583TIP3   OH210712   6.388   2.400   2.227 -0.1572  0.2106  0.6236
 3583TIP3    H110713   6.392   2.407   2.323 -0.0188 -0.7646  0.6943
 3583TIP3    H210714   6.317   2.339   2.210 -1.3358  1.6777  0.0172
 3584TIP3   OH210715   4.393   1.730   2.783 -0.5009  0.1930 -0.3074
 3584TIP3    H110716   4.478   1.703   2.748 -0.0403  2.1896 -0.8580
 3584TIP3    H210717   4.414   1.804   2.841 -1.6079 -0.9612  1.6930
 3585TIP3   OH210718   0.138   2.557   4.096  0.0983  0.1257 -0.0904
 3585TIP3    H110719   0.158   2.633   4.151  2.2110 -0.8224  0.5388
 3585TIP3    H210720   0.061   2.518   4.137 -0.3001  1.2311  0.2751
 3586TIP3   OH210721   5.672   5.841   2.900  0.6558  0.7939  0.2948
 3586TIP3    H110722   5.631   5.850   2.813 -0.1380 -1.5273  0.3561
 3586TIP3    H210723   5.631   5.909   2.953 -0.7731  0.5956 -0.5015
 3587TIP3   OH210724   2.138   2.643   3.850 -0.1660  0.6666 -0.4495
 3587TIP3    H110725   2.159   2.580   3.919  0.7533  2.1771  0.7139
 3587TIP3    H210726   2.222   2.681   3.826 -0.7996  2.2586 -0.2758
 3588TIP3   OH210727   0.931   0.909   2.014 -0.2905  0.0082 -0.4054
 3588TIP3    H110728   1.008   0.867   2.054 -1.3711 -2.1653 -0.4541
 3588TIP3    H210729   0.860   0.889   2.075 -1.2814 -0.2056 -1.6128
 3589TIP3   OH210730   0.562   0.992   1.849  0.3530 -0.1554  0.1517
 3589TIP3    H110731   0.619   1.068   1.841  0.3938 -0.3480 -1.7626
 3589TIP3    H210732   0.609   0.932   1.907  0.8252  0.7961  0.7699
 3590TIP3   OH210733   6.829   2.484   3.492 -0.2418  0.3267  0.4009
 3590TIP3    H110734   6.879   2.437   3.425 -0.2290 -0.6013  1.0490
 3590TIP3    H210735   6.872   2.463   3.574 -1.2748  0.0590  0.8961
 3591TIP3   OH210736   5.765   2.152   2.153 -0.5177  0.7332 -0.1002
 3591TIP3    H110737   5.740   2.123   2.241  2.1240 -0.0753  0.4770
 3591TIP3    H210738   5.838   2.095   2.129  0.2628  2.3925 -1.8996
 3592TIP3   OH210739   4.500   5.528   5.063 -0.2743 -0.1676  0.3091
 3592TIP3    H110740   4.594   5.525   5.083 -0.2592 -0.4068  0.2090
 3592TIP3    H210741   4.484   5.618   5.036 -0.0015 -0.2087  0.0007
 3593TIP3   OH210742   1.773   4.900   2.825  0.2292 -0.2161  0.1231
 3593TIP3    H110743   1.781   4.918   2.919  1.6796 -0.1393 -0.0001
 3593TIP3    H210744   1.863   4.893   2.793 -0.2248  0.0622 -1.3257
 3594TIP3   OH210745   4.384   1.107   2.326  0.7834 -0.1559  0.0873
 3594TIP3    H110746   4.436   1.038   2.368  0.6210  0.1184  0.7619
 3594TIP3    H210747   4.294   1.074   2.329  1.0999 -1.7519 -3.2836
 3595TIP3   OH210748   5.945   2.329   0.845 -0.3830  0.0935  0.5405
 3595TIP3    H110749   6.003   2.274   0.792  0.6803  2.7738 -1.3063
 3595TIP3    H210750   6.002   2.366   0.912 -0.5121  0.7551  0.2942
 3596TIP3   OH210751   4.165   5.604   2.055 -0.3146  0.4745  0.1981
 3596TIP3    H110752   4.121   5.554   2.123  0.3587 -0.5438 -0.0902
 3596TIP3    H210753   4.215   5.539   2.005 -2.4381  0.8136 -2.6412
 3597TIP3   OH210754   3.926   3.692   5.214 -0.1786 -0.1556  0.1536
 3597TIP3    H110755   3.991   3.626   5.239  0.6226  0.8260  0.7477
 3597TIP3    H210756   3.845   3.663   5.254  0.1978 -0.7099  0.5177
 3598TIP3   OH210757   0.619   3.535   0.715  0.1455 -0.2887 -0.0388
 3598TIP3    H110758   0.578   3.613   0.678 -0.4601 -2.0170 -3.3400
 3598TIP3    H210759   0.556   3.504   0.780 -1.4524 -0.0653 -1.4090
 3599TIP3   OH210760   0.917   1.223   2.193  0.8489 -0.2233 -0.0044
 3599TIP3    H110761   0.975   1.272   2.251 -0.2062  0.5126  0.4619
 3599TIP3    H210762   0.924   1.267   2.108 -2.1363  2.6278  1.0181
 3600TIP3   OH210763   4.965   3.191   5.434  0.1104  0.1660  1.1086
 3600TIP3    H110764   5.028   3.127   5.400  0.2166  1.2543 -0.8824
 3600TIP3    H210765   4.899   3.137   5.478  0.2899 -1.3417 -0.3420
 3601TIP3   OH210766   5.659   1.189   1.727 -0.0275  0.4892  0.8634
 3601TIP3    H110767   5.610   1.231   1.798 -3.0784  1.6397 -1.6887
 3601TIP3    H210768   5.686   1.261   1.670 -1.6779 -0.5660 -1.4224
 3602TIP3   OH210769   0.674   1.769   2.736  0.1014 -0.8776  0.1660
 3602TIP3    H110770   0.716   1.699   2.685 -0.7846 -2.1411  1.1032
 3602TIP3    H210771   0.669   1.733   2.825 -1.1280  0.0538  0.4911
 3603TIP3   OH210772   5.995   6.573   3.724  0.4503  0.3240  0.2054
 3603TIP3    H110773   6.062   6.568   3.793  2.3268  1.4140 -1.4301
 3603TIP3    H210774   6.024   6.510   3.658 -0.3191  0.5923 -0.3973
 3604TIP3   OH210775   4.090   0.010   4.396 -0.1768 -0.2186 -0.3479
 3604TIP3    H110776   4.025   0.034   4.330  0.4437  2.2209 -0.1562
 3604TIP3    H210777   4.038  -0.030   4.466 -1.4201  1.0514 -0.4858
 3605TIP3   OH210778   1.812   2.727   0.909  0.5945  0.0083  0.8211
 3605TIP3    H110779   1.842   2.801   0.857  1.5641 -0.6745  0.3709
 3605TIP3    H210780   1.738   2.692   0.859  0.0314  0.7449  1.1162
 3606TIP3   OH210781   4.146   2.856   1.297  0.1480  0.2144  0.6294
 3606TIP3    H110782   4.221   2.905   1.263  0.0429  0.1027  0.2276
 3606TIP3    H210783   4.183   2.773   1.326 -0.0453 -0.5328 -1.1262
 3607TIP3   OH210784   2.574   5.025   0.224  0.6763  0.0203 -0.3683
 3607TIP3    H110785   2.619   4.990   0.301  1.7301  2.5154  0.2520
 3607TIP3    H210786   2.644   5.063   0.171 -0.3504  0.8584 -1.1514
 3608TIP3   OH210787   1.805   4.719   2.110 -0.0728  0.2986  0.5396
 3608TIP3    H110788   1.878   4.681   2.060  0.7195  2.7601 -0.3456
 3608TIP3    H210789   1.844   4.745   2.193 -0.3428  0.0984  0.7270
 3609TIP3   OH210790   6.467   5.116   4.265  0.4449 -0.2300 -0.0523
 3609TIP3    H110791   6.379   5.144   4.290  1.3400  2.0598  0.8294
 3609TIP3    H210792   6.457   5.074   4.180 -1.4521  0.1822 -0.0592
 3610TIP3   OH210793   1.069   4.550   1.030  0.5302  0.2765  0.3036
 3610TIP3    H110794   1.115   4.506   1.102  0.0566  1.2604  1.2302
 3610TIP3    H210795   0.994   4.592   1.071  1.2827  2.4666 -0.4120
 3611TIP3   OH210796   2.464   5.256   0.302 -0.9311  0.3783  0.1736
 3611TIP3    H110797   2.527   5.325   0.283 -2.3753  1.8510  0.4752
 3611TIP3    H210798   2.493   5.181   0.250  1.0878  0.9700  0.3839
 3612TIP3   OH210799   1.872   5.322   2.871  0.1779 -0.0046 -0.4441
 3612TIP3    H110800   1.806   5.279   2.817  0.7039 -0.9842 -0.3197
 3612TIP3    H210801   1.836   5.409   2.889  0.0617  0.4316 -2.5300
 3613TIP3   OH210802   1.880   1.655   2.346 -0.5129  0.0456 -0.3117
 3613TIP3    H110803   1.903   1.562   2.344 -1.6086 -0.2712 -3.0763
 3613TIP3    H210804   1.937   1.692   2.413  0.1746 -2.5316  0.6855
 3614TIP3   OH210805   6.132   4.304   4.878 -0.3164 -0.8448 -0.0116
 3614TIP3    H110806   6.221   4.273   4.892  0.3593  1.2253  0.6567
 3614TIP3    H210807   6.127   4.387   4.926 -1.9348  0.1690 -1.7780
 3615TIP3   OH210808   4.118   6.073   1.337 -0.2719  0.2126  0.1834
 3615TIP3    H110809   4.096   5.984   1.366  2.7500 -0.9872 -0.8512
 3615TIP3    H210810   4.073   6.130   1.400 -1.0065 -2.0729  1.8661
 3616TIP3   OH210811   0.022   6.006   5.220 -0.6288  0.2697  0.5369
 3616TIP3    H110812  -0.033   6.042   5.288 -0.4158  1.2124  0.2178
 3616TIP3    H210813   0.080   6.077   5.195  1.7067 -1.0521  1.8189
 3617TIP3   OH210814   4.835   4.385   3.326  0.0592  0.5262 -0.1883
 3617TIP3    H110815   4.878   4.301   3.317  0.4672  0.8954 -2.1992
 3617TIP3    H210816   4.794   4.383   3.413  1.4185 -1.0728  0.4466
 3618TIP3   OH210817   7.105   3.545   2.327 -0.0861 -0.4160  0.0420
 3618TIP3    H110818   7.145   3.620   2.370 -1.2257 -0.3185  0.9728
 3618TIP3    H210819   7.163   3.526   2.253  0.0855  1.5377 -0.3827
 3619TIP3   OH210820   2.740   2.760   4.331  0.2433 -0.1990 -0.2910
 3619TIP3    H110821   2.742   2.679   4.382 -0.0534 -0.4887 -0.7322
 3619TIP3    H210822   2.818   2.808   4.360  1.1522 -1.2083 -0.9422
 3620TIP3   OH210823   1.984   2.306   0.921  0.2611 -0.0808 -0.0692
 3620TIP3    H110824   1.983   2.386   0.973  0.0627 -0.0077 -0.1858
 3620TIP3    H210825   2.037   2.245   0.972 -2.2824 -0.9879  1.6479
 3621TIP3   OH210826   2.637   1.014   2.231 -0.0407 -0.3453 -0.4209
 3621TIP3    H110827   2.547   1.003   2.200  0.0095  2.1981 -1.7754
 3621TIP3    H210828   2.686   0.944   2.188 -0.9176 -0.0387 -2.0149
 3622TIP3   OH210829   3.205   0.394   1.461 -0.8377  0.4879 -0.0243
 3622TIP3    H110830   3.281   0.430   1.507 -0.6144  0.6445 -0.5104
 3622TIP3    H210831   3.134   0.456   1.479 -1.1426 -0.2038  1.3076
 3623TIP3   OH210832   0.433   4.668   1.280 -0.0367  0.1737  0.1572
 3623TIP3    H110833   0.347   4.692   1.245 -0.3955 -0.5511  0.5236
 3623TIP3    H210834   0.413   4.615   1.358  0.7038 -1.8341 -0.9504
 3624TIP3   OH210835   2.189   3.633   1.049 -0.3533  0.1121  0.9938
 3624TIP3    H110836   2.268   3.668   1.009 -0.6463 -0.7527 -0.4177
 3624TIP3    H210837   2.145   3.709   1.087  0.3568  0.8431  0.3746
 3625TIP3   OH210838   5.241   3.116   5.058 -0.7052  0.8082 -0.7031
 3625TIP3    H110839   5.245   3.051   4.987 -1.6076 -0.6531  0.5179
 3625TIP3    H210840   5.227   3.199   5.014  1.8409  0.4165 -2.4283
 3626TIP3   OH210841   2.268   0.078   3.831 -0.3609 -0.4668 -0.3859
 3626TIP3    H110842   2.182   0.115   3.815 -0.4402  0.4107  1.7126
 3626TIP3    H210843   2.258   0.026   3.911  0.8547 -1.0798 -0.6053
 3627TIP3   OH210844   3.474   1.321   5.292  0.0965  0.1240  0.2228
 3627TIP3    H110845   3.493   1.389   5.227 -0.5300  0.4224  0.3433
 3627TIP3    H210846   3.379   1.309   5.286  0.0755 -0.0601  0.8763
 3628TIP3   OH210847   4.939   2.486   2.857 -0.3102 -0.3078 -0.2672
 3628TIP3    H110848   4.898   2.564   2.818  0.9561  0.0014 -1.0394
 3628TIP3    H210849   4.908   2.486   2.947 -2.5249 -0.4760 -0.9619
 3629TIP3   OH210850   2.267   4.697   4.260 -0.3098 -0.1454  0.0555
 3629TIP3    H110851   2.357   4.672   4.240 -0.4356  0.1233 -0.9039
 3629TIP3    H210852   2.250   4.773   4.204 -1.9679 -1.7752 -1.8143
 3630TIP3   OH210853   0.662   3.001   1.535 -0.4035  0.0472 -0.4701
 3630TIP3    H110854   0.689   3.032   1.622 -0.3026 -0.2150 -0.4039
 3630TIP3    H210855   0.615   3.074   1.496  0.1995  0.4315 -0.4889
 3631TIP3   OH210856   2.639   3.198   0.522  0.3313 -0.0462 -0.0696
 3631TIP3    H110857   2.655   3.250   0.601 -0.3549 -1.4719  1.0623
 3631TIP3    H210858   2.723   3.158   0.501  0.0062 -1.7308  1.5414
 3632TIP3   OH210859   4.323   1.650   5.083  0.4518 -0.0103  0.3082
 3632TIP3    H110860   4.241   1.654   5.133  0.6157 -0.1765  0.5937
 3632TIP3    H210861   4.391   1.653   5.150  0.6785 -2.5268  0.2567
 3633TIP3   OH210862   4.477   1.801   0.155  0.4289  0.4357  0.2507
 3633TIP3    H110863   4.504   1.709   0.163  0.5401  0.5394  1.2227
 3633TIP3    H210864   4.544   1.841   0.099 -1.8440 -0.9364 -3.8665
 3634TIP3   OH210865   5.598   2.914   3.126  0.3055  0.1073 -0.1327
 3634TIP3    H110866   5.514   2.943   3.162  1.0199  1.6038  0.4504
 3634TIP3    H210867   5.605   2.959   3.042  0.8191  0.5413  0.1376
 3635TIP3   OH210868   3.327   1.188   4.297  0.0725 -0.1771 -0.7134
 3635TIP3    H110869   3.256   1.232   4.342  0.4275 -0.1536 -0.1608
 3635TIP3    H210870   3.357   1.121   4.359  2.7653  1.9876  0.5494
 3636TIP3   OH210871   4.762   2.121   0.557 -0.2646  0.3186 -0.0901
 3636TIP3    H110872   4.786   2.144   0.467 -0.9215  1.7783  0.0693
 3636TIP3    H210873   4.839   2.076   0.591 -0.1298 -0.5776 -1.4763
 3637TIP3   OH210874   5.129   6.329   3.910 -0.3593  0.4095 -0.2893
 3637TIP3    H110875   5.089   6.357   3.828  0.5951  0.2110 -0.8423
 3637TIP3    H210876   5.220   6.308   3.886 -0.7318 -2.2385  0.2462
 3638TIP3   OH210877   0.191   5.696   0.525 -0.1662  0.0743  0.0264
 3638TIP3    H110878   0.117   5.665   0.473 -0.3244 -0.2373  0.4360
 3638TIP3    H210879   0.267   5.652   0.487 -0.3143 -0.3507  0.2201
 3639TIP3   OH210880   5.678   4.621   3.356 -0.0322  0.0209 -0.8356
 3639TIP3    H110881   5.724   4.692   3.311 -1.5851  1.9526  0.4347
 3639TIP3    H210882   5.624   4.581   3.288  0.4665  0.4128 -1.4772
 3640TIP3   OH210883   1.484   2.608   5.361 -0.0773  0.2146  0.4670
 3640TIP3    H110884   1.561   2.563   5.327 -0.8740 -0.4875 -0.4737
 3640TIP3    H210885   1.501   2.621   5.454  0.6516 -1.0234  0.5189
 3641TIP3   OH210886   5.928   2.160   4.162  0.3106 -0.2115  0.1226
 3641TIP3    H110887   5.928   2.226   4.232 -2.1324 -0.8490  0.7998
 3641TIP3    H210888   5.871   2.197   4.095 -1.1126 -1.5959  0.5210
 3642TIP3   OH210889   5.001   4.863   1.085  0.4505  0.6027  0.6367
 3642TIP3    H110890   5.092   4.886   1.102  0.0884  1.4639  1.4767
 3642TIP3    H210891   5.000   4.767   1.087  1.4894  0.5500 -0.2757
 3643TIP3   OH210892   4.378   6.018   2.723 -1.2085 -0.7165 -0.3438
 3643TIP3    H110893   4.306   5.957   2.736 -0.7282 -0.9425  1.6546
 3643TIP3    H210894   4.434   5.975   2.658 -1.2834 -2.0412  0.4314
 3644TIP3   OH210895   0.821   1.342   4.122  0.4002  0.2964 -0.1095
 3644TIP3    H110896   0.775   1.269   4.164  2.4967 -0.1838  1.5218
 3644TIP3    H210897   0.819   1.413   4.186 -0.0123  1.0568 -0.9426
 3645TIP3   OH210898   5.373   0.968   5.398  0.6108 -0.2005  0.0589
 3645TIP3    H110899   5.390   0.992   5.307  0.2482  0.3495  0.1297
 3645TIP3    H210900   5.355   0.874   5.396  1.2636 -0.3235 -0.3407
 3646TIP3   OH210901   7.034   6.774   3.580 -0.2691  0.2918  0.2633
 3646TIP3    H110902   7.062   6.805   3.666  0.9283 -1.3578  0.5173
 3646TIP3    H210903   6.986   6.692   3.599  0.7526 -0.5478 -0.6699
 3647TIP3   OH210904   1.389   2.217   5.446  0.2203 -0.2952  0.3703
 3647TIP3    H110905   1.471   2.255   5.478 -1.2068  1.6086  2.0578
 3647TIP3    H210906   1.374   2.142   5.503  0.9282 -0.8711 -0.1781
 3648TIP3   OH210907   1.494   3.683   4.865  0.3580  0.1918  0.7286
 3648TIP3    H110908   1.453   3.681   4.779  2.3160  1.6540 -0.3129
 3648TIP3    H210909   1.481   3.595   4.900  1.5553 -1.2514 -2.1107
 3649TIP3   OH210910   4.777   4.998   3.168  0.2004  0.6888  0.8475
 3649TIP3    H110911   4.724   4.923   3.195 -0.5408  1.0687  0.4388
 3649TIP3    H210912   4.855   4.992   3.224  0.4475 -0.7444  0.3828
 3650TIP3   OH210913   4.316   6.483   4.464 -0.0645  0.3539  0.2959
 3650TIP3    H110914   4.354   6.508   4.548  1.8796 -0.8110 -0.1801
 3650TIP3    H210915   4.381   6.510   4.399 -1.1528  0.4703 -0.7800
 3651TIP3   OH210916   3.650   6.450   3.749  0.1911 -0.3873 -0.1534
 3651TIP3    H110917   3.708   6.394   3.801  0.4802 -0.3218 -0.4045
 3651TIP3    H210918   3.643   6.531   3.800  0.1561 -0.4713 -0.0242
 3652TIP3   OH210919   0.207   4.596   5.146  0.6427 -1.0500  0.1408
 3652TIP3    H110920   0.176   4.683   5.170  0.6191 -0.8894 -0.4615
 3652TIP3    H210921   0.148   4.536   5.192  0.7061 -0.7528  0.6145
 3653TIP3   OH210922   5.618   3.104   2.552 -0.6075  0.8269 -0.6130
 3653TIP3    H110923   5.570   3.037   2.600 -0.1633  1.2720  0.5046
 3653TIP3    H210924   5.659   3.058   2.479 -2.5795  0.4194 -1.5134
 3654TIP3   OH210925   2.635   2.945   5.497 -0.2861 -0.1019 -0.3504
 3654TIP3    H110926   2.718   2.936   5.544 -0.3158 -0.5715 -0.3777
 3654TIP3    H210927   2.637   3.033   5.460 -0.3589  0.3690  0.7168
 3655TIP3   OH210928   0.194   5.042   4.600 -0.4511  0.0160 -0.2305
 3655TIP3    H110929   0.104   5.072   4.593  0.0005  1.2447 -1.2825
 3655TIP3    H210930   0.241   5.116   4.638  0.3205 -0.1247 -0.8780
 3656TIP3   OH210931   5.880   3.736   4.435  0.0893 -0.4033  0.4122
 3656TIP3    H110932   5.831   3.778   4.506 -1.5614  0.4611 -1.1517
 3656TIP3    H210933   5.880   3.643   4.458 -0.6412 -0.1720  1.4228
 3657TIP3   OH210934   4.388   0.166   1.032 -0.9317  0.5470  0.0378
 3657TIP3    H110935   4.322   0.235   1.042 -2.3869 -0.9032  1.0500
 3657TIP3    H210936   4.369   0.126   0.947 -2.0052 -0.4451  0.7078
 3658TIP3   OH210937   1.098   2.029   0.592 -0.5432 -0.3413  0.1166
 3658TIP3    H110938   1.078   1.983   0.673 -0.2582 -1.6505 -0.5248
 3658TIP3    H210939   1.193   2.025   0.584 -0.6810 -1.9079 -1.2002
 3659TIP3   OH210940   6.370   4.723   5.403 -0.2731  0.0937 -0.3271
 3659TIP3    H110941   6.374   4.638   5.448 -0.8300  0.0724 -0.3061
 3659TIP3    H210942   6.461   4.750   5.394 -0.1649  0.6694  1.8928
 3660TIP3   OH210943   4.948   5.444   2.576 -0.5219 -0.1289 -0.1481
 3660TIP3    H110944   5.022   5.384   2.590  0.4934  0.9976 -0.5158
 3660TIP3    H210945   4.871   5.387   2.579  0.4906 -1.7376 -2.1155
 3661TIP3   OH210946   2.589   6.102   0.977 -0.1373 -0.7899 -0.4230
 3661TIP3    H110947   2.646   6.164   0.931  0.0731 -0.2747  0.5119
 3661TIP3    H210948   2.616   6.108   1.069 -0.5647 -1.7850 -0.2207
 3662TIP3   OH210949   2.652   4.152   2.393 -0.3924 -0.1650  0.1566
 3662TIP3    H110950   2.672   4.068   2.352 -1.1051 -0.1627 -0.2031
 3662TIP3    H210951   2.662   4.216   2.322  0.8351  0.1550  0.5903
 3663TIP3   OH210952   4.262   4.590   4.333  0.0696  0.5016  0.6396
 3663TIP3    H110953   4.269   4.557   4.422 -0.6364 -0.5521  0.3235
 3663TIP3    H210954   4.294   4.518   4.278 -1.8930  0.1093 -0.0892
 3664TIP3   OH210955   2.309   4.532   0.873  0.0180 -0.2667 -0.0273
 3664TIP3    H110956   2.280   4.623   0.873 -2.4922 -0.9992  0.0518
 3664TIP3    H210957   2.349   4.520   0.959 -1.2004  0.3200  0.6414
 3665TIP3   OH210958   1.540   3.139   3.093 -0.1515  0.4803 -0.6082
 3665TIP3    H110959   1.484   3.127   3.169  2.1049  1.7864  1.3954
 3665TIP3    H210960   1.479   3.151   3.020 -2.4350  0.4842  1.1899
 3666TIP3   OH210961   1.009   4.009   0.266 -0.3775  0.2017  0.1654
 3666TIP3    H110962   1.013   3.995   0.171 -0.0719  0.3815  0.1529
 3666TIP3    H210963   0.937   3.952   0.295  0.8644 -1.4634  0.1147
 3667TIP3   OH210964   1.530   5.498   3.866  0.1111 -0.0396 -0.0303
 3667TIP3    H110965   1.533   5.562   3.937 -0.5492  0.1102 -0.1333
 3667TIP3    H210966   1.561   5.416   3.907  0.5014  0.2295  0.2204
 3668TIP3   OH210967   1.617   1.244   0.817 -0.1667 -0.3140  0.2834
 3668TIP3    H110968   1.666   1.200   0.886  0.6907 -0.1522 -0.2134
 3668TIP3    H210969   1.622   1.183   0.742  1.7016  0.9202 -0.6696
 3669TIP3   OH210970   4.703   1.754   1.231 -0.4808 -0.2342 -0.2325
 3669TIP3    H110971   4.738   1.841   1.251  0.0980 -0.6654  0.7468
 3669TIP3    H210972   4.636   1.769   1.165 -0.0627  0.8982 -0.4225
 3670TIP3   OH210973   5.340   5.261   2.307 -0.6541 -0.3676 -0.4146
 3670TIP3    H110974   5.278   5.317   2.261 -0.8452 -0.2041  0.0299
 3670TIP3    H210975   5.350   5.184   2.251 -0.1574  0.2436 -1.1769
 3671TIP3   OH210976   4.049   5.696   3.600  0.0031  0.1466 -0.1047
 3671TIP3    H110977   4.020   5.760   3.664  0.1886  0.3808 -0.2513
 3671TIP3    H210978   3.996   5.618   3.617  1.5152 -0.5641  1.7442
 3672TIP3   OH210979   0.499   4.157   4.714  0.2570  0.0204  0.1237
 3672TIP3    H110980   0.517   4.069   4.748 -1.4193  0.6803  3.1031
 3672TIP3    H210981   0.553   4.215   4.769 -0.4993  0.9996 -0.1480
 3673TIP3   OH210982   1.277   3.679   5.733 -0.0315  0.3472  0.0928
 3673TIP3    H110983   1.227   3.605   5.700 -0.2962 -0.4879  2.2001
 3673TIP3    H210984   1.369   3.652   5.722 -0.1239 -0.2711  0.6962
 3674TIP3   OH210985   2.525   5.281   1.659 -0.7489 -0.0387 -0.1390
 3674TIP3    H110986   2.574   5.319   1.586  0.4883 -1.2052  0.0294
 3674TIP3    H210987   2.568   5.316   1.737  0.8303 -2.1251  0.0325
 3675TIP3   OH210988   6.026   3.902   5.154  0.0114 -0.3046  0.1176
 3675TIP3    H110989   6.119   3.891   5.134 -0.0376  0.9169 -0.9325
 3675TIP3    H210990   6.001   3.983   5.109 -1.0413  0.6211  2.2055
 3676TIP3   OH210991   6.988   2.025   1.645 -0.4269 -0.0171 -0.2165
 3676TIP3    H110992   6.993   1.993   1.555  1.0826 -1.2864  0.2745
 3676TIP3    H210993   7.023   2.114   1.641  1.8116 -0.8532 -0.5701
 3677TIP3   OH210994   0.898   5.680   2.290  0.0677  0.0768 -0.1665
 3677TIP3    H110995   0.955   5.671   2.213  1.3619  2.3494  0.4136
 3677TIP3    H210996   0.934   5.755   2.337 -0.3685 -1.5278  2.9603
 3678TIP3   OH210997   5.097   4.761   4.846  0.4025 -0.2080  0.0466
 3678TIP3    H110998   5.156   4.783   4.918  0.3690 -0.4789  0.1584
 3678TIP3    H210999   5.087   4.843   4.797  0.6292 -0.0870  0.2018
 3679TIP3   OH211000   6.633   6.448   3.612 -0.4139  0.0762 -0.3628
 3679TIP3    H111001   6.593   6.514   3.670  1.6407  1.4771 -0.4493
 3679TIP3    H211002   6.654   6.495   3.532  1.4963 -0.5493 -0.2749
 3680TIP3   OH211003   3.195   5.240   5.711 -0.0370 -0.0481 -0.2302
 3680TIP3    H111004   3.190   5.227   5.806  0.0518 -0.7930 -0.3180
 3680TIP3    H211005   3.252   5.170   5.681  1.3015  1.1853 -0.6499
 3681TIP3   OH211006   2.936   0.773   1.452 -0.2189 -0.0600  0.5670
 3681TIP3    H111007   2.886   0.723   1.388  1.0285 -0.0560 -0.4385
 3681TIP3    H211008   2.956   0.710   1.522  0.3166 -0.6696 -0.1208
 3682TIP3   OH211009   5.321   1.106   2.909  0.3808  0.1057  0.1215
 3682TIP3    H111010   5.338   1.066   2.994  0.6235  0.6311  0.3203
 3682TIP3    H211011   5.407   1.136   2.879  0.7719 -2.2150 -1.4249
 3683TIP3   OH211012   2.672   4.452   1.455 -0.5102 -0.0861 -0.3132
 3683TIP3    H111013   2.694   4.545   1.452 -0.9299  0.1082  1.4826
 3683TIP3    H211014   2.625   4.441   1.538 -1.4434 -1.6999 -1.0010
 3684TIP3   OH211015   1.097   4.962   5.537 -0.2085  0.1520 -0.1915
 3684TIP3    H111016   1.039   4.902   5.584 -0.1365  1.0977  1.1434
 3684TIP3    H211017   1.146   4.905   5.477 -0.6904 -1.0086  0.4876
 3685TIP3   OH211018   0.123   5.942   2.658 -0.9471 -0.2815 -0.2681
 3685TIP3    H111019   0.183   5.999   2.611 -0.7081  0.6779  1.1408
 3685TIP3    H211020   0.067   6.002   2.708 -2.4310 -1.1859 -0.7591
 3686TIP3   OH211021   2.934   3.761   5.462 -0.1615 -0.2813 -0.0735
 3686TIP3    H111022   2.989   3.759   5.541  0.9505 -1.6107 -0.8261
 3686TIP3    H211023   2.954   3.845   5.421  1.1590 -0.6363 -0.2010
 3687TIP3   OH211024   2.271   0.160   2.594 -0.0306  0.0168  0.5235
 3687TIP3    H111025   2.248   0.243   2.552 -1.7853 -0.0118  1.3695
 3687TIP3    H211026   2.325   0.185   2.669  1.3139  0.2018 -0.4494
 3688TIP3   OH211027   2.325   5.156   5.407  0.0322 -0.5546  0.3757
 3688TIP3    H111028   2.402   5.129   5.457 -0.4908 -2.5680  0.1792
 3688TIP3    H211029   2.295   5.235   5.452  3.5272  1.7971 -0.9880
 3689TIP3   OH211030   4.963   1.849   5.480  0.0298 -0.0049  0.5000
 3689TIP3    H111031   4.952   1.793   5.403  0.3690  1.5256 -0.7148
 3689TIP3    H211032   4.878   1.891   5.493  0.2232  0.4377  0.3735
 3690TIP3   OH211033   0.427   2.762   1.116  0.2356  0.4429 -0.1824
 3690TIP3    H111034   0.441   2.681   1.067  3.0957 -0.2778  1.5872
 3690TIP3    H211035   0.489   2.824   1.079  0.9700  0.5138  1.1135
 3691TIP3   OH211036   4.305   2.701   0.668  0.0199  0.3390  0.4005
 3691TIP3    H111037   4.238   2.650   0.623 -0.4665  0.1741  1.2892
 3691TIP3    H211038   4.315   2.780   0.615 -0.2687 -0.0195 -0.1927
 3692TIP3   OH211039   4.841   4.911   1.292 -0.6298  0.1461  0.0140
 3692TIP3    H111040   4.790   4.831   1.307 -1.7153  0.6678 -0.7432
 3692TIP3    H211041   4.900   4.888   1.220  0.1734 -0.4313  0.8288
 3693TIP3   OH211042   6.339   4.833   5.807 -0.6458 -0.3099 -0.4845
 3693TIP3    H111043   6.262   4.886   5.788  0.1488  2.1984  2.4903
 3693TIP3    H211044   6.318   4.789   5.889 -0.0306 -2.1209 -1.2432
 3694TIP3   OH211045   6.601   2.556   1.041 -0.6103  0.8875 -0.0845
 3694TIP3    H111046   6.618   2.590   1.129 -0.7678  0.9028 -0.0588
 3694TIP3    H211047   6.684   2.565   0.995 -0.9192  2.3117 -0.4077
 3695TIP3   OH211048   5.943   2.577   3.825 -0.3764  0.1534  0.1714
 3695TIP3    H111049   5.961   2.506   3.763 -0.4601 -1.2954  1.7422
 3695TIP3    H211050   5.861   2.552   3.868  0.0870  0.6935  1.4237
 3696TIP3   OH211051   3.172   0.693   0.232 -0.7313 -0.4228 -0.4432
 3696TIP3    H111052   3.225   0.615   0.248 -2.4822 -1.4145  0.8418
 3696TIP3    H211053   3.235   0.766   0.236  0.9145 -1.7223 -1.5835
 3697TIP3   OH211054   0.868   2.834   2.821 -0.3394  0.2423 -0.0442
 3697TIP3    H111055   0.939   2.877   2.869  0.8131  0.8042 -2.1071
 3697TIP3    H211056   0.809   2.906   2.796 -0.8058 -0.0100  0.3174
 3698TIP3   OH211057   6.412   2.660   0.262 -0.5171  1.1092  0.2383
 3698TIP3    H111058   6.366   2.613   0.332  0.1014  0.6139  0.3105
 3698TIP3    H211059   6.381   2.620   0.181  0.2079  0.3902  0.3093
 3699TIP3   OH211060   6.577   0.272   0.551 -0.4071  0.7378  0.2382
 3699TIP3    H111061   6.519   0.228   0.488  0.2745 -0.0542  0.1401
 3699TIP3    H211062   6.619   0.341   0.500 -2.6897  2.6407  0.7828
 3700TIP3   OH211063   5.589   1.497   5.204  0.0386 -0.0175  0.2467
 3700TIP3    H111064   5.508   1.496   5.152  0.1746 -0.1995  0.0333
 3700TIP3    H211065   5.632   1.414   5.182  0.8206  0.5661 -0.5080
 3701TIP3   OH211066   4.766   2.474   3.063 -0.3932 -0.7659 -0.3696
 3701TIP3    H111067   4.733   2.420   3.135  0.8278 -1.7742 -0.5133
 3701TIP3    H211068   4.689   2.516   3.027 -1.0224  0.0088  1.6957
 3702TIP3   OH211069   1.091   5.146   4.029  0.1098  0.8449  0.6780
 3702TIP3    H111070   1.036   5.216   3.993  1.2359  1.3959 -0.0582
 3702TIP3    H211071   1.138   5.187   4.101  0.9051  0.9195  0.1326
 3703TIP3   OH211072   6.063   2.128   1.477 -0.2528  0.0787 -0.5355
 3703TIP3    H111073   6.064   2.041   1.437  0.9636  0.2981 -1.0044
 3703TIP3    H211074   6.131   2.125   1.544 -0.8889  0.3669  0.1353
 3704TIP3   OH211075   1.059   1.464   0.689 -0.2858  0.0326  0.2113
 3704TIP3    H111076   1.034   1.400   0.756 -2.8528  0.4086 -0.2755
 3704TIP3    H211077   1.108   1.414   0.625 -0.3465 -0.9734  0.9306
 3705TIP3   OH211078   2.779   3.648   3.757  0.0403  0.2606 -0.1961
 3705TIP3    H111079   2.735   3.655   3.672 -0.8924  0.3561  0.2816
 3705TIP3    H211080   2.733   3.578   3.803 -1.0573  1.7846  1.1420
 3706TIP3   OH211081   0.607   0.459   0.837 -0.0915 -0.3439  0.1906
 3706TIP3    H111082   0.550   0.487   0.908 -0.0172  0.7658 -0.1633
 3706TIP3    H211083   0.690   0.504   0.854 -0.5258  1.1819 -1.3815
 3707TIP3   OH211084   2.052   6.272   1.972 -0.2604  0.7480 -0.2991
 3707TIP3    H111085   2.046   6.242   2.063 -0.5300 -0.8485 -0.8164
 3707TIP3    H211086   1.998   6.210   1.923  0.1430  1.4013 -1.6071
 3708TIP3   OH211087   2.239   1.360   4.460  0.4402 -0.0243 -0.3158
 3708TIP3    H111088   2.311   1.383   4.518  0.6910 -0.6179 -0.3827
 3708TIP3    H211089   2.180   1.435   4.463  0.6280  0.0995  0.4299
 3709TIP3   OH211090   0.054   2.481   0.520 -0.1061 -0.2182  0.2018
 3709TIP3    H111091   0.094   2.432   0.592  0.5885 -1.9858 -1.2982
 3709TIP3    H211092  -0.040   2.472   0.536 -0.0294 -2.4127 -0.1466
 3710TIP3   OH211093   6.894   0.297   0.090 -0.6017  0.1351  0.5196
 3710TIP3    H111094   6.870   0.219   0.041 -2.0199  0.2200  1.0238
 3710TIP3    H211095   6.920   0.361   0.023 -2.9524  0.4119 -0.2138
 3711TIP3   OH211096   1.186   6.038   2.889 -0.1335 -0.1423  0.6499
 3711TIP3    H111097   1.220   5.992   2.966 -0.7849 -1.5266  0.1332
 3711TIP3    H211098   1.255   6.101   2.867  0.6211 -0.6084  1.6059
 3712TIP3   OH211099   6.129   2.948   3.245 -0.1148 -0.1556 -0.0425
 3712TIP3    H111100   6.124   3.036   3.283  0.2129 -0.4929  0.8017
 3712TIP3    H211101   6.215   2.916   3.272 -1.2187 -1.7104  1.8508
 3713TIP3   OH211102   1.916   4.510   1.422 -0.3308  0.0693 -0.0992
 3713TIP3    H111103   1.826   4.483   1.440 -0.7862  1.1699 -0.6130
 3713TIP3    H211104   1.919   4.521   1.327  0.2517  0.3589 -0.0513
 3714TIP3   OH211105   1.591   0.003   4.814 -0.3786  0.8930  0.3654
 3714TIP3    H111106   1.570  -0.019   4.723 -0.3763 -1.5842  0.8972
 3714TIP3    H211107   1.555   0.091   4.826 -1.6732  0.7058 -1.6224
 3715TIP3   OH211108   2.795   4.184   5.364 -0.2777  0.2535  0.4802
 3715TIP3    H111109   2.743   4.130   5.423  0.0287  1.0907  1.5331
 3715TIP3    H211110   2.753   4.270   5.366  0.1250  0.4704 -0.0213
 3716TIP3   OH211111   1.258   3.265   1.632  0.1779  0.5418 -0.4045
 3716TIP3    H111112   1.271   3.179   1.673  0.0752  1.4369  1.6375
 3716TIP3    H211113   1.189   3.306   1.683  2.0308  2.8612  0.4396
 3717TIP3   OH211114   2.527   0.534   0.793 -0.1633 -0.0589 -0.6764
 3717TIP3    H111115   2.457   0.471   0.774 -0.6442  0.5039 -0.8137
 3717TIP3    H211116   2.488   0.619   0.772  0.0813  0.3887  0.6110
 3718TIP3   OH211117   3.177   0.331   2.676 -0.9139  0.1981  0.0582
 3718TIP3    H111118   3.084   0.333   2.695 -0.7526 -0.7037  1.0685
 3718TIP3    H211119   3.219   0.362   2.756 -0.3511  1.1314 -0.5778
 3719TIP3   OH211120   4.595   1.695   4.961  0.0414 -0.4874 -0.2536
 3719TIP3    H111121   4.514   1.745   4.969  0.6092  0.3938  0.0117
 3719TIP3    H211122   4.592   1.660   4.872 -2.5883 -3.9422  0.9641
 3720TIP3   OH211123   2.656   6.337   5.669  0.5138 -0.5725  0.2317
 3720TIP3    H111124   2.728   6.393   5.698 -0.3974  0.8124 -0.0920
 3720TIP3    H211125   2.684   6.303   5.584  0.5911  0.3331 -0.1111
 3721TIP3   OH211126   4.568   1.151   3.104  0.5458 -0.5376  0.1957
 3721TIP3    H111127   4.549   1.070   3.152  3.5001 -0.0659  2.4477
 3721TIP3    H211128   4.483   1.194   3.094 -0.7873 -2.8599  0.8997
 3722TIP3   OH211129   6.584   4.562   3.407  0.0016  0.4315  0.3037
 3722TIP3    H111130   6.626   4.530   3.328  0.9613  0.1988  0.8930
 3722TIP3    H211131   6.655   4.571   3.470 -0.7662  0.4781  1.1844
 3723TIP3   OH211132   4.865   3.153   2.311 -0.1174 -0.2601 -0.6760
 3723TIP3    H111133   4.844   3.215   2.381  0.3771  0.1537 -0.8908
 3723TIP3    H211134   4.900   3.207   2.240 -1.5451 -0.5494 -1.6452
 3724TIP3   OH211135   6.327   3.241   5.850  0.2462 -0.1449 -0.4913
 3724TIP3    H111136   6.246   3.282   5.880  0.5694  1.5646 -1.7942
 3724TIP3    H211137   6.397   3.296   5.886  0.7148 -0.0025 -1.5718
 3725TIP3   OH211138   0.730   1.517   0.764 -0.3756 -0.1596 -0.3617
 3725TIP3    H111139   0.739   1.423   0.747 -1.8974 -0.0850 -1.9336
 3725TIP3    H211140   0.649   1.525   0.814 -0.6528  0.3364 -0.8637
 3726TIP3   OH211141   1.050   2.318   2.613  0.2790  0.5010  0.1281
 3726TIP3    H111142   1.114   2.291   2.679 -0.8558  0.6173  1.3289
 3726TIP3    H211143   1.099   2.321   2.531  1.4092 -1.0915  0.6903
 3727TIP3   OH211144   3.562   5.255   3.344  0.8817 -0.0082  0.4288
 3727TIP3    H111145   3.633   5.191   3.339  0.0407 -0.8626 -2.0698
 3727TIP3    H211146   3.493   5.210   3.394  0.7174 -0.6612 -0.3574
 3728TIP3   OH211147   2.200   2.949   3.193 -0.3799  0.2908 -0.3054
 3728TIP3    H111148   2.214   2.895   3.115  0.0278  1.4617 -1.0528
 3728TIP3    H211149   2.276   2.932   3.248  1.0039  1.9244 -1.6238
 3729TIP3   OH211150   1.927   5.358   3.848 -0.3565  0.0900 -0.1355
 3729TIP3    H111151   1.992   5.421   3.819 -0.9301  1.0148  0.5262
 3729TIP3    H211152   1.911   5.302   3.772 -3.1984  3.5177 -2.3836
 3730TIP3   OH211153   0.507   0.782   5.180  0.2347 -0.9336 -0.4777
 3730TIP3    H111154   0.427   0.738   5.208 -0.8271  0.8359 -0.5156
 3730TIP3    H211155   0.557   0.793   5.261  0.8073 -2.6717 -0.5622
 3731TIP3   OH211156   5.891   3.196   3.553 -0.1458 -0.1651  0.2169
 3731TIP3    H111157   5.934   3.113   3.529 -0.3197  0.2618 -1.8048
 3731TIP3    H211158   5.798   3.175   3.552 -0.1652 -0.0768  0.2142
 3732TIP3   OH211159   2.568   5.449   4.870  0.1313 -0.2928  0.0728
 3732TIP3    H111160   2.599   5.516   4.930  0.6443 -0.7252  0.3075
 3732TIP3    H211161   2.590   5.483   4.783 -1.2047  0.6261  0.0805
 3733TIP3   OH211162   0.267   2.575   1.261  0.1299  0.3463  0.5562
 3733TIP3    H111163   0.324   2.641   1.220  2.2338 -1.1074  0.9461
 3733TIP3    H211164   0.198   2.559   1.197  1.2044  0.8683 -0.7791
 3734TIP3   OH211165   3.123   3.529   3.872 -0.0207 -0.4065  0.3986
 3734TIP3    H111166   3.054   3.490   3.819 -0.4500 -0.9805  1.3553
 3734TIP3    H211167   3.122   3.622   3.847  0.6738 -0.8599 -1.5258
 3735TIP3   OH211168   2.023   1.594   1.085 -0.1196  0.6261  0.4725
 3735TIP3    H111169   1.968   1.553   1.018 -0.8288  1.4943  0.5147
 3735TIP3    H211170   2.083   1.524   1.113 -1.2696 -0.3761  0.5011
 3736TIP3   OH211171   1.017   1.484   1.517  0.1502  0.2226  0.0817
 3736TIP3    H111172   0.946   1.520   1.462 -1.0443  0.3252  1.6287
 3736TIP3    H211173   1.097   1.508   1.471 -0.7630  1.4817 -0.9236
 3737TIP3   OH211174   6.687   4.263   1.206 -0.3699 -0.5479 -0.4071
 3737TIP3    H111175   6.652   4.176   1.191 -0.9303 -0.3333 -0.3591
 3737TIP3    H211176   6.745   4.253   1.282  0.0570 -0.9998 -0.7886
 3738TIP3   OH211177   6.881   6.279   5.149  0.6731 -0.3412  0.0898
 3738TIP3    H111178   6.942   6.325   5.207  1.4643 -1.3606  0.1160
 3738TIP3    H211179   6.877   6.190   5.186  1.1098 -0.9857 -1.3274
 3739TIP3   OH211180   4.477   6.555   2.614 -0.0388  0.0767  0.0759
 3739TIP3    H111181   4.502   6.499   2.688  0.9520 -1.0072 -1.0310
 3739TIP3    H211182   4.400   6.513   2.576 -0.7613  0.8269  0.6810
 3740TIP3   OH211183   5.636   0.804   4.733  0.7281 -0.3059  0.4592
 3740TIP3    H111184   5.720   0.843   4.758  0.4510  0.0411  0.8618
 3740TIP3    H211185   5.610   0.852   4.654  0.9394 -0.4577  0.2967
 3741TIP3   OH211186   2.434   0.878   1.892  0.3371  0.1471 -0.2963
 3741TIP3    H111187   2.505   0.919   1.844  0.8564 -0.4420 -0.0421
 3741TIP3    H211188   2.402   0.947   1.951  2.6180 -0.3451  1.6890
 3742TIP3   OH211189   2.234   0.510   0.084  0.4713  0.5632  0.1509
 3742TIP3    H111190   2.300   0.441   0.076  0.2900  0.5468 -1.6437
 3742TIP3    H211191   2.170   0.489   0.017 -1.8876  0.0823  2.4050
 3743TIP3   OH211192   0.013   2.104   2.739 -0.0821  0.0600 -0.0453
 3743TIP3    H111193   0.095   2.113   2.788  0.0883  0.1762 -0.3393
 3743TIP3    H211194  -0.014   2.014   2.752  1.7381 -0.9568 -2.4237
 3744TIP3   OH211195   5.692   5.866   5.007  0.2881  0.1265 -0.3243
 3744TIP3    H111196   5.623   5.930   5.024  1.2395  0.6006  2.1109
 3744TIP3    H211197   5.646   5.782   4.999 -0.9227  0.9426 -3.0389
 3745TIP3   OH211198   3.335   0.072   1.105  0.6620  0.6294 -0.3128
 3745TIP3    H111199   3.408   0.104   1.157 -0.8367  0.1792  2.2421
 3745TIP3    H211200   3.260   0.125   1.133 -0.6271 -0.9831 -0.5132
 3746TIP3   OH211201   1.820   5.865   0.884 -0.1512 -0.0279  0.8600
 3746TIP3    H111202   1.779   5.785   0.918  0.1577  0.2884  2.0393
 3746TIP3    H211203   1.778   5.880   0.799 -0.8987 -0.9129  1.0617
 3747TIP3   OH211204   5.460   6.588   3.768 -0.3174 -0.0822 -0.0029
 3747TIP3    H111205   5.542   6.615   3.809  0.0643  0.5818 -1.1514
 3747TIP3    H211206   5.434   6.509   3.815  1.3261 -0.6851 -0.0481
 3748TIP3   OH211207   0.113   3.801   4.280 -0.6275 -0.5429 -0.1179
 3748TIP3    H111208   0.052   3.859   4.234  0.7909  0.6570 -0.5533
 3748TIP3    H211209   0.131   3.844   4.363  0.7820 -0.0753 -0.6278
 3749TIP3   OH211210   0.045   3.195   0.464 -0.0955  0.1212 -0.2034
 3749TIP3    H111211   0.031   3.278   0.509 -0.7481  0.8061 -1.6081
 3749TIP3    H211212   0.035   3.129   0.532  0.5380  1.1785  0.9640
 3750TIP3   OH211213   4.914   4.034   3.086 -0.3591  0.3430  0.3718
 3750TIP3    H111214   4.979   4.089   3.130 -0.4144  0.4231  0.3558
 3750TIP3    H211215   4.847   4.018   3.152 -1.7843  2.6437 -0.3572
 3751TIP3   OH211216   2.866   2.146   4.150  1.0441  0.2058  0.1013
 3751TIP3    H111217   2.793   2.146   4.087  1.7166  1.2649 -0.7006
 3751TIP3    H211218   2.869   2.235   4.183  1.0181 -0.2165  1.3117
 3752TIP3   OH211219   5.856  -0.008   1.196 -0.0925 -0.0949  0.2064
 3752TIP3    H111220   5.802  -0.022   1.274  1.6585 -0.0412  1.4988
 3752TIP3    H211221   5.902   0.074   1.213  0.2282 -0.0065 -0.9703
 3753TIP3   OH211222   4.204   3.775   5.530 -0.1249 -0.7737 -0.1533
 3753TIP3    H111223   4.284   3.744   5.573 -0.6503 -2.5058 -0.3453
 3753TIP3    H211224   4.148   3.804   5.602 -0.0858 -1.4525  0.1613
 3754TIP3   OH211225   5.372   3.755   3.816 -0.2411  0.2339 -0.0042
 3754TIP3    H111226   5.436   3.776   3.884  0.3587  0.4140 -0.6154
 3754TIP3    H211227   5.375   3.830   3.756 -3.7898  2.1848  1.8944
 3755TIP3   OH211228   6.365   1.074   4.075  0.1649  0.4097  0.1418
 3755TIP3    H111229   6.440   1.034   4.031  0.2606  0.3538  0.3526
 3755TIP3    H211230   6.323   1.127   4.008  1.3747  1.8238  0.4390
 3756TIP3   OH211231   3.061   4.211   0.349 -0.5608  0.5503  0.3173
 3756TIP3    H111232   3.014   4.157   0.286  0.6239 -0.0076 -0.1212
 3756TIP3    H211233   3.007   4.289   0.360 -1.2425  0.2292 -0.6638
 3757TIP3   OH211234   6.745   5.573   0.749 -0.4311 -0.0419  0.2998
 3757TIP3    H111235   6.759   5.658   0.706  2.0845 -0.6277 -0.2325
 3757TIP3    H211236   6.675   5.532   0.700  0.1096  0.6734 -1.1325
 3758TIP3   OH211237   0.566   1.636   3.858  0.2818  0.0838  0.0769
 3758TIP3    H111238   0.491   1.619   3.802 -0.1711  1.5230  0.2213
 3758TIP3    H211239   0.641   1.600   3.810 -0.0119  1.7606 -1.7311
 3759TIP3   OH211240   4.210   4.143   4.209 -0.6021  0.0668  0.5367
 3759TIP3    H111241   4.237   4.052   4.195  2.6518  0.6880  1.8307
 3759TIP3    H211242   4.120   4.137   4.241 -1.1644 -2.5121 -1.2438
 3760TIP3   OH211243   0.985   1.491   5.704  0.3430  0.1539 -0.6389
 3760TIP3    H111244   1.050   1.480   5.774  0.3986 -1.4399 -0.9059
 3760TIP3    H211245   0.905   1.453   5.739 -0.2875  1.4666 -0.5899
 3761TIP3   OH211246   2.835   4.583   5.409 -0.2306  0.0020  0.1306
 3761TIP3    H111247   2.761   4.543   5.455  1.1647 -2.0141  0.7351
 3761TIP3    H211248   2.847   4.668   5.453 -1.6315 -0.0169  0.5912
 3762TIP3   OH211249   6.257   1.889   1.352 -0.2509  0.3041  0.1680
 3762TIP3    H111250   6.221   1.800   1.348 -0.7331  0.5343 -1.1024
 3762TIP3    H211251   6.326   1.884   1.419  1.2831 -1.5984 -1.4262
 3763TIP3   OH211252   3.633   1.823   2.537  0.4106 -0.5073  0.0279
 3763TIP3    H111253   3.561   1.886   2.529 -0.1156 -1.2222 -1.0071
 3763TIP3    H211254   3.612   1.773   2.615 -0.8525 -1.4787 -0.9023
 3764TIP3   OH211255   5.851   4.274   3.094 -0.1683 -0.3819 -0.5577
 3764TIP3    H111256   5.927   4.333   3.098 -0.7302  0.4379 -1.3992
 3764TIP3    H211257   5.821   4.280   3.003 -2.8515  1.4469  0.3289
 3765TIP3   OH211258   5.277   3.513   5.797 -0.0400  0.4630 -0.2865
 3765TIP3    H111259   5.295   3.443   5.734 -1.2780  0.9724 -1.2546
 3765TIP3    H211260   5.240   3.467   5.873  0.8178 -0.0933 -0.1925
 3766TIP3   OH211261   2.496   3.419   3.137  0.0028  0.0960  0.2852
 3766TIP3    H111262   2.450   3.386   3.214  0.3359 -0.4446  0.2593
 3766TIP3    H211263   2.452   3.502   3.116 -0.4221 -0.0087  0.7446
 3767TIP3   OH211264   4.599   0.385   5.767  0.3677 -0.2825  0.0150
 3767TIP3    H111265   4.689   0.351   5.766  0.3229 -0.3960 -0.3621
 3767TIP3    H211266   4.602   0.458   5.829  1.0479  0.5895 -0.9981
 3768TIP3   OH211267   1.715   6.540   4.933 -0.5633 -0.3855  0.0870
 3768TIP3    H111268   1.629   6.539   4.976 -0.8820  0.8370 -0.4786
 3768TIP3    H211269   1.715   6.621   4.882  0.7698 -0.5857 -0.2560
 3769TIP3   OH211270   3.400  -0.017   3.329  0.1726 -0.3930  0.4906
 3769TIP3    H111271   3.436   0.071   3.338  1.1609 -0.7940  0.4898
 3769TIP3    H211272   3.334  -0.008   3.260 -0.3388  0.5195  1.0696
 3770TIP3   OH211273   7.146   4.293   5.510 -0.5782 -0.4355 -0.1623
 3770TIP3    H111274   7.070   4.352   5.509 -0.3278 -0.1110 -0.2512
 3770TIP3    H211275   7.171   4.288   5.602  0.4569  0.9788 -0.3377
 3771TIP3   OH211276   2.133   5.971   4.146 -0.4438  0.4651  0.3214
 3771TIP3    H111277   2.188   5.893   4.157 -1.6473 -0.3593  0.8160
 3771TIP3    H211278   2.104   5.966   4.054 -2.8929 -1.4098  1.0645
 3772TIP3   OH211279   5.405   5.030   0.291  0.2705  0.2518  0.3581
 3772TIP3    H111280   5.476   5.037   0.226 -0.6743  3.8571 -0.5476
 3772TIP3    H211281   5.326   5.018   0.238 -0.2826  1.1515  0.9510
 3773TIP3   OH211282   6.837   3.181   3.681  0.2267 -0.1324 -0.0373
 3773TIP3    H111283   6.927   3.177   3.648 -0.1074  1.1723 -1.2075
 3773TIP3    H211284   6.845   3.218   3.769  0.8727 -0.5280  0.0753
 3774TIP3   OH211285   7.177   0.565   0.842 -0.0574  0.4551  0.0090
 3774TIP3    H111286   7.245   0.500   0.822 -0.5227  0.1948 -0.7543
 3774TIP3    H211287   7.206   0.644   0.797  0.7837  0.9594  1.3717
 3775TIP3   OH211288   2.346   1.248   5.362 -0.2837 -0.7060  0.1776
 3775TIP3    H111289   2.433   1.239   5.324  0.7349 -0.3447  2.2501
 3775TIP3    H211290   2.320   1.159   5.384 -0.2643 -0.7738 -0.0706
 3776TIP3   OH211291   3.819   1.578   0.207  0.1363 -0.0559  0.2385
 3776TIP3    H111292   3.861   1.497   0.236 -1.1097  0.0188  2.4723
 3776TIP3    H211293   3.892   1.637   0.187  1.1355 -0.5044  2.2755
 3777TIP3   OH211294   6.001   4.322   4.653  0.0796  0.0596  0.3015
 3777TIP3    H111295   6.060   4.300   4.725  0.6867  0.4853 -0.0567
 3777TIP3    H211296   5.961   4.239   4.628  0.8997 -0.3251  0.2265
 3778TIP3   OH211297   5.656   5.876   2.625  0.2786  0.1944  0.4324
 3778TIP3    H111298   5.601   5.922   2.562 -0.3583 -0.4782  0.4859
 3778TIP3    H211299   5.741   5.921   2.620  0.3898 -0.1243 -1.2299
 3779TIP3   OH211300   0.635   4.707   4.907  0.0764 -0.2852  0.5107
 3779TIP3    H111301   0.613   4.718   4.815  1.8404 -0.1385  0.0700
 3779TIP3    H211302   0.651   4.796   4.939 -1.5787 -0.2270  1.2738
 3780TIP3   OH211303   3.478   2.473   2.403 -0.3427 -0.5110  0.2340
 3780TIP3    H111304   3.504   2.455   2.313 -1.7008 -4.6073  0.4977
 3780TIP3    H211305   3.544   2.428   2.457 -0.8155 -0.0286  1.2468
 3781TIP3   OH211306   3.354   4.841   4.185  0.2915 -0.0847  0.3988
 3781TIP3    H111307   3.405   4.923   4.184 -0.0857  0.1476 -0.7621
 3781TIP3    H211308   3.406   4.782   4.239  1.5958  0.2900 -0.3963
 3782TIP3   OH211309   4.281   5.727   0.578 -0.2504  0.6869  0.5522
 3782TIP3    H111310   4.291   5.715   0.672 -1.1925  0.8701  0.6928
 3782TIP3    H211311   4.296   5.640   0.540 -1.5779  0.2201  1.0405
 3783TIP3   OH211312   6.831   2.940   5.764 -0.5004 -0.1740 -0.1013
 3783TIP3    H111313   6.855   2.858   5.723 -2.0434 -0.1786 -1.0622
 3783TIP3    H211314   6.852   2.928   5.857  0.5493 -1.1240 -0.4467
 3784TIP3   OH211315   2.650   3.368   4.568  0.4963 -0.2384 -0.0987
 3784TIP3    H111316   2.618   3.289   4.523  0.2973 -0.5241  0.5271
 3784TIP3    H211317   2.716   3.335   4.630 -0.8324 -0.1669  1.4323
 3785TIP3   OH211318   2.439   1.470   4.632  0.3305  1.3182  0.3554
 3785TIP3    H111319   2.402   1.492   4.718 -0.2761  1.8112 -0.0240
 3785TIP3    H211320   2.506   1.404   4.651 -0.1780  1.0172  1.1460
 3786TIP3   OH211321   1.361   6.676   2.478  0.1898  1.0961 -0.1170
 3786TIP3    H111322   1.380   6.609   2.412 -0.8859  0.6743 -0.0136
 3786TIP3    H211323   1.401   6.641   2.558 -0.1895  0.6669 -0.1091
 3787TIP3   OH211324   2.049   5.497   2.402  0.1899 -0.3019  0.5243
 3787TIP3    H111325   2.088   5.568   2.351 -1.5822  1.8587  1.9897
 3787TIP3    H211326   2.112   5.479   2.472  1.0300 -0.8312 -0.3444
 3788TIP3   OH211327   4.458   1.497   1.934  0.3656 -0.3469  0.1105
 3788TIP3    H111328   4.509   1.514   1.855  2.1403 -2.7004  0.6150
 3788TIP3    H211329   4.412   1.415   1.916 -0.5746  0.0011  0.8920
 3789TIP3   OH211330   6.524   2.801   2.718  0.2541  0.6694 -0.1780
 3789TIP3    H111331   6.437   2.792   2.681  0.9676 -0.1484 -1.7849
 3789TIP3    H211332   6.514   2.864   2.789 -1.6562  0.4515 -0.2071
 3790TIP3   OH211333   5.138   1.714   3.694 -0.2377  0.5533  0.2931
 3790TIP3    H111334   5.043   1.707   3.697 -0.1997 -0.1737 -0.0660
 3790TIP3    H211335   5.169   1.624   3.697  0.4272  0.7662  0.0473
 3791TIP3   OH211336   4.441   4.090   5.170  0.2222  0.0220 -0.4560
 3791TIP3    H111337   4.491   4.057   5.245  0.9301  0.8342 -0.5457
 3791TIP3    H211338   4.466   4.183   5.165 -2.7323  0.9900  0.6488
 3792TIP3   OH211339   3.371   3.732   4.079 -0.1648 -0.4634 -0.3217
 3792TIP3    H111340   3.382   3.815   4.033  1.0708  0.5300  1.6277
 3792TIP3    H211341   3.460   3.700   4.092 -0.5501 -1.2986  0.3475
 3793TIP3   OH211342   3.016   2.940   2.922  0.6988  0.2816  0.0195
 3793TIP3    H111343   2.930   2.965   2.955 -1.1008 -2.2844 -2.2780
 3793TIP3    H211344   3.048   2.876   2.986 -0.6183 -1.1298 -0.6600
 3794TIP3   OH211345   4.002   2.214   0.056  0.2441 -0.5819 -0.1035
 3794TIP3    H111346   4.019   2.304   0.028  1.3400 -0.4214  0.9954
 3794TIP3    H211347   4.025   2.161  -0.021 -3.6061  0.1489 -2.0077
 3795TIP3   OH211348   7.189   2.890   3.558 -0.0168 -0.0406 -0.0642
 3795TIP3    H111349   7.123   2.821   3.572 -0.9590  0.9042  0.2627
 3795TIP3    H211350   7.270   2.853   3.595 -0.7390 -0.5677  1.0415
 3796TIP3   OH211351   0.443   6.462   3.561  0.5686 -0.2757  0.2507
 3796TIP3    H111352   0.406   6.508   3.486  1.6127 -0.4523 -0.3798
 3796TIP3    H211353   0.444   6.527   3.631  3.0044  1.0603 -0.8953
 3797TIP3   OH211354   4.896   3.640   5.030 -0.2868 -0.1449  0.5898
 3797TIP3    H111355   4.892   3.547   5.006 -1.3116  0.1926 -0.6251
 3797TIP3    H211356   4.983   3.651   5.068  1.0717 -0.9622 -2.0356
 3798TIP3   OH211357   4.966   4.283   4.139 -0.4992 -0.0877 -0.5702
 3798TIP3    H111358   4.912   4.279   4.218  1.3613  0.6553  0.8144
 3798TIP3    H211359   4.993   4.375   4.133 -1.5250  0.1298 -2.7659
 3799TIP3   OH211360   0.469   5.420   2.231  0.5543  0.3428 -0.0968
 3799TIP3    H111361   0.500   5.382   2.149 -1.7981 -0.3154 -0.7551
 3799TIP3    H211362   0.439   5.508   2.206 -0.6906 -0.0670 -0.0797
 3800TIP3   OH211363   3.528   0.081   0.551 -0.2958 -0.2956 -0.0874
 3800TIP3    H111364   3.590   0.150   0.574 -1.1059  0.8530 -1.2224
 3800TIP3    H211365   3.484   0.059   0.633  2.6463 -2.2841  1.0945
 3801TIP3   OH211366   6.503   0.034   1.772 -0.0046 -0.1208  0.5744
 3801TIP3    H111367   6.533   0.053   1.683  2.4169 -1.9193  0.8760
 3801TIP3    H211368   6.533   0.108   1.824 -0.2942  0.3337  0.0990
 3802TIP3   OH211369   6.372   4.527   2.147 -0.4494  0.3994  0.5840
 3802TIP3    H111370   6.352   4.461   2.081  0.3005 -0.3943  1.1275
 3802TIP3    H211371   6.460   4.505   2.176 -1.2817 -0.1683  2.8714
 3803TIP3   OH211372   3.205   5.030   4.013  0.1210  0.5025  0.2461
 3803TIP3    H111373   3.282   4.975   4.000 -0.0946 -0.0779  1.3090
 3803TIP3    H211374   3.149   5.013   3.938  0.0391 -0.7672  0.5823
 3804TIP3   OH211375   4.876   5.313   5.044  0.0310 -0.0573 -0.0055
 3804TIP3    H111376   4.930   5.251   5.093  1.2957  1.1620  0.1936
 3804TIP3    H211377   4.919   5.320   4.958 -1.3000 -1.0047 -0.8029
 3805TIP3   OH211378   6.122   3.262   0.705 -0.0408 -0.3967  0.0833
 3805TIP3    H111379   6.135   3.291   0.615  0.1217 -1.2951 -0.1906
 3805TIP3    H211380   6.027   3.263   0.718  0.0045  1.4161  0.4828
 3806TIP3   OH211381   6.363   3.525   0.340  0.2354 -0.2706  0.0139
 3806TIP3    H111382   6.330   3.615   0.332  0.4301 -0.1781  0.2405
 3806TIP3    H211383   6.347   3.486   0.254  0.5764  0.1262 -0.2326
 3807TIP3   OH211384   2.339   5.315   1.096 -0.5990  0.0224 -0.6725
 3807TIP3    H111385   2.261   5.351   1.137 -1.3474  2.2084 -3.6688
 3807TIP3    H211386   2.356   5.234   1.145 -3.7888  0.2403  1.0981
 3808TIP3   OH211387   6.246   3.021   1.924 -0.2503  0.6697  0.2042
 3808TIP3    H111388   6.297   2.980   1.994  0.7761 -0.7843 -1.3171
 3808TIP3    H211389   6.247   3.115   1.945  2.0943  0.5634  0.8701
 3809TIP3   OH211390   0.804   3.818   0.310 -0.1409 -0.3737 -0.4252
 3809TIP3    H111391   0.737   3.819   0.241  0.8100 -0.1670 -1.3763
 3809TIP3    H211392   0.756   3.797   0.390 -1.3880  0.0766 -1.0293
 3810TIP3   OH211393   6.994   2.966   1.542  0.3239 -0.3691 -0.0412
 3810TIP3    H111394   6.964   2.985   1.453  0.6291  0.2967 -0.0153
 3810TIP3    H211395   6.933   3.013   1.598  1.0343  0.4991  0.0325
 3811TIP3   OH211396   6.359   6.060   1.802  0.0632  0.0302 -0.0494
 3811TIP3    H111397   6.280   6.015   1.772 -0.1004  0.1708  0.1676
 3811TIP3    H211398   6.327   6.140   1.843  0.4365  1.2502 -1.9943
 3812TIP3   OH211399   0.443   5.157   5.422  0.1430  0.3886 -0.1175
 3812TIP3    H111400   0.449   5.114   5.507  1.1704 -2.2239 -1.4104
 3812TIP3    H211401   0.354   5.139   5.392  0.3788 -0.3486 -0.3917
 3813TIP3   OH211402   3.275   6.201   0.953 -0.4852 -0.1018  0.1787
 3813TIP3    H111403   3.315   6.136   0.895 -0.9476 -0.7801  0.5952
 3813TIP3    H211404   3.296   6.170   1.042 -0.9484  0.1654  0.3870
 3814TIP3   OH211405   5.334   4.274   3.445 -0.0646  0.3016  0.3277
 3814TIP3    H111406   5.400   4.215   3.410  2.4940  2.2608  1.4183
 3814TIP3    H211407   5.286   4.222   3.510  0.3195 -1.2193 -0.5679
 3815TIP3   OH211408   3.728   5.259   5.494  0.4027  0.4119  0.3865
 3815TIP3    H111409   3.764   5.325   5.435  2.9652 -1.9300 -0.8982
 3815TIP3    H211410   3.799   5.242   5.556 -0.7332 -0.1523  1.5720
 3816TIP3   OH211411   0.096   0.185   3.480  0.3202 -0.1824 -0.7420
 3816TIP3    H111412   0.157   0.241   3.528  0.6279 -1.4009  0.3452
 3816TIP3    H211413   0.027   0.165   3.544  0.6261 -1.6652 -0.8449
 3817TIP3   OH211414   3.924   5.666   1.926 -0.3130 -0.8159 -0.3170
 3817TIP3    H111415   3.977   5.629   1.997  0.8591  1.3116 -0.0125
 3817TIP3    H211416   3.974   5.649   1.847  0.5317  0.5590 -0.1089
 3818TIP3   OH211417   5.974   5.335   4.374 -0.1038  0.2235 -0.0351
 3818TIP3    H111418   5.983   5.374   4.461 -0.2107 -0.3417  0.2321
 3818TIP3    H211419   5.903   5.271   4.383  0.0295  0.0048 -0.4794
 3819TIP3   OH211420   4.421   3.590   1.710 -0.2207  0.1525  0.5808
 3819TIP3    H111421   4.511   3.562   1.727 -0.5674 -0.6458  1.2243
 3819TIP3    H211422   4.388   3.528   1.646 -0.9424 -0.8702  1.8829
 3820TIP3   OH211423   5.019   3.148   5.901  0.2250 -0.1057 -0.1224
 3820TIP3    H111424   5.007   3.064   5.856 -2.6733 -0.3783  0.9462
 3820TIP3    H211425   4.945   3.202   5.871 -0.1138  0.7103  2.0264
 3821TIP3   OH211426   5.360   1.886   0.383  0.1959 -0.1824 -0.4011
 3821TIP3    H111427   5.421   1.837   0.326 -0.8109  0.9056 -2.5330
 3821TIP3    H211428   5.408   1.965   0.407  0.0799  0.0935 -1.0584
 3822TIP3   OH211429   1.676   3.319   5.743 -0.2519  0.3467 -0.1768
 3822TIP3    H111430   1.718   3.280   5.820  1.0234  2.5431  0.3192
 3822TIP3    H211431   1.745   3.322   5.677 -0.9902 -0.3493 -1.0074
 3823TIP3   OH211432   0.652   1.962   4.306  0.3759  0.4418  0.0662
 3823TIP3    H111433   0.586   1.997   4.246 -0.2214 -0.6033  0.0993
 3823TIP3    H211434   0.642   1.867   4.302 -0.0223  0.3328  2.1984
 3824TIP3   OH211435   3.206   3.056   2.777  0.2605 -0.2771  0.6522
 3824TIP3    H111436   3.247   3.112   2.843 -2.0398  1.6323  0.5864
 3824TIP3    H211437   3.129   3.019   2.821 -0.4024 -0.2625 -0.4524
 3825TIP3   OH211438   4.715   5.711   4.934  0.4323  0.4930 -0.3819
 3825TIP3    H111439   4.626   5.723   4.901  0.1597 -0.6985 -0.1215
 3825TIP3    H211440   4.763   5.789   4.904 -0.4579  0.6958 -1.3189
 3826TIP3   OH211441   3.528   3.964   0.259 -0.3348  0.4271 -0.1971
 3826TIP3    H111442   3.518   3.915   0.178  2.0780 -2.1438  0.8706
 3826TIP3    H211443   3.529   4.056   0.233  0.7279 -0.3204 -3.1439
 3827TIP3   OH211444   1.689   2.946   2.072  0.1193 -0.0798  0.1286
 3827TIP3    H111445   1.755   2.881   2.092  0.8693  0.6621  0.1346
 3827TIP3    H211446   1.692   3.007   2.145 -1.3181 -0.5966  0.6489
 3828TIP3   OH211447   6.570   2.021   2.478 -0.8218  0.0313 -0.5052
 3828TIP3    H111448   6.603   2.109   2.462 -0.4208 -0.0473 -0.1344
 3828TIP3    H211449   6.604   1.968   2.407 -1.0520  0.1712 -0.7209
 3829TIP3   OH211450   4.937   1.193   1.129  0.5222 -0.3911  0.0940
 3829TIP3    H111451   4.991   1.242   1.192 -1.6728 -0.2759  2.0482
 3829TIP3    H211452   4.848   1.224   1.145 -0.5068 -2.5260 -1.0396
 3830TIP3   OH211453   0.538   1.940   2.324  0.4875  0.2820 -0.7344
 3830TIP3    H111454   0.499   1.962   2.239 -0.4352  0.5373 -0.2512
 3830TIP3    H211455   0.514   1.849   2.339  1.2701  0.0059 -1.0673
 3831TIP3   OH211456   2.367   3.890   2.083  0.8056  0.2156 -0.3114
 3831TIP3    H111457   2.318   3.870   2.003 -1.7937  0.1133  1.2056
 3831TIP3    H211458   2.398   3.980   2.071 -1.1734  0.8973 -0.7366
 3832TIP3   OH211459   4.655   4.196   4.586 -0.3598  0.0795 -0.4091
 3832TIP3    H111460   4.608   4.159   4.661  1.2201 -0.2248  0.4807
 3832TIP3    H211461   4.701   4.272   4.622  0.8008 -0.3504 -0.9436
 3833TIP3   OH211462   1.999   1.151   5.175  1.1779 -0.0022 -1.0079
 3833TIP3    H111463   2.067   1.095   5.212  0.7459  0.9337  1.4352
 3833TIP3    H211464   2.000   1.229   5.231 -2.2031 -0.1513 -0.5090
 3834TIP3   OH211465   2.197   6.815   0.836 -0.0182 -0.4295 -0.0321
 3834TIP3    H111466   2.210   6.727   0.802  0.2008 -1.1234  1.7699
 3834TIP3    H211467   2.102   6.827   0.837 -0.2910 -2.0284  2.9180
 3835TIP3   OH211468   2.739   2.928   4.703 -0.0582  0.3726  0.3446
 3835TIP3    H111469   2.820   2.890   4.669 -1.3291 -1.8993 -0.3850
 3835TIP3    H211470   2.707   2.984   4.633  0.6333  0.9070  0.4489
 3836TIP3   OH211471   1.460   1.377   5.673 -0.2455  0.2525 -0.6176
 3836TIP3    H111472   1.370   1.375   5.642 -0.2421  0.2671 -0.6285
 3836TIP3    H211473   1.456   1.340   5.761 -0.1648 -0.3305 -0.8599
 3837TIP3   OH211474   4.518   5.466   4.296 -0.4325  0.1134  0.2196
 3837TIP3    H111475   4.540   5.419   4.377 -0.0578 -0.5695 -0.2683
 3837TIP3    H211476   4.592   5.526   4.283 -0.5540  0.3166  0.4428
 3838TIP3   OH211477   2.337   6.420   1.322 -0.0225  0.6189  0.1204
 3838TIP3    H111478   2.374   6.495   1.369 -2.6155  1.7906  0.4220
 3838TIP3    H211479   2.295   6.458   1.245 -1.7407 -0.4399  0.4860
 3839TIP3   OH211480   4.472   0.765   3.031 -0.3127  0.0507  0.4537
 3839TIP3    H111481   4.413   0.824   3.078 -0.5775  0.5527 -0.4833
 3839TIP3    H211482   4.436   0.678   3.045 -1.2852  0.3520 -0.0896
 3840TIP3   OH211483   0.998   5.912   2.381 -0.0680  0.0103 -0.3259
 3840TIP3    H111484   1.030   5.999   2.357 -1.0693  0.0085 -1.8099
 3840TIP3    H211485   1.026   5.900   2.471 -1.1452  2.4834  0.4310
 3841TIP3   OH211486   0.037   6.503   0.653  0.7043  0.0444  0.2639
 3841TIP3    H111487  -0.040   6.521   0.599  0.8448  1.0288  0.3803
 3841TIP3    H211488   0.004   6.512   0.743  0.8540 -0.0005  0.3225
 3842TIP3   OH211489   3.972   2.203   5.607 -0.1148  0.3200 -0.0699
 3842TIP3    H111490   3.889   2.230   5.570 -0.0989 -0.4401 -0.6828
 3842TIP3    H211491   4.027   2.180   5.532 -0.1748 -1.5233  0.3818
 3843TIP3   OH211492   5.018   6.780   0.239 -0.3282  0.4524 -0.1567
 3843TIP3    H111493   4.940   6.765   0.293  0.2217  1.6247  1.0223
 3843TIP3    H211494   5.092   6.765   0.298  0.2820  3.0791 -0.1129
 3844TIP3   OH211495   5.392   2.539   3.078 -0.2850  0.5092 -0.1658
 3844TIP3    H111496   5.429   2.456   3.047  0.2230  0.4089  0.6771
 3844TIP3    H211497   5.310   2.515   3.119  0.3176  0.2726  0.9473
 3845TIP3   OH211498   4.464   0.889   1.972 -0.0233 -0.0930  0.1309
 3845TIP3    H111499   4.546   0.842   1.958  1.3437  2.2303 -0.1489
 3845TIP3    H211500   4.397   0.821   1.968  1.8718 -2.1355  0.6909
 3846TIP3   OH211501   4.487   1.259   2.652 -0.3194  0.3321  0.3510
 3846TIP3    H111502   4.428   1.312   2.599  2.2242  1.4853 -1.5294
 3846TIP3    H211503   4.566   1.251   2.599  2.2854  1.1370  3.7654
 3847TIP3   OH211504   7.106   0.583   5.758 -0.1726 -0.4065 -0.5852
 3847TIP3    H111505   7.121   0.616   5.670 -0.9242 -2.9784 -1.7745
 3847TIP3    H211506   7.010   0.580   5.766 -0.1075 -0.7658  0.0870
 3848TIP3   OH211507   3.642   4.749   1.677 -0.6081 -0.7458 -0.5171
 3848TIP3    H111508   3.624   4.723   1.587 -1.8684 -0.2584 -0.4297
 3848TIP3    H211509   3.644   4.667   1.726 -2.5834 -0.8708 -0.5641
 3849TIP3   OH211510   1.352   4.034   4.500  0.4653  0.0079  0.5811
 3849TIP3    H111511   1.346   4.032   4.596  1.9801 -1.3412  0.6872
 3849TIP3    H211512   1.270   3.995   4.471  0.2471 -0.1367  1.3539
 3850TIP3   OH211513   3.524   1.180   4.647  0.2321 -0.3142 -0.3766
 3850TIP3    H111514   3.533   1.101   4.699 -1.8297 -0.6265 -0.4185
 3850TIP3    H211515   3.584   1.167   4.573  0.9941 -1.1636  0.3737
 3851TIP3   OH211516   2.382   3.479   5.866  0.1374  0.6343  0.1953
 3851TIP3    H111517   2.465   3.437   5.842 -0.6635 -1.6150  1.0977
 3851TIP3    H211518   2.405   3.541   5.934  1.0041 -0.6405  1.1120
 3852TIP3   OH211519   2.913   1.460   2.348 -0.3193  0.0135 -0.4589
 3852TIP3    H111520   2.860   1.538   2.336 -0.3360  0.2538  0.9965
 3852TIP3    H211521   2.854   1.387   2.328 -1.4432  0.2527  1.6727
 3853TIP3   OH211522   3.036   4.118   2.900 -0.0501 -0.7025  0.0974
 3853TIP3    H111523   2.956   4.167   2.881  0.3016 -0.3065 -0.3520
 3853TIP3    H211524   3.074   4.162   2.975 -0.8073 -1.5445  1.0156
 3854TIP3   OH211525   4.436   2.521   4.918 -0.3597 -0.3220  0.5313
 3854TIP3    H111526   4.356   2.495   4.873 -0.8352 -0.9196  1.6849
 3854TIP3    H211527   4.424   2.614   4.938  0.6503  0.4740 -2.1614
 3855TIP3   OH211528   3.294   1.517   1.230  0.2545  0.6372  0.3980
 3855TIP3    H111529   3.223   1.581   1.232  0.9988  1.5540 -0.8895
 3855TIP3    H211530   3.289   1.478   1.142 -0.3696 -1.3387  1.2473
 3856TIP3   OH211531   3.377   3.321   1.398 -0.4014 -0.1116 -0.2996
 3856TIP3    H111532   3.413   3.310   1.310 -0.7473 -1.9477 -0.2374
 3856TIP3    H211533   3.288   3.287   1.392 -0.6010  0.2237  0.6603
 3857TIP3   OH211534   1.337   1.467   3.295 -0.1926  0.0544 -0.2723
 3857TIP3    H111535   1.289   1.468   3.213  1.4462 -0.4405 -1.2855
 3857TIP3    H211536   1.425   1.497   3.272  0.1456  0.4980  1.4243
 3858TIP3   OH211537   0.029   1.590   1.118 -0.0378 -0.2519  0.0608
 3858TIP3    H111538  -0.004   1.673   1.084  0.7988 -0.1118 -0.4333
 3858TIP3    H211539   0.101   1.615   1.177  1.4479 -0.6579 -1.4777
 3859TIP3   OH211540   2.358   0.914   2.766  1.2688 -0.3268  0.1980
 3859TIP3    H111541   2.320   0.836   2.806  1.2414  0.2777  1.3918
 3859TIP3    H211542   2.444   0.923   2.808  1.6630 -0.2339 -0.6115
 3860TIP3   OH211543   4.780   1.144   2.944  0.0054 -0.0860 -0.5965
 3860TIP3    H111544   4.702   1.148   3.000  0.2620 -0.9501 -0.1595
 3860TIP3    H211545   4.853   1.132   3.005  0.6451  1.7571 -0.9030
 3861TIP3   OH211546   4.773   1.831   5.121 -0.0298  0.1778  0.1148
 3861TIP3    H111547   4.703   1.856   5.181  0.2668 -2.2838  1.6241
 3861TIP3    H211548   4.728   1.805   5.040 -0.7056  0.4244  0.4072
 3862TIP3   OH211549   5.724   1.467   0.945  0.6347  0.4168  0.0860
 3862TIP3    H111550   5.774   1.424   0.875  0.8360 -0.0912  0.5254
 3862TIP3    H211551   5.634   1.439   0.931  0.5727  0.8155 -0.3309
 3863TIP3   OH211552   4.981   1.141   1.584 -0.2809 -0.2512 -0.0840
 3863TIP3    H111553   5.041   1.204   1.624  0.9169 -1.5716  0.2797
 3863TIP3    H211554   5.036   1.068   1.558 -1.6129 -1.1070 -0.6336
 3864TIP3   OH211555   1.244   1.005   4.715 -0.3396  0.2187 -0.2872
 3864TIP3    H111556   1.177   0.965   4.658 -0.8710  0.0324  0.4556
 3864TIP3    H211557   1.241   0.954   4.795  0.8514  0.0891 -0.3116
 3865TIP3   OH211558   2.746   1.134   0.221  0.7244 -0.1438  0.1118
 3865TIP3    H111559   2.767   1.148   0.129 -1.0409  0.9315 -0.1571
 3865TIP3    H211560   2.705   1.216   0.250  0.0540 -0.9255  1.4944
 3866TIP3   OH211561   3.854   3.474   4.140 -0.1619 -0.2605 -0.0735
 3866TIP3    H111562   3.928   3.464   4.199  1.1776  2.5100 -1.1033
 3866TIP3    H211563   3.883   3.434   4.058 -0.4140 -0.5100 -0.0427
 3867TIP3   OH211564   3.733   1.453   5.182 -0.5777  0.0974 -0.2927
 3867TIP3    H111565   3.663   1.516   5.197  0.2707  0.6222  1.8707
 3867TIP3    H211566   3.804   1.505   5.144 -0.5774  0.0362 -0.3755
 3868TIP3   OH211567   1.772   3.741   4.904  0.1102 -0.0541 -0.2956
 3868TIP3    H111568   1.779   3.662   4.958  1.0999 -1.6785 -2.6413
 3868TIP3    H211569   1.703   3.721   4.841  0.2720  1.0160 -0.8298
 3869TIP3   OH211570   5.664   1.936   3.010  0.0736 -0.2642 -0.3832
 3869TIP3    H111571   5.683   1.910   2.919  1.5145 -0.2657 -0.1053
 3869TIP3    H211572   5.575   1.973   3.006 -0.4020 -1.4516 -1.5434
 3870TIP3   OH211573   4.354   0.750   1.100  0.3755 -0.6868  0.5327
 3870TIP3    H111574   4.367   0.667   1.146  0.2920 -0.3174  1.2369
 3870TIP3    H211575   4.399   0.738   1.016  2.2425 -0.6803  1.4877
 3871TIP3   OH211576   6.264   1.323   3.669  0.4817  0.7166  0.1847
 3871TIP3    H111577   6.224   1.379   3.603  0.0338  0.5025  0.2707
 3871TIP3    H211578   6.266   1.236   3.629  1.9607  0.9371 -0.2859
 3872TIP3   OH211579   5.895   1.148   1.906 -0.1760 -0.5341 -0.5043
 3872TIP3    H111580   5.856   1.092   1.974  0.3957 -0.7406 -0.3382
 3872TIP3    H211581   5.850   1.232   1.915  1.0227 -0.0185  1.2538
 3873TIP3   OH211582   2.046   3.248   4.107  0.8286  0.2808 -0.0182
 3873TIP3    H111583   2.084   3.331   4.080  0.9869 -0.0664 -0.8955
 3873TIP3    H211584   1.953   3.268   4.121  0.5584  0.3122 -1.6533
 3874TIP3   OH211585   5.379   5.386   2.608  0.0925  0.4034 -0.4912
 3874TIP3    H111586   5.296   5.380   2.655  1.3357 -0.8660  1.6682
 3874TIP3    H211587   5.433   5.443   2.662  1.3620 -0.5694 -0.7020
 3875TIP3   OH211588   1.237   4.758   1.547 -0.2562 -0.1043  0.2663
 3875TIP3    H111589   1.229   4.669   1.582  1.0285  0.0244  0.9616
 3875TIP3    H211590   1.169   4.808   1.592 -0.7300 -0.6465  0.1598
 3876TIP3   OH211591   3.049   1.396   1.402  0.0115  0.2562 -0.2677
 3876TIP3    H111592   3.016   1.339   1.333 -0.5885 -2.1098  1.8457
 3876TIP3    H211593   2.992   1.472   1.400 -2.0904 -1.2515 -0.3182
 3877TIP3   OH211594   3.687   5.592   2.254 -0.3897  0.0706 -0.0495
 3877TIP3    H111595   3.662   5.517   2.200 -1.0307 -0.9496  1.5848
 3877TIP3    H211596   3.604   5.631   2.281 -0.3684 -1.8779  3.4214
 3878TIP3   OH211597   3.886   1.718   2.693  0.1294 -0.6866  0.4278
 3878TIP3    H111598   3.956   1.781   2.680  0.3551 -1.2993 -1.6967
 3878TIP3    H211599   3.814   1.751   2.639  0.5825 -2.6690 -1.5312
 3879TIP3   OH211600   1.525   4.468   2.732 -0.0228 -0.3221  0.2241
 3879TIP3    H111601   1.599   4.408   2.723 -0.4150 -0.8978  0.7832
 3879TIP3    H211602   1.465   4.424   2.791  0.1079  1.0381  1.4299
 3880TIP3   OH211603   5.521   1.782   2.416 -0.2699 -0.1063 -0.4769
 3880TIP3    H111604   5.617   1.774   2.423 -0.2223 -0.1620 -1.1125
 3880TIP3    H211605   5.506   1.874   2.394 -0.2306 -0.5032 -2.2773
 3881TIP3   OH211606   0.514   0.284   3.930  0.3253  0.6695 -0.3708
 3881TIP3    H111607   0.468   0.350   3.878 -1.1619 -0.2266 -0.2426
 3881TIP3    H211608   0.470   0.202   3.908  0.2739  0.1298  1.5997
 3882TIP3   OH211609   5.957   6.688   5.799 -0.2680  0.1492  0.2869
 3882TIP3    H111610   5.998   6.760   5.846 -0.6068 -0.0752  0.9333
 3882TIP3    H211611   5.925   6.727   5.717  0.0413  0.6065  0.3845
 3883TIP3   OH211612   3.647   3.445   4.371 -0.4793  0.3253  0.3499
 3883TIP3    H111613   3.578   3.482   4.427 -0.4099 -0.6926  1.1335
 3883TIP3    H211614   3.697   3.522   4.341  0.4763  0.8524  2.9992
 3884TIP3   OH211615   6.778   5.624   5.450  0.2862 -0.2062 -0.0290
 3884TIP3    H111616   6.734   5.541   5.433 -0.8958  0.4055 -0.0621
 3884TIP3    H211617   6.821   5.612   5.535  1.7628 -1.4839 -0.9215
 3885TIP3   OH211618   2.625   0.311   3.632 -0.0851 -0.0412  0.6067
 3885TIP3    H111619   2.547   0.310   3.688 -1.4645 -1.3415 -1.2097
 3885TIP3    H211620   2.617   0.392   3.582 -1.1633 -0.8868 -0.6639
 3886TIP3   OH211621   3.473   3.746   3.011  0.3718  0.4840  0.0939
 3886TIP3    H111622   3.459   3.655   2.984  1.0981  0.7352 -1.2168
 3886TIP3    H211623   3.386   3.778   3.032 -0.1154 -0.0586 -0.9854
 3887TIP3   OH211624   5.034   3.686   4.449 -0.0048 -0.0397  0.4886
 3887TIP3    H111625   5.067   3.719   4.365  0.1768  0.2721  0.6780
 3887TIP3    H211626   4.973   3.753   4.479 -4.2468 -2.4142 -1.8327
 3888TIP3   OH211627   1.164   2.765   0.046  0.1880  0.2293  0.8464
 3888TIP3    H111628   1.217   2.693   0.080 -3.8662 -2.5459  2.0973
 3888TIP3    H211629   1.206   2.844   0.077  3.1309 -1.7309  2.2313
 3889TIP3   OH211630   6.592   5.330   1.763 -0.5990 -0.0029 -0.6776
 3889TIP3    H111631   6.646   5.406   1.785  0.0464  0.0526 -2.2984
 3889TIP3    H211632   6.622   5.261   1.822 -0.3182  0.6358 -0.0501
 3890TIP3   OH211633   6.294   4.781   3.854 -0.4623 -0.2824  0.3414
 3890TIP3    H111634   6.295   4.862   3.804 -0.2244  0.8974  2.1667
 3890TIP3    H211635   6.357   4.724   3.810  0.0301  0.8548 -0.4515
 3891TIP3   OH211636   2.744   5.329   1.864 -0.9978 -0.5896  0.7822
 3891TIP3    H111637   2.775   5.302   1.951 -0.2209  0.0537  0.7224
 3891TIP3    H211638   2.707   5.416   1.878  1.2181  0.5456  0.1139
 3892TIP3   OH211639   3.825   0.499   5.617  0.7123 -0.0375 -0.4447
 3892TIP3    H111640   3.742   0.506   5.664  0.1672  2.0570 -1.5628
 3892TIP3    H211641   3.872   0.429   5.661  0.2077  1.6596  3.1694
 3893TIP3   OH211642   0.794   5.393   3.330 -0.0262 -0.1335 -0.2992
 3893TIP3    H111643   0.795   5.333   3.404  0.9436  0.3589  0.0909
 3893TIP3    H211644   0.755   5.473   3.364 -0.4453 -0.2134 -0.5756
 3894TIP3   OH211645   1.676   4.673   1.242  0.6377 -0.3205  0.3935
 3894TIP3    H111646   1.672   4.725   1.323  0.3595 -0.7421  0.6534
 3894TIP3    H211647   1.654   4.735   1.173 -1.6991 -0.4911  0.8802
 3895TIP3   OH211648   1.627   5.807   1.180  0.2497  0.1423  0.1296
 3895TIP3    H111649   1.661   5.756   1.253  1.1336  1.2798  0.5397
 3895TIP3    H211650   1.668   5.768   1.103  2.0655  1.0850  0.5593
 3896TIP3   OH211651   2.399   6.012   5.791  0.7896 -0.4265  0.0565
 3896TIP3    H111652   2.311   5.980   5.809 -0.2350  2.5798  0.9466
 3896TIP3    H211653   2.437   6.031   5.877  0.6818  2.1180 -0.3759
 3897TIP3   OH211654   1.095   1.336   2.365  0.7380  0.0171 -0.2512
 3897TIP3    H111655   1.085   1.431   2.352 -0.0919 -0.2530 -1.9166
 3897TIP3    H211656   1.179   1.326   2.409  0.6522  1.5511  0.3194
 3898TIP3   OH211657   2.568   2.974   1.898 -0.0414 -0.2953  0.3642
 3898TIP3    H111658   2.514   2.963   1.976 -0.1404 -0.8580  0.2186
 3898TIP3    H211659   2.511   2.950   1.825  0.3578 -0.7674  0.2013
 3899TIP3   OH211660   1.795   2.647   2.698  0.4054 -0.5493  0.0503
 3899TIP3    H111661   1.718   2.592   2.683 -0.1818 -0.0844  1.1658
 3899TIP3    H211662   1.782   2.723   2.641  0.4605 -0.8591 -0.3784
 3900TIP3   OH211663   4.280   1.172   0.742  0.5727  0.0487  0.3214
 3900TIP3    H111664   4.210   1.137   0.686  0.3368 -1.6655  1.6174
 3900TIP3    H211665   4.311   1.097   0.792  3.5125  0.7287 -0.3207
 3901TIP3   OH211666   1.877   5.195   1.218 -0.0809  0.4654  0.1260
 3901TIP3    H111667   1.941   5.252   1.175 -0.4482  0.4386 -0.4716
 3901TIP3    H211668   1.850   5.244   1.296  0.3672  0.6525  0.1661
 3902TIP3   OH211669   2.865   2.393   1.727 -0.4542 -0.5138 -1.1724
 3902TIP3    H111670   2.954   2.427   1.721 -0.7057  0.0259 -1.9691
 3902TIP3    H211671   2.870   2.306   1.686  0.0653 -1.2467  0.3607
 3903TIP3   OH211672   0.428   1.750   1.502  0.1480  0.4392  0.3665
 3903TIP3    H111673   0.469   1.827   1.462 -1.4304  1.0041 -0.2583
 3903TIP3    H211674   0.489   1.678   1.485  1.0325  1.3064 -0.1987
 3904TIP3   OH211675   5.455   5.108   4.098 -0.4027 -0.1850 -0.2800
 3904TIP3    H111676   5.541   5.100   4.056 -0.7136 -0.8672 -0.7988
 3904TIP3    H211677   5.401   5.153   4.034 -0.2641  0.8461  0.3098
 3905TIP3   OH211678   0.765   6.281   1.527 -0.0439 -0.6432  0.0761
 3905TIP3    H111679   0.735   6.313   1.442 -0.5850  1.0536  0.8519
 3905TIP3    H211680   0.704   6.211   1.550 -1.3008  0.4154  0.0568
 3906TIP3   OH211681   0.362   5.730   1.368 -0.5299 -0.6378  0.3416
 3906TIP3    H111682   0.408   5.648   1.352 -0.4859 -0.5518  0.0081
 3906TIP3    H211683   0.270   5.705   1.378 -0.7257 -0.5948 -1.1469
 3907TIP3   OH211684   3.463   1.131   0.881 -0.4954 -0.1586  0.0590
 3907TIP3    H111685   3.489   1.054   0.933 -0.7535 -0.8348 -0.7914
 3907TIP3    H211686   3.368   1.123   0.872 -0.3129 -0.8288 -1.6738
 3908TIP3   OH211687   1.414   5.013   2.921 -0.1322  0.1893  0.5539
 3908TIP3    H111688   1.470   5.091   2.916 -1.4920  1.1714 -0.0405
 3908TIP3    H211689   1.438   4.972   3.004  2.7576 -0.4859 -0.5263
 3909TIP3   OH211690   6.820   0.242   1.240  0.1033  0.0742  0.4406
 3909TIP3    H111691   6.748   0.304   1.233 -0.4688 -0.7683 -1.7394
 3909TIP3    H211692   6.858   0.239   1.152  0.2246 -2.5034  0.5195
 3910TIP3   OH211693   7.187   4.943   4.973  0.5112  0.1188 -0.5133
 3910TIP3    H111694   7.273   4.985   4.983  1.8781 -2.6877  0.5000
 3910TIP3    H211695   7.192   4.897   4.889  1.1863 -2.3648  0.7854
 3911TIP3   OH211696   4.701   1.353   4.437 -0.0187  0.2105  0.2015
 3911TIP3    H111697   4.652   1.270   4.429  1.5548 -0.7596  0.2449
 3911TIP3    H211698   4.635   1.421   4.421 -1.5220 -1.0097  0.9067
 3912TIP3   OH211699   0.252   2.395   2.087  0.2051  0.0951  0.8116
 3912TIP3    H111700   0.326   2.335   2.084 -0.5628 -0.9345  1.7052
 3912TIP3    H211701   0.290   2.478   2.116  1.0487 -0.3515  1.0224
 3913TIP3   OH211702   5.217   3.188   2.228  0.0985 -0.3782 -0.1934
 3913TIP3    H111703   5.125   3.208   2.246 -0.0288 -0.5631 -0.6166
 3913TIP3    H211704   5.255   3.172   2.314 -0.1670  0.1045  0.0169
 3914TIP3   OH211705   2.346   0.553   2.236  0.9842  0.1632 -0.4119
 3914TIP3    H111706   2.297   0.492   2.181  0.7137  1.5232 -1.7315
 3914TIP3    H211707   2.436   0.520   2.234  0.7701 -0.4169 -0.7614
 3915TIP3   OH211708   1.216   3.031   4.465  0.1636 -0.0129  0.2506
 3915TIP3    H111709   1.218   2.936   4.458  0.8702  0.0147 -0.0014
 3915TIP3    H211710   1.140   3.049   4.519 -0.9286 -0.6354 -1.0143
 3916TIP3   OH211711   6.500   3.157   1.599 -0.1539 -0.0177  0.3482
 3916TIP3    H111712   6.469   3.230   1.653 -0.7129 -0.1590  0.2239
 3916TIP3    H211713   6.422   3.127   1.552 -0.1756 -1.3920  1.2099
 3917TIP3   OH211714   3.578   5.800   2.979 -0.1777  0.1498  0.2683
 3917TIP3    H111715   3.523   5.876   2.958 -1.1189 -0.7416 -0.6289
 3917TIP3    H211716   3.605   5.814   3.070 -0.0008  1.7407  0.0006
 3918TIP3   OH211717   5.807   2.516   4.592  0.2716 -0.2213  0.2989
 3918TIP3    H111718   5.777   2.490   4.505  0.1693 -0.0726  0.2892
 3918TIP3    H211719   5.745   2.583   4.619 -3.2539 -3.9818  2.7840
 3919TIP3   OH211720   3.573   2.553   4.721 -0.1949  0.3918 -0.0952
 3919TIP3    H111721   3.492   2.604   4.725  0.5918  1.6650  0.4788
 3919TIP3    H211722   3.615   2.569   4.806 -0.1555 -1.6727  0.3159
 3920TIP3   OH211723   3.490   5.339   2.526  0.7701 -0.4699 -0.0076
 3920TIP3    H111724   3.457   5.282   2.457  1.6080 -0.7624 -0.1826
 3920TIP3    H211725   3.584   5.348   2.507  0.7612  0.5077  0.3415
 3921TIP3   OH211726   1.501   0.487   2.052 -0.6592  0.1537 -0.6288
 3921TIP3    H111727   1.562   0.548   2.010 -1.7921  0.2898 -2.1741
 3921TIP3    H211728   1.539   0.401   2.033 -1.0930  0.2161 -1.9161
 3922TIP3   OH211729   2.360   1.077   4.779 -0.0184 -0.3582 -0.3653
 3922TIP3    H111730   2.431   1.111   4.833  0.4013 -0.7324 -0.6691
 3922TIP3    H211731   2.282   1.086   4.833  0.4089 -0.8348  0.3538
 3923TIP3   OH211732   6.530   0.460   3.670  0.5331 -0.3279 -0.0416
 3923TIP3    H111733   6.514   0.550   3.698 -0.7185 -0.6959  0.4924
 3923TIP3    H211734   6.512   0.407   3.748  3.2522 -0.9500  0.2996
 3924TIP3   OH211735   6.234   0.900   5.163  0.6179 -0.2252 -0.3470
 3924TIP3    H111736   6.233   0.995   5.155 -0.8437 -0.3063 -1.5177
 3924TIP3    H211737   6.317   0.873   5.123  0.0145  0.4203 -2.1052
 3925TIP3   OH211738   4.109   1.209   1.969 -0.8720 -0.1981  0.7660
 3925TIP3    H111739   4.194   1.171   1.947 -1.2545 -0.9577  0.5541
 3925TIP3    H211740   4.073   1.239   1.886 -0.2417  1.3538  1.0365
 3926TIP3   OH211741   6.891   0.336   4.325 -0.0738 -0.4135 -0.0802
 3926TIP3    H111742   6.839   0.371   4.397 -1.1332 -1.0766 -0.4992
 3926TIP3    H211743   6.834   0.272   4.283  0.2969  0.3811 -1.8880
 3927TIP3   OH211744   4.727   6.363   1.736  0.2479  0.3052  0.4655
 3927TIP3    H111745   4.697   6.296   1.798 -0.7248 -1.3270 -1.6667
 3927TIP3    H211746   4.647   6.408   1.710  0.3250 -0.4096 -1.1149
 3928TIP3   OH211747   4.838   4.681   3.867 -0.2571  0.0103 -0.5389
 3928TIP3    H111748   4.770   4.748   3.881 -0.5332 -0.6066  1.3877
 3928TIP3    H211749   4.794   4.598   3.888  0.9380 -0.4555  0.1978
 3929TIP3   OH211750   0.122   5.260   4.094  0.1037 -0.1448  0.1255
 3929TIP3    H111751   0.049   5.313   4.063  1.4757  2.0101  0.3567
 3929TIP3    H211752   0.103   5.172   4.063 -1.4145  0.7998 -1.8110
 3930TIP3   OH211753   0.340   0.159   3.062 -0.0969  0.0483  0.6038
 3930TIP3    H111754   0.317   0.193   3.149 -0.1491 -0.1236  0.6588
 3930TIP3    H211755   0.397   0.084   3.081 -0.1478 -0.0188  0.4916
 3931TIP3   OH211756   6.877   1.433   3.370  0.2155  0.4483 -0.5908
 3931TIP3    H111757   6.900   1.505   3.312 -0.8727  0.9226 -0.4586
 3931TIP3    H211758   6.805   1.388   3.325 -0.4269  0.6351  0.2191
 3932TIP3   OH211759   6.542   4.975   1.410  0.6080 -0.6891  0.1765
 3932TIP3    H111760   6.587   5.059   1.405  0.8120 -0.8496 -1.1127
 3932TIP3    H211761   6.543   4.942   1.320  0.2398 -1.9190  0.6007
 3933TIP3   OH211762   6.547   3.565   0.575 -0.1699 -0.0393 -0.6989
 3933TIP3    H111763   6.554   3.471   0.558  2.2231  0.3389 -2.1931
 3933TIP3    H211764   6.566   3.573   0.669 -0.4665 -1.0443 -0.5369
 3934TIP3   OH211765   1.619   6.473   2.450 -0.3101  0.1820 -0.3502
 3934TIP3    H111766   1.619   6.551   2.506 -0.5295 -0.1337  0.0937
 3934TIP3    H211767   1.576   6.406   2.503 -0.8574 -0.0234 -1.0390
 3935TIP3   OH211768   1.363   1.341   0.786  0.2578  0.0064  0.0330
 3935TIP3    H111769   1.455   1.317   0.792  0.4330  0.7631  0.4708
 3935TIP3    H211770   1.359   1.431   0.817 -0.7060 -0.1886  0.5166
 3936TIP3   OH211771   3.320   4.309   1.208  0.8808  0.5187 -0.5161
 3936TIP3    H111772   3.416   4.315   1.207  0.9060  0.2506 -2.0625
 3936TIP3    H211773   3.302   4.217   1.224  0.9150  0.3873 -1.1891
 3937TIP3   OH211774   4.286   6.765   2.695  0.1700  0.5285 -0.0501
 3937TIP3    H111775   4.283   6.834   2.761  1.1903  0.4779  0.0653
 3937TIP3    H211776   4.306   6.685   2.743  1.7310  0.6214 -0.4738
 3938TIP3   OH211777   5.834   5.692   5.879 -0.8076 -0.0934  0.1759
 3938TIP3    H111778   5.778   5.699   5.802 -0.5387  4.3196  0.0951
 3938TIP3    H211779   5.920   5.667   5.844 -1.1453 -0.0925 -0.6900
 3939TIP3   OH211780   3.296   4.963   0.830 -0.2451 -0.1440  0.5898
 3939TIP3    H111781   3.229   4.955   0.762  0.8286  0.3246 -0.5715
 3939TIP3    H211782   3.254   4.931   0.910 -1.5526 -0.6799 -0.2854
 3940TIP3   OH211783   3.008   4.567   1.249 -0.6271 -0.4597 -0.5784
 3940TIP3    H111784   2.996   4.620   1.327 -0.5302 -1.3368  0.0478
 3940TIP3    H211785   2.986   4.478   1.276  1.9934 -1.2673 -0.7921
 3941TIP3   OH211786   3.858   6.691   2.964 -0.1396  0.5503 -0.3393
 3941TIP3    H111787   3.943   6.654   2.940  0.1153  1.4323 -0.8416
 3941TIP3    H211788   3.808   6.617   2.999  0.9273  0.0751  0.2150
 3942TIP3   OH211789   3.490   4.155   2.017 -0.3035  0.2014  0.1104
 3942TIP3    H111790   3.516   4.145   1.926 -2.4973  0.4050 -0.5834
 3942TIP3    H211791   3.491   4.066   2.052  0.9859  0.1723  0.0492
 3943TIP3   OH211792   5.934   1.883   3.436  0.3506  0.1517  0.0208
 3943TIP3    H111793   5.975   1.804   3.472 -0.4206  0.4994  1.7728
 3943TIP3    H211794   5.950   1.878   3.342  1.6939 -1.2783  0.2882
 3944TIP3   OH211795   3.939   0.382   5.225  0.1666  0.0046  0.6400
 3944TIP3    H111796   3.847   0.407   5.233  0.3373  0.2221  2.4149
 3944TIP3    H211797   3.986   0.441   5.284  1.4736 -0.0654 -0.2682
 3945TIP3   OH211798   2.492   2.740   0.263  0.2529  0.1023  0.3395
 3945TIP3    H111799   2.518   2.824   0.299  0.9385  0.3178 -0.6106
 3945TIP3    H211800   2.416   2.760   0.208 -0.1668 -0.0602  0.8538
 3946TIP3   OH211801   6.101   5.494   5.860  0.1643  0.4308  0.1147
 3946TIP3    H111802   6.087   5.545   5.780 -1.9186  1.0116  0.7844
 3946TIP3    H211803   6.154   5.419   5.832  0.4993  1.2515 -1.5542
 3947TIP3   OH211804   3.768   2.030   3.192 -0.2599 -0.0640  0.0688
 3947TIP3    H111805   3.826   2.104   3.176 -0.8293  0.5030  0.5714
 3947TIP3    H211806   3.689   2.050   3.141 -0.1589 -0.6564 -0.3286
 3948TIP3   OH211807   1.864   4.100   3.165 -0.6366  0.6034  0.0029
 3948TIP3    H111808   1.895   4.095   3.074  0.6722  1.1110  0.3895
 3948TIP3    H211809   1.847   4.010   3.190 -0.4627  0.4069 -0.5685
 3949TIP3   OH211810   1.866   1.283   5.801  0.0871  0.7219 -0.6076
 3949TIP3    H111811   1.789   1.331   5.770 -1.7385 -1.3201  0.5426
 3949TIP3    H211812   1.879   1.313   5.891 -1.3515 -1.1592  0.2818
 3950TIP3   OH211813   4.436   5.506   2.190 -0.1549  0.5102 -0.0463
 3950TIP3    H111814   4.447   5.600   2.177  0.6341  0.3713 -0.3984
 3950TIP3    H211815   4.513   5.480   2.240 -0.2315 -0.0064 -0.1979
 3951TIP3   OH211816   4.759   3.879   3.526 -0.0471 -0.5090  0.4722
 3951TIP3    H111817   4.812   3.955   3.503 -1.3666  0.7029  1.2568
 3951TIP3    H211818   4.821   3.816   3.563  0.8915  0.7506  1.1238
 3952TIP3   OH211819   5.921   0.925   2.366  0.1551 -0.0183 -0.4516
 3952TIP3    H111820   5.830   0.935   2.340  0.7928  2.9364 -1.9402
 3952TIP3    H211821   5.917   0.874   2.447 -2.9156  1.1199  0.2481
 3953TIP3   OH211822   4.811   5.610   0.466  0.2101  0.5419 -0.2682
 3953TIP3    H111823   4.773   5.630   0.380 -1.1915 -1.6510 -0.2010
 3953TIP3    H211824   4.861   5.530   0.452 -2.6643 -1.7645  1.5397
 3954TIP3   OH211825   3.933   2.887   1.010  0.5928  0.5337 -0.1468
 3954TIP3    H111826   3.911   2.969   1.055  1.7692  2.5249 -2.9498
 3954TIP3    H211827   4.028   2.880   1.020  0.6515  0.1470 -0.9419
 3955TIP3   OH211828   0.144   6.225   0.811 -0.0353  0.1626  0.0480
 3955TIP3    H111829   0.074   6.199   0.750 -0.2318  1.8952 -0.5080
 3955TIP3    H211830   0.197   6.146   0.820 -1.0311 -0.6712 -0.9456
 3956TIP3   OH211831   2.179   1.924   2.411  0.1566  0.6657 -0.0692
 3956TIP3    H111832   2.239   1.917   2.486 -2.2481 -1.2416  1.8567
 3956TIP3    H211833   2.106   1.977   2.443  0.3027  2.1877 -2.0639
 3957TIP3   OH211834   1.239   1.154   2.172  0.0718 -0.2318 -0.1747
 3957TIP3    H111835   1.320   1.201   2.192 -0.0112 -0.3315  0.4217
 3957TIP3    H211836   1.170   1.215   2.197 -0.0682  0.4515 -2.0741
 3958TIP3   OH211837   4.701   2.539   4.807  0.3550 -0.2346  0.3594
 3958TIP3    H111838   4.722   2.611   4.867  1.1556  1.0987 -1.4285
 3958TIP3    H211839   4.616   2.508   4.836  0.0338  1.3622  1.2648
 3959TIP3   OH211840   3.110   1.617   3.651  0.1198 -0.1293  0.0655
 3959TIP3    H111841   3.023   1.605   3.691 -0.1661  0.5867 -0.3106
 3959TIP3    H211842   3.167   1.640   3.724 -0.2963  0.6955  0.1436
 3960TIP3   OH211843   1.993   2.093   2.516 -0.3310  0.3418  0.8421
 3960TIP3    H111844   1.910   2.079   2.470 -0.2795 -0.0318  0.8603
 3960TIP3    H211845   1.969   2.146   2.592 -0.6516 -0.2748  1.1778
 3961TIP3   OH211846   1.431   5.887   4.660 -0.0021  0.1367  0.4788
 3961TIP3    H111847   1.450   5.937   4.739 -0.9778  1.5227 -0.1138
 3961TIP3    H211848   1.372   5.818   4.688  1.4924 -0.8175  1.3465
 3962TIP3   OH211849   0.133   5.506   5.632  0.2451 -0.3003  0.2608
 3962TIP3    H111850   0.138   5.494   5.538 -0.6083  2.0940 -0.1778
 3962TIP3    H211851   0.145   5.419   5.669 -0.3679 -1.4499 -2.0812
 3963TIP3   OH211852   0.057   0.310   3.139 -0.7583 -0.0123  0.4332
 3963TIP3    H111853   0.022   0.231   3.098 -0.6454  0.9073 -1.5539
 3963TIP3    H211854   0.097   0.358   3.067  0.6180  1.1047  1.8780
 3964TIP3   OH211855   5.982   1.932   0.780  0.0772  0.4429  0.2019
 3964TIP3    H111856   5.955   1.859   0.836  1.6160  0.5421  1.1520
 3964TIP3    H211857   6.050   1.977   0.831 -0.5598  2.3302 -0.5294
 3965TIP3   OH211858   1.552   2.457   3.755 -0.3510 -0.7254  0.1147
 3965TIP3    H111859   1.590   2.406   3.827  0.0264  0.1905  0.5831
 3965TIP3    H211860   1.607   2.436   3.680  0.6226 -0.0110  0.6075
 3966TIP3   OH211861   4.838   2.884   5.751 -0.5237  0.5217  0.0567
 3966TIP3    H111862   4.913   2.825   5.752 -0.4863  0.5564 -0.7094
 3966TIP3    H211863   4.820   2.900   5.844 -0.2188 -0.2884  0.2685
 3967TIP3   OH211864   5.504   4.263   4.252  0.3235  0.2299  0.0680
 3967TIP3    H111865   5.413   4.284   4.271  0.4433  0.3161  0.5488
 3967TIP3    H211866   5.501   4.221   4.166 -0.1263  0.5480 -0.0730
 3968TIP3   OH211867   5.647   1.256   1.360  0.4647  0.0577 -0.1610
 3968TIP3    H111868   5.603   1.337   1.383  1.0846 -0.2447  2.3171
 3968TIP3    H211869   5.740   1.279   1.358  0.5433 -0.2876 -0.9616
 3969TIP3   OH211870   2.325   2.293   4.176 -0.1254 -0.5787 -0.2486
 3969TIP3    H111871   2.270   2.311   4.100 -2.3395 -1.5297  1.0341
 3969TIP3    H211872   2.400   2.352   4.167  0.2483 -1.3602 -3.6724
 3970TIP3   OH211873   1.890   4.260   5.421  0.5732 -0.3274 -0.7867
 3970TIP3    H111874   1.964   4.226   5.372  1.8072  1.3836 -0.2020
 3970TIP3    H211875   1.900   4.223   5.509  2.6206  2.3082  0.2079
 3971TIP3   OH211876   5.762   4.979   1.747  0.0786 -0.1425 -0.1871
 3971TIP3    H111877   5.684   4.928   1.766  0.5237 -0.6399  0.3351
 3971TIP3    H211878   5.789   5.015   1.831  0.3651  0.0952 -0.3783
 3972TIP3   OH211879   1.766   1.591   4.088 -0.2482  0.4271  0.0876
 3972TIP3    H111880   1.682   1.588   4.133 -1.1559  0.5996 -1.5305
 3972TIP3    H211881   1.785   1.685   4.079  0.1764  0.3885  0.5286
 3973TIP3   OH211882   1.196   2.591   5.641 -0.4243 -0.3086  0.4996
 3973TIP3    H111883   1.218   2.520   5.582  1.2803 -0.1367  0.8628
 3973TIP3    H211884   1.268   2.593   5.704 -0.4899  1.6282  0.5899
 3974TIP3   OH211885   1.333   6.625   1.976  0.4298  0.1399  0.0810
 3974TIP3    H111886   1.310   6.694   1.913 -0.1278  0.2496  0.4003
 3974TIP3    H211887   1.275   6.552   1.953  0.6662 -0.0420  0.0667
 3975TIP3   OH211888   0.928   3.854   1.619  0.5471 -0.6727 -0.4802
 3975TIP3    H111889   0.963   3.842   1.531  0.8040  0.0029 -0.4749
 3975TIP3    H211890   0.885   3.940   1.616 -0.0192 -0.9424 -0.1336
 3976TIP3   OH211891   1.277   4.583   5.618 -0.2235 -0.4445 -0.6735
 3976TIP3    H111892   1.336   4.561   5.690 -1.2676  0.8674  0.6368
 3976TIP3    H211893   1.261   4.499   5.574  1.4262 -1.0637 -0.1751
 3977TIP3   OH211894   6.032   5.994   5.782 -0.0451  0.1338 -0.5137
 3977TIP3    H111895   6.116   6.039   5.794 -0.8874  1.7709 -0.4459
 3977TIP3    H211896   5.979   6.024   5.856 -1.7573  1.7455 -2.2946
 3978TIP3   OH211897   4.527   0.069   3.022 -0.6592 -0.1815 -0.3884
 3978TIP3    H111898   4.586   0.081   2.947 -0.0393  0.2846  0.1618
 3978TIP3    H211899   4.523  -0.026   3.034  0.2298 -0.2142 -0.2512
 3979TIP3   OH211900   3.909   1.515   2.934 -0.0466  0.4983 -0.0587
 3979TIP3    H111901   3.897   1.577   2.863 -0.6724  0.1803 -0.2374
 3979TIP3    H211902   3.920   1.569   3.012 -1.2401  0.8385 -0.1096
 3980TIP3   OH211903   4.555   2.796   3.355  0.5792  0.6036 -0.3299
 3980TIP3    H111904   4.587   2.707   3.369  0.2562  0.4977 -0.2576
 3980TIP3    H211905   4.597   2.825   3.274  2.1471  1.0677  0.6023
 3981TIP3   OH211906   1.448   4.713   5.234 -0.4478  0.4330  0.1287
 3981TIP3    H111907   1.535   4.677   5.247 -1.4432 -1.9625  0.6449
 3981TIP3    H211908   1.444   4.735   5.140  0.7507  0.7959  0.1521
 3982TIP3   OH211909   6.525   1.095   5.501  0.7187  0.2323 -0.2750
 3982TIP3    H111910   6.511   1.028   5.567 -0.0191 -0.3295 -0.9720
 3982TIP3    H211911   6.569   1.166   5.547 -1.5153  0.6932  1.3157
 3983TIP3   OH211912   0.459   2.073   1.214  0.2274 -0.3770 -0.3780
 3983TIP3    H111913   0.397   2.015   1.170  0.2607  0.7128 -1.9338
 3983TIP3    H211914   0.488   2.134   1.146  1.0262  0.7769  0.9299
 3984TIP3   OH211915   5.025   6.780   3.611  0.4755  0.7037 -0.0033
 3984TIP3    H111916   4.953   6.746   3.664  0.3778  0.1127 -0.5111
 3984TIP3    H211917   4.985   6.805   3.528  1.1841 -1.9149 -1.2583
 3985TIP3   OH211918   2.069   3.961   0.811  0.2263  0.0275 -0.2239
 3985TIP3    H111919   2.105   3.887   0.860 -0.5884  0.4835  1.1433
 3985TIP3    H211920   2.007   3.922   0.750 -0.7785 -0.4109  1.0216
 3986TIP3   OH211921   5.212   1.668   2.645  0.4090  0.1652  0.1135
 3986TIP3    H111922   5.225   1.573   2.645  2.9650  0.4071  2.2062
 3986TIP3    H211923   5.254   1.697   2.563 -0.7673 -0.5006 -0.7535
 3987TIP3   OH211924   7.226   6.538   3.903  0.2977 -0.6344  0.4883
 3987TIP3    H111925   7.162   6.581   3.961  1.0311  0.7223  0.3450
 3987TIP3    H211926   7.193   6.449   3.892 -0.9562 -0.2997  1.3287
 3988TIP3   OH211927   6.851   4.930   0.258 -0.0644 -0.5028  0.4806
 3988TIP3    H111928   6.938   4.900   0.234  0.6632  0.4564  1.7994
 3988TIP3    H211929   6.866   4.991   0.330 -1.8240 -0.2716  0.6853
 3989TIP3   OH211930   2.491   4.539   1.070 -0.1158 -0.0016 -0.4883
 3989TIP3    H111931   2.517   4.447   1.072 -0.9861 -0.3290 -2.1835
 3989TIP3    H211932   2.574   4.587   1.062  0.5451 -0.4183  2.6670
 3990TIP3   OH211933   5.444   2.443   5.567 -0.2627  0.0364 -0.0957
 3990TIP3    H111934   5.375   2.391   5.525 -0.4144 -0.4155  0.6876
 3990TIP3    H211935   5.524   2.392   5.553 -0.1840  0.2670 -0.4941
 3991TIP3   OH211936   3.861   1.151   3.874  0.1396  0.7423 -0.3654
 3991TIP3    H111937   3.769   1.153   3.900  0.9225 -0.5985  2.9662
 3991TIP3    H211938   3.895   1.070   3.911  2.8010  1.4395 -1.0460
 3992TIP3   OH211939   0.289   1.449   2.534 -0.2648 -0.1635 -0.4244
 3992TIP3    H111940   0.254   1.422   2.619  0.2995 -0.9533 -0.4221
 3992TIP3    H211941   0.304   1.366   2.488 -2.1300  0.2862 -1.9677
 3993TIP3   OH211942   0.133   1.881   5.260  0.0477  0.6643 -0.2611
 3993TIP3    H111943   0.160   1.903   5.171  1.0152  0.7788  0.0512
 3993TIP3    H211944   0.146   1.961   5.310  1.8619 -0.0625  0.4901
 3994TIP3   OH211945   6.558   3.481   1.606  0.4206  0.3346 -0.2869
 3994TIP3    H111946   6.519   3.547   1.663 -1.5512 -1.4282  0.5173
 3994TIP3    H211947   6.633   3.448   1.656 -1.2265 -1.1188  1.3557
 3995TIP3   OH211948   2.574   6.609   3.504  0.0172  0.1854  0.1032
 3995TIP3    H111949   2.509   6.669   3.467 -0.7150  0.6317  2.0062
 3995TIP3    H211950   2.524   6.530   3.524 -0.0177  0.6085  1.7797
 3996TIP3   OH211951   4.144   4.778   5.788  0.2425  0.5866  0.4778
 3996TIP3    H111952   4.210   4.848   5.792 -0.3678  1.4971 -2.6672
 3996TIP3    H211953   4.195   4.698   5.776  0.8937  1.2150 -1.3780
 3997TIP3   OH211954   6.726   1.729   2.621 -0.4260  0.1625  0.1794
 3997TIP3    H111955   6.738   1.699   2.531  0.1362 -1.8643  0.8965
 3997TIP3    H211956   6.735   1.825   2.615 -0.1168  0.0514 -1.8570
 3998TIP3   OH211957   3.995   0.494   1.422  0.1474  0.1643  0.2012
 3998TIP3    H111958   4.055   0.499   1.496 -0.4569  0.0112  0.7102
 3998TIP3    H211959   3.993   0.583   1.387  2.0547 -0.1793 -0.9641
 3999TIP3   OH211960   6.333   3.730   4.017  0.3764 -0.5528 -0.1370
 3999TIP3    H111961   6.358   3.804   4.073  2.4206 -0.5221 -0.9887
 3999TIP3    H211962   6.299   3.770   3.937  1.8460 -0.4652 -0.7565
 4000TIP3   OH211963   6.763   0.406   3.935  0.3317 -0.1964  0.9292
 4000TIP3    H111964   6.769   0.379   3.844  1.7548 -1.2397  1.3043
 4000TIP3    H211965   6.772   0.502   3.932 -0.1845 -0.1624 -0.0427
 4001TIP3   OH211966   1.021   1.985   3.750 -0.0438  0.6248 -0.1583
 4001TIP3    H111967   0.958   2.028   3.691  0.5824  0.0589 -1.2847
 4001TIP3    H211968   0.968   1.949   3.820 -0.8858  0.9145 -0.6340
 4002TIP3   OH211969   3.297   0.548   2.374  0.3124 -0.5228  0.1935
 4002TIP3    H111970   3.361   0.551   2.445 -0.0190  0.0665  0.4739
 4002TIP3    H211971   3.284   0.640   2.350 -0.3385 -0.6467  0.0627
 4003TIP3   OH211972   4.764   2.948   4.221  0.0569  0.2041 -0.2613
 4003TIP3    H111973   4.719   2.885   4.277 -0.5914  1.5938  0.8629
 4003TIP3    H211974   4.694   2.985   4.166  0.0747  1.2228  0.3718
 4004TIP3   OH211975   2.884   0.638   3.253  0.5403  0.2959 -0.0653
 4004TIP3    H111976   2.951   0.654   3.186  1.0728  1.4648  0.7166
 4004TIP3    H211977   2.872   0.723   3.296 -1.7775  0.2464 -0.4590
 4005TIP3   OH211978   1.460   5.595   3.501  0.2241 -0.2912 -0.2572
 4005TIP3    H111979   1.429   5.641   3.579  0.6250 -1.7611  0.8172
 4005TIP3    H211980   1.534   5.647   3.470 -0.4906  0.7890 -0.1920
 4006TIP3   OH211981   4.005   0.764   0.626 -0.1325  0.5098  0.0107
 4006TIP3    H111982   4.085   0.724   0.592  0.3679  0.7878  0.8387
 4006TIP3    H211983   4.022   0.858   0.621 -0.6575  0.5893 -0.3864
 4007TIP3   OH211984   5.748   1.955   1.524  0.2006 -0.4368  0.4704
 4007TIP3    H111985   5.757   1.859   1.524 -2.4681 -0.7615  0.3765
 4007TIP3    H211986   5.747   1.978   1.617  0.3099 -0.5774  0.5072
 4008TIP3   OH211987   1.777   4.618   1.759 -0.2672 -0.5195  0.1777
 4008TIP3    H111988   1.769   4.625   1.663  0.0841 -1.0610  0.1072
 4008TIP3    H211989   1.693   4.581   1.787 -0.7346  0.5072  0.1829
 4009TIP3   OH211990   0.410   2.478   2.738 -0.0641 -0.2764  0.5197
 4009TIP3    H111991   0.411   2.419   2.813  0.9279 -0.8748  0.0478
 4009TIP3    H211992   0.394   2.421   2.662 -0.9969  0.3133  0.2603
 4010TIP3   OH211993   6.790   5.729   4.528  0.3165 -0.2433  0.1261
 4010TIP3    H111994   6.814   5.808   4.576 -2.2751  1.3039 -0.9332
 4010TIP3    H211995   6.827   5.743   4.441  1.4354 -1.1017  0.4456
 4011TIP3   OH211996   6.781   2.637   4.914 -0.4110  0.3336 -0.2712
 4011TIP3    H111997   6.691   2.668   4.901 -0.1952  0.5310 -1.3949
 4011TIP3    H211998   6.795   2.643   5.009 -2.1325 -1.2694  0.1318
 4012TIP3   OH211999   5.186   3.245   1.031 -0.2223  0.3127 -0.6083
 4012TIP3    H112000   5.237   3.243   0.950  0.5350  0.1320 -0.1303
 4012TIP3    H212001   5.099   3.215   1.005 -0.0936  0.6265 -1.4305
 4013TIP3   OH212002   2.125   0.781   1.357 -0.5452  0.4586 -0.3441
 4013TIP3    H112003   2.063   0.789   1.284  0.4931  0.7163 -1.2310
 4013TIP3    H212004   2.073   0.801   1.435 -1.5076  0.9729 -1.0906
 4014TIP3   OH212005   6.598   4.378   3.759  0.1574 -0.0870 -0.4298
 4014TIP3    H112006   6.526   4.436   3.736  0.0484 -0.7675 -1.9336
 4014TIP3    H212007   6.564   4.290   3.742  1.8855 -0.3685 -3.0994
 4015TIP3   OH212008   1.111   6.728   5.400  0.0914  0.0558  0.4243
 4015TIP3    H112009   1.103   6.803   5.340  0.4130  0.4992  0.9297
 4015TIP3    H212010   1.065   6.756   5.479  1.2698  0.1994  1.0715
 4016TIP3   OH212011   1.635   0.257   2.875 -0.2644 -0.6318 -0.3731
 4016TIP3    H112012   1.558   0.303   2.909  1.1444  1.4728  0.2055
 4016TIP3    H212013   1.671   0.317   2.809  1.8725 -0.6630  0.6872
 4017TIP3   OH212014   4.135   4.361   3.126 -0.2431  0.2107 -0.2619
 4017TIP3    H112015   4.228   4.341   3.122 -0.0484  0.7573  1.0548
 4017TIP3    H212016   4.128   4.448   3.085  0.1719  1.1050  1.4454
 4018TIP3   OH212017   4.864   4.870   0.525  0.4960 -0.0752  0.4066
 4018TIP3    H112018   4.901   4.928   0.460 -0.4633 -1.8052 -1.8250
 4018TIP3    H212019   4.924   4.796   0.529 -0.7104 -1.1455 -0.4442
 4019TIP3   OH212020   1.968   6.598   1.920 -0.6435  0.0861  0.6558
 4019TIP3    H112021   1.878   6.566   1.908 -0.6866  0.2076  0.6612
 4019TIP3    H212022   2.001   6.549   1.995 -0.9968  0.6780  1.1977
 4020TIP3   OH212023   6.492   4.306   0.271  0.4624 -0.2509  0.6685
 4020TIP3    H112024   6.412   4.316   0.220  0.2070 -1.3547  0.8310
 4020TIP3    H212025   6.492   4.214   0.298  2.2175 -0.4925 -0.0411
 4021TIP3   OH212026   4.725   2.386   0.310  0.4732  0.2231 -0.0065
 4021TIP3    H112027   4.722   2.476   0.277  0.5911  0.8577  1.6301
 4021TIP3    H212028   4.762   2.394   0.398 -0.5762 -1.2996  0.6096
 4022TIP3   OH212029   0.494   1.676   2.349 -0.1015 -0.1207  0.3514
 4022TIP3    H112030   0.463   1.665   2.259  0.4726 -2.4742  0.3608
 4022TIP3    H212031   0.559   1.607   2.360 -0.1820  0.0900  2.5892
 4023TIP3   OH212032   6.231   4.316   0.790  0.2599 -0.2366  0.0206
 4023TIP3    H112033   6.310   4.270   0.761  0.9711  0.3988  0.8680
 4023TIP3    H212034   6.180   4.250   0.837 -0.7385 -1.1826 -2.2687
 4024TIP3   OH212035   0.515   4.668   0.280  0.1578 -0.4915  0.1901
 4024TIP3    H112036   0.593   4.678   0.335  1.3817 -2.4209 -1.0794
 4024TIP3    H212037   0.454   4.618   0.333 -0.6715  1.7796  1.5314
 4025TIP3   OH212038   6.241   1.130   0.229 -0.1847 -0.2916  0.0660
 4025TIP3    H112039   6.184   1.184   0.175 -0.3109 -0.9819 -0.5104
 4025TIP3    H212040   6.296   1.082   0.166 -0.4540 -1.2421  0.5333
 4026TIP3   OH212041   0.189   2.573   4.999  0.3109  0.8801  0.3081
 4026TIP3    H112042   0.121   2.534   4.944 -1.2072  1.5362  1.6206
 4026TIP3    H212043   0.156   2.562   5.088  3.2139 -1.1695  1.2581
 4027TIP3   OH212044   3.686   6.176   1.199 -0.3245  0.0505  0.5082
 4027TIP3    H112045   3.591   6.182   1.205 -0.5811 -1.6787 -1.0109
 4027TIP3    H212046   3.704   6.175   1.105  1.2335  0.6925  0.7751
 4028TIP3   OH212047   1.660   3.097   3.609 -0.0922  0.4297  0.0883
 4028TIP3    H112048   1.661   3.144   3.526  0.5215 -0.8195 -0.6432
 4028TIP3    H212049   1.737   3.041   3.606 -1.6516 -1.8530  0.1695
 4029TIP3   OH212050   6.544   5.063   3.058  0.3813  0.0153  0.0437
 4029TIP3    H112051   6.497   4.990   3.018 -1.2205  0.3012  1.3273
 4029TIP3    H212052   6.573   5.116   2.983 -0.4397 -0.7131 -0.8180
 4030TIP3   OH212053   2.112   0.390   5.353  0.1112 -0.2612  0.7610
 4030TIP3    H112054   2.032   0.338   5.344  0.4557 -0.8198  0.8596
 4030TIP3    H212055   2.173   0.352   5.290  0.3115  0.1453  0.7041
 4031TIP3   OH212056   2.313   2.116   2.268 -0.1443  0.0220  0.1236
 4031TIP3    H112057   2.369   2.052   2.225  0.9980  1.7417 -1.1170
 4031TIP3    H212058   2.247   2.064   2.314  0.9910 -2.0130 -0.4206
 4032TIP3   OH212059   4.702   2.964   0.712 -0.3393  0.2734  0.5326
 4032TIP3    H112060   4.703   2.889   0.654 -0.8179  0.5673  0.1363
 4032TIP3    H212061   4.661   2.931   0.793 -0.3513  0.0566  0.4387
 4033TIP3   OH212062   1.611   0.382   1.683  0.1758 -0.1051 -0.1555
 4033TIP3    H112063   1.573   0.463   1.717  0.6191 -0.2128  0.5976
 4033TIP3    H212064   1.646   0.407   1.597 -1.3777  0.0477 -0.7968
 4034TIP3   OH212065   7.001   0.556   2.944  0.5074  0.0034 -0.0776
 4034TIP3    H112066   7.003   0.530   3.037  0.1785  1.7536  0.4526
 4034TIP3    H212067   7.060   0.494   2.901 -0.4417 -1.7723  1.0315
 4035TIP3   OH212068   6.510   3.415   3.075 -0.4141  0.6483 -0.3225
 4035TIP3    H112069   6.460   3.423   2.994  0.4271 -1.1497 -1.0942
 4035TIP3    H212070   6.568   3.340   3.059  1.4570  1.7342  1.0797
 4036TIP3   OH212071   3.701   0.697   2.295  0.2716  0.0753 -0.3299
 4036TIP3    H112072   3.701   0.729   2.386  0.5458 -0.9292  0.0418
 4036TIP3    H212073   3.670   0.771   2.243  4.3359  2.3528  0.0064
 4037TIP3   OH212074   2.775   6.497   1.328  0.4135  0.1150 -0.4386
 4037TIP3    H112075   2.734   6.566   1.276  1.2975  0.9724 -0.0353
 4037TIP3    H212076   2.831   6.544   1.390  1.2996 -0.9794 -0.3806
 4038TIP3   OH212077   5.283   3.132   0.021  0.0232  0.3103 -0.0282
 4038TIP3    H112078   5.317   3.121   0.110  0.7847 -0.8042 -0.4381
 4038TIP3    H212079   5.334   3.203  -0.016  1.5311 -0.9245 -0.4183
 4039TIP3   OH212080   4.744   5.807   3.251  0.3272 -0.1840  0.3506
 4039TIP3    H112081   4.739   5.713   3.270  2.0404 -0.6718 -1.3329
 4039TIP3    H212082   4.702   5.816   3.165 -0.1530  0.6534  0.6679
 4040TIP3   OH212083   1.101   3.638   4.619  0.4187 -0.2257 -0.1701
 4040TIP3    H112084   1.052   3.582   4.679 -1.0588  0.0865 -1.0290
 4040TIP3    H212085   1.078   3.727   4.646 -0.6054 -0.0830 -1.4374
 4041TIP3   OH212086   5.168   3.589   3.702  0.4378  0.0778  0.1487
 4041TIP3    H112087   5.247   3.623   3.745  0.5501  2.1512 -1.5606
 4041TIP3    H212088   5.194   3.503   3.668  1.5359  0.1662  0.7220
 4042TIP3   OH212089   5.511   0.954   0.939  0.4356  0.4733 -0.0767
 4042TIP3    H112090   5.510   1.034   0.992  0.9032  0.4194  0.0171
 4042TIP3    H212091   5.420   0.925   0.937  0.5787 -0.2188  1.7488
 4043TIP3   OH212092   2.108   2.170   0.020 -0.3882  0.1313 -0.3783
 4043TIP3    H112093   2.199   2.196   0.008 -0.1985 -0.0683  0.5494
 4043TIP3    H212094   2.077   2.225   0.093  0.2213 -2.5710  2.1202
 4044TIP3   OH212095   4.783   4.399   3.923  0.5191 -0.0756 -0.4871
 4044TIP3    H112096   4.737   4.339   3.864 -0.5181 -0.2019  0.4227
 4044TIP3    H212097   4.869   4.359   3.936  0.3171 -0.6719 -0.9470
 4045TIP3   OH212098   6.841   1.450   1.170 -0.1222 -0.1535 -0.2093
 4045TIP3    H112099   6.841   1.531   1.221  0.3225 -0.1785 -0.1615
 4045TIP3    H212100   6.762   1.454   1.117  0.1162  0.5074 -0.5172
 4046TIP3   OH212101   4.476   0.461   3.367  0.2529 -0.4389  0.5562
 4046TIP3    H112102   4.421   0.400   3.416  0.5688 -1.3679 -0.2127
 4046TIP3    H212103   4.440   0.459   3.278  0.9178 -0.2999  0.2766
 4047TIP3   OH212104   6.051   6.414   3.436  0.7940 -0.4460  0.1859
 4047TIP3    H112105   5.976   6.428   3.377  1.7548 -2.4745 -1.6716
 4047TIP3    H212106   6.112   6.483   3.413  0.7896 -0.6916 -0.6003
 4048TIP3   OH212107   0.476   5.769   3.861  0.0256  0.0935  0.3869
 4048TIP3    H112108   0.555   5.730   3.823 -0.3716  1.7832 -2.5015
 4048TIP3    H212109   0.423   5.694   3.888  2.4704 -1.1032  2.3673
 4049TIP3   OH212110   2.732   0.250   1.432 -0.1778  0.5211  0.5675
 4049TIP3    H112111   2.640   0.254   1.404  0.1398 -1.8149 -1.0703
 4049TIP3    H212112   2.774   0.193   1.369  1.7230 -1.0725  3.0697
 4050TIP3   OH212113   2.543   3.667   0.600  0.0370  0.1148 -0.2526
 4050TIP3    H112114   2.629   3.647   0.638 -0.5220 -0.7211  0.5981
 4050TIP3    H212115   2.562   3.734   0.534  1.5552 -1.0238 -1.0531
 4051TIP3   OH212116   3.853   1.818   1.082  0.1031 -0.0375  0.4780
 4051TIP3    H112117   3.868   1.869   1.003  1.0197 -1.1064 -0.0668
 4051TIP3    H212118   3.780   1.862   1.126 -1.8233 -0.5774 -1.9777
 4052TIP3   OH212119   0.933   6.643   4.294  0.2272 -0.2382  0.3628
 4052TIP3    H112120   0.936   6.632   4.199  0.6715 -4.9232  0.6428
 4052TIP3    H212121   0.847   6.610   4.320  0.0521  1.1028  1.6357
 4053TIP3   OH212122   0.786   0.054   0.500  0.0653  0.2900  0.2748
 4053TIP3    H112123   0.811   0.005   0.578  0.0632  1.0537  0.7649
 4053TIP3    H212124   0.788   0.146   0.527  0.8821  0.6285 -0.8464
 4054TIP3   OH212125   1.198   1.839   1.141 -0.0607  0.0724  0.1222
 4054TIP3    H112126   1.176   1.900   1.212 -2.9601  1.3253 -1.6596
 4054TIP3    H212127   1.242   1.893   1.076  0.2007 -0.4740 -0.1616
 4055TIP3   OH212128   2.879   1.580   1.990 -0.5548 -0.1118  0.3069
 4055TIP3    H112129   2.802   1.565   1.936 -0.3878  1.2543 -0.3499
 4055TIP3    H212130   2.864   1.666   2.031  0.5806  0.1641  0.1983
 4056TIP3   OH212131   7.089   3.800   3.888  0.2554 -0.0549  0.1360
 4056TIP3    H112132   7.060   3.823   3.800 -1.3159  2.3704  1.1812
 4056TIP3    H212133   7.031   3.730   3.915 -0.4212  0.3919 -0.1367
 4057TIP3   OH212134   4.880   1.816   3.906 -0.2709  0.0001 -0.1426
 4057TIP3    H112135   4.955   1.874   3.921  0.4932 -0.6073 -1.4021
 4057TIP3    H212136   4.894   1.743   3.967 -0.5076  0.4658  0.4836
 4058TIP3   OH212137   2.108   6.098   4.688  0.2257  0.3719  0.1861
 4058TIP3    H112138   2.149   6.149   4.758  1.8491  0.0811 -0.4987
 4058TIP3    H212139   2.154   6.126   4.609  0.5203 -1.4619 -0.3311
 4059TIP3   OH212140   5.370   2.006   3.847 -0.2394  0.4376 -0.6345
 4059TIP3    H112141   5.296   2.013   3.788 -0.5679 -0.2363 -0.3148
 4059TIP3    H212142   5.332   2.011   3.935 -0.0797 -1.1776 -0.4407
 4060TIP3   OH212143   4.574   3.473   0.791 -0.2114  0.2661  0.8276
 4060TIP3    H112144   4.594   3.515   0.707  0.8327  0.9598  1.3892
 4060TIP3    H212145   4.499   3.417   0.773 -0.0488  0.4527 -0.5501
 4061TIP3   OH212146   6.035   1.606   1.858  0.0880 -0.0422 -0.1258
 4061TIP3    H112147   6.077   1.686   1.825  0.1896  0.0956  0.3413
 4061TIP3    H212148   6.104   1.562   1.908 -0.0531 -0.2812 -0.1414
 4062TIP3   OH212149   5.213   3.217   1.440  0.4517 -0.0863  0.2142
 4062TIP3    H112150   5.151   3.223   1.368  1.1853  1.9192 -0.3140
 4062TIP3    H212151   5.158   3.206   1.518 -0.4428 -0.3815 -0.4386
 4063TIP3   OH212152   4.270   3.584   0.688  0.3207 -0.0243  0.3057
 4063TIP3    H112153   4.246   3.493   0.708 -1.4906  0.5170  0.8745
 4063TIP3    H212154   4.209   3.609   0.618  0.0535  1.0637  0.9129
 4064TIP3   OH212155   6.507   4.997   3.587  0.8854  0.4883  0.2426
 4064TIP3    H112156   6.600   5.001   3.611  0.8705  0.4080  0.3154
 4064TIP3    H212157   6.504   5.027   3.497  0.8692  1.3531  0.5255
 4065TIP3   OH212158   2.670   6.679   0.096  0.0607  0.1212  0.0088
 4065TIP3    H112159   2.653   6.625   0.019  0.6505  1.1820 -0.8876
 4065TIP3    H212160   2.709   6.618   0.159 -2.1457 -1.1793  0.2116
 4066TIP3   OH212161   5.501   1.769   2.707 -0.0519 -0.5998  0.0284
 4066TIP3    H112162   5.549   1.698   2.664  2.2754  1.9164 -1.9508
 4066TIP3    H212163   5.425   1.783   2.651  0.5586 -0.2803 -0.7441
 4067TIP3   OH212164   0.804   0.669   4.799  0.0080 -0.1831  0.0561
 4067TIP3    H112165   0.796   0.600   4.865  1.9048 -0.5416 -0.0292
 4067TIP3    H212166   0.771   0.748   4.843  0.3524 -0.6050  1.1182
 4068TIP3   OH212167   3.107   6.084   5.367  0.0650  0.7563 -0.0216
 4068TIP3    H112168   3.112   6.036   5.449 -1.5559  2.3628  1.0792
 4068TIP3    H212169   3.141   6.171   5.387 -0.5261  1.2344 -1.0054
 4069TIP3   OH212170   0.969   3.563   4.399 -0.4440  0.1998 -0.7073
 4069TIP3    H112171   1.043   3.512   4.367 -1.1668 -0.9412 -0.6069
 4069TIP3    H212172   0.999   3.597   4.484  0.4138  0.8253 -1.2431
 4070TIP3   OH212173   4.513   6.398   5.876  0.6432 -0.1784 -0.8392
 4070TIP3    H112174   4.442   6.425   5.817  0.4414 -0.9873 -0.9703
 4070TIP3    H212175   4.593   6.423   5.830  0.4872 -0.7550 -1.4401
 4071TIP3   OH212176   6.534   4.613   4.692 -0.1106 -0.3133  0.2442
 4071TIP3    H112177   6.440   4.597   4.690 -1.0395  3.9134 -0.5883
 4071TIP3    H212178   6.548   4.666   4.770  1.3212  0.1863 -0.3106
 4072TIP3   OH212179   0.419   3.072   1.826 -0.2613  0.2680  0.0071
 4072TIP3    H112180   0.386   3.106   1.743 -0.7618 -1.7869 -0.6856
 4072TIP3    H212181   0.506   3.110   1.834 -0.4372  0.9664 -1.1580
 4073TIP3   OH212182   2.981   2.456   5.565 -0.0822  0.3830  0.1510
 4073TIP3    H112183   2.995   2.474   5.472 -0.3177 -0.5877 -0.0765
 4073TIP3    H212184   2.939   2.370   5.567 -2.5305  1.4898  0.9936
 4074TIP3   OH212185   3.437   4.262   0.399  0.2677 -0.0442 -0.3234
 4074TIP3    H112186   3.361   4.250   0.455 -0.8741  0.5831 -1.6919
 4074TIP3    H212187   3.503   4.202   0.435 -0.9029 -0.7011  0.8010
 4075TIP3   OH212188   4.650   6.526   2.132 -0.5278  0.5871  0.1967
 4075TIP3    H112189   4.674   6.581   2.207 -0.5503  0.6376  0.1676
 4075TIP3    H212190   4.619   6.589   2.066  0.8978  0.6857 -0.4130
 4076TIP3   OH212191   3.715   3.455   1.110 -0.2501  0.0812 -0.3758
 4076TIP3    H112192   3.804   3.419   1.102 -0.4278 -0.2424 -0.9700
 4076TIP3    H212193   3.685   3.426   1.196  0.4500  0.7135  0.0884
 4077TIP3   OH212194   2.484   1.371   0.843  0.0105  0.1406 -0.2017
 4077TIP3    H112195   2.506   1.280   0.821 -0.7032  0.3381 -1.9169
 4077TIP3    H212196   2.511   1.381   0.934 -2.6521 -2.7144  1.0653
 4078TIP3   OH212197   3.134   2.319   3.489 -0.6809  0.7711  0.2431
 4078TIP3    H112198   3.089   2.248   3.536  0.0196  2.3502  3.5941
 4078TIP3    H212199   3.064   2.381   3.468 -0.7044  1.2388  1.6025
 4079TIP3   OH212200   4.285   4.327   0.628 -0.1994  0.4183 -0.3196
 4079TIP3    H112201   4.226   4.380   0.575 -0.0611 -0.9056 -1.8658
 4079TIP3    H212202   4.372   4.358   0.606 -0.0789 -0.7951 -1.7026
 4080TIP3   OH212203   2.692   3.440   4.954  0.3364 -0.0164  0.5395
 4080TIP3    H112204   2.769   3.413   5.002 -1.5279 -3.2584  2.0383
 4080TIP3    H212205   2.706   3.408   4.865  0.7884 -0.3939  0.7460
 4081TIP3   OH212206   2.401   0.290   2.093  0.1600 -0.3104  0.2478
 4081TIP3    H112207   2.493   0.317   2.100  0.3230 -1.2617  2.2979
 4081TIP3    H212208   2.386   0.283   1.998  2.3875 -0.7439 -0.1304
 4082TIP3   OH212209   1.301   5.546   5.176  0.0873  0.2181  0.2793
 4082TIP3    H112210   1.344   5.586   5.252  0.9928 -0.9172  0.3963
 4082TIP3    H212211   1.239   5.613   5.146  1.0637  1.4380  0.8551
 4083TIP3   OH212212   6.321   6.046   2.788 -0.7580 -0.2282  0.2176
 4083TIP3    H112213   6.379   6.011   2.855  2.0543 -0.7739 -2.2782
 4083TIP3    H212214   6.350   6.003   2.707 -2.7777  1.6763 -1.6364
 4084TIP3   OH212215   6.276   3.882   2.237  0.2718  0.3292 -0.4368
 4084TIP3    H112216   6.207   3.910   2.297 -0.3133  0.3131 -1.0903
 4084TIP3    H212217   6.234   3.815   2.183  0.2289  1.6611 -2.1099
 4085TIP3   OH212218   3.885   2.034   1.481 -0.4815  0.6510 -0.9045
 4085TIP3    H112219   3.792   2.055   1.490 -1.1893 -2.1374 -0.5839
 4085TIP3    H212220   3.889   1.939   1.495  2.5370  0.7947 -0.1830
 4086TIP3   OH212221   6.097   2.677   0.350  0.3447  0.0619 -0.0491
 4086TIP3    H112222   6.141   2.724   0.421  2.4137 -0.1184 -1.1530
 4086TIP3    H212223   6.079   2.745   0.284 -1.0286  0.1207  0.3493
 4087TIP3   OH212224   3.861   5.245   2.364 -0.4240  0.3861 -0.0328
 4087TIP3    H112225   3.793   5.220   2.301 -0.3692  1.0242 -0.3524
 4087TIP3    H212226   3.890   5.162   2.401 -1.4565  0.1074  0.1975
 4088TIP3   OH212227   0.001   6.563   1.978  0.1580  0.1730 -0.2175
 4088TIP3    H112228  -0.031   6.564   2.068 -0.7398  0.6204 -0.5289
 4088TIP3    H212229   0.089   6.598   1.983 -0.4703  1.7553  0.2916
 4089TIP3   OH212230   0.498   2.278   2.091  0.0877  0.4125  0.0743
 4089TIP3    H112231   0.579   2.306   2.133  1.1508 -0.9496 -0.9977
 4089TIP3    H212232   0.483   2.189   2.124 -0.1967  0.1159 -0.8178
 4090TIP3   OH212233   7.037   6.506   2.683  0.0270 -0.2038 -0.0422
 4090TIP3    H112234   7.006   6.570   2.619  2.3738  1.7570  0.5908
 4090TIP3    H212235   7.093   6.447   2.633  0.8734  0.5790 -0.0482
 4091TIP3   OH212236   3.908   2.343   4.750  0.2467 -0.0974  0.4744
 4091TIP3    H112237   3.964   2.311   4.821 -0.9181 -0.9889  1.0415
 4091TIP3    H212238   3.900   2.437   4.766 -0.2751 -0.3430  1.7504
 4092TIP3   OH212239   3.530  -0.010   2.764  0.2034  0.6048  0.3433
 4092TIP3    H112240   3.558   0.015   2.852  0.6459  1.6154 -0.0643
 4092TIP3    H212241   3.553   0.065   2.710 -3.3584  1.5975 -0.0397
 4093TIP3   OH212242   4.640   5.378   0.315  0.3659  0.2475  0.0512
 4093TIP3    H112243   4.733   5.370   0.333  0.5450  0.4916 -0.6990
 4093TIP3    H212244   4.633   5.456   0.259 -0.2087 -0.1240 -0.4123
 4094TIP3   OH212245   0.544   6.594   3.990 -0.2322 -0.8878  0.0981
 4094TIP3    H112246   0.559   6.537   4.066 -0.6633 -0.4223  0.5478
 4094TIP3    H212247   0.548   6.535   3.915 -0.8071 -1.5439  0.5617
 4095TIP3   OH212248   4.202   5.888   2.042 -0.1608  0.0017 -0.1126
 4095TIP3    H112249   4.236   5.799   2.051 -0.7155 -0.2502 -0.4598
 4095TIP3    H212250   4.127   5.879   1.983  1.4226  1.0783 -2.4338
 4096TIP3   OH212251   1.016   5.753   1.567 -0.3514 -0.0549 -0.5087
 4096TIP3    H112252   0.931   5.796   1.561 -1.0633 -1.5807 -2.3177
 4096TIP3    H212253   1.066   5.808   1.628 -2.4595  1.1076  0.2797
 4097TIP3   OH212254   5.493   1.713   4.694  0.4257  0.1176  0.1395
 4097TIP3    H112255   5.587   1.722   4.707  0.3830 -1.0957  1.6065
 4097TIP3    H212256   5.456   1.791   4.736  0.7229  0.0095  0.6095
 4098TIP3   OH212257   5.475   4.377   5.622 -0.2785  0.3651 -0.1964
 4098TIP3    H112258   5.471   4.381   5.526 -0.8638 -0.9092 -0.2403
 4098TIP3    H212259   5.493   4.467   5.649 -0.1966  0.7548 -1.4996
 4099TIP3   OH212260   4.446   1.762   1.553 -0.1223  0.4684  0.2732
 4099TIP3    H112261   4.508   1.707   1.601 -0.2968 -0.0536 -0.0907
 4099TIP3    H212262   4.499   1.806   1.487 -0.0132  0.5992  0.4472
 4100TIP3   OH212263   0.463   5.449   1.521 -0.0276  0.2237  0.1322
 4100TIP3    H112264   0.477   5.462   1.427 -0.5768 -0.0375  0.0140
 4100TIP3    H212265   0.370   5.464   1.534  0.0113  0.0731  0.6102
 4101TIP3   OH212266   0.773   5.755   0.988 -0.0351 -0.4819 -0.4569
 4101TIP3    H112267   0.733   5.713   0.911  0.2434 -1.0081 -0.3188
 4101TIP3    H212268   0.814   5.835   0.953  0.5851 -1.0076 -0.9625
 4102TIP3   OH212269   1.246   2.635   1.266  0.6455  0.0103  0.3008
 4102TIP3    H112270   1.270   2.728   1.263 -0.0173  0.1921  0.5572
 4102TIP3    H212271   1.156   2.632   1.235  1.3989 -0.8365 -2.0145
 4103TIP3   OH212272   3.652   6.619   0.688 -0.4328  0.3150  0.1158
 4103TIP3    H112273   3.572   6.574   0.712 -0.3727 -0.3141 -0.8147
 4103TIP3    H212274   3.713   6.549   0.662  0.6857  0.7135  1.5296
 4104TIP3   OH212275   5.022   1.401   2.586  0.0058  0.3624 -0.5428
 4104TIP3    H112276   5.112   1.402   2.617  0.0933 -1.0771 -0.6921
 4104TIP3    H212277   4.975   1.348   2.650 -0.5906  0.5306 -0.8360
 4105TIP3   OH212278   5.343   3.721   1.636  0.4777  0.8953 -0.3323
 4105TIP3    H112279   5.346   3.633   1.675 -1.3873  0.5130 -0.9530
 4105TIP3    H212280   5.362   3.780   1.709  0.9866  0.0299  0.2582
 4106TIP3   OH212281   0.689   3.855   4.001 -0.2640  0.1949 -0.5181
 4106TIP3    H112282   0.771   3.877   3.956 -0.0289  3.0176  1.0461
 4106TIP3    H212283   0.709   3.867   4.094 -1.9971 -0.8893  0.0467
 4107TIP3   OH212284   6.180   6.679   3.065  1.3057 -0.1149  0.2853
 4107TIP3    H112285   6.221   6.610   3.117  1.7465 -0.3589 -0.3723
 4107TIP3    H212286   6.250   6.710   3.007  1.3454  1.4556  1.1223
 4108TIP3   OH212287   1.663   1.021   1.420  0.5964  0.3310 -0.0283
 4108TIP3    H112288   1.648   0.966   1.344  1.4456 -1.3545  0.9410
 4108TIP3    H212289   1.711   1.097   1.386  1.2890 -0.5641 -1.1233
 4109TIP3   OH212290   5.551   3.812   5.015  0.4577 -0.0663 -0.4418
 4109TIP3    H112291   5.598   3.735   5.048 -1.7328 -0.3899  2.3015
 4109TIP3    H212292   5.523   3.788   4.927  1.2950 -1.7262 -0.2860
 4110TIP3   OH212293   2.656   2.439   5.110 -0.2212  0.2528  0.1484
 4110TIP3    H112294   2.729   2.495   5.138  0.2606 -0.4105  0.2192
 4110TIP3    H212295   2.604   2.427   5.190 -0.2267  0.4476  0.1748
 4111TIP3   OH212296   6.058   2.778   5.323  0.1497  0.3683 -0.1583
 4111TIP3    H112297   6.011   2.748   5.400  0.4742  0.1935 -0.0257
 4111TIP3    H212298   6.142   2.811   5.356  0.3930  0.0625 -0.4587
 4112TIP3   OH212299   3.351   4.441   0.766 -0.1034  0.2057 -0.5171
 4112TIP3    H112300   3.288   4.417   0.833  1.3814 -1.5164  0.3680
 4112TIP3    H212301   3.324   4.391   0.689 -0.4260  0.3074 -0.4719
 4113TIP3   OH212302   4.429   3.778   4.009 -0.2356 -0.1280  0.6097
 4113TIP3    H112303   4.373   3.804   4.082 -1.3461  0.7338 -0.5092
 4113TIP3    H212304   4.370   3.737   3.946  0.3063  1.0107 -0.6979
 4114TIP3   OH212305   4.608   1.535   4.746  0.0458 -0.2153 -0.6022
 4114TIP3    H112306   4.699   1.519   4.723 -0.1843  0.1141 -1.7885
 4114TIP3    H212307   4.566   1.449   4.735  0.2396 -0.4183  0.1583
 4115TIP3   OH212308   0.827   1.621   3.294 -0.5024  0.1001  0.2613
 4115TIP3    H112309   0.871   1.570   3.362  1.1771  0.2593 -0.6630
 4115TIP3    H212310   0.809   1.557   3.225 -2.2098 -0.0643  0.7941
 4116TIP3   OH212311   2.733   4.044   0.620 -0.1274 -0.1230  0.1376
 4116TIP3    H112312   2.677   4.117   0.644  1.4588  0.4325  2.5416
 4116TIP3    H212313   2.707   3.973   0.679 -0.3887 -0.8973 -0.8874
 4117TIP3   OH212314   0.839   5.708   3.394 -0.2661  0.1771  0.0829
 4117TIP3    H112315   0.759   5.726   3.344 -0.0281  0.5725 -0.1568
 4117TIP3    H212316   0.810   5.708   3.486 -0.4578  0.8067  0.0293
 4118TIP3   OH212317   2.381   1.411   3.859 -0.9236  0.2333  0.5861
 4118TIP3    H112318   2.307   1.464   3.830 -0.3831  0.8732  0.3307
 4118TIP3    H212319   2.343   1.327   3.884 -1.9343  1.0169  1.8190
 4119TIP3   OH212320   0.530   3.041   3.875  0.0161  0.6514  0.6561
 4119TIP3    H112321   0.583   3.074   3.802  0.1850 -2.1289 -0.5771
 4119TIP3    H212322   0.594   3.004   3.936 -0.3506 -0.7292  0.2195
 4120TIP3   OH212323   3.987   4.758   2.010 -0.0412  0.3102 -0.0842
 4120TIP3    H112324   4.001   4.831   1.949 -0.3720  0.4010 -0.0543
 4120TIP3    H212325   3.892   4.753   2.019  0.0363  0.9325  1.2009
 4121TIP3   OH212326   1.089   5.850   0.074 -0.5946  0.4795 -0.5037
 4121TIP3    H112327   1.149   5.925   0.071 -0.2130  0.1337 -2.0459
 4121TIP3    H212328   1.016   5.875   0.018  0.0074 -0.6567 -1.8641
 4122TIP3   OH212329   3.540   3.357   1.604  0.8423  0.1939  0.2113
 4122TIP3    H112330   3.488   3.342   1.683 -0.7236  1.3628 -0.5326
 4122TIP3    H212331   3.475   3.365   1.534  2.0662  1.1924 -0.8630
 4123TIP3   OH212332   4.092   1.315   2.853 -0.1626  0.3906  0.2809
 4123TIP3    H112333   4.050   1.372   2.918  0.0761 -0.3744  1.1303
 4123TIP3    H212334   4.174   1.360   2.831  1.0593 -0.5376  2.5152
 4124TIP3   OH212335   6.107   3.524   1.294  0.6377  0.8269 -0.0789
 4124TIP3    H112336   6.198   3.507   1.320  0.2515  1.5258  1.9634
 4124TIP3    H212337   6.081   3.448   1.243  2.2292  0.4155 -0.3252
 4125TIP3   OH212338   7.144   5.576   2.256  0.3940 -0.0257 -0.0170
 4125TIP3    H112339   7.232   5.589   2.220  0.9326  3.8014  2.1859
 4125TIP3    H212340   7.158   5.534   2.341  0.0502  0.1318  0.1215
 4126TIP3   OH212341   5.919   5.353   1.777  0.7031 -0.5786 -1.0138
 4126TIP3    H112342   5.994   5.405   1.747  1.2411 -0.4453  0.4791
 4126TIP3    H212343   5.939   5.333   1.868 -1.9180  0.9567 -0.0072
 4127TIP3   OH212344   5.004   0.490   3.131  0.5464  0.1167  0.0201
 4127TIP3    H112345   4.937   0.507   3.197  0.3213  1.9387 -0.6193
 4127TIP3    H212346   4.970   0.529   3.051  0.6586 -2.3304 -1.3346
 4128TIP3   OH212347   3.327   6.676   4.730 -0.0736 -0.4160  0.0314
 4128TIP3    H112348   3.250   6.621   4.717 -0.1053 -0.5969  0.9186
 4128TIP3    H212349   3.380   6.629   4.794  0.7469 -0.2530 -0.4968
 4129TIP3   OH212350   7.122   5.514   3.495 -0.2526  0.4350  0.4261
 4129TIP3    H112351   7.198   5.543   3.444 -0.1424  0.4882  0.6211
 4129TIP3    H212352   7.048   5.560   3.455 -0.3153 -0.3226 -0.3599
 4130TIP3   OH212353   2.248   2.604   1.350 -0.2698  0.7799 -0.3597
 4130TIP3    H112354   2.225   2.656   1.428 -1.2290 -0.7549  0.4356
 4130TIP3    H212355   2.184   2.631   1.284 -0.4488  0.9734 -0.1114
 4131TIP3   OH212356   3.998   2.784   2.995 -0.4292 -0.5261  0.1654
 4131TIP3    H112357   3.910   2.811   2.970 -0.6347 -1.9864 -0.7650
 4131TIP3    H212358   4.055   2.824   2.930 -0.5069 -0.4970  0.1150
 4132TIP3   OH212359   3.784   5.591   0.323  0.6980 -0.1474  0.4164
 4132TIP3    H112360   3.873   5.611   0.354  0.3121  1.0171  0.8429
 4132TIP3    H212361   3.788   5.500   0.295  2.3574  0.2369 -0.7385
 4133TIP3   OH212362   0.071   0.605   0.443  0.1135  0.2731  0.2870
 4133TIP3    H112363   0.048   0.645   0.527  0.0856  2.0756 -0.5365
 4133TIP3    H212364  -0.007   0.617   0.389  0.8102  0.9382 -0.6091
 4134TIP3   OH212365   6.648   3.395   4.756 -0.2043 -0.4847 -0.0146
 4134TIP3    H112366   6.565   3.443   4.760 -0.5514 -1.1605  1.7329
 4134TIP3    H212367   6.626   3.308   4.788  1.4215 -0.3111  1.7059
 4135TIP3   OH212368   2.850   5.417   5.020 -0.1262 -0.3015  0.0761
 4135TIP3    H112369   2.918   5.350   5.016 -1.7042 -1.9335 -0.7470
 4135TIP3    H212370   2.786   5.383   5.082 -0.9450  0.4516 -0.3279
 4136TIP3   OH212371   2.608   3.354   2.118 -0.4987  0.0300 -0.0322
 4136TIP3    H112372   2.622   3.449   2.120 -0.2029 -0.0091 -0.1528
 4136TIP3    H212373   2.553   3.339   2.041  1.5706 -0.1517 -1.5474
 4137TIP3   OH212374   1.152   3.590   2.232 -0.8693 -0.7476  0.0392
 4137TIP3    H112375   1.102   3.634   2.302 -1.5242 -0.5877 -0.5169
 4137TIP3    H212376   1.096   3.517   2.205  0.2005 -1.9304  0.9297
 4138TIP3   OH212377   3.790   1.134   0.336  0.6507  0.2404  0.2410
 4138TIP3    H112378   3.783   1.124   0.431  1.9079  1.2869  0.4677
 4138TIP3    H212379   3.700   1.149   0.307  0.3225  0.4846  1.3424
 4139TIP3   OH212380   0.165   0.719   4.251  0.0120  0.0423 -0.2521
 4139TIP3    H112381   0.131   0.771   4.178 -0.3388 -0.3723 -0.3853
 4139TIP3    H212382   0.180   0.632   4.213  0.6591  0.0569 -0.0491
 4140TIP3   OH212383   5.829   1.368   3.147 -0.2873 -0.4040  0.2960
 4140TIP3    H112384   5.756   1.393   3.090  0.1900  1.9424  0.5869
 4140TIP3    H212385   5.801   1.398   3.234  1.6421  2.2411  0.1362
 4141TIP3   OH212386   1.763   4.749   0.771  0.1426  0.2875  0.4783
 4141TIP3    H112387   1.694   4.758   0.837  0.3359  3.5641  0.3906
 4141TIP3    H212388   1.844   4.748   0.821  0.1734 -1.9355  0.4783
 4142TIP3   OH212389   2.969   1.263   5.748  0.6329  0.2643 -0.5037
 4142TIP3    H112390   2.897   1.294   5.803 -0.3166 -1.5811 -0.6260
 4142TIP3    H212391   3.024   1.212   5.808  0.3650 -0.5715 -0.9673
 4143TIP3   OH212392   4.266   5.034   2.407  0.4379  0.4423 -0.0713
 4143TIP3    H112393   4.291   5.125   2.388 -0.6725  0.7148 -0.2926
 4143TIP3    H212394   4.174   5.039   2.431  0.2537 -0.6838 -0.4916
 4144TIP3   OH212395   7.068   2.467   1.165 -0.1449  0.2602 -0.0615
 4144TIP3    H112396   7.099   2.533   1.226  1.2628 -0.3527 -0.0691
 4144TIP3    H212397   7.023   2.517   1.097  0.9470  1.2347 -0.1063
 4145TIP3   OH212398   1.997   2.853   5.540  0.0705 -0.2275  0.5056
 4145TIP3    H112399   2.021   2.787   5.605  0.6057  0.8339  1.4128
 4145TIP3    H212400   2.037   2.934   5.572 -0.3931  0.4976 -0.6947
 4146TIP3   OH212401   6.346   4.379   5.761 -0.8870 -0.0617 -0.7322
 4146TIP3    H112402   6.386   4.308   5.810  1.7946  2.1935  0.6250
 4146TIP3    H212403   6.266   4.401   5.809 -0.0404 -0.0771  0.7116
 4147TIP3   OH212404   5.319   5.043   2.104 -0.1934 -0.4183  0.2808
 4147TIP3    H112405   5.413   5.061   2.095 -0.1663 -0.2637  0.8286
 4147TIP3    H212406   5.314   4.951   2.130 -0.2478 -0.7189 -0.7469
 4148TIP3   OH212407   5.096   3.178   0.259 -0.3273  0.2184  0.3771
 4148TIP3    H112408   5.145   3.097   0.275 -1.8274 -0.5864  1.1310
 4148TIP3    H212409   5.115   3.200   0.168  0.8486 -0.4666  0.4463
 4149TIP3   OH212410   4.538   0.220   0.044 -0.2762 -0.6996  0.2803
 4149TIP3    H112411   4.518   0.127   0.049 -0.6890 -0.5712  1.1509
 4149TIP3    H212412   4.509   0.256   0.128 -0.3245  0.2531 -0.1275
 4150TIP3   OH212413   0.473   6.435   0.793  0.5359 -0.0856  0.2173
 4150TIP3    H112414   0.552   6.386   0.771  1.1047  0.9198 -0.0151
 4150TIP3    H212415   0.418   6.371   0.839  2.1522 -0.3901  1.8494
 4151TIP3   OH212416   1.606   6.052   1.011 -0.1175  0.4862 -0.2112
 4151TIP3    H112417   1.620   5.982   1.074  1.4403  0.7922 -0.1706
 4151TIP3    H212418   1.539   6.018   0.951 -0.3918 -0.4666  0.6169
 4152TIP3   OH212419   3.292   4.580   1.239  0.1401  0.2260  0.5119
 4152TIP3    H112420   3.198   4.573   1.226  0.2440 -0.2080 -0.0827
 4152TIP3    H212421   3.324   4.490   1.232  0.6458  0.4168  0.2680
 4153TIP3   OH212422   6.951   6.014   3.062  0.1940 -0.0041  0.3180
 4153TIP3    H112423   6.910   5.953   3.124  0.9185 -0.3849  0.4360
 4153TIP3    H212424   7.044   6.010   3.083  0.3990  0.1723 -0.5290
 4154TIP3   OH212425   3.791   5.897   0.672 -0.2132  0.7599 -0.6280
 4154TIP3    H112426   3.718   5.898   0.610  0.6075  1.4173 -1.6309
 4154TIP3    H212427   3.869   5.890   0.617  0.4979  0.3910  0.3978
 4155TIP3   OH212428   4.113   4.366   1.309 -0.2175 -0.0501 -0.3162
 4155TIP3    H112429   4.168   4.370   1.230 -0.1294 -1.4076 -0.3536
 4155TIP3    H212430   4.079   4.276   1.309 -1.7031  0.4886  0.2155
 4156TIP3   OH212431   6.109   0.213   4.456 -0.1902  0.1219 -0.3969
 4156TIP3    H112432   6.183   0.262   4.492  1.3487 -0.5950 -2.3969
 4156TIP3    H212433   6.104   0.134   4.510  1.1912 -0.2966 -0.8465
 4157TIP3   OH212434   5.104   4.830   0.771 -0.3126 -0.0562  0.6445
 4157TIP3    H112435   5.125   4.893   0.841  1.0534  0.4618 -0.1840
 4157TIP3    H212436   5.136   4.746   0.804 -0.9516 -0.0827  1.2146
 4158TIP3   OH212437   4.998   1.422   3.254 -0.0653  0.0965 -0.5474
 4158TIP3    H112438   4.918   1.394   3.300 -1.4059 -0.1621 -2.8733
 4158TIP3    H212439   5.007   1.359   3.183  1.3894  1.0065 -1.2019
 4159TIP3   OH212440   6.141   6.015   5.110  0.4531  0.4143  0.1506
 4159TIP3    H112441   6.202   6.043   5.041  0.1586 -1.6705 -1.0333
 4159TIP3    H212442   6.055   6.039   5.076  0.0148 -3.2338 -1.7492
 4160TIP3   OH212443   2.551   4.619   4.327  0.4369 -0.7224 -0.5467
 4160TIP3    H112444   2.619   4.637   4.393 -0.4360  0.3682  0.0961
 4160TIP3    H212445   2.568   4.683   4.258 -0.5168  0.2233  0.0766
 4161TIP3   OH212446   5.035   0.276   4.310  0.0804 -0.0485  0.5886
 4161TIP3    H112447   5.074   0.318   4.387 -1.4098 -0.5516  1.6655
 4161TIP3    H212448   4.999   0.194   4.343 -0.3312 -0.4280 -0.7285
 4162TIP3   OH212449   4.161   6.484   5.470  0.1539  0.0399  0.2658
 4162TIP3    H112450   4.193   6.549   5.407 -2.6211 -1.3016 -2.8305
 4162TIP3    H212451   4.234   6.423   5.480  1.0732  0.9156 -0.7775
 4163TIP3   OH212452   1.616   3.777   0.864 -0.5716 -0.2728 -0.0332
 4163TIP3    H112453   1.551   3.840   0.895 -0.9378 -0.5178 -0.2846
 4163TIP3    H212454   1.653   3.817   0.785 -0.0652  0.0846  0.3809
 4164TIP3   OH212455   6.814   5.285   3.286 -0.2182 -0.5851 -0.3879
 4164TIP3    H112456   6.725   5.282   3.251 -0.0891 -0.3833 -0.7445
 4164TIP3    H212457   6.832   5.379   3.296  0.4622 -0.5601 -1.6518
 4165TIP3   OH212458   0.441   1.137   3.606 -0.3935  0.2090  0.3115
 4165TIP3    H112459   0.470   1.216   3.559 -2.9178  0.9253 -0.1831
 4165TIP3    H212460   0.369   1.167   3.661 -0.3336 -1.4755  1.3719
 4166TIP3   OH212461   5.281   3.625   0.956  0.4972 -0.2913  0.0097
 4166TIP3    H112462   5.288   3.559   0.887  0.3641  0.6817 -0.9570
 4166TIP3    H212463   5.354   3.606   1.015  0.0923 -1.6813  0.1034
 4167TIP3   OH212464   2.978   6.613   1.771 -0.6189 -0.6826 -0.3694
 4167TIP3    H112465   3.041   6.634   1.840 -0.1606 -1.2891 -0.5886
 4167TIP3    H212466   2.908   6.566   1.816 -2.3693  2.3922  0.3862
 4168TIP3   OH212467   6.161   0.324   5.064 -0.1235  0.0274 -0.1806
 4168TIP3    H112468   6.106   0.388   5.019  0.5845 -0.1644 -1.3604
 4168TIP3    H212469   6.101   0.279   5.123 -0.6878  1.6031  0.5195
 4169TIP3   OH212470   6.175   2.757   3.523  0.3168  0.3247 -0.3327
 4169TIP3    H112471   6.263   2.788   3.503  1.8294 -0.0347  4.6485
 4169TIP3    H212472   6.121   2.836   3.518  1.9104  1.5813  1.0636
 4170TIP3   OH212473   0.137   6.709   2.817  0.2268  0.0035 -0.0483
 4170TIP3    H112474   0.178   6.624   2.829  0.5684  0.1754  0.0303
 4170TIP3    H212475   0.162   6.737   2.729 -0.1289 -0.1058 -0.1865
 4171TIP3   OH212476   6.128   5.368   0.413 -0.0017  0.1470 -0.5933
 4171TIP3    H112477   6.045   5.415   0.408 -0.9761 -1.4949 -0.4842
 4171TIP3    H212478   6.194   5.436   0.408 -1.3504  1.4991 -0.6967
 4172TIP3   OH212479   6.439   2.172   4.687  0.3112 -0.3132  0.2585
 4172TIP3    H112480   6.506   2.240   4.689  0.1664 -0.1558 -0.1175
 4172TIP3    H212481   6.469   2.107   4.750  0.2389  0.2928  0.9295
 4173TIP3   OH212482   1.786   2.753   4.813 -0.4066  0.5694 -0.7542
 4173TIP3    H112483   1.856   2.694   4.784 -0.1051  0.1749  0.6641
 4173TIP3    H212484   1.728   2.762   4.737 -0.4192 -1.5122 -1.0540
 4174TIP3   OH212485   6.925   0.492   0.415 -0.5960 -0.0857  0.1532
 4174TIP3    H112486   6.991   0.472   0.348 -0.0925  1.4211  0.1684
 4174TIP3    H212487   6.875   0.565   0.378 -0.6639  0.3975  1.1860
 4175TIP3   OH212488   3.802   2.511   1.884  0.1035  0.1285  0.7092
 4175TIP3    H112489   3.731   2.494   1.946  0.2684 -0.9179  0.6230
 4175TIP3    H212490   3.879   2.526   1.939 -0.1091  0.9609  0.7939
 4176TIP3   OH212491   5.784   2.752   2.478 -0.2407  0.4700 -0.5601
 4176TIP3    H112492   5.750   2.835   2.445  0.8459  1.9584  1.7707
 4176TIP3    H212493   5.716   2.720   2.537  1.1617  2.2722  2.2853
 4177TIP3   OH212494   5.856   5.088   3.587  0.0860 -0.0189  0.2582
 4177TIP3    H112495   5.894   5.004   3.614  0.7164  0.4014  0.6906
 4177TIP3    H212496   5.847   5.081   3.492  1.5596 -0.0022  0.1028
 4178TIP3   OH212497   3.196   5.209   4.742 -0.0560  0.6448 -0.5930
 4178TIP3    H112498   3.216   5.220   4.649  2.4190 -0.7859 -0.3176
 4178TIP3    H212499   3.272   5.243   4.788 -1.1471  1.1489  0.9547
 4179TIP3   OH212500   0.614   4.706   3.444 -0.5137 -0.0320 -0.4464
 4179TIP3    H112501   0.551   4.635   3.427 -0.9117  0.6016 -1.7229
 4179TIP3    H212502   0.561   4.776   3.483  0.4160 -1.5637  4.1627
 4180TIP3   OH212503   1.310   4.288   1.860  0.2334 -0.2514 -0.4533
 4180TIP3    H112504   1.364   4.272   1.782  0.2267  1.1960 -0.7936
 4180TIP3    H212505   1.249   4.215   1.862  0.7561 -0.7364 -1.3526
 4181TIP3   OH212506   3.225   3.983   0.031  0.0721 -0.2445 -0.2999
 4181TIP3    H112507   3.264   4.060   0.073 -0.5847 -0.4041  0.6434
 4181TIP3    H212508   3.211   3.921   0.103 -1.5480 -0.3326 -0.6615
 4182TIP3   OH212509   1.318   6.245   5.284 -0.3592  0.1620  0.3285
 4182TIP3    H112510   1.363   6.205   5.358 -0.6668  0.7403  0.8288
 4182TIP3    H212511   1.384   6.246   5.214  0.0529 -0.0233  0.7104
 4183TIP3   OH212512   0.925   0.266   1.083  0.5943  0.0629  0.0336
 4183TIP3    H112513   0.846   0.319   1.090  0.1509 -0.6063  0.1515
 4183TIP3    H212514   0.982   0.298   1.153  1.0874  1.6237 -1.0363
 4184TIP3   OH212515   0.171   0.798   3.550  0.3934 -0.2234  0.5015
 4184TIP3    H112516   0.258   0.837   3.546  0.4062 -0.3522 -0.7288
 4184TIP3    H212517   0.150   0.775   3.460 -1.1203  0.2315  0.6994
 4185TIP3   OH212518   1.687   3.486   0.405 -0.4099  0.4143  0.2514
 4185TIP3    H112519   1.673   3.487   0.499 -0.2909 -0.6336  0.2922
 4185TIP3    H212520   1.734   3.567   0.386  0.1190  0.3317  1.1826
 4186TIP3   OH212521   0.576   0.194   1.005  0.4018  0.4988 -0.9363
 4186TIP3    H112522   0.631   0.267   0.978  0.7552 -0.2407 -2.3139
 4186TIP3    H212523   0.494   0.235   1.033  0.4403  1.4069 -2.0652
 4187TIP3   OH212524   5.583   1.711   1.766 -0.0078 -0.7372  0.4045
 4187TIP3    H112525   5.639   1.680   1.838  0.7346 -0.4528 -0.0407
 4187TIP3    H212526   5.540   1.788   1.800  1.4725  0.2804  0.0829
 4188TIP3   OH212527   0.878   6.483   2.853  0.1933 -0.0867 -0.2169
 4188TIP3    H112528   0.859   6.544   2.925 -0.0891 -0.7410  0.2770
 4188TIP3    H212529   0.831   6.403   2.877  1.2415 -0.7818 -0.4369
 4189TIP3   OH212530   1.275   6.330   5.797 -0.5732  0.6447  0.1149
 4189TIP3    H112531   1.356   6.374   5.773  0.0439 -0.2181  0.5487
 4189TIP3    H212532   1.212   6.401   5.809  0.2645  1.3735  0.3548
 4190TIP3   OH212533   7.105   0.178   0.625 -0.0526 -0.1835  0.1020
 4190TIP3    H112534   7.190   0.166   0.668  0.2361  0.8014 -0.1615
 4190TIP3    H212535   7.077   0.266   0.652 -1.2739 -0.7267  0.6570
 4191TIP3   OH212536   4.358   0.060   4.383  0.0528  0.5785  0.5832
 4191TIP3    H112537   4.263   0.049   4.384  0.0561  0.3253 -0.6544
 4191TIP3    H212538   4.381   0.074   4.475 -1.0166 -0.6918  1.0780
 4192TIP3   OH212539   5.475   0.736   3.172 -0.5483 -0.5743  0.1190
 4192TIP3    H112540   5.446   0.824   3.196  1.5587  0.4276 -0.6885
 4192TIP3    H212541   5.463   0.684   3.251 -1.9514  0.3968  0.5791
 4193TIP3   OH212542   0.115   3.246   4.447 -0.1267 -0.2136  0.0291
 4193TIP3    H112543   0.026   3.219   4.425 -0.0033 -0.8014  0.2430
 4193TIP3    H212544   0.136   3.196   4.526  0.7895 -0.9027 -0.6340
 4194TIP3   OH212545   1.066   0.856   3.268 -0.3968 -0.2290  0.4191
 4194TIP3    H112546   1.118   0.888   3.342  0.3504 -2.2343  0.8217
 4194TIP3    H212547   1.022   0.778   3.302 -0.2972 -1.0013 -1.1646
 4195TIP3   OH212548   0.180   6.693   3.238 -0.2226  0.3112 -0.5412
 4195TIP3    H112549   0.176   6.754   3.164 -0.7116  1.0289  0.0591
 4195TIP3    H212550   0.099   6.710   3.287  0.7495  0.8659  0.9424
 4196TIP3   OH212551   4.151   0.994   2.228  0.1894 -0.1538 -0.4562
 4196TIP3    H112552   4.098   1.071   2.206 -0.4179 -0.6402 -0.7169
 4196TIP3    H212553   4.117   0.925   2.171  0.2475 -0.7989  0.2853
 4197TIP3   OH212554   1.573   4.564   4.630  0.8168  0.1788  0.5279
 4197TIP3    H112555   1.592   4.502   4.701 -0.6859  0.4666  1.2133
 4197TIP3    H212556   1.549   4.509   4.555  1.8688 -0.1117  0.3915
 4198TIP3   OH212557   1.566   0.552   2.795 -0.2601 -0.3630 -1.0640
 4198TIP3    H112558   1.660   0.540   2.805 -0.3009 -0.4788 -0.7773
 4198TIP3    H212559   1.549   0.537   2.702 -0.1813 -1.7341 -0.8853
 4199TIP3   OH212560   6.689   6.189   2.355  0.5607  0.5445 -0.6022
 4199TIP3    H112561   6.629   6.257   2.383  0.7255  0.4800 -0.0919
 4199TIP3    H212562   6.637   6.109   2.355  0.4615  0.6091 -0.8524
 4200TIP3   OH212563   7.004   4.010   0.037  0.1221 -0.0878 -0.0529
 4200TIP3    H112564   7.012   4.104   0.019 -0.8391 -0.5324 -3.5607
 4200TIP3    H212565   6.913   3.999   0.066  0.3167  0.0916  0.6308
 4201TIP3   OH212566   7.188   1.308   1.569 -0.2690 -0.0324 -0.4236
 4201TIP3    H112567   7.103   1.349   1.586 -0.1670 -0.1631  0.4273
 4201TIP3    H212568   7.176   1.264   1.485 -1.9345 -2.3475  0.9063
 4202TIP3   OH212569   5.524   1.427   4.787  0.0260 -0.7436  0.3630
 4202TIP3    H112570   5.446   1.384   4.821  0.4232 -1.2256  0.6781
 4202TIP3    H212571   5.491   1.506   4.744 -0.4274  0.3985  2.6535
 4203TIP3   OH212572   6.024   4.714   5.254  0.1876 -0.4201 -0.0428
 4203TIP3    H112573   5.932   4.735   5.237 -0.3497 -2.1984  0.5279
 4203TIP3    H212574   6.028   4.698   5.348  0.7293 -1.9029 -0.2961
 4204TIP3   OH212575   4.574   4.781   3.004 -0.0999  0.0344  0.0325
 4204TIP3    H112576   4.639   4.747   2.942  0.7947  0.3876  0.7599
 4204TIP3    H212577   4.579   4.876   2.994 -1.7912  0.0519 -1.1756
 4205TIP3   OH212578   4.197   4.636   3.774  0.1642 -0.0760 -0.0859
 4205TIP3    H112579   4.238   4.706   3.723 -1.7592  0.4146 -1.0724
 4205TIP3    H212580   4.246   4.634   3.856  0.1421  2.6378  0.0958
 4206TIP3   OH212581   0.809   5.941   0.134 -0.1251  0.1784 -0.0398
 4206TIP3    H112582   0.722   5.934   0.095 -0.4617 -0.4485  0.7721
 4206TIP3    H212583   0.813   5.867   0.196  0.5906  0.7908  0.6719
 4207TIP3   OH212584   2.116   6.646   3.204  0.9272 -0.1697 -0.3672
 4207TIP3    H112585   2.039   6.661   3.258  1.1126 -0.8806  0.0993
 4207TIP3    H212586   2.186   6.627   3.266  1.8492  1.8596 -0.6814
 4208TIP3   OH212587   2.384   5.072   2.493  0.0412  0.2079 -0.0889
 4208TIP3    H112588   2.315   5.044   2.433  0.3464 -1.0333  0.1053
 4208TIP3    H212589   2.455   5.101   2.436 -0.5721  1.4054 -0.2889
 4209TIP3   OH212590   1.788   1.461   4.544  0.3424 -0.2574  0.5054
 4209TIP3    H112591   1.701   1.439   4.511  0.2946  0.7347 -0.0656
 4209TIP3    H212592   1.847   1.445   4.469  0.5632 -0.3184  0.6907
 4210TIP3   OH212593   1.629   2.975   2.555 -0.1425 -1.1853  0.0064
 4210TIP3    H112594   1.547   2.954   2.599  0.3984 -0.2114  1.5553
 4210TIP3    H212595   1.694   2.975   2.625  1.1704 -1.8064 -1.1748
 4211TIP3   OH212596   5.782   3.284   0.818 -0.4845  0.6909 -0.3764
 4211TIP3    H112597   5.725   3.338   0.873  2.1257  2.3711  0.9011
 4211TIP3    H212598   5.772   3.321   0.730 -2.9060 -0.4848 -0.6941
 4212TIP3   OH212599   6.651   2.431   2.136 -0.4691  0.1243 -0.2568
 4212TIP3    H112600   6.563   2.458   2.161 -0.9873 -0.9035 -0.9117
 4212TIP3    H212601   6.667   2.477   2.053 -1.7929 -2.2525 -1.9679
 4213TIP3   OH212602   5.180   5.117   5.251 -0.5050  0.0289  0.3426
 4213TIP3    H112603   5.263   5.069   5.257 -0.3775  0.0993 -0.6598
 4213TIP3    H212604   5.165   5.150   5.339  1.6844  1.8927  0.1408
 4214TIP3   OH212605   0.908   3.986   0.561  0.3867 -0.0554  0.4586
 4214TIP3    H112606   0.927   3.908   0.613  1.6518  0.2081  0.4209
 4214TIP3    H212607   0.838   3.959   0.501  0.7644 -1.1408  0.4894
 4215TIP3   OH212608   3.614   4.393   1.592  0.4834  0.4909  0.3834
 4215TIP3    H112609   3.591   4.355   1.508  1.2695  0.8570 -0.0061
 4215TIP3    H212610   3.622   4.318   1.651  0.2301  0.2103  0.0621
 4216TIP3   OH212611   2.405   6.267   5.667  0.5273 -0.1230 -0.2870
 4216TIP3    H112612   2.396   6.173   5.680 -0.5169 -0.1025 -0.8182
 4216TIP3    H212613   2.494   6.287   5.697 -0.0933 -0.8579  2.2862
 4217TIP3   OH212614   6.745   2.922   4.496  0.0518 -0.4333  0.2397
 4217TIP3    H112615   6.686   2.994   4.517  0.5454 -0.1295  0.6166
 4217TIP3    H212616   6.724   2.899   4.406 -0.1754  0.1207  0.1497
 4218TIP3   OH212617   0.877   1.999   1.346  0.2333  0.5024  0.3893
 4218TIP3    H112618   0.882   1.975   1.254  0.9947 -1.0788  0.8241
 4218TIP3    H212619   0.964   2.031   1.368  0.5892 -0.8249  0.9915
 4219TIP3   OH212620   5.844   2.825   5.827  0.3331  0.0800  0.2255
 4219TIP3    H112621   5.840   2.904   5.773  0.5470 -0.7203 -0.9986
 4219TIP3    H212622   5.760   2.824   5.873  0.0428  0.6582 -0.2742
 4220TIP3   OH212623   2.765   1.638   2.953  0.3301 -0.6527  0.5170
 4220TIP3    H112624   2.677   1.623   2.920  0.0954  0.7574  0.4612
 4220TIP3    H212625   2.753   1.663   3.044  0.3413  2.7346 -0.2937
 4221TIP3   OH212626   4.169   0.422   3.779  0.2295  0.3715 -0.3362
 4221TIP3    H112627   4.160   0.386   3.867 -1.1740 -0.8094 -0.9217
 4221TIP3    H212628   4.131   0.510   3.784  1.7985  1.0401  0.6224
 4222TIP3   OH212629   1.712   3.284   3.390 -0.6403  0.3396  0.2714
 4222TIP3    H112630   1.721   3.329   3.306  0.1329  1.0698  0.7311
 4222TIP3    H212631   1.792   3.307   3.439 -0.1873 -1.5703  0.5143
 4223TIP3   OH212632   2.665   5.453   0.332  0.2918  0.1907  0.1872
 4223TIP3    H112633   2.744   5.399   0.340 -1.3443 -2.4453 -0.1884
 4223TIP3    H212634   2.641   5.474   0.422 -0.8834 -2.7409  0.6766
 4224TIP3   OH212635   1.562   1.221   3.419  0.0787  0.3581  0.0666
 4224TIP3    H112636   1.565   1.134   3.458 -0.7604  0.7180  0.9799
 4224TIP3    H212637   1.553   1.281   3.493  1.2991  1.2920 -0.4944
 4225TIP3   OH212638   0.730   5.072   5.687 -0.3918 -0.0231 -0.0507
 4225TIP3    H112639   0.757   5.089   5.777  1.3531  1.3223 -0.7723
 4225TIP3    H212640   0.693   4.984   5.689 -1.7617  0.5293  2.2330
 4226TIP3   OH212641   5.127   1.369   4.349  0.2930 -0.3317  1.0920
 4226TIP3    H112642   5.114   1.307   4.278  1.4126  0.1859  0.3940
 4226TIP3    H212643   5.214   1.348   4.384  1.3428  1.6915 -0.1067
 4227TIP3   OH212644   4.335   5.635   3.187  0.0761 -0.0101 -0.4950
 4227TIP3    H112645   4.361   5.555   3.234 -0.1239 -0.3173 -0.9018
 4227TIP3    H212646   4.262   5.670   3.238 -0.1126 -0.3180 -0.5524
 4228TIP3   OH212647   1.300   0.350   3.310 -0.0922  0.1208  0.9275
 4228TIP3    H112648   1.286   0.331   3.403 -0.2910 -0.7004  0.7332
 4228TIP3    H212649   1.310   0.264   3.269  1.2713  0.5092  0.3821
 4229TIP3   OH212650   4.558   4.099   5.510  0.0812  0.1446 -0.4344
 4229TIP3    H112651   4.504   4.062   5.580  0.1868 -0.9940 -0.9378
 4229TIP3    H212652   4.637   4.045   5.508 -0.4327 -0.6316 -2.2052
 4230TIP3   OH212653   7.091   2.794   4.494 -0.3145  0.3356 -0.5118
 4230TIP3    H112654   7.046   2.818   4.575 -2.2559  0.0257 -1.4277
 4230TIP3    H212655   7.021   2.787   4.429  1.0473 -0.5196 -1.9687
 4231TIP3   OH212656   3.473   2.757   1.611  0.0370 -0.1709 -0.1159
 4231TIP3    H112657   3.506   2.768   1.701  1.8650  0.8148 -0.8590
 4231TIP3    H212658   3.419   2.834   1.596 -1.3887 -0.9971  0.5560
 4232TIP3   OH212659   0.460   1.417   4.255 -0.4247  0.4115 -0.1375
 4232TIP3    H112660   0.369   1.419   4.284 -0.9098 -1.7160 -1.2850
 4232TIP3    H212661   0.504   1.363   4.321 -0.6191 -0.8461 -1.0014
 4233TIP3   OH212662   3.133   3.564   1.916 -0.0863  0.4438  0.5311
 4233TIP3    H112663   3.156   3.494   1.976  0.0489 -0.5126 -0.6070
 4233TIP3    H212664   3.040   3.549   1.895  0.2454 -0.1203 -0.6229
 4234TIP3   OH212665   6.474   0.832   5.076  0.2525 -0.3560  0.3302
 4234TIP3    H112666   6.455   0.787   4.994  0.5057 -1.9706  1.1126
 4234TIP3    H212667   6.554   0.791   5.108  0.9847  1.2728  0.6865
 4235TIP3   OH212668   0.573   2.285   5.827  0.3056  0.3021 -0.1752
 4235TIP3    H112669   0.513   2.280   5.753  1.3676  2.8477 -1.3232
 4235TIP3    H212670   0.659   2.296   5.787  0.8843  1.9285  1.3880
 4236TIP3   OH212671   0.658   4.411   2.024 -0.2534 -0.2689 -0.6075
 4236TIP3    H112672   0.718   4.336   2.033 -1.8769 -1.6323 -0.6813
 4236TIP3    H212673   0.714   4.482   1.993  1.3014 -1.5260 -0.8507
 4237TIP3   OH212674   1.438   0.312   5.119  0.2255 -0.0912  0.4406
 4237TIP3    H112675   1.464   0.389   5.169 -2.2758  0.2923  1.2950
 4237TIP3    H212676   1.459   0.238   5.176 -1.1883  0.2503  1.4381
 4238TIP3   OH212677   4.692   6.608   2.412 -0.3546  0.6257  0.3025
 4238TIP3    H112678   4.622   6.544   2.398  1.0289 -0.8010 -0.4281
 4238TIP3    H212679   4.671   6.647   2.497 -1.4024 -0.6163  0.6591
 4239TIP3   OH212680   4.099   5.303   1.243  0.4268  0.0358  0.0017
 4239TIP3    H112681   4.098   5.365   1.316 -0.5034  0.9039 -0.7263
 4239TIP3    H212682   4.165   5.238   1.269  0.5539  0.6462  1.3335
 4240TIP3   OH212683   5.618   1.754   3.526 -0.7451 -0.2146 -0.6673
 4240TIP3    H112684   5.565   1.807   3.586 -0.2391  0.9828 -1.2444
 4240TIP3    H212685   5.708   1.773   3.550 -0.5460 -0.3234 -1.3000
 4241TIP3   OH212686   1.713   5.749   1.679  0.6573 -0.1780 -0.3526
 4241TIP3    H112687   1.695   5.828   1.730  0.6450  0.1764 -0.8972
 4241TIP3    H212688   1.627   5.717   1.651  0.7286  0.4192 -1.3153
 4242TIP3   OH212689   6.483   4.295   2.401  0.4833  0.0254 -0.4583
 4242TIP3    H112690   6.416   4.339   2.454  0.1275 -0.0650 -0.8229
 4242TIP3    H212691   6.455   4.204   2.398  3.0299 -1.0824  3.1967
 4243TIP3   OH212692   4.510   3.133   4.200  0.0535 -0.2905  0.6099
 4243TIP3    H112693   4.567   3.206   4.224 -1.6901  1.2472  0.3451
 4243TIP3    H212694   4.423   3.172   4.196 -0.6528 -1.9125 -1.7403
 4244TIP3   OH212695   6.969   4.811   1.290  0.7549  1.1779  0.4567
 4244TIP3    H112696   7.004   4.896   1.317  0.8786  1.4491 -0.5054
 4244TIP3    H212697   6.937   4.826   1.201  1.1960  0.1060  0.1066
 4245TIP3   OH212698   1.154   2.693   2.911  0.1424  0.2055 -0.3282
 4245TIP3    H112699   1.149   2.733   2.998  0.5529 -0.4593  0.0110
 4245TIP3    H212700   1.232   2.730   2.871  0.7943 -0.5863  0.1708
 4246TIP3   OH212701   5.765   1.672   0.342  0.1296  0.1117  0.4810
 4246TIP3    H112702   5.680   1.658   0.383 -0.4403 -0.1942 -0.7393
 4246TIP3    H212703   5.816   1.594   0.365 -1.3506 -1.8147 -2.1462
 4247TIP3   OH212704   4.013   4.087   2.020 -0.0945 -0.5438  0.2304
 4247TIP3    H112705   4.065   4.157   2.059 -0.6634  0.1745 -0.2820
 4247TIP3    H212706   4.009   4.019   2.088 -0.5594  0.4289  1.2117
 4248TIP3   OH212707   6.832   4.333   2.958  0.3288  0.3408 -0.2929
 4248TIP3    H112708   6.824   4.402   2.892  0.1238 -0.7078 -1.4033
 4248TIP3    H212709   6.757   4.276   2.942  0.4266 -0.0779  0.6875
 4249TIP3   OH212710  -0.021   6.201   1.054  0.0726 -0.2199 -0.0778
 4249TIP3    H112711   0.018   6.259   0.989 -1.2258 -0.7806 -1.4191
 4249TIP3    H212712   0.010   6.113   1.029 -0.3407 -0.4278  0.1388
 4250TIP3   OH212713   2.206   3.629   3.575 -0.0539  0.2269  0.5945
 4250TIP3    H112714   2.274   3.675   3.623  1.0583 -1.2859  0.5308
 4250TIP3    H212715   2.125   3.677   3.595  0.6771  0.7642  2.3987
 4251TIP3   OH212716   6.697   0.232   4.152 -0.1759  0.5134  0.4838
 4251TIP3    H112717   6.602   0.229   4.164 -0.2898 -1.2117 -0.5600
 4251TIP3    H212718   6.710   0.292   4.079 -0.4392  0.9448  0.7894
 4252TIP3   OH212719   5.486   3.671   0.553 -0.0842 -0.0799  0.0536
 4252TIP3    H112720   5.473   3.600   0.616 -1.3017 -0.1537 -0.2554
 4252TIP3    H212721   5.460   3.750   0.600 -1.0966 -0.1477 -0.3605
 4253TIP3   OH212722   5.291   1.274   4.856  0.0476  0.4603 -0.5292
 4253TIP3    H112723   5.349   1.200   4.839  0.0646  0.3073  0.1762
 4253TIP3    H212724   5.209   1.235   4.887 -0.3454  0.6875 -1.2533
 4254TIP3   OH212725   5.645   2.140   5.569 -0.2127  0.5479  0.9100
 4254TIP3    H112726   5.618   2.171   5.655  0.5987  0.3457  1.2538
 4254TIP3    H212727   5.736   2.169   5.562 -0.2059  0.3593  0.2182
 4255TIP3   OH212728   4.380   3.454   5.527  0.2371 -0.4675 -0.6608
 4255TIP3    H112729   4.456   3.440   5.471  0.3461 -1.5407 -0.2670
 4255TIP3    H212730   4.345   3.366   5.542 -0.0234 -0.1633  0.6326
 4256TIP3   OH212731   2.168   0.057   1.037 -0.5210 -0.3477 -0.2853
 4256TIP3    H112732   2.086   0.024   1.000 -0.6775 -2.2964  1.5910
 4256TIP3    H212733   2.179   0.007   1.118  2.5969 -0.2407 -0.5399
 4257TIP3   OH212734   1.164   4.087   5.598 -0.5467 -0.1316  0.5002
 4257TIP3    H112735   1.188   3.999   5.570 -2.2460 -0.3251 -0.4418
 4257TIP3    H212736   1.069   4.084   5.610 -0.7454  1.7318 -0.2356
 4258TIP3   OH212737   1.492   0.508   4.725 -0.3271  0.4145  0.9422
 4258TIP3    H112738   1.549   0.584   4.710  1.8656 -1.2136  0.3785
 4258TIP3    H212739   1.426   0.539   4.786  0.2298  2.8716  0.4268
 4259TIP3   OH212740   7.021   1.507   0.522 -0.5283  0.1868 -0.2397
 4259TIP3    H112741   7.108   1.543   0.538 -0.7830  0.5194  0.3956
 4259TIP3    H212742   6.967   1.539   0.594 -0.9739 -0.7145 -0.1586
 4260TIP3   OH212743   3.496   6.348   0.651  0.7641 -0.4596  0.1455
 4260TIP3    H112744   3.447   6.328   0.572  0.1568  3.1700 -0.5741
 4260TIP3    H212745   3.429   6.366   0.717  1.1724  0.5186  0.3115
 4261TIP3   OH212746   4.474   1.562   0.662 -0.1335  0.2051 -0.1311
 4261TIP3    H112747   4.552   1.558   0.607 -1.2386  2.1501 -1.9806
 4261TIP3    H212748   4.502   1.525   0.746  1.9330 -1.8276 -1.6060
 4262TIP3   OH212749   4.031   4.940   2.882  0.2837  0.1355 -0.0410
 4262TIP3    H112750   3.975   4.933   2.959  1.2581 -2.7101  0.5192
 4262TIP3    H212751   4.103   4.996   2.910  0.4677 -0.6198  1.0358
 4263TIP3   OH212752   0.917   3.553   0.472 -0.0188 -0.0573 -0.1971
 4263TIP3    H112753   0.838   3.554   0.419 -1.1627 -3.3762  1.1695
 4263TIP3    H212754   0.961   3.471   0.449  3.3505  1.8253 -1.1852
 4264TIP3   OH212755   1.120   2.467   0.099 -0.2710  0.5130  0.1323
 4264TIP3    H112756   1.172   2.519   0.161 -0.4952 -0.4484  1.1593
 4264TIP3    H212757   1.157   2.379   0.105 -1.4267  0.0172  0.1988
 4265TIP3   OH212758   6.055   0.647   4.347 -0.1869  0.4852  0.5192
 4265TIP3    H112759   6.127   0.603   4.300 -0.3604 -1.8427  2.2722
 4265TIP3    H212760   6.002   0.686   4.277 -0.2299 -2.4535 -1.2451
 4266TIP3   OH212761   4.024   4.358   2.409 -0.1235  0.4618 -0.5788
 4266TIP3    H112762   3.947   4.413   2.399  1.1224  2.0899 -1.6557
 4266TIP3    H212763   4.098   4.415   2.388  1.3285 -1.2700 -0.4425
 4267TIP3   OH212764   0.961   2.061   0.915 -0.5997 -0.6416 -0.3223
 4267TIP3    H112765   0.926   1.988   0.864 -0.0619 -1.3842  0.3444
 4267TIP3    H212766   1.056   2.050   0.907 -0.4560  1.2460 -1.9954
 4268TIP3   OH212767   1.517   3.882   2.402 -0.4795  0.1185 -0.0372
 4268TIP3    H112768   1.466   3.805   2.427 -0.5556  0.2241  0.1346
 4268TIP3    H212769   1.486   3.904   2.315 -0.9135  0.3361  0.1689
 4269TIP3   OH212770   6.536   0.759   3.481 -0.3185 -0.0707  0.3400
 4269TIP3    H112771   6.447   0.760   3.517 -0.7860 -0.3730 -0.7622
 4269TIP3    H212772   6.587   0.810   3.543 -1.0168 -0.8233  1.5881
 4270TIP3   OH212773   3.677   4.252   2.561 -0.4658  0.1840 -0.1163
 4270TIP3    H112774   3.643   4.293   2.481  1.5921 -3.0307 -2.9186
 4270TIP3    H212775   3.606   4.196   2.591 -0.5208 -0.3147 -1.1132
 4271TIP3   OH212776   0.090   5.464   5.014  0.2855  0.7404  0.2036
 4271TIP3    H112777   0.055   5.548   4.986  2.5004  1.6950  0.1299
 4271TIP3    H212778   0.067   5.404   4.943  1.2544  1.9615 -1.1971
 4272TIP3   OH212779   2.143   3.198   2.791 -0.0087  0.0598  0.0904
 4272TIP3    H112780   2.182   3.176   2.876 -0.4570  0.7754  0.4949
 4272TIP3    H212781   2.185   3.138   2.729 -1.6372 -2.3936  1.2049
 4273TIP3   OH212782   1.138   2.578   4.269  0.4136  0.4164 -0.1312
 4273TIP3    H112783   1.186   2.625   4.338 -1.0415  2.8708 -0.6817
 4273TIP3    H212784   1.119   2.644   4.203 -1.7424 -0.9410 -0.9911
 4274TIP3   OH212785   2.296   2.189   1.548 -0.4918 -0.4173  0.6535
 4274TIP3    H112786   2.279   2.112   1.602 -1.3603  0.8713  2.3416
 4274TIP3    H212787   2.348   2.247   1.605  0.7866 -0.0375 -0.8368
 4275TIP3   OH212788   3.138   4.955   3.765  0.3632 -0.7654 -0.7257
 4275TIP3    H112789   3.067   4.946   3.701  0.1752 -1.0047 -0.4849
 4275TIP3    H212790   3.204   4.892   3.737 -0.3549 -1.9497  0.1570
 4276TIP3   OH212791   2.992   6.363   0.022 -0.0564 -0.0781  0.4715
 4276TIP3    H112792   3.076   6.317   0.027  0.7304  1.1014 -1.0299
 4276TIP3    H212793   2.930   6.296  -0.006  0.7136 -0.6313  0.0349
 4277TIP3   OH212794   5.768   1.953   5.230  0.2767  0.1070 -0.2218
 4277TIP3    H112795   5.705   1.886   5.255 -0.8539  0.9269 -0.7949
 4277TIP3    H212796   5.833   1.907   5.177 -0.0367 -0.6700  0.0564
 4278TIP3   OH212797   0.462   0.846   4.222  0.5011  0.1077 -0.4549
 4278TIP3    H112798   0.377   0.855   4.177  0.0777  0.2075  0.3468
 4278TIP3    H212799   0.521   0.812   4.155 -0.4651 -1.1291 -0.7135
 4279TIP3   OH212800   5.919   3.924   2.080  0.7218 -0.4391  0.0530
 4279TIP3    H112801   6.002   3.965   2.053 -0.0298 -0.3567 -2.3284
 4279TIP3    H212802   5.945   3.847   2.129  2.2204 -0.3102 -0.4942
 4280TIP3   OH212803   5.952   2.700   4.961 -0.5748 -0.2121 -0.2917
 4280TIP3    H112804   5.926   2.612   4.935 -2.8266  0.5157 -0.7796
 4280TIP3    H212805   5.880   2.731   5.017  1.4046  0.3977  2.0962
 4281TIP3   OH212806   3.478   2.840   1.894 -0.6084 -0.1799  0.5637
 4281TIP3    H112807   3.499   2.932   1.882  2.3286 -1.0592 -2.2417
 4281TIP3    H212808   3.542   2.809   1.959  0.8179 -0.8994 -1.1077
 4282TIP3   OH212809   6.469   3.098   0.627  0.0805 -0.2772 -0.0277
 4282TIP3    H112810   6.550   3.074   0.672 -0.6404 -1.6971  0.6053
 4282TIP3    H212811   6.408   3.119   0.698  0.1269  1.7361 -0.5196
 4283TIP3   OH212812   5.849   1.081   5.732  0.0869 -0.0777  0.2986
 4283TIP3    H112813   5.925   1.068   5.675 -0.5129 -1.0883 -0.3056
 4283TIP3    H212814   5.774   1.071   5.673 -0.5422  2.5629  0.5361
 4284TIP3   OH212815   3.708   3.029   5.397 -0.4588  0.2348 -0.4675
 4284TIP3    H112816   3.754   3.112   5.411 -0.5699  0.2885 -0.4246
 4284TIP3    H212817   3.772   2.962   5.422 -0.1189  0.2829 -1.1654
 4285TIP3   OH212818   1.053   0.794   2.458 -0.0440 -0.1759  0.2459
 4285TIP3    H112819   0.967   0.829   2.434 -0.5431 -2.3707 -1.5372
 4285TIP3    H212820   1.111   0.823   2.388  0.3578  0.0823  0.6788
 4286TIP3   OH212821   6.265   1.899   2.200  0.0233  0.1905 -0.7363
 4286TIP3    H112822   6.324   1.916   2.126  0.1355  0.3336 -0.6156
 4286TIP3    H212823   6.291   1.964   2.266  0.5731 -0.5534 -0.2001
 4287TIP3   OH212824   6.043   4.011   0.673  0.0039  0.0780  0.3159
 4287TIP3    H112825   6.082   3.929   0.702 -0.7200 -0.5399 -0.4020
 4287TIP3    H212826   6.074   4.022   0.583 -0.1904  0.4044  0.2848
 4288TIP3   OH212827   4.246   4.462   4.583  0.5707  0.3931 -0.4001
 4288TIP3    H112828   4.309   4.517   4.630  0.2584 -0.5249  1.1842
 4288TIP3    H212829   4.274   4.372   4.601  0.1146 -0.0031 -1.5538
 4289TIP3   OH212830   0.827   4.986   1.495 -0.0857 -0.0815 -0.2016
 4289TIP3    H112831   0.900   5.036   1.531 -0.8990  0.9632  0.0721
 4289TIP3    H212832   0.797   5.036   1.420  0.0829 -1.0128 -0.9119
 4290TIP3   OH212833   1.478   2.201   2.020 -0.0642 -0.7337  0.0675
 4290TIP3    H112834   1.389   2.233   2.001 -1.1006 -0.1908  4.5925
 4290TIP3    H212835   1.467   2.107   2.036 -0.0679 -0.5185  1.4604
 4291TIP3   OH212836   3.452   2.542   5.563  0.0106 -0.2029  0.1624
 4291TIP3    H112837   3.467   2.502   5.477 -0.7849  0.5266 -0.3437
 4291TIP3    H212838   3.400   2.478   5.611  1.4883 -1.1308  0.5559
 4292TIP3   OH212839   5.772   6.723   1.606 -0.1173  0.0038  0.1036
 4292TIP3    H112840   5.781   6.639   1.561  0.7894  1.6224 -3.0500
 4292TIP3    H212841   5.696   6.712   1.663 -0.9712 -2.4603 -1.3777
 4293TIP3   OH212842   0.882   2.131   2.710  0.2120 -0.8108 -0.3254
 4293TIP3    H112843   0.853   2.078   2.636  0.3814 -0.8958 -0.3312
 4293TIP3    H212844   0.937   2.199   2.671  0.0790 -0.6914 -0.3067
 4294TIP3   OH212845   4.010   4.860   5.528  0.6822 -0.0271 -0.1222
 4294TIP3    H112846   3.925   4.815   5.531  0.4554  0.0333 -2.8306
 4294TIP3    H212847   4.056   4.830   5.606 -0.8125 -2.1677  0.0191
 4295TIP3   OH212848   6.411   2.602   1.992  0.3721 -0.2725 -0.2602
 4295TIP3    H112849   6.376   2.563   2.072 -0.1596 -0.2506 -0.4769
 4295TIP3    H212850   6.415   2.530   1.929  0.6979 -0.2704 -0.2417
 4296TIP3   OH212851   0.904   1.900   4.426 -0.1647 -0.3251  0.3111
 4296TIP3    H112852   0.845   1.937   4.360  0.7770 -0.4645 -0.6507
 4296TIP3    H212853   0.862   1.918   4.510 -1.3464 -0.0395 -0.3211
 4297TIP3   OH212854   0.804   5.126   4.737 -0.3575 -0.6921 -0.1048
 4297TIP3    H112855   0.825   5.109   4.645  0.1138 -0.6879  0.0030
 4297TIP3    H212856   0.882   5.100   4.785 -0.5233 -0.4925  0.2772
 4298TIP3   OH212857   0.163   6.279   4.141  0.2103 -0.2366 -0.5212
 4298TIP3    H112858   0.206   6.336   4.077  0.3921  1.5855  1.0994
 4298TIP3    H212859   0.099   6.336   4.184 -1.1662 -1.8892 -0.2846
 4299TIP3   OH212860   6.269   6.152   5.818 -0.0507  0.1624 -0.2670
 4299TIP3    H112861   6.277   6.207   5.740  0.2161 -0.5172 -0.7358
 4299TIP3    H212862   6.354   6.108   5.825 -0.2013 -0.0611  0.1879
 4300TIP3   OH212863   2.946   5.385   2.303 -0.2311  0.7055 -0.5603
 4300TIP3    H112864   3.027   5.417   2.343 -0.9209 -1.7458  3.4895
 4300TIP3    H212865   2.886   5.459   2.306  0.6953  1.4463  0.2802
 4301TIP3   OH212866   6.674   4.100   3.071 -0.1979 -0.7733  0.1123
 4301TIP3    H112867   6.625   4.123   3.149 -0.7420 -0.8912 -0.1894
 4301TIP3    H212868   6.607   4.077   3.006  0.1777  0.6008 -0.8115
 4302TIP3   OH212869   5.822   6.073   0.385  0.1388 -0.2054 -0.0996
 4302TIP3    H112870   5.878   6.116   0.449  0.7004 -0.4048 -0.4520
 4302TIP3    H212871   5.815   6.137   0.313  0.7664 -0.5858 -0.5114
 4303TIP3   OH212872   4.273   1.264   5.641  0.4635 -0.1462  0.5597
 4303TIP3    H112873   4.221   1.301   5.570 -0.1456 -1.0235  0.5317
 4303TIP3    H212874   4.260   1.324   5.715 -0.9641 -0.5722  0.6879
 4304TIP3   OH212875   3.951   2.535   5.097 -0.4471  0.3111 -0.5462
 4304TIP3    H112876   3.952   2.606   5.162 -0.0109 -1.9561  2.1174
 4304TIP3    H212877   4.028   2.483   5.118 -2.1461 -2.4010 -0.6219
 4305TIP3   OH212878   3.288   2.390   3.927  0.2302 -0.0005 -0.6398
 4305TIP3    H112879   3.251   2.334   3.996 -1.6199  1.0546 -0.7026
 4305TIP3    H212880   3.287   2.334   3.849 -0.5151 -0.2660 -0.4572
 4306TIP3   OH212881   5.066   0.759   0.730  0.3006 -0.0315  0.3901
 4306TIP3    H112882   5.099   0.847   0.712 -0.9917  0.4275  0.1418
 4306TIP3    H212883   4.976   0.760   0.697  0.5536 -1.7477 -0.5052
 4307TIP3   OH212884   1.405   5.832   2.595 -0.3529  0.3193 -0.4959
 4307TIP3    H112885   1.489   5.818   2.552 -1.1443 -1.2651 -1.6173
 4307TIP3    H212886   1.400   5.927   2.608  1.9869  0.3734  0.4519
 4308TIP3   OH212887   2.916   2.338   2.578 -0.2380 -0.1205  0.8461
 4308TIP3    H112888   2.944   2.429   2.590  0.2563 -0.2095  0.3903
 4308TIP3    H212889   2.928   2.298   2.665  0.5450 -0.0127  0.8012
 4309TIP3   OH212890   6.936   4.556   2.553 -0.2708  0.2257 -0.5615
 4309TIP3    H112891   6.924   4.648   2.575  0.5044  0.4202 -0.9423
 4309TIP3    H212892   6.919   4.551   2.459  1.8705  0.3997 -1.0046
 4310TIP3   OH212893   5.326   6.244   4.581  0.0934 -0.8268 -0.1780
 4310TIP3    H112894   5.399   6.306   4.576 -0.2656 -0.2256  1.4943
 4310TIP3    H212895   5.268   6.280   4.648 -1.0605 -2.0101 -0.5018
 4311TIP3   OH212896   4.605   0.695   3.459 -0.1121 -0.1996 -0.2786
 4311TIP3    H112897   4.545   0.751   3.509  0.6488 -0.5432  1.0483
 4311TIP3    H212898   4.554   0.616   3.440 -0.0524 -0.5644  0.9931
 4312TIP3   OH212899   6.970   0.021   0.878 -0.1902  0.8596  0.2248
 4312TIP3    H112900   6.902  -0.044   0.897  0.3099  0.0580 -0.6130
 4312TIP3    H212901   6.924   0.105   0.875 -0.7697  0.6335  1.8421
 4313TIP3   OH212902   4.759   1.844   0.849 -0.2284 -0.2705 -0.3129
 4313TIP3    H112903   4.744   1.888   0.933  1.3635  0.5828 -0.4414
 4313TIP3    H212904   4.853   1.849   0.836 -0.3855 -0.9027 -1.8970
 4314TIP3   OH212905   4.477   6.712   1.739  0.3423 -0.5318 -0.0840
 4314TIP3    H112906   4.449   6.625   1.712  1.5042 -0.9285 -0.0854
 4314TIP3    H212907   4.492   6.759   1.657  0.7647 -0.7000 -0.1109
 4315TIP3   OH212908   0.133   1.632   2.392 -0.0954  0.3066 -0.5356
 4315TIP3    H112909   0.191   1.568   2.432  1.1575 -0.0458 -2.7467
 4315TIP3    H212910   0.167   1.717   2.421  0.8618  0.0647 -0.9009
 4316TIP3   OH212911   1.934   0.153   3.092  0.2140 -0.8623 -0.2221
 4316TIP3    H112912   1.859   0.110   3.132 -0.1041 -0.3091 -0.2166
 4316TIP3    H212913   2.008   0.126   3.146 -0.3718  0.9032  1.5873
 4317TIP3   OH212914   2.406   2.562   2.427 -0.2516 -0.0792  0.1424
 4317TIP3    H112915   2.435   2.645   2.389 -1.0691  0.2041  0.1224
 4317TIP3    H212916   2.334   2.533   2.370 -0.7868 -0.1837  0.8572
 4318TIP3   OH212917   6.041   4.330   5.692  0.0794 -0.1917  0.0753
 4318TIP3    H112918   6.002   4.364   5.611  1.1241 -0.5603 -0.6130
 4318TIP3    H212919   5.984   4.363   5.762  0.8802  2.8011 -0.5275
 4319TIP3   OH212920   4.156   0.041   2.526  0.1228 -0.3009 -0.2580
 4319TIP3    H112921   4.143   0.025   2.432 -1.9579 -2.7537  0.3517
 4319TIP3    H212922   4.079   0.004   2.568  0.2075  2.1628  2.3661
 4320TIP3   OH212923   2.313   4.933   3.676  0.4948  0.2577 -0.4198
 4320TIP3    H112924   2.259   4.958   3.750  0.6497 -0.6434  0.0162
 4320TIP3    H212925   2.301   4.838   3.669 -0.8399  0.5151 -2.5907
 4321TIP3   OH212926   3.050   3.983   2.658  0.6532 -0.7731 -0.4600
 4321TIP3    H112927   2.968   3.933   2.655  0.5395 -0.6334  0.0722
 4321TIP3    H212928   3.049   4.024   2.745  0.9789 -0.2488 -0.6968
 4322TIP3   OH212929   4.465   3.291   1.060  0.1439 -0.2938  0.4290
 4322TIP3    H112930   4.527   3.224   1.032  0.2962  0.5841 -1.4815
 4322TIP3    H212931   4.432   3.260   1.144  1.6877 -1.7561  0.5399
 4323TIP3   OH212932   4.577   2.694   5.231  0.0201 -0.1268 -0.0908
 4323TIP3    H112933   4.662   2.688   5.274 -0.5197  0.4751  1.1026
 4323TIP3    H212934   4.581   2.628   5.162  2.5380  1.8610 -2.0221
 4324TIP3   OH212935   2.625   5.185   0.967 -0.1424  0.2214 -0.6693
 4324TIP3    H112936   2.714   5.163   0.939  0.3009  1.6822 -0.4666
 4324TIP3    H212937   2.575   5.105   0.951  1.3977 -0.9649  0.1450
 4325TIP3   OH212938   6.110   2.063   3.262  0.2141  0.2791  0.8071
 4325TIP3    H112939   6.156   1.997   3.210  1.3854  1.5431  0.1608
 4325TIP3    H212940   6.019   2.057   3.233  0.6861  0.3551 -0.8080
 4326TIP3   OH212941   3.937   6.100   1.564 -0.1138  0.2677  0.4371
 4326TIP3    H112942   3.893   6.019   1.539  1.6277 -0.9188  1.0424
 4326TIP3    H212943   3.898   6.167   1.507  0.8657 -1.6000 -2.6947
 4327TIP3   OH212944   0.451   2.407   4.266  0.5237 -0.1459  0.2952
 4327TIP3    H112945   0.519   2.429   4.202  0.3729 -0.4774  0.0155
 4327TIP3    H212946   0.439   2.313   4.256 -0.6677  0.0560 -0.3611
 4328TIP3   OH212947   1.122   4.539   1.675 -0.2829 -0.4291  0.4084
 4328TIP3    H112948   1.035   4.550   1.714  0.3177 -1.2663  2.0725
 4328TIP3    H212949   1.144   4.447   1.690  1.4488  0.0797  1.2369
 4329TIP3   OH212950   3.462   5.228   0.472  0.1514  0.2806 -0.0007
 4329TIP3    H112951   3.541   5.192   0.432 -0.2870 -1.8839  0.9143
 4329TIP3    H212952   3.456   5.182   0.557 -0.9320  1.9700  0.8836
 4330TIP3   OH212953   6.118   5.038   3.777 -0.0036 -0.2428 -0.0352
 4330TIP3    H112954   6.113   5.075   3.866  0.6522 -0.8585  0.2652
 4330TIP3    H212955   6.145   5.111   3.722 -0.0081  0.0451  0.3389
 4331TIP3   OH212956   4.841   1.249   5.470 -0.1140  0.1407  0.0567
 4331TIP3    H112957   4.841   1.274   5.562 -0.7633 -1.7993  0.6238
 4331TIP3    H212958   4.885   1.164   5.468 -0.1535  0.1235 -1.4312
 4332TIP3   OH212959   1.975   2.307   5.799  1.0404  0.2138 -0.0612
 4332TIP3    H112960   1.994   2.305   5.893 -0.4428  2.1441  0.3641
 4332TIP3    H212961   1.920   2.231   5.784  0.0264  0.7042  0.9964
 4333TIP3   OH212962   3.709   3.005   1.583  0.0816  0.0595  0.1625
 4333TIP3    H112963   3.787   2.954   1.561  0.0487 -0.0147  0.2136
 4333TIP3    H212964   3.646   2.982   1.515  1.4352  3.3861 -2.5262
 4334TIP3   OH212965   4.806   1.846   0.021  0.6929 -0.1936  0.1207
 4334TIP3    H112966   4.749   1.918   0.046 -0.6768 -1.3676  0.5154
 4334TIP3    H212967   4.812   1.792   0.100  0.4039 -1.3146 -0.6000
 4335TIP3   OH212968   0.845   1.203   3.660  0.3612 -0.3145  0.6861
 4335TIP3    H112969   0.869   1.246   3.742 -0.8723  1.2786  0.2551
 4335TIP3    H212970   0.767   1.151   3.681  0.4984 -0.5265  0.6805
 4336TIP3   OH212971   4.949   5.351   3.897  0.1468 -0.2904  0.2255
 4336TIP3    H112972   4.898   5.309   3.966  0.2224  0.7057  0.9036
 4336TIP3    H212973   4.945   5.289   3.824 -0.3895 -1.1124  0.9289
 4337TIP3   OH212974   4.573   5.142   3.305  0.2358  0.4342  0.8286
 4337TIP3    H112975   4.623   5.077   3.254  2.3916  2.3665  0.3113
 4337TIP3    H212976   4.638   5.183   3.361 -1.2146  1.6444  1.6844
 4338TIP3   OH212977   1.017   2.784   3.173  0.1008 -0.3944  0.2582
 4338TIP3    H112978   0.924   2.801   3.190 -0.6076 -1.2743 -2.2445
 4338TIP3    H212979   1.057   2.871   3.169 -0.1917 -0.0512  3.0749
 4339TIP3   OH212980   2.838   6.422   3.203  0.4506  0.3888 -0.7301
 4339TIP3    H112981   2.927   6.406   3.234 -0.0795 -3.3035 -0.6474
 4339TIP3    H212982   2.788   6.438   3.283  0.8380  1.4818 -0.6932
 4340TIP3   OH212983   5.283   1.971   0.910  0.0474 -0.5111  0.1624
 4340TIP3    H112984   5.358   1.983   0.852 -0.4953 -1.0790 -0.6822
 4340TIP3    H212985   5.306   2.019   0.989  1.0057 -0.1051 -0.3434
 4341TIP3   OH212986   4.607   5.077   4.260 -0.1824 -0.0629  0.0644
 4341TIP3    H112987   4.522   5.115   4.282  0.6953  2.3707 -0.3710
 4341TIP3    H212988   4.656   5.078   4.343  0.0637  0.4381 -0.0810
 4342TIP3   OH212989   4.057   2.652   4.598  0.0500 -0.1782 -0.1487
 4342TIP3    H112990   3.965   2.629   4.588 -0.2457  0.9621 -0.2866
 4342TIP3    H212991   4.063   2.692   4.684  0.3767 -0.0953 -0.2078
 4343TIP3   OH212992   2.585   1.298   2.613 -0.5189 -0.4976 -0.1122
 4343TIP3    H112993   2.589   1.255   2.699 -2.1418 -0.2019  0.1379
 4343TIP3    H212994   2.636   1.378   2.625 -1.2600 -0.1350  0.7980
 4344TIP3   OH212995   1.832   2.523   2.387 -0.8041  0.3620 -0.1303
 4344TIP3    H112996   1.796   2.448   2.340  0.4720  1.6968 -3.6056
 4344TIP3    H212997   1.765   2.591   2.378 -0.5616  0.6195  0.0067
 4345TIP3   OH212998   3.363   0.175   1.516 -0.3026  0.4521  0.4177
 4345TIP3    H112999   3.281   0.129   1.534 -0.6829  0.1255 -1.8057
 4345TIP3    H213000   3.337   0.260   1.483  0.0335 -0.4830 -2.6243
 4346TIP3   OH213001   1.621   3.832   5.917 -0.4335 -0.1428 -0.1971
 4346TIP3    H113002   1.690   3.894   5.893  1.5664 -2.0288  0.3142
 4346TIP3    H213003   1.549   3.851   5.858  1.5347  0.1687 -2.6557
 4347TIP3   OH213004   3.019   4.629   4.555  0.0631 -0.5159  0.1417
 4347TIP3    H113005   3.026   4.720   4.586 -1.6309 -0.1735 -0.3874
 4347TIP3    H213006   3.102   4.612   4.511  1.0847  0.1920  1.7117
 4348TIP3   OH213007   5.455   0.768   0.014 -0.7726 -0.0967 -1.0807
 4348TIP3    H113008   5.381   0.821   0.041 -0.4239  1.1995 -2.4927
 4348TIP3    H213009   5.531   0.809   0.056 -0.6204 -0.0702 -1.3725
 4349TIP3   OH213010   5.062   5.528   3.604  0.2808  0.1780  0.7103
 4349TIP3    H113011   4.980   5.478   3.610  1.0661 -1.0498  2.1543
 4349TIP3    H213012   5.036   5.619   3.616 -1.1059  0.0637 -1.0740
 4350TIP3   OH213013   2.930   0.031   3.044 -0.0201  0.8875 -0.1792
 4350TIP3    H113014   2.891  -0.056   3.056 -0.0047  0.9402  0.2486
 4350TIP3    H213015   2.931   0.044   2.949 -0.4974  0.6371 -0.2179
 4351TIP3   OH213016   0.619   3.611   2.223 -0.8438  0.1449 -0.0017
 4351TIP3    H113017   0.672   3.689   2.240  0.0658 -0.6635  0.9687
 4351TIP3    H213018   0.665   3.540   2.268 -1.8125 -0.9080 -0.6193
 4352TIP3   OH213019   3.855   0.018   4.915 -0.0443 -0.1484 -0.2052
 4352TIP3    H113020   3.773  -0.028   4.931  0.2587 -0.6043  0.0720
 4352TIP3    H213021   3.846   0.101   4.963 -0.6427  0.1491 -0.8156
 4353TIP3   OH213022   3.861   1.777   1.537 -0.1196 -0.3819 -0.0955
 4353TIP3    H113023   3.945   1.736   1.552 -0.7805 -1.1608  1.7813
 4353TIP3    H213024   3.812   1.715   1.483  0.2023 -0.3096 -0.4720
 4354TIP3   OH213025   5.095   2.756   5.844 -0.2520 -0.7097  0.3216
 4354TIP3    H113026   5.058   2.719   5.924 -0.4495 -1.9836 -0.3445
 4354TIP3    H213027   5.124   2.681   5.793  1.1849  0.1448 -0.1936
 4355TIP3   OH213028   7.202   5.398   3.157  0.0672  0.4539 -0.7339
 4355TIP3    H113029   7.140   5.443   3.215  1.0031  0.7983  0.0307
 4355TIP3    H213030   7.232   5.465   3.096 -0.8720  0.1050 -1.5980
 4356TIP3   OH213031   6.420   6.340   0.678  0.1232  0.1019 -0.2840
 4356TIP3    H113032   6.431   6.280   0.604  0.8301  0.4851 -0.4985
 4356TIP3    H213033   6.500   6.330   0.729 -1.0007 -1.3109  1.3068
 4357TIP3   OH213034   6.476   2.432   4.510  0.2296  0.5269  0.2279
 4357TIP3    H113035   6.449   2.499   4.572  1.9618  1.2639  0.2527
 4357TIP3    H213036   6.558   2.398   4.547 -0.3673 -1.3061 -0.0183
 4358TIP3   OH213037   2.693   0.610   2.731  1.3190  0.2325 -0.2002
 4358TIP3    H113038   2.714   0.668   2.804 -1.1398  2.2603 -0.9390
 4358TIP3    H213039   2.722   0.658   2.653 -0.8567  0.6410 -0.8281
 4359TIP3   OH213040   1.093   6.183   4.214 -0.2521  0.1572  0.1698
 4359TIP3    H113041   1.008   6.147   4.191 -0.3268  1.4384 -1.8691
 4359TIP3    H213042   1.083   6.215   4.303 -1.8102  0.0138  0.0682
 4360TIP3   OH213043   1.685   5.621   0.956  0.5362  0.3161  0.2801
 4360TIP3    H113044   1.711   5.552   1.017  2.3510 -0.2640 -1.0469
 4360TIP3    H213045   1.648   5.575   0.881 -0.6462  0.9533  0.4530
 4361TIP3   OH213046   4.217   1.836   2.217 -0.1907 -0.8519  0.0042
 4361TIP3    H113047   4.278   1.847   2.290  1.0888 -0.1330 -1.1250
 4361TIP3    H213048   4.250   1.758   2.171  1.1204  0.6356 -1.7159
 4362TIP3   OH213049   3.101   6.284   3.657 -0.2252 -0.1786 -0.1823
 4362TIP3    H113050   3.140   6.368   3.632  0.5665 -1.1112 -2.3465
 4362TIP3    H213051   3.162   6.248   3.722  1.5071 -0.6633 -1.9653
 4363TIP3   OH213052   3.203   1.952   2.329 -0.3594  0.5414 -0.1964
 4363TIP3    H113053   3.281   2.008   2.335 -0.3075  0.3451  1.4547
 4363TIP3    H213054   3.219   1.897   2.252  1.0810  0.6001  0.0304
 4364TIP3   OH213055   0.958   4.692   0.251 -0.1689 -0.0112 -0.2801
 4364TIP3    H113056   1.032   4.737   0.209 -0.7503  1.9652  0.6756
 4364TIP3    H213057   0.995   4.610   0.283  1.6733  0.9595  0.2471
 4365TIP3   OH213058   1.976   4.871   3.908  0.3571 -0.0095 -0.4189
 4365TIP3    H113059   1.971   4.960   3.873 -1.0065  0.3098  0.5434
 4365TIP3    H213060   2.038   4.876   3.980 -1.0861  0.5883  0.8124
 4366TIP3   OH213061   4.916   5.094   0.992 -0.0600  0.3370 -0.4242
 4366TIP3    H113062   4.828   5.103   1.029  0.1293  1.4669 -0.2118
 4366TIP3    H213063   4.951   5.014   1.032 -1.1796 -0.4107 -0.9152
 4367TIP3   OH213064   3.798   0.802   0.930 -0.4273 -0.4607  0.1919
 4367TIP3    H113065   3.881   0.826   0.971  0.4641 -0.6578 -1.4036
 4367TIP3    H213066   3.763   0.733   0.986  1.7928 -2.2450 -0.4384
 4368TIP3   OH213067   3.439   2.626   3.966  0.1730  0.0134  0.2513
 4368TIP3    H113068   3.418   2.656   4.054  0.1012  0.0535  0.2206
 4368TIP3    H213069   3.375   2.557   3.948 -1.4469  1.6494 -0.7102
 4369TIP3   OH213070   6.449   1.486   5.811  0.6719  0.2532 -0.1001
 4369TIP3    H113071   6.544   1.480   5.802  0.7122 -0.5761  0.7518
 4369TIP3    H213072   6.421   1.397   5.835 -0.2571  0.6059  0.1893
 4370TIP3   OH213073   7.000   0.086   5.598  0.1452  0.2394 -0.1497
 4370TIP3    H113074   6.946   0.052   5.669  1.1716 -0.5832  0.2539
 4370TIP3    H213075   6.965   0.044   5.519  0.4919 -0.6616  0.1673
 4371TIP3   OH213076   4.017   4.783   1.075 -0.1718  0.3208 -0.2282
 4371TIP3    H113077   3.939   4.813   1.122 -0.5876  1.3139 -1.5012
 4371TIP3    H213078   3.991   4.699   1.037  0.0040 -0.2428  0.8446
 4372TIP3   OH213079   4.590   1.612   3.165 -0.2770  0.0746  0.5056
 4372TIP3    H113080   4.645   1.634   3.240  1.5053 -0.8725 -0.4588
 4372TIP3    H213081   4.645   1.630   3.089 -2.0544  1.0548 -0.6039
 4373TIP3   OH213082   3.868   5.486   5.356 -0.0952 -0.1985 -0.4904
 4373TIP3    H113083   3.947   5.432   5.365 -1.2532 -1.7167  1.3235
 4373TIP3    H213084   3.883   5.560   5.415  0.6092  0.3450 -1.3418
 4374TIP3   OH213085   2.027   2.729   1.565 -0.2931 -0.5220  0.0095
 4374TIP3    H113086   2.096   2.761   1.623 -0.9573 -0.0758  0.5803
 4374TIP3    H213087   1.998   2.647   1.605  0.0022 -0.7862 -0.3119
 4375TIP3   OH213088   5.143   2.007   3.695 -0.4052  0.4452  0.1437
 4375TIP3    H113089   5.122   2.082   3.640 -0.5082 -0.1219 -0.5970
 4375TIP3    H213090   5.106   1.932   3.650  0.3481 -0.1529  0.4898
 4376TIP3   OH213091   0.969   2.705   1.221  0.0021 -0.0518 -0.0958
 4376TIP3    H113092   0.956   2.783   1.274 -0.8081 -0.4861  0.3542
 4376TIP3    H213093   0.890   2.699   1.167 -0.1527 -0.8138  0.2020
 4377TIP3   OH213094   3.719   6.573   0.397  0.0404  0.1374 -0.2360
 4377TIP3    H113095   3.669   6.529   0.329 -0.7922 -0.0502  0.4843
 4377TIP3    H213096   3.737   6.660   0.361 -1.1459  0.3521 -0.3611
 4378TIP3   OH213097   4.214   4.775   2.435 -0.0938 -0.0019 -0.9016
 4378TIP3    H113098   4.238   4.857   2.391 -4.1548  1.0423 -1.5674
 4378TIP3    H213099   4.211   4.798   2.528  1.1012 -0.1098 -0.8210
 4379TIP3   OH213100   1.705   3.991   3.992 -0.1088 -0.4895 -0.1977
 4379TIP3    H113101   1.687   4.077   3.953 -0.5589 -0.2099  0.6141
 4379TIP3    H213102   1.643   3.984   4.064  2.5141  0.2062  2.2999
 4380TIP3   OH213103   1.725   2.761   3.645 -0.0403 -0.4080  0.2119
 4380TIP3    H113104   1.694   2.696   3.708 -0.7585 -0.4860 -0.2123
 4380TIP3    H213105   1.676   2.742   3.565  0.3194  0.1597 -0.1483
 4381TIP3   OH213106   6.146   5.763   2.831  0.2336 -0.3443 -0.9650
 4381TIP3    H113107   6.207   5.699   2.867 -0.0609  0.6947  1.5486
 4381TIP3    H213108   6.200   5.838   2.807  0.1003  0.3321  0.6882
 4382TIP3   OH213109   0.614   4.209   5.623  0.4698 -0.1618 -0.5120
 4382TIP3    H113110   0.556   4.285   5.632  1.3654  0.4261  0.5226
 4382TIP3    H213111   0.630   4.180   5.713 -3.0767 -4.1880 -0.8627
 4383TIP3   OH213112   2.072   1.585   0.477 -0.3863  0.5628  0.3135
 4383TIP3    H113113   2.049   1.514   0.537 -0.4229  0.7556  0.5311
 4383TIP3    H213114   2.157   1.560   0.441 -0.2735  0.5448  0.5964
 4384TIP3   OH213115   0.454   3.604   5.261  0.7978  0.3256  0.2671
 4384TIP3    H113116   0.401   3.683   5.272  0.7473  0.3085  0.1393
 4384TIP3    H213117   0.449   3.561   5.347 -0.2121 -0.1826 -0.0221
 4385TIP3   OH213118   3.553   0.416   0.866  0.1132 -0.0815 -0.3051
 4385TIP3    H113119   3.524   0.460   0.786  0.7566  0.2909 -0.3384
 4385TIP3    H213120   3.475   0.413   0.922  0.0750  1.1717 -0.2727
 4386TIP3   OH213121   0.038   4.524   1.671  0.0658 -0.7971 -0.1663
 4386TIP3    H113122   0.082   4.446   1.636  0.5985 -1.1029  1.1279
 4386TIP3    H213123   0.009   4.498   1.758 -0.1924  0.3033  0.0909
 4387TIP3   OH213124   4.125   3.171   2.416 -0.3558 -0.9044 -0.1958
 4387TIP3    H113125   4.202   3.151   2.469 -0.2060  0.7823  0.2971
 4387TIP3    H213126   4.147   3.254   2.373 -1.7992 -0.4810 -0.1810
 4388TIP3   OH213127   2.444   4.385   4.455  0.8828  0.9607 -0.2395
 4388TIP3    H113128   2.364   4.436   4.467  0.2661  0.6249 -2.4897
 4388TIP3    H213129   2.498   4.438   4.397  1.9036  0.7469  0.4872
 4389TIP3   OH213130   7.073   6.716   2.863 -0.4463 -0.1883 -0.0278
 4389TIP3    H113131   7.061   6.651   2.794  0.0766 -1.4018  0.9833
 4389TIP3    H213132   7.168   6.718   2.878 -0.6751 -1.5287  2.0643
 4390TIP3   OH213133   7.040   2.296   1.500  0.4865  0.2801  0.2238
 4390TIP3    H113134   6.948   2.321   1.504  0.8029  1.5760 -0.1650
 4390TIP3    H213135   7.087   2.374   1.528  1.4964 -0.1452 -0.2377
 4391TIP3   OH213136   1.956   2.059   4.748 -0.3055  0.6069  0.2807
 4391TIP3    H113137   1.910   2.081   4.829  1.2912 -1.1487  1.7429
 4391TIP3    H213138   1.988   1.970   4.762 -0.5236 -0.0012 -2.5609
 4392TIP3   OH213139   1.512   2.975   3.823  0.3074  0.0931 -0.8922
 4392TIP3    H113140   1.552   3.023   3.750 -0.5368 -0.3327 -1.6519
 4392TIP3    H213141   1.419   2.970   3.801 -0.6694  2.8545  1.7936
 4393TIP3   OH213142   6.403   1.553   4.979  0.1845  0.4534  0.4731
 4393TIP3    H113143   6.416   1.482   5.043 -0.6893  0.3690  0.5714
 4393TIP3    H213144   6.308   1.569   4.980 -0.2688 -1.2312 -2.5677
 4394TIP3   OH213145   1.170   2.765   4.519  0.2870  0.0971 -0.4493
 4394TIP3    H113146   1.228   2.693   4.544  0.2958  0.7006  1.4163
 4394TIP3    H213147   1.083   2.736   4.546 -0.0595 -0.1207 -1.7445
 4395TIP3   OH213148   4.995   4.172   3.683  0.7692  0.3280 -0.3817
 4395TIP3    H113149   4.981   4.143   3.773  1.2649  0.3499 -0.2910
 4395TIP3    H213150   5.000   4.267   3.689 -0.1058  0.3865 -0.5676
 4396TIP3   OH213151   6.840   3.537   4.913 -0.7622  0.2520  0.1273
 4396TIP3    H113152   6.835   3.630   4.893  1.5123  0.0934 -1.6474
 4396TIP3    H213153   6.772   3.497   4.859 -0.1322  0.6910 -1.0367
 4397TIP3   OH213154   5.435   2.750   3.596  0.2206 -0.4769  0.0918
 4397TIP3    H113155   5.491   2.734   3.672 -0.9552 -0.0250  1.0793
 4397TIP3    H213156   5.452   2.677   3.538  0.2729 -1.4638  1.3088
 4398TIP3   OH213157   3.799   1.461   3.917  0.1784 -0.5060 -0.1402
 4398TIP3    H113158   3.866   1.404   3.955  0.7066 -1.8252 -2.8677
 4398TIP3    H213159   3.817   1.547   3.955  3.8480 -0.6590 -1.1811
 4399TIP3   OH213160   0.940   5.041   0.434 -0.2492 -0.3627  0.5106
 4399TIP3    H113161   0.964   5.079   0.518 -1.4536  0.5010  0.4966
 4399TIP3    H213162   0.918   4.950   0.453 -1.6159  0.1239  1.3430
 4400TIP3   OH213163   0.607   0.063   1.621 -0.4098 -0.5494  0.1507
 4400TIP3    H113164   0.664  -0.011   1.643 -0.2255 -0.0449  1.4567
 4400TIP3    H213165   0.536   0.058   1.686  0.0659  0.9084  0.8185
 4401TIP3   OH213166   0.121   5.010   0.277  0.4043 -0.2062 -0.2046
 4401TIP3    H113167   0.179   4.938   0.254  0.4000 -0.1033 -0.5493
 4401TIP3    H213168   0.172   5.089   0.258  0.0394 -0.1120 -0.8369
 4402TIP3   OH213169   1.234   2.759   3.737 -0.2494 -0.0389  0.0744
 4402TIP3    H113170   1.270   2.674   3.710  1.1728  0.6632 -0.3390
 4402TIP3    H213171   1.156   2.770   3.683 -0.9724 -1.4739  0.7732
 4403TIP3   OH213172   4.238   2.606   3.815 -0.3924 -0.3690 -0.8239
 4403TIP3    H113173   4.206   2.682   3.765  0.3216 -0.1788 -1.0200
 4403TIP3    H213174   4.317   2.579   3.768  0.6853  0.2291  0.5655
 4404TIP3   OH213175   1.900   6.747   1.246  0.7402 -0.2648  0.0227
 4404TIP3    H113176   1.901   6.833   1.202 -0.5178 -0.5744 -0.6556
 4404TIP3    H213177   1.926   6.685   1.178  0.1754 -0.5902  0.1019
 4405TIP3   OH213178   6.752   4.413   5.816  0.5232  0.7861  0.6553
 4405TIP3    H113179   6.717   4.324   5.813  2.4942 -0.0199  0.2210
 4405TIP3    H213180   6.704   4.460   5.747  1.2753 -0.6589 -0.9142
 4406TIP3   OH213181   6.045   5.768  -0.031  0.1027 -0.3318  0.1951
 4406TIP3    H113182   6.052   5.823   0.047 -1.3157  1.0893 -0.6192
 4406TIP3    H213183   5.968   5.714  -0.016  0.4159 -0.7832  0.1987
 4407TIP3   OH213184   6.693   2.466   5.576 -0.1130 -0.7443 -0.0257
 4407TIP3    H113185   6.636   2.516   5.635  0.4025  0.0321 -0.1824
 4407TIP3    H213186   6.667   2.375   5.591 -0.9362 -0.4546  0.3952
 4408TIP3   OH213187   5.196   6.629   0.445 -0.2524 -0.1262  0.0391
 4408TIP3    H113188   5.115   6.658   0.485  0.8323  1.1906  1.4089
 4408TIP3    H213189   5.238   6.710   0.414  1.3155 -0.5436  0.9234
 4409TIP3   OH213190   4.209   6.588   1.892 -0.6317  0.4055  0.2340
 4409TIP3    H113191   4.210   6.667   1.837 -0.5779  0.8111  0.8122
 4409TIP3    H213192   4.233   6.619   1.979  1.2543 -0.5113  0.1084
 4410TIP3   OH213193   0.141   3.041   5.770  0.2100 -0.2217  0.0049
 4410TIP3    H113194   0.107   2.952   5.769  1.9599 -0.9253 -0.2180
 4410TIP3    H213195   0.152   3.064   5.677 -0.0222  0.1548  0.0667
 4411TIP3   OH213196   6.860   5.163   1.141  0.2947  0.2233 -0.3547
 4411TIP3    H113197   6.908   5.085   1.112 -0.1549 -0.5770  0.9584
 4411TIP3    H213198   6.840   5.210   1.060 -0.9827 -1.9312 -1.3832
 4412TIP3   OH213199   3.983   0.324   3.286 -0.2516  0.2207  0.1234
 4412TIP3    H113200   4.037   0.367   3.352 -0.7020  3.4261 -1.4149
 4412TIP3    H213201   3.903   0.300   3.333  0.7019 -0.5413  1.4185
 4413TIP3   OH213202   6.198   2.562   5.232 -0.2330 -0.0150  0.3024
 4413TIP3    H113203   6.136   2.633   5.213 -0.8300 -0.2048  1.4305
 4413TIP3    H213204   6.146   2.497   5.280  0.8304 -0.1553  1.3318
 4414TIP3   OH213205   5.831   4.481   2.253 -0.3613  0.4527 -0.2031
 4414TIP3    H113206   5.838   4.516   2.341  1.5831 -1.4620  0.4995
 4414TIP3    H213207   5.845   4.386   2.263  0.4191  0.2318 -2.5736
 4415TIP3   OH213208   1.907   6.454   2.429 -0.6755 -0.1716  0.0903
 4415TIP3    H113209   1.933   6.448   2.521 -1.4467 -1.1098  0.2638
 4415TIP3    H213210   1.811   6.453   2.431 -0.6977 -0.2951 -0.7340
 4416TIP3   OH213211   6.141   4.309   0.432  0.2426 -0.4193 -0.3576
 4416TIP3    H113212   6.212   4.370   0.453  0.3792 -1.0640  1.2463
 4416TIP3    H213213   6.089   4.306   0.513 -1.0226 -0.7539 -1.1623
 4417TIP3   OH213214   0.124   6.001   0.279  0.3122  0.1671  0.5897
 4417TIP3    H113215   0.114   5.919   0.327  1.0121  0.1802  0.7688
 4417TIP3    H213216   0.044   6.051   0.299  0.4024  0.0009  1.4097
 4418TIP3   OH213217   3.509   1.625   4.155  0.7774  0.4980  0.9242
 4418TIP3    H113218   3.464   1.542   4.141  0.9840  0.3021  1.4153
 4418TIP3    H213219   3.445   1.691   4.130  0.2035  0.2264  1.6375
 4419TIP3   OH213220   5.598   3.369   2.681  0.6475 -0.3296  0.3214
 4419TIP3    H113221   5.634   3.303   2.622 -0.2795  0.0674 -0.7115
 4419TIP3    H213222   5.525   3.408   2.633  0.5771  0.7899  1.2838
 4420TIP3   OH213223   6.024   3.813   2.894  0.2580  0.2127  0.3462
 4420TIP3    H113224   5.981   3.728   2.887  0.8160 -0.0708  0.2742
 4420TIP3    H213225   5.970   3.862   2.955  0.2075 -0.3685  0.7776
 4421TIP3   OH213226   1.099   3.917   4.393  0.0426  0.2146  0.1073
 4421TIP3    H113227   1.071   3.967   4.316 -2.5630  0.3856  1.0817
 4421TIP3    H213228   1.118   3.830   4.359 -1.7800  0.0831 -0.6588
 4422TIP3   OH213229   6.167   4.465   2.711 -0.0318  0.2414  0.5198
 4422TIP3    H113230   6.109   4.534   2.744 -2.8549 -0.7412 -1.9427
 4422TIP3    H213231   6.222   4.510   2.647  1.1346  0.9366  1.9513
 4423TIP3   OH213232   1.835   0.171   0.619  0.0330 -0.1790 -0.3728
 4423TIP3    H113233   1.906   0.178   0.555  0.0987 -0.7217 -0.3612
 4423TIP3    H213234   1.837   0.255   0.665  0.1330  0.1313 -0.9251
 4424TIP3   OH213235   2.759   3.842   1.640  0.0056 -0.4720 -0.0197
 4424TIP3    H113236   2.733   3.765   1.589 -0.2279 -0.0321 -0.5749
 4424TIP3    H213237   2.720   3.916   1.594  1.8620  0.1868 -0.6449
 4425TIP3   OH213238   2.715   5.472   0.871 -0.7105  0.1191 -0.0794
 4425TIP3    H113239   2.642   5.411   0.880  1.0081 -2.5100 -2.0705
 4425TIP3    H213240   2.753   5.477   0.959 -1.3296 -1.1586  0.2866
 4426TIP3   OH213241   3.033   0.982   0.976 -0.5669 -0.0755  0.0097
 4426TIP3    H113242   2.976   1.057   0.991  1.5465  2.0328 -1.7288
 4426TIP3    H213243   3.106   0.994   1.036 -0.0330 -0.5134 -0.5334
 4427TIP3   OH213244   4.609   5.153   5.610  0.2296 -0.3874  0.3533
 4427TIP3    H113245   4.572   5.241   5.613  0.9089 -0.0933  0.3661
 4427TIP3    H213246   4.703   5.167   5.594 -0.0590 -1.1762 -2.6466
 4428TIP3   OH213247   1.821   0.937   3.396  0.0750 -0.0854  0.5338
 4428TIP3    H113248   1.777   0.910   3.476 -0.3883  0.0156  0.3161
 4428TIP3    H213249   1.784   0.882   3.328  2.2180 -1.9102  0.7200
 4429TIP3   OH213250   0.713   2.006   5.511  1.2688 -0.3115  0.5995
 4429TIP3    H113251   0.708   2.102   5.511  0.3167 -0.3469 -0.1144
 4429TIP3    H213252   0.749   1.984   5.425 -0.3569 -0.6493 -0.0243
 4430TIP3   OH213253   0.554   1.339   3.438  0.1767 -0.4779  0.2265
 4430TIP3    H113254   0.573   1.276   3.368 -0.7729 -2.4256  1.6209
 4430TIP3    H213255   0.498   1.404   3.397  1.5234 -0.2719 -1.3802
 4431TIP3   OH213256   0.499   2.160   2.710 -0.0053  0.5590  0.3637
 4431TIP3    H113257   0.434   2.091   2.714  0.6121 -0.0195  0.7235
 4431TIP3    H213258   0.564   2.135   2.776  0.4771  1.2190  0.1461
 4432TIP3   OH213259   6.680   3.292   5.174  0.1827 -0.3263 -0.4167
 4432TIP3    H113260   6.712   3.309   5.262 -0.9018 -2.2899  0.4292
 4432TIP3    H213261   6.649   3.378   5.142  1.5553  0.6024  0.6666
 4433TIP3   OH213262   1.107   3.815   3.609 -0.2523 -0.4872 -0.6591
 4433TIP3    H113263   1.174   3.857   3.556  0.4688 -0.9951 -0.1634
 4433TIP3    H213264   1.137   3.725   3.619 -0.7470 -0.5893 -0.0103
 4434TIP3   OH213265   0.228   2.947   2.578  0.3098 -0.1492  0.0126
 4434TIP3    H113266   0.271   2.879   2.629  1.7004  1.6385  1.3568
 4434TIP3    H213267   0.274   2.947   2.494  0.6906 -0.4535  0.2209
 4435TIP3   OH213268   0.243   4.563   5.645  0.4483  0.2417  0.0585
 4435TIP3    H113269   0.169   4.556   5.705 -0.0986 -0.8388 -0.7059
 4435TIP3    H213270   0.240   4.653   5.613  0.7035  0.8098  1.5655
 4436TIP3   OH213271   3.594   1.956   1.737 -0.2780  0.0893 -0.0000
 4436TIP3    H113272   3.571   1.872   1.697  2.6498 -0.8148 -0.0580
 4436TIP3    H213273   3.587   2.020   1.666 -2.7151  0.0025  0.0884
 4437TIP3   OH213274   1.122   3.360   1.154 -0.0609 -0.2397  0.5325
 4437TIP3    H113275   1.169   3.324   1.229 -0.2719 -0.9174  0.3508
 4437TIP3    H213276   1.127   3.291   1.088 -0.0749  0.2576  0.0031
 4438TIP3   OH213277   3.808   3.915   0.260  0.4093  0.1960 -0.4287
 4438TIP3    H113278   3.726   3.964   0.261  0.5103  0.4151  1.7779
 4438TIP3    H213279   3.857   3.952   0.186 -0.4819  1.7852 -0.2737
 4439TIP3   OH213280   0.320   1.962   5.477 -0.6817 -0.1092  0.1986
 4439TIP3    H113281   0.291   2.026   5.542  0.0428 -0.4765  0.8849
 4439TIP3    H213282   0.381   2.011   5.421 -0.6245 -0.0365  0.3250
 4440TIP3   OH213283   2.748   0.388   5.638 -0.0337 -0.1354  0.2756
 4440TIP3    H113284   2.721   0.477   5.615  0.2207 -0.4045 -1.1052
 4440TIP3    H213285   2.832   0.400   5.684 -0.2380  0.3624  0.5278
 4441TIP3   OH213286   7.236   4.131   5.253  0.1716 -0.5088 -0.1305
 4441TIP3    H113287   7.200   4.157   5.338  1.4323  0.8680  0.0212
 4441TIP3    H213288   7.159   4.110   5.200 -0.6840 -0.4292  1.0375
 4442TIP3   OH213289   5.670   4.352   3.388  0.2184  0.4891  0.1444
 4442TIP3    H113290   5.578   4.330   3.397  0.1807  1.0085  1.1030
 4442TIP3    H213291   5.674   4.447   3.401  0.9565  0.3808  0.7968
 4443TIP3   OH213292   4.581   4.759   0.593 -0.4496  0.5131  0.0082
 4443TIP3    H113293   4.594   4.817   0.669 -1.7299 -0.3391  0.9097
 4443TIP3    H213294   4.642   4.793   0.527  1.8427  0.3584  1.9061
 4444TIP3   OH213295   5.418   4.631   0.210  0.0707  0.5551 -0.4979
 4444TIP3    H113296   5.347   4.569   0.193  0.1452  0.2503  0.2561
 4444TIP3    H213297   5.477   4.621   0.136 -0.5443  0.6336 -1.0107
 4445TIP3   OH213298   6.413   4.777   4.992 -0.4858  0.2787 -0.2079
 4445TIP3    H113299   6.375   4.817   5.070  0.6292  1.4611 -0.2269
 4445TIP3    H213300   6.378   4.829   4.919  0.0155  0.4540 -0.3313
 4446TIP3   OH213301   2.994   5.775   0.201 -0.7384  0.0046 -0.2425
 4446TIP3    H113302   2.997   5.756   0.108 -1.2695  0.7010 -0.4132
 4446TIP3    H213303   2.994   5.871   0.206 -0.0865 -0.0221  0.4994
 4447TIP3   OH213304   6.377   1.630   3.646 -0.1604 -0.2873 -0.0130
 4447TIP3    H113305   6.441   1.678   3.699  0.2900 -1.0171  0.1165
 4447TIP3    H213306   6.349   1.693   3.580  1.7014 -0.3267 -0.9066
 4448TIP3   OH213307   6.475   3.659   1.820 -0.1172 -0.2512  0.5667
 4448TIP3    H113308   6.413   3.596   1.858 -0.6501  0.7209  1.3385
 4448TIP3    H213309   6.462   3.740   1.870  2.1252 -0.1386  1.1119
 4449TIP3   OH213310   1.538   0.272   1.135  0.1043 -0.0831  0.1812
 4449TIP3    H113311   1.508   0.347   1.186  0.8946  1.6932 -1.8270
 4449TIP3    H213312   1.466   0.210   1.138 -0.4194  0.5553  2.2331
 4450TIP3   OH213313   6.624   2.363   4.728 -0.3570  0.5077  0.4141
 4450TIP3    H113314   6.712   2.345   4.763 -0.0791  0.5934 -0.2230
 4450TIP3    H213315   6.587   2.427   4.789  0.2085  0.8295  0.4292
 4451TIP3   OH213316   5.267   5.182   0.975  0.4986 -0.2648  0.8042
 4451TIP3    H113317   5.279   5.202   0.882  1.8043 -1.6401  0.6493
 4451TIP3    H213318   5.297   5.261   1.020 -1.0429  0.7910  0.0701
 4452TIP3   OH213319   0.597   5.017   2.345 -0.3644  0.2416 -0.1827
 4452TIP3    H113320   0.604   4.922   2.329 -1.4527  0.2169 -0.6053
 4452TIP3    H213321   0.613   5.027   2.439  0.5080 -0.2720 -0.2688
 4453TIP3   OH213322   6.128   4.197   2.593 -0.8784  0.5955 -0.3888
 4453TIP3    H113323   6.221   4.190   2.569 -1.2727  1.0110 -2.1850
 4453TIP3    H213324   6.101   4.283   2.560 -2.7940 -0.9823 -3.3894
 4454TIP3   OH213325   3.951   1.731   0.458  0.6284  0.2401 -0.4324
 4454TIP3    H113326   3.898   1.802   0.424  2.0678  0.9608 -1.2516
 4454TIP3    H213327   4.020   1.774   0.507  1.3114 -0.6038 -0.6363
 4455TIP3   OH213328   4.603   0.939   4.819 -0.6385  0.3008 -0.2519
 4455TIP3    H113329   4.694   0.968   4.830 -0.5991  1.0515 -2.1553
 4455TIP3    H213330   4.550   1.009   4.857 -0.4645  1.4224 -1.9965
 4456TIP3   OH213331   7.001   3.889   3.645  0.3448  0.2745  0.1258
 4456TIP3    H113332   7.017   3.973   3.602  1.7110  0.1109  0.2881
 4456TIP3    H213333   6.986   3.827   3.573 -1.0475  0.7121  0.0171
 4457TIP3   OH213334   4.717   3.879   5.612 -0.2884 -0.1041  0.3503
 4457TIP3    H113335   4.773   3.876   5.535 -0.1102  1.7718  0.3573
 4457TIP3    H213336   4.661   3.801   5.605  0.6597 -0.6899 -0.9257
 4458TIP3   OH213337   3.107   6.113   0.738  0.3433 -0.0290 -0.2541
 4458TIP3    H113338   3.117   6.025   0.772 -0.7518  0.3888  1.2736
 4458TIP3    H213339   3.146   6.169   0.805 -2.6608  0.8835  0.9093
 4459TIP3   OH213340   3.268   3.768   4.840 -0.8279 -0.3242 -0.2070
 4459TIP3    H113341   3.302   3.723   4.763  2.1602  0.0993  0.7388
 4459TIP3    H213342   3.283   3.707   4.913 -0.5930  0.5490  0.4922
 4460TIP3   OH213343   2.145   6.219   5.756  0.2322  0.0070  0.2538
 4460TIP3    H113344   2.225   6.250   5.713  0.1455 -0.0238  0.0695
 4460TIP3    H213345   2.175   6.189   5.842  0.5817 -0.8628 -0.1520
 4461TIP3   OH213346   3.386   1.588   0.902  0.7032  0.0495 -0.2272
 4461TIP3    H113347   3.473   1.620   0.927 -0.4430  2.0220  1.6027
 4461TIP3    H213348   3.356   1.649   0.835 -0.1955  0.9319  0.9251
 4462TIP3   OH213349   3.348   5.505   1.370  0.2737  0.0002 -0.2101
 4462TIP3    H113350   3.255   5.504   1.393  0.8051  0.2835  2.2615
 4462TIP3    H213351   3.366   5.417   1.338 -1.1561  0.4203 -2.3770
 4463TIP3   OH213352   6.222   0.751   3.923 -0.2184  0.1723  0.1637
 4463TIP3    H113353   6.182   0.688   3.982 -1.8633  0.7645 -0.2724
 4463TIP3    H213354   6.166   0.828   3.928  0.7474  0.9556 -0.6521
 4464TIP3   OH213355   4.064   5.289   3.049  0.0038  0.0251  0.5307
 4464TIP3    H113356   4.047   5.373   3.008 -0.8150  0.3692  1.5364
 4464TIP3    H213357   4.009   5.288   3.127  0.2579 -1.2966  0.7309
 4465TIP3   OH213358   2.700   5.714   3.499  0.1339  0.0376 -0.1981
 4465TIP3    H113359   2.759   5.660   3.447  1.5264  2.0846 -0.8582
 4465TIP3    H213360   2.677   5.787   3.441 -4.5736 -1.4494 -0.6881
 4466TIP3   OH213361   4.205   6.149   2.532  0.0788 -0.6323  0.0343
 4466TIP3    H113362   4.240   6.116   2.449  0.7817 -1.8212  0.7671
 4466TIP3    H213363   4.140   6.084   2.558  0.3897 -0.6552  0.7678
 4467TIP3   OH213364   4.797   1.915   4.718 -0.3359  0.2092  0.1426
 4467TIP3    H113365   4.706   1.905   4.690 -0.5896 -0.7805  1.2639
 4467TIP3    H213366   4.826   1.826   4.738  0.4566  0.6598  1.0649
 4468TIP3   OH213367   0.494   3.188   2.297  0.3774 -0.2485  0.6703
 4468TIP3    H113368   0.447   3.120   2.249 -2.9415  2.5390 -0.4832
 4468TIP3    H213369   0.448   3.194   2.381 -0.1443  1.1711  0.3258
 4469TIP3   OH213370   5.898   1.658   4.016  0.7884  0.0650  0.3567
 4469TIP3    H113371   5.917   1.693   3.929 -0.4195  0.4385  0.2267
 4469TIP3    H213372   5.915   1.732   4.075  0.2034  0.2658  0.2827
 4470TIP3   OH213373   2.310   5.044   0.682  0.3254 -0.5453 -0.5345
 4470TIP3    H113374   2.238   5.066   0.623  0.7836  0.7443 -0.6424
 4470TIP3    H213375   2.378   5.108   0.663  1.0111 -0.9437  0.4577
 4471TIP3   OH213376   0.072   2.512   2.443 -0.1439 -0.0997 -0.2248
 4471TIP3    H113377   0.078   2.418   2.422  1.6274 -0.0927  0.1690
 4471TIP3    H213378   0.140   2.553   2.390 -0.1885  0.8307  0.4163
 4472TIP3   OH213379   5.205   4.473   1.516 -0.0913  0.0489 -0.0114
 4472TIP3    H113380   5.192   4.497   1.425 -1.0364  0.0136  0.0991
 4472TIP3    H213381   5.119   4.442   1.545 -0.1106  1.1664  1.2221
 4473TIP3   OH213382   3.758   2.013   0.911 -0.3278 -0.1691 -0.0280
 4473TIP3    H113383   3.674   2.040   0.950 -0.9952 -0.0465 -1.4751
 4473TIP3    H213384   3.777   2.082   0.847  0.5740 -0.5232 -0.1435
 4474TIP3   OH213385   6.621   1.482   1.016 -0.9217 -0.5153 -0.4626
 4474TIP3    H113386   6.556   1.427   0.972  1.2501 -1.7021 -2.4032
 4474TIP3    H213387   6.590   1.572   1.001 -3.2788 -1.0370  0.7261
 4475TIP3   OH213388   1.462   1.752   0.082  0.1100 -0.0336 -0.2622
 4475TIP3    H113389   1.492   1.665   0.059  0.1297  0.3393 -1.7626
 4475TIP3    H213390   1.421   1.785   0.002 -1.0497  0.8468  0.6579
 4476TIP3   OH213391   2.975   0.093   0.935 -0.5643 -0.0890 -0.1093
 4476TIP3    H113392   2.899   0.043   0.908  1.9840 -2.6374 -3.4386
 4476TIP3    H213393   3.009   0.046   1.012 -0.3743 -1.1554 -0.8272
 4477TIP3   OH213394   3.116   4.536   2.046 -0.1689  0.2140  0.0660
 4477TIP3    H113395   3.117   4.582   2.131 -2.0775 -0.7933  0.7114
 4477TIP3    H213396   3.045   4.579   1.997  0.8976  0.7636 -1.0353
 4478TIP3   OH213397   4.185   5.849   1.087  0.1698  0.2553  0.2711
 4478TIP3    H113398   4.178   5.895   1.171 -2.8300 -0.9739  0.8382
 4478TIP3    H213399   4.099   5.861   1.046  0.7662 -1.1840 -1.5413
 4479TIP3   OH213400   4.021   2.965   2.745  0.4336  0.0043  0.2239
 4479TIP3    H113401   3.943   2.944   2.694  0.2361 -1.5949  1.1227
 4479TIP3    H213402   4.020   3.060   2.752 -1.5274  0.0147  0.3398
 4480TIP3   OH213403   1.939   6.523   1.541  0.2804  0.1686  0.5948
 4480TIP3    H113404   1.876   6.590   1.514  0.8523 -0.1441 -1.8173
 4480TIP3    H213405   2.025   6.565   1.530  0.6698 -1.0232 -1.4259
 4481TIP3   OH213406   4.641   3.422   3.758 -0.1294  0.0190 -0.1768
 4481TIP3    H113407   4.727   3.381   3.743  0.0845  0.2306  0.4622
 4481TIP3    H213408   4.638   3.493   3.695 -1.3102 -2.1078 -2.7082
 4482TIP3   OH213409   3.117   0.420   4.148 -0.1142  0.1888  0.5307
 4482TIP3    H113410   3.147   0.365   4.220 -0.4972  0.7044  1.1000
 4482TIP3    H213411   3.055   0.481   4.189  1.2713  1.9023  0.1755
 4483TIP3   OH213412   1.901   1.466   2.601 -0.3091  0.2161 -0.0941
 4483TIP3    H113413   1.982   1.427   2.567 -0.8609 -0.9981 -0.0722
 4483TIP3    H213414   1.921   1.559   2.609  1.8966 -0.3126  2.0768
 4484TIP3   OH213415   2.882   5.451   0.070  0.1015  0.4508 -0.2270
 4484TIP3    H113416   2.885   5.538   0.031  0.5549 -0.3080 -1.9915
 4484TIP3    H213417   2.917   5.393   0.002 -0.6446 -1.1776  0.7173
 4485TIP3   OH213418   1.786   1.659   2.993 -0.1686  0.4219 -0.2841
 4485TIP3    H113419   1.838   1.733   2.961 -0.7181  0.6945 -0.5734
 4485TIP3    H213420   1.829   1.582   2.958  1.1130  0.5169  0.9974
 4486TIP3   OH213421   7.022   5.949   5.868 -0.3469 -0.2978  0.0717
 4486TIP3    H113422   7.019   5.971   5.961  1.1032  1.6664 -0.2831
 4486TIP3    H213423   7.114   5.938   5.848 -0.4852  0.8430 -1.4180
 4487TIP3   OH213424   5.574   3.966   3.187  0.1294  0.4647  0.2840
 4487TIP3    H113425   5.498   3.917   3.217 -0.3359  0.7954 -0.3256
 4487TIP3    H213426   5.615   3.908   3.122 -1.0006  1.2421 -1.2068
 4488TIP3   OH213427   7.161   2.432   2.734 -0.2643  0.4555  0.0863
 4488TIP3    H113428   7.191   2.380   2.660 -0.4110  0.1554  0.2371
 4488TIP3    H213429   7.195   2.520   2.717  2.3020 -0.2342  1.1405
 4489TIP3   OH213430   2.709   3.529   0.065 -0.2811 -0.2155 -0.0271
 4489TIP3    H113431   2.712   3.478   0.146 -0.5977  1.1443  0.8750
 4489TIP3    H213432   2.783   3.590   0.073 -0.8096  0.4751 -0.3782
 4490TIP3   OH213433   1.466   4.286   4.542  0.4226  0.1299 -0.1490
 4490TIP3    H113434   1.548   4.265   4.497  0.8309 -1.1942  1.1439
 4490TIP3    H213435   1.410   4.209   4.528  0.9062 -0.7634  2.3242
 4491TIP3   OH213436   3.830   0.955   2.553 -0.1317 -0.1499 -0.1769
 4491TIP3    H113437   3.924   0.938   2.544 -0.1333  0.4015 -1.4469
 4491TIP3    H213438   3.825   1.032   2.610  0.0831 -1.1872  1.3185
 4492TIP3   OH213439   1.651   1.899   4.798 -0.0993 -0.0700  0.4633
 4492TIP3    H113440   1.631   1.820   4.748  2.4434  0.7812 -2.2158
 4492TIP3    H213441   1.732   1.879   4.843  2.5453  1.8154 -2.9515
 4493TIP3   OH213442   1.349   0.158   5.653 -0.7567  0.3393 -0.0433
 4493TIP3    H113443   1.393   0.079   5.620 -0.4463 -0.0906  1.3421
 4493TIP3    H213444   1.411   0.229   5.635 -0.3036  0.0140  0.2127
 4494TIP3   OH213445   0.537   5.095   4.286 -0.4536  0.4765 -0.4136
 4494TIP3    H113446   0.559   5.178   4.328  2.4608 -0.6324  0.5416
 4494TIP3    H213447   0.502   5.120   4.200 -0.1836  2.6755  0.0532
 4495TIP3   OH213448   6.716   4.896   2.762 -0.5573 -0.0299  0.3414
 4495TIP3    H113449   6.742   4.917   2.851 -1.1163  0.5517  0.3733
 4495TIP3    H213450   6.720   4.800   2.757  0.6985 -0.0104  0.6052
 4496TIP3   OH213451   5.739   5.671   3.952 -0.6390 -0.2879  0.0961
 4496TIP3    H113452   5.725   5.662   4.046  1.6091  2.2397  0.8366
 4496TIP3    H213453   5.671   5.732   3.923  0.3751  1.2730  0.8056
 4497TIP3   OH213454   3.869   3.227   0.932 -0.2088  0.2397 -0.0223
 4497TIP3    H113455   3.861   3.175   0.852 -1.7036  1.5096 -0.7474
 4497TIP3    H213456   3.786   3.213   0.978 -0.2674  1.2859  0.2032
 4498TIP3   OH213457   2.796   5.182   0.118  0.1136 -0.2547 -0.7855
 4498TIP3    H113458   2.891   5.188   0.134  0.3207  0.0994 -2.0757
 4498TIP3    H213459   2.767   5.273   0.115 -0.2387 -0.3613 -0.6250
 4499TIP3   OH213460   3.485   6.104   4.150 -0.2279 -0.0841  0.2148
 4499TIP3    H113461   3.408   6.072   4.197 -0.7278 -0.3132 -0.7323
 4499TIP3    H213462   3.532   6.025   4.124  0.1294  0.0460  0.4553
 4500TIP3   OH213463   5.175   4.577   3.436  0.0403  0.0547 -0.1410
 4500TIP3    H113464   5.243   4.599   3.500 -0.3581 -0.8688  0.6264
 4500TIP3    H213465   5.220   4.522   3.371  0.4497  1.0099 -0.6810
 4501TIP3   OH213466   0.589   3.457   3.798 -0.1994 -0.0609 -0.0675
 4501TIP3    H113467   0.500   3.490   3.790 -0.3032 -0.0024  1.1523
 4501TIP3    H213468   0.645   3.535   3.786 -0.2690 -0.2314 -1.6031
 4502TIP3   OH213469   1.804   4.757   0.288 -0.1025  0.0471 -0.1873
 4502TIP3    H113470   1.832   4.770   0.197 -0.8119  0.2065 -0.3892
 4502TIP3    H213471   1.877   4.712   0.329  0.3908  0.3344 -0.7363
 4503TIP3   OH213472   0.898   0.400   1.476 -0.2975  0.4559  0.1930
 4503TIP3    H113473   0.884   0.494   1.478  2.6604  0.9957 -0.4372
 4503TIP3    H213474   0.956   0.385   1.402 -1.5201 -2.0458 -0.3959
 4504TIP3   OH213475   3.476   2.372   4.527 -0.0786 -0.5383  0.3515
 4504TIP3    H113476   3.454   2.294   4.577 -2.9437  0.5938  1.0998
 4504TIP3    H213477   3.514   2.433   4.590 -0.5491 -0.3290  0.4434
 4505TIP3   OH213478   0.362   3.705   3.015  0.3801  0.2271  0.0758
 4505TIP3    H113479   0.369   3.659   2.931 -3.0542 -0.4083  0.0030
 4505TIP3    H213480   0.360   3.798   2.991  1.3269  0.1452 -0.3505
 4506TIP3   OH213481   0.967   1.099   0.604 -0.4024  0.4457  0.0603
 4506TIP3    H113482   1.021   1.162   0.652 -0.8504  1.1538 -0.3605
 4506TIP3    H213483   0.986   1.015   0.646  0.0596  0.8829  0.7447
 4507TIP3   OH213484   3.627   6.498   1.093  0.0867 -0.1623  0.4912
 4507TIP3    H113485   3.635   6.428   1.028  2.0916  0.3418  0.1555
 4507TIP3    H213486   3.543   6.480   1.136 -0.0996 -1.9629 -0.5172
 4508TIP3   OH213487   5.416   4.017   1.663  0.0273  0.1326  0.1213
 4508TIP3    H113488   5.326   3.991   1.643  0.6412 -0.7985 -1.6509
 4508TIP3    H213489   5.414   4.113   1.661 -1.2946  0.1991  2.0609
 4509TIP3   OH213490   0.490   0.563   0.167  0.5391 -0.0324  0.1663
 4509TIP3    H113491   0.480   0.656   0.150 -0.6041  0.1638  1.6914
 4509TIP3    H213492   0.414   0.540   0.219  1.2321 -1.6402  0.5324
 4510TIP3   OH213493   4.528   0.236   1.700  0.4622 -0.0289 -0.0665
 4510TIP3    H113494   4.599   0.284   1.742  0.3551 -0.4601  0.6151
 4510TIP3    H213495   4.546   0.144   1.718  0.3078 -0.2150 -0.8009
 4511TIP3   OH213496   4.296   6.752   0.924  0.0463  0.4621  0.3175
 4511TIP3    H113497   4.249   6.669   0.914 -0.3640  0.4678  1.8462
 4511TIP3    H213498   4.234   6.819   0.897  1.1158  0.2435 -3.1319
 4512TIP3   OH213499   4.196   5.122   0.239  0.3582 -0.3815 -0.6220
 4512TIP3    H113500   4.221   5.177   0.165  0.5509 -0.9688 -1.0018
 4512TIP3    H213501   4.255   5.148   0.310 -0.1706  0.5485 -0.5000
 4513TIP3   OH213502   6.947   3.090   2.683 -0.2700  0.4736 -0.0714
 4513TIP3    H113503   6.978   3.129   2.601  2.2793 -0.1709  0.4812
 4513TIP3    H213504   6.992   3.139   2.752  0.3446 -1.1793  0.7620
 4514TIP3   OH213505   2.281   0.624   3.961 -0.3286 -0.4734 -0.5512
 4514TIP3    H113506   2.214   0.597   3.898 -1.6060  0.7015  0.2442
 4514TIP3    H213507   2.246   0.704   4.000  1.8335  0.5012 -0.5149
 4515TIP3   OH213508   3.979   5.677   4.691 -0.3388  0.1898  0.6237
 4515TIP3    H113509   3.966   5.647   4.601  1.5673 -0.7298  0.6196
 4515TIP3    H213510   4.002   5.598   4.740 -0.8647  0.7604  1.8356
 4516TIP3   OH213511   3.410   3.089   2.223 -0.3659 -0.6037  0.4656
 4516TIP3    H113512   3.394   3.180   2.247 -0.0332 -0.2143 -0.6944
 4516TIP3    H213513   3.406   3.089   2.127  0.4001 -1.6633  0.4140
 4517TIP3   OH213514   0.715   2.151   2.207 -0.0807  0.2698 -0.1697
 4517TIP3    H113515   0.775   2.207   2.257  1.9592 -2.2725  0.5283
 4517TIP3    H213516   0.675   2.094   2.273  0.6699 -1.4199 -1.0959
 4518TIP3   OH213517   6.475   1.978   5.760 -0.0653 -0.7963 -0.1111
 4518TIP3    H113518   6.417   1.961   5.834 -0.2269  0.3709  0.0539
 4518TIP3    H213519   6.422   1.964   5.682 -0.3507 -0.4945  0.0280
 4519TIP3   OH213520   3.103   4.764   0.725  0.2143 -0.0541 -0.2124
 4519TIP3    H113521   3.038   4.760   0.655  0.8752 -0.2375 -0.8370
 4519TIP3    H213522   3.106   4.676   0.761 -0.3522  0.1173  0.2661
 4520TIP3   OH213523   0.230   5.797   2.912 -0.0916  0.1358  0.4950
 4520TIP3    H113524   0.182   5.714   2.902  0.8093 -0.5918  1.8599
 4520TIP3    H213525   0.205   5.848   2.835 -1.1285 -1.1703 -0.0898
 4521TIP3   OH213526   4.496   0.807   2.294  0.0029 -0.1224  0.4922
 4521TIP3    H113527   4.471   0.798   2.202 -0.0453 -0.6149  0.5480
 4521TIP3    H213528   4.414   0.825   2.340 -0.0584 -0.4142  0.5032
 4522TIP3   OH213529   5.672   2.541   3.671  0.5021  0.0214  0.5050
 4522TIP3    H113530   5.676   2.450   3.640  0.5233  0.1443  0.1453
 4522TIP3    H213531   5.744   2.585   3.625 -0.1845  0.4708 -0.1574
 4523TIP3   OH213532   1.367   3.691   2.086 -0.2047  0.2173  0.6705
 4523TIP3    H113533   1.337   3.702   1.996 -0.7662 -1.2647  0.6455
 4523TIP3    H213534   1.289   3.658   2.133  0.7205 -1.4445  1.1301
 4524TIP3   OH213535   2.608   1.712   5.729 -0.2872 -0.8067 -0.2651
 4524TIP3    H113536   2.670   1.762   5.675 -0.7600 -0.9802 -0.9749
 4524TIP3    H213537   2.615   1.622   5.697 -0.1564 -1.0175  0.3491
 4525TIP3   OH213538   3.368   6.453   1.701 -0.3760  0.1185 -0.1077
 4525TIP3    H113539   3.453   6.409   1.695 -1.3311 -1.7004 -1.0220
 4525TIP3    H213540   3.385   6.530   1.756  1.2301 -1.7291  2.1960
 4526TIP3   OH213541   6.654   0.482   4.909 -0.0474  0.0818 -0.9369
 4526TIP3    H113542   6.611   0.450   4.830  0.1120 -4.8479  0.6439
 4526TIP3    H213543   6.588   0.472   4.977  1.5262 -1.4146  0.4480
 4527TIP3   OH213544   1.528   0.004   4.516  0.0991  0.0827  0.0366
 4527TIP3    H113545   1.510  -0.008   4.423  1.4713  0.0866 -0.2602
 4527TIP3    H213546   1.478   0.082   4.541 -0.8314 -0.3233 -0.5110
 4528TIP3   OH213547   6.281   3.257   2.141  0.2809 -0.6488 -0.1098
 4528TIP3    H113548   6.375   3.262   2.160  0.0311 -0.7373  1.2313
 4528TIP3    H213549   6.239   3.267   2.226 -0.8815 -2.6762 -0.3761
 4529TIP3   OH213550   1.328   3.772   1.816 -0.3191  0.7094 -0.1803
 4529TIP3    H113551   1.383   3.839   1.778 -0.7819  1.7777  0.9554
 4529TIP3    H213552   1.292   3.724   1.742  1.9637  0.0773 -0.9612
 4530TIP3   OH213553   4.173   3.112   4.254  0.0431 -0.5563  0.1217
 4530TIP3    H113554   4.079   3.096   4.268  0.4889 -2.1053  1.5464
 4530TIP3    H213555   4.180   3.128   4.159 -1.5891 -0.8564 -0.0849
 4531TIP3   OH213556   4.875   0.921   2.435  0.3386  0.3910 -0.3849
 4531TIP3    H113557   4.876   0.957   2.524  1.9548  0.9350 -0.5786
 4531TIP3    H213558   4.818   0.844   2.440  1.4548 -0.3804  1.4621
 4532TIP3   OH213559   5.907   0.177   2.502  0.1532 -0.4952 -0.2081
 4532TIP3    H113560   5.883   0.117   2.431 -2.0298  1.0852 -0.9147
 4532TIP3    H213561   5.977   0.230   2.464  0.3677 -0.9468 -0.4573
 4533TIP3   OH213562   0.031   0.763   0.644 -0.0879 -0.0959 -0.1074
 4533TIP3    H113563  -0.030   0.825   0.685 -0.1356 -0.5537  0.5218
 4533TIP3    H213564   0.109   0.816   0.624 -0.0173  0.1079  0.6823
 4534TIP3   OH213565   4.500   6.774   5.331 -0.1512  0.4964 -0.1588
 4534TIP3    H113566   4.520   6.682   5.314 -0.9952  0.4109 -0.7331
 4534TIP3    H213567   4.557   6.822   5.271 -0.5467  0.3056 -0.6946
 4535TIP3   OH213568   5.407   2.223   0.675 -0.2693  0.9387  0.2766
 4535TIP3    H113569   5.491   2.195   0.711 -0.7581 -0.0156  0.7199
 4535TIP3    H213570   5.413   2.203   0.582 -1.0133 -1.8585  0.7340
 4536TIP3   OH213571   2.434   6.454   2.790 -0.5313  0.0358 -0.0182
 4536TIP3    H113572   2.451   6.381   2.850 -1.9289 -0.8063 -0.5887
 4536TIP3    H213573   2.339   6.454   2.779 -0.3990  0.8761 -1.3653
 4537TIP3   OH213574   6.070   6.117   0.896  0.1260  0.0472  0.3033
 4537TIP3    H113575   6.007   6.141   0.964  0.5813  2.8398 -0.1583
 4537TIP3    H213576   6.134   6.188   0.895  0.3910 -0.0783 -2.7142
 4538TIP3   OH213577   1.458   5.081   0.568  0.7592 -0.0908 -0.0640
 4538TIP3    H113578   1.475   5.168   0.532 -2.3395  0.8646  0.4842
 4538TIP3    H213579   1.410   5.035   0.499  0.2791 -0.4936  0.5229
 4539TIP3   OH213580   0.622   1.883   2.024 -0.6095  0.6571  0.5353
 4539TIP3    H113581   0.537   1.922   2.047 -0.8698  2.0599 -2.3626
 4539TIP3    H213582   0.608   1.848   1.936  1.8169  0.8345  0.0363
 4540TIP3   OH213583   6.587   0.868   0.285  0.7031 -0.1066 -0.0277
 4540TIP3    H113584   6.556   0.907   0.367  1.8368  0.1408  0.3040
 4540TIP3    H213585   6.510   0.824   0.248 -0.8167  2.8831 -0.7034
 4541TIP3   OH213586   2.492   1.594   2.410  0.2529 -0.6077  0.5336
 4541TIP3    H113587   2.498   1.516   2.355  3.1018 -1.0745  1.3256
 4541TIP3    H213588   2.583   1.616   2.430 -0.4971  2.3382  1.1967
 4542TIP3   OH213589   0.721   6.648   0.841 -0.0700  0.0524 -0.2278
 4542TIP3    H113590   0.656   6.594   0.885 -1.1661  1.3042 -0.2501
 4542TIP3    H213591   0.674   6.728   0.818  1.4509  0.9434 -0.3539
 4543TIP3   OH213592   7.161   6.290   3.756  0.0993 -0.0250  0.5138
 4543TIP3    H113593   7.220   6.216   3.771 -0.0880 -0.0355  1.2029
 4543TIP3    H213594   7.073   6.254   3.767 -0.0204  0.1434  0.1442
 4544TIP3   OH213595   6.720   1.543   3.652  0.7021 -0.3401 -0.4870
 4544TIP3    H113596   6.739   1.576   3.565  1.9128 -1.0662 -0.5090
 4544TIP3    H213597   6.669   1.614   3.694  0.8148  0.3453 -1.4827
 4545TIP3   OH213598   0.790   3.008   4.401 -0.4453 -0.4295  0.4981
 4545TIP3    H113599   0.705   2.976   4.431 -1.4010  2.0943  0.7062
 4545TIP3    H213600   0.774   3.039   4.312 -0.4586  2.3419  1.3736
 4546TIP3   OH213601   6.750   3.238   3.004 -0.5986  0.0090 -0.5108
 4546TIP3    H113602   6.778   3.288   2.927 -2.7144 -0.1765 -1.4706
 4546TIP3    H213603   6.807   3.268   3.075  0.3855  1.3161 -1.8047
 4547TIP3   OH213604   0.388   3.260   4.009  0.6019 -0.4901 -0.0892
 4547TIP3    H113605   0.454   3.267   4.078  2.0923  0.0630 -1.4753
 4547TIP3    H213606   0.426   3.199   3.946  0.5047  0.9232 -1.6175
 4548TIP3   OH213607   0.705   4.554   1.675  0.3594  0.0398 -0.4445
 4548TIP3    H113608   0.757   4.631   1.650 -0.0736  0.7141  0.6837
 4548TIP3    H213609   0.750   4.518   1.751 -1.9743  1.9901  2.0573
 4549TIP3   OH213610   1.532   0.485   4.037  0.1551  0.5880  0.4089
 4549TIP3    H113611   1.523   0.520   4.126 -1.0523 -0.5572  0.7701
 4549TIP3    H213612   1.603   0.421   4.044 -1.2963 -1.0276  1.0954
 4550TIP3   OH213613   4.562   6.692   0.181 -0.4533  0.5790 -0.0441
 4550TIP3    H113614   4.611   6.622   0.138  1.1256  0.3327  2.0138
 4550TIP3    H213615   4.548   6.757   0.112  2.3613  0.4197 -0.8888
 4551TIP3   OH213616   6.593   4.297   4.253  0.4329 -0.4352 -0.0829
 4551TIP3    H113617   6.575   4.220   4.307  0.6014 -1.2159 -1.1153
 4551TIP3    H213618   6.681   4.324   4.277 -0.7914  1.5523  2.7650
 4552TIP3   OH213619   3.105   4.546   5.844 -0.3012 -0.3803 -0.0948
 4552TIP3    H113620   3.071   4.546   5.754 -1.1027  4.0958 -0.0116
 4552TIP3    H213621   3.027   4.541   5.899 -0.3849  2.6369  0.1803
 4553TIP3   OH213622   4.241   6.228   0.652  0.0549  0.1628  0.0546
 4553TIP3    H113623   4.326   6.193   0.627  0.3777 -0.1360  1.4948
 4553TIP3    H213624   4.210   6.273   0.573  1.9959  1.1695 -0.2175
 4554TIP3   OH213625   1.917   4.731   5.472 -0.0235 -0.1266  0.0282
 4554TIP3    H113626   1.940   4.660   5.532  0.4567 -0.9312 -1.0727
 4554TIP3    H213627   1.937   4.811   5.520  1.0108 -0.7584  0.6758
 4555TIP3   OH213628   6.295   3.495   1.959 -0.0875 -0.2996 -0.6379
 4555TIP3    H113629   6.253   3.452   1.884  2.7532 -0.0405 -2.5214
 4555TIP3    H213630   6.311   3.425   2.021  0.7629 -1.2275 -1.8675
 4556TIP3   OH213631   2.662   1.164   2.859 -0.4592 -0.2729 -0.4748
 4556TIP3    H113632   2.624   1.179   2.945 -1.8536  0.0037 -1.1225
 4556TIP3    H213633   2.746   1.210   2.862 -0.7181  0.1627  0.5615
 4557TIP3   OH213634   4.199   1.252   1.319 -0.1434  0.4146 -0.6937
 4557TIP3    H113635   4.164   1.187   1.379 -0.7386  1.0368 -0.3420
 4557TIP3    H213636   4.293   1.234   1.314 -0.1898 -0.0171 -0.0446
 4558TIP3   OH213637   1.563   3.581   3.088  0.0817 -0.2824  0.4105
 4558TIP3    H113638   1.579   3.660   3.139 -0.7412 -0.7345  1.3966
 4558TIP3    H213639   1.612   3.513   3.134  0.4979 -0.4194 -0.2288
 4559TIP3   OH213640   2.836   6.663   4.831 -0.4816 -0.0465  0.2911
 4559TIP3    H113641   2.861   6.650   4.923 -1.6707  0.7811  0.7532
 4559TIP3    H213642   2.766   6.599   4.816 -0.5002  0.0260  0.0623
 4560TIP3   OH213643   6.631   3.930   0.365 -0.4926  0.6627 -0.2906
 4560TIP3    H113644   6.662   3.965   0.281 -1.1319 -0.1165 -0.8589
 4560TIP3    H213645   6.640   3.835   0.357 -0.9246  0.5569  0.3727
 4561TIP3   OH213646   3.340   3.523   2.894  0.3439  0.3749  0.1162
 4561TIP3    H113647   3.422   3.475   2.886 -0.8214 -1.7163 -0.1821
 4561TIP3    H213648   3.280   3.460   2.935 -1.2726  1.6011 -0.2620
 4562TIP3   OH213649   3.945   0.308   4.962 -0.3415  0.3484 -0.1994
 4562TIP3    H113650   4.002   0.383   4.943 -1.5509  1.4332  0.3380
 4562TIP3    H213651   3.958   0.292   5.056  0.9893 -1.0630 -0.5896
 4563TIP3   OH213652   2.045   1.066   2.220  0.3792  0.5376  0.3941
 4563TIP3    H113653   2.109   1.054   2.290  1.0902  0.9000 -0.1806
 4563TIP3    H213654   2.018   1.158   2.227  1.0118  0.7894 -0.2495
 4564TIP3   OH213655   1.160   5.138   3.047  0.8924 -0.0911  0.1431
 4564TIP3    H113656   1.212   5.112   2.970  0.8397  1.2298 -0.3538
 4564TIP3    H213657   1.194   5.224   3.072  1.0414 -0.5771  1.7450
 4565TIP3   OH213658   4.035   2.404   3.484  0.6183  0.4251  0.0208
 4565TIP3    H113659   3.998   2.448   3.560  2.4863  0.0383  1.2257
 4565TIP3    H213660   4.034   2.311   3.507  0.3885  0.2211 -0.7968
 4566TIP3   OH213661   2.187   1.910   1.253 -0.2437  0.4495 -0.2416
 4566TIP3    H113662   2.144   1.841   1.303  0.1836 -0.1257 -0.6566
 4566TIP3    H213663   2.280   1.890   1.258 -0.1920  0.3573 -1.2750
 4567TIP3   OH213664   6.507   2.113   2.094 -0.4835  0.3348 -0.2665
 4567TIP3    H113665   6.531   2.137   2.184  0.6293 -2.0052  0.1670
 4567TIP3    H213666   6.591   2.103   2.049 -0.7916 -2.1871 -0.4449
 4568TIP3   OH213667   6.671   4.421   2.641  0.6057  0.1185 -0.3647
 4568TIP3    H113668   6.623   4.491   2.598  0.9680  0.6089  0.0155
 4568TIP3    H213669   6.736   4.393   2.577  0.5039  0.1733 -0.4906
 4569TIP3   OH213670   2.407   4.940   4.397 -0.0769  0.1259  0.0450
 4569TIP3    H113671   2.406   4.927   4.302  1.7569  0.5551 -0.0629
 4569TIP3    H213672   2.476   4.883   4.429 -2.0941 -1.7011  1.4663
 4570TIP3   OH213673   6.024   4.049   1.610 -0.1827 -0.5434  0.1776
 4570TIP3    H113674   6.039   4.127   1.665 -1.1525 -0.1224 -0.1357
 4570TIP3    H213675   5.930   4.033   1.617 -0.1511 -1.0802 -0.5831
 4571TIP3   OH213676   6.297   1.208   1.298 -0.2597  0.0344 -0.0070
 4571TIP3    H113677   6.241   1.239   1.369 -0.6446  2.2307 -1.1903
 4571TIP3    H213678   6.284   1.113   1.298 -2.1454  0.2248  1.2641
 4572TIP3   OH213679   6.184   2.230   4.552 -0.9634  0.6055 -0.0138
 4572TIP3    H113680   6.180   2.299   4.485  0.7515  1.4581  0.6840
 4572TIP3    H213681   6.275   2.199   4.549 -0.7138  0.9354  2.1339
 4573TIP3   OH213682   7.014   5.838   5.548 -0.6222  0.0326  0.0781
 4573TIP3    H113683   6.960   5.814   5.473 -0.5192 -0.4817  0.1623
 4573TIP3    H213684   7.046   5.754   5.582 -0.1405  0.3040  0.3016
 4574TIP3   OH213685   4.370   1.916   4.967  0.0276 -0.2268 -0.0417
 4574TIP3    H113686   4.349   1.977   4.895  1.4700 -0.3455 -0.5896
 4574TIP3    H213687   4.298   1.853   4.965 -0.0204 -0.1667 -1.3289
 4575TIP3   OH213688   2.177   0.944   5.167 -0.4083  0.2185  0.5680
 4575TIP3    H113689   2.101   0.901   5.128 -1.3567  0.7167  1.8138
 4575TIP3    H213690   2.225   0.874   5.210 -0.6840  0.0467  0.5995
 4576TIP3   OH213691   4.095   4.435   4.882  0.5915  0.6549 -0.1446
 4576TIP3    H113692   4.091   4.339   4.875 -1.0970  0.7490 -0.7128
 4576TIP3    H213693   4.179   4.451   4.927 -0.1379 -1.2168  2.1430
 4577TIP3   OH213694   3.000   1.172   4.485 -0.0396  0.1544 -0.0231
 4577TIP3    H113695   3.047   1.254   4.503  2.0949 -1.0166  0.0225
 4577TIP3    H213696   2.944   1.193   4.410 -0.1425  1.8615  0.4849
 4578TIP3   OH213697   1.470   0.765   5.111  0.0902  0.1102 -0.3002
 4578TIP3    H113698   1.530   0.700   5.074  0.6385 -0.8156  2.0087
 4578TIP3    H213699   1.386   0.719   5.116  0.2160 -0.0549  0.3330
 4579TIP3   OH213700   5.352   1.051   5.119 -0.3854  0.1769  0.2533
 4579TIP3    H113701   5.404   1.040   5.039 -3.0033 -1.6413 -1.3438
 4579TIP3    H213702   5.330   1.145   5.120  1.8714  0.7755  0.3999
 4580TIP3   OH213703   4.649   0.205   3.431  0.0118  0.4561  0.2307
 4580TIP3    H113704   4.651   0.286   3.380 -0.4034  1.3718  1.6053
 4580TIP3    H213705   4.563   0.205   3.473  0.4050 -0.1709  1.0808
 4581TIP3   OH213706   6.751   5.147   1.905  0.0755 -0.2452  0.3667
 4581TIP3    H113707   6.816   5.190   1.962  1.1506  0.0720 -1.0327
 4581TIP3    H213708   6.796   5.138   1.821 -1.8069  0.2429 -0.7508
 4582TIP3   OH213709   1.193   6.059   0.978  0.6069 -0.0333  0.1643
 4582TIP3    H113710   1.239   6.139   0.953  0.8733  0.7602  2.9155
 4582TIP3    H213711   1.258   6.008   1.025  0.4431 -1.9631 -1.5558
 4583TIP3   OH213712   2.383   5.365   3.862 -0.0844  0.3804  0.0505
 4583TIP3    H113713   2.351   5.371   3.772  0.1776  1.8560  0.0407
 4583TIP3    H213714   2.468   5.322   3.855 -0.5531 -0.5327 -0.2668
 4584TIP3   OH213715   6.640   6.560   0.881  0.3763  0.5304 -0.5676
 4584TIP3    H113716   6.646   6.465   0.867  0.4326  0.4335  0.0994
 4584TIP3    H213717   6.638   6.597   0.792 -2.2183 -0.2384 -0.8918
 4585TIP3   OH213718   4.396   1.357   3.136 -0.5306  0.2974 -0.2813
 4585TIP3    H113719   4.354   1.362   3.049  0.9407  1.5709 -0.9473
 4585TIP3    H213720   4.408   1.448   3.162 -0.2426 -0.0808  0.9338
 4586TIP3   OH213721   6.444   2.738   0.620 -0.1370  0.1872 -0.0383
 4586TIP3    H113722   6.374   2.798   0.593 -0.3915 -0.7152 -1.5215
 4586TIP3    H213723   6.402   2.653   0.627  0.3295  0.0538  1.5221
 4587TIP3   OH213724   3.056   4.457   3.824 -0.0580  0.2924 -0.1028
 4587TIP3    H113725   3.040   4.470   3.731  0.1372  2.5147  0.1383
 4587TIP3    H213726   3.001   4.523   3.867 -1.5917 -1.8745  1.5028
 4588TIP3   OH213727   1.187   1.215   5.706 -0.3642  0.4311  0.3419
 4588TIP3    H113728   1.172   1.259   5.790 -1.1781 -0.8554  0.9051
 4588TIP3    H213729   1.169   1.282   5.640 -2.2767  0.7760  1.1557
 4589TIP3   OH213730   6.429   4.692   0.142 -0.0196 -0.3854  0.4317
 4589TIP3    H113731   6.342   4.731   0.135  1.2144  2.6774  0.7202
 4589TIP3    H213732   6.455   4.710   0.232  1.4060 -0.0638 -0.0294
 4590TIP3   OH213733   1.935   0.797   3.791 -0.3482  0.5526 -0.1872
 4590TIP3    H113734   2.008   0.847   3.754 -0.1065  1.5699  1.5245
 4590TIP3    H213735   1.968   0.768   3.877 -1.5237 -0.0562  0.0795
 4591TIP3   OH213736   4.904   3.155   1.002 -0.0292 -1.0896  0.0849
 4591TIP3    H113737   4.886   3.236   0.954  0.4743 -0.0796  1.5137
 4591TIP3    H213738   4.818   3.123   1.028 -0.1960 -0.4776  0.3182
 4592TIP3   OH213739   0.304   2.120   3.462  0.0100  0.4151 -0.1162
 4592TIP3    H113740   0.365   2.103   3.390 -0.4795  0.1902 -0.4871
 4592TIP3    H213741   0.236   2.175   3.422 -0.5228 -0.1166  0.0520
 4593TIP3   OH213742   5.194   2.684   0.901 -1.1552  0.3573 -0.5041
 4593TIP3    H113743   5.258   2.628   0.945 -2.7669 -0.9507  0.2852
 4593TIP3    H213744   5.236   2.770   0.899  0.7356 -0.4904 -0.3043
 4594TIP3   OH213745   4.838   6.424   3.775  0.5887  0.2361  0.4743
 4594TIP3    H113746   4.783   6.358   3.816 -0.8591  1.2403  0.2390
 4594TIP3    H213747   4.866   6.385   3.692  0.2047 -0.2776  0.5849
 4595TIP3   OH213748   3.392   0.515   1.644  0.1368 -0.0461  0.2948
 4595TIP3    H113749   3.327   0.568   1.690 -1.8006 -1.0334 -1.1433
 4595TIP3    H213750   3.422   0.451   1.709 -0.3266  0.4364  0.9966
 4596TIP3   OH213751   3.047   0.269   4.757  0.2403 -0.1909 -0.2462
 4596TIP3    H113752   3.116   0.209   4.787  0.0049 -0.3389  0.0099
 4596TIP3    H213753   3.094   0.341   4.717  0.5013 -1.1232 -1.6732
 4597TIP3   OH213754   6.530   4.898   1.131  0.0207  0.7299 -0.0763
 4597TIP3    H113755   6.498   4.854   1.052  0.5205  0.1152  0.0474
 4597TIP3    H213756   6.598   4.958   1.100  0.6911  0.0052 -0.0691
 4598TIP3   OH213757   2.358   6.332   3.996  0.0695 -0.6412  0.2184
 4598TIP3    H113758   2.415   6.258   3.973 -1.7365 -2.2061  0.4678
 4598TIP3    H213759   2.409   6.383   4.059  1.3574 -1.7235  0.1003
 4599TIP3   OH213760   4.724   2.298   3.273 -0.4296 -0.4061  0.3392
 4599TIP3    H113761   4.631   2.282   3.288 -0.3709 -0.4089  0.6971
 4599TIP3    H213762   4.769   2.234   3.328 -0.2031  0.3493  1.0412
 4600TIP3   OH213763   2.926   1.192   5.450 -0.2493  0.5582 -0.1067
 4600TIP3    H113764   2.981   1.114   5.451  1.2152  1.5580 -0.3476
 4600TIP3    H213765   2.923   1.220   5.542  0.3102  0.9390 -0.1978
 4601TIP3   OH213766   7.195   4.599   5.716  0.3317  0.3294 -0.2933
 4601TIP3    H113767   7.228   4.686   5.694  1.1828 -0.3135 -1.7451
 4601TIP3    H213768   7.103   4.612   5.736  0.7879  1.7738  1.0268
 4602TIP3   OH213769   4.633   4.166   2.904 -0.2958  0.4280 -0.2305
 4602TIP3    H113770   4.604   4.224   2.975 -0.4184  0.4672 -0.3136
 4602TIP3    H213771   4.560   4.165   2.842  0.0491  0.8716 -0.6513
 4603TIP3   OH213772   2.132   6.455   3.000  0.1069 -0.2363  0.0400
 4603TIP3    H113773   2.095   6.515   3.066  0.6019 -0.1088  0.2053
 4603TIP3    H213774   2.104   6.491   2.916 -2.4338 -1.6120  0.1883
 4604TIP3   OH213775   4.342   1.994   4.657 -0.3314  0.3119 -0.1898
 4604TIP3    H113776   4.407   1.933   4.692  0.5632  0.1473 -2.0480
 4604TIP3    H213777   4.393   2.072   4.634 -1.3351  1.5017  1.3972
 4605TIP3   OH213778   4.058   6.740   4.685 -0.0231 -0.2537 -0.1746
 4605TIP3    H113779   3.968   6.761   4.711 -0.5587 -2.3618 -0.1076
 4605TIP3    H213780   4.049   6.660   4.632  1.9248 -1.3491  1.0420
 4606TIP3   OH213781   1.944   1.255   1.024 -0.2112  0.5122  0.9908
 4606TIP3    H113782   1.887   1.178   1.019  0.6429 -0.0758 -0.5361
 4606TIP3    H213783   1.892   1.326   0.986 -0.2511  0.1786  0.4054
 4607TIP3   OH213784   0.290   0.624   4.635  0.0516 -0.4280  0.0074
 4607TIP3    H113785   0.208   0.672   4.625  0.2301 -0.1403 -0.0914
 4607TIP3    H213786   0.354   0.677   4.588  0.9138  0.8763  2.5245
 4608TIP3   OH213787   3.070   3.701   4.320  0.2512  0.0346  0.0472
 4608TIP3    H113788   2.997   3.678   4.378 -0.7728 -0.1407 -1.2437
 4608TIP3    H213789   3.098   3.617   4.283 -0.6271  0.3485 -1.4108
 4609TIP3   OH213790   0.941   4.177   0.749 -0.5957 -0.3794 -0.0589
 4609TIP3    H113791   1.021   4.229   0.738 -0.7337  0.0182  0.7843
 4609TIP3    H213792   0.950   4.106   0.685  0.0518  0.1215 -0.5375
 4610TIP3   OH213793   5.736   5.348   2.673  0.0088  0.1351 -0.2674
 4610TIP3    H113794   5.714   5.408   2.603 -0.4323 -0.2030 -0.4269
 4610TIP3    H213795   5.786   5.278   2.630  0.4341  0.3302 -0.1004
 4611TIP3   OH213796   4.768   0.742   5.063  0.0145 -0.2914  0.5915
 4611TIP3    H113797   4.754   0.759   4.970  0.5398 -0.0470  0.5554
 4611TIP3    H213798   4.769   0.646   5.070 -1.5029 -0.3218  0.5784
 4612TIP3   OH213799   4.005   0.946   5.305  0.0345 -0.5952  0.5699
 4612TIP3    H113800   3.999   0.914   5.395  1.8363  0.6064  1.1735
 4612TIP3    H213801   4.098   0.967   5.294 -0.3886  0.5105 -1.1393
 4613TIP3   OH213802   1.555   2.719   3.000  0.2308 -0.3016  0.0906
 4613TIP3    H113803   1.505   2.768   3.065 -1.2383 -2.6453  0.8444
 4613TIP3    H213804   1.511   2.738   2.917 -1.4113 -1.6342  0.6210
 4614TIP3   OH213805   4.674   1.371   2.862 -0.0427  0.3538 -0.2906
 4614TIP3    H113806   4.589   1.328   2.874  0.4138 -0.3462  0.5904
 4614TIP3    H213807   4.738   1.305   2.889  0.9273  0.1357 -2.8400
 4615TIP3   OH213808   5.042   6.020   5.698  0.4373  0.0383 -0.0399
 4615TIP3    H113809   5.094   6.087   5.742 -3.8700  2.7792  1.4452
 4615TIP3    H213810   5.023   6.057   5.612 -1.4633  0.5771  0.5666
 4616TIP3   OH213811   0.738   6.079   4.795  0.3267  0.2927 -0.2048
 4616TIP3    H113812   0.770   6.077   4.705  0.6013 -0.0402 -0.1023
 4616TIP3    H213813   0.644   6.094   4.787  0.0884 -1.2307 -0.6186
 4617TIP3   OH213814   3.143   4.026   2.007  0.9447  0.0607  0.2220
 4617TIP3    H113815   3.121   4.031   1.914 -1.0369 -1.7221  0.5275
 4617TIP3    H213816   3.206   3.954   2.013  0.4484 -0.3708  0.3369
 4618TIP3   OH213817   3.730   4.053   0.925  0.0095 -0.3928 -0.1469
 4618TIP3    H113818   3.638   4.029   0.911  0.4607 -2.2635 -0.1165
 4618TIP3    H213819   3.752   4.107   0.850 -1.4294  1.1111  0.4439
 4619TIP3   OH213820   1.398   3.916   0.936  0.1454 -0.0398  0.4023
 4619TIP3    H113821   1.352   3.997   0.918 -0.7996 -0.8607 -1.1065
 4619TIP3    H213822   1.337   3.847   0.908  2.1550 -1.1734 -1.5168
 4620TIP3   OH213823   0.916   0.046   4.867 -0.0825 -0.1111  0.5148
 4620TIP3    H113824   0.961   0.002   4.795 -0.4171 -1.4404  1.0792
 4620TIP3    H213825   0.823   0.038   4.846 -0.1310  1.1747  0.1714
 4621TIP3   OH213826   2.498   2.375   5.523  0.0910  0.4483  0.1040
 4621TIP3    H113827   2.538   2.289   5.512  0.6026  0.8079 -1.0228
 4621TIP3    H213828   2.534   2.408   5.605 -1.3914 -1.0671  1.4260
 4622TIP3   OH213829   2.202   2.810   2.953 -0.4497  0.2123  0.2886
 4622TIP3    H113830   2.240   2.829   2.868 -0.7074 -0.9400 -0.0951
 4622TIP3    H213831   2.117   2.770   2.933 -0.4915 -0.1098  1.0766
 4623TIP3   OH213832   4.060   4.778   4.639  0.3628  0.1288  0.3587
 4623TIP3    H113833   3.996   4.768   4.569  1.7353 -1.6451 -0.7367
 4623TIP3    H213834   4.115   4.851   4.609  0.8151 -0.4817 -0.3507
 4624TIP3   OH213835   5.943   0.611   2.264 -0.1419  0.2156  0.2755
 4624TIP3    H113836   5.895   0.692   2.281 -0.2056 -0.2792  2.8405
 4624TIP3    H213837   5.874   0.545   2.251 -0.2819 -0.3344  3.1594
 4625TIP3   OH213838   3.347   3.689   5.822 -1.0126  0.8596 -0.1420
 4625TIP3    H113839   3.434   3.729   5.815 -1.0949  0.9878 -0.4884
 4625TIP3    H213840   3.344   3.652   5.910 -0.5450  0.7046 -0.1883
 4626TIP3   OH213841   5.670   2.649   0.929  0.0310  0.1752 -0.4522
 4626TIP3    H113842   5.647   2.559   0.952 -0.0042  0.6033  1.3077
 4626TIP3    H213843   5.744   2.670   0.986  0.2291  1.1701 -1.0540
 4627TIP3   OH213844   2.714   6.103   1.239  0.0599 -0.1552 -0.0234
 4627TIP3    H113845   2.777   6.175   1.242  1.2712 -1.1779 -0.2789
 4627TIP3    H213846   2.765   6.026   1.264 -1.3455 -0.8440  0.8314
 4628TIP3   OH213847   3.110   6.442   1.589  1.1376  0.1072 -0.0749
 4628TIP3    H113848   3.195   6.424   1.629  0.6077 -0.2154  0.9470
 4628TIP3    H213849   3.079   6.521   1.634  0.0055 -0.9375  1.0460
 4629TIP3   OH213850   5.603   5.353   4.275 -0.0790  0.0273 -0.3002
 4629TIP3    H113851   5.646   5.287   4.329 -1.6573 -1.7000 -1.0338
 4629TIP3    H213852   5.577   5.422   4.336 -0.9223 -1.3952  1.0173
 4630TIP3   OH213853   4.227   5.685   5.336 -0.2046  0.0629  0.2281
 4630TIP3    H113854   4.278   5.765   5.329  0.9711 -0.5909  1.0767
 4630TIP3    H213855   4.211   5.674   5.429 -0.1888 -0.7809  0.1452
 4631TIP3   OH213856   5.516   2.238   2.062  0.7611 -0.6723  0.1105
 4631TIP3    H113857   5.611   2.238   2.075  0.9935  0.2168 -1.3395
 4631TIP3    H213858   5.505   2.231   1.967 -0.6039  0.2842  0.1782
 4632TIP3   OH213859   6.650   2.966   4.997 -0.1359 -0.2531 -0.1827
 4632TIP3    H113860   6.643   2.890   5.056 -0.4248 -0.5076 -0.5405
 4632TIP3    H213861   6.744   2.981   4.988 -0.0702  1.0289  1.9193
 4633TIP3   OH213862   1.951   0.085   2.158  0.1960 -0.9229  0.5533
 4633TIP3    H113863   2.038   0.111   2.186  0.4725 -2.1212  0.8555
 4633TIP3    H213864   1.939   0.127   2.073  0.7486 -0.1220  0.8594
 4634TIP3   OH213865   4.306   0.358   4.741 -0.1986  0.3814 -0.1211
 4634TIP3    H113866   4.245   0.402   4.801 -0.5730  2.0006 -1.6065
 4634TIP3    H213867   4.250   0.299   4.690  0.1001 -0.9018  0.9906
 4635TIP3   OH213868   5.270   3.468   4.403  0.2081 -0.2175  0.3525
 4635TIP3    H113869   5.260   3.482   4.497  0.1780 -1.4203  0.5402
 4635TIP3    H213870   5.260   3.555   4.365  0.4949  0.3257  1.4834
 4636TIP3   OH213871   2.859   5.468   1.135  0.1485  0.0184 -0.3489
 4636TIP3    H113872   2.787   5.416   1.170  0.8563 -0.6543  0.1490
 4636TIP3    H213873   2.842   5.557   1.166  0.4573 -0.4518  1.2757
 4637TIP3   OH213874   4.091   2.047   4.802 -0.1433 -0.1232  0.6897
 4637TIP3    H113875   4.054   1.961   4.781  1.5912 -0.5346 -0.9977
 4637TIP3    H213876   4.176   2.048   4.756  0.8967  1.6241  2.5192
 4638TIP3   OH213877   7.085   5.070   5.190 -0.8908 -0.2005 -0.4340
 4638TIP3    H113878   7.084   5.028   5.104 -1.5420 -0.4610 -0.3043
 4638TIP3    H213879   7.057   5.160   5.173 -1.2497 -0.3161 -0.4640
 4639TIP3   OH213880   3.127   4.150   4.347 -0.0194 -0.4486 -0.2614
 4639TIP3    H113881   3.166   4.109   4.425 -1.2075 -1.2218 -0.0432
 4639TIP3    H213882   3.060   4.208   4.382 -0.1294 -0.3162 -0.6874
 4640TIP3   OH213883   2.720   0.906   5.755  0.5687  0.2890  0.2297
 4640TIP3    H113884   2.719   0.924   5.849  2.6471 -0.0598  0.3754
 4640TIP3    H213885   2.628   0.895   5.731  0.0610 -0.8231  2.4643
 4641TIP3   OH213886   5.855   0.208   3.558  0.0225  0.3728  0.7076
 4641TIP3    H113887   5.915   0.251   3.497 -1.6602 -1.0846 -2.1338
 4641TIP3    H213888   5.798   0.278   3.589 -0.5364  0.8250 -1.2129
 4642TIP3   OH213889   0.113   0.816   1.940 -0.6540  0.4030  0.5554
 4642TIP3    H113890   0.036   0.836   1.887 -0.6532  1.9225  1.0711
 4642TIP3    H213891   0.182   0.873   1.906  0.5490 -1.5887 -0.4991
 4643TIP3   OH213892   6.241   3.273   3.784 -0.3779  0.1269 -0.1581
 4643TIP3    H113893   6.261   3.196   3.732 -0.2859 -0.2940  0.4795
 4643TIP3    H213894   6.284   3.345   3.738  0.3009 -0.3432 -0.2871
 4644TIP3   OH213895   6.419   5.167   5.354  0.3614 -0.0481  0.7708
 4644TIP3    H113896   6.469   5.086   5.340 -0.4523 -0.5347  0.6217
 4644TIP3    H213897   6.424   5.183   5.448  0.3014 -0.4227  0.8375
 4645TIP3   OH213898   6.593   4.990   5.239 -0.4453 -0.2180 -0.3232
 4645TIP3    H113899   6.561   5.013   5.151  0.3200  0.5967 -0.4065
 4645TIP3    H213900   6.681   5.027   5.242 -0.7980  0.5431  1.1227
 4646TIP3   OH213901   4.174   1.187   1.657 -0.2151 -0.4554  0.3108
 4646TIP3    H113902   4.254   1.135   1.665  0.3358  0.0777 -1.2689
 4646TIP3    H213903   4.109   1.126   1.622  0.0045 -0.4740 -0.0745
 4647TIP3   OH213904   2.732   2.991   1.020  0.6452 -0.0473 -0.0511
 4647TIP3    H113905   2.776   3.075   1.008  0.5614  0.4033  2.2566
 4647TIP3    H213906   2.675   2.983   0.944  2.1723  0.9755 -1.3724
 4648TIP3   OH213907   3.006   5.313   2.857 -0.2287  0.4545  0.1565
 4648TIP3    H113908   3.044   5.295   2.943 -0.6484 -1.8811 -0.0783
 4648TIP3    H213909   3.074   5.286   2.795  0.4303  2.9558 -0.3126
 4649TIP3   OH213910   5.904   1.092   0.851  0.0910  0.2578  0.4395
 4649TIP3    H113911   5.958   1.096   0.773 -0.6750 -1.6155 -0.2407
 4649TIP3    H213912   5.936   1.016   0.899 -0.9753 -0.0203  0.7424
 4650TIP3   OH213913   4.855   0.751   4.747  0.6280  0.1810  0.2818
 4650TIP3    H113914   4.815   0.837   4.741 -0.9797 -0.5727 -0.4238
 4650TIP3    H213915   4.843   0.712   4.660 -2.1103 -2.1275  1.5093
 4651TIP3   OH213916   6.547   3.116   4.554 -0.2339 -0.2692 -0.3929
 4651TIP3    H113917   6.502   3.052   4.609 -0.3664 -0.4391 -0.7003
 4651TIP3    H213918   6.490   3.193   4.556  0.8371  0.5577  1.5450
 4652TIP3   OH213919   6.048   3.498   4.032  0.0142  0.2636  0.4663
 4652TIP3    H113920   6.012   3.436   3.968 -1.3777  1.5579 -0.0951
 4652TIP3    H213921   6.132   3.525   3.995 -0.3791  0.3367 -0.3950
 4653TIP3   OH213922   0.108   3.612   4.047  0.3723 -0.4266 -0.4449
 4653TIP3    H113923   0.092   3.677   4.116  0.6847  0.1690 -0.9182
 4653TIP3    H213924   0.121   3.665   3.968  2.0312 -0.9767 -0.5887
 4654TIP3   OH213925   0.465   2.695   4.016 -0.0470 -0.5863 -0.3901
 4654TIP3    H113926   0.486   2.602   4.002 -0.0293 -0.8530  1.1809
 4654TIP3    H213927   0.545   2.742   3.993  0.8671 -1.2150  1.2686
 4655TIP3   OH213928   5.306   5.907   4.091  0.3358 -0.8922 -0.2053
 4655TIP3    H113929   5.284   5.876   4.003 -0.0926  1.6318 -1.0771
 4655TIP3    H213930   5.232   5.881   4.146 -1.4812  1.1089 -1.5497
 4656TIP3   OH213931   2.235   4.202   4.833  0.1085 -0.1752 -0.1811
 4656TIP3    H113932   2.238   4.114   4.871  0.6127  0.1833  0.6416
 4656TIP3    H213933   2.259   4.260   4.905  1.5851  0.4924 -1.1677
 4657TIP3   OH213934   1.617   6.392   0.155  0.2338  0.1246 -0.5915
 4657TIP3    H113935   1.569   6.472   0.175  0.5208 -0.0673  0.9548
 4657TIP3    H213936   1.563   6.347   0.090  0.0980  1.5777 -1.5428
 4658TIP3   OH213937   7.010   5.810   2.352 -0.2819  0.0801 -0.0132
 4658TIP3    H113938   7.102   5.827   2.370 -0.4825  0.0816  1.1033
 4658TIP3    H213939   6.966   5.891   2.379 -0.9664 -1.1413  2.8337
 4659TIP3   OH213940   1.772   2.067   0.899 -0.3953  0.4028  0.3693
 4659TIP3    H113941   1.813   2.153   0.908  1.2990 -0.4673  1.6593
 4659TIP3    H213942   1.741   2.046   0.987 -0.0101 -0.6578  0.2649
 4660TIP3   OH213943   1.435   2.701   1.768  0.4048  0.0310  0.3376
 4660TIP3    H113944   1.464   2.610   1.769  0.5474  0.0753  0.3843
 4660TIP3    H213945   1.514   2.750   1.745  0.7203  0.2713  1.7994
 4661TIP3   OH213946   1.471   1.308   4.401 -0.1677  0.1890  0.2670
 4661TIP3    H113947   1.376   1.295   4.406 -0.4492  2.2104  0.9296
 4661TIP3    H213948   1.505   1.261   4.477 -0.7536  0.4084  0.6712
 4662TIP3   OH213949   1.384   5.724   3.734 -0.1502 -0.0218 -0.4605
 4662TIP3    H113950   1.452   5.705   3.798 -0.2368  1.2878  0.0402
 4662TIP3    H213951   1.302   5.701   3.778 -0.1690  0.2867 -0.3368
 4663TIP3   OH213952   1.347   5.037   1.674 -0.2200 -0.5671 -1.0127
 4663TIP3    H113953   1.392   5.095   1.736 -1.0014  0.2585 -1.1873
 4663TIP3    H213954   1.330   4.957   1.724 -0.6685  0.0095 -0.2182
 4664TIP3   OH213955   2.267   4.369   3.728  0.0244  0.0427 -0.1214
 4664TIP3    H113956   2.207   4.301   3.759 -0.3235 -1.2853 -3.2739
 4664TIP3    H213957   2.224   4.405   3.650  1.9073  1.2714 -0.6541
 4665TIP3   OH213958   5.239   6.497   2.998  0.1615 -0.2025  0.7243
 4665TIP3    H113959   5.260   6.578   2.952  0.4527  0.2823  1.6670
 4665TIP3    H213960   5.165   6.520   3.054 -0.2653 -0.8082  0.4157
 4666TIP3   OH213961   4.802   3.837   2.353 -0.0123 -0.3359  1.0008
 4666TIP3    H113962   4.829   3.923   2.385  0.1491 -0.4757  1.2378
 4666TIP3    H213963   4.883   3.788   2.343 -0.0007 -0.1260 -0.1324
 4667TIP3   OH213964   5.787   3.995   2.774  0.0511 -0.2074  0.0751
 4667TIP3    H113965   5.822   3.993   2.863  1.4398  1.0770 -0.3988
 4667TIP3    H213966   5.697   3.963   2.783  0.7161 -1.8062  1.6441
 4668TIP3   OH213967   2.000   5.406   5.445 -0.2627  0.0783  0.0138
 4668TIP3    H113968   2.087   5.377   5.473  1.2820  3.0315 -1.1909
 4668TIP3    H213969   1.976   5.474   5.508 -2.0409 -1.0366  0.6351
 4669TIP3   OH213970   6.879   5.448   0.289  0.0547 -0.1539 -0.3981
 4669TIP3    H113971   6.853   5.438   0.381 -0.0028  0.6351 -0.3276
 4669TIP3    H213972   6.965   5.406   0.284  0.2349  0.1509  0.1052
 4670TIP3   OH213973   5.528   1.674   5.621 -0.6965 -0.3702  0.1470
 4670TIP3    H113974   5.569   1.743   5.570  0.8558 -0.4988  1.1582
 4670TIP3    H213975   5.464   1.719   5.676 -1.1181 -0.0146 -0.6243
 4671TIP3   OH213976   2.358   1.579   2.004 -0.1911 -0.6477 -0.0191
 4671TIP3    H113977   2.405   1.519   2.063  0.5199 -1.0341 -0.9587
 4671TIP3    H213978   2.309   1.636   2.063 -0.8366 -2.1007  0.9145
 4672TIP3   OH213979   5.159   3.546   4.649  0.4833  0.1051  0.0641
 4672TIP3    H113980   5.108   3.575   4.574  1.5840  0.1388 -0.6971
 4672TIP3    H213981   5.189   3.627   4.691  1.1053  0.0916 -0.3413
 4673TIP3   OH213982   2.771   5.540   2.556 -0.4820 -0.0018 -0.1069
 4673TIP3    H113983   2.697   5.517   2.499 -0.0998 -0.1237 -0.5636
 4673TIP3    H213984   2.832   5.586   2.498 -0.2710  0.2329  0.3016
 4674TIP3   OH213985   3.182   4.756   1.717  0.1911 -0.4904  0.0144
 4674TIP3    H113986   3.226   4.813   1.655  0.6592  0.9916  1.6307
 4674TIP3    H213987   3.247   4.688   1.738 -0.7606 -2.4468 -2.7889
 4675TIP3   OH213988   0.540   3.806   1.544  0.0310 -0.0290 -0.1069
 4675TIP3    H113989   0.617   3.857   1.568  0.1531  0.0081 -0.5679
 4675TIP3    H213990   0.575   3.723   1.511  0.0198  0.9132 -2.6835
 4676TIP3   OH213991   3.487   2.877   4.283  0.2390  0.2858 -0.1066
 4676TIP3    H113992   3.468   2.788   4.314  0.3426  1.3857  3.6090
 4676TIP3    H213993   3.424   2.892   4.213 -0.3206 -2.3938 -0.2951
 4677TIP3   OH213994  -0.019   5.993   3.161 -0.0538 -0.4738 -0.1181
 4677TIP3    H113995   0.014   5.908   3.188  1.2442  0.1187  0.2402
 4677TIP3    H213996   0.008   6.053   3.231 -0.3948  0.3410 -0.6643
 4678TIP3   OH213997   3.609   6.255   0.894 -0.2128 -0.0956  0.4988
 4678TIP3    H113998   3.644   6.168   0.874  1.1175  0.7225 -0.9297
 4678TIP3    H213999   3.603   6.298   0.809  0.0245  1.5298  1.2697
 4679TIP3   OH214000   6.712   6.115   1.833 -0.1953  0.3038 -0.3308
 4679TIP3    H114001   6.699   6.129   1.927  2.1191 -1.9149  0.4115
 4679TIP3    H214002   6.732   6.203   1.798  1.3230  0.8409  1.7102
 4680TIP3   OH214003   1.805   1.950   1.373 -0.2955  0.6119  0.8925
 4680TIP3    H114004   1.848   2.018   1.322 -1.0875  1.0002  0.7262
 4680TIP3    H214005   1.872   1.919   1.434  0.8486 -0.2502 -0.7365
 4681TIP3   OH214006   4.643   5.458   2.374  0.1653  0.0936  0.2273
 4681TIP3    H114007   4.630   5.389   2.439  2.3472 -0.9096 -0.3057
 4681TIP3    H214008   4.692   5.526   2.421  0.0846  0.2143  0.1373
 4682TIP3   OH214009   6.487   0.445   4.690 -0.2160 -0.0426  0.5522
 4682TIP3    H114010   6.418   0.505   4.719  0.2535 -0.0270  1.6939
 4682TIP3    H214011   6.446   0.359   4.689 -1.0353  0.3322 -1.5765
 4683TIP3   OH214012   6.655   6.331   0.065  0.1762  0.2161 -0.0467
 4683TIP3    H114013   6.633   6.347   0.157 -0.5352  0.9977 -0.3401
 4683TIP3    H214014   6.708   6.407   0.040 -1.0393  0.8774 -0.7299
 4684TIP3   OH214015   0.285   0.477   5.900 -0.1279  1.3167  0.1053
 4684TIP3    H114016   0.301   0.482   5.806  0.0707 -0.9331 -0.0341
 4684TIP3    H214017   0.369   0.449   5.938 -0.8654 -0.4267  0.5854
 4685TIP3   OH214018   4.719   3.792   1.467  0.3389 -0.0228  0.2289
 4685TIP3    H114019   4.704   3.721   1.404 -0.5057  0.1727  0.2034
 4685TIP3    H214020   4.812   3.813   1.457  0.7137 -1.4168  0.5407
 4686TIP3   OH214021   6.762   3.515   2.072  0.0983 -0.0623 -0.5506
 4686TIP3    H114022   6.834   3.470   2.028 -0.1666 -0.1997 -0.8491
 4686TIP3    H214023   6.743   3.590   2.016  1.4184  1.1956  0.6305
 4687TIP3   OH214024   2.329   3.747   5.374 -0.1339  0.3044 -0.2963
 4687TIP3    H114025   2.329   3.652   5.367 -0.7456  0.3722 -1.3212
 4687TIP3    H214026   2.389   3.765   5.446 -0.0008 -0.8523 -0.0964
 4688TIP3   OH214027   2.527   5.878   4.239  0.0710  0.4111 -0.3977
 4688TIP3    H114028   2.604   5.901   4.186  1.2944 -0.4410  0.9281
 4688TIP3    H214029   2.519   5.951   4.301  0.9456 -0.3261  0.6233
 4689TIP3   OH214030   0.230   0.184   1.984 -0.6893 -0.2260  0.0757
 4689TIP3    H114031   0.145   0.189   2.027 -0.3809  1.1327  0.5624
 4689TIP3    H214032   0.256   0.092   1.992 -1.6850 -0.4601  0.7331
 4690TIP3   OH214033   6.323   2.719   4.350 -0.0795 -0.1997 -0.1579
 4690TIP3    H114034   6.325   2.712   4.254 -0.8661  1.7086 -0.3569
 4690TIP3    H214035   6.245   2.670   4.376  0.0173 -0.5479 -0.5118
 4691TIP3   OH214036   0.134   5.506   1.391  0.0194 -0.0259  0.5733
 4691TIP3    H114037   0.141   5.508   1.295  0.5914 -0.8702  0.5826
 4691TIP3    H214038   0.090   5.588   1.414  1.0136  0.7988 -0.3250
 4692TIP3   OH214039   0.001   2.291   2.059  0.2216  0.4824 -0.1859
 4692TIP3    H114040   0.013   2.202   2.028 -0.6830  0.7716 -1.4733
 4692TIP3    H214041   0.087   2.318   2.091  0.6536 -0.6286 -0.3900
 4693TIP3   OH214042   5.263   0.299   1.562  0.6487  0.5647  0.3847
 4693TIP3    H114043   5.319   0.353   1.618  0.2786  0.9771  0.3618
 4693TIP3    H214044   5.173   0.323   1.586  0.4608 -0.5406  0.8654
 4694TIP3   OH214045   1.972   2.093   3.014  0.6583 -0.5467  0.1345
 4694TIP3    H114046   1.986   2.178   3.057  1.7629 -0.9629  0.6390
 4694TIP3    H214047   1.961   2.031   3.086 -0.8252 -0.7510 -0.2352
 4695TIP3   OH214048   6.523   5.693   2.013  0.1795 -0.1384 -0.1614
 4695TIP3    H114049   6.507   5.759   1.944 -0.8343  0.7214  0.8406
 4695TIP3    H214050   6.545   5.613   1.965 -0.0052  0.5615 -1.4740
 4696TIP3   OH214051   4.195   3.336   0.690 -0.0323  0.1113  0.9476
 4696TIP3    H114052   4.265   3.272   0.707  0.0190 -0.0457  0.1585
 4696TIP3    H214053   4.141   3.296   0.622  0.3571  1.1738 -0.0141
 4697TIP3   OH214054   3.946   5.338   1.979 -0.0624  0.5488  0.4451
 4697TIP3    H114055   3.924   5.248   1.957  0.2914  0.8969 -1.5919
 4697TIP3    H214056   3.873   5.390   1.944  0.6807  1.1810 -0.2209
 4698TIP3   OH214057   5.978   6.042   0.640  0.2495 -0.0928  0.2115
 4698TIP3    H114058   6.056   6.077   0.598  0.9478 -3.5360 -1.8345
 4698TIP3    H214059   6.000   6.037   0.733  0.7695  2.7886  0.3329
 4699TIP3   OH214060   4.580   4.216   3.757 -0.0952  0.5393 -0.0367
 4699TIP3    H114061   4.495   4.230   3.716 -0.9549  1.9778  2.0518
 4699TIP3    H214062   4.570   4.135   3.806 -0.4007  0.9122  0.5210
 4700TIP3   OH214063   5.214   0.355   3.192  0.0116  0.8224 -0.1408
 4700TIP3    H114064   5.169   0.431   3.156 -0.7145  1.5276  2.0717
 4700TIP3    H214065   5.156   0.281   3.173 -2.3072  1.7182  2.7051
 4701TIP3   OH214066   1.890   2.963   3.556  0.0458 -0.1738 -0.1442
 4701TIP3    H114067   1.843   2.887   3.589 -1.6019  0.8207 -0.0761
 4701TIP3    H214068   1.955   2.983   3.624 -1.1984 -0.0278  1.0495
 4702TIP3   OH214069   5.559   3.725   3.443  0.4901  0.1465 -0.2583
 4702TIP3    H114070   5.629   3.787   3.427  1.0885 -1.0281 -2.4929
 4702TIP3    H214071   5.575   3.693   3.532  0.5423  2.5963  0.7035
 4703TIP3   OH214072   5.694   0.912   4.192 -0.2698 -0.0966  0.0803
 4703TIP3    H114073   5.603   0.914   4.222 -0.2909 -0.2297  0.0268
 4703TIP3    H214074   5.735   0.987   4.235 -0.0810 -0.7863  1.1394
 4704TIP3   OH214075   0.929   3.741   5.479  0.0704 -0.1050  0.1815
 4704TIP3    H114076   1.006   3.696   5.514  0.7214 -0.8245 -2.0138
 4704TIP3    H214077   0.948   3.834   5.490  0.3169 -0.2810  1.4810
 4705TIP3   OH214078   5.541   1.343   1.914 -0.1873  0.3418 -0.1677
 4705TIP3    H114079   5.469   1.405   1.925  0.2708  0.7810  0.4035
 4705TIP3    H214080   5.618   1.388   1.949  0.1131 -0.6187  0.4496
 4706TIP3   OH214081   1.367   3.343   4.569  0.0884  0.1731  0.1894
 4706TIP3    H114082   1.360   3.261   4.519  1.1193  0.4615 -0.4760
 4706TIP3    H214083   1.323   3.408   4.514 -0.0831  0.2079  0.3680
 4707TIP3   OH214084   4.855   4.972   3.593  0.4568  0.3767  0.1778
 4707TIP3    H114085   4.840   5.000   3.503 -1.3461  2.7328  1.1157
 4707TIP3    H214086   4.883   4.880   3.585 -0.1075  0.3665 -2.7191
 4708TIP3   OH214087   6.192   2.138   2.656 -0.2186 -0.1023 -0.4650
 4708TIP3    H114088   6.232   2.101   2.736  3.5177  0.5341 -1.8181
 4708TIP3    H214089   6.234   2.089   2.585  1.3361  3.3699 -2.1506
 4709TIP3   OH214090   2.045   0.335   5.043 -0.0598  0.1788 -0.0881
 4709TIP3    H114091   2.116   0.395   5.018 -0.2723  0.7386  0.5953
 4709TIP3    H214092   2.043   0.270   4.973 -0.5814  1.6191 -1.4995
 4710TIP3   OH214093   6.903   0.467   2.442  0.4032  0.4282 -0.2347
 4710TIP3    H114094   6.880   0.455   2.350  0.9239  0.0550 -0.3205
 4710TIP3    H214095   6.981   0.522   2.440  1.3185 -0.8040 -0.1057
 4711TIP3   OH214096   3.472   1.598   5.494 -0.1915 -0.0944  0.1758
 4711TIP3    H114097   3.559   1.616   5.458  0.1920 -0.4736  0.8769
 4711TIP3    H214098   3.462   1.662   5.564 -0.4596 -0.0761  0.1191
 4712TIP3   OH214099   2.130   4.171   2.735 -0.1502 -0.0832 -0.2387
 4712TIP3    H114100   2.105   4.079   2.742 -0.4670 -0.0223 -0.5537
 4712TIP3    H214101   2.190   4.174   2.661  1.5404 -0.3774  1.0623
 4713TIP3   OH214102   1.916   4.776   2.360  0.2969  0.0592 -0.1209
 4713TIP3    H114103   1.976   4.788   2.434  0.1456  0.4994 -0.0644
 4713TIP3    H214104   1.910   4.863   2.320  0.1031 -0.1006 -0.4405
 4714TIP3   OH214105   5.105   5.168   4.956 -0.6918  0.6602 -0.0017
 4714TIP3    H114106   5.169   5.226   4.915  0.4205  0.5621  1.5043
 4714TIP3    H214107   5.144   5.144   5.040 -0.9080 -2.6347 -0.7252
 4715TIP3   OH214108   2.139   2.432   4.494  0.3156 -0.3368  0.2670
 4715TIP3    H114109   2.230   2.456   4.477  0.5787  0.1754  2.1234
 4715TIP3    H214110   2.120   2.363   4.431  2.6023 -1.7396  1.0021
 4716TIP3   OH214111   0.455   4.220   2.138  0.0208  0.1901 -0.0906
 4716TIP3    H114112   0.496   4.294   2.092  1.6662  0.3139  1.4997
 4716TIP3    H214113   0.448   4.152   2.071  0.5968  0.9955 -1.0059
 4717TIP3   OH214114   3.809   5.786   1.140  0.4524  0.0324  0.0542
 4717TIP3    H114115   3.763   5.702   1.148 -2.1927  1.1503 -1.8959
 4717TIP3    H214116   3.863   5.776   1.062 -0.0453  0.2287 -0.3138
 4718TIP3   OH214117   5.154   3.677   5.142 -0.1902  0.0715  0.0033
 4718TIP3    H114118   5.212   3.623   5.089 -2.4655  0.3461 -3.0005
 4718TIP3    H214119   5.209   3.750   5.172  1.6329 -1.1377 -0.2739
 4719TIP3   OH214120   3.478   6.523   3.509  0.5633  0.2522 -0.7607
 4719TIP3    H114121   3.406   6.461   3.496  0.5907  0.0424  0.0636
 4719TIP3    H214122   3.487   6.530   3.604  1.1098  0.8870 -0.8558
 4720TIP3   OH214123   3.451   2.979   5.426 -0.5499 -0.3560  0.1405
 4720TIP3    H114124   3.470   2.918   5.497 -0.0422  1.6482  1.8537
 4720TIP3    H214125   3.536   3.021   5.408 -1.2130  1.2037  0.4316
 4721TIP3   OH214126   3.634   5.884   4.049 -0.2478 -0.5635  0.5074
 4721TIP3    H114127   3.579   5.807   4.064 -2.1279  0.9902  2.1421
 4721TIP3    H214128   3.723   5.850   4.049 -1.0523 -2.9350 -0.3963
 4722TIP3   OH214129   3.681   1.282   2.583  0.1770 -0.0095 -0.2201
 4722TIP3    H114130   3.674   1.342   2.656  1.9307  0.1531 -0.1476
 4722TIP3    H214131   3.762   1.306   2.539 -0.3326 -0.7363 -1.6572
 4723TIP3   OH214132   1.541   4.922   4.159 -0.0437  0.5896  0.0874
 4723TIP3    H114133   1.493   4.970   4.091 -0.8635  0.8008  0.7881
 4723TIP3    H214134   1.474   4.870   4.203  0.7403 -0.7378 -0.2514
 4724TIP3   OH214135   1.579   2.530   0.167  0.2599 -0.0466 -0.1364
 4724TIP3    H114136   1.645   2.461   0.161 -0.8133 -1.0672 -0.7224
 4724TIP3    H214137   1.528   2.520   0.087  0.2081  1.5745 -0.3186
 4725TIP3   OH214138   2.759   5.899   5.833 -0.1270  0.1964  0.1803
 4725TIP3    H114139   2.738   5.822   5.886  1.8148  1.3775  2.9473
 4725TIP3    H214140   2.844   5.880   5.795 -0.5303  0.2405 -0.7776
 4726TIP3   OH214141   0.777   0.891   3.340 -0.6954  0.2117  0.3129
 4726TIP3    H114142   0.871   0.902   3.329 -0.9285  0.9864 -1.0908
 4726TIP3    H214143   0.767   0.865   3.432  0.8138  1.0618  0.7585
 4727TIP3   OH214144   2.449   3.574   4.281 -0.0163  0.2595 -0.0732
 4727TIP3    H114145   2.504   3.652   4.284  0.8220 -0.2643 -1.1826
 4727TIP3    H214146   2.363   3.607   4.255  0.6154  0.6981 -1.7299
 4728TIP3   OH214147   1.474   0.709   2.997 -0.1166  0.5223 -0.5992
 4728TIP3    H114148   1.378   0.707   2.992 -0.2613 -0.3621  1.3730
 4728TIP3    H214149   1.503   0.663   2.919 -1.2049  2.4371 -2.2104
 4729TIP3   OH214150   7.203   6.458   4.249 -0.7766 -0.3088  0.2183
 4729TIP3    H114151   7.273   6.516   4.278 -1.0932 -1.3334  3.4470
 4729TIP3    H214152   7.135   6.517   4.216 -0.0831  0.9794  1.0281
 4730TIP3   OH214153   5.446   5.263   5.654  0.7792  0.3903  0.8997
 4730TIP3    H114154   5.465   5.178   5.692  2.0057  0.6863  1.0215
 4730TIP3    H214155   5.497   5.325   5.707  2.6229  0.8114 -1.1901
 4731TIP3   OH214156   0.984   5.851   3.863  0.6585 -0.5143 -0.2497
 4731TIP3    H114157   0.983   5.924   3.925 -0.2263 -0.2002 -0.6170
 4731TIP3    H214158   1.069   5.856   3.821  0.8891 -0.1435  0.2510
 4732TIP3   OH214159   2.226   6.213   4.450 -0.5046 -0.0650 -0.0111
 4732TIP3    H114160   2.150   6.179   4.404 -0.7762 -0.4218  0.6782
 4732TIP3    H214161   2.240   6.300   4.414 -0.7244 -0.3295 -0.7375
 4733TIP3   OH214162   4.790   0.570   1.210 -0.1472  0.3907  0.1506
 4733TIP3    H114163   4.801   0.654   1.255 -1.3781  0.5510  0.1939
 4733TIP3    H214164   4.701   0.542   1.233 -0.2525 -0.2595 -0.9799
 4734TIP3   OH214165   4.298   3.536   1.000  0.7004  0.8514  0.3152
 4734TIP3    H114166   4.322   3.545   0.908 -0.7406  0.1710 -0.1670
 4734TIP3    H214167   4.339   3.454   1.029  1.8604  1.4918  0.5512
 4735TIP3   OH214168   1.278   0.354   2.129 -0.1294 -0.2517  0.3626
 4735TIP3    H114169   1.346   0.403   2.083 -1.1848 -1.2071 -2.4249
 4735TIP3    H214170   1.204   0.415   2.133 -0.2673 -0.4065  0.1631
 4736TIP3   OH214171   0.284   5.262   0.191 -0.1742  0.0548  0.2194
 4736TIP3    H114172   0.249   5.209   0.120 -0.9540  1.4485 -0.4929
 4736TIP3    H214173   0.215   5.325   0.210  1.6473  2.5287 -0.8038
 4737TIP3   OH214174   7.121   1.558   2.560  0.1573  0.3625 -0.5755
 4737TIP3    H114175   7.143   1.465   2.558 -0.9222  0.0636  0.5940
 4737TIP3    H214176   7.195   1.600   2.516  1.7769 -0.8356  0.8548
 4738TIP3   OH214177   2.690   0.004   1.591 -0.2042  0.8030  0.9894
 4738TIP3    H114178   2.762   0.003   1.653  0.6001 -0.5977  0.0955
 4738TIP3    H214179   2.684   0.095   1.562 -0.3589  1.4069  2.7890
 4739TIP3   OH214180   0.882   0.005   4.537 -0.0257 -0.0551  0.4346
 4739TIP3    H114181   0.957  -0.039   4.577 -0.4671 -0.1189  1.2162
 4739TIP3    H214182   0.887   0.095   4.568 -0.5178 -0.1675  0.8523
 4740TIP3   OH214183   1.911   0.213   5.801  0.1310  0.1051  0.2480
 4740TIP3    H114184   2.002   0.184   5.794  0.8729  1.5230  2.7505
 4740TIP3    H214185   1.885   0.189   5.890 -1.4142  1.1438  0.1108
 4741TIP3   OH214186   1.411   0.428   1.303 -0.4759  0.1118  0.1168
 4741TIP3    H114187   1.374   0.512   1.330 -0.3667  0.0681  0.3987
 4741TIP3    H214188   1.366   0.363   1.356  1.2481  0.1921  1.7885
 4742TIP3   OH214189   3.358   1.822   2.686 -0.3288  0.3907 -0.0690
 4742TIP3    H114190   3.360   1.759   2.614 -1.0607  0.9894 -0.6267
 4742TIP3    H214191   3.423   1.789   2.749 -1.2675 -1.3526  0.0414
 4743TIP3   OH214192   6.324   4.338   1.930 -0.5167 -0.0850 -0.2873
 4743TIP3    H114193   6.360   4.412   1.881 -2.6911  1.7913  0.7637
 4743TIP3    H214194   6.246   4.312   1.882 -1.2332  0.0940  0.7254
 4744TIP3   OH214195   4.158   0.805   1.808  0.0255  0.4463  0.4242
 4744TIP3    H114196   4.070   0.802   1.845  0.1611 -1.3669  0.6543
 4744TIP3    H214197   4.145   0.835   1.718 -1.0002 -1.1553  0.0090
 4745TIP3   OH214198   0.077   3.201   1.372 -0.4975  0.0188  0.3449
 4745TIP3    H114199   0.056   3.151   1.451  0.4682  0.4605  0.9012
 4745TIP3    H214200   0.172   3.193   1.364 -0.7729 -2.2020 -2.2442
 4746TIP3   OH214201   1.623   1.764   2.315  0.5929  0.4691  0.1369
 4746TIP3    H114202   1.710   1.724   2.317 -0.5950 -2.3226  0.2942
 4746TIP3    H214203   1.593   1.758   2.406  0.6384  2.5354  0.3361
 4747TIP3   OH214204   6.514   3.760   5.716  0.0671 -0.0333  0.0988
 4747TIP3    H114205   6.451   3.816   5.763 -0.3174  0.1364 -0.5988
 4747TIP3    H214206   6.498   3.672   5.750 -0.5408  0.0132 -0.0559
 4748TIP3   OH214207   1.753   1.530   2.049  0.5805 -0.3106  0.6642
 4748TIP3    H114208   1.740   1.494   1.962  0.7866  1.1345  0.0023
 4748TIP3    H214209   1.676   1.502   2.098 -0.3231  0.1435 -0.4471
 4749TIP3   OH214210   4.053   2.223   5.352  0.3039  0.3037 -0.3018
 4749TIP3    H114211   4.058   2.199   5.260  0.4750 -1.8651  0.2043
 4749TIP3    H214212   4.142   2.208   5.385 -0.2345 -1.0409  0.6389
 4750TIP3   OH214213   0.275   6.420   3.943 -0.6846  0.0288  0.3025
 4750TIP3    H114214   0.281   6.362   3.868 -0.6900  0.6264 -0.1737
 4750TIP3    H214215   0.266   6.508   3.905  2.8710  0.8273  0.9143
 4751TIP3   OH214216   5.213   3.772   0.694 -0.0311  0.3977  0.1916
 4751TIP3    H114217   5.267   3.802   0.767 -0.5041 -0.6386  0.9975
 4751TIP3    H214218   5.159   3.702   0.732 -1.2329  0.7459 -0.8295
 4752TIP3   OH214219   6.712   4.738   0.570 -0.3089 -0.4612  0.2695
 4752TIP3    H114220   6.803   4.711   0.558  0.1424 -0.0945  2.3348
 4752TIP3    H214221   6.666   4.658   0.596 -0.1699 -0.3282  0.9541
 4753TIP3   OH214222   1.056   0.154   4.142  0.2209 -0.2588 -0.0077
 4753TIP3    H114223   0.976   0.153   4.194 -0.1304 -0.2758 -0.5390
 4753TIP3    H214224   1.127   0.160   4.206 -0.2183  0.0672  0.4484
 4754TIP3   OH214225   3.417   6.676   0.340 -0.3982 -0.0742 -0.8384
 4754TIP3    H114226   3.419   6.599   0.284  0.3133 -0.0839 -0.8047
 4754TIP3    H214227   3.454   6.647   0.423  0.6681  0.5023 -1.0908
 4755TIP3   OH214228   2.364   5.728   3.851 -0.2673 -0.6057 -0.1059
 4755TIP3    H114229   2.269   5.738   3.862 -0.1846 -1.2527  1.5622
 4755TIP3    H214230   2.381   5.637   3.876  0.7058 -0.7251 -1.1547
 4756TIP3   OH214231   6.746   1.493   2.989 -0.4856  0.2562  0.1328
 4756TIP3    H114232   6.774   1.411   2.949 -2.5530 -0.4097 -0.0927
 4756TIP3    H214233   6.692   1.535   2.922  0.4321  1.7670  0.2989
 4757TIP3   OH214234   6.642   6.066   0.108  0.1287  0.2745 -0.4240
 4757TIP3    H114235   6.683   6.031   0.029 -1.9592 -0.5100 -1.2518
 4757TIP3    H214236   6.641   6.161   0.094  1.2867  0.2868 -0.5317
 4758TIP3   OH214237   7.087   6.631   4.905  0.0967  0.1512 -0.0966
 4758TIP3    H114238   7.056   6.546   4.937 -1.1471  0.7214  0.2506
 4758TIP3    H214239   7.028   6.652   4.833  0.8390  0.4208 -0.6484
 4759TIP3   OH214240   3.734   0.120   1.128 -0.1854  0.0624 -0.5217
 4759TIP3    H114241   3.699   0.107   1.216  0.4214  1.5717 -0.0272
 4759TIP3    H214242   3.757   0.032   1.098 -1.5851 -0.6248  0.3020
 4760TIP3   OH214243   1.137   1.472   1.765  0.2276 -0.4392 -0.6360
 4760TIP3    H114244   1.078   1.493   1.692 -1.5553 -1.7565  0.3509
 4760TIP3    H214245   1.204   1.416   1.727 -0.5894 -0.9809 -1.3129
 4761TIP3   OH214246   4.067   3.578   0.090  0.0202 -0.0232 -0.4048
 4761TIP3    H114247   4.064   3.647   0.156  1.2164 -0.0605 -0.2768
 4761TIP3    H214248   4.086   3.623   0.008  0.1908 -0.1349 -0.4280
 4762TIP3   OH214249   7.032   0.801   3.875  0.3376  0.3209  0.1089
 4762TIP3    H114250   6.991   0.719   3.846 -1.1762  0.7211  1.0166
 4762TIP3    H214251   7.123   0.793   3.846 -0.2756 -0.7348 -1.7208
 4763TIP3   OH214252   6.881   6.022   2.485  0.1493 -0.0749 -0.1851
 4763TIP3    H114253   6.871   6.048   2.576  0.3307 -1.9211  0.4129
 4763TIP3    H214254   6.818   6.076   2.437 -0.4212  0.4592  1.1180
 4764TIP3   OH214255   3.936   0.329   4.416  0.1373  0.0229  0.2128
 4764TIP3    H114256   3.842   0.340   4.403  0.0996 -0.9982 -0.5338
 4764TIP3    H214257   3.974   0.413   4.390 -0.4755  0.0373 -0.7055
 4765TIP3   OH214258   6.283   0.626   3.129  0.0276  0.2615  0.6059
 4765TIP3    H114259   6.206   0.677   3.107  1.6748  0.9168 -5.4725
 4765TIP3    H214260   6.349   0.690   3.153  1.1839  1.0976 -3.9273
 4766TIP3   OH214261   6.619   6.750   2.633  0.2069  0.0827 -0.1973
 4766TIP3    H114262   6.571   6.800   2.566  0.6332  0.4582 -0.2248
 4766TIP3    H214263   6.551   6.701   2.678 -0.1249  0.0609 -0.7075
 4767TIP3   OH214264   6.168   4.064   5.636 -0.3433  0.1453 -0.3924
 4767TIP3    H114265   6.151   4.042   5.545  0.2595  2.0067 -1.0083
 4767TIP3    H214266   6.138   4.155   5.645  0.8164  0.4360  0.9013
 4768TIP3   OH214267   2.451   1.201   4.228 -0.3126  0.1914  0.2617
 4768TIP3    H114268   2.464   1.201   4.323 -1.2788  0.0562  0.4079
 4768TIP3    H214269   2.526   1.249   4.194 -0.6461  1.4715  1.2098
 4769TIP3   OH214270   0.607   2.764   2.939  0.2574  0.0597 -0.1404
 4769TIP3    H114271   0.685   2.736   2.987  1.1095 -0.6307 -1.8375
 4769TIP3    H214272   0.626   2.743   2.847 -2.4497 -1.4325 -0.4833
 4770TIP3   OH214273   4.256   0.028   5.726  0.0433  0.0173  0.3142
 4770TIP3    H114274   4.308  -0.046   5.694 -0.3353 -0.6175  1.1498
 4770TIP3    H214275   4.300   0.105   5.689  1.3644 -0.5277  0.6884
 4771TIP3   OH214276   0.433   0.870   3.531 -0.2382 -0.1964  0.3942
 4771TIP3    H114277   0.462   0.847   3.443 -0.4784 -1.4599  0.6223
 4771TIP3    H214278   0.431   0.965   3.532  1.1685 -0.1206 -0.5174
 4772TIP3   OH214279   5.697   3.686   2.548 -0.1470  0.2662 -0.0668
 4772TIP3    H114280   5.613   3.732   2.551  0.3710  1.2952 -0.9735
 4772TIP3    H214281   5.675   3.598   2.517 -0.8542  0.6012 -0.5269
 4773TIP3   OH214282   6.799   5.018   0.528 -0.0717  0.0567 -0.1239
 4773TIP3    H114283   6.777   4.925   0.539 -0.1664 -0.0727 -1.2126
 4773TIP3    H214284   6.894   5.022   0.540 -0.2312  0.0596  1.2855
 4774TIP3   OH214285   5.920   1.386   1.669 -0.0510 -0.2706  0.3264
 4774TIP3    H114286   5.887   1.447   1.735 -0.7986  0.4666 -0.6867
 4774TIP3    H214287   6.009   1.366   1.697 -0.0281  0.7653  1.0571
 4775TIP3   OH214288   6.003   4.828   1.920 -0.1437  0.2006 -0.5969
 4775TIP3    H114289   5.949   4.756   1.886  0.6181 -1.2380  1.0298
 4775TIP3    H214290   6.092   4.807   1.890  0.5674 -1.1734  2.1117
 4776TIP3   OH214291   3.455   6.381   4.348 -0.7680  0.2098  0.0066
 4776TIP3    H114292   3.410   6.386   4.263 -0.9238 -0.2687  0.0560
 4776TIP3    H214293   3.524   6.317   4.334 -0.0470  0.9914 -0.0878
 4777TIP3   OH214294   0.164   2.556   3.780 -0.3127  0.4361  0.1521
 4777TIP3    H114295   0.211   2.539   3.698  1.3232  1.7701  0.7614
 4777TIP3    H214296   0.116   2.637   3.764 -0.0190  0.6785  0.4926
 4778TIP3   OH214297   3.752   0.564   0.055  0.0750 -0.5761  0.2126
 4778TIP3    H114298   3.718   0.583   0.143 -1.8584 -0.4742 -0.4944
 4778TIP3    H214299   3.711   0.480   0.032 -0.0551 -0.2325 -0.8748
 4779TIP3   OH214300   0.877   2.566   2.800  0.6746  0.1127 -0.3127
 4779TIP3    H114301   0.816   2.638   2.784  0.4057 -0.2514 -0.9491
 4779TIP3    H214302   0.944   2.604   2.857  0.2549  0.7216 -0.2192
 4780TIP3   OH214303   0.345   3.703   4.973 -0.4316 -0.0868 -0.1717
 4780TIP3    H114304   0.420   3.679   5.028  1.4174 -0.0951 -2.4973
 4780TIP3    H214305   0.334   3.797   4.987  0.6656  0.1036 -0.4785
 4781TIP3   OH214306   3.659   0.183   2.638 -0.1444 -0.3786  0.5567
 4781TIP3    H114307   3.733   0.166   2.578 -0.4913 -0.7812  0.2328
 4781TIP3    H214308   3.592   0.222   2.582 -0.3127 -0.3567  0.7743
 4782TIP3   OH214309   5.505   0.100   1.147  0.5928 -0.0828 -0.6737
 4782TIP3    H114310   5.525   0.114   1.240  1.7668 -0.0193 -0.9203
 4782TIP3    H214311   5.409   0.101   1.143  0.2463 -4.1226  1.1848
 4783TIP3   OH214312   0.666   0.682   4.074  0.0634  0.1144 -0.0665
 4783TIP3    H114313   0.632   0.698   3.986 -1.0038  0.2684  0.3582
 4783TIP3    H214314   0.714   0.599   4.067 -1.8432 -1.0205 -0.3261
 4784TIP3   OH214315   4.824   2.172   2.041  0.5735  0.1717 -0.2575
 4784TIP3    H114316   4.898   2.217   2.081 -0.5471  1.3242  0.6109
 4784TIP3    H214317   4.795   2.231   1.971  0.7909 -0.5306 -0.9591
 4785TIP3   OH214318   3.844   0.996   1.275  0.3966  0.4981 -0.6997
 4785TIP3    H114319   3.796   1.075   1.249  2.5851  2.1303 -0.1205
 4785TIP3    H214320   3.902   0.978   1.201 -0.3219 -0.7987 -0.9649
 4786TIP3   OH214321   3.122   1.437   2.545  0.7286  0.3959  0.1777
 4786TIP3    H114322   3.104   1.355   2.590 -1.8170  1.9565  2.2827
 4786TIP3    H214323   3.063   1.437   2.470 -0.1913  0.7657  0.8752
 4787TIP3   OH214324   5.665   1.569   4.143 -0.5337 -0.5248  0.2750
 4787TIP3    H114325   5.743   1.570   4.087 -0.2873  1.5627  0.5885
 4787TIP3    H214326   5.596   1.533   4.088  0.6193 -2.4528 -0.0018
 4788TIP3   OH214327   0.023   4.382   4.743  0.5925 -0.1126 -0.3421
 4788TIP3    H114328   0.093   4.333   4.787 -0.2939 -1.7976 -0.7161
 4788TIP3    H214329   0.037   4.365   4.650 -1.6068 -2.4580 -0.3514
 4789TIP3   OH214330   1.160   5.184   3.638 -0.3123  0.0118 -0.6671
 4789TIP3    H114331   1.189   5.096   3.663  0.3719  0.6325  0.8256
 4789TIP3    H214332   1.173   5.237   3.716 -1.1064  1.3673 -1.4153
 4790TIP3   OH214333   1.173   5.387   3.461 -0.0865  0.0873  0.0541
 4790TIP3    H114334   1.199   5.359   3.373 -1.0648  0.4109 -0.3494
 4790TIP3    H214335   1.179   5.307   3.514  1.6592  0.1281 -0.0052
 4791TIP3   OH214336   0.013   5.879   5.725 -0.1011  0.3686 -0.1259
 4791TIP3    H114337   0.050   5.957   5.682  0.3552 -0.0926 -0.5813
 4791TIP3    H214338  -0.031   5.832   5.654 -1.6164  0.9132  0.4007
 4792TIP3   OH214339   2.422   5.207   4.902 -0.2103 -0.3136  0.0148
 4792TIP3    H114340   2.330   5.235   4.899  0.0275  0.4678 -2.7273
 4792TIP3    H214341   2.472   5.289   4.899  0.5540 -0.7717 -0.1474
 4793TIP3   OH214342   2.090   6.720   3.579  0.3367 -0.3379  0.1291
 4793TIP3    H114343   2.135   6.767   3.650  2.9610 -1.6451 -0.5290
 4793TIP3    H214344   2.001   6.753   3.581  1.1574  2.0658  1.9337
 4794TIP3   OH214345   1.010   1.200   1.520  0.4034  0.3096  0.4834
 4794TIP3    H114346   1.085   1.225   1.574  0.9096 -0.2001  0.0176
 4794TIP3    H214347   0.959   1.281   1.512  0.9617  0.6891  0.7054
 4795TIP3   OH214348   5.128   4.555   2.643  0.2976  0.3099 -0.1918
 4795TIP3    H114349   5.126   4.505   2.725  3.6294  3.2786  1.9780
 4795TIP3    H214350   5.082   4.637   2.663  1.4421  1.2256 -1.1776
 4796TIP3   OH214351   3.606   3.607   1.873 -0.3815  0.5791 -0.1549
 4796TIP3    H114352   3.649   3.679   1.827  1.1298 -0.6211 -0.7113
 4796TIP3    H214353   3.529   3.647   1.914  0.8354  2.6647  0.2293
 4797TIP3   OH214354   7.024   5.192   2.521 -0.0759 -0.0330  0.4111
 4797TIP3    H114355   7.094   5.135   2.553 -0.0619 -0.1485  0.1751
 4797TIP3    H214356   6.946   5.138   2.520 -0.4042  0.3982  1.7129
 4798TIP3   OH214357   2.240   1.974   3.636 -0.3439 -0.4295 -0.2638
 4798TIP3    H114358   2.310   1.910   3.650 -0.9775 -1.8697 -3.0171
 4798TIP3    H214359   2.285   2.058   3.631  1.1946 -1.2800 -1.6748
 4799TIP3   OH214360   5.683   3.534   3.313 -0.0235 -0.0354 -0.2032
 4799TIP3    H114361   5.638   3.602   3.362 -0.7370  0.6856 -1.8115
 4799TIP3    H214362   5.709   3.470   3.380  0.3314  1.6038  1.2784
 4800TIP3   OH214363   6.118   1.565   4.982 -0.4951 -0.8421 -0.4441
 4800TIP3    H114364   6.089   1.568   5.073 -0.4572  0.9431 -0.4501
 4800TIP3    H214365   6.101   1.475   4.954  1.0390 -1.9148  1.7940
 4801TIP3   OH214366   5.442   6.223   0.830 -0.1811 -0.4530  0.2618
 4801TIP3    H114367   5.467   6.249   0.919  0.8637  1.6998 -0.5949
 4801TIP3    H214368   5.519   6.241   0.777 -1.3714  0.0478 -1.3884
 4802TIP3   OH214369   6.823   5.051   3.007 -0.3166  0.1859 -0.8446
 4802TIP3    H114370   6.862   5.135   2.982 -0.8118  0.0211 -2.2564
 4802TIP3    H214371   6.754   5.075   3.069  0.7238  0.6403  0.1906
 4803TIP3   OH214372   5.269   4.783   0.399  0.6695  0.1005  0.7377
 4803TIP3    H114373   5.301   4.741   0.319 -1.3093  0.7585 -0.4598
 4803TIP3    H214374   5.185   4.741   0.417  1.3889 -0.5455  2.9420
 4804TIP3   OH214375   0.933   2.313   2.222 -0.1560 -0.6247  0.0589
 4804TIP3    H114376   0.958   2.232   2.268 -0.1458 -0.9601 -0.5302
 4804TIP3    H214377   0.977   2.307   2.137  1.0816  0.7016  0.5504
 4805TIP3   OH214378   4.889   4.601   4.957  0.0108 -0.2041  0.2520
 4805TIP3    H114379   4.819   4.667   4.949  1.5637  1.6239  1.0815
 4805TIP3    H214380   4.969   4.649   4.936  1.2413 -1.7721  1.2265
 4806TIP3   OH214381   3.139   5.259   3.615 -0.0369  0.9594 -0.2703
 4806TIP3    H114382   3.181   5.175   3.597 -1.8571 -0.6580  2.2419
 4806TIP3    H214383   3.155   5.274   3.708 -3.5071  1.0181  0.4505
 4807TIP3   OH214384   6.240   4.887   0.450  0.4447  0.2460  0.2175
 4807TIP3    H114385   6.229   4.862   0.541 -1.9348  1.5390  0.3727
 4807TIP3    H214386   6.263   4.980   0.453 -0.1913  0.4365 -0.4817
 4808TIP3   OH214387   5.367   6.757   2.921  0.5403 -0.2953 -0.5010
 4808TIP3    H114388   5.320   6.811   2.857  0.2382  0.8429  0.6653
 4808TIP3    H214389   5.457   6.789   2.918  0.3553  0.3239  0.2109
 4809TIP3   OH214390   4.800   0.993   5.174 -0.7079 -0.2831 -0.0700
 4809TIP3    H114391   4.779   0.908   5.136 -1.9339  0.2498 -0.6289
 4809TIP3    H214392   4.895   1.000   5.165 -0.4511 -1.9732  0.8469
 4810TIP3   OH214393   0.793   3.255   4.978  0.2192  0.5478  0.4225
 4810TIP3    H114394   0.762   3.267   4.888  0.1875 -1.4952  0.1024
 4810TIP3    H214395   0.737   3.312   5.031 -0.5460  0.8956 -0.7285
 4811TIP3   OH214396   0.324   2.521   3.572 -0.0545 -0.5008  0.5289
 4811TIP3    H114397   0.409   2.565   3.579 -0.3534 -0.1183  2.5244
 4811TIP3    H214398   0.332   2.445   3.630 -1.0130 -0.5303  0.6413
 4812TIP3   OH214399   1.367   5.447   2.733 -0.4566 -0.3561 -0.0378
 4812TIP3    H114400   1.336   5.479   2.649  1.0952 -0.0835 -0.5222
 4812TIP3    H214401   1.407   5.523   2.775 -0.2585 -0.7400  0.4796
 4813TIP3   OH214402   2.901   4.463   4.758  0.4512 -0.1784 -0.3613
 4813TIP3    H114403   2.918   4.516   4.680  2.5042 -2.1672 -1.4223
 4813TIP3    H214404   2.856   4.385   4.724 -1.0186  0.0906  0.8775
 4814TIP3   OH214405   6.244   4.699   2.616  0.2277 -0.0559  0.3462
 4814TIP3    H114406   6.332   4.736   2.625  0.2667  0.2921 -1.1346
 4814TIP3    H214407   6.198   4.726   2.695  1.4330 -0.2066  1.1243
 4815TIP3   OH214408   0.798   1.813   5.069  0.2874 -0.4556 -0.0598
 4815TIP3    H114409   0.752   1.729   5.071  1.7032 -1.4217 -2.6122
 4815TIP3    H214410   0.756   1.862   4.998  2.1780 -0.8083 -1.5018
 4816TIP3   OH214411   3.299   4.411   4.207 -0.3444 -0.1261  0.1001
 4816TIP3    H114412   3.334   4.451   4.127 -0.2820  2.1034  1.1624
 4816TIP3    H214413   3.207   4.395   4.187 -0.6289  1.5304 -0.0711
 4817TIP3   OH214414   1.938   3.597   4.533  0.4622 -0.2792 -0.1480
 4817TIP3    H114415   1.896   3.556   4.608  0.6985  1.2167  0.8332
 4817TIP3    H214416   1.999   3.530   4.500  0.1154 -1.0653  0.7750
 4818TIP3   OH214417   6.754   4.789   1.533 -0.2895 -0.4188 -0.1679
 4818TIP3    H114418   6.684   4.734   1.568  1.1440 -1.3637  1.3484
 4818TIP3    H214419   6.769   4.756   1.444  0.7393 -2.7738  0.8058
 4819TIP3   OH214420   5.095   2.948   3.296 -0.1740  0.4666  0.8259
 4819TIP3    H114421   5.038   2.877   3.327 -0.4525  0.3449  0.0621
 4819TIP3    H214422   5.120   2.995   3.376 -0.3038 -0.2535  1.3023
 4820TIP3   OH214423   5.054   4.207   1.914 -0.6147 -0.4032  0.3082
 4820TIP3    H114424   5.029   4.136   1.973 -2.4610 -0.4078 -0.4251
 4820TIP3    H214425   4.975   4.260   1.905 -0.1753  0.0204 -1.5377
 4821TIP3   OH214426   2.808   5.637   3.048 -0.2234  0.0184 -0.3158
 4821TIP3    H114427   2.896   5.640   3.086 -0.5676  2.0328  0.4424
 4821TIP3    H214428   2.823   5.624   2.955  0.9087  0.7075 -0.2563
 4822TIP3   OH214429   3.779   1.364   2.139 -0.2851  0.4775  0.2149
 4822TIP3    H114430   3.809   1.412   2.061  1.7581 -1.0763 -0.0683
 4822TIP3    H214431   3.748   1.280   2.105 -0.5061  0.2416  0.9768
 4823TIP3   OH214432   3.160   3.101   0.049 -0.2792 -0.0100 -0.1729
 4823TIP3    H114433   3.178   3.158  -0.026 -0.2257 -1.5065 -1.3354
 4823TIP3    H214434   3.245   3.091   0.092 -0.4710  1.5925  0.6996
 4824TIP3   OH214435   2.767   3.674   1.020  0.3328 -0.3641 -0.0141
 4824TIP3    H114436   2.676   3.664   1.047 -0.2090 -3.9770 -2.4349
 4824TIP3    H214437   2.816   3.619   1.081  0.4880 -0.5042 -0.2619
 4825TIP3   OH214438   6.999   5.329   5.167 -0.9385 -0.4189  0.1039
 4825TIP3    H114439   7.007   5.343   5.261  0.9944 -0.6913  0.0233
 4825TIP3    H214440   6.987   5.416   5.130  4.3474  0.6860  0.1693
 4826TIP3   OH214441   6.843   0.825   2.867  0.2994 -0.4585 -0.4829
 4826TIP3    H114442   6.893   0.871   2.934 -0.0079  0.1605 -0.6719
 4826TIP3    H214443   6.880   0.736   2.866  1.0207 -0.1640 -0.2480
 4827TIP3   OH214444   2.929   1.850   2.547 -0.6574 -0.1140  0.7148
 4827TIP3    H114445   3.025   1.855   2.545 -0.7204  1.1502  0.3689
 4827TIP3    H214446   2.909   1.825   2.637 -0.0677  2.0398  1.5082
 4828TIP3   OH214447   0.081   0.088   2.957 -0.4975  0.0908 -0.3053
 4828TIP3    H114448   0.101   0.098   2.864 -2.2448  4.0146 -0.4425
 4828TIP3    H214449   0.164   0.103   3.001  0.3103 -1.6120 -1.1391
 4829TIP3   OH214450   5.249   4.798   5.511 -0.8526 -0.0486  0.0700
 4829TIP3    H114451   5.176   4.779   5.570 -0.9305 -0.1791 -0.0680
 4829TIP3    H214452   5.214   4.782   5.424 -0.5344 -0.5259  0.0257
 4830TIP3   OH214453   1.349   0.720   2.018  0.1527 -0.1618  0.5929
 4830TIP3    H114454   1.399   0.649   2.058  0.8345 -0.1969 -0.2759
 4830TIP3    H214455   1.326   0.688   1.931 -0.8621  0.1026  0.7545
 4831TIP3   OH214456   3.927   5.104   5.667  0.5264 -0.1650 -0.6786
 4831TIP3    H114457   3.938   5.039   5.598  0.7384  1.5896 -2.3895
 4831TIP3    H214458   4.016   5.128   5.691  0.4461 -0.1339 -0.4083
 4832TIP3   OH214459   3.081   1.762   0.052 -0.7007  0.0157 -0.1491
 4832TIP3    H114460   3.025   1.763   0.130  2.7121 -2.1394  2.6083
 4832TIP3    H214461   3.129   1.845   0.056 -0.5420 -0.0847  0.0174
 4833TIP3   OH214462   4.717   5.819   1.198  0.4817  0.2957  0.5524
 4833TIP3    H114463   4.642   5.877   1.186 -0.4706 -1.0985 -0.5611
 4833TIP3    H214464   4.685   5.748   1.253  1.4773  0.5208  1.4592
 4834TIP3   OH214465   5.551   1.133   3.734  0.2984 -0.6241 -0.4847
 4834TIP3    H114466   5.473   1.078   3.723 -0.7481  0.7132 -0.0457
 4834TIP3    H214467   5.596   1.095   3.809 -1.1040 -0.1474  0.6493
 4835TIP3   OH214468   5.704   4.673   1.797 -0.0208 -0.7201 -0.0831
 4835TIP3    H114469   5.695   4.641   1.886  1.0580 -1.2264 -0.1285
 4835TIP3    H214470   5.625   4.642   1.752 -1.8058  1.6278  1.2270
 4836TIP3   OH214471   4.339   0.551   4.346  0.3375 -0.2479  0.3631
 4836TIP3    H114472   4.350   0.577   4.437  0.3702 -0.5934  0.4595
 4836TIP3    H214473   4.421   0.576   4.303  0.7580 -1.0504  0.6631
 4837TIP3   OH214474   2.369   5.717   4.982  0.1399  0.0935 -0.0339
 4837TIP3    H114475   2.459   5.693   5.004  0.0450 -0.2500 -0.0150
 4837TIP3    H214476   2.367   5.714   4.886 -0.5614 -2.6547 -0.0356
 4838TIP3   OH214477   4.714   0.608   5.372 -0.1179  0.3383  0.7549
 4838TIP3    H114478   4.717   0.662   5.293  0.9271 -0.3809  0.2700
 4838TIP3    H214479   4.806   0.593   5.393 -0.3738  0.9099  2.3996
 4839TIP3   OH214480   5.614   0.585   4.883  0.3692 -0.0303  0.0861
 4839TIP3    H114481   5.611   0.661   4.825 -0.6989 -0.9143 -1.0499
 4839TIP3    H214482   5.690   0.535   4.852 -1.3674 -1.5526 -1.9901
 4840TIP3   OH214483   5.273   4.660   4.045 -0.4089 -0.8693 -0.3528
 4840TIP3    H114484   5.262   4.755   4.042  0.0320 -0.8378 -1.6566
 4840TIP3    H214485   5.186   4.626   4.064 -0.4972 -0.2003  0.5067
 4841TIP3   OH214486   2.994   1.438   3.267  0.4650 -0.1608 -0.6169
 4841TIP3    H114487   2.981   1.530   3.241  1.5620  1.3959  3.6082
 4841TIP3    H214488   2.908   1.410   3.299  1.1071  1.1831  2.6196
 4842TIP3   OH214489   0.806   5.280   4.173  0.0087  0.1154  0.0482
 4842TIP3    H114490   0.827   5.212   4.237  1.4407  1.7763  1.4633
 4842TIP3    H214491   0.829   5.362   4.217  1.1777  1.3484 -2.6535
 4843TIP3   OH214492   6.502   5.297   0.280 -0.7591 -0.0598 -0.3456
 4843TIP3    H114493   6.558   5.281   0.204  0.7656  1.5142  0.3631
 4843TIP3    H214494   6.548   5.254   0.352  0.1468  2.0579  0.4265
 4844TIP3   OH214495   1.688   4.647   4.881  0.2486 -0.3676 -0.9480
 4844TIP3    H114496   1.630   4.664   4.807  1.1677  1.0662 -1.3701
 4844TIP3    H214497   1.741   4.572   4.854 -1.7500 -2.1009 -0.3166
 4845TIP3   OH214498   2.483   3.983   0.991  0.7098 -0.6079  0.7309
 4845TIP3    H114499   2.407   4.019   1.036 -1.1716 -1.4259 -1.5976
 4845TIP3    H214500   2.481   3.889   1.013  0.0016 -0.9403 -0.6789
 4846TIP3   OH214501   3.648   1.718   1.925  0.1978 -0.2419  0.3540
 4846TIP3    H114502   3.706   1.642   1.918  0.6368  0.1853 -0.8891
 4846TIP3    H214503   3.575   1.697   1.866  0.2301  0.2176  0.1491
 4847TIP3   OH214504   1.765   5.011   0.915  0.2025  0.5137  0.2235
 4847TIP3    H114505   1.764   5.102   0.946 -1.0057  0.4940  0.3117
 4847TIP3    H214506   1.735   4.960   0.991  0.1504  0.1295 -0.0549
 4848TIP3   OH214507   7.132   1.662   4.827 -0.4837  0.3742 -0.2089
 4848TIP3    H114508   7.219   1.690   4.856 -0.5504  1.9389 -1.3871
 4848TIP3    H214509   7.122   1.574   4.863  1.4428  0.2983  0.2496
 4849TIP3   OH214510   5.136   5.500   5.766 -0.3435  0.5229 -0.2038
 4849TIP3    H114511   5.143   5.593   5.786 -1.9711  0.1162  2.6854
 4849TIP3    H214512   5.188   5.456   5.832  0.2582 -0.6799 -1.4144
 4850TIP3   OH214513   6.250   0.512   2.554 -0.3970  0.3784 -1.0374
 4850TIP3    H114514   6.255   0.580   2.622 -0.3992 -1.4856  0.9154
 4850TIP3    H214515   6.195   0.444   2.592  0.5683 -1.2652 -2.4456
 4851TIP3   OH214516   3.738   6.765   5.114  0.3514 -0.1337  0.1560
 4851TIP3    H114517   3.675   6.837   5.114  1.5708  0.9646  0.0901
 4851TIP3    H214518   3.712   6.710   5.040 -0.0376  0.7415 -0.3674
 4852TIP3   OH214519   5.483   2.773   4.317 -0.5542  0.8596 -0.0370
 4852TIP3    H114520   5.472   2.678   4.320 -1.6346  0.9223 -1.3667
 4852TIP3    H214521   5.397   2.808   4.341 -0.4245  1.5020 -0.4935
 4853TIP3   OH214522   1.251   2.230   0.141  0.0208  0.1967 -0.2719
 4853TIP3    H114523   1.298   2.252   0.222  0.2082 -1.8333  0.2247
 4853TIP3    H214524   1.309   2.169   0.095 -1.0913 -0.5258 -0.7812
 4854TIP3   OH214525   1.085   0.061   5.589 -0.3437  0.2102 -0.5829
 4854TIP3    H114526   1.125   0.016   5.514  0.7369  0.0589  0.0678
 4854TIP3    H214527   1.155   0.116   5.624 -1.1702  1.1503 -0.3512
 4855TIP3   OH214528   4.233   3.210   5.632  0.6169 -0.1763 -0.3157
 4855TIP3    H114529   4.165   3.273   5.658  1.6386  0.5811  0.6440
 4855TIP3    H214530   4.201   3.126   5.664 -1.6665 -0.5725 -3.2484
 4856TIP3   OH214531   4.555   3.074   3.431  0.0528  0.1723  0.2099
 4856TIP3    H114532   4.469   3.103   3.402 -0.0798 -0.2536  0.1690
 4856TIP3    H214533   4.560   2.982   3.404 -0.0566 -0.2309  1.4802
 4857TIP3   OH214534   0.632   4.814   5.602 -0.3316  0.7762  0.2839
 4857TIP3    H114535   0.587   4.824   5.686 -0.1838  0.4657  0.4012
 4857TIP3    H214536   0.706   4.756   5.621 -0.7846  0.0117 -0.2443
 4858TIP3   OH214537   5.468   2.913   2.659 -0.0702 -0.6942 -0.3498
 4858TIP3    H114538   5.373   2.919   2.654 -0.0910  0.6352  0.9137
 4858TIP3    H214539   5.491   2.963   2.737  1.7847  0.4227 -1.5336
 4859TIP3   OH214540   6.293   5.749   3.850 -0.2527  0.0469  0.4187
 4859TIP3    H114541   6.359   5.681   3.841 -0.5456 -0.0853 -1.0937
 4859TIP3    H214542   6.341   5.831   3.838  0.1478  0.1734  2.5110
 4860TIP3   OH214543   2.367   0.630   4.889 -0.6779  0.5053  0.0130
 4860TIP3    H114544   2.403   0.717   4.902  0.5195  0.3655 -1.8781
 4860TIP3    H214545   2.440   0.579   4.854 -1.9901 -0.5540 -1.3445
 4861TIP3   OH214546   6.236   3.977   1.287 -0.2110 -0.2448 -0.3736
 4861TIP3    H114547   6.259   3.961   1.379  0.4135 -0.7803 -0.6132
 4861TIP3    H214548   6.170   3.911   1.267 -1.4275  0.7994  0.0937
 4862TIP3   OH214549   6.247   3.790   2.540  0.3008 -0.3874 -0.4583
 4862TIP3    H114550   6.284   3.702   2.529 -0.4576 -0.6426 -1.0424
 4862TIP3    H214551   6.153   3.779   2.525 -0.1086  0.1737  1.5255
 4863TIP3   OH214552   7.079   0.730   4.413 -0.1862  0.1834  0.6768
 4863TIP3    H114553   7.024   0.690   4.480  1.2228 -2.7934  0.2339
 4863TIP3    H214554   7.157   0.759   4.460 -0.9666  2.0388  0.9056
 4864TIP3   OH214555   3.417   1.528   4.434 -0.1625 -0.1094  0.2418
 4864TIP3    H114556   3.459   1.603   4.476 -1.8906  0.5645  0.8614
 4864TIP3    H214557   3.456   1.525   4.346  2.3748 -0.5876  1.2838
 4865TIP3   OH214558   0.126   3.914   2.924  0.5077 -0.6667 -1.0375
 4865TIP3    H114559   0.064   3.928   2.852 -0.1859 -1.4902 -0.6107
 4865TIP3    H214560   0.155   3.823   2.913 -0.4258 -1.1641  0.3364
 4866TIP3   OH214561   2.388   1.693   5.105  0.2640 -0.5006 -0.2342
 4866TIP3    H114562   2.471   1.690   5.057  1.3793 -0.3446  1.5584
 4866TIP3    H214563   2.364   1.786   5.105 -0.9314 -0.7464 -2.2907
 4867TIP3   OH214564   3.937   5.034   5.047 -0.2948 -0.0507  0.5604
 4867TIP3    H114565   3.963   4.961   4.991 -1.0118 -0.4275  0.7112
 4867TIP3    H214566   4.018   5.059   5.092 -0.1573 -1.1382  0.9463
 4868TIP3   OH214567   3.736   1.777   0.733  0.4078  0.1331 -0.1405
 4868TIP3    H114568   3.828   1.752   0.727  0.5412  0.1091  1.5055
 4868TIP3    H214569   3.738   1.873   0.734  0.5099  0.1304  0.8229
 4869TIP3   OH214570   0.451   5.268   1.174  0.5901 -0.3359 -0.1010
 4869TIP3    H114571   0.501   5.332   1.225  2.3788 -1.9143  0.2270
 4869TIP3    H214572   0.505   5.251   1.097 -1.0884  0.4195 -1.5372
 4870TIP3   OH214573   5.683   1.010   3.037  0.3961 -0.2815  0.8687
 4870TIP3    H114574   5.708   1.090   2.991  0.5256 -1.0972 -0.5287
 4870TIP3    H214575   5.638   1.041   3.116 -2.5680  1.2188 -1.2398
 4871TIP3   OH214576   2.236   6.596   5.126 -0.2698 -0.2014 -0.7971
 4871TIP3    H114577   2.141   6.584   5.117 -0.1070 -0.6481 -2.0671
 4871TIP3    H214578   2.263   6.528   5.187 -0.6754 -0.4954 -0.9426
 4872TIP3   OH214579   5.780   5.826   1.878  0.1095 -0.1818 -0.3657
 4872TIP3    H114580   5.814   5.826   1.789  1.8695 -0.8553  0.2652
 4872TIP3    H214581   5.849   5.866   1.931 -0.8376  0.0766  0.7343
 4873TIP3   OH214582   0.540   4.909   4.479 -0.4058 -0.3811 -0.2010
 4873TIP3    H114583   0.557   4.979   4.417 -2.1706 -1.1738 -1.7026
 4873TIP3    H214584   0.497   4.952   4.553 -0.7749  0.2438 -0.7657
 4874TIP3   OH214585   4.870   4.088   2.422 -0.5376 -0.3247 -0.3001
 4874TIP3    H114586   4.948   4.143   2.409 -0.8992  0.3375  0.2812
 4874TIP3    H214587   4.798   4.150   2.432 -0.9772 -0.9101  0.2326
 4875TIP3   OH214588   3.516   4.841   0.031  0.2983  0.8711 -0.0518
 4875TIP3    H114589   3.504   4.890   0.112  0.8860  1.4294 -0.2966
 4875TIP3    H214590   3.547   4.755   0.058 -0.7628  0.6087  0.3833
 4876TIP3   OH214591   1.925   1.339   2.195  0.2420 -0.0227  0.0711
 4876TIP3    H114592   1.998   1.391   2.231 -0.1259 -0.1572  1.0455
 4876TIP3    H214593   1.890   1.393   2.124 -0.0419  1.0191  0.9750
 4877TIP3   OH214594   5.913   1.743   0.107 -0.0478 -0.7540 -0.3000
 4877TIP3    H114595   5.992   1.762   0.158  0.9780  1.4654 -2.5272
 4877TIP3    H214596   5.844   1.732   0.172  0.7888  3.6804  1.6575
 4878TIP3   OH214597   1.382   0.213   2.365  0.6106  0.0664  0.3372
 4878TIP3    H114598   1.358   0.121   2.360  0.6431  0.0591  0.3152
 4878TIP3    H214599   1.353   0.250   2.282  1.1198 -0.0476  0.1039
 4879TIP3   OH214600   2.961   2.893   5.325  0.1585  0.3374 -0.0669
 4879TIP3    H114601   3.053   2.876   5.347 -0.6755  0.1396  3.9704
 4879TIP3    H214602   2.929   2.809   5.292  0.7170 -0.6062  1.6296
 4880TIP3   OH214603   5.439   4.210   2.696 -0.1549 -0.5316 -0.3286
 4880TIP3    H114604   5.470   4.164   2.618 -1.3843 -1.2991 -0.3803
 4880TIP3    H214605   5.387   4.145   2.743  0.4426 -0.0293  1.0598
 4881TIP3   OH214606   0.201   4.236   2.241  0.0268 -0.3594 -0.4702
 4881TIP3    H114607   0.265   4.282   2.186  0.6099  1.9318  1.9123
 4881TIP3    H214608   0.246   4.224   2.324 -2.3657  0.8144  1.1220
 4882TIP3   OH214609   6.652   1.797   2.283  0.1798 -0.3002  0.5266
 4882TIP3    H114610   6.651   1.768   2.191 -1.1353  0.5799  0.2255
 4882TIP3    H214611   6.744   1.818   2.301  0.2079  1.5332 -1.2881
 4883TIP3   OH214612   2.063   5.379   1.544  0.4303 -0.4681 -0.3249
 4883TIP3    H114613   2.102   5.293   1.525  2.2182 -0.3753  2.3281
 4883TIP3    H214614   2.088   5.396   1.635 -5.4269 -0.0757  1.6149
 4884TIP3   OH214615   4.131   0.417   1.638 -0.2963  0.0620 -0.4066
 4884TIP3    H114616   4.111   0.423   1.732 -1.1048 -0.5231 -0.5263
 4884TIP3    H214617   4.178   0.334   1.629  0.6171  0.5667 -0.3937
 4885TIP3   OH214618   2.033   6.623   5.641  0.6016 -0.1482 -0.4258
 4885TIP3    H114619   2.124   6.602   5.662 -0.0607 -1.5323  1.3394
 4885TIP3    H214620   2.018   6.583   5.555  0.7998 -2.9364  0.7073
 4886TIP3   OH214621   2.518   5.875   1.495 -0.3096  0.5279  0.2020
 4886TIP3    H114622   2.512   5.793   1.544  0.5673 -0.6577 -1.5648
 4886TIP3    H214623   2.610   5.902   1.504 -0.1095  0.2284 -0.8583
 4887TIP3   OH214624   0.245   5.297   0.923  1.1505 -0.3922 -0.1775
 4887TIP3    H114625   0.341   5.302   0.927  1.0791  1.4822  0.0357
 4887TIP3    H214626   0.216   5.387   0.931 -0.6576 -0.9259 -0.2806
 4888TIP3   OH214627   5.479   2.194   5.364 -0.5306  0.0121  0.0060
 4888TIP3    H114628   5.549   2.189   5.430 -0.1139 -1.4602 -0.4959
 4888TIP3    H214629   5.526   2.211   5.282 -0.8912  0.3508 -0.1265
 4889TIP3   OH214630   3.548   0.091   1.317  0.2606 -0.4130  0.7720
 4889TIP3    H114631   3.567   0.001   1.342 -2.8141 -1.2055  0.7045
 4889TIP3    H214632   3.501   0.128   1.392 -1.7542 -0.1426 -0.5378
 4890TIP3   OH214633   0.083   5.444   5.374  0.1399 -0.2067 -0.0019
 4890TIP3    H114634   0.083   5.539   5.364  0.1888 -0.1644  0.4069
 4890TIP3    H214635   0.122   5.412   5.292 -2.5834 -0.0410 -1.4738
 4891TIP3   OH214636   2.529   2.485   4.145  0.0284  0.0937 -0.2898
 4891TIP3    H114637   2.616   2.498   4.109 -0.9060  2.1692 -1.9815
 4891TIP3    H214638   2.501   2.572   4.175 -1.5019 -0.4893  0.1030
 4892TIP3   OH214639   4.269   0.864   1.544  0.0781  0.2737  0.1812
 4892TIP3    H114640   4.233   0.863   1.455  1.7800  1.1526 -0.5489
 4892TIP3    H214641   4.357   0.899   1.535  1.1224 -1.6519  1.9237
 4893TIP3   OH214642   6.144   5.323   2.928  0.4140 -0.1940 -0.0228
 4893TIP3    H114643   6.101   5.238   2.929  0.2825 -0.2703 -2.7458
 4893TIP3    H214644   6.210   5.315   2.858 -0.0386  2.0975 -0.7935
 4894TIP3   OH214645   3.125   1.466   2.140  0.0262  0.1540 -0.0485
 4894TIP3    H114646   3.164   1.513   2.214  1.8900  1.8651 -1.9700
 4894TIP3    H214647   3.032   1.489   2.143  0.0084 -0.0708  1.9085
 4895TIP3   OH214648   7.098   1.679   3.293 -0.7998  0.0155  0.0678
 4895TIP3    H114649   7.007   1.658   3.275 -1.1139  0.6875  0.8035
 4895TIP3    H214650   7.097   1.717   3.381  0.3821 -1.2499  0.6560
 4896TIP3   OH214651   4.563   6.041   5.814  0.3537 -0.4483 -0.0853
 4896TIP3    H114652   4.598   6.086   5.891  1.0499 -0.7179 -0.2322
 4896TIP3    H214653   4.638   6.032   5.756 -0.0686 -0.6436 -0.6085
 4897TIP3   OH214654   6.610   3.763   2.433 -0.2363 -0.3094 -0.2700
 4897TIP3    H114655   6.548   3.703   2.391 -2.2112  1.5469 -0.1612
 4897TIP3    H214656   6.586   3.761   2.526 -0.2066  0.4977 -0.2408
 4898TIP3   OH214657   7.020   0.026   4.213  0.0567 -0.4825  0.2906
 4898TIP3    H114658   7.082   0.052   4.145  0.2159  0.2762  0.7127
 4898TIP3    H214659   7.022   0.098   4.277 -2.7504  0.6190 -0.6661
 4899TIP3   OH214660   7.104   3.343   1.690  0.5046 -0.1316  0.0495
 4899TIP3    H114661   7.085   3.258   1.729 -1.2773 -0.4639 -1.4156
 4899TIP3    H214662   7.199   3.341   1.675  0.4889 -1.9233 -0.0838
 4900TIP3   OH214663   1.439   4.514   4.305 -0.4744  0.1376  0.2000
 4900TIP3    H114664   1.427   4.608   4.317 -1.2862  0.0839 -0.1227
 4900TIP3    H214665   1.372   4.473   4.359  0.0842 -0.2760  0.5985
 4901TIP3   OH214666   3.314   1.834   0.402  0.1060  0.0706 -0.4374
 4901TIP3    H114667   3.406   1.845   0.378  0.0104 -0.9995 -1.3858
 4901TIP3    H214668   3.267   1.891   0.341 -0.0304 -1.5520 -1.9391
 4902TIP3   OH214669   2.536   2.597   3.248  0.3593  0.1904  0.2622
 4902TIP3    H114670   2.522   2.639   3.164  0.9969  0.0839  0.0963
 4902TIP3    H214671   2.605   2.532   3.231 -0.1358 -0.4553  0.6591
 4903TIP3   OH214672   6.750   3.438   3.638 -0.3675 -0.6055  0.2360
 4903TIP3    H114673   6.771   3.350   3.669 -1.7369 -1.6776 -1.6766
 4903TIP3    H214674   6.736   3.489   3.718  1.9544 -1.6771  1.4211
 4904TIP3   OH214675   0.906   5.284   3.905  0.0863  0.3379 -0.4738
 4904TIP3    H114676   0.916   5.376   3.884 -2.6673  0.7732 -0.2299
 4904TIP3    H214677   0.840   5.282   3.975 -1.4362 -1.8625 -1.8268
 4905TIP3   OH214678   0.545   0.695   3.325 -0.8051 -0.7188  0.0540
 4905TIP3    H114679   0.630   0.661   3.353  0.1520  1.5550  0.1139
 4905TIP3    H214680   0.503   0.621   3.280  1.5084 -1.6883 -0.6406
 4906TIP3   OH214681   6.153   1.235   0.905 -0.3519 -0.2794 -0.1554
 4906TIP3    H114682   6.063   1.216   0.879 -0.8742  0.9726  0.6269
 4906TIP3    H214683   6.186   1.152   0.939 -1.3775 -0.6469 -0.0208
 4907TIP3   OH214684   4.227   2.668   3.129 -0.0699 -0.3217  0.0514
 4907TIP3    H114685   4.233   2.746   3.074  1.0673 -0.0041  0.6055
 4907TIP3    H214686   4.143   2.677   3.174 -0.0056  0.5079  0.0079
 4908TIP3   OH214687   0.901   6.462   3.177 -0.0920  0.1091 -0.2677
 4908TIP3    H114688   0.940   6.536   3.130 -0.2754 -0.6761 -1.7277
 4908TIP3    H214689   0.932   6.385   3.130  0.6821 -0.8218  1.6581
 4909TIP3   OH214690   0.830   1.711   1.395  0.0753  0.0826 -0.1851
 4909TIP3    H114691   0.833   1.791   1.343  0.0744  1.7972  2.3297
 4909TIP3    H214692   0.852   1.738   1.484 -2.7366 -2.1570  1.3770
 4910TIP3   OH214693   2.008   5.542   5.702  0.2908  0.3043  0.3058
 4910TIP3    H114694   2.078   5.552   5.767 -0.7605  0.3578  1.4829
 4910TIP3    H214695   1.927   5.548   5.754 -0.6109  1.2074 -1.1407
 4911TIP3   OH214696   5.454   3.195   1.151 -0.6595 -0.6759  0.4775
 4911TIP3    H114697   5.492   3.113   1.119 -1.6494 -0.6606 -0.7930
 4911TIP3    H214698   5.360   3.184   1.139 -0.9796 -0.1652  2.2694
 4912TIP3   OH214699   3.227   2.839   5.335 -0.1791 -0.2087 -0.6750
 4912TIP3    H114700   3.297   2.893   5.373 -0.9724  1.5523 -1.6067
 4912TIP3    H214701   3.266   2.752   5.327  1.2312  0.2396  0.6678
 4913TIP3   OH214702   5.202   1.286   5.844 -0.5943 -1.1271 -0.3442
 4913TIP3    H114703   5.247   1.205   5.868  1.4705 -0.0561 -0.3482
 4913TIP3    H214704   5.263   1.331   5.786 -1.1208  0.9981  0.6385
 4914TIP3   OH214705   6.422   3.462   4.037 -0.2958 -0.3111 -0.1885
 4914TIP3    H114706   6.379   3.547   4.027 -2.7252 -1.2489  1.1696
 4914TIP3    H214707   6.383   3.407   3.970  0.7362 -0.5606 -0.6023
 4915TIP3   OH214708   1.221   0.655   5.722  0.0912 -0.2852  0.2475
 4915TIP3    H114709   1.172   0.717   5.776 -1.0441 -0.6145 -0.3639
 4915TIP3    H214710   1.166   0.577   5.719  1.2137 -1.1125  0.4915
 4916TIP3   OH214711   0.189   2.080   5.044 -0.1683  0.4041  0.6688
 4916TIP3    H114712   0.264   2.088   4.985  0.0615  2.7141  1.1699
 4916TIP3    H214713   0.113   2.094   4.988 -0.2530 -1.4559  0.2502
 4917TIP3   OH214714   4.255   5.422   3.957  0.3588 -0.4206  0.4024
 4917TIP3    H114715   4.345   5.401   3.934  0.3185 -0.4061  0.2301
 4917TIP3    H214716   4.243   5.385   4.045  0.4982 -0.5189  0.3799
 4918TIP3   OH214717   3.597   2.968   2.432 -0.1469 -0.0263 -0.2900
 4918TIP3    H114718   3.591   3.028   2.506 -0.1788  0.3419 -0.5868
 4918TIP3    H214719   3.551   3.013   2.361  0.4292 -0.0947 -0.7107
 4919TIP3   OH214720   2.638   6.271   4.223  0.7486 -0.2050  0.0431
 4919TIP3    H114721   2.718   6.275   4.170 -0.2280 -2.1728 -1.7358
 4919TIP3    H214722   2.605   6.361   4.224  1.2799  0.0637 -2.0040
 4920TIP3   OH214723   1.304   2.115   3.452  0.1047  0.2398  0.2051
 4920TIP3    H114724   1.320   2.102   3.358 -0.0324 -0.4950  0.2831
 4920TIP3    H214725   1.239   2.186   3.455  1.6286  1.7425 -0.1794
 4921TIP3   OH214726   6.451   0.355   1.018  0.6423 -0.1770  0.0602
 4921TIP3    H114727   6.423   0.268   1.047  1.7765 -1.1114 -1.5277
 4921TIP3    H214728   6.374   0.393   0.976  0.4462 -0.8298 -0.1698
 4922TIP3   OH214729   5.475   0.933   4.350 -0.4526 -1.0045 -0.3385
 4922TIP3    H114730   5.384   0.949   4.372 -0.0228  2.1433 -0.3699
 4922TIP3    H214731   5.523   0.952   4.430  0.3712  0.8356 -1.1971
 4923TIP3   OH214732   3.098   6.753   4.494  0.3863 -0.3098 -0.2451
 4923TIP3    H114733   3.119   6.742   4.402 -2.8404  0.8436 -1.2692
 4923TIP3    H214734   3.168   6.807   4.529  1.1850  0.0244 -2.2621
 4924TIP3   OH214735   2.116   5.619   2.692 -0.3090  0.3511 -0.1972
 4924TIP3    H114736   2.191   5.673   2.718  0.2283 -0.2767 -0.4225
 4924TIP3    H214737   2.148   5.529   2.698 -0.7388  0.1172 -1.2353
 4925TIP3   OH214738   1.731   2.043   2.361 -0.1458  0.3808 -0.0647
 4925TIP3    H114739   1.751   2.062   2.269  0.6892 -0.9829 -0.1960
 4925TIP3    H214740   1.666   1.973   2.357 -1.2249  1.3269  0.4000
 4926TIP3   OH214741   0.809   3.603   3.805  0.7124  0.3954  0.3670
 4926TIP3    H114742   0.834   3.524   3.854  0.5926  0.0450 -0.1303
 4926TIP3    H214743   0.854   3.674   3.851  1.3035 -0.0315  0.4692
 4927TIP3   OH214744   1.078   4.089   4.160  0.3299  0.1755  0.0604
 4927TIP3    H114745   1.163   4.083   4.204  0.4493  1.7227  0.0823
 4927TIP3    H214746   1.099   4.093   4.067  0.3189  0.9745  0.0859
 4928TIP3   OH214747   6.169   4.039   0.425  0.4803  0.0351 -0.0678
 4928TIP3    H114748   6.238   4.004   0.368 -0.0997 -0.3984 -0.5176
 4928TIP3    H214749   6.184   4.134   0.426  0.4984  0.0445 -0.9451
 4929TIP3   OH214750   3.168   2.932   1.953 -0.0225  0.4584 -0.2999
 4929TIP3    H114751   3.242   2.990   1.935 -0.2411  0.8559  0.0375
 4929TIP3    H214752   3.167   2.923   2.048  0.3381 -0.5550 -0.3856
 4930TIP3   OH214753   1.141   3.468   2.632 -0.1185  0.0975 -0.1560
 4930TIP3    H114754   1.130   3.502   2.720 -0.2558 -1.1456  0.3266
 4930TIP3    H214755   1.054   3.439   2.606  0.0710 -0.2864 -0.3755
 4931TIP3   OH214756   7.134   4.933   5.506 -0.0404  0.0659  0.2878
 4931TIP3    H114757   7.064   4.900   5.450  0.3297 -2.4314  1.1580
 4931TIP3    H214758   7.153   5.020   5.473 -2.2357  0.0546 -1.1859
 4932TIP3   OH214759   3.107   1.804   3.895  0.2143  0.9091 -0.2620
 4932TIP3    H114760   3.059   1.880   3.862  0.3886  0.7796 -0.8309
 4932TIP3    H214761   3.192   1.810   3.853 -0.1146 -0.1572 -1.1337
 4933TIP3   OH214762   6.675   2.852   0.723  0.0346 -0.2284  0.2489
 4933TIP3    H114763   6.734   2.856   0.648  0.3328  0.7105  0.5126
 4933TIP3    H214764   6.604   2.794   0.696  0.7653 -0.8902 -0.2935
 4934TIP3   OH214765   5.714   2.147   3.214 -0.1167  0.0039  0.6696
 4934TIP3    H114766   5.685   2.081   3.276 -2.0378  0.1501 -0.0252
 4934TIP3    H214767   5.681   2.118   3.129 -0.8170  1.6933  0.3127
 4935TIP3   OH214768   6.349   2.491   1.008 -0.1263  0.0402  0.2184
 4935TIP3    H114769   6.428   2.536   1.039 -0.1393  0.7069 -0.6987
 4935TIP3    H214770   6.344   2.412   1.063  0.3267  0.7505  1.3171
 4936TIP3   OH214771   2.612   4.414   5.357 -0.2956 -0.2445 -0.0305
 4936TIP3    H114772   2.609   4.454   5.444  0.1927 -1.3998  0.5373
 4936TIP3    H214773   2.536   4.356   5.354 -0.8351  0.4717 -0.7407
 4937TIP3   OH214774   4.806   6.287   2.690  0.2798 -0.0704 -0.0913
 4937TIP3    H114775   4.738   6.265   2.626  0.8508 -2.0770 -0.0800
 4937TIP3    H214776   4.806   6.382   2.694 -1.6781  0.0096 -1.0031
 4938TIP3   OH214777   2.522   5.748   1.236 -0.3515 -0.0352 -0.0948
 4938TIP3    H114778   2.489   5.811   1.300 -0.8583 -0.7563  0.3667
 4938TIP3    H214779   2.590   5.699   1.283 -0.3100 -0.1701 -0.2916
 4939TIP3   OH214780   7.000   5.084   0.861  0.5003  0.0990  0.2354
 4939TIP3    H114781   7.093   5.094   0.879  0.8111  2.5923 -2.0975
 4939TIP3    H214782   6.996   5.050   0.772 -0.7888  0.4527  0.1366
 4940TIP3   OH214783   7.148   4.508   0.312  0.0599 -0.0888  0.0072
 4940TIP3    H114784   7.217   4.574   0.321 -1.2952  1.2401  1.1650
 4940TIP3    H214785   7.103   4.531   0.231  0.8273 -0.8544 -0.6588
 4941TIP3   OH214786   0.737   1.262   1.598  0.4071  0.2467  0.8742
 4941TIP3    H114787   0.696   1.205   1.534  2.9489  0.7959 -1.4380
 4941TIP3    H214788   0.773   1.203   1.664 -0.0324 -0.5470  0.4101
 4942TIP3   OH214789   4.700   5.991   5.099  0.6385 -0.0237 -0.4731
 4942TIP3    H114790   4.714   6.046   5.023  0.3510  0.0128 -0.4987
 4942TIP3    H214791   4.786   5.953   5.117  1.1328  1.4021  0.3047
 4943TIP3   OH214792   2.157   2.700   5.709 -0.4892 -0.0590 -0.0494
 4943TIP3    H114793   2.209   2.749   5.772  0.9665 -0.4580 -0.9024
 4943TIP3    H214794   2.216   2.632   5.676 -1.0741  0.3502 -2.0730
 4944TIP3   OH214795   0.654   4.246   2.521  0.5642  0.2699 -0.5426
 4944TIP3    H114796   0.639   4.339   2.504  0.7397  0.2702 -0.7072
 4944TIP3    H214797   0.645   4.236   2.615  1.5316  0.6421 -0.3982
 4945TIP3   OH214798   3.364   3.029   4.079 -0.0308 -0.1183 -0.2875
 4945TIP3    H114799   3.406   3.114   4.091  1.6517 -0.9369 -0.1091
 4945TIP3    H214800   3.300   3.024   4.151  1.3460  0.1286  0.9974
 4946TIP3   OH214801   2.232   3.510   0.330  0.0080  0.4460  0.2013
 4946TIP3    H114802   2.258   3.433   0.279 -0.1463  0.0506  0.7169
 4946TIP3    H214803   2.312   3.562   0.336 -0.2309  1.0572 -1.4051
 4947TIP3   OH214804   3.516   2.822   3.324 -0.2182 -0.3928  0.3681
 4947TIP3    H114805   3.572   2.744   3.323  2.0379  1.0950  1.9709
 4947TIP3    H214806   3.501   2.840   3.417 -1.9113  0.3050 -0.0021
 4948TIP3   OH214807   3.240   2.799   1.352 -0.4238  0.3453  0.2329
 4948TIP3    H114808   3.331   2.775   1.369  0.3439  0.9257 -2.5672
 4948TIP3    H214809   3.191   2.718   1.363  0.5516 -0.1835  0.8642
 4949TIP3   OH214810   2.398   3.360   1.466  0.0321 -0.9910 -0.3751
 4949TIP3    H114811   2.449   3.293   1.419 -0.4738 -1.3888 -0.3568
 4949TIP3    H214812   2.349   3.311   1.531 -0.0309 -0.5496 -0.0902
 4950TIP3   OH214813   1.981   0.515   0.989  0.6326 -0.5631 -0.2563
 4950TIP3    H114814   2.054   0.575   1.003  2.8637 -2.6029 -2.2972
 4950TIP3    H214815   2.005   0.436   1.037 -2.0502 -0.1796  2.0150
 4951TIP3   OH214816   2.501   4.032   5.098  0.2282 -0.2232 -0.3998
 4951TIP3    H114817   2.412   3.998   5.105  0.6482 -1.0497  1.3372
 4951TIP3    H214818   2.519   4.031   5.004 -1.2593 -0.9160 -0.7108
 4952TIP3   OH214819   2.062   3.725   3.179 -0.3355  0.5972  0.2145
 4952TIP3    H114820   2.006   3.758   3.249  1.7439  0.8278  1.8608
 4952TIP3    H214821   2.009   3.734   3.100 -2.0316  2.2569  1.4475
 4953TIP3   OH214822   6.604   5.890   2.199 -0.0034  0.7169  0.3115
 4953TIP3    H114823   6.547   5.871   2.274 -0.3439  1.7904  0.3321
 4953TIP3    H214824   6.579   5.824   2.134  0.2577 -0.1886  1.1127
 4954TIP3   OH214825   2.287   0.945   0.893  0.1229 -0.2247  0.2531
 4954TIP3    H114826   2.246   1.028   0.920 -1.4309 -0.7125 -0.4995
 4954TIP3    H214827   2.343   0.921   0.967  0.1818  1.2130  0.7093
 4955TIP3   OH214828   1.643   0.688   5.428  0.4775  0.3997  0.0816
 4955TIP3    H114829   1.641   0.778   5.395 -0.2773  0.2791 -0.2270
 4955TIP3    H214830   1.722   0.684   5.482  0.0239  1.5235  0.8735
 4956TIP3   OH214831   6.665   5.419   3.683 -0.3584 -0.1230  0.1232
 4956TIP3    H114832   6.599   5.400   3.617  1.9917  2.5703 -3.3718
 4956TIP3    H214833   6.734   5.355   3.667 -0.2975 -0.2412  0.8336
 4957TIP3   OH214834   1.448   6.404   1.772  0.3903 -0.3497  0.1466
 4957TIP3    H114835   1.398   6.383   1.851 -1.0911 -1.1269 -0.9302
 4957TIP3    H214836   1.412   6.345   1.706  0.6480  1.1869 -1.4293
 4958TIP3   OH214837   2.769   5.991   1.506 -0.0316  0.2152  0.6031
 4958TIP3    H114838   2.804   6.080   1.510  0.5635 -0.0641  1.9583
 4958TIP3    H214839   2.845   5.934   1.496 -0.2149 -0.2632  1.7135
 4959TIP3   OH214840   1.683   5.235   4.302  0.3523  0.0458  0.2463
 4959TIP3    H114841   1.685   5.300   4.232  1.0766  0.8312  0.9749
 4959TIP3    H214842   1.748   5.266   4.365 -0.8700 -0.2111  1.6669
 4960TIP3   OH214843   6.691   3.374   3.371  0.4491  0.4369 -0.3435
 4960TIP3    H114844   6.706   3.420   3.453 -0.8121  1.8861 -0.8846
 4960TIP3    H214845   6.777   3.370   3.329  0.8775  0.7777  0.4960
 4961TIP3   OH214846   6.681   2.230   3.602  0.4013 -0.0077  0.1323
 4961TIP3    H114847   6.646   2.147   3.633 -0.6700  0.1427 -0.5720
 4961TIP3    H214848   6.746   2.206   3.536  0.4688 -0.2928  0.3035
 4962TIP3   OH214849   2.959   2.902   2.459 -0.7028  0.0760  0.1542
 4962TIP3    H114850   3.040   2.926   2.413 -0.2057 -1.8949 -0.0802
 4962TIP3    H214851   2.984   2.900   2.551 -0.7419  0.3571  0.1741
 4963TIP3   OH214852   3.109   1.722   1.244 -0.0369  0.1973 -0.1250
 4963TIP3    H114853   3.133   1.752   1.332 -1.5045 -0.3509  0.4971
 4963TIP3    H214854   3.017   1.746   1.235 -0.4009 -1.3549 -0.8147
 4964TIP3   OH214855   4.175   4.473   3.533  0.0879 -0.0908 -0.1230
 4964TIP3    H114856   4.264   4.484   3.502 -0.3588  1.0466 -1.1162
 4964TIP3    H214857   4.174   4.515   3.619 -0.1277  2.7255 -1.3562
 4965TIP3   OH214858   3.194   6.633   5.263 -0.4900 -0.1371 -0.4318
 4965TIP3    H114859   3.229   6.557   5.216 -1.3706 -0.4270 -0.6324
 4965TIP3    H214860   3.265   6.660   5.321  0.6159  0.2074 -1.8856
 4966TIP3   OH214861   0.956   3.526   1.308  0.2370  0.3052 -0.2700
 4966TIP3    H114862   0.881   3.498   1.256 -0.1349 -0.7222  0.7724
 4966TIP3    H214863   1.030   3.477   1.271 -0.1201 -0.8442  0.4659
 4967TIP3   OH214864   3.158   5.956   5.590 -0.1445  0.1379 -0.0258
 4967TIP3    H114865   3.139   5.865   5.567  0.7194  0.4741 -2.3999
 4967TIP3    H214866   3.227   5.951   5.656  0.4946 -0.9566 -0.7486
 4968TIP3   OH214867   7.205   5.602   4.343  0.0081 -0.1034  0.1680
 4968TIP3    H114868   7.261   5.604   4.420  0.5109 -1.6157 -0.1132
 4968TIP3    H214869   7.161   5.517   4.348 -2.3484  1.0603  0.4077
 4969TIP3   OH214870   3.615   5.210   2.812 -0.5170 -0.5245  0.4999
 4969TIP3    H114871   3.651   5.194   2.899  0.2303  0.2353  0.3439
 4969TIP3    H214872   3.690   5.198   2.753 -0.7080  0.2669  0.0894
 4970TIP3   OH214873   2.855   5.098   0.903 -0.7810  0.3054 -0.3359
 4970TIP3    H114874   2.949   5.114   0.915 -0.8220  0.7747 -0.6324
 4970TIP3    H214875   2.850   5.037   0.830 -0.6985  0.1611 -0.2208
 4971TIP3   OH214876   2.306   3.157   3.042 -0.4101 -0.3606 -0.5019
 4971TIP3    H114877   2.290   3.080   3.096  1.0564 -2.4490 -2.8179
 4971TIP3    H214878   2.400   3.156   3.027 -0.4280  1.6684 -0.9631
 4972TIP3   OH214879   3.723   4.983   1.820  0.2056 -0.1184 -0.2387
 4972TIP3    H114880   3.698   4.894   1.796 -0.2333 -0.4592  1.3308
 4972TIP3    H214881   3.649   5.014   1.872  0.7263  0.8622 -0.0783
 4973TIP3   OH214882   4.145   3.920   5.877  0.0297 -0.6669  0.1111
 4973TIP3    H114883   4.050   3.923   5.876 -0.0044 -0.6669  1.7986
 4973TIP3    H214884   4.167   3.829   5.892  0.2463 -0.3993  1.5376
 4974TIP3   OH214885   0.116   0.226   3.871 -0.5353  0.0206 -0.2771
 4974TIP3    H114886   0.063   0.302   3.894 -0.3643  0.4543 -1.2786
 4974TIP3    H214887   0.163   0.252   3.792  1.6051 -0.1505  0.8573
 4975TIP3   OH214888   2.801   4.907   0.584 -0.1050 -0.6750 -0.2917
 4975TIP3    H114889   2.761   4.988   0.553 -0.9135 -0.7342  0.5649
 4975TIP3    H214890   2.728   4.848   0.599  0.3798 -1.1273  0.3384
 4976TIP3   OH214891   4.071  -0.000   0.928 -0.2052 -0.4112  0.0282
 4976TIP3    H114892   4.103   0.086   0.955 -0.2835 -0.8419  1.6081
 4976TIP3    H214893   3.988   0.017   0.884  0.3310  0.4008 -0.6881
 4977TIP3   OH214894   0.540   6.497   0.022  0.3467  0.5325 -0.4185
 4977TIP3    H114895   0.600   6.562  -0.015  1.1532  1.0132  1.5885
 4977TIP3    H214896   0.491   6.545   0.089  1.1154 -0.9418  1.2712
 4978TIP3   OH214897   7.043   4.453   4.933  1.0412  0.3489 -0.5415
 4978TIP3    H114898   7.111   4.437   4.867  0.4662 -1.3595 -0.7685
 4978TIP3    H214899   6.987   4.520   4.893 -0.2820 -1.8365 -2.6527
 4979TIP3   OH214900   1.956   3.786   1.947 -0.0471 -0.0840  0.6255
 4979TIP3    H114901   1.916   3.786   2.034  0.7299  0.1811  0.9979
 4979TIP3    H214902   1.967   3.694   1.925  0.3680 -0.1642  1.1181
 4980TIP3   OH214903   5.662   6.424   5.036  0.0144  0.1099  0.1591
 4980TIP3    H114904   5.596   6.421   5.106 -0.2512 -0.7183 -0.1151
 4980TIP3    H214905   5.619   6.471   4.965  0.7608  2.1835  1.0102
 4981TIP3   OH214906   2.952   6.274   0.557  0.2318 -0.4394  0.1700
 4981TIP3    H114907   3.000   6.225   0.623  1.3503  0.2591 -0.1051
 4981TIP3    H214908   2.930   6.357   0.599 -0.6362 -0.6990  0.2510
 4982TIP3   OH214909   5.752   5.952   3.599  0.1163 -0.1191 -0.2745
 4982TIP3    H114910   5.825   6.013   3.605 -1.5437  2.0935 -1.2800
 4982TIP3    H214911   5.742   5.934   3.506 -1.5117  0.8540 -0.3393
 4983TIP3   OH214912   4.818   3.372   3.235  0.1037 -0.0105 -0.5769
 4983TIP3    H114913   4.786   3.334   3.317  1.1479 -0.9907 -0.6054
 4983TIP3    H214914   4.867   3.450   3.263 -1.4152  0.9401 -0.4627
 4984TIP3   OH214915   1.835   1.241   1.602  0.2186  0.4078  0.5858
 4984TIP3    H114916   1.843   1.316   1.544  0.5288  2.3688  3.0044
 4984TIP3    H214917   1.741   1.220   1.601  0.1473  0.7334 -0.2027
 4985TIP3   OH214918   6.872   5.559   3.337 -0.1336  0.2688 -0.0726
 4985TIP3    H114919   6.854   5.637   3.390  0.2797  0.6538 -0.4917
 4985TIP3    H214920   6.899   5.593   3.252 -0.6316 -0.3427 -0.4874
 4986TIP3   OH214921   7.101   2.057   2.503 -0.0279 -0.3290 -0.2459
 4986TIP3    H114922   7.156   1.991   2.461 -0.7236 -1.6665  0.8727
 4986TIP3    H214923   7.154   2.088   2.576  0.5766  0.8948 -1.1727
 4987TIP3   OH214924   2.064   3.112   5.658  0.1239 -0.3247  0.2960
 4987TIP3    H114925   2.135   3.160   5.701  1.2683 -0.9601 -0.7826
 4987TIP3    H214926   2.000   3.178   5.635  0.7646  0.3946  0.5542
 4988TIP3   OH214927   5.283   5.312   4.210 -0.1743  0.9329 -0.1674
 4988TIP3    H114928   5.345   5.252   4.169  0.6011  1.0251  0.8072
 4988TIP3    H214929   5.330   5.395   4.214  0.0276  0.7747  1.4266
 4989TIP3   OH214930   7.035   1.815   4.472 -0.5158  0.0243  0.1639
 4989TIP3    H114931   6.997   1.810   4.559 -1.2239  0.1502 -0.1323
 4989TIP3    H214932   6.998   1.739   4.425 -0.6935  0.3498 -0.2333
 4990TIP3   OH214933   0.835   4.930   3.774 -0.5153 -0.4568 -0.5247
 4990TIP3    H114934   0.880   4.869   3.716 -0.5847 -2.3592  1.3012
 4990TIP3    H214935   0.900   4.950   3.842 -0.9348  0.4846 -0.3894
 4991TIP3   OH214936   2.547   6.547   5.271 -0.2250  0.4919  0.2524
 4991TIP3    H114937   2.507   6.460   5.274 -2.0976  1.3152  2.1403
 4991TIP3    H214938   2.641   6.531   5.270 -0.5443 -1.5408 -0.5170
 4992TIP3   OH214939   0.285   5.357   4.464  0.2260 -0.1401 -0.5461
 4992TIP3    H114940   0.225   5.285   4.442  0.0592 -0.3264  0.4686
 4992TIP3    H214941   0.367   5.334   4.421  0.2074 -0.9945 -0.1340
 4993TIP3   OH214942   6.823   4.677   4.493  0.2848 -0.0542 -0.1478
 4993TIP3    H114943   6.770   4.629   4.556  0.3930  1.8543  1.5067
 4993TIP3    H214944   6.769   4.684   4.415  0.0240 -2.2152 -0.2189
 4994TIP3   OH214945   6.592   0.413   1.234 -0.1807  0.1772  0.1513
 4994TIP3    H114946   6.538   0.393   1.310 -0.2805  0.8471  0.2602
 4994TIP3    H214947   6.532   0.409   1.160 -0.0969 -0.4053  0.1032
 4995TIP3   OH214948   5.271   1.728   5.155 -0.4061  0.1721  1.0927
 4995TIP3    H114949   5.247   1.676   5.232  1.1513  1.0896  2.2615
 4995TIP3    H214950   5.218   1.808   5.162 -1.1812 -0.2738  0.4983
 4996TIP3   OH214951   6.209   2.683   4.872 -0.2376  0.2504 -0.0222
 4996TIP3    H114952   6.128   2.667   4.919  0.9546 -1.8548  1.4769
 4996TIP3    H214953   6.195   2.643   4.786 -1.0780  0.7358 -0.1269
 4997TIP3   OH214954   3.821   1.838   2.984 -0.5306 -0.0108 -0.8408
 4997TIP3    H114955   3.826   1.891   3.063  1.5835 -1.2175 -0.0678
 4997TIP3    H214956   3.889   1.873   2.927  1.7634 -2.4760  0.1773
 4998TIP3   OH214957   0.768   0.215   3.821  0.2756  0.3449 -0.2081
 4998TIP3    H114958   0.770   0.253   3.733 -0.4449  1.1911  0.1319
 4998TIP3    H214959   0.679   0.231   3.852 -0.0701 -1.6661 -0.0518
 4999TIP3   OH214960   6.136   4.174   3.579 -0.1835  0.3553 -0.1942
 4999TIP3    H114961   6.049   4.209   3.562 -0.5533 -0.2836  0.3277
 4999TIP3    H214962   6.120   4.091   3.624  0.6823 -0.1053 -0.7017
 5000TIP3   OH214963   4.132   0.114   0.172  0.1054  0.3432 -0.5091
 5000TIP3    H114964   4.166   0.031   0.204 -0.6538  0.6564  1.2476
 5000TIP3    H214965   4.141   0.174   0.247  1.8074  2.2199 -2.1082
 5001TIP3   OH214966   6.032   6.571   2.082 -0.2645 -0.1119  0.3082
 5001TIP3    H114967   5.973   6.496   2.072  1.5202 -1.3821 -1.5602
 5001TIP3    H214968   6.006   6.631   2.012 -0.3058  0.0252  0.4404
 5002TIP3   OH214969   1.313   2.507   3.634  0.4080  0.9334  0.7405
 5002TIP3    H114970   1.324   2.449   3.559 -0.5851 -0.0924  1.3624
 5002TIP3    H214971   1.402   2.519   3.668  1.0760  2.4582 -1.3067
 5003TIP3   OH214972   5.976   1.439   0.453  0.1130 -0.0309 -0.0454
 5003TIP3    H114973   5.905   1.375   0.450 -0.7708  0.8695  1.0093
 5003TIP3    H214974   6.056   1.386   0.458 -0.6862 -1.1530  3.5471
 5004TIP3   OH214975   5.219   5.787   5.768 -0.1498  0.3933  0.7443
 5004TIP3    H114976   5.134   5.821   5.741  0.7763  3.3302  1.1491
 5004TIP3    H214977   5.282   5.829   5.709  1.1787  0.2006  1.9534
 5005TIP3   OH214978   4.548   2.532   0.649  0.7834  0.3873 -0.7148
 5005TIP3    H114979   4.471   2.588   0.658  0.7633  0.9619 -3.5894
 5005TIP3    H214980   4.513   2.443   0.657  0.1698  0.6835  0.0272
 5006TIP3   OH214981   7.141   5.619   0.047  0.3849 -0.2234  0.3022
 5006TIP3    H114982   7.156   5.714   0.043 -0.4533 -0.1091 -0.4861
 5006TIP3    H214983   7.220   5.581   0.009  1.0247  0.1176  1.2508
 5007TIP3   OH214984   1.982   2.603   3.629  0.3830 -0.1674  0.0463
 5007TIP3    H114985   1.907   2.653   3.663  1.1861  0.8127  0.4101
 5007TIP3    H214986   2.042   2.597   3.703  0.4043 -1.4917 -0.0676
 5008TIP3   OH214987   5.827   3.447   4.567 -0.6213 -0.1169 -0.3866
 5008TIP3    H114988   5.903   3.391   4.576  0.8229  1.5799 -1.2847
 5008TIP3    H214989   5.773   3.405   4.500 -0.2993 -1.1325 -0.0170
 5009TIP3   OH214990   7.174   4.225   3.768 -0.4637  0.0076 -0.0238
 5009TIP3    H114991   7.213   4.312   3.757 -3.3648  1.4188  0.0547
 5009TIP3    H214992   7.136   4.205   3.683  0.3184 -1.2922 -0.0847
 5010TIP3   OH214993   6.070   2.146   1.121  0.0328 -0.2215 -0.2897
 5010TIP3    H114994   6.028   2.078   1.175 -1.0169 -0.2586 -1.1352
 5010TIP3    H214995   6.093   2.101   1.040 -0.1497  0.3049 -0.6317
 5011TIP3   OH214996   0.121   1.238   0.197  0.2884  0.3071  0.5305
 5011TIP3    H114997   0.124   1.178   0.272  0.7700  1.2223  1.2556
 5011TIP3    H214998   0.028   1.239   0.172  0.2977 -0.8682  0.3906
 5012TIP3   OH214999   6.007   1.935   4.506  0.2436  0.0818 -0.3378
 5012TIP3    H115000   5.980   2.018   4.547 -0.5300  0.6231 -1.8985
 5012TIP3    H215001   5.977   1.868   4.567 -0.3825  0.8893  0.2699
 5013TIP3   OH215002   1.451   3.751   1.329 -0.5993  0.4865  0.6936
 5013TIP3    H115003   1.469   3.841   1.357  0.5333  0.8781 -1.1529
 5013TIP3    H215004   1.525   3.700   1.362 -0.2848  0.5784  0.1294
 5014TIP3   OH215005   6.093   5.332   3.898 -0.3830  0.3134 -0.0096
 5014TIP3    H115006   6.016   5.348   3.954 -2.0009 -2.2085 -1.3194
 5014TIP3    H215007   6.061   5.346   3.809  2.0416  3.8930 -0.5249
 5015TIP3   OH215008   3.090   5.157   0.175  0.0236  0.3976 -0.3507
 5015TIP3    H115009   3.122   5.197   0.256 -1.7357  3.1085 -0.8839
 5015TIP3    H215010   3.157   5.176   0.110  0.7810 -0.5773  0.1095
 5016TIP3   OH215011   0.473   4.649   2.957  0.0680 -0.7150  0.4223
 5016TIP3    H115012   0.411   4.577   2.949  1.5350 -1.9611 -0.3384
 5016TIP3    H215013   0.532   4.623   3.028  0.6267 -0.2782  0.1319
 5017TIP3   OH215014   3.050   5.851   5.004  0.5413  0.0921  0.5688
 5017TIP3    H115015   2.972   5.830   5.055 -0.2270  1.9272  0.2309
 5017TIP3    H215016   3.021   5.852   4.913  1.1786 -0.0984  0.3523
 5018TIP3   OH215017   6.836   6.103   1.522  0.1325 -0.1751 -0.4812
 5018TIP3    H115018   6.755   6.108   1.573  0.5375 -1.1225  0.2996
 5018TIP3    H215019   6.821   6.031   1.460  0.2605 -0.1414 -0.5516
 5019TIP3   OH215020   6.777   0.249   1.781 -0.2734  0.2076 -0.0902
 5019TIP3    H115021   6.837   0.226   1.709  0.1020 -2.3731  0.9564
 5019TIP3    H215022   6.835   0.268   1.855 -0.6412  3.2508 -0.4630
 5020TIP3   OH215023   6.282   3.750   4.319 -0.0862 -0.1040  0.5954
 5020TIP3    H115024   6.345   3.821   4.329 -1.6875  1.0867  3.1364
 5020TIP3    H215025   6.335   3.670   4.325  1.9019  0.6733 -3.3138
 5021TIP3   OH215026   0.611   4.643   0.604  0.2137  0.0356 -0.2630
 5021TIP3    H115027   0.551   4.716   0.619  0.3820  0.3169 -0.9489
 5021TIP3    H215028   0.648   4.624   0.691 -1.0391 -0.3022  0.2252
 5022TIP3   OH215029   2.858   2.225   5.584 -0.2951  0.0707 -0.2210
 5022TIP3    H115030   2.835   2.183   5.667 -0.5262 -0.8688 -0.7420
 5022TIP3    H215031   2.801   2.182   5.519 -1.6761  2.2591 -0.5686
 5023TIP3   OH215032   3.723   5.343   0.189 -0.3445 -0.1913 -0.2575
 5023TIP3    H115033   3.660   5.273   0.167  0.0841 -0.1365 -1.7595
 5023TIP3    H215034   3.789   5.300   0.243  1.1217 -1.5753 -2.9614
 5024TIP3   OH215035   1.729   6.383   5.442  0.1423  0.0576 -0.2455
 5024TIP3    H115036   1.778   6.356   5.364 -2.0371  0.5746 -1.8540
 5024TIP3    H215037   1.698   6.471   5.422 -1.1178 -0.1112  0.8769
 5025TIP3   OH215038   0.084   4.641   0.840 -0.1570  0.4151 -0.0178
 5025TIP3    H115039   0.116   4.731   0.841  1.9028 -0.2661  0.1741
 5025TIP3    H215040   0.150   4.591   0.888 -1.2748 -1.1991 -0.0629
 5026TIP3   OH215041   5.177   2.541   4.085  0.3209  0.0594 -0.2547
 5026TIP3    H115042   5.112   2.554   4.154  1.0727  0.2332  0.4331
 5026TIP3    H215043   5.130   2.494   4.017 -0.3415 -0.4644  0.5427
 5027TIP3   OH215044   5.424   0.320   0.348  0.3413 -0.9685 -0.2197
 5027TIP3    H115045   5.409   0.364   0.264  1.3584  1.6340  0.8757
 5027TIP3    H215046   5.350   0.345   0.403  0.7404 -0.9311  0.3107
 5028TIP3   OH215047   2.624   6.710   4.346  0.6167 -0.1529 -0.4367
 5028TIP3    H115048   2.569   6.748   4.415  0.5352 -1.1085  0.0515
 5028TIP3    H215049   2.707   6.691   4.390  1.4867  1.5554 -1.2399
 5029TIP3   OH215050   4.927   4.935   1.581 -0.1453 -0.4199  0.5633
 5029TIP3    H115051   4.866   4.878   1.628  0.1235 -1.4753 -0.3182
 5029TIP3    H215052   4.917   4.910   1.489  1.2078 -0.2263  0.3402
 5030TIP3   OH215053   7.077   3.166   4.776 -0.6217 -0.7684 -0.6131
 5030TIP3    H115054   7.030   3.226   4.833 -0.4117 -0.6408 -0.5740
 5030TIP3    H215055   7.089   3.087   4.829 -2.5126 -1.5632 -1.2530
 5031TIP3   OH215056   5.148   1.128   1.897  0.3493 -0.6278  0.2764
 5031TIP3    H115057   5.235   1.104   1.864 -0.8709 -0.4346 -3.4871
 5031TIP3    H215058   5.098   1.046   1.893 -0.2346 -0.2809  0.3813
 5032TIP3   OH215059   0.637   1.137   3.232 -0.2866  0.2185 -0.3272
 5032TIP3    H115060   0.702   1.075   3.266 -0.1979  0.2131 -0.5049
 5032TIP3    H215061   0.615   1.104   3.145 -1.3157 -0.3722  0.1448
 5033TIP3   OH215062   0.314   1.882   0.147  0.7567 -0.3299  0.1993
 5033TIP3    H115063   0.305   1.847   0.236  1.7799 -0.6542  0.1903
 5033TIP3    H215064   0.386   1.945   0.153  0.0983  0.4775 -0.1703
 5034TIP3   OH215065   5.744   2.820   1.229 -0.5927 -0.1238  0.6296
 5034TIP3    H115066   5.782   2.740   1.193 -0.7834 -0.3052  0.8210
 5034TIP3    H215067   5.691   2.789   1.303 -0.2266  0.2326  1.0473
 5035TIP3   OH215068   1.054   0.778   1.281 -0.5900 -0.2265 -0.0379
 5035TIP3    H115069   1.137   0.772   1.326 -0.5775 -0.9863 -0.1468
 5035TIP3    H215070   1.028   0.870   1.289 -0.6488 -0.3656  1.5958
 5036TIP3   OH215071   2.588   5.885   0.189 -0.3387  0.6182 -0.1101
 5036TIP3    H115072   2.611   5.841   0.271 -1.1753 -0.1188 -0.2650
 5036TIP3    H215073   2.554   5.970   0.217  0.7924  0.9941  0.2117
 5037TIP3   OH215074   3.500   0.195   5.234 -0.4675 -0.1598 -0.1427
 5037TIP3    H115075   3.487   0.249   5.156 -1.0853 -1.2309 -0.7960
 5037TIP3    H215076   3.491   0.257   5.307 -1.8128  0.5178 -0.8443
 5038TIP3   OH215077   1.684   0.803   1.560 -0.0690  0.6024  0.2377
 5038TIP3    H115078   1.761   0.826   1.507  0.4861  0.7471  1.0901
 5038TIP3    H215079   1.638   0.887   1.572 -0.4919  0.4812 -0.4511
 5039TIP3   OH215080   0.328   0.213   5.239 -0.0704 -0.6356 -0.0163
 5039TIP3    H115081   0.379   0.263   5.175 -0.2241  0.7581  0.8912
 5039TIP3    H215082   0.375   0.131   5.249  0.3645 -0.5768 -1.3513
 5040TIP3   OH215083   6.187   0.525   1.326  0.2877 -0.7861 -0.9236
 5040TIP3    H115084   6.148   0.605   1.291  1.1881  0.4110  0.6843
 5040TIP3    H215085   6.114   0.463   1.330 -0.4194 -0.0919 -2.2296
 5041TIP3   OH215086   4.856   0.983   0.954 -0.1111  0.4027  0.0478
 5041TIP3    H115087   4.763   1.002   0.943 -0.5774 -1.6829 -0.0588
 5041TIP3    H215088   4.887   1.047   1.018 -1.5386  1.3251 -0.1491
 5042TIP3   OH215089   2.120   3.466   5.575  0.1821  0.5433  0.5286
 5042TIP3    H115090   2.088   3.516   5.500 -0.2401  0.8077  0.8812
 5042TIP3    H215091   2.197   3.420   5.542 -0.1520  0.4546 -0.1331
 5043TIP3   OH215092   2.193   3.458   2.604  0.1974 -0.3278  0.0432
 5043TIP3    H115093   2.127   3.417   2.660  1.0377 -0.8410  0.6985
 5043TIP3    H215094   2.275   3.445   2.652  0.6387  1.2279 -0.2247
 5044TIP3   OH215095   0.784   3.646   3.020  0.2657 -0.2445  0.2511
 5044TIP3    H115096   0.790   3.656   3.115 -0.4903 -0.3155  0.3194
 5044TIP3    H215097   0.705   3.593   3.008  1.0557 -1.3217 -0.3577
 5045TIP3   OH215098   1.866   0.453   3.775 -0.0524  0.5294  0.0867
 5045TIP3    H115099   1.798   0.519   3.790 -1.8493 -0.8936 -1.2613
 5045TIP3    H215100   1.820   0.381   3.731  1.8725 -1.5217  1.2417
 5046TIP3   OH215101   1.318   5.852   1.764 -0.3437 -0.3405 -0.3475
 5046TIP3    H115102   1.245   5.913   1.754 -2.0113 -2.3126 -0.8527
 5046TIP3    H215103   1.381   5.900   1.818 -1.3037  1.9958 -1.1511
 5047TIP3   OH215104   3.024   4.144   4.794 -0.3765 -0.1630  0.5430
 5047TIP3    H115105   3.110   4.141   4.753 -0.9766 -0.7025 -0.7471
 5047TIP3    H215106   3.036   4.197   4.872  0.8422  0.8643 -0.3086
 5048TIP3   OH215107   3.521   1.500   3.430 -0.3043  0.2872  0.3952
 5048TIP3    H115108   3.446   1.555   3.453  0.4421  2.0756 -1.1922
 5048TIP3    H215109   3.597   1.545   3.466  0.1988 -0.5285  0.3924
 5049TIP3   OH215110   5.752   3.944   2.326 -0.2863 -0.4054  0.0040
 5049TIP3    H115111   5.821   3.968   2.264 -0.9165 -1.0003 -0.9565
 5049TIP3    H215112   5.774   3.992   2.406 -0.6961  2.2468 -1.3421
 5050TIP3   OH215113   3.203   5.238   4.231 -0.6878  0.3922 -0.0229
 5050TIP3    H115114   3.200   5.182   4.154  0.0160  2.7332 -1.8748
 5050TIP3    H215115   3.111   5.256   4.251 -0.9412 -1.6148  0.8466
 5051TIP3   OH215116   4.015   3.212   1.162  0.0194  0.7094  0.7443
 5051TIP3    H115117   3.987   3.201   1.071  1.1408  1.1814  0.3209
 5051TIP3    H215118   3.936   3.238   1.209 -0.5665  0.4745 -0.1022
 5052TIP3   OH215119   6.370   0.693   0.182 -0.5993  0.0731 -0.4206
 5052TIP3    H115120   6.287   0.715   0.139 -1.7592 -1.1747  1.0912
 5052TIP3    H215121   6.351   0.615   0.233  1.9999 -1.3937 -1.4707
 5053TIP3   OH215122   4.709   6.067   0.795  0.4689  0.8529  0.0658
 5053TIP3    H115123   4.802   6.058   0.773  0.8892  1.9312  1.2430
 5053TIP3    H215124   4.707   6.067   0.891 -0.7968  0.4543  0.0582
 5054TIP3   OH215125   1.871   5.366   4.435 -0.3328 -0.1347 -0.3032
 5054TIP3    H115126   1.866   5.440   4.496 -0.4849  0.4271 -0.9810
 5054TIP3    H215127   1.933   5.395   4.368 -0.0600 -0.8039 -0.3485
 5055TIP3   OH215128   5.553   2.322   1.492 -0.7122  0.4893  0.6421
 5055TIP3    H115129   5.530   2.400   1.541 -0.5800  0.6945  0.3798
 5055TIP3    H215130   5.646   2.307   1.510 -0.2439  1.4904 -0.7978
 5056TIP3   OH215131   0.033   5.073   2.610  0.4525  0.0027  0.2270
 5056TIP3    H115132   0.129   5.077   2.616  0.5109  1.4188 -0.9519
 5056TIP3    H215133   0.008   5.003   2.670  2.0327  1.2875  2.5372
 5057TIP3   OH215134   2.354   3.234   2.234 -0.1481  0.2497 -0.3220
 5057TIP3    H115135   2.400   3.212   2.153  0.1257 -0.1799 -0.0569
 5057TIP3    H215136   2.261   3.219   2.214 -0.0761  0.0779 -0.5346
 5058TIP3   OH215137   3.370   5.405   0.697  0.4067  0.5833  0.6943
 5058TIP3    H115138   3.395   5.385   0.787  1.7317 -1.4288 -0.0357
 5058TIP3    H215139   3.338   5.322   0.661 -0.2875  1.3798 -0.6379
 5059TIP3   OH215140   6.936   1.946   4.095 -0.4972  0.0127 -0.0782
 5059TIP3    H115141   6.906   1.981   4.179 -0.1154 -1.0114  0.5113
 5059TIP3    H215142   6.964   1.856   4.116 -0.9473 -0.4602 -1.4144
 5060TIP3   OH215143   1.684   2.176   3.831  0.0328 -0.6914  0.4445
 5060TIP3    H115144   1.622   2.123   3.882 -0.7003 -0.3518 -0.0867
 5060TIP3    H215145   1.641   2.190   3.748  1.4636 -1.7546 -0.5402
 5061TIP3   OH215146   7.118   3.709   0.622  0.1898 -0.2975  0.0452
 5061TIP3    H115147   7.066   3.715   0.542  0.0340  1.5066  0.2280
 5061TIP3    H215148   7.063   3.750   0.689  0.9062 -0.4556  0.7433
 5062TIP3   OH215149   4.872   0.081   0.918 -0.2842  0.3984  0.1898
 5062TIP3    H115150   4.813   0.016   0.878 -0.2304  0.0085  0.7389
 5062TIP3    H215151   4.837   0.096   1.005  0.3996  0.1951  0.5090
 5063TIP3   OH215152   0.277   2.577   4.414 -0.2656 -0.1320  0.4976
 5063TIP3    H115153   0.327   2.506   4.373 -2.5324 -1.5219 -0.1053
 5063TIP3    H215154   0.248   2.631   4.341  0.9732  1.1183  0.9072
 5064TIP3   OH215155   3.359   5.780   0.380  0.2529 -0.1177 -0.0028
 5064TIP3    H115156   3.402   5.704   0.418  3.6965  2.2652  1.3316
 5064TIP3    H215157   3.410   5.800   0.302 -0.5875  0.8295 -0.3340
 5065TIP3   OH215158   0.601   4.282   1.657 -0.1489 -0.5169  0.3592
 5065TIP3    H115159   0.518   4.235   1.656  0.2467 -1.2166 -0.2631
 5065TIP3    H215160   0.576   4.375   1.656 -0.9171 -0.7194 -0.6992
 5066TIP3   OH215161   6.478   4.015   2.396 -0.2099  0.0413  0.2755
 5066TIP3    H115162   6.432   3.952   2.341  0.5649  1.3933 -2.0784
 5066TIP3    H215163   6.552   3.966   2.432  0.1461 -0.5442 -1.1788
 5067TIP3   OH215164  -0.015   4.868   2.380 -0.6500  0.3289  0.0534
 5067TIP3    H115165   0.040   4.840   2.453  1.5058  0.9558 -1.2294
 5067TIP3    H215166   0.030   4.945   2.344 -3.1475  1.7490 -0.2509
 5068TIP3   OH215167   6.231   5.074   0.107 -0.0792  0.1241  0.2509
 5068TIP3    H115168   6.262   5.164   0.101 -0.3149  0.1436 -0.8727
 5068TIP3    H215169   6.271   5.040   0.187  0.2202  1.1414  0.5436
 5069TIP3   OH215170   0.267   1.550   0.516  0.1842  0.7682 -0.0554
 5069TIP3    H115171   0.305   1.493   0.449  2.7130  3.1912 -0.8645
 5069TIP3    H215172   0.209   1.608   0.468  1.5872  2.1601 -0.1237
 5070TIP3   OH215173   7.003   5.864   0.096 -0.4216 -0.0901 -0.2574
 5070TIP3    H115174   6.997   5.925   0.023 -1.4343 -0.2454 -0.3270
 5070TIP3    H215175   6.917   5.821   0.098 -0.1467 -0.6293  0.5477
 5071TIP3   OH215176   0.553   2.396   0.595  0.0005 -0.5389 -0.5175
 5071TIP3    H115177   0.635   2.444   0.581 -0.4968  0.4668 -0.0437
 5071TIP3    H215178   0.516   2.434   0.675 -1.4839 -0.2077 -1.3419
 5072TIP3   OH215179   2.294   5.678   3.516  0.5536  0.3598  0.1031
 5072TIP3    H115180   2.224   5.640   3.570  0.6400 -0.7436 -0.5262
 5072TIP3    H215181   2.356   5.606   3.504  0.9833  0.8547 -0.7142
 5073TIP3   OH215182   1.236   1.160   3.631  0.0084 -0.2981  0.8225
 5073TIP3    H115183   1.327   1.187   3.636 -0.6118  3.1778 -2.3681
 5073TIP3    H215184   1.187   1.233   3.669 -1.5211 -0.3557 -0.8804
 5074TIP3   OH215185   4.669   6.254   3.512  0.0443  0.5036 -0.0457
 5074TIP3    H115186   4.587   6.288   3.475 -0.0792  0.4153  0.1413
 5074TIP3    H215187   4.737   6.285   3.453 -0.4114 -2.5957 -2.4137
 5075TIP3   OH215188   2.618   3.165   0.123  0.0603  0.1175 -0.5273
 5075TIP3    H115189   2.555   3.155   0.052  0.4892  0.7566 -1.0085
 5075TIP3    H215190   2.583   3.235   0.178 -0.5013 -0.6774  0.1656
 5076TIP3   OH215191   1.648   5.749   5.649 -0.2851  0.1808 -0.5166
 5076TIP3    H115192   1.712   5.811   5.614  0.2704 -0.4682 -0.6593
 5076TIP3    H215193   1.572   5.803   5.671 -0.5315  0.6482 -2.4067
 5077TIP3   OH215194   6.114   0.318   5.474  0.4725 -0.4486 -0.0513
 5077TIP3    H115195   6.031   0.353   5.443 -0.9995 -1.8189  2.0664
 5077TIP3    H215196   6.157   0.285   5.395 -0.9474  0.3619 -1.2164
 5078TIP3   OH215197   3.633   0.757   2.571  0.0147  0.3306  1.0238
 5078TIP3    H115198   3.547   0.795   2.584  0.2801  0.9590  0.9723
 5078TIP3    H215199   3.693   0.832   2.569  0.4872 -0.0516  0.4484
 5079TIP3   OH215200   5.248   5.981   0.871 -0.0820 -0.0284  0.0356
 5079TIP3    H115201   5.290   6.060   0.839 -1.3577  0.5877 -0.1487
 5079TIP3    H215202   5.281   5.972   0.961  0.2601  0.5691 -0.0240
 5080TIP3   OH215203   4.836   4.506   2.620  0.2994 -0.3808  0.5872
 5080TIP3    H115204   4.930   4.516   2.630 -0.0220  3.4986  1.1554
 5080TIP3    H215205   4.799   4.542   2.700 -1.6954 -0.3843 -0.2631
 5081TIP3   OH215206   1.879   4.782   5.209  0.1368  0.0115  0.8862
 5081TIP3    H115207   1.841   4.698   5.182  3.6351 -1.1189 -1.1368
 5081TIP3    H215208   1.912   4.766   5.298  0.8556 -0.8402  0.4810
 5082TIP3   OH215209   5.656   4.002   1.548  0.2929  0.5538  0.0391
 5082TIP3    H115210   5.702   3.969   1.626 -0.4598  0.7101  0.5654
 5082TIP3    H215211   5.567   4.019   1.579 -0.3090 -0.3864 -1.1158
 5083TIP3   OH215212   6.578   1.970   2.774 -0.1878 -0.0021 -0.0557
 5083TIP3    H115213   6.602   2.054   2.814  1.1820  0.1107 -1.0626
 5083TIP3    H215214   6.626   1.968   2.691 -0.8036 -1.4484 -0.4016
 5084TIP3   OH215215   5.296   5.964   1.424  0.3492  0.5148 -0.0892
 5084TIP3    H115216   5.347   5.935   1.348 -1.5420  0.8241 -1.5617
 5084TIP3    H215217   5.300   5.891   1.485  2.1919  0.3897 -0.3070
 5085TIP3   OH215218   1.882   6.605   0.625 -0.4306 -0.0634 -0.2126
 5085TIP3    H115219   1.898   6.511   0.616 -1.1658 -0.5011  2.2938
 5085TIP3    H215220   1.796   6.611   0.666 -0.4429  1.7376 -0.4381
 5086TIP3   OH215221   6.128   1.219   1.793  0.1157 -0.1508  0.2003
 5086TIP3    H115222   6.045   1.201   1.836  0.0771 -3.0085 -0.8663
 5086TIP3    H215223   6.192   1.219   1.864 -0.6723  1.7152  0.9795
 5087TIP3   OH215224   1.545   4.103   3.483 -0.0588 -0.4754 -0.4424
 5087TIP3    H115225   1.519   4.191   3.510  1.8782 -0.1867  0.6479
 5087TIP3    H215226   1.521   4.099   3.390 -1.4810  0.6706 -0.1553
 5088TIP3   OH215227   6.267   2.886   1.186  0.3638 -0.1738  0.2665
 5088TIP3    H115228   6.244   2.838   1.265 -0.5059  1.7466  1.2388
 5088TIP3    H215229   6.362   2.877   1.179  0.2608 -1.8076  0.5135
 5089TIP3   OH215230   7.095   2.718   3.773  0.6888 -0.1016  0.4789
 5089TIP3    H115231   7.146   2.785   3.818  2.4506 -1.9626  1.4150
 5089TIP3    H215232   7.074   2.654   3.841  0.8629 -1.5217 -0.7389
 5090TIP3   OH215233   3.718   4.871   3.749  0.0873 -0.6670  0.2429
 5090TIP3    H115234   3.651   4.852   3.684  0.3063 -1.4453  0.2404
 5090TIP3    H215235   3.760   4.787   3.765  1.4641 -0.0795 -0.1977
 5091TIP3   OH215236   0.110   5.216   1.496 -0.3602 -0.2805  0.3113
 5091TIP3    H115237   0.152   5.169   1.424 -1.1899 -1.6083  0.6518
 5091TIP3    H215238   0.127   5.309   1.478 -0.9297 -0.5398 -1.8429
 5092TIP3   OH215239   7.111   1.303   1.907  0.3882  0.1456  0.1940
 5092TIP3    H115240   7.019   1.293   1.884  0.6363  1.6051 -1.7324
 5092TIP3    H215241   7.111   1.335   1.997 -0.9035 -0.9540  0.6154
 5093TIP3   OH215242   4.196   3.279   2.712  0.6504 -0.6794  0.0953
 5093TIP3    H115243   4.105   3.269   2.685  0.8212  1.1303 -1.3379
 5093TIP3    H215244   4.215   3.199   2.762 -1.7728 -0.9800  0.6621
 5094TIP3   OH215245   3.691   4.969   5.752 -0.3050  0.1019 -0.2659
 5094TIP3    H115246   3.660   4.993   5.664 -0.6713 -1.2327 -0.5133
 5094TIP3    H215247   3.658   5.039   5.808 -1.4154  0.1628 -0.9536
 5095TIP3   OH215248   4.910   1.389   1.901  0.5715 -0.0117 -0.4621
 5095TIP3    H115249   4.834   1.334   1.920  0.9936  0.0995  1.8428
 5095TIP3    H215250   4.982   1.328   1.891  0.5377 -0.0180 -0.6668
 5096TIP3   OH215251   6.998   3.384   2.002 -0.3039  0.0998 -0.3769
 5096TIP3    H115252   7.031   3.297   2.025  2.2473  1.1949  0.4290
 5096TIP3    H215253   7.072   3.427   1.959 -1.6462  1.7541 -1.1405
 5097TIP3   OH215254   5.555   6.667   0.282 -0.1528 -0.0648 -0.1978
 5097TIP3    H115255   5.619   6.597   0.298 -0.6299 -0.2391  1.0112
 5097TIP3    H215256   5.557   6.720   0.362 -3.2072 -1.4172  0.9317
 5098TIP3   OH215257   2.617   0.040   5.140 -0.0328  0.3802  0.4058
 5098TIP3    H115258   2.598   0.090   5.061 -1.1774  0.8003  0.9071
 5098TIP3    H215259   2.538   0.052   5.194  0.6437 -0.0517  1.5143
 5099TIP3   OH215260   3.609   2.335   3.443 -0.3127  0.0069  0.4431
 5099TIP3    H115261   3.633   2.242   3.442 -0.4196 -0.0205  0.4140
 5099TIP3    H215262   3.536   2.342   3.381 -0.8779 -0.0515  1.0880
 5100TIP3   OH215263   5.503   0.766   1.367  0.0181 -0.1573  0.2709
 5100TIP3    H115264   5.415   0.802   1.380  0.0500  0.0297 -0.0283
 5100TIP3    H215265   5.562   0.836   1.395  0.0908  0.3131 -1.0235
 5101TIP3   OH215266   2.228   1.207   0.989 -0.8254  0.1003  0.1449
 5101TIP3    H115267   2.263   1.292   1.018 -1.0382 -0.1919  1.3033
 5101TIP3    H215268   2.133   1.219   0.988 -0.8977 -0.3664  1.1089
 5102TIP3   OH215269   2.284   6.526   5.658 -0.6051 -0.1329  0.2606
 5102TIP3    H115270   2.318   6.593   5.717  1.1333  0.7902 -1.6334
 5102TIP3    H215271   2.327   6.445   5.685 -0.8391 -0.0001  1.0502
 5103TIP3   OH215272   2.479   6.764   4.001 -0.3622  0.4809  0.5919
 5103TIP3    H115273   2.464   6.700   3.931  0.0978  1.3711 -0.3529
 5103TIP3    H215274   2.415   6.833   3.985  0.5983  1.3181  0.2477
 5104TIP3   OH215275   1.267   3.973   4.778 -0.4973  0.1643  0.0749
 5104TIP3    H115276   1.269   3.962   4.873  1.1608 -1.1757 -0.0661
 5104TIP3    H215277   1.183   3.936   4.752 -1.0287  0.6598  1.0144
 5105TIP3   OH215278   4.203   5.510   4.793  0.3734  0.5872 -0.1027
 5105TIP3    H115279   4.200   5.463   4.710 -0.4846  0.7079 -0.1480
 5105TIP3    H215280   4.291   5.548   4.796  0.3548  0.7246 -1.0406
 5106TIP3   OH215281   7.137   1.584   1.485  0.0485 -0.3948  0.3128
 5106TIP3    H115282   7.215   1.588   1.430  0.8459  0.3345  1.4588
 5106TIP3    H215283   7.143   1.662   1.541 -1.7278 -0.0753  0.1312
 5107TIP3   OH215284   4.923   5.667   4.452  0.4218  0.0193  0.0154
 5107TIP3    H115285   4.973   5.749   4.455  1.8139 -0.8263  1.3759
 5107TIP3    H215286   4.938   5.633   4.364  2.9815 -0.5737  0.5899
 5108TIP3   OH215287   5.163   5.084   0.153 -0.1258  0.3114 -0.0723
 5108TIP3    H115288   5.202   5.039   0.079 -1.5212 -1.1739  0.0255
 5108TIP3    H215289   5.084   5.125   0.117 -1.9790 -2.1557  0.8664
 5109TIP3   OH215290   6.930   4.624   5.778 -0.1159 -0.1321 -0.7862
 5109TIP3    H115291   6.871   4.699   5.785 -0.2057 -0.3286  1.2640
 5109TIP3    H215292   6.876   4.549   5.805  1.1920 -0.2108  1.8992
 5110TIP3   OH215293   1.609   4.441   4.120  0.0203  0.5479  0.3167
 5110TIP3    H115294   1.630   4.510   4.057 -0.0612  0.0511 -0.2604
 5110TIP3    H215295   1.550   4.484   4.183  0.7720  1.2732  0.5413
 5111TIP3   OH215296   5.556   1.302   0.624  0.5586  0.2484  0.3724
 5111TIP3    H115297   5.468   1.267   0.606  0.8425 -0.0582 -0.4706
 5111TIP3    H215298   5.580   1.264   0.708  0.1607 -0.2260  0.2791
 5112TIP3   OH215299   3.503   1.784   3.505  0.6458  0.0324 -0.1844
 5112TIP3    H115300   3.482   1.865   3.457  0.1636 -1.0550 -1.8969
 5112TIP3    H215301   3.585   1.754   3.467  0.3805 -0.7363 -0.1530
 5113TIP3   OH215302   5.349   2.892   0.963 -0.2498 -0.1384 -0.2329
 5113TIP3    H115303   5.438   2.881   0.996 -0.1968  0.7961 -0.0432
 5113TIP3    H215304   5.301   2.933   1.035 -0.7995 -0.4942 -0.3864
 5114TIP3   OH215305   3.278   3.561   0.104 -0.3849  0.3101 -0.1835
 5114TIP3    H115306   3.226   3.579   0.182 -0.6822  0.9428 -0.5190
 5114TIP3    H215307   3.223   3.503   0.051  0.3319 -1.1595  0.6318
 5115TIP3   OH215308   2.277   3.585   2.073  0.0747 -0.0670  0.8987
 5115TIP3    H115309   2.233   3.661   2.035 -0.4790  0.2191  2.0776
 5115TIP3    H215310   2.337   3.555   2.004 -0.3224  0.9109  0.1086
 5116TIP3   OH215311   5.414   5.598   3.182 -0.0142  0.0516 -0.3398
 5116TIP3    H115312   5.360   5.580   3.105 -3.2657  2.0894  1.2568
 5116TIP3    H215313   5.408   5.693   3.194  3.2344  0.2519  0.5666
 5117TIP3   OH215314   1.148   6.513   4.397 -0.1484  0.1201 -0.5071
 5117TIP3    H115315   1.098   6.562   4.332  1.4358  1.3462 -0.8893
 5117TIP3    H215316   1.232   6.495   4.353  0.2960 -0.5754  0.5909
 5118TIP3   OH215317   4.055   6.577   3.853 -0.1917  0.2518  0.2835
 5118TIP3    H115318   3.996   6.503   3.842  0.0802 -0.0968  1.0775
 5118TIP3    H215319   4.131   6.556   3.799  0.8788 -1.1578  2.2115
 5119TIP3   OH215320   4.204   0.006   5.115  1.0266 -0.0416  0.5089
 5119TIP3    H115321   4.115   0.037   5.095  1.5700  0.6285 -1.0615
 5119TIP3    H215322   4.202  -0.014   5.208 -0.3862  1.3194  0.8161
 5120TIP3   OH215323   0.787  -0.020   2.350  0.0840 -0.3255 -0.0064
 5120TIP3    H115324   0.693  -0.000   2.355  0.3144  0.6160  0.8644
 5120TIP3    H215325   0.825   0.025   2.425  1.0234 -2.0066  0.5743
 5121TIP3   OH215326   3.585   5.669   4.681  0.5437 -0.2262  0.2843
 5121TIP3    H115327   3.637   5.707   4.751  0.4727  1.8685 -0.7334
 5121TIP3    H215328   3.495   5.672   4.713  0.6588 -0.7079  0.6796
 5122TIP3   OH215329   2.583   0.534   3.495  0.2610 -0.4247 -0.6026
 5122TIP3    H115330   2.502   0.577   3.525 -0.0067 -0.2827 -1.4889
 5122TIP3    H215331   2.592   0.562   3.404  1.6427  0.0384 -0.3355
 5123TIP3   OH215332   2.797   0.829   4.123  0.5149 -0.5278 -0.6144
 5123TIP3    H115333   2.721   0.820   4.181 -0.2196  0.0464 -1.4563
 5123TIP3    H215334   2.759   0.840   4.036  1.5465  0.4064 -0.9698
 5124TIP3   OH215335   1.613   4.429   0.916  0.0978  0.2988  0.6377
 5124TIP3    H115336   1.629   4.521   0.896  0.6097  0.4970  1.8445
 5124TIP3    H215337   1.697   4.398   0.952 -0.1243 -0.5938  0.4139
 5125TIP3   OH215338   5.644   6.235   3.396  0.6377  0.1979  0.0757
 5125TIP3    H115339   5.612   6.323   3.379  0.8964  0.7001  1.9299
 5125TIP3    H215340   5.702   6.245   3.472 -0.0532 -1.6977  0.9091
 5126TIP3   OH215341   2.716   3.874   0.386  0.3348  0.1008  0.2468
 5126TIP3    H115342   2.697   3.955   0.433  0.6701  1.1291 -1.2998
 5126TIP3    H215343   2.637   3.857   0.334  1.5514  1.5362 -2.2513
 5127TIP3   OH215344   5.747   5.248   5.454 -0.0482  0.3164 -1.0511
 5127TIP3    H115345   5.775   5.314   5.392 -1.3067  1.3926 -0.5322
 5127TIP3    H215346   5.752   5.291   5.539 -0.1275 -0.5224 -0.6101
 5128TIP3   OH215347   1.561   4.437   1.238 -0.1793 -0.0062 -0.0676
 5128TIP3    H115348   1.608   4.521   1.243 -0.1091 -0.0374 -0.2048
 5128TIP3    H215349   1.474   4.460   1.208  0.0980 -0.0775 -0.9398
 5129TIP3   OH215350   3.783   5.516   3.358 -0.5424 -0.0967 -0.2573
 5129TIP3    H115351   3.783   5.575   3.433 -0.3226 -0.1653 -0.2034
 5129TIP3    H215352   3.694   5.521   3.324 -1.1271 -1.3063  0.9869
 5130TIP3   OH215353   4.934   5.939   3.068  0.6900  0.0482  0.3882
 5130TIP3    H115354   4.905   5.848   3.076 -2.7573  1.0280  0.3197
 5130TIP3    H215355   4.926   5.959   2.975 -0.6887  0.9935  0.6818
 5131TIP3   OH215356   4.627   0.377   0.270 -0.3666 -0.0715  0.1867
 5131TIP3    H115357   4.618   0.469   0.294  0.7317 -0.1365  0.9411
 5131TIP3    H215358   4.722   0.362   0.268 -0.4800 -0.7437 -1.7053
 5132TIP3   OH215359   0.142   0.446   2.454  0.1867  0.9140 -0.1568
 5132TIP3    H115360   0.209   0.464   2.389  0.1329  1.3537 -0.0922
 5132TIP3    H215361   0.073   0.510   2.437  0.3730  1.3329  0.6206
 5133TIP3   OH215362   6.332   1.909   3.181 -0.1541 -0.1152  0.1647
 5133TIP3    H115363   6.391   1.982   3.162  0.1655 -0.4934 -0.3253
 5133TIP3    H215364   6.383   1.831   3.159 -1.5066 -0.4140 -2.3200
 5134TIP3   OH215365   1.743   3.603   1.078 -0.0263  0.5330  0.0474
 5134TIP3    H115366   1.807   3.566   1.017  0.9583  1.7706  0.2914
 5134TIP3    H215367   1.707   3.679   1.032  1.2240  1.8978  1.1905
 5135TIP3   OH215368   2.752   4.520   4.080 -0.0402  0.4336 -0.2885
 5135TIP3    H115369   2.732   4.459   4.009  1.6401  0.4891 -0.8736
 5135TIP3    H215370   2.707   4.484   4.156  1.2209 -1.8051 -0.5050
 5136TIP3   OH215371   1.035   3.183   5.123 -0.1259  0.5929  0.0390
 5136TIP3    H115372   0.994   3.251   5.069 -0.6380  0.2436 -0.0233
 5136TIP3    H215373   0.975   3.172   5.197 -0.4294 -0.2905 -0.3182
 5137TIP3   OH215374   2.508   1.524   5.311 -0.2193  0.3903 -0.0061
 5137TIP3    H115375   2.506   1.572   5.228  0.3398 -1.9367 -1.4722
 5137TIP3    H215376   2.457   1.445   5.293 -0.3626 -0.0135  2.0046
 5138TIP3   OH215377   0.161   2.691   0.787  0.3301 -0.6360  0.3011
 5138TIP3    H115378   0.136   2.719   0.699 -0.7007 -2.5569 -0.0742
 5138TIP3    H215379   0.111   2.748   0.846  0.0292 -0.1878 -0.3824
 5139TIP3   OH215380   1.136   2.478   0.437  0.2579 -0.1659 -0.0364
 5139TIP3    H115381   1.077   2.431   0.378  0.6902 -1.5972  0.6280
 5139TIP3    H215382   1.212   2.420   0.446  0.6190  0.4661  1.1654
 5140TIP3   OH215383   6.173   5.850   0.732  0.2410  0.3650  0.7764
 5140TIP3    H115384   6.186   5.908   0.806  0.3581 -0.3126  1.2987
 5140TIP3    H215385   6.111   5.784   0.763  0.9463 -0.4233  0.5665
 5141TIP3   OH215386   2.901   4.042   0.205  0.0221  0.6394  0.3450
 5141TIP3    H115387   2.807   4.033   0.218 -0.2064  0.5224 -1.2062
 5141TIP3    H215388   2.910   4.084   0.119  1.3700  1.7658  0.9930
 5142TIP3   OH215389   5.816   2.459   2.986 -0.2254  0.3488 -0.0269
 5142TIP3    H115390   5.790   2.550   3.001 -0.9790  0.4089 -1.5293
 5142TIP3    H215391   5.744   2.422   2.935  0.3782 -0.9090  0.0069
 5143TIP3   OH215392   1.264   5.989   0.463 -0.5389 -0.3581 -0.4757
 5143TIP3    H115393   1.327   5.935   0.415 -0.8964 -0.9420 -0.3051
 5143TIP3    H215394   1.312   6.019   0.540  0.1351  0.8397 -1.3244
 5144TIP3   OH215395   5.489   2.565   0.617 -0.2024  0.0802 -0.7362
 5144TIP3    H115396   5.453   2.653   0.633 -2.5890 -0.8370 -0.7120
 5144TIP3    H215397   5.490   2.524   0.703  2.2569  0.4817 -0.5011
 5145TIP3   OH215398   2.572   4.867   4.152 -0.2603  0.3864 -0.3430
 5145TIP3    H115399   2.667   4.877   4.155 -0.1338 -0.1635 -1.7844
 5145TIP3    H215400   2.544   4.924   4.079 -1.1128  0.9587  0.3965
 5146TIP3   OH215401   2.330   6.765   1.474  0.5830  0.0158  0.3672
 5146TIP3    H115402   2.318   6.749   1.381  0.5532 -0.0070  0.3748
 5146TIP3    H215403   2.249   6.809   1.502  0.3601 -0.4568  0.4929
 5147TIP3   OH215404   1.085   4.856   1.079  0.1388  0.6527 -0.1689
 5147TIP3    H115405   1.114   4.767   1.098  0.7993  0.6318 -1.1828
 5147TIP3    H215406   1.123   4.876   0.993 -1.4938  1.2463 -0.8084
 5148TIP3   OH215407   2.857   1.267   1.618  0.0580 -0.0263  0.0913
 5148TIP3    H115408   2.949   1.283   1.600 -0.1725  0.4401 -0.7300
 5148TIP3    H215409   2.857   1.206   1.692  1.0613 -2.0674 -1.4949
 5149TIP3   OH215410   4.260   1.433   1.615  0.3750  0.0952 -0.2275
 5149TIP3    H115411   4.234   1.344   1.640 -2.3287  0.2928 -1.8936
 5149TIP3    H215412   4.302   1.422   1.530 -1.1398  0.4671 -1.0607
 5150TIP3   OH215413   1.220   3.518   1.427 -0.6438  0.0323 -0.1738
 5150TIP3    H115414   1.283   3.484   1.490 -2.0965 -0.3113  1.1641
 5150TIP3    H215415   1.266   3.589   1.383  0.8352 -0.5451  0.3665
 5151TIP3   OH215416   7.163   2.925   2.506 -0.4878 -0.5237  0.1947
 5151TIP3    H115417   7.111   2.949   2.584 -0.9798 -0.3415 -0.1842
 5151TIP3    H215418   7.243   2.977   2.514 -1.0390  0.3774 -0.0099
 5152TIP3   OH215419   0.195   5.926   0.717 -0.0078 -0.0349 -0.7371
 5152TIP3    H115420   0.194   5.843   0.669  1.6884 -1.0107  0.7976
 5152TIP3    H215421   0.106   5.959   0.709 -1.1193 -2.6579 -0.3356
 5153TIP3   OH215422   6.359   3.445   0.023  0.3229  0.2485  0.3382
 5153TIP3    H115423   6.417   3.372  -0.002  0.4650  0.8064 -1.0842
 5153TIP3    H215424   6.416   3.521   0.026 -0.3158  0.8324 -1.2144
 5154TIP3   OH215425   2.664   2.109   5.432  0.3316  0.6653 -0.0337
 5154TIP3    H115426   2.576   2.086   5.464  0.7041  0.6858  1.0443
 5154TIP3    H215427   2.683   2.043   5.366 -0.8614  1.1978 -0.9635
 5155TIP3   OH215428   4.958   0.411   4.620 -0.0121 -0.2327  0.3276
 5155TIP3    H115429   5.015   0.482   4.590  0.9044 -0.6700  0.9730
 5155TIP3    H215430   5.014   0.358   4.676 -0.0481 -2.6354 -1.7476
 5156TIP3   OH215431   1.910   6.078   3.303  0.1399  0.4768 -0.6719
 5156TIP3    H115432   1.997   6.082   3.343  1.0324 -0.9584 -2.3615
 5156TIP3    H215433   1.874   5.994   3.332  0.1883  0.1081 -1.6578
 5157TIP3   OH215434   5.166   1.744   1.255  0.0482 -0.0020  0.0789
 5157TIP3    H115435   5.140   1.825   1.211 -0.4998 -0.1681  0.0995
 5157TIP3    H215436   5.170   1.679   1.186 -0.5786 -0.2078  0.2332
 5158TIP3   OH215437   0.954   6.555   5.108  0.2468  0.0087 -0.1785
 5158TIP3    H115438   0.974   6.530   5.017  1.5256 -0.9213  0.3384
 5158TIP3    H215439   0.894   6.487   5.138  0.5790 -0.2197 -0.0291
 5159TIP3   OH215440   5.319   3.465   0.703 -0.4409  0.0269 -0.3363
 5159TIP3    H115441   5.280   3.463   0.616  0.9673  1.2034 -1.0245
 5159TIP3    H215442   5.349   3.375   0.718 -1.4122 -0.3688 -0.7047
 5160TIP3   OH215443   1.595   2.255   1.363 -0.1232  0.4344  0.2531
 5160TIP3    H115444   1.520   2.232   1.419 -0.5337 -0.3350 -0.5819
 5160TIP3    H215445   1.666   2.271   1.424 -0.3579 -1.1163  0.9972
 5161TIP3   OH215446   5.545   2.646   2.603  0.0280 -0.1926  0.4945
 5161TIP3    H115447   5.506   2.733   2.606 -1.4163 -0.7001 -1.2920
 5161TIP3    H215448   5.489   2.597   2.543  2.4334 -1.5135 -0.8664
 5162TIP3   OH215449   3.411   3.009   1.426  0.4123 -0.3916  0.0410
 5162TIP3    H115450   3.388   3.091   1.470  0.7748  0.7837 -1.8701
 5162TIP3    H215451   3.327   2.972   1.398  0.0905 -1.6031  2.3516
 5163TIP3   OH215452   3.276   1.210   2.108  0.2260 -0.4170  0.3035
 5163TIP3    H115453   3.336   1.200   2.034 -0.2006 -0.4492 -0.0389
 5163TIP3    H215454   3.228   1.290   2.090  0.1521 -0.4003  0.5699
 5164TIP3   OH215455   2.828   4.201   2.710  0.0366  0.2160 -0.3092
 5164TIP3    H115456   2.770   4.271   2.740 -3.1883 -2.3672  0.0124
 5164TIP3    H215457   2.857   4.230   2.624  1.0109  3.0514  0.8370
 5165TIP3   OH215458   1.965   3.815   3.413 -0.0307  0.4737 -0.4876
 5165TIP3    H115459   2.018   3.894   3.410  1.0113 -0.1002  1.3994
 5165TIP3    H215460   1.900   3.832   3.482  0.3315 -0.3661  0.0771
 5166TIP3   OH215461   5.382   5.425   1.037 -0.2193 -0.2333 -0.2888
 5166TIP3    H115462   5.388   5.472   0.954  0.5466  0.2535  0.0242
 5166TIP3    H215463   5.430   5.480   1.099  0.7157 -1.4220  0.0896
 5167TIP3   OH215464   5.487   2.010   2.266  0.4132 -0.3925  0.0288
 5167TIP3    H115465   5.484   1.947   2.194  1.2583  0.6534 -0.9520
 5167TIP3    H215466   5.538   2.084   2.232 -0.5629  0.8427  1.1356
 5168TIP3   OH215467   2.066   2.537   0.664  0.1487  0.6316 -0.5291
 5168TIP3    H115468   1.989   2.571   0.710  0.0806  0.8759 -0.8180
 5168TIP3    H215469   2.073   2.592   0.586 -1.2453 -1.3596 -2.1628
 5169TIP3   OH215470   5.657   5.409   0.156 -0.0139  0.4762 -0.3082
 5169TIP3    H115471   5.585   5.354   0.185  0.7813 -0.5292 -0.1652
 5169TIP3    H215472   5.703   5.355   0.091  0.4984  1.1675 -0.5278
 5170TIP3   OH215473   1.308   2.976   5.320 -0.5882 -0.2089 -0.0631
 5170TIP3    H115474   1.369   2.939   5.383  0.3241 -0.0522 -0.8298
 5170TIP3    H215475   1.242   3.021   5.373 -1.0115 -1.8060  0.8459
 5171TIP3   OH215476   6.784   6.480   0.542  0.1148  0.0124  0.4749
 5171TIP3    H115477   6.814   6.502   0.630 -0.6470  0.7774  0.5656
 5171TIP3    H215478   6.724   6.552   0.519  0.2094 -0.2376 -0.6147
 5172TIP3   OH215479   0.242   3.753   2.717  0.5585  0.1528 -0.0725
 5172TIP3    H115480   0.150   3.780   2.713  0.5272  0.2385  1.1304
 5172TIP3    H215481   0.271   3.755   2.625 -0.7411 -0.2621 -0.5136
 5173TIP3   OH215482   5.100   4.268   2.331  0.1316 -0.1005 -0.5731
 5173TIP3    H115483   5.170   4.226   2.282  0.6370  0.0076  0.0465
 5173TIP3    H215484   5.120   4.361   2.327 -0.3992  0.0014 -1.0342
 5174TIP3   OH215485   5.237   3.352   0.441 -0.2050  0.4374  0.1595
 5174TIP3    H115486   5.329   3.335   0.423  0.1767  0.3636  1.9957
 5174TIP3    H215487   5.190   3.294   0.381  0.8970  0.8794 -1.1968
 5175TIP3   OH215488   6.118   6.752   5.075 -0.0936  0.6938 -0.1035
 5175TIP3    H115489   6.103   6.710   5.160  2.3459 -2.6497 -1.0977
 5175TIP3    H215490   6.077   6.838   5.083 -1.9182 -0.2988  3.6300
 5176TIP3   OH215491   0.272   0.307   3.649  0.0736  0.1868  0.2104
 5176TIP3    H115492   0.340   0.242   3.631 -0.2707  0.0814 -0.7640
 5176TIP3    H215493   0.306   0.389   3.613  0.4191  0.5231  1.2590
 5177TIP3   OH215494   1.329   5.123   3.354 -0.5065  0.2707 -0.2978
 5177TIP3    H115495   1.389   5.058   3.318 -1.6604  0.1619 -2.1574
 5177TIP3    H215496   1.349   5.204   3.308  2.4934  2.0825  3.5804
 5178TIP3   OH215497   2.851   2.517   4.873 -0.0466  0.0272  0.1302
 5178TIP3    H115498   2.763   2.512   4.834 -1.0525  1.5539  2.0430
 5178TIP3    H215499   2.836   2.552   4.961  2.1315 -3.0991  1.9168
 5179TIP3   OH215500   1.420   3.487   2.687  0.4947  0.9479 -0.5986
 5179TIP3    H115501   1.340   3.434   2.691  1.4135 -0.4584 -0.2075
 5179TIP3    H215502   1.489   3.430   2.721  2.0732  1.4163 -2.8134
 5180TIP3   OH215503   7.192   3.892   0.253  0.1979  0.2265 -0.0169
 5180TIP3    H115504   7.125   3.934   0.199 -0.9943 -0.2053  1.0572
 5180TIP3    H215505   7.192   3.801   0.224 -0.0287  0.1207  0.3144
 5181TIP3   OH215506   6.047   3.500   0.961  0.4664 -0.5706  0.2290
 5181TIP3    H115507   6.122   3.456   0.922  1.7184 -0.1089  2.0067
 5181TIP3    H215508   6.031   3.575   0.903  0.4323 -1.4592 -0.9559
 5182TIP3   OH215509   5.901   1.904   3.153 -0.1640 -0.1707 -0.2285
 5182TIP3    H115510   5.828   1.938   3.100  1.4115  2.2663 -0.9903
 5182TIP3    H215511   5.963   1.870   3.089 -0.0880 -1.1629  0.3560
 5183TIP3   OH215512   3.191   0.814   0.745  0.3810 -0.0876  0.0630
 5183TIP3    H115513   3.115   0.810   0.688  0.0677  0.6299  0.4147
 5183TIP3    H215514   3.171   0.753   0.816  1.7342 -2.7300 -1.6555
 5184TIP3   OH215515   5.856   5.050   5.191 -0.3736 -0.5607  0.2137
 5184TIP3    H115516   5.795   5.091   5.253 -0.8076 -0.5539 -0.2162
 5184TIP3    H215517   5.843   4.956   5.202 -2.2665 -0.5762 -1.6122
 5185TIP3   OH215518   6.869   3.693   0.147 -0.1511  0.2893  0.6379
 5185TIP3    H115519   6.900   3.733   0.066 -0.0717  0.9239  0.9778
 5185TIP3    H215520   6.802   3.752   0.179 -0.1514  0.0612  1.0606
 5186TIP3   OH215521   5.118   1.254   5.120  0.4079  0.3122 -0.2940
 5186TIP3    H115522   5.119   1.257   5.216  2.3517 -0.4170 -0.2441
 5186TIP3    H215523   5.068   1.331   5.094 -1.7808 -0.4571  1.2968
 5187TIP3   OH215524   2.084   5.487   4.808 -0.0830 -0.5118  0.0467
 5187TIP3    H115525   2.000   5.456   4.775  0.0708 -0.0078 -0.8464
 5187TIP3    H215526   2.134   5.407   4.826 -1.2420 -0.8648  1.9723
 5188TIP3   OH215527   6.491   1.111   2.534 -0.0393 -0.2941 -0.0268
 5188TIP3    H115528   6.535   1.042   2.483 -0.6335 -0.7842  0.1078
 5188TIP3    H215529   6.514   1.092   2.625  2.8799  1.8879 -0.1865
 5189TIP3   OH215530   6.323   0.813   2.448 -0.0885 -0.0247  0.0584
 5189TIP3    H115531   6.275   0.789   2.369  1.4070  0.2834 -0.9932
 5189TIP3    H215532   6.394   0.869   2.417 -0.7946  2.0618  1.9001
 5190TIP3   OH215533   3.104   6.205   2.652  0.1688 -0.1193 -0.0086
 5190TIP3    H115534   3.058   6.170   2.728 -0.8888 -2.3474 -1.5620
 5190TIP3    H215535   3.058   6.286   2.630  1.6456  1.6209  2.7074
 5191TIP3   OH215536   6.984   5.784   3.883  0.0105  0.1936  0.1806
 5191TIP3    H115537   7.028   5.709   3.924 -0.6512 -0.3576 -0.1086
 5191TIP3    H215538   6.910   5.746   3.836  0.4134  0.8833 -1.0499
 5192TIP3   OH215539   2.135   2.273   5.340 -0.1969  0.0781  0.5107
 5192TIP3    H115540   2.040   2.264   5.349 -0.1668 -1.9323 -0.6472
 5192TIP3    H215541   2.167   2.264   5.430 -0.9878 -1.7604  0.6716
 5193TIP3   OH215542   5.995   3.784   2.332  0.0714  0.0427  0.3643
 5193TIP3    H115543   5.970   3.818   2.419 -0.3136  0.9629 -0.0920
 5193TIP3    H215544   5.914   3.744   2.299 -0.4606  1.7878 -0.5357
 5194TIP3   OH215545   2.916   3.082   0.512  0.4007 -0.1270 -0.4799
 5194TIP3    H115546   2.979   3.150   0.487  0.9976  1.0646  3.4395
 5194TIP3    H215547   2.970   3.013   0.551 -0.5133  0.2981  1.6933
 5195TIP3   OH215548   7.119   0.173   2.375 -0.6693  0.0273  0.2059
 5195TIP3    H115549   7.071   0.111   2.430 -1.8426  0.4031 -0.3448
 5195TIP3    H215550   7.063   0.251   2.373  0.4249  0.8302  0.2804
 5196TIP3   OH215551   6.862   3.429   2.334  0.1973 -0.0947  0.1199
 5196TIP3    H115552   6.948   3.469   2.327 -0.5114  1.8355  1.5637
 5196TIP3    H215553   6.820   3.446   2.250  0.3574  1.2102  0.2836
 5197TIP3   OH215554   2.711   0.171   0.509  0.4312  0.1680 -0.4943
 5197TIP3    H115555   2.737   0.251   0.555  1.2692  0.3311 -1.2221
 5197TIP3    H215556   2.688   0.110   0.579 -0.1048  1.0017  0.0705
 5198TIP3   OH215557   6.926   3.301   3.922 -0.0992 -0.2669 -0.5702
 5198TIP3    H115558   6.893   3.391   3.933 -0.0810 -0.5359  2.4170
 5198TIP3    H215559   6.881   3.251   3.990  1.4386 -2.0939 -0.8351
 5199TIP3   OH215560   2.260   0.620   3.411  0.4263  0.1869  0.2471
 5199TIP3    H115561   2.227   0.703   3.378 -1.6280 -0.9740 -0.7530
 5199TIP3    H215562   2.193   0.589   3.472  0.8098 -1.0660  0.0676
 5200TIP3   OH215563   0.390   1.993   2.088  0.0758  0.2149 -0.6384
 5200TIP3    H115564   0.314   1.939   2.109  0.6951 -0.4892 -0.1808
 5200TIP3    H215565   0.376   2.019   1.997  0.4812 -1.9469 -1.3730
 5201TIP3   OH215566   4.668   0.165   1.104  0.3116 -0.2578 -0.2014
 5201TIP3    H115567   4.575   0.145   1.112  0.1630  0.0149 -1.0998
 5201TIP3    H215568   4.689   0.214   1.183 -0.2886 -0.3923  0.0456
 5202TIP3   OH215569   1.337   1.070   0.139  0.2426 -0.3647 -0.0565
 5202TIP3    H115570   1.311   1.159   0.118  0.0126 -0.7764 -1.6032
 5202TIP3    H215571   1.263   1.016   0.111 -0.0988 -0.9908  1.8429
 5203TIP3   OH215572   0.729   0.403   5.256  0.4219  0.4031  0.1419
 5203TIP3    H115573   0.641   0.367   5.244  1.4797 -1.8642 -1.7048
 5203TIP3    H215574   0.788   0.330   5.234  2.7629  2.4721 -0.9239
 5204TIP3   OH215575   1.451   3.231   3.360 -0.3130  0.3656  0.2101
 5204TIP3    H115576   1.435   3.189   3.445  1.3309  0.4731  0.6056
 5204TIP3    H215577   1.540   3.264   3.366 -0.4029  0.9821 -1.3334
 5205TIP3   OH215578   6.177   5.893   3.188  0.2313 -0.2203  0.0304
 5205TIP3    H115579   6.196   5.969   3.243  1.6062 -1.0037  0.6897
 5205TIP3    H215580   6.210   5.918   3.102  2.2427 -0.6561  0.6260
 5206TIP3   OH215581   5.739   2.490   4.019 -0.3712 -0.2041 -0.2001
 5206TIP3    H115582   5.742   2.408   3.970  0.5548  1.1098 -2.5210
 5206TIP3    H215583   5.648   2.518   4.013 -0.7173 -1.0691  0.6983
 5207TIP3   OH215584   5.776   6.556   4.399 -0.0480 -0.3566  0.4744
 5207TIP3    H115585   5.787   6.492   4.469  1.3519 -2.1769 -1.2976
 5207TIP3    H215586   5.859   6.605   4.398  0.9453 -1.9297 -1.3181
 5208TIP3   OH215587   5.659   1.296   2.216  0.2770  0.8405  0.2291
 5208TIP3    H115588   5.582   1.330   2.261  2.1186  0.9394  3.6551
 5208TIP3    H215589   5.723   1.367   2.221  1.8862 -0.5931  1.1695
 5209TIP3   OH215590   6.950   3.347   5.836  0.0921 -0.2964 -0.3164
 5209TIP3    H115591   6.997   3.321   5.756 -1.2142  0.0900 -1.2452
 5209TIP3    H215592   6.866   3.303   5.830 -0.9116  1.5206 -0.3097
 5210TIP3   OH215593   6.039   6.704   0.189 -0.2505 -0.1243 -0.0356
 5210TIP3    H115594   5.943   6.697   0.181 -0.5743  1.3787  1.7856
 5210TIP3    H215595   6.066   6.755   0.113 -0.9135 -0.4272 -0.4904
 5211TIP3   OH215596   6.822   3.955   3.896  0.3242  0.4348 -0.3750
 5211TIP3    H115597   6.833   3.860   3.901  1.3562  0.5616  0.2124
 5211TIP3    H215598   6.874   3.981   3.820 -1.2618  0.3861 -1.5344
 5212TIP3   OH215599   1.505   1.585   2.160  0.2066 -0.0399  0.3193
 5212TIP3    H115600   1.555   1.634   2.225  0.2213 -0.4827  0.6489
 5212TIP3    H215601   1.465   1.652   2.105 -2.0494  0.4936  2.4105
 5213TIP3   OH215602   6.931   2.337   3.983 -0.0391  0.2012  0.1172
 5213TIP3    H115603   6.839   2.346   4.010  0.0864  1.6088  0.1413
 5213TIP3    H215604   6.968   2.273   4.044 -0.1101  2.2843  2.5198
 5214TIP3   OH215605   0.159   1.373   2.765 -0.4127 -0.0910  0.1405
 5214TIP3    H115606   0.090   1.375   2.830 -2.6575  0.5507 -2.1043
 5214TIP3    H215607   0.173   1.281   2.746 -0.4800 -0.2323  0.7749
 5215TIP3   OH215608   1.774   2.664   3.923  0.0814 -0.1575  0.0137
 5215TIP3    H115609   1.852   2.688   3.972 -0.1635  0.0529  0.3086
 5215TIP3    H215610   1.764   2.570   3.938 -1.2011  0.2459  2.1800
 5216TIP3   OH215611   1.856   1.810   3.747  0.0822  0.4463 -0.1408
 5216TIP3    H115612   1.889   1.840   3.832 -0.0457 -0.0572  0.0909
 5216TIP3    H215613   1.866   1.714   3.750  2.0130  0.5645 -1.5047
 5217TIP3   OH215614   3.352   5.058   5.651 -0.7207 -0.5841  0.3161
 5217TIP3    H115615   3.433   5.050   5.602 -0.2462 -0.1338  1.0103
 5217TIP3    H215616   3.316   4.969   5.651 -0.5108 -0.6767 -0.4580
 5218TIP3   OH215617   4.191   5.859   4.586 -0.3172  0.1777 -0.0557
 5218TIP3    H115618   4.133   5.787   4.561 -2.3608  1.6037  0.3644
 5218TIP3    H215619   4.252   5.819   4.647 -0.3308 -1.5512 -1.0836
 5219TIP3   OH215620   0.268   5.191   1.733 -0.0889  0.8019 -0.1521
 5219TIP3    H115621   0.220   5.201   1.650  1.3849  1.5325 -0.9651
 5219TIP3    H215622   0.257   5.099   1.756 -1.0943  0.7453 -0.7997
 5220TIP3   OH215623   6.491   0.706   2.687  1.0837 -0.0181  0.3179
 5220TIP3    H115624   6.424   0.737   2.625  2.5290  0.8046 -0.8813
 5220TIP3    H215625   6.466   0.615   2.705 -0.0828  0.1146 -0.4907
 5221TIP3   OH215626   0.988   2.133   0.107 -0.3126 -0.6824 -0.0459
 5221TIP3    H115627   0.955   2.136   0.017 -2.1536 -0.3598  0.6112
 5221TIP3    H215628   1.074   2.176   0.102  0.7064 -2.7652 -2.0592
 5222TIP3   OH215629   4.660   5.171   4.967 -0.0674  0.2755 -0.0987
 5222TIP3    H115630   4.673   5.079   4.990 -0.1995  0.4501  0.7102
 5222TIP3    H215631   4.736   5.216   5.005  0.2094  0.4502 -0.8399
 5223TIP3   OH215632   6.976   5.741   0.552 -0.7291  0.0422 -0.0495
 5223TIP3    H115633   6.993   5.791   0.632 -1.8244  0.6251 -0.1641
 5223TIP3    H215634   6.891   5.773   0.521 -1.4019 -1.7601 -0.2194
 5224TIP3   OH215635   2.936   4.744   1.049 -0.4100 -0.2521 -0.0764
 5224TIP3    H115636   2.940   4.696   0.966 -0.5993  1.4889 -1.1609
 5224TIP3    H215637   2.978   4.687   1.113  0.0213 -1.5194 -1.4444
 5225TIP3   OH215638   2.230   6.223   1.543 -0.1256  0.2719 -0.1620
 5225TIP3    H115639   2.209   6.136   1.577 -0.6426  0.2571 -0.5229
 5225TIP3    H215640   2.253   6.274   1.621  0.9010 -0.3812 -0.0161
 5226TIP3   OH215641   2.226   1.245   1.425 -0.0837  0.3202  0.0696
 5226TIP3    H115642   2.214   1.217   1.515  0.5345  1.5494  0.5572
 5226TIP3    H215643   2.242   1.164   1.376 -1.3234 -0.4494  0.8784
 5227TIP3   OH215644   0.606   2.269   5.208  0.1233 -0.2571 -0.1086
 5227TIP3    H115645   0.603   2.278   5.113 -0.7195  0.8518 -0.0035
 5227TIP3    H215646   0.680   2.323   5.235 -0.2535  0.2469 -0.0676
 5228TIP3   OH215647   5.827   3.027   5.647  0.1924 -0.0873 -0.2359
 5228TIP3    H115648   5.731   3.033   5.651  0.0646 -1.4487 -0.7474
 5228TIP3    H215649   5.853   3.100   5.591 -0.4311  0.9566  0.7572
 5229TIP3   OH215650   4.092   0.338   4.062 -0.4806  0.2034 -0.4926
 5229TIP3    H115651   3.996   0.337   4.064 -0.4760  0.4301  0.0699
 5229TIP3    H215652   4.117   0.247   4.079 -0.5992  0.1874 -0.3956
 5230TIP3   OH215653   4.920   5.042   0.312 -0.4333 -0.0404 -0.1075
 5230TIP3    H115654   4.847   5.103   0.317  0.4613  0.9724  1.7534
 5230TIP3    H215655   4.906   4.994   0.231 -2.6996  0.6879 -0.2187
 5231TIP3   OH215656   6.594   2.854   1.595  0.2436  0.1255 -0.3038
 5231TIP3    H115657   6.624   2.880   1.508 -0.4537 -0.0214 -0.5930
 5231TIP3    H215658   6.614   2.929   1.651  1.2573 -0.0139 -0.4524
 5232TIP3   OH215659   1.504   3.423   4.954  0.0362 -0.1256  0.1546
 5232TIP3    H115660   1.544   3.406   4.868  1.2962 -0.3208  0.7528
 5232TIP3    H215661   1.428   3.365   4.957 -1.1973  1.2932 -1.5984
 5233TIP3   OH215662   5.607   4.077   4.022  0.3286 -0.6521 -0.1932
 5233TIP3    H115663   5.617   4.012   4.092  1.7523  0.4714  0.6974
 5233TIP3    H215664   5.694   4.085   3.985 -0.6304 -2.2609 -3.1595
 5234TIP3   OH215665   1.650   2.160   5.617 -0.0055 -0.1135 -0.0050
 5234TIP3    H115666   1.640   2.078   5.570  1.3035  0.0691 -0.6336
 5234TIP3    H215667   1.734   2.195   5.588  1.0860 -0.1616  2.7266
 5235TIP3   OH215668   5.759   6.613   1.264 -0.1814  0.0848 -0.1427
 5235TIP3    H115669   5.763   6.564   1.346 -0.3606  0.9161  0.3751
 5235TIP3    H215670   5.678   6.664   1.270 -0.3977 -0.1393 -1.0107
 5236TIP3   OH215671   4.197   2.739   5.265  0.0752  1.0878  0.0908
 5236TIP3    H115672   4.205   2.649   5.235 -0.0086  0.6871  1.2200
 5236TIP3    H215673   4.103   2.753   5.275  0.1481  0.8472  1.2062
 5237TIP3   OH215674   0.448   0.436   0.448 -0.4623  0.1562  0.4081
 5237TIP3    H115675   0.539   0.417   0.426 -0.4134  1.8538 -1.1612
 5237TIP3    H215676   0.452   0.517   0.499 -1.1384  0.9226 -0.7117
 5238TIP3   OH215677   3.212   2.602   4.616  0.2241  0.2072  0.3903
 5238TIP3    H115678   3.258   2.661   4.556  0.0678 -1.3273 -1.3020
 5238TIP3    H215679   3.252   2.619   4.701  1.4683  1.3992 -0.3888
 5239TIP3   OH215680   1.868   3.977   5.631  0.5734 -0.0421  0.1323
 5239TIP3    H115681   1.933   4.040   5.662 -0.2078  1.8083 -1.7332
 5239TIP3    H215682   1.796   3.984   5.693  0.2832  1.3401 -0.3275
 5240TIP3   OH215683   1.984   5.131   2.070 -0.2912  0.2341  0.4679
 5240TIP3    H115684   1.945   5.116   2.156  0.3363  1.1647  0.9299
 5240TIP3    H215685   1.984   5.226   2.060  1.0700  0.2245  0.1234
 5241TIP3   OH215686   3.835   5.002   0.672 -0.3148  0.4786  0.3859
 5241TIP3    H115687   3.821   5.033   0.761  0.7249  0.2871  0.6210
 5241TIP3    H215688   3.797   4.914   0.670  1.0505 -0.1411  1.0893
 5242TIP3   OH215689   0.265   2.876   5.252  0.1379 -0.1786  0.7308
 5242TIP3    H115690   0.236   2.954   5.205  2.3986 -0.6220 -1.6367
 5242TIP3    H215691   0.188   2.847   5.302 -1.7023  1.6957 -0.8648
 5243TIP3   OH215692   1.208   0.297   5.446 -0.6035 -0.6113 -0.1415
 5243TIP3    H115693   1.263   0.250   5.509 -0.7463  1.3762  1.5841
 5243TIP3    H215694   1.266   0.365   5.411 -1.0000 -0.6846 -0.9570
 5244TIP3   OH215695   1.185   1.225   2.796 -0.3422 -0.1477  0.2724
 5244TIP3    H115696   1.116   1.282   2.830 -0.8931 -0.4926 -0.2423
 5244TIP3    H215697   1.183   1.148   2.853  0.3967  0.3288  0.9630
 5245TIP3   OH215698   0.997   4.673   4.721 -0.2554  0.6062  0.1586
 5245TIP3    H115699   1.040   4.654   4.805 -0.5960  0.5556  0.3225
 5245TIP3    H215700   0.935   4.602   4.709 -0.6325  0.9315  0.1552
 5246TIP3   OH215701   2.161   6.021   0.303 -0.0224 -0.6482 -0.3303
 5246TIP3    H115702   2.253   6.012   0.282  0.2151  2.1011 -0.7519
 5246TIP3    H215703   2.160   6.065   0.388 -0.9658 -1.2863  0.0104
 5247TIP3   OH215704   4.291   2.960   0.501 -0.0210  0.6311 -0.1375
 5247TIP3    H115705   4.200   2.961   0.471  0.6249  1.3603 -2.2328
 5247TIP3    H215706   4.297   3.034   0.561 -1.0514 -0.0865  0.8821
 5248TIP3   OH215707   2.207   2.736   1.819 -0.1104  0.1645  0.2329
 5248TIP3    H115708   2.244   2.675   1.883 -0.1430 -1.3619 -1.1260
 5248TIP3    H215709   2.123   2.762   1.856 -1.1489 -2.4266 -0.1158
 5249TIP3   OH215710   0.924   2.904   0.943  0.3001  0.4312  0.5924
 5249TIP3    H115711   0.888   2.950   0.867 -1.4569  0.7128  1.5243
 5249TIP3    H215712   0.904   2.811   0.926 -3.5728  0.7570  2.2677
 5250TIP3   OH215713   6.427   1.336   5.173 -0.4003 -0.1266  0.1324
 5250TIP3    H115714   6.463   1.250   5.149 -0.9866 -1.0491  2.3651
 5250TIP3    H215715   6.490   1.371   5.236  0.4486  1.6679 -1.6152
 5251TIP3   OH215716   3.092   3.412   5.483  0.1690  0.1454  0.3008
 5251TIP3    H115717   3.142   3.431   5.562  0.2477 -0.0336  0.2946
 5251TIP3    H215718   3.004   3.392   5.514  0.3405 -0.4914  0.3937
 5252TIP3   OH215719   3.564   5.259   1.944  0.4555  0.3765  0.2216
 5252TIP3    H115720   3.639   5.288   1.892  1.7685 -1.4700  0.9833
 5252TIP3    H215721   3.496   5.239   1.879  1.5411 -0.4182 -0.7097
 5253TIP3   OH215722   7.030   2.613   1.443 -0.1665 -0.3345  0.2503
 5253TIP3    H115723   7.049   2.698   1.483 -2.5319  0.9635 -1.1515
 5253TIP3    H215724   7.116   2.574   1.428  1.0441  2.0898  0.4029
 5254TIP3   OH215725   2.032   3.691   0.565  0.1542 -0.1884 -1.1692
 5254TIP3    H115726   1.939   3.712   0.574 -0.1434 -1.8570  0.0689
 5254TIP3    H215727   2.034   3.599   0.540  1.4690 -0.7507  0.7864
 5255TIP3   OH215728   3.193   1.413   2.876 -0.7487  0.4930  0.6790
 5255TIP3    H115729   3.279   1.376   2.859 -1.6372 -1.6986  0.6761
 5255TIP3    H215730   3.210   1.487   2.935  1.1018  0.0676  0.7320
 5256TIP3   OH215731   2.952   3.774   0.113 -0.5867  0.3842  0.0951
 5256TIP3    H115732   2.972   3.867   0.119  1.8608 -0.1584  2.1984
 5256TIP3    H215733   3.018   3.731   0.168 -1.2883 -2.6540 -1.1820
 5257TIP3   OH215734   3.705   4.882   2.575  0.0001  0.2880  0.5555
 5257TIP3    H115735   3.621   4.905   2.536  0.1686  0.3887  0.2535
 5257TIP3    H215736   3.681   4.835   2.655 -0.3622 -0.9025 -0.2162
 5258TIP3   OH215737   4.924   0.112   0.106 -0.0357  0.3733 -0.3604
 5258TIP3    H115738   4.907   0.129   0.199  0.9303  1.3268 -0.3424
 5258TIP3    H215739   4.962   0.024   0.105  0.6673  0.6555  0.2442
 5259TIP3   OH215740   6.705   3.429   2.561 -0.2282  0.2150  0.0016
 5259TIP3    H115741   6.693   3.334   2.573  0.8442 -0.0208 -0.6777
 5259TIP3    H215742   6.748   3.437   2.476  0.3569  1.2721  0.3804
 5260TIP3   OH215743   4.356   4.883   4.678  0.4616 -0.2883  0.2355
 5260TIP3    H115744   4.272   4.927   4.692  0.5602  0.4188 -1.1993
 5260TIP3    H215745   4.418   4.931   4.734  0.2867  0.4732 -0.2166
 5261TIP3   OH215746   6.534   1.938   4.788  0.0694 -0.1528 -0.3492
 5261TIP3    H115747   6.546   1.897   4.874  0.9148 -0.7810 -0.7554
 5261TIP3    H215748   6.456   1.895   4.753 -0.6734  0.5811  0.3688
 5262TIP3   OH215749   6.331   4.506   0.495 -0.6013 -0.1580 -0.2745
 5262TIP3    H115750   6.410   4.522   0.443 -0.8999 -1.9785 -1.3710
 5262TIP3    H215751   6.321   4.585   0.548  0.5601  1.1790 -1.9266
 5263TIP3   OH215752   4.914   3.630   0.301  0.4054 -0.4212 -0.3082
 5263TIP3    H115753   4.990   3.606   0.248  0.2243 -0.9023 -0.3524
 5263TIP3    H215754   4.840   3.588   0.257  0.4281 -2.0380  1.0968
 5264TIP3   OH215755   4.052   2.596   0.506  0.3613  0.4459 -0.1054
 5264TIP3    H115756   3.996   2.563   0.435 -0.6974 -0.3561  1.0666
 5264TIP3    H215757   4.020   2.552   0.584  2.7185 -0.1217  0.6113
 5265TIP3   OH215758   0.225   6.297   1.839  0.2607 -0.4992  0.3899
 5265TIP3    H115759   0.133   6.274   1.829 -0.0051 -0.1855  1.8925
 5265TIP3    H215760   0.227   6.393   1.832  0.1468 -0.3160  2.3743
 5266TIP3   OH215761   2.695   0.910   1.092  0.0450  0.0195  0.5103
 5266TIP3    H115762   2.754   0.875   1.025  0.1045 -0.0183  0.5817
 5266TIP3    H215763   2.725   0.870   1.173 -0.5805 -0.6264  0.4375
 5267TIP3   OH215764   5.303   1.994   4.105 -0.3416  0.3578 -0.3624
 5267TIP3    H115765   5.322   1.908   4.141 -0.1898  0.3044 -0.5672
 5267TIP3    H215766   5.325   2.055   4.175  0.5965  0.2981 -0.5966
 5268TIP3   OH215767   2.248   4.665   2.641 -0.0117  0.2952 -0.4333
 5268TIP3    H115768   2.277   4.753   2.666  0.3891  0.1565 -0.4099
 5268TIP3    H215769   2.223   4.624   2.724  0.8902 -0.0085 -0.3062
 5269TIP3   OH215770   0.662   2.464   4.093 -0.3716 -0.4435 -0.4705
 5269TIP3    H115771   0.730   2.409   4.132 -0.7169 -0.2562  0.4290
 5269TIP3    H215772   0.670   2.548   4.139 -1.1210 -0.3778 -0.4475
 5270TIP3   OH215773   2.234   2.830   0.630 -0.3403 -0.5104  0.4338
 5270TIP3    H115774   2.177   2.802   0.701 -0.0090 -0.4695  0.7180
 5270TIP3    H215775   2.319   2.788   0.649  0.3741  1.2262  1.2548
 5271TIP3   OH215776   1.375   5.748   2.149  0.0177  0.0201 -0.0881
 5271TIP3    H115777   1.457   5.699   2.160 -1.0513 -1.9547 -0.5309
 5271TIP3    H215778   1.344   5.762   2.238  0.8260  0.8004  0.0851
 5272TIP3   OH215779   6.634   0.957   3.295 -0.6085  0.1419 -0.5644
 5272TIP3    H115780   6.582   0.908   3.359 -1.5581  2.3277  0.4563
 5272TIP3    H215781   6.626   0.907   3.214 -0.7580 -1.8180  0.5820
 5273TIP3   OH215782   7.022   5.837   0.815 -0.1239  0.0349  0.3713
 5273TIP3    H115783   6.989   5.927   0.810 -2.7165 -0.8409  0.2750
 5273TIP3    H215784   7.069   5.833   0.898  0.1358  1.4930  0.3192
 5274TIP3   OH215785   4.661   4.391   3.076 -0.2950  0.2910  0.0159
 5274TIP3    H115786   4.714   4.378   3.154  0.5594  0.8858 -0.4410
 5274TIP3    H215787   4.713   4.451   3.022 -0.4678 -0.7635 -1.3783
 5275TIP3   OH215788   2.806   1.946   2.230 -0.2632  0.1051  0.2628
 5275TIP3    H115789   2.794   1.998   2.310 -0.4300 -1.0582  1.0258
 5275TIP3    H215790   2.872   1.994   2.180 -0.9067  1.4008  0.6138
 5276TIP3   OH215791   5.073   6.233   3.144  0.0936 -0.6311  0.0430
 5276TIP3    H115792   5.168   6.239   3.134  0.3895  0.8762  2.8266
 5276TIP3    H215793   5.042   6.323   3.134 -0.7851 -0.7853  1.2285
 5277TIP3   OH215794   6.101   1.346   0.130 -0.0086  0.1358 -0.0075
 5277TIP3    H115795   6.088   1.403   0.206  1.9961 -0.3162  0.7121
 5277TIP3    H215796   6.067   1.398   0.056 -1.6832  0.7078  1.0997
 5278TIP3   OH215797   2.150   1.099   4.469 -0.1476  0.0988  0.1613
 5278TIP3    H115798   2.222   1.044   4.499  0.6655  0.1075 -1.6439
 5278TIP3    H215799   2.179   1.189   4.486 -0.1885  0.0739  0.3689
 5279TIP3   OH215800   4.756   2.053   1.550  0.7074 -0.6687  0.3976
 5279TIP3    H115801   4.787   2.025   1.464  0.4070 -0.3918  0.1989
 5279TIP3    H215802   4.749   2.148   1.544  0.8987 -0.6228  0.8009
 5280TIP3   OH215803   3.105   6.611   3.172 -0.0221 -0.5569 -0.4316
 5280TIP3    H115804   3.098   6.520   3.199  0.3535 -0.0370  1.5646
 5280TIP3    H215805   3.039   6.657   3.223  0.7538  0.4923 -0.3307
 5281TIP3   OH215806   1.144   0.364   1.661  0.0057 -0.5733 -0.1006
 5281TIP3    H115807   1.068   0.310   1.640  0.0420 -0.2282 -1.1799
 5281TIP3    H215808   1.207   0.344   1.592 -0.5927  2.0050 -1.5396
 5282TIP3   OH215809   1.475   4.931   4.998  0.3840  0.8050  0.3283
 5282TIP3    H115810   1.412   4.888   4.941 -0.1277  2.3439 -0.2852
 5282TIP3    H215811   1.551   4.947   4.942  1.3999 -1.0384  1.0605
 5283TIP3   OH215812   2.661   0.290   2.492  0.6636 -0.3328 -0.5149
 5283TIP3    H115813   2.666   0.277   2.397 -1.1021 -0.6290 -0.6126
 5283TIP3    H215814   2.590   0.353   2.503 -1.6194 -2.8788  0.7166
 5284TIP3   OH215815   3.267   2.845   4.482 -0.6502  0.6471  0.0551
 5284TIP3    H115816   3.361   2.826   4.481 -0.5957  0.4264  2.4152
 5284TIP3    H215817   3.253   2.905   4.409  1.8684  3.0373  1.3884
 5285TIP3   OH215818   2.144   1.892   2.716 -0.2994  0.0495  0.0224
 5285TIP3    H115819   2.228   1.854   2.740 -0.5217 -0.1713  0.4681
 5285TIP3    H215820   2.163   1.985   2.703 -0.5202  0.6507  3.1888
 5286TIP3   OH215821   3.715   1.075   1.748 -0.0522  0.0590  0.1550
 5286TIP3    H115822   3.681   1.000   1.700  0.0656 -0.5509  1.0006
 5286TIP3    H215823   3.714   1.048   1.839  1.6079  0.4263  0.3285
 5287TIP3   OH215824   7.082   0.284   1.653 -0.2991  0.2375 -0.2916
 5287TIP3    H115825   7.130   0.201   1.654  0.6738  0.7874 -0.4016
 5287TIP3    H215826   7.044   0.288   1.566 -0.7823 -0.3277 -0.1166
 5288TIP3   OH215827   1.561   2.709   3.428 -0.1035  0.6438  0.1729
 5288TIP3    H115828   1.535   2.651   3.357 -2.0810 -0.4042  1.6469
 5288TIP3    H215829   1.571   2.795   3.387 -0.4474 -0.0649 -1.4677
 5289TIP3   OH215830   6.542   4.647   1.238 -0.2374  0.3887  0.2800
 5289TIP3    H115831   6.566   4.732   1.201  0.8750  0.3891  0.9878
 5289TIP3    H215832   6.509   4.666   1.325 -0.3190  0.1209  0.3106
 5290TIP3   OH215833   5.966   2.296   2.003  0.3582 -0.4513 -0.3838
 5290TIP3    H115834   5.985   2.373   1.949 -1.3731  0.0110 -0.3923
 5290TIP3    H215835   5.891   2.254   1.961 -0.2387 -0.7863  0.9445
 5291TIP3   OH215836   2.957   0.950   4.897 -0.2019  0.0273 -0.3573
 5291TIP3    H115837   3.042   0.925   4.933  1.4278 -0.6888 -4.1887
 5291TIP3    H215838   2.903   0.872   4.906  0.9867 -0.9881 -1.6462
 5292TIP3   OH215839   0.320   0.604   3.855  0.1959 -0.4030  0.3277
 5292TIP3    H115840   0.311   0.598   3.760 -1.1456  1.5724  0.2908
 5292TIP3    H215841   0.387   0.671   3.869 -1.1299  0.9070  0.7265
 5293TIP3   OH215842   1.856   4.140   1.511 -0.2916 -0.1019 -0.0048
 5293TIP3    H115843   1.917   4.202   1.551 -0.0046 -0.3531 -0.0461
 5293TIP3    H215844   1.778   4.192   1.491  0.5630  0.6592 -1.5912
 5294TIP3   OH215845   5.655   1.656   3.145  0.4003  0.1893  0.2885
 5294TIP3    H115846   5.743   1.658   3.182 -0.0406 -0.1930  1.3900
 5294TIP3    H215847   5.662   1.599   3.069  0.9898 -0.2632  0.6766
 5295TIP3   OH215848   0.378   2.919   1.453  0.3917 -0.1635  0.1507
 5295TIP3    H115849   0.342   2.838   1.488 -2.1959 -0.5812 -3.0129
 5295TIP3    H215850   0.356   2.985   1.519 -1.1840 -1.3955  0.9198
 5296TIP3   OH215851   4.236   2.341   2.347 -0.0214  0.8180  0.3710
 5296TIP3    H115852   4.320   2.301   2.372 -1.0856 -0.7155  1.6667
 5296TIP3    H215853   4.178   2.268   2.331 -1.2230  1.8635 -0.2370
 5297TIP3   OH215854   4.841   2.729   2.718 -0.0747 -0.4226 -0.1729
 5297TIP3    H115855   4.801   2.812   2.693  0.8702  0.2510  0.4693
 5297TIP3    H215856   4.921   2.724   2.665  1.1161  0.2536  1.4965
 5298TIP3   OH215857   3.706   3.665   0.425  0.4371 -0.2409 -0.2209
 5298TIP3    H115858   3.747   3.583   0.398 -3.0088 -1.4801 -2.3386
 5298TIP3    H215859   3.729   3.728   0.356  0.0487 -0.5166 -0.6086
 5299TIP3   OH215860   6.385   0.933   3.712  0.2324 -0.1502  0.1978
 5299TIP3    H115861   6.316   0.955   3.649  0.6603 -0.1299 -0.2699
 5299TIP3    H215862   6.340   0.881   3.779 -0.2410 -0.1320 -0.0962
 5300TIP3   OH215863   6.754   2.979   2.888 -0.1770  0.2236 -0.4226
 5300TIP3    H115864   6.676   2.934   2.920  0.2998 -0.1384  0.2544
 5300TIP3    H215865   6.755   3.062   2.937 -0.8023  0.7982 -1.3346
 5301TIP3   OH215866   5.038   4.571   4.088  0.4774  0.3991  0.3374
 5301TIP3    H115867   4.997   4.628   4.024  1.8089 -0.3435 -1.2619
 5301TIP3    H215868   4.986   4.581   4.167 -1.7523  0.7066 -1.0975
 5302TIP3   OH215869   3.823   0.308   1.545  0.1709  0.0339  0.6523
 5302TIP3    H115870   3.876   0.383   1.516  0.0497 -0.7579 -1.8262
 5302TIP3    H215871   3.881   0.260   1.604  1.2988  0.5529  0.0103
 5303TIP3   OH215872   2.554   1.747   0.432 -0.0436 -0.7096 -0.2229
 5303TIP3    H115873   2.526   1.662   0.465 -0.3140 -0.3428  0.5143
 5303TIP3    H215874   2.476   1.783   0.390  0.5978 -1.6680 -2.3709
 5304TIP3   OH215875   0.441   5.990   1.354  0.3429 -0.0770 -0.0313
 5304TIP3    H115876   0.398   5.907   1.376  3.5271 -1.8688 -0.0581
 5304TIP3    H215877   0.473   5.977   1.264 -0.2474  1.7621 -0.5570
 5305TIP3   OH215878   5.898   6.268   4.171  0.3086  0.0551 -0.1274
 5305TIP3    H115879   5.937   6.311   4.247  3.3018  0.3294 -1.6763
 5305TIP3    H215880   5.869   6.183   4.203 -0.2439  0.8765  1.6907
 5306TIP3   OH215881   6.075   2.444   1.073 -0.1364  0.0151  0.1772
 5306TIP3    H115882   6.075   2.356   1.110  1.6062 -0.3218 -0.5273
 5306TIP3    H215883   6.167   2.461   1.052 -0.7487  1.0873 -1.8295
 5307TIP3   OH215884   3.922   0.545   2.219  0.0218 -0.6664 -0.2104
 5307TIP3    H115885   3.946   0.480   2.284  0.0251  1.1022  1.6626
 5307TIP3    H215886   3.838   0.580   2.250  0.3190  0.6318 -0.8061
 5308TIP3   OH215887   6.500   1.154   2.912 -0.2510 -0.4153 -0.0351
 5308TIP3    H115888   6.538   1.077   2.871 -1.2906 -0.8404 -0.2273
 5308TIP3    H215889   6.408   1.131   2.927 -1.0177  1.3405 -1.5978
 5309TIP3   OH215890   6.438   2.568   2.484 -0.1728  0.1962 -0.2065
 5309TIP3    H115891   6.391   2.651   2.496 -0.4088  0.2843 -1.5374
 5309TIP3    H215892   6.402   2.510   2.552 -0.3459  1.0413  0.4328
 5310TIP3   OH215893   0.237   0.373  -0.022 -0.4475  0.3654  0.2963
 5310TIP3    H115894   0.184   0.326   0.041 -2.2169  2.1521  0.2303
 5310TIP3    H215895   0.221   0.465  -0.004  1.6458  0.9794 -0.5921
 5311TIP3   OH215896   4.592   0.994   3.834  0.3403 -0.7866 -0.1205
 5311TIP3    H115897   4.588   0.900   3.851 -0.6004 -1.3142 -2.7430
 5311TIP3    H215898   4.516   1.031   3.879  0.7383 -1.2407  0.9515
 5312TIP3   OH215899   6.091   5.556   3.419 -0.7518  0.0836  0.8481
 5312TIP3    H115900   6.074   5.483   3.359  2.1923  1.4815 -2.0002
 5312TIP3    H215901   6.069   5.634   3.369  0.6277  1.3075  2.0529
 5313TIP3   OH215902   2.326   1.543   3.467  0.1039  0.1957 -0.6811
 5313TIP3    H115903   2.250   1.519   3.414  0.0815 -2.5715  0.4569
 5313TIP3    H215904   2.289   1.560   3.554  0.6022  0.6748 -0.5597
 5314TIP3   OH215905   3.105   6.684   0.144  0.0933  0.0876  0.2218
 5314TIP3    H115906   3.141   6.752   0.201  1.2211 -0.4094  0.1419
 5314TIP3    H215907   3.102   6.725   0.058 -0.0238  0.3073  0.3296
 5315TIP3   OH215908   1.991   3.898   1.564 -0.3226  0.3160  0.2850
 5315TIP3    H115909   1.941   3.825   1.526 -0.7408  1.1454 -0.8036
 5315TIP3    H215910   1.960   3.975   1.517  0.7052  1.0938  0.8497
 5316TIP3   OH215911   1.693   3.514   2.520 -0.1560 -0.3614  0.0850
 5316TIP3    H115912   1.621   3.484   2.465 -0.2552 -0.2967  0.1779
 5316TIP3    H215913   1.693   3.610   2.509  0.5052 -0.4330 -0.6330
 5317TIP3   OH215914   6.567   6.651   5.747  0.4805 -0.3662 -0.4968
 5317TIP3    H115915   6.604   6.688   5.667  0.7657  0.3653 -0.0380
 5317TIP3    H215916   6.493   6.598   5.717  1.4400 -1.2391 -1.3569
 5318TIP3   OH215917   3.199   3.346   3.577 -0.0570 -0.3358 -0.1501
 5318TIP3    H115918   3.239   3.425   3.542  0.7378 -1.1445 -1.1306
 5318TIP3    H215919   3.203   3.283   3.505 -1.3426 -1.0470  0.3692
 5319TIP3   OH215920   2.421   0.178   5.830 -0.5799 -0.3939  0.0418
 5319TIP3    H115921   2.415   0.109   5.895 -1.3122 -0.0380  0.3609
 5319TIP3    H215922   2.338   0.175   5.783 -1.6656  1.7853  1.6324
 5320TIP3   OH215923   2.162   4.139   4.533  0.3034  0.8432 -0.9912
 5320TIP3    H115924   2.098   4.138   4.461 -1.1695 -2.1462  0.1708
 5320TIP3    H215925   2.230   4.077   4.506 -0.2904 -0.3477  0.1253
 5321TIP3   OH215926   0.370   6.738   0.872  0.0290 -0.1898  0.6455
 5321TIP3    H115927   0.298   6.752   0.810  1.2428  1.6754 -0.4569
 5321TIP3    H215928   0.357   6.649   0.905 -1.7634 -0.5355 -0.8480
 5322TIP3   OH215929   6.437   0.566   2.003  0.1416  0.0565  0.9692
 5322TIP3    H115930   6.383   0.592   1.929 -0.9465  1.2612  2.1460
 5322TIP3    H215931   6.512   0.626   2.001  0.9649 -0.9432 -0.0439
 5323TIP3   OH215932   0.680   3.645   1.880  0.2383 -0.2076  0.1180
 5323TIP3    H115933   0.774   3.626   1.889  0.2693  0.1428  0.5568
 5323TIP3    H215934   0.648   3.650   1.970  0.2168  1.7101  0.0508
 5324TIP3   OH215935   4.439   0.312   0.493  0.1619  0.0536  0.4743
 5324TIP3    H115936   4.449   0.221   0.519  1.1394 -0.0358 -0.1514
 5324TIP3    H215937   4.499   0.323   0.419  0.0691  1.2040  0.5437
 5325TIP3   OH215938   7.082   5.022   0.443 -0.0636 -0.1202  0.1760
 5325TIP3    H115939   7.167   5.001   0.405 -0.3084  0.2415 -0.5774
 5325TIP3    H215940   7.086   4.984   0.531  0.6414 -0.6495 -0.0708
 5326TIP3   OH215941   4.006   3.059   3.359 -0.4199  0.9278  0.6961
 5326TIP3    H115942   3.996   2.974   3.318  0.3939  1.1800 -0.0521
 5326TIP3    H215943   4.061   3.109   3.299 -1.2361  2.1333  0.9139
 5327TIP3   OH215944   0.220   6.611   4.279  0.5089 -0.5442 -0.1283
 5327TIP3    H115945   0.239   6.576   4.366 -0.3427  1.2711  0.8446
 5327TIP3    H215946   0.283   6.682   4.268 -0.3415  0.2056 -0.3209
 5328TIP3   OH215947   5.515   1.802   0.125  0.4278 -0.0981 -0.1230
 5328TIP3    H115948   5.454   1.865   0.087  0.8569 -0.7508 -1.9894
 5328TIP3    H215949   5.578   1.856   0.173  0.2374  0.8268 -0.8747
 5329TIP3   OH215950   4.034   0.060   1.986  0.0175  0.0572 -0.3302
 5329TIP3    H115951   4.065   0.031   1.901 -0.0970 -1.2592  0.0468
 5329TIP3    H215952   4.012  -0.021   2.032 -1.8490  0.8232  0.2187
 5330TIP3   OH215953   0.065   2.502   1.429  0.4972 -0.0009 -0.5906
 5330TIP3    H115954   0.144   2.555   1.421  0.7469 -0.1615  0.6290
 5330TIP3    H215955   0.093   2.414   1.405  0.9895 -0.2823  0.9090
 5331TIP3   OH215956   4.422   3.035   4.873 -0.0477 -0.2821  0.0351
 5331TIP3    H115957   4.434   2.957   4.820 -0.2234  0.2959 -0.8879
 5331TIP3    H215958   4.503   3.045   4.922  0.4481 -0.3775 -0.7535
 5332TIP3   OH215959   2.287   3.198   1.637  0.7491  0.6372 -0.0179
 5332TIP3    H115960   2.326   3.110   1.645  1.9636  1.1733  0.2180
 5332TIP3    H215961   2.211   3.185   1.582  0.6043 -0.6624  0.4388
 5333TIP3   OH215962   0.617   2.644   2.592  0.3524 -0.1934  0.3924
 5333TIP3    H115963   0.665   2.579   2.542  0.3612  2.3520 -3.3481
 5333TIP3    H215964   0.525   2.624   2.576  0.3540  0.8259 -1.1574
 5334TIP3   OH215965   6.128   5.506   1.642  0.1202  0.3515 -0.0755
 5334TIP3    H115966   6.178   5.505   1.724  0.4592 -4.0207 -0.1164
 5334TIP3    H215967   6.193   5.488   1.575 -0.8456 -1.1151 -0.6533
 5335TIP3   OH215968   2.157   5.538   1.794 -0.1836  0.3437 -0.2806
 5335TIP3    H115969   2.153   5.619   1.743 -0.6496  0.0824 -0.6622
 5335TIP3    H215970   2.240   5.543   1.841 -1.3985  2.3683  1.8716
 5336TIP3   OH215971   6.829   6.443   1.213  0.7222 -0.0497 -0.5893
 5336TIP3    H115972   6.882   6.364   1.227  1.8548  0.9853  1.3748
 5336TIP3    H215973   6.766   6.443   1.285  0.6954  0.7894 -0.5995
 5337TIP3   OH215974   3.288   4.663   3.618 -0.2798 -0.0853  0.2868
 5337TIP3    H115975   3.262   4.584   3.664 -0.6702 -1.0099 -1.4645
 5337TIP3    H215976   3.382   4.670   3.634 -0.3038 -0.6988  0.7228
 5338TIP3   OH215977   0.413   6.149   3.525 -0.2874 -0.0990 -0.5663
 5338TIP3    H115978   0.495   6.187   3.558 -0.1958  0.7595 -1.7196
 5338TIP3    H215979   0.406   6.180   3.435 -0.9566 -1.6810 -1.1049
 5339TIP3   OH215980   1.567   3.936   0.192  0.4818  0.0971  0.0918
 5339TIP3    H115981   1.540   3.858   0.144 -0.3111 -0.1112  0.8524
 5339TIP3    H215982   1.506   3.942   0.265  0.0705  1.8369 -0.3402
 5340TIP3   OH215983   1.917   0.794   1.965  0.2684  0.0558 -0.8241
 5340TIP3    H115984   1.829   0.831   1.961  0.3363  0.5749  1.4893
 5340TIP3    H215985   1.907   0.713   2.015  1.4255  1.4052  1.7638
 5341TIP3   OH215986   6.058   2.983   5.131 -0.2642 -0.1042  0.5447
 5341TIP3    H115987   6.149   2.966   5.104 -0.2782  1.2116 -0.4227
 5341TIP3    H215988   6.048   2.934   5.213  2.2249  1.8883  2.2305
 5342TIP3   OH215989   5.476   0.217   2.112 -0.1267  0.2903 -0.8146
 5342TIP3    H115990   5.398   0.266   2.136 -1.4387 -2.5766  1.3779
 5342TIP3    H215991   5.456   0.126   2.136  3.6869 -0.6885 -0.6395
 5343TIP3   OH215992   2.066   3.834   0.189  0.2294  0.0243  0.6307
 5343TIP3    H115993   2.149   3.822   0.144 -0.5513 -0.1061 -0.8149
 5343TIP3    H215994   2.006   3.865   0.122 -1.0175 -0.3311  1.5454
 5344TIP3   OH215995   5.278   4.804   1.558 -0.0533  0.7555 -0.4009
 5344TIP3    H115996   5.232   4.803   1.642 -0.1682  2.3323 -0.4145
 5344TIP3    H215997   5.213   4.772   1.495 -0.0558 -0.1610  0.0408
 5345TIP3   OH215998   3.541   0.904   4.739  0.2239  0.1335 -0.2288
 5345TIP3    H115999   3.526   0.900   4.834  0.6157  0.7666 -0.1389
 5345TIP3    H216000   3.553   0.813   4.713 -1.0658 -0.1691  0.1342
 5346TIP3   OH216001   6.968   4.064   5.209 -0.1577 -0.0368  0.3376
 5346TIP3    H116002   6.953   3.972   5.229 -1.7183 -0.1582 -1.2303
 5346TIP3    H216003   6.902   4.111   5.260  0.8633  0.2806  1.4163
 5347TIP3   OH216004   5.522   5.648   5.039  0.1268 -0.0543  0.6890
 5347TIP3    H116005   5.480   5.663   4.954  0.6463  0.4015  0.5023
 5347TIP3    H216006   5.455   5.606   5.092  0.1889 -1.5327 -0.3344
 5348TIP3   OH216007   5.703   5.616   2.619 -0.3199  0.4033 -0.4597
 5348TIP3    H116008   5.782   5.618   2.673 -1.3042  1.7359  1.0160
 5348TIP3    H216009   5.668   5.705   2.624 -1.2292  0.1763 -2.1541
 5349TIP3   OH216010   2.551   1.401   1.130  0.1971 -0.4453 -0.4413
 5349TIP3    H116011   2.551   1.450   1.212  1.1643  1.4882 -1.4964
 5349TIP3    H216012   2.538   1.310   1.155  0.9703  0.0263  1.8880
 5350TIP3   OH216013   3.183   2.153   1.366  0.2706  0.4121  0.0520
 5350TIP3    H116014   3.256   2.124   1.421  1.1944 -0.6244 -1.6511
 5350TIP3    H216015   3.211   2.238   1.332 -0.5777  1.3663  1.6065
 5351TIP3   OH216016   6.570   3.909   3.397 -0.2347 -0.0716 -0.0951
 5351TIP3    H116017   6.664   3.927   3.400 -0.3382  0.4339  0.2700
 5351TIP3    H216018   6.564   3.813   3.395  0.2956 -0.1058 -0.6093
 5352TIP3   OH216019   5.316   3.974   4.632  0.8680 -0.2187  0.3111
 5352TIP3    H116020   5.249   4.039   4.652  0.2374 -0.6422 -0.3995
 5352TIP3    H216021   5.375   4.018   4.571  0.2128 -0.4308 -0.4932
 5353TIP3   OH216022   5.434   6.728   5.068 -0.1943  0.0446  0.2383
 5353TIP3    H116023   5.415   6.637   5.090  0.2168 -0.0622  0.1571
 5353TIP3    H216024   5.446   6.727   4.973 -3.1809  0.7060 -0.2592
 5354TIP3   OH216025   2.625   1.675   4.641 -0.0348  0.4906 -0.2679
 5354TIP3    H116026   2.558   1.611   4.614  2.8612 -3.3200  0.6493
 5354TIP3    H216027   2.618   1.677   4.737  1.0086  0.1385 -0.1736
 5355TIP3   OH216028   3.227   3.762   2.224  0.0789 -0.0104 -0.2759
 5355TIP3    H116029   3.207   3.854   2.244  1.4148  0.3442 -0.4760
 5355TIP3    H216030   3.303   3.742   2.277  0.1253 -0.8482 -0.6488
 5356TIP3   OH216031   0.582   4.532   2.324 -0.4388  0.0222  0.7228
 5356TIP3    H116032   0.528   4.479   2.383  0.3265 -0.3846  1.0724
 5356TIP3    H216033   0.528   4.543   2.245 -1.2178  0.0375  1.2476
 5357TIP3   OH216034   0.623   5.613   5.320 -0.3146 -0.6589  0.0280
 5357TIP3    H116035   0.625   5.520   5.298 -1.3505 -1.1092  1.7053
 5357TIP3    H216036   0.538   5.627   5.361 -0.5502  1.2381 -0.9593
 5358TIP3   OH216037   0.656   1.606   4.309  0.0901 -0.3269 -0.3158
 5358TIP3    H116038   0.642   1.676   4.245 -0.2539 -1.4506 -1.5142
 5358TIP3    H216039   0.603   1.533   4.276  1.1208 -1.4351  0.4297
 5359TIP3   OH216040   1.085   1.719   4.550 -0.6978  0.0337 -0.5889
 5359TIP3    H116041   1.024   1.723   4.624 -0.2281  1.2650 -0.2392
 5359TIP3    H216042   1.030   1.738   4.473 -0.5282  2.9764 -0.1006
 5360TIP3   OH216043   4.459   2.121   1.782  0.9095 -0.0365  0.1343
 5360TIP3    H116044   4.527   2.187   1.769  0.6930  0.2594  0.4760
 5360TIP3    H216045   4.434   2.130   1.874 -1.0691  1.2943 -0.4777
 5361TIP3   OH216046   5.189   3.353   4.909 -0.1731  0.0176 -0.0981
 5361TIP3    H116047   5.187   3.393   4.823  0.4012 -1.1625 -0.6813
 5361TIP3    H216048   5.266   3.389   4.951  0.7635 -0.9900 -0.8975
 5362TIP3   OH216049   1.212   0.324  -0.014 -0.4894 -0.5376 -0.4300
 5362TIP3    H116050   1.223   0.360   0.075  3.1902 -1.1919 -0.4700
 5362TIP3    H216051   1.269   0.247  -0.016  1.3089  0.6631 -3.9538
 5363TIP3   OH216052   6.055   6.115   1.769  0.0344 -0.1989 -0.6763
 5363TIP3    H116053   6.036   6.116   1.863 -1.1843  0.0376 -0.8997
 5363TIP3    H216054   6.036   6.205   1.740  0.3948 -0.2732 -1.1451
 5364TIP3   OH216055   4.820   3.522   4.731  0.6309  0.0994  0.4470
 5364TIP3    H116056   4.851   3.611   4.749  2.4863 -0.6738  1.3454
 5364TIP3    H216057   4.839   3.473   4.811  1.3166 -1.5344 -0.6608
 5365TIP3   OH216058   6.754   0.229   0.830  0.1494  0.5711  0.4621
 5365TIP3    H116059   6.662   0.203   0.829 -0.0863  1.3759 -0.4975
 5365TIP3    H216060   6.775   0.246   0.738  1.7449 -1.2150  0.4345
 5366TIP3   OH216061   2.339   4.365   1.874 -0.0270 -0.1118 -0.2795
 5366TIP3    H116062   2.309   4.336   1.961  0.1651 -1.0128 -0.5045
 5366TIP3    H216063   2.400   4.297   1.846  0.5744  0.6088 -0.7623
 5367TIP3   OH216064   0.423   1.772   5.158  0.1336  0.3307  0.3535
 5367TIP3    H116065   0.510   1.744   5.128  0.1869  0.1400  0.6858
 5367TIP3    H216066   0.440   1.818   5.240 -0.2249 -1.0283  1.2167
 5368TIP3   OH216067   3.954   1.641   3.216  0.5272 -0.4652  0.4821
 5368TIP3    H116068   4.031   1.683   3.178  1.1107 -2.3159 -0.4973
 5368TIP3    H216069   3.986   1.555   3.244 -1.2252 -1.3657 -0.1707
 5369TIP3   OH216070   0.597   3.546   4.221  0.4197  0.1324  0.0502
 5369TIP3    H116071   0.628   3.481   4.284  0.3180  0.5167  0.5018
 5369TIP3    H216072   0.518   3.582   4.261 -0.5231 -0.6886 -0.9904
 5370TIP3   OH216073   4.367   3.089   2.508  0.2130 -0.9235  0.1562
 5370TIP3    H116074   4.415   3.122   2.584  0.4928  0.8572 -0.7525
 5370TIP3    H216075   4.395   2.997   2.501  0.3140 -1.0816  2.0644
 5371TIP3   OH216076   6.284   5.645   2.171 -0.1995 -0.1054  0.2006
 5371TIP3    H116077   6.244   5.724   2.134  1.3725  1.7118  2.1530
 5371TIP3    H216078   6.371   5.641   2.130 -0.7567 -1.6782 -0.9250
 5372TIP3   OH216079   2.710   3.231   1.399 -0.1954 -0.4111 -0.1287
 5372TIP3    H116080   2.679   3.260   1.314 -0.2633  1.8762  0.6179
 5372TIP3    H216081   2.803   3.256   1.401 -0.7121  1.6281  1.2541
 5373TIP3   OH216082   0.335   4.040   1.675  0.3802 -0.2082 -0.1342
 5373TIP3    H116083   0.313   3.947   1.663  1.1718 -0.2976 -1.0529
 5373TIP3    H216084   0.368   4.067   1.589  0.2603  0.8970  0.1621
 5374TIP3   OH216085   1.054   5.523   0.976  0.4714 -0.1493 -0.2315
 5374TIP3    H116086   1.000   5.457   0.932 -0.4161 -0.5284  1.3626
 5374TIP3    H216087   1.046   5.601   0.921 -1.9982 -0.0953  0.0906
 5375TIP3   OH216088   5.065   2.068   0.254 -0.5180  0.1895 -0.0071
 5375TIP3    H116089   5.012   2.136   0.295 -0.7381  0.4145 -0.6593
 5375TIP3    H216090   5.144   2.113   0.225 -1.6073  0.6730 -2.4339
 5376TIP3   OH216091   1.446   0.869   0.294  0.1713 -0.0636  0.6032
 5376TIP3    H116092   1.397   0.939   0.251 -0.0262 -1.5053 -1.7077
 5376TIP3    H216093   1.513   0.844   0.229  0.6806 -1.5365  1.6491
 5377TIP3   OH216094   5.817   6.580   2.362  0.2047 -0.1381 -0.0227
 5377TIP3    H116095   5.775   6.662   2.337 -2.0008 -1.3481 -0.5608
 5377TIP3    H216096   5.778   6.557   2.446  1.4180 -0.2753  0.5379
 5378TIP3   OH216097   2.522   5.661   0.978  0.1457 -0.8061  0.4901
 5378TIP3    H116098   2.599   5.716   0.958 -1.4421  1.8922  1.2701
 5378TIP3    H216099   2.510   5.671   1.072 -2.4760  0.8258  0.0749
 5379TIP3   OH216100   2.009   0.172   3.839 -0.3283  0.1394 -0.2623
 5379TIP3    H116101   1.984   0.262   3.815 -1.8559 -0.3282 -0.5641
 5379TIP3    H216102   2.010   0.172   3.934 -1.9572  0.1092 -0.2115
 5380TIP3   OH216103   6.363   4.994   1.810  0.0240  1.0304  0.2860
 5380TIP3    H116104   6.336   4.903   1.801 -0.1905  1.3060 -2.5690
 5380TIP3    H216105   6.439   4.990   1.868  0.5847 -1.1075 -0.4910
 5381TIP3   OH216106   5.075   4.430   0.681  0.0740  0.4246  0.5056
 5381TIP3    H116107   5.007   4.365   0.698  0.8305 -0.3285  0.7326
 5381TIP3    H216108   5.133   4.387   0.619  0.6403  0.8483  0.7408
 5382TIP3   OH216109   3.055   6.277   4.781 -0.0477 -0.1407 -0.5307
 5382TIP3    H116110   3.046   6.358   4.733  1.5230 -0.9050 -2.2237
 5382TIP3    H216111   3.149   6.269   4.798 -0.0139 -2.0730 -1.3365
 5383TIP3   OH216112   7.001   2.547   4.762  0.1844  0.0076  0.4804
 5383TIP3    H116113   6.933   2.564   4.828  0.2148  0.5522  0.3797
 5383TIP3    H216114   6.977   2.603   4.688  1.0457  0.6385  0.6558
 5384TIP3   OH216115   5.919   2.044   0.090  0.3328  0.0038 -0.1757
 5384TIP3    H116116   5.867   2.003   0.158 -1.2086  1.2757 -0.5355
 5384TIP3    H216117   6.008   2.048   0.127 -0.2868 -0.1146  1.3831
 5385TIP3   OH216118   2.189   5.637   2.211  0.2727 -0.0513 -0.3238
 5385TIP3    H116119   2.137   5.696   2.157  1.5353  1.1030 -0.3185
 5385TIP3    H216120   2.227   5.575   2.149  0.6540  0.4613 -0.6118
 5386TIP3   OH216121   4.320   5.955   4.108 -0.7672  0.0856 -0.1540
 5386TIP3    H116122   4.233   5.934   4.140 -1.9517 -0.4868 -3.3880
 5386TIP3    H216123   4.306   6.030   4.049  0.8038 -0.3567 -1.1459
 5387TIP3   OH216124   2.072   0.773   2.804 -0.1537 -0.3137 -0.3531
 5387TIP3    H116125   2.136   0.706   2.783  0.3213  0.4392 -1.4454
 5387TIP3    H216126   2.016   0.778   2.726 -0.8904 -0.2288  0.1679
 5388TIP3   OH216127   4.973   2.618   4.260 -0.1273 -0.0971 -0.2135
 5388TIP3    H116128   4.930   2.702   4.242 -1.5374 -1.4245 -4.3038
 5388TIP3    H216129   4.901   2.557   4.274  0.7874 -1.0382  0.5038
 5389TIP3   OH216130   5.512   2.139   0.973  0.7868  0.3149 -0.1183
 5389TIP3    H116131   5.502   2.052   0.936 -1.1369  0.0573  0.9091
 5389TIP3    H216132   5.572   2.127   1.047  3.7048  0.6316 -2.2534
 5390TIP3   OH216133   3.156   3.589   5.281 -0.0904  0.0242 -0.2157
 5390TIP3    H116134   3.146   3.668   5.334  1.0051 -0.5652  0.9312
 5390TIP3    H216135   3.169   3.519   5.345  0.3634 -0.8561 -1.2380
 5391TIP3   OH216136   7.179   4.851   4.706  0.1230  0.1601 -0.0000
 5391TIP3    H116137   7.133   4.768   4.697 -0.0154  0.2002  0.3158
 5391TIP3    H216138   7.161   4.898   4.625 -1.7368  0.8416  0.7684
 5392TIP3   OH216139   3.646   4.217   0.130 -0.1351  0.0112 -0.0364
 5392TIP3    H116140   3.590   4.275   0.080  0.8041 -1.3452 -2.8644
 5392TIP3    H216141   3.735   4.243   0.107  0.3136 -1.6134 -0.2839
 5393TIP3   OH216142   0.411   4.571   3.316  0.4194  0.3795 -0.3314
 5393TIP3    H116143   0.439   4.542   3.229 -0.7744  0.8254 -0.8871
 5393TIP3    H216144   0.336   4.628   3.299  0.2988  0.6401  0.9857
 5394TIP3   OH216145   4.891   4.900   0.097 -0.6409  0.3954 -0.6652
 5394TIP3    H116146   4.933   4.814   0.089 -1.0606  0.0031  1.0001
 5394TIP3    H216147   4.838   4.907   0.018  0.3365 -0.3317 -1.4261
 5395TIP3   OH216148   1.060   3.228   3.571 -0.4750  0.0074  0.5039
 5395TIP3    H116149   1.031   3.201   3.658 -1.1220  1.1080  0.6501
 5395TIP3    H216150   1.055   3.148   3.518  1.7493 -1.1391  1.8848
 5396TIP3   OH216151   5.122   1.198   0.054  0.2613 -0.2089 -0.5835
 5396TIP3    H116152   5.117   1.225   0.146 -1.4540  0.9145 -0.9520
 5396TIP3    H216153   5.212   1.168   0.042  0.4308 -0.6636  1.5293
 5397TIP3   OH216154   4.974   3.747   2.086  0.1103 -0.4914 -0.8045
 5397TIP3    H116155   4.889   3.758   2.043  1.0585  1.6531 -2.3088
 5397TIP3    H216156   4.958   3.682   2.154 -2.5465 -0.7130 -1.5247
 5398TIP3   OH216157   1.935   4.865   0.055  0.1766 -0.6482  0.0877
 5398TIP3    H116158   1.924   4.941  -0.002  0.3840 -0.2440  0.5767
 5398TIP3    H216159   1.988   4.804   0.004  0.2630 -0.3393 -0.1940
 5399TIP3   OH216160   4.195   1.820  -0.036 -0.0214 -0.2321  0.2249
 5399TIP3    H116161   4.267   1.778   0.011  0.4554  0.2194 -0.0899
 5399TIP3    H216162   4.122   1.819   0.026  0.4659 -0.0381  0.8107
 5400TIP3   OH216163   3.780   0.464   4.665 -0.5050 -0.0356  0.1536
 5400TIP3    H116164   3.840   0.536   4.685  1.5219 -2.2609  3.0839
 5400TIP3    H216165   3.832   0.404   4.611 -0.7393 -1.0597  1.0262
 5401TIP3   OH216166   5.296   5.861   5.500 -0.0148 -0.4520  0.2527
 5401TIP3    H116167   5.310   5.922   5.427  0.6634  1.2482  1.7275
 5401TIP3    H216168   5.358   5.790   5.485 -0.3032 -0.4365 -1.1279
 5402TIP3   OH216169   5.924   6.174   3.627 -0.2691  0.5395 -0.1668
 5402TIP3    H116170   5.987   6.236   3.663  1.3373 -0.8298 -0.5112
 5402TIP3    H216171   5.964   6.144   3.546 -0.6322 -1.4872  0.3546
 5403TIP3   OH216172   3.181   4.466   1.482 -0.0896 -0.4013 -0.3974
 5403TIP3    H116173   3.253   4.471   1.545 -1.2854  0.7742  0.9530
 5403TIP3    H216174   3.205   4.393   1.425  2.3322  0.1727 -0.2459
 5404TIP3   OH216175   0.499   0.186   3.532  0.5190  0.1832 -0.1000
 5404TIP3    H116176   0.516   0.092   3.539  0.3918  0.2529  1.4955
 5404TIP3    H216177   0.585   0.227   3.539  0.6129  0.1939 -1.1349
 5405TIP3   OH216178   0.134   5.598   2.493 -0.1624 -0.4154 -0.4111
 5405TIP3    H116179   0.211   5.541   2.495 -0.2753 -0.5528  1.2246
 5405TIP3    H216180   0.170   5.687   2.490  0.0503 -0.5014 -0.4173
 5406TIP3   OH216181   1.612   3.536   4.357  0.2638 -0.2908  0.1482
 5406TIP3    H116182   1.538   3.510   4.302 -0.0184  3.0745 -1.2776
 5406TIP3    H216183   1.686   3.484   4.325 -1.0644 -2.6484  0.6379
 5407TIP3   OH216184   0.283   6.503   0.487  0.4541 -0.2958 -0.0957
 5407TIP3    H116185   0.336   6.579   0.511  0.8093 -0.6133  0.1270
 5407TIP3    H216186   0.229   6.485   0.564 -1.2136  1.0435 -0.8730
 5408TIP3   OH216187   6.966   6.293   5.796 -0.6358 -0.0584 -0.3869
 5408TIP3    H116188   7.059   6.278   5.813 -0.9535 -1.3509  0.2919
 5408TIP3    H216189   6.965   6.341   5.713  0.6570  0.6036 -0.0423
 5409TIP3   OH216190   0.102   4.698   0.329  0.6016 -0.6268 -0.0100
 5409TIP3    H116191   0.141   4.706   0.416  0.4066  0.4777 -0.0155
 5409TIP3    H216192   0.165   4.740   0.270  0.4756 -0.8801 -0.3294
 5410TIP3   OH216193   4.258   6.130   4.593 -0.4053  0.0839 -1.0472
 5410TIP3    H116194   4.331   6.128   4.532 -1.3619  0.9665 -2.2755
 5410TIP3    H216195   4.234   6.038   4.605  0.4361 -0.1621 -1.1999
 5411TIP3   OH216196   2.510   1.093   3.965  0.2049 -0.0511  0.6962
 5411TIP3    H116197   2.487   1.095   4.057 -0.2482 -0.3989  0.5947
 5411TIP3    H216198   2.589   1.039   3.960  0.2546  0.0065  0.8841
 5412TIP3   OH216199   2.980   2.727   1.854 -0.3843 -0.7251 -0.1768
 5412TIP3    H116200   2.984   2.695   1.763  0.1913 -1.2937  0.0360
 5412TIP3    H216201   3.067   2.762   1.871 -0.1048 -1.7054  0.5270
 5413TIP3   OH216202   0.750   6.350   5.228  0.2222 -0.0335  0.1907
 5413TIP3    H116203   0.674   6.320   5.179 -0.2318  0.1262  0.7876
 5413TIP3    H216204   0.743   6.308   5.314  2.0659 -1.9023 -0.4906
 5414TIP3   OH216205   2.005   3.180   4.483 -0.3061  0.2073  0.1078
 5414TIP3    H116206   2.058   3.259   4.480  0.3963 -0.1788  1.4123
 5414TIP3    H216207   2.010   3.151   4.574 -0.5162 -1.3429 -0.3363
 5415TIP3   OH216208   0.227   0.637   5.115  0.3506 -0.3615  0.1949
 5415TIP3    H116209   0.193   0.724   5.137 -0.1490 -0.4307 -0.2875
 5415TIP3    H216210   0.153   0.593   5.073  0.9216 -0.6469 -0.5201
 5416TIP3   OH216211   0.073   1.394   0.702 -0.0672 -0.1582 -0.1382
 5416TIP3    H116212   0.133   1.469   0.703  1.5750 -1.4015 -0.3003
 5416TIP3    H216213   0.039   1.391   0.613  0.3292  0.0541 -0.2971
 5417TIP3   OH216214   5.218   3.609   4.024 -0.3851 -0.3086  0.0267
 5417TIP3    H116215   5.212   3.676   3.956 -1.0801  1.6480  1.9182
 5417TIP3    H216216   5.137   3.558   4.016 -0.2292 -0.4358 -0.8843
 5418TIP3   OH216217   4.020   1.022   0.591  0.0222 -0.6107  0.2335
 5418TIP3    H116218   3.925   1.028   0.582 -0.2472 -4.4646 -1.2107
 5418TIP3    H216219   4.054   1.083   0.526 -1.4218  0.4475  0.4212
 5419TIP3   OH216220   4.246   3.885   1.020 -0.2013 -0.2552  0.5334
 5419TIP3    H116221   4.151   3.891   1.017 -0.1081  4.3246 -1.9504
 5419TIP3    H216222   4.272   3.861   0.931  1.0367 -0.1647  0.8423
 5420TIP3   OH216223   4.561   0.734   4.402  0.1773  0.0527 -0.2881
 5420TIP3    H116224   4.547   0.825   4.430  0.1908 -0.2104  0.6062
 5420TIP3    H216225   4.555   0.683   4.483 -0.0178 -0.7674 -0.8096
 5421TIP3   OH216226   6.346   1.748   2.674 -0.4198 -0.3593  0.3461
 5421TIP3    H116227   6.402   1.704   2.609 -0.2360 -0.1902  0.3915
 5421TIP3    H216228   6.265   1.697   2.673  0.3086 -1.5919  1.4520
 5422TIP3   OH216229   2.687   2.085   3.319  0.5451  0.6274 -0.8189
 5422TIP3    H116230   2.606   2.049   3.282  1.2556  0.5348 -2.3640
 5422TIP3    H216231   2.698   2.039   3.402 -0.3236 -0.2528 -1.1703
 5423TIP3   OH216232   2.710   2.209   4.933  0.0730 -0.3399 -0.5386
 5423TIP3    H116233   2.699   2.289   4.985 -0.3048 -1.6895  1.5659
 5423TIP3    H216234   2.803   2.187   4.943  0.0568 -0.4596 -0.6504
 5424TIP3   OH216235   5.327   1.650   2.222  0.3075  0.4877 -0.0382
 5424TIP3    H116236   5.396   1.696   2.271 -1.0796  2.7448 -0.0808
 5424TIP3    H216237   5.248   1.701   2.237 -0.6510  0.0287 -2.8845
 5425TIP3   OH216238   5.574   2.609   1.307 -0.2314 -0.3747 -0.4022
 5425TIP3    H116239   5.531   2.645   1.385  1.7228  0.0147  0.5635
 5425TIP3    H216240   5.628   2.537   1.341  0.2446 -0.5528 -1.4909
 5426TIP3   OH216241   3.132   0.246   1.193  0.2016  0.1277  1.2228
 5426TIP3    H116242   3.074   0.307   1.148  2.4607  1.1587 -0.5156
 5426TIP3    H216243   3.118   0.264   1.286 -3.0440 -0.5469  0.9894
 5427TIP3   OH216244   4.180   2.189   0.296 -0.6053  0.0305 -0.3137
 5427TIP3    H116245   4.230   2.108   0.303  1.2719  1.2018  0.5713
 5427TIP3    H216246   4.150   2.191   0.205  1.4367 -0.5009 -1.0500
 5428TIP3   OH216247   4.258   5.343   4.586 -0.2561 -0.3767  0.0004
 5428TIP3    H116248   4.255   5.267   4.646  1.1355 -0.0825  0.4720
 5428TIP3    H216249   4.344   5.339   4.546 -1.4038 -0.9782 -2.6133
 5429TIP3   OH216250   0.341   6.072   2.020 -0.0265  0.4571  0.1171
 5429TIP3    H116251   0.291   6.134   1.967 -1.1069  0.3446  0.9857
 5429TIP3    H216252   0.424   6.062   1.972  0.4695  3.0503  0.2691
 5430TIP3   OH216253   3.555   1.713   1.567 -0.4250 -0.0020  0.5587
 5430TIP3    H116254   3.538   1.741   1.477 -1.4191 -0.9960  0.4197
 5430TIP3    H216255   3.648   1.691   1.568 -0.8465 -2.1823 -0.8830
 5431TIP3   OH216256   1.678   3.110   0.416 -0.5165  0.1475  0.3358
 5431TIP3    H116257   1.683   3.015   0.412 -0.9737  0.0860  0.9748
 5431TIP3    H216258   1.610   3.128   0.482 -0.5833  0.9108  0.0754
 5432TIP3   OH216259   1.400   6.212   2.849 -0.2442  0.1580 -0.6977
 5432TIP3    H116260   1.455   6.184   2.922 -1.8603 -2.2024 -0.3037
 5432TIP3    H216261   1.363   6.296   2.877  0.9793  0.4405  0.1462
 5433TIP3   OH216262   4.892   5.729   2.810  0.1075  0.0046  0.2712
 5433TIP3    H116263   4.973   5.736   2.861 -1.0002  1.0118  2.0272
 5433TIP3    H216264   4.897   5.801   2.747  0.1186  0.7835  1.1322
 5434TIP3   OH216265   6.051   5.017   1.075  0.6255 -0.1709  0.5721
 5434TIP3    H116266   6.098   5.099   1.095  0.0731 -0.1907  2.0597
 5434TIP3    H216267   6.104   4.976   1.007  1.4223  0.9875  0.4558
 5435TIP3   OH216268   2.868   2.821   1.387  0.3644  0.1478 -0.1344
 5435TIP3    H116269   2.774   2.815   1.406  0.5064 -0.6641  0.3753
 5435TIP3    H216270   2.887   2.915   1.388 -0.1271  0.2688  1.3739
 5436TIP3   OH216271   0.943   1.710   2.856  0.1958 -0.3158 -0.1565
 5436TIP3    H116272   0.956   1.720   2.761  0.3558 -1.0790 -0.2206
 5436TIP3    H216273   0.984   1.788   2.894  0.5202 -0.2237 -0.6829
 5437TIP3   OH216274   0.782   3.474   1.099  0.1195  0.2545 -0.0125
 5437TIP3    H116275   0.813   3.492   1.010  1.6603  1.4619  0.7238
 5437TIP3    H216276   0.795   3.379   1.109  2.5855  0.5063 -0.1753
 5438TIP3   OH216277   2.710   5.481   3.251 -0.2294 -0.0922 -0.3648
 5438TIP3    H116278   2.787   5.431   3.278 -0.2883 -1.2612 -2.1727
 5438TIP3    H216279   2.746   5.558   3.208 -0.0219 -0.8654 -1.6222
 5439TIP3   OH216280   1.956   1.562   0.225 -0.2192  0.3997  0.2536
 5439TIP3    H116281   1.990   1.584   0.311 -3.4438 -0.7580  1.9865
 5439TIP3    H216282   1.955   1.466   0.223 -1.6443  0.3874 -0.3579
 5440TIP3   OH216283   5.239   3.048   4.624  0.3706 -0.4325  0.2123
 5440TIP3    H116284   5.267   2.980   4.563  0.8615 -0.8306  0.8616
 5440TIP3    H216285   5.166   3.009   4.672  0.6071 -0.4810  0.5358
 5441TIP3   OH216286   2.684   0.218   3.180 -0.2039  0.6432 -0.0919
 5441TIP3    H116287   2.617   0.205   3.113  0.1625  1.8295 -0.7042
 5441TIP3    H216288   2.638   0.199   3.263 -1.7901  2.9544 -0.3587
 5442TIP3   OH216289   3.783   0.142   3.426  0.4151  0.0756 -0.6617
 5442TIP3    H116290   3.853   0.093   3.469  1.5128  1.3822 -0.8812
 5442TIP3    H216291   3.736   0.077   3.375 -0.6979 -1.4678  2.1379
 5443TIP3   OH216292   2.013   2.112   1.967  0.2946  0.5174 -0.0194
 5443TIP3    H116293   2.034   2.129   1.876  0.2570  0.9910  0.0615
 5443TIP3    H216294   2.042   2.021   1.982 -0.9409 -0.0428 -0.8737
 5444TIP3   OH216295   6.715   5.820   0.609 -0.3600  0.4750 -0.7062
 5444TIP3    H116296   6.726   5.915   0.597 -0.8284  0.5912 -0.2559
 5444TIP3    H216297   6.626   5.802   0.580 -0.1659  0.1143 -1.0900
 5445TIP3   OH216298   2.919   3.914   1.037 -0.4494 -0.2762  0.1293
 5445TIP3    H116299   2.849   3.979   1.030  1.2384  1.6000 -0.2462
 5445TIP3    H216300   2.874   3.830   1.033 -2.5803  0.8318 -1.5159
 5446TIP3   OH216301   6.974   2.166   3.049 -0.5529  0.1066  0.4547
 5446TIP3    H116302   7.029   2.241   3.030  0.9381 -1.5386 -2.3972
 5446TIP3    H216303   7.031   2.105   3.096 -0.5507 -0.7041 -0.5509
 5447TIP3   OH216304   2.677   3.817   5.167 -0.0380  1.1726  0.3006
 5447TIP3    H116305   2.609   3.839   5.103  0.2456  0.5573 -0.2227
 5447TIP3    H216306   2.645   3.854   5.250 -1.6641 -0.2477  0.3629
 5448TIP3   OH216307   3.707   6.236   4.350 -0.0133  0.1401  0.4481
 5448TIP3    H116308   3.730   6.162   4.407  1.2103  1.8814  2.3394
 5448TIP3    H216309   3.708   6.199   4.262  0.1327 -2.1926  1.3475
 5449TIP3   OH216310   1.399   3.348   3.921  0.1741 -0.2440 -0.4013
 5449TIP3    H116311   1.316   3.306   3.896 -1.3317  3.6933 -3.1007
 5449TIP3    H216312   1.457   3.331   3.847  0.4582  0.1806 -0.2769
 5450TIP3   OH216313   4.256   2.530   4.086  0.1142 -0.5314 -0.2944
 5450TIP3    H116314   4.189   2.462   4.077 -2.4602  1.8700 -0.4384
 5450TIP3    H216315   4.263   2.569   3.999 -1.2059  1.7265  0.5265
 5451TIP3   OH216316   4.636   4.813   1.045  0.0824 -0.9233 -0.4692
 5451TIP3    H116317   4.702   4.770   0.991 -0.5737  0.3739 -2.3970
 5451TIP3    H216318   4.649   4.907   1.029 -0.7496 -0.5378  0.9272
 5452TIP3   OH216319   0.608   4.806   3.820 -0.2847 -0.7476  0.2654
 5452TIP3    H116320   0.541   4.862   3.781 -1.7923 -1.1946  2.0826
 5452TIP3    H216321   0.691   4.846   3.794 -1.1526 -0.6647 -2.8020
 5453TIP3   OH216322   0.401   0.322   1.648 -0.2302 -0.3247  0.4165
 5453TIP3    H116323   0.362   0.401   1.684 -0.8085 -0.0319 -0.7965
 5453TIP3    H216324   0.494   0.329   1.671 -0.1124  1.1301 -0.3617
 5454TIP3   OH216325   5.538   5.217   0.748  0.1447 -0.0354  0.0715
 5454TIP3    H116326   5.576   5.282   0.689  0.2100  0.1024  0.2641
 5454TIP3    H216327   5.463   5.263   0.788  1.3055  0.5732  1.6371
 5455TIP3   OH216328   0.661  -0.011   4.793 -0.5195 -0.5389 -0.1097
 5455TIP3    H116329   0.606   0.065   4.815 -0.4585 -0.0255 -1.6162
 5455TIP3    H216330   0.657  -0.017   4.698  0.8806 -1.3817 -0.1455
 5456TIP3   OH216331   0.270   2.167   5.679  0.1977 -0.1824  0.0551
 5456TIP3    H116332   0.214   2.238   5.647  0.9104  1.1179  1.5656
 5456TIP3    H216333   0.232   2.141   5.762  0.5348 -0.8837 -0.0008
 5457TIP3   OH216334   3.291   5.850   5.825  0.1479 -0.2591 -0.1834
 5457TIP3    H116335   3.351   5.855   5.898  0.5273 -0.9281 -0.4435
 5457TIP3    H216336   3.284   5.756   5.805  0.2724 -0.0722 -1.1744
 5458TIP3   OH216337   6.443   1.929   1.578  0.1784 -0.1134 -0.8631
 5458TIP3    H116338   6.448   1.836   1.603  2.1501 -0.2015 -1.3845
 5458TIP3    H216339   6.535   1.956   1.570 -0.3655  1.5393 -1.9878
 5459TIP3   OH216340   5.454   0.875   5.757 -0.2041 -0.4912  0.3499
 5459TIP3    H116341   5.491   0.863   5.844  0.2368 -1.3164  0.0589
 5459TIP3    H216342   5.451   0.970   5.745 -0.2153 -0.3748  1.2398
 5460TIP3   OH216343   2.632   5.914   3.288  0.2331  0.5796  0.1659
 5460TIP3    H116344   2.649   6.007   3.279 -1.5054  0.8249 -1.0858
 5460TIP3    H216345   2.645   5.878   3.201 -0.5154 -0.0774  0.3135
 5461TIP3   OH216346   5.947   4.736   0.041  0.3552 -0.0491 -0.0280
 5461TIP3    H116347   5.970   4.651   0.003 -0.4003 -0.2244 -0.1141
 5461TIP3    H216348   5.986   4.735   0.128  1.0019 -0.1710 -0.3164
 5462TIP3   OH216349   2.344   2.978   3.894  0.3512  0.1288  0.0018
 5462TIP3    H116350   2.428   3.022   3.909  0.6282 -0.5463  0.4770
 5462TIP3    H216351   2.368   2.889   3.866 -0.1125  1.0326 -3.8699
 5463TIP3   OH216352   4.634   1.244   0.734 -0.7776  0.3989  0.2118
 5463TIP3    H116353   4.615   1.322   0.787 -1.6510  0.4968 -0.2238
 5463TIP3    H216354   4.690   1.277   0.663 -0.5841  0.4932  0.4052
 5464TIP3   OH216355   3.393   1.657   4.895  0.1405  0.0291  0.0902
 5464TIP3    H116356   3.458   1.682   4.961 -0.3188 -0.8658  0.9211
 5464TIP3    H216357   3.442   1.652   4.813  1.3393 -1.4564  0.8424
 5465TIP3   OH216358   2.401   4.422   5.673 -0.3675  0.3176  0.0868
 5465TIP3    H116359   2.385   4.351   5.735  1.1005  0.6003  0.8176
 5465TIP3    H216360   2.374   4.386   5.588 -0.8610 -0.6504  0.6485
 5466TIP3   OH216361   0.589   0.824   0.807  0.5623 -0.1741  0.1138
 5466TIP3    H116362   0.589   0.871   0.724 -1.2974  2.5428  1.5041
 5466TIP3    H216363   0.677   0.838   0.842  0.2627  1.7896  0.1706
 5467TIP3   OH216364   5.179   0.695   2.592  0.1830  0.1189  0.1790
 5467TIP3    H116365   5.262   0.728   2.627 -0.5444 -0.2172  2.3823
 5467TIP3    H216366   5.113   0.724   2.655 -1.1672 -1.0231 -0.6458
 5468TIP3   OH216367   5.400   1.929   1.825 -0.2764  0.0515  0.3043
 5468TIP3    H116368   5.306   1.948   1.830 -0.3757 -0.1271 -0.6812
 5468TIP3    H216369   5.432   1.985   1.754  0.6841  1.3107  1.6866
 5469TIP3   OH216370   5.889   5.175   0.785  0.2676  0.1208  0.5019
 5469TIP3    H116371   5.813   5.137   0.829  0.3629 -0.0531  0.5174
 5469TIP3    H216372   5.938   5.100   0.753  0.7837  0.2016  1.0838
 5470TIP3   OH216373   1.426   6.019   0.678  0.0218 -0.2274  0.3672
 5470TIP3    H116374   1.493   5.958   0.647  0.8823  0.4201  0.8820
 5470TIP3    H216375   1.372   5.967   0.738  0.4797 -0.5935  0.4654
 5471TIP3   OH216376   0.311   2.095   0.856  0.5211  0.1905  0.4404
 5471TIP3    H116377   0.354   2.106   0.771  0.6393  0.8277  0.5802
 5471TIP3    H216378   0.320   2.002   0.875  0.5975  0.0606 -0.1907
 5472TIP3   OH216379   5.924   1.431   4.525  0.1720  0.5221  0.5757
 5472TIP3    H116380   5.885   1.443   4.611  0.8181 -0.5628  1.0418
 5472TIP3    H216381   6.012   1.468   4.533  0.8958 -1.1833  0.9665
 5473TIP3   OH216382   3.161   1.938   4.408 -0.5085 -0.6312 -0.3123
 5473TIP3    H116383   3.151   2.032   4.425  1.1849 -0.4570 -0.0887
 5473TIP3    H216384   3.079   1.913   4.366 -1.5331  0.6537  0.8236
 5474TIP3   OH216385   0.357   0.253   0.788  0.1054 -0.2965 -0.2327
 5474TIP3    H116386   0.420   0.195   0.745  1.0706  1.3338 -1.1147
 5474TIP3    H216387   0.405   0.289   0.863  0.2926  0.9746 -0.9254
 5475TIP3   OH216388   0.749   6.242   2.876  0.2135  0.1956 -0.2245
 5475TIP3    H116389   0.778   6.252   2.967 -0.5211  2.0358 -0.1606
 5475TIP3    H216390   0.815   6.184   2.836  1.9610  1.3574  0.8399
 5476TIP3   OH216391   5.738   5.422   3.047  0.0025  0.3711  0.0676
 5476TIP3    H116392   5.683   5.430   3.125  0.7439  2.0706  0.4546
 5476TIP3    H216393   5.750   5.328   3.036  2.0767  0.0396  3.6149
 5477TIP3   OH216394   7.168   3.984   5.660  0.0493 -0.2898  0.3297
 5477TIP3    H116395   7.236   4.046   5.635 -0.0595 -0.7681 -1.2307
 5477TIP3    H216396   7.173   3.980   5.756 -0.4915  2.7484  0.5772
 5478TIP3   OH216397   7.113   4.118   3.218 -0.1647  0.1817 -0.4775
 5478TIP3    H116398   7.088   4.036   3.176  0.7747  0.4773 -1.6773
 5478TIP3    H216399   7.202   4.135   3.185 -0.9836  2.5691 -1.6778
 5479TIP3   OH216400   3.925   5.673   2.377  0.8188 -0.4089 -0.5194
 5479TIP3    H116401   3.850   5.633   2.332  0.0501  1.1799 -0.7040
 5479TIP3    H216402   3.917   5.641   2.467 -0.9885  0.8777 -0.1637
 5480TIP3   OH216403   6.976   1.019  -0.003 -0.3488  0.0435  0.0050
 5480TIP3    H116404   6.903   0.992   0.053  2.0459  0.3334  3.5814
 5480TIP3    H216405   7.025   0.938  -0.018 -0.5051  0.1294 -1.0592
 5481TIP3   OH216406   6.709   1.261   0.210  0.0950 -0.4608  0.3920
 5481TIP3    H116407   6.736   1.237   0.299 -1.2676 -0.1145  0.9252
 5481TIP3    H216408   6.672   1.180   0.174 -0.9269 -0.1803  0.7792
 5482TIP3   OH216409   6.020   4.606   3.899  0.0322  0.3243  0.1681
 5482TIP3    H116410   6.017   4.518   3.860 -1.7490 -0.1941  1.3369
 5482TIP3    H216411   5.934   4.617   3.938  1.1418  1.4758  2.4784
 5483TIP3   OH216412   4.420   6.457   1.653 -0.1800 -0.2535 -0.0206
 5483TIP3    H116413   4.384   6.371   1.676  1.7614 -1.4182 -1.1112
 5483TIP3    H216414   4.405   6.465   1.559  0.1546  0.3496 -0.0255
 5484TIP3   OH216415   5.882   0.496   1.044  0.7145  0.2725 -0.0813
 5484TIP3    H116416   5.888   0.426   0.979 -1.6381  1.6001 -1.8963
 5484TIP3    H216417   5.911   0.575   0.998  2.2994  0.7274  1.5924
 5485TIP3   OH216418   6.438   3.172   4.151 -0.0531 -0.3653  0.2382
 5485TIP3    H116419   6.350   3.140   4.132 -0.0287 -0.9575  1.0485
 5485TIP3    H216420   6.425   3.255   4.196 -0.1760 -0.2275 -0.0468
 5486TIP3   OH216421   0.126   4.813   2.900  0.2807 -0.0203 -0.2778
 5486TIP3    H116422   0.173   4.733   2.874 -1.5136 -1.8678  1.7334
 5486TIP3    H216423   0.046   4.812   2.849  0.5365  0.8892 -0.7147
 5487TIP3   OH216424   5.507   4.854   4.866 -0.2292 -0.3894  0.9037
 5487TIP3    H116425   5.468   4.845   4.779 -1.0720 -2.8655  1.4543
 5487TIP3    H216426   5.576   4.788   4.868 -0.8825 -1.0639  2.4164
 5488TIP3   OH216427   2.663   3.275   2.406 -0.4115 -0.0925 -0.3633
 5488TIP3    H116428   2.657   3.289   2.311  1.3030  0.4186 -0.4415
 5488TIP3    H216429   2.687   3.360   2.441  2.0018 -0.9014  0.1446
 5489TIP3   OH216430   4.989   5.577   0.173  0.0472  0.0062 -0.2778
 5489TIP3    H116431   4.907   5.623   0.190  1.1908  1.8393  0.6577
 5489TIP3    H216432   4.994   5.510   0.242 -0.8705 -0.4508 -0.6413
 5490TIP3   OH216433   3.879   2.728   5.683 -0.0144 -0.0526 -0.0655
 5490TIP3    H116434   3.866   2.766   5.596  0.7675 -0.0681 -0.2014
 5490TIP3    H216435   3.839   2.641   5.678  0.1690 -0.1191 -0.4706
 5491TIP3   OH216436   2.371   0.332   4.727  0.1269  0.3288 -0.0055
 5491TIP3    H116437   2.421   0.400   4.682  0.3768 -0.1882 -0.5202
 5491TIP3    H216438   2.369   0.259   4.666  0.5495 -0.4286  0.8577
 5492TIP3   OH216439   6.620   6.074   4.465 -0.2951 -0.3212  0.1669
 5492TIP3    H116440   6.698   6.097   4.516 -0.0601 -1.5470  0.3811
 5492TIP3    H216441   6.572   6.013   4.520  0.1856 -2.0239 -1.2243
 5493TIP3   OH216442   6.482   5.689   0.191 -0.4142  0.1715  0.3198
 5493TIP3    H116443   6.439   5.686   0.105  1.5301  0.0799 -0.7113
 5493TIP3    H216444   6.551   5.623   0.185  0.6375  1.1213  1.4430
 5494TIP3   OH216445   5.615   6.586   5.677 -0.6002 -0.3829 -0.1938
 5494TIP3    H116446   5.577   6.673   5.666 -0.3704 -0.2846 -0.2098
 5494TIP3    H216447   5.686   6.582   5.612  0.4655  0.0354  0.9039
 5495TIP3   OH216448   6.608   1.112   2.015 -0.1973 -0.0694  0.1488
 5495TIP3    H116449   6.625   1.083   1.925  0.1773  0.3680  0.0755
 5495TIP3    H216450   6.692   1.143   2.047 -0.5849  0.9622  0.2164
 5496TIP3   OH216451   3.518   0.651   4.634  0.2122  0.2243  0.9186
 5496TIP3    H116452   3.451   0.680   4.572 -0.9401  0.0452  2.0331
 5496TIP3    H216453   3.594   0.631   4.580 -0.3975  1.1240 -0.3150
 5497TIP3   OH216454   0.253   2.208   3.178 -0.1964 -0.6501 -0.1583
 5497TIP3    H116455   0.317   2.278   3.172 -2.1908  1.2234 -0.9063
 5497TIP3    H216456   0.303   2.131   3.205  2.3026  0.7187 -0.6649
 5498TIP3   OH216457   6.469   5.083   2.085  0.2823 -0.1238  0.1511
 5498TIP3    H116458   6.451   4.994   2.115  0.2280 -1.2643 -2.9475
 5498TIP3    H216459   6.562   5.083   2.064  0.4819  0.8539  0.9664
 5499TIP3   OH216460   1.059   5.750   0.834  0.2826  0.1021 -0.5051
 5499TIP3    H116461   1.078   5.827   0.782  1.4265  0.1372 -0.0752
 5499TIP3    H216462   0.993   5.702   0.784 -0.4492  1.3417 -0.7706
 5500TIP3   OH216463   0.347   0.937   3.942 -0.2540  0.1066 -0.6275
 5500TIP3    H116464   0.340   0.960   3.850  0.9503  1.5867 -0.3876
 5500TIP3    H216465   0.295   1.003   3.988 -1.6111 -1.1595 -0.2685
 5501TIP3   OH216466   6.825   3.891   1.272  0.4617 -0.4578 -0.3276
 5501TIP3    H116467   6.743   3.938   1.285  0.2825 -0.9057  0.2017
 5501TIP3    H216468   6.831   3.831   1.347  0.1310 -2.1048 -1.5720
 5502TIP3   OH216469   2.318   4.322   4.063 -0.6177  0.7889  0.1732
 5502TIP3    H116470   2.308   4.241   4.012 -0.3164  1.2601 -0.6524
 5502TIP3    H216471   2.332   4.390   3.997 -1.3970  1.6033  0.8318
 5503TIP3   OH216472   2.442   4.330   2.869 -0.4794  0.1507  0.3826
 5503TIP3    H116473   2.432   4.261   2.804 -0.2182  0.6709 -0.2244
 5503TIP3    H216474   2.355   4.370   2.876 -0.8466 -0.7711  1.3660
 5504TIP3   OH216475   5.336   3.997   2.864 -0.0604  0.3748 -0.0889
 5504TIP3    H116476   5.418   3.951   2.849 -0.5565 -0.2231 -1.0249
 5504TIP3    H216477   5.284   3.981   2.785 -1.2909  0.2700  0.7068
 5505TIP3   OH216478   4.495   2.503   3.763  0.3105  0.1010  0.2633
 5505TIP3    H116479   4.509   2.479   3.854  1.0216 -0.5332 -0.0059
 5505TIP3    H216480   4.561   2.455   3.714  0.3314  0.8998 -0.5348
 5506TIP3   OH216481   6.845   6.026   5.661 -0.6914  0.0897 -0.0975
 5506TIP3    H116482   6.900   5.955   5.627 -0.0465  0.3555  0.3586
 5506TIP3    H216483   6.890   6.054   5.741 -1.8958 -0.1911  0.7131
 5507TIP3   OH216484   4.386   3.406   4.309 -0.0235  0.4978  0.0518
 5507TIP3    H116485   4.435   3.401   4.391 -1.5017 -0.0336  0.9422
 5507TIP3    H216486   4.427   3.478   4.261  1.2073  0.4773  1.0175
 5508TIP3   OH216487   5.962   5.577   0.425 -0.4417  0.7316 -0.8826
 5508TIP3    H116488   5.889   5.626   0.388 -2.6987  0.4730  2.6975
 5508TIP3    H216489   6.026   5.644   0.450 -0.8658  1.2760 -1.2503
 5509TIP3   OH216490   4.740   0.626   0.691 -0.3824 -0.0719 -0.3445
 5509TIP3    H116491   4.751   0.713   0.652  1.5526 -0.7178 -1.3739
 5509TIP3    H216492   4.759   0.639   0.784 -1.8971  0.9149 -0.1472
 5510TIP3   OH216493   2.050   0.394   4.680 -0.3057 -0.0142 -0.9171
 5510TIP3    H116494   2.123   0.362   4.626 -0.3873 -0.0872 -0.9835
 5510TIP3    H216495   1.990   0.319   4.686  0.3305 -0.4708  0.3881
 5511TIP3   OH216496  -0.016   2.111   3.893 -0.2278 -0.0197 -0.2624
 5511TIP3    H116497  -0.017   2.059   3.813 -1.6261 -0.4417  0.0016
 5511TIP3    H216498   0.049   2.069   3.949 -1.1177 -1.3260 -0.1764
 5512TIP3   OH216499   5.745   4.448   0.608  0.2669  0.1466  0.0523
 5512TIP3    H116500   5.795   4.389   0.664 -0.8330 -0.5174  0.3736
 5512TIP3    H216501   5.654   4.427   0.627 -0.1502 -0.1798 -2.0845
 5513TIP3   OH216502   3.956   6.187   1.890  0.5521  0.0702  0.9547
 5513TIP3    H116503   3.975   6.236   1.811  0.1247 -0.7013  0.3648
 5513TIP3    H216504   3.921   6.252   1.951 -0.6263  0.3871 -0.0388
 5514TIP3   OH216505   0.749   0.737   1.201  0.6221  0.1915  0.0002
 5514TIP3    H116506   0.776   0.712   1.289 -0.6065  0.7237  0.5647
 5514TIP3    H216507   0.746   0.833   1.203  1.2306  0.2401 -0.8327
 5515TIP3   OH216508   4.398   2.783   5.434 -0.4364 -0.5432  0.5423
 5515TIP3    H116509   4.323   2.802   5.377 -0.4758  0.6562  0.9620
 5515TIP3    H216510   4.459   2.736   5.378 -1.7554 -2.1658  0.3629
 5516TIP3   OH216511   0.589   1.696   0.108 -0.1446 -0.4694  0.0243
 5516TIP3    H116512   0.581   1.602   0.094  1.0316 -0.7618  1.1088
 5516TIP3    H216513   0.505   1.732   0.080 -1.7719 -2.1835  2.3083
 5517TIP3   OH216514   1.414   5.090   0.990 -0.0152  0.0208 -0.3755
 5517TIP3    H116515   1.367   5.020   0.946 -2.1649  1.5023 -0.6072
 5517TIP3    H216516   1.346   5.142   1.033  1.5226  1.6532  0.2615
 5518TIP3   OH216517   5.659   6.549   2.596  0.0155 -0.1058 -0.3397
 5518TIP3    H116518   5.582   6.601   2.575 -0.4567 -1.4119 -2.0494
 5518TIP3    H216519   5.625   6.469   2.636  0.5499 -0.2445 -0.1480
 5519TIP3   OH216520   5.759   5.128   5.846 -0.2908  0.2692 -0.1755
 5519TIP3    H116521   5.731   5.060   5.907  0.7301 -1.8097 -1.8530
 5519TIP3    H216522   5.852   5.139   5.864 -0.3057  0.7429 -0.3723
 5520TIP3   OH216523   1.119   1.681   0.539 -0.3378  0.3622  0.3060
 5520TIP3    H116524   1.209   1.690   0.570 -0.5329  2.2483  0.4219
 5520TIP3    H216525   1.078   1.621   0.601  0.5327  0.3859  0.9184
 5521TIP3   OH216526   1.007   0.424   2.786 -0.2307 -0.2891  0.2935
 5521TIP3    H116527   1.091   0.379   2.773 -0.4733 -0.5173 -0.5486
 5521TIP3    H216528   1.024   0.515   2.762 -0.3533 -0.4455 -0.3990
 5522TIP3   OH216529   3.364   1.089   5.699 -0.5012 -0.0535 -0.3768
 5522TIP3    H116530   3.330   1.177   5.681 -0.8022 -0.4138 -1.6307
 5522TIP3    H216531   3.459   1.098   5.693 -0.5631 -0.0130 -1.5644
 5523TIP3   OH216532   0.020   0.836   4.055 -0.1864  0.0053 -0.0286
 5523TIP3    H116533   0.078   0.840   3.979 -2.1255 -0.9401 -1.6605
 5523TIP3    H216534  -0.066   0.813   4.019 -1.4729  0.7148  2.3285
 5524TIP3   OH216535   5.006   2.602   0.059 -0.2116  0.4665  0.0592
 5524TIP3    H116536   5.006   2.556  -0.024 -0.9645  0.2719  0.1661
 5524TIP3    H216537   5.073   2.557   0.111 -1.4437 -1.0233  0.4355
 5525TIP3   OH216538   6.781   1.165   2.978 -0.0658 -0.2729 -0.1158
 5525TIP3    H116539   6.686   1.168   2.965 -0.2372  1.2210  1.0884
 5525TIP3    H216540   6.817   1.150   2.891 -1.3777  0.3508 -0.8035
 5526TIP3   OH216541   0.460   6.516   5.183  0.2031  0.1864  0.5399
 5526TIP3    H116542   0.380   6.529   5.132  1.5777  1.3368 -1.4501
 5526TIP3    H216543   0.478   6.422   5.175 -1.7469 -0.4292  2.3930
 5527TIP3   OH216544   5.738   4.797   5.252  0.0191 -0.4823  0.5914
 5527TIP3    H116545   5.718   4.765   5.164  0.3370  1.2067 -0.1267
 5527TIP3    H216546   5.657   4.782   5.301  0.3078 -2.8269  0.4808
 5528TIP3   OH216547   0.279   0.494   5.410 -0.3361  0.4456 -0.2253
 5528TIP3    H116548   0.293   0.479   5.317  1.3311  3.1721 -0.5246
 5528TIP3    H216549   0.242   0.582   5.415  2.5371  1.6634  1.7684
 5529TIP3   OH216550   4.926   4.638   4.317  0.3472  0.3809  0.0156
 5529TIP3    H116551   4.855   4.618   4.379  1.4562 -0.3656  1.0935
 5529TIP3    H216552   4.955   4.726   4.341 -0.1488  0.6483 -0.3620
 5530TIP3   OH216553   6.390   4.598   4.341 -0.7678  0.7617  0.0636
 5530TIP3    H116554   6.471   4.649   4.334 -0.6376  0.6756  0.8667
 5530TIP3    H216555   6.419   4.512   4.370 -1.1206  0.6239  0.0090
 5531TIP3   OH216556   6.045   5.565   5.233 -0.6127 -0.1696  0.1688
 5531TIP3    H116557   6.048   5.503   5.160 -0.0885 -1.2869  1.0980
 5531TIP3    H216558   6.136   5.592   5.245 -0.9644  1.7012 -0.9341
 5532TIP3   OH216559   3.943   0.797   1.431  0.6755 -0.1727  0.3300
 5532TIP3    H116560   3.883   0.838   1.368  0.4742  1.0621  1.3006
 5532TIP3    H216561   4.025   0.845   1.421  0.9998 -0.7334  0.2179
 5533TIP3   OH216562   5.138   1.790   2.347 -0.0495  0.2882 -0.5749
 5533TIP3    H116563   5.074   1.738   2.395 -1.1609  0.0816 -2.1857
 5533TIP3    H216564   5.109   1.881   2.359  1.2771  0.5034  1.3595
 5534TIP3   OH216565   6.983   2.848   1.866  0.3746  0.0441  0.0975
 5534TIP3    H116566   6.941   2.809   1.943 -0.5666  0.5478 -0.1434
 5534TIP3    H216567   6.934   2.811   1.792  1.8874 -1.1997 -0.3415
 5535TIP3   OH216568   7.206   3.493   2.629  0.3080  0.2617 -0.3756
 5535TIP3    H116569   7.189   3.473   2.537 -0.7783  1.4929 -0.4782
 5535TIP3    H216570   7.146   3.565   2.649  0.7995  0.2689  1.1944
 5536TIP3   OH216571   4.643   4.663   1.265  0.1122 -0.0559 -0.7253
 5536TIP3    H116572   4.554   4.681   1.296  0.3020  0.9494 -0.7113
 5536TIP3    H216573   4.646   4.703   1.178  0.3889 -0.5736 -0.9594
 5537TIP3   OH216574   6.123   0.310   2.664 -0.3893 -0.0462 -0.3443
 5537TIP3    H116575   6.029   0.304   2.681 -0.4309 -0.2671 -0.6396
 5537TIP3    H216576   6.159   0.228   2.700 -0.1553  0.5027  0.7201
 5538TIP3   OH216577   6.744   6.059   1.059  0.1987 -0.4254 -0.1774
 5538TIP3    H116578   6.660   6.047   1.015 -0.3860  1.2276  0.3823
 5538TIP3    H216579   6.721   6.078   1.150  0.7653  4.2042 -0.7331
 5539TIP3   OH216580   6.663   1.606   3.977 -0.1179 -0.3062  0.5725
 5539TIP3    H116581   6.649   1.612   4.071 -1.1919 -0.7673  0.4483
 5539TIP3    H216582   6.711   1.524   3.965 -0.7932 -0.7146  0.6369
 5540TIP3   OH216583   2.985   5.422   4.108 -0.3503  0.0765  0.2092
 5540TIP3    H116584   3.016   5.367   4.036 -0.7029  0.2851 -0.1064
 5540TIP3    H216585   2.951   5.500   4.065 -2.3772 -0.6215  0.4496
 5541TIP3   OH216586   1.216   5.981   4.408 -0.0976 -0.4187  0.8348
 5541TIP3    H116587   1.166   6.063   4.409  0.5112  0.0950 -1.9920
 5541TIP3    H216588   1.152   5.913   4.389 -0.1207 -0.0781 -0.3932
 5542TIP3   OH216589   4.740   0.844   0.083  0.1286  0.3331  0.1242
 5542TIP3    H116590   4.813   0.904   0.097  0.5573  0.4032 -2.0780
 5542TIP3    H216591   4.663   0.892   0.115  0.7275  1.2238  0.2486
 5543TIP3   OH216592   5.871   0.557   0.137  0.2061 -0.3897 -0.5726
 5543TIP3    H116593   5.876   0.478   0.084 -1.2914 -0.7206 -0.2784
 5543TIP3    H216594   5.812   0.534   0.209  0.2821  0.7835 -0.1173
 5544TIP3   OH216595   6.506   4.881   2.592 -0.2116  0.5374  0.1275
 5544TIP3    H116596   6.566   4.879   2.667  0.7682  1.1569 -0.6094
 5544TIP3    H216597   6.439   4.945   2.616  1.0876  2.1092 -0.2026
 5545TIP3   OH216598   3.324   0.385   2.894  0.0389  0.6358 -0.3666
 5545TIP3    H116599   3.273   0.336   2.958  0.5385 -0.1406 -0.5496
 5545TIP3    H216600   3.402   0.414   2.942 -0.9662  2.6350  0.1759
 5546TIP3   OH216601   5.215   3.849   1.354 -0.2179  0.4281  0.7675
 5546TIP3    H116602   5.288   3.893   1.310  0.8050 -2.6625 -0.9106
 5546TIP3    H216603   5.253   3.815   1.435 -1.0310  2.5210  2.1101
 5547TIP3   OH216604   0.709   0.496   5.541  0.2489 -0.0906 -0.0506
 5547TIP3    H116605   0.737   0.476   5.452 -1.2910  0.6260 -0.7429
 5547TIP3    H216606   0.757   0.434   5.596  0.3047 -1.4005 -1.4948
 5548TIP3   OH216607   1.458   5.320   2.951 -0.2233 -0.0892  0.1620
 5548TIP3    H116608   1.404   5.366   2.887  1.2044  0.4657 -0.6723
 5548TIP3    H216609   1.525   5.276   2.899 -0.5450 -1.7744  1.0774
 5549TIP3   OH216610   6.682   3.128   0.797 -0.0029  0.2615  0.2425
 5549TIP3    H116611   6.643   3.166   0.876  3.1724  0.9635  1.6412
 5549TIP3    H216612   6.687   3.034   0.816 -0.3527  0.2646  0.3536
 5550TIP3   OH216613   3.629   3.378   2.021 -0.6436  0.0872  0.6584
 5550TIP3    H116614   3.631   3.454   1.963 -1.7875 -1.9692 -2.3387
 5550TIP3    H216615   3.556   3.395   2.081 -0.3446  1.6715  0.5995
 5551TIP3   OH216616   4.088   6.563   2.941 -0.1958 -0.8748 -0.4494
 5551TIP3    H116617   4.086   6.469   2.920 -2.3283 -1.1253  0.5785
 5551TIP3    H216618   4.181   6.585   2.942  0.3621 -2.9405 -0.8915
 5552TIP3   OH216619   7.009   1.165   5.057 -1.1337 -0.2708 -0.5047
 5552TIP3    H116620   7.004   1.070   5.052  0.9795 -0.5318  1.1840
 5552TIP3    H216621   6.963   1.188   5.138 -0.6084  0.0172 -0.2835
 5553TIP3   OH216622   4.580   4.685   2.026  0.2610  0.2252  0.0799
 5553TIP3    H116623   4.549   4.605   2.066 -1.4061  1.4761  1.4461
 5553TIP3    H216624   4.527   4.694   1.946  1.0703 -0.4490 -0.5488
 5554TIP3   OH216625   6.186   2.096   0.155  0.2613  0.6089  0.0646
 5554TIP3    H116626   6.250   2.049   0.101 -0.8337  0.6510 -1.3255
 5554TIP3    H216627   6.235   2.120   0.234  0.8941 -2.8872  0.9020
 5555TIP3   OH216628   6.721   4.471   1.644 -0.2613  0.3926  0.1342
 5555TIP3    H116629   6.771   4.392   1.627 -0.7393  0.2042 -0.4363
 5555TIP3    H216630   6.782   4.530   1.689 -0.2780 -0.8015  1.8393
 5556TIP3   OH216631   5.123   5.436   1.250 -0.1303 -0.4580  0.0090
 5556TIP3    H116632   5.086   5.426   1.162  0.0118 -1.8343  0.0887
 5556TIP3    H216633   5.212   5.404   1.242  0.7207  1.6992  0.1131
 5557TIP3   OH216634   1.648   5.838   2.447  0.3996 -0.4725 -0.3161
 5557TIP3    H116635   1.713   5.840   2.517 -0.7889  0.8915  0.8269
 5557TIP3    H216636   1.694   5.874   2.371  1.2255 -0.3463  0.2315
 5558TIP3   OH216637   3.403   5.758   2.753  0.0372 -0.0235 -0.1014
 5558TIP3    H116638   3.460   5.762   2.830  0.5409  0.3230 -0.4787
 5558TIP3    H216639   3.411   5.668   2.722  1.5422  0.3840 -0.9900
 5559TIP3   OH216640   6.481   0.991   0.499  0.1455 -0.1236  0.2752
 5559TIP3    H116641   6.493   0.994   0.594  0.3645  1.2082  0.2254
 5559TIP3    H216642   6.393   0.955   0.487  0.5633 -1.4249  0.9249
 5560TIP3   OH216643   2.303   1.997   1.749  0.4242 -0.0067 -0.0565
 5560TIP3    H116644   2.359   2.032   1.818  0.0756  1.0600 -0.2947
 5560TIP3    H216645   2.230   1.957   1.795  0.4884  0.1778  0.2086
 5561TIP3   OH216646   4.779   1.487   3.844 -0.2825 -0.2167  0.1435
 5561TIP3    H116647   4.843   1.469   3.913 -0.5561  1.5854  0.9173
 5561TIP3    H216648   4.695   1.460   3.882 -0.2284 -0.9113 -0.2020
 5562TIP3   OH216649   4.889   2.880   2.230  0.1688  0.0577  0.0539
 5562TIP3    H116650   4.800   2.845   2.235 -0.6371  1.6993 -1.4959
 5562TIP3    H216651   4.884   2.965   2.273  0.7124  0.6260 -0.9651
 5563TIP3   OH216652   1.840   5.755   4.314  0.2052  0.3200 -0.5250
 5563TIP3    H116653   1.755   5.746   4.356  0.7353 -0.4701  0.4140
 5563TIP3    H216654   1.860   5.849   4.320 -0.9699  0.6678 -1.5471
 5564TIP3   OH216655   6.966   6.224   4.011 -0.0749 -0.0927 -0.1834
 5564TIP3    H116656   7.052   6.193   4.041  0.4733 -0.0499 -1.6246
 5564TIP3    H216657   6.923   6.146   3.977  0.6965  0.3542 -2.3888
 5565TIP3   OH216658   1.068   1.041   4.257 -0.3657 -0.6154  0.0369
 5565TIP3    H116659   0.974   1.056   4.248 -0.2713  0.0473  0.1140
 5565TIP3    H216660   1.101   1.041   4.167 -0.5211 -1.4488 -0.0289
 5566TIP3   OH216661   2.367   4.577   1.706 -0.4190  0.7467 -0.2973
 5566TIP3    H116662   2.308   4.540   1.641  0.4885  1.1126 -1.3513
 5566TIP3    H216663   2.387   4.504   1.765 -0.6850  0.2379 -0.8290
 5567TIP3   OH216664   2.021   4.154   5.777 -0.2001 -0.2663  0.1827
 5567TIP3    H116665   2.109   4.167   5.813 -0.4580  3.5438 -0.1647
 5567TIP3    H216666   1.962   4.180   5.849 -0.9260  0.0386 -0.5095
 5568TIP3   OH216667   2.148   3.575   1.615 -0.3268  0.0291  0.1237
 5568TIP3    H116668   2.173   3.572   1.523 -0.4647 -3.1186  0.0596
 5568TIP3    H216669   2.054   3.589   1.614 -0.4217 -0.5936 -0.2658
 5569TIP3   OH216670   4.971   1.759   2.800  0.1738  0.0014 -0.1895
 5569TIP3    H116671   5.027   1.789   2.872  0.2181 -0.5998  0.0392
 5569TIP3    H216672   5.031   1.715   2.740 -0.1334 -1.4081  0.4726
 5570TIP3   OH216673   4.228   5.696   0.855  0.3042  0.2523  0.1571
 5570TIP3    H116674   4.194   5.734   0.936  0.0900 -0.4749  0.4151
 5570TIP3    H216675   4.316   5.667   0.877  0.6865  1.1141 -0.2019
 5571TIP3   OH216676   6.459   3.965   4.383  0.2209 -0.0708 -0.0475
 5571TIP3    H116677   6.548   3.979   4.349  0.7255  1.8846  1.8689
 5571TIP3    H216678   6.468   3.973   4.478 -2.0946  0.7435  0.1556
 5572TIP3   OH216679   6.284   2.256   1.956 -0.3312  0.4793  0.0408
 5572TIP3    H116680   6.369   2.239   1.998 -0.5982 -1.8695 -0.2411
 5572TIP3    H216681   6.223   2.265   2.029 -0.0364  1.0039  0.2267
 5573TIP3   OH216682   5.212   5.201   0.710 -0.3286 -0.4752  0.2013
 5573TIP3    H116683   5.120   5.182   0.689 -0.9431  0.9166  1.4449
 5573TIP3    H216684   5.224   5.292   0.685 -0.0167  0.0968  2.2608
 5574TIP3   OH216685   3.665   0.585   1.050  0.2148  0.2386 -0.1928
 5574TIP3    H116686   3.734   0.526   1.080  0.7788  0.5829 -0.7949
 5574TIP3    H216687   3.607   0.530   0.998  0.8931  0.2667 -0.9886
 5575TIP3   OH216688   5.327   1.386   2.577  0.5234  0.0484 -0.3932
 5575TIP3    H116689   5.361   1.377   2.488  0.6099  0.0267 -0.3583
 5575TIP3    H216690   5.406   1.391   2.632  0.4800  0.9562 -0.4078
 5576TIP3   OH216691   6.346   6.172   0.042 -0.0558 -0.5787 -0.4662
 5576TIP3    H116692   6.311   6.143  -0.041  1.0316 -0.8700 -0.8462
 5576TIP3    H216693   6.384   6.093   0.081 -0.5253 -0.4377  0.2904
 5577TIP3   OH216694   6.823   4.008   3.286 -0.5737 -0.3119  0.2299
 5577TIP3    H116695   6.896   3.951   3.264 -0.5273 -0.4832  0.8059
 5577TIP3    H216696   6.813   4.065   3.210  2.1185  1.7623  1.2726
 5578TIP3   OH216697   3.496   6.823   4.563 -0.8293  0.1232  0.1432
 5578TIP3    H116698   3.417   6.799   4.612 -0.5605 -0.4365  0.3133
 5578TIP3    H216699   3.536   6.739   4.540  0.2049  0.4135  0.8472
 5579TIP3   OH216700   1.446   3.401   4.180 -0.1461 -0.7502 -0.4461
 5579TIP3    H116701   1.465   3.322   4.231  0.5518  0.1447  0.7281
 5579TIP3    H216702   1.440   3.370   4.089  0.3923 -2.0994 -0.0452
 5580TIP3   OH216703   2.697   5.848   0.911 -0.3172 -0.3375 -0.0607
 5580TIP3    H116704   2.674   5.940   0.924  0.3997 -0.4134  2.1107
 5580TIP3    H216705   2.755   5.849   0.835 -0.4678  0.9656 -0.1960
 5581TIP3   OH216706   7.123   3.442   3.768  0.0705 -0.3016  0.3543
 5581TIP3    H116707   7.083   3.529   3.777  0.4585 -0.0172 -0.5534
 5581TIP3    H216708   7.084   3.391   3.839  0.3179  0.7837  1.3206
 5582TIP3   OH216709   0.759   0.367   4.094 -0.2810 -0.1362  0.1565
 5582TIP3    H116710   0.668   0.349   4.069 -0.4128  0.9985 -0.2605
 5582TIP3    H216711   0.811   0.310   4.037 -0.6966  0.2516 -0.6332
 5583TIP3   OH216712   1.593   3.286   5.199  0.3029 -0.1664 -0.1827
 5583TIP3    H116713   1.556   3.296   5.111 -1.6076 -0.8597  0.4686
 5583TIP3    H216714   1.571   3.196   5.223 -0.7183  0.5093  1.6179
 5584TIP3   OH216715   4.685   1.880   3.427  0.0762 -0.0888 -0.0719
 5584TIP3    H116716   4.762   1.935   3.411 -0.9906  1.3213 -0.5809
 5584TIP3    H216717   4.615   1.924   3.379 -1.0367 -1.3840  0.3301
 5585TIP3   OH216718   4.180   0.854   1.296  0.1443  0.3817 -0.2206
 5585TIP3    H116719   4.120   0.888   1.229  0.5294  0.8164 -0.3447
 5585TIP3    H216720   4.260   0.833   1.249  0.1268 -0.1254 -0.0379
 5586TIP3   OH216721   6.694   2.187   5.213 -0.2922  0.7149  0.0062
 5586TIP3    H116722   6.614   2.181   5.266 -0.5788 -1.9178 -0.5894
 5586TIP3    H216723   6.764   2.162   5.274 -0.2135  0.7881 -0.0543
 5587TIP3   OH216724   1.258   6.721   3.311  0.0304 -0.2911  0.7207
 5587TIP3    H116725   1.168   6.699   3.287 -0.5128 -0.8879  3.0795
 5587TIP3    H216726   1.299   6.638   3.332  0.5736  0.1318  1.3879
 5588TIP3   OH216727   1.727   1.083   3.676  0.4050 -0.0583  0.8777
 5588TIP3    H116728   1.640   1.123   3.688  0.6759  1.1650 -0.8195
 5588TIP3    H216729   1.725   1.005   3.731 -1.6884  0.0794  1.0969
 5589TIP3   OH216730   7.081   1.387   4.885  0.2606 -0.0413  0.1750
 5589TIP3    H116731   7.069   1.339   4.803 -3.0964  1.7980 -0.5876
 5589TIP3    H216732   7.041   1.331   4.952  1.1386 -0.6105  0.2399
 5590TIP3   OH216733   1.742   4.367   5.662 -0.4294  0.1068  0.1264
 5590TIP3    H116734   1.721   4.359   5.569 -0.8884  0.9400  0.1451
 5590TIP3    H216735   1.788   4.286   5.683 -1.2310 -0.5631 -0.5822
 5591TIP3   OH216736   2.501   0.083   3.022 -0.0380  0.1493  0.1092
 5591TIP3    H116737   2.544   0.022   2.962 -0.2664  0.8285 -0.7711
 5591TIP3    H216738   2.456   0.145   2.965 -1.7488 -0.2091  1.0021
 5592TIP3   OH216739   6.795   5.683   4.964 -0.4445  0.0011 -0.3939
 5592TIP3    H116740   6.814   5.774   4.985 -0.6185 -0.1526  0.4903
 5592TIP3    H216741   6.703   5.672   4.989 -0.6811 -0.1918 -1.3107
 5593TIP3   OH216742   3.384   1.525   0.568  0.4380  0.0562  0.0066
 5593TIP3    H116743   3.339   1.579   0.634  0.2600 -1.8556  1.5633
 5593TIP3    H216744   3.470   1.565   0.559  0.6989  0.0441  1.9145
 5594TIP3   OH216745   0.382   6.705   0.119 -0.6025  0.3362 -0.0934
 5594TIP3    H116746   0.310   6.650   0.087 -1.3472  1.3777 -0.2733
 5594TIP3    H216747   0.342   6.758   0.189  0.5517 -0.6218  1.3405
 5595TIP3   OH216748   5.999   0.760   0.619 -0.3401  0.4756  0.3708
 5595TIP3    H116749   6.063   0.697   0.585  0.0943  0.8576  0.4723
 5595TIP3    H216750   6.010   0.756   0.714  0.5460  1.5749  0.3375
 5596TIP3   OH216751   5.672   6.366   2.274 -0.3928  0.2265 -0.2078
 5596TIP3    H116752   5.730   6.350   2.199 -1.4690  0.1334 -1.0423
 5596TIP3    H216753   5.703   6.449   2.311 -0.3943  0.7332 -1.3002
 5597TIP3   OH216754   7.240   0.773   2.929 -0.3701  0.3182 -0.2219
 5597TIP3    H116755   7.188   0.742   3.003 -2.0271  0.3345 -1.3292
 5597TIP3    H216756   7.203   0.729   2.853 -0.1034  1.8838 -1.3205
 5598TIP3   OH216757   0.713   4.082   4.966  0.0464 -0.2317 -0.7131
 5598TIP3    H116758   0.624   4.049   4.974 -0.3220  1.1289  1.6619
 5598TIP3    H216759   0.768   4.011   4.999 -0.0737 -1.1997 -2.4863
 5599TIP3   OH216760   2.112   3.450   5.858  0.2873  0.0279  0.1714
 5599TIP3    H116761   2.066   3.456   5.774 -0.4598  1.6279  0.6560
 5599TIP3    H216762   2.205   3.458   5.834  0.1180 -0.0780 -0.5460
 5600TIP3   OH216763   6.024   3.709   4.749  0.2570 -1.0937  0.5249
 5600TIP3    H116764   5.931   3.693   4.734  0.0501 -1.1989  1.7957
 5600TIP3    H216765   6.027   3.757   4.832  1.2262  0.6401 -0.4542
 5601TIP3   OH216766   3.780   4.513   1.295 -0.1427 -0.5419  0.4771
 5601TIP3    H116767   3.766   4.451   1.223 -0.3027 -0.4890  0.4623
 5601TIP3    H216768   3.871   4.541   1.285 -0.6745  0.8361 -0.7901
 5602TIP3   OH216769   5.434   4.604   2.616 -0.2491 -0.2154 -0.4345
 5602TIP3    H116770   5.458   4.537   2.553 -0.8300 -0.4086 -0.4548
 5602TIP3    H216771   5.338   4.610   2.610 -0.6095 -1.8139  1.9508
 5603TIP3   OH216772   0.143   5.773   4.962 -0.4214 -0.1054 -0.2884
 5603TIP3    H116773   0.229   5.777   4.922  0.0139  1.1465  0.7213
 5603TIP3    H216774   0.083   5.756   4.889  0.3240  2.2311 -1.5092
 5604TIP3   OH216775   6.699   0.653   5.113  0.0362  0.5912  0.4655
 5604TIP3    H116776   6.667   0.617   5.195  1.1005 -0.6909  0.3591
 5604TIP3    H216777   6.708   0.577   5.056  1.9562  1.0548  0.0776
 5605TIP3   OH216778   5.027   6.560   3.166 -0.2518 -0.0168  0.3714
 5605TIP3    H116779   5.026   6.547   3.261 -2.0969 -0.3783  0.3472
 5605TIP3    H216780   4.937   6.586   3.145 -0.0481 -0.6019 -1.3617
 5606TIP3   OH216781   6.472   5.208   3.837 -0.1486  0.4243  0.1703
 5606TIP3    H116782   6.441   5.137   3.892  0.3533  0.9685  1.1861
 5606TIP3    H216783   6.558   5.231   3.874  0.3212  0.6352 -1.0007
 5607TIP3   OH216784   4.026   1.115   3.197  0.3043  0.5018 -0.9318
 5607TIP3    H116785   4.058   1.060   3.125 -0.2725 -1.7528  0.4451
 5607TIP3    H216786   3.944   1.152   3.164 -0.4053 -1.1978 -1.1746
 5608TIP3   OH216787   3.765   2.763   0.699  0.3853 -0.3214 -0.1143
 5608TIP3    H116788   3.703   2.706   0.654 -0.2181  0.9247 -0.9235
 5608TIP3    H216789   3.792   2.713   0.776 -0.8320 -1.3123 -0.3030
 5609TIP3   OH216790   5.672   0.130   0.904 -0.0057 -0.4086  0.2786
 5609TIP3    H116791   5.627   0.120   0.988 -0.6136  0.1148  0.0242
 5609TIP3    H216792   5.672   0.224   0.888  1.2212 -0.3945  0.2779
 5610TIP3   OH216793   1.826   6.267   0.315 -0.4589  0.4103 -0.2390
 5610TIP3    H116794   1.774   6.320   0.255  1.8269  1.4379 -1.4478
 5610TIP3    H216795   1.785   6.181   0.314 -0.9741  0.6203 -2.6808
 5611TIP3   OH216796  -0.006   2.874   3.046 -0.3742 -0.1111 -0.3084
 5611TIP3    H116797   0.024   2.873   3.137 -0.8128 -0.5000 -0.1619
 5611TIP3    H216798   0.069   2.906   2.996  0.0301 -0.3525  0.1334
 5612TIP3   OH216799   6.218   3.801   0.793 -0.4017 -0.1753 -0.5985
 5612TIP3    H116800   6.276   3.821   0.720 -0.7879  1.7499 -0.4461
 5612TIP3    H216801   6.258   3.844   0.869 -1.8827  1.0858 -0.4654
 5613TIP3   OH216802   6.714   6.416   3.031  0.2560 -0.1984 -0.2558
 5613TIP3    H116803   6.708   6.495   3.085 -0.9348 -0.0918 -0.5190
 5613TIP3    H216804   6.752   6.446   2.949  0.5444 -0.0540 -0.0711
 5614TIP3   OH216805   4.169   0.626   4.106  0.0694 -0.2912  0.4331
 5614TIP3    H116806   4.163   0.536   4.138  0.3010 -0.2671  0.5476
 5614TIP3    H216807   4.181   0.618   4.012  0.1854 -0.3828  0.4552
 5615TIP3   OH216808   4.109   2.137   2.250 -0.6661  0.3003 -0.0582
 5615TIP3    H116809   4.053   2.109   2.177 -0.6904 -0.6395  0.3168
 5615TIP3    H216810   4.139   2.056   2.291  0.7637  0.7800 -0.0757
 5616TIP3   OH216811   0.963   6.547   2.363 -0.1015  0.6833 -0.1424
 5616TIP3    H116812   0.970   6.592   2.448  0.4503  1.4773 -0.5878
 5616TIP3    H216813   1.053   6.536   2.335 -0.2544 -0.3150 -0.2619
 5617TIP3   OH216814   6.862   0.303   2.675  0.8038  0.1294  0.3311
 5617TIP3    H116815   6.864   0.358   2.597 -0.5870  0.3211  0.4021
 5617TIP3    H216816   6.803   0.348   2.735 -0.1624 -1.2836  0.5017
 5618TIP3   OH216817   3.733   5.853   0.267  0.2398 -0.0838  0.0685
 5618TIP3    H116818   3.733   5.761   0.293  0.0036 -0.2971 -0.6602
 5618TIP3    H216819   3.661   5.892   0.316 -0.5064 -0.5858 -0.6114
 5619TIP3   OH216820   0.710   0.411   3.181 -0.4790 -0.4370 -0.1277
 5619TIP3    H116821   0.620   0.441   3.171 -0.7160 -0.7329  1.0213
 5619TIP3    H216822   0.763   0.485   3.152 -1.0744  0.5363  1.1571
 5620TIP3   OH216823   0.915   2.765   0.283 -0.1766 -0.5463 -0.0703
 5620TIP3    H116824   0.834   2.718   0.265 -0.5548  0.3634 -0.8090
 5620TIP3    H216825   0.979   2.727   0.223  0.2290 -1.9298  1.1675
 5621TIP3   OH216826   5.351   5.010   1.336 -0.3713 -0.2729 -0.6142
 5621TIP3    H116827   5.420   4.951   1.304 -0.8279 -1.6661  0.8245
 5621TIP3    H216828   5.317   4.966   1.414 -0.5289  2.0848  0.7334
 5622TIP3   OH216829   0.629   3.834   0.523  0.0926  0.2766  0.2357
 5622TIP3    H116830   0.622   3.842   0.618  0.4026 -1.1403  0.4030
 5622TIP3    H216831   0.548   3.791   0.496 -0.8270  2.2821 -0.4057
 5623TIP3   OH216832   4.333   4.974   2.794  0.2494  0.2679  0.1139
 5623TIP3    H116833   4.348   5.026   2.715 -1.8737  0.2648 -0.3433
 5623TIP3    H216834   4.287   4.896   2.764 -1.6567  0.7929  1.4130
 5624TIP3   OH216835   4.291   2.233   3.207  0.2212 -0.2835  0.4676
 5624TIP3    H116836   4.223   2.280   3.159  1.8404  0.8572 -0.8650
 5624TIP3    H216837   4.351   2.203   3.138  1.6455 -0.2382  1.6425
 5625TIP3   OH216838   7.059   5.943   4.584  0.1040 -0.2430 -0.2275
 5625TIP3    H116839   7.101   5.924   4.501  1.2587 -0.9865  0.5028
 5625TIP3    H216840   7.125   5.989   4.635 -0.3755 -0.3482  0.5104
 5626TIP3   OH216841   6.628   4.065   4.010 -0.6289 -0.0544 -0.4291
 5626TIP3    H116842   6.701   4.047   3.952 -0.7808  4.7070 -2.5484
 5626TIP3    H216843   6.664   4.055   4.098  1.8813 -0.1644 -1.3926
 5627TIP3   OH216844   1.003   2.057   2.363  0.1316 -0.5370  0.0917
 5627TIP3    H116845   1.036   2.023   2.446  1.0917 -1.1283 -0.5026
 5627TIP3    H216846   1.078   2.050   2.303 -0.7689 -0.9242 -1.0427
 5628TIP3   OH216847   4.611   5.843   5.380  0.2855  0.0574  0.0241
 5628TIP3    H116848   4.564   5.926   5.375  0.6557  0.3702  1.4427
 5628TIP3    H216849   4.703   5.867   5.370  0.3398 -0.2765 -0.3085
 5629TIP3   OH216850   0.799   1.127   1.877 -0.2381  0.4165 -0.4754
 5629TIP3    H116851   0.869   1.189   1.898 -1.2193  0.9918  1.2632
 5629TIP3    H216852   0.832   1.043   1.908 -0.1288  0.6052 -0.0691
 5630TIP3   OH216853   4.177   5.373   1.693  0.0306 -0.1192 -0.2620
 5630TIP3    H116854   4.250   5.421   1.732  0.8817 -0.5107 -1.3244
 5630TIP3    H216855   4.125   5.343   1.768  2.7895 -2.7687  0.8163
 5631TIP3   OH216856   5.636   1.018   4.992 -0.4339 -0.0658  0.1061
 5631TIP3    H116857   5.582   0.954   4.946  0.1933 -0.7438  0.2747
 5631TIP3    H216858   5.718   1.021   4.942 -0.9688  1.7004 -0.7344
 5632TIP3   OH216859   5.446   4.842   2.248  0.8449 -0.3771  0.0857
 5632TIP3    H116860   5.412   4.822   2.335  1.6334  0.6284  0.6532
 5632TIP3    H216861   5.534   4.876   2.264  0.7740  0.3973 -1.0581
 5633TIP3   OH216862   6.636   1.943   5.094  0.4707  0.0143  0.3495
 5633TIP3    H116863   6.646   2.022   5.146  1.7239  1.0498 -1.3543
 5633TIP3    H216864   6.724   1.925   5.061 -0.0166 -1.4258 -0.2542
 5634TIP3   OH216865   4.272   0.712   5.069 -0.2647 -0.5364  0.0714
 5634TIP3    H116866   4.276   0.706   5.165 -0.4352 -0.2474  0.0980
 5634TIP3    H216867   4.330   0.642   5.038 -0.2630 -0.6754  0.3849
 5635TIP3   OH216868   6.509   2.288   5.876 -0.2899  0.3015  0.0112
 5635TIP3    H116869   6.514   2.255   5.786 -0.7248  0.6012 -0.1279
 5635TIP3    H216870   6.429   2.340   5.877 -0.2077  0.4162  0.5360
 5636TIP3   OH216871   1.073   5.075   1.310 -0.3358  0.3454 -0.0125
 5636TIP3    H116872   1.041   5.161   1.282  0.8748  0.3860 -1.3410
 5636TIP3    H216873   1.011   5.013   1.272 -2.1040  0.6278  2.1959
 5637TIP3   OH216874   0.701   0.804   2.165 -0.1470 -0.2995 -0.1574
 5637TIP3    H116875   0.715   0.846   2.250  2.3269  0.9569 -1.0808
 5637TIP3    H216876   0.680   0.713   2.187 -0.8362  0.2768  1.8045
 5638TIP3   OH216877   0.885   4.472   4.422  0.3864  0.7239 -0.4744
 5638TIP3    H116878   0.837   4.463   4.504 -2.9155 -0.4982 -2.3475
 5638TIP3    H216879   0.880   4.566   4.402  0.1961  0.8560  0.1693
 5639TIP3   OH216880   7.204   6.236   3.283  0.1396 -0.3579 -0.2297
 5639TIP3    H116881   7.227   6.287   3.205 -0.1678 -0.9076 -0.6897
 5639TIP3    H216882   7.175   6.302   3.346  0.6889  0.1247 -0.4631
 5640TIP3   OH216883   4.912   3.993   2.688 -0.2629  0.3545  0.0732
 5640TIP3    H116884   4.894   4.049   2.763 -0.8456 -1.7624  1.6119
 5640TIP3    H216885   4.892   4.047   2.612 -1.9577  1.8401  1.4962
 5641TIP3   OH216886   5.711   5.268   1.625 -0.5189  0.0960 -0.4396
 5641TIP3    H116887   5.778   5.313   1.677 -0.1682 -0.3765 -0.4729
 5641TIP3    H216888   5.761   5.218   1.560 -0.9299  0.2113 -0.8524
 5642TIP3   OH216889   6.364   2.271   3.523  0.4018  0.5973 -0.2588
 5642TIP3    H116890   6.414   2.203   3.477  1.6828  1.5526 -0.3132
 5642TIP3    H216891   6.419   2.298   3.596 -1.4065 -0.5465  1.6336
 5643TIP3   OH216892   1.940   4.027   4.396 -0.2262  0.5648  0.6804
 5643TIP3    H116893   1.989   3.961   4.444  0.4699  0.5254 -0.0590
 5643TIP3    H216894   1.851   3.992   4.391  0.3127 -0.7537 -0.4191
 5644TIP3   OH216895   5.140   6.214   1.014 -0.0932 -0.4431  0.2702
 5644TIP3    H116896   5.092   6.190   1.093 -1.2198 -0.1897 -0.3186
 5644TIP3    H216897   5.230   6.228   1.044 -0.4556 -0.5649  1.4628
 5645TIP3   OH216898   0.262   5.571   3.058  0.5194 -0.3443  0.2496
 5645TIP3    H116899   0.307   5.561   3.141  0.0169 -0.9303  0.4635
 5645TIP3    H216900   0.300   5.649   3.018  1.5690 -0.7099  0.5102
 5646TIP3   OH216901   1.503   5.253   5.552 -0.9592 -0.0242 -0.0950
 5646TIP3    H116902   1.534   5.342   5.535 -1.0225 -0.2401 -1.4692
 5646TIP3    H216903   1.408   5.262   5.561 -0.9018  0.1233  0.4135
 5647TIP3   OH216904   6.593   2.640   4.335 -0.3740 -0.5197  0.0720
 5647TIP3    H116905   6.579   2.552   4.370 -0.3195  0.1145  1.7506
 5647TIP3    H216906   6.506   2.679   4.335 -0.3890 -0.5393 -0.6256
 5648TIP3   OH216907   5.271   2.361   0.927 -0.2327 -0.1952 -0.3710
 5648TIP3    H116908   5.302   2.290   0.870  0.6497  0.1607 -0.3495
 5648TIP3    H216909   5.335   2.364   0.998 -0.9577 -0.1941  0.2949
 5649TIP3   OH216910   3.933   4.211   0.394 -0.0691 -0.1471 -0.3118
 5649TIP3    H116911   3.864   4.160   0.351 -0.1325 -0.5857  0.2956
 5649TIP3    H216912   3.906   4.216   0.486  0.2809  0.4064 -0.2320
 5650TIP3   OH216913   1.814   4.501   3.746  0.2750 -0.1400 -0.2453
 5650TIP3    H116914   1.829   4.549   3.827  0.9153  1.9716 -1.5491
 5650TIP3    H216915   1.732   4.453   3.762  0.5138  0.0038  1.7016
 5651TIP3   OH216916   2.978   2.491   1.339 -0.4708 -0.6882  0.1296
 5651TIP3    H116917   2.883   2.502   1.337 -0.6696 -2.0339  0.8711
 5651TIP3    H216918   2.993   2.431   1.412  0.7055 -2.7304 -1.6881
 5652TIP3   OH216919   5.061   6.734   2.019  0.2349 -0.4916  0.2395
 5652TIP3    H116920   5.004   6.711   2.093 -1.0787  0.6070 -0.3923
 5652TIP3    H216921   5.042   6.667   1.953  0.0311 -0.4092  0.2130
 5653TIP3   OH216922   0.335   1.084   2.471  0.0442  0.0681  0.5556
 5653TIP3    H116923   0.292   0.999   2.464 -0.6928  0.4239  0.5934
 5653TIP3    H216924   0.398   1.074   2.542 -0.9167 -0.0894  1.4098
 5654TIP3   OH216925   6.707   4.706   2.339 -0.1335  0.9363 -0.1230
 5654TIP3    H116926   6.738   4.795   2.359  0.9669  0.8242 -1.1976
 5654TIP3    H216927   6.774   4.670   2.281  0.0764 -1.0539  1.2423
 5655TIP3   OH216928   3.018   3.807   1.340 -0.0109  0.1620 -0.4453
 5655TIP3    H116929   3.008   3.870   1.269 -1.7984  0.4824  0.0254
 5655TIP3    H216930   3.057   3.858   1.411  2.6483 -0.3783 -1.4053
 5656TIP3   OH216931   1.054   5.656   2.956  0.0003 -0.1561  0.2635
 5656TIP3    H116932   1.035   5.603   3.034 -0.7177  0.0932  0.2679
 5656TIP3    H216933   1.145   5.635   2.934  0.5399  0.5250  1.7581
 5657TIP3   OH216934   6.624   4.012   1.538  0.4676 -0.3995 -0.6844
 5657TIP3    H116935   6.552   3.951   1.528  1.2523 -1.1509 -1.9483
 5657TIP3    H216936   6.582   4.096   1.557 -0.7016 -0.9149 -0.9182
 5658TIP3   OH216937   6.068   6.754   3.438  0.4405 -0.6112  0.3726
 5658TIP3    H116938   6.062   6.830   3.381  2.0047  0.9216  2.1214
 5658TIP3    H216939   6.161   6.738   3.448  0.2237 -0.9477  2.3136
 5659TIP3   OH216940   3.569   2.157   3.041  0.2870  0.0047  0.8981
 5659TIP3    H116941   3.537   2.124   2.957 -0.2232 -0.0761  1.1166
 5659TIP3    H216942   3.603   2.244   3.021 -0.1934  0.1437  0.6741
 5660TIP3   OH216943   5.705   3.902   4.198  0.1216  0.5298  0.6192
 5660TIP3    H116944   5.792   3.938   4.213 -0.2785  0.7651  2.6608
 5660TIP3    H216945   5.685   3.854   4.278 -0.2038 -2.6169 -1.2068
 5661TIP3   OH216946   6.152   4.035   2.809 -0.3191 -0.5838 -0.1004
 5661TIP3    H116947   6.095   3.958   2.810 -0.0262 -0.8940 -2.1967
 5661TIP3    H216948   6.126   4.084   2.731 -0.9162  1.8362  1.5088
 5662TIP3   OH216949   0.615   0.502   3.770 -0.0607  0.2740  0.1776
 5662TIP3    H116950   0.684   0.484   3.707  0.9705 -0.1795  1.3808
 5662TIP3    H216951   0.601   0.596   3.766  1.5768  0.5742  0.8246
 5663TIP3   OH216952   6.525   5.743   3.613 -0.3647  0.7643  0.2993
 5663TIP3    H116953   6.596   5.745   3.548  0.4971 -3.6760  0.7542
 5663TIP3    H216954   6.451   5.706   3.566  0.1543 -2.1309  1.5356
 5664TIP3   OH216955   5.386   2.860   0.383  0.6713  0.6957  0.3573
 5664TIP3    H116956   5.311   2.804   0.406  1.5335  0.4459  2.9072
 5664TIP3    H216957   5.444   2.803   0.334  0.2901  0.1430  0.5317
 5665TIP3   OH216958   2.262   4.794   0.807 -0.7299 -0.0446 -0.4730
 5665TIP3    H116959   2.210   4.744   0.743  0.2522  0.6755 -1.9000
 5665TIP3    H216960   2.278   4.878   0.764  0.9495  0.0363  0.2335
 5666TIP3   OH216961   0.470   2.357   2.959 -0.1099  0.0851  0.4409
 5666TIP3    H116962   0.495   2.416   3.030 -0.1328  0.4314  0.1646
 5666TIP3    H216963   0.541   2.363   2.896  0.3232 -0.8857  0.8270
 5667TIP3   OH216964   6.359   1.913   5.513 -0.2399  0.3441 -0.4694
 5667TIP3    H116965   6.272   1.936   5.480 -0.6377 -0.3268  0.0837
 5667TIP3    H216966   6.358   1.817   5.517  1.3565  0.1654 -2.6925
 5668TIP3   OH216967   0.371   4.881   2.232 -0.1093  0.8706  0.4975
 5668TIP3    H116968   0.354   4.963   2.186  0.0635  1.3658  1.2830
 5668TIP3    H216969   0.397   4.909   2.320  0.5647 -0.0033  0.5915
 5669TIP3   OH216970   1.437   2.109   4.512  0.3963 -0.2205  0.4677
 5669TIP3    H116971   1.366   2.066   4.559  0.5467 -0.0884  0.8234
 5669TIP3    H216972   1.421   2.089   4.420 -1.0953  1.2390  0.3563
 5670TIP3   OH216973   0.798   2.434   5.269  0.2568  0.4091  0.0233
 5670TIP3    H116974   0.878   2.422   5.217 -0.0659 -0.1746 -0.3423
 5670TIP3    H216975   0.781   2.528   5.264  0.6761  0.4751 -0.2615
 5671TIP3   OH216976   1.231   3.485   4.359  0.4857  0.4655  0.3035
 5671TIP3    H116977   1.264   3.559   4.307 -0.7316  0.7632 -0.0674
 5671TIP3    H216978   1.205   3.420   4.294  0.4066  0.1997  0.5971
 5672TIP3   OH216979   0.192   0.846   2.375  0.6526  0.3358  0.6123
 5672TIP3    H116980   0.114   0.816   2.328  0.2614 -0.0231  1.4735
 5672TIP3    H216981   0.258   0.859   2.307 -0.2895  1.0940 -0.1811
 5673TIP3   OH216982   5.936   2.867   1.985 -0.2671 -0.1004  0.6065
 5673TIP3    H116983   6.008   2.866   1.922 -0.9507  0.3112 -0.2087
 5673TIP3    H216984   5.891   2.950   1.969 -0.8902 -0.3286  1.1313
 5674TIP3   OH216985   7.195   6.077   0.658 -0.2453  0.3685  0.7261
 5674TIP3    H116986   7.148   6.161   0.654 -1.7936 -0.4109  1.5753
 5674TIP3    H216987   7.159   6.026   0.585 -0.3705 -0.0700  1.0918
 5675TIP3   OH216988   5.071   5.505   3.184  0.2442  0.4749  0.3653
 5675TIP3    H116989   5.111   5.567   3.123  1.5651  1.4955  2.1727
 5675TIP3    H216990   4.984   5.489   3.148  0.2411  2.5794 -0.7389
 5676TIP3   OH216991   1.620   4.743   5.510  0.2623  0.1043 -0.0677
 5676TIP3    H116992   1.695   4.774   5.458 -0.4345  0.8853 -0.6239
 5676TIP3    H216993   1.564   4.820   5.520 -0.9733 -0.7191 -0.5265
 5677TIP3   OH216994   0.481   1.811   2.983 -0.2510  0.2198  0.4229
 5677TIP3    H116995   0.558   1.758   3.004 -0.8923 -0.8409  0.1846
 5677TIP3    H216996   0.516   1.892   2.948  0.7639 -0.5156 -0.3240
 5678TIP3   OH216997   6.523   3.529   2.302 -0.3505 -0.0046 -0.3335
 5678TIP3    H116998   6.567   3.553   2.221  1.2831 -0.0606  0.4952
 5678TIP3    H216999   6.549   3.438   2.317  1.2299  0.6898  1.3947
 5679TIP3   OH217000   5.584   4.816   1.111 -0.2149 -0.2808 -0.4997
 5679TIP3    H117001   5.530   4.854   1.042 -0.7531  0.4396  0.3068
 5679TIP3    H217002   5.662   4.872   1.114 -0.2204 -0.2747 -0.4757
 5680TIP3   OH217003   2.479   0.953   3.001  0.3674 -0.1325  0.5717
 5680TIP3    H117004   2.536   1.003   3.059 -0.1076 -0.5137  1.3717
 5680TIP3    H217005   2.518   0.865   2.999  0.8518  0.0825 -0.3522
 5681TIP3   OH217006   6.052   5.897   1.580 -0.2179 -0.9603 -0.0347
 5681TIP3    H117007   6.031   5.979   1.624  0.2224 -0.4901 -0.6958
 5681TIP3    H217008   5.968   5.852   1.573 -0.5575 -0.3164 -0.1740
 5682TIP3   OH217009   5.545   4.081   3.453 -0.4725  0.3465 -0.7140
 5682TIP3    H117010   5.617   4.142   3.467 -0.7059  0.7822 -1.3462
 5682TIP3    H217011   5.583   4.010   3.401 -0.3022  0.1574 -0.3358
 5683TIP3   OH217012   2.280   3.914   1.214  0.0148  0.3947  0.3324
 5683TIP3    H117013   2.258   3.971   1.287 -1.0280  0.2361  0.1580
 5683TIP3    H217014   2.199   3.867   1.195  0.8718 -1.3172  0.6193
 5684TIP3   OH217015   3.872   4.324   3.882 -0.2002 -0.0672  0.1693
 5684TIP3    H117016   3.816   4.249   3.861  1.1463 -1.1059  0.2309
 5684TIP3    H217017   3.953   4.286   3.915  0.4641  1.4210  0.3298
 5685TIP3   OH217018   1.425   0.361   3.038  0.4626 -0.3004  0.3473
 5685TIP3    H117019   1.412   0.354   3.133 -0.5721 -0.4854  0.1994
 5685TIP3    H217020   1.470   0.445   3.026 -2.9778  1.7936  0.7173
 5686TIP3   OH217021   0.373   3.069   1.213 -0.2417 -0.4003  0.4076
 5686TIP3    H117022   0.357   3.005   1.282 -0.1088 -1.1692 -0.2617
 5686TIP3    H217023   0.452   3.115   1.241 -1.3862  0.8050  1.8374
 5687TIP3   OH217024   4.663   6.280   0.300  0.0730  0.2562 -0.6093
 5687TIP3    H117025   4.743   6.271   0.352  1.0555 -0.8943 -2.2288
 5687TIP3    H217026   4.686   6.344   0.233 -0.9391  1.1852 -0.0815
 5688TIP3   OH217027   3.507   3.547   4.747  0.0151 -0.3325 -0.3431
 5688TIP3    H117028   3.584   3.603   4.739 -0.5784  0.5166 -0.3237
 5688TIP3    H217029   3.534   3.475   4.804  1.5226 -1.4038 -2.2875
 5689TIP3   OH217030   0.818   1.017   4.150  0.9393 -0.3990 -0.8298
 5689TIP3    H117031   0.726   1.044   4.153  0.1465 -2.8923  1.6506
 5689TIP3    H217032   0.815   0.925   4.123  2.4552 -1.1598  1.3684
 5690TIP3   OH217033   2.795   1.862   5.561 -0.0013 -0.3449  0.1789
 5690TIP3    H117034   2.808   1.953   5.586 -1.7526 -0.4698  1.6989
 5690TIP3    H217035   2.863   1.846   5.495  1.0121  1.7248  0.6367
 5691TIP3   OH217036   3.142   1.284   0.250 -0.1076 -0.1350  0.1707
 5691TIP3    H117037   3.169   1.203   0.294  1.9145 -0.5469 -1.6295
 5691TIP3    H217038   3.212   1.347   0.270 -1.0120  0.8033  0.4917
 5692TIP3   OH217039   1.475   4.231   5.544  0.5814  0.5557 -0.1678
 5692TIP3    H117040   1.522   4.296   5.493 -0.1721  0.8088 -0.5459
 5692TIP3    H217041   1.384   4.260   5.544  0.4925  0.3351  0.9652
 5693TIP3   OH217042   3.700   5.779   3.220 -0.3762  0.1923 -0.3248
 5693TIP3    H117043   3.734   5.773   3.310 -0.7632 -1.5856 -0.2583
 5693TIP3    H217044   3.775   5.754   3.165 -0.4954  0.0429 -0.4182
 5694TIP3   OH217045   0.399   5.031   3.724  0.0228  0.2311 -0.5615
 5694TIP3    H117046   0.447   5.106   3.760 -0.5437  0.0688  0.5951
 5694TIP3    H217047   0.307   5.053   3.737 -0.1657 -0.3975 -0.7754
 5695TIP3   OH217048   6.455   5.909   4.577  0.2805 -0.2563  0.0149
 5695TIP3    H117049   6.383   5.958   4.537  0.6424 -0.5735 -1.0769
 5695TIP3    H217050   6.423   5.885   4.664 -0.3226  0.9529  0.1467
 5696TIP3   OH217051   3.702   2.763   2.069  0.5000 -0.2047  0.4709
 5696TIP3    H117052   3.791   2.771   2.035  1.0676  0.0632  1.9568
 5696TIP3    H217053   3.713   2.728   2.157 -0.8891 -0.3196  0.6213
 5697TIP3   OH217054   6.655   3.736   3.683  0.1221 -0.2799 -0.1162
 5697TIP3    H117055   6.670   3.719   3.590  1.0599 -0.3499  0.0409
 5697TIP3    H217056   6.727   3.693   3.728  1.7527  2.6905  0.4024
 5698TIP3   OH217057   1.278   1.097   1.892 -0.0114 -0.4909 -0.1928
 5698TIP3    H117058   1.259   1.105   1.985 -0.3706 -0.3516 -0.2754
 5698TIP3    H217059   1.240   1.014   1.866 -0.6605 -0.1402 -0.3912
 5699TIP3   OH217060   5.151   5.878   4.672 -0.0896  0.1479  0.5575
 5699TIP3    H117061   5.202   5.906   4.596 -0.8984  0.2032  0.0140
 5699TIP3    H217062   5.216   5.861   4.740  0.6445  0.2058 -0.1116
 5700TIP3   OH217063   4.173   2.598   1.693  0.0478 -0.0961 -0.5281
 5700TIP3    H117064   4.171   2.516   1.742 -0.1848 -0.1328 -0.5969
 5700TIP3    H217065   4.252   2.592   1.639 -0.2979 -0.5409 -0.9901
 5701TIP3   OH217066   1.294   1.273   4.872  0.0401  0.3354  0.2283
 5701TIP3    H117067   1.365   1.338   4.871  0.5909 -0.2574 -0.4261
 5701TIP3    H217068   1.337   1.191   4.896 -0.5218  0.0765  0.3597
 5702TIP3   OH217069   1.091   0.320   4.896  0.2498  0.6921  0.3220
 5702TIP3    H117070   1.000   0.292   4.881  0.2973  1.4591 -1.7240
 5702TIP3    H217071   1.105   0.307   4.990 -1.3744 -1.1846  0.3695
 5703TIP3   OH217072   1.565   6.493   3.954 -0.1095 -0.1899 -0.1464
 5703TIP3    H117073   1.614   6.518   4.032 -1.0531  0.1442  0.3498
 5703TIP3    H217074   1.596   6.405   3.933 -0.3791 -0.5806  1.0366
 5704TIP3   OH217075   1.893   5.080   5.203 -0.1755  0.1361 -0.2562
 5704TIP3    H117076   1.980   5.108   5.178 -0.1989  1.0564  0.6530
 5704TIP3    H217077   1.904   4.988   5.227  0.8805  0.6512  1.3765
 5705TIP3   OH217078   5.359   5.304   0.024 -0.2988 -0.2887  0.1405
 5705TIP3    H117079   5.342   5.337   0.112 -0.3709 -0.5294  0.2178
 5705TIP3    H217080   5.395   5.216   0.038  2.8128  0.8596  0.0833
 5706TIP3   OH217081   1.734   1.619   3.449  0.5495 -0.2946  0.0221
 5706TIP3    H117082   1.775   1.573   3.521  2.1195  0.2880 -0.4578
 5706TIP3    H217083   1.640   1.616   3.468  0.9381  0.0578  2.2103
 5707TIP3   OH217084   1.360   5.736   5.644 -0.2279 -0.0914 -0.0418
 5707TIP3    H117085   1.268   5.754   5.663 -0.8779 -2.0578 -1.0417
 5707TIP3    H217086   1.378   5.653   5.689 -0.1993 -1.8809 -3.0781
 5708TIP3   OH217087   4.736   0.460   1.541  0.1138  0.1739  0.1799
 5708TIP3    H117088   4.748   0.447   1.635  0.9313 -0.0442  0.0544
 5708TIP3    H217089   4.643   0.481   1.531 -0.8457 -3.2666  0.6523
 5709TIP3   OH217090   2.465   6.305   4.937  0.1570  0.3044 -0.6962
 5709TIP3    H117091   2.441   6.275   4.849  1.2210  2.4425 -1.7940
 5709TIP3    H217092   2.530   6.241   4.967  1.5049  0.7613 -2.4533
 5710TIP3   OH217093   1.428   0.920   1.632  0.3322 -0.2046  0.3028
 5710TIP3    H117094   1.416   0.894   1.541 -1.0682  0.1890  0.3541
 5710TIP3    H217095   1.356   0.878   1.679 -0.8188  2.0497  0.6974
 5711TIP3   OH217096   6.837   5.744   4.257 -0.2522  0.1802  0.4885
 5711TIP3    H117097   6.766   5.785   4.208 -0.2223 -1.6544 -1.2287
 5711TIP3    H217098   6.916   5.784   4.221 -0.2867 -0.3152 -0.1612
 5712TIP3   OH217099   0.492   0.351   2.585  0.5375  0.0155  0.3429
 5712TIP3    H117100   0.588   0.349   2.584  0.5421 -1.7432 -0.5877
 5712TIP3    H217101   0.469   0.434   2.545  1.6971 -0.1828 -0.8224
 5713TIP3   OH217102   0.491   4.470   0.082  0.0689  0.0970 -0.5066
 5713TIP3    H117103   0.580   4.442   0.103  0.0398  0.0721 -0.4171
 5713TIP3    H217104   0.461   4.515   0.161 -0.1232 -0.1976 -0.4113
 5714TIP3   OH217105   6.916   0.878   0.582 -0.2079  0.1784  0.1089
 5714TIP3    H117106   6.921   0.955   0.639  0.2444 -0.0822  0.4271
 5714TIP3    H217107   6.882   0.809   0.639 -3.5350  0.8119 -0.8831
 5715TIP3   OH217108   7.116   4.995   0.135  0.2772  0.0375 -0.0306
 5715TIP3    H117109   7.191   4.998   0.194  1.2848 -0.6144 -1.2360
 5715TIP3    H217110   7.115   5.081   0.093 -0.5744  0.5809  1.0666
 5716TIP3   OH217111   3.971   5.257   0.303 -0.4104 -0.1614  0.8638
 5716TIP3    H117112   4.018   5.333   0.336 -0.3296  0.2346 -0.1257
 5716TIP3    H217113   4.037   5.207   0.255 -0.9876  0.4742 -0.6652
 5717TIP3   OH217114   3.558   0.554   5.779  0.1694  0.3139  0.5023
 5717TIP3    H117115   3.509   0.607   5.717  0.4245  0.6109  0.5487
 5717TIP3    H217116   3.496   0.489   5.810  0.1162 -0.0157 -0.2736
 5718TIP3   OH217117   1.893   1.484   0.864  0.1649 -0.2831  0.0171
 5718TIP3    H117118   1.846   1.474   0.781  0.6583 -1.2122 -0.1687
 5718TIP3    H217119   1.984   1.467   0.841  0.3458 -0.2386  0.6977
 5719TIP3   OH217120   3.167   1.112   1.787  0.1654 -0.3567 -0.1307
 5719TIP3    H117121   3.183   1.134   1.695  0.7938 -0.7428 -0.1233
 5719TIP3    H217122   3.159   1.197   1.831 -2.0886 -0.1565 -0.8422
 5720TIP3   OH217123   4.962   3.473   5.259  0.1071  0.5119 -0.0968
 5720TIP3    H117124   4.973   3.382   5.288 -0.7203  0.3046 -0.4034
 5720TIP3    H217125   5.048   3.512   5.269  0.6516 -0.5078 -0.6440
 5721TIP3   OH217126   7.138   4.891   1.931 -0.5731 -0.0001 -0.5189
 5721TIP3    H117127   7.138   4.946   1.853  0.6059 -1.3592 -1.5172
 5721TIP3    H217128   7.225   4.901   1.968 -1.9834  3.0874  2.5419
 5722TIP3   OH217129   1.135   4.449   2.019 -0.8235  0.3843  0.2615
 5722TIP3    H117130   1.208   4.403   1.977 -2.8281 -0.4828 -2.6763
 5722TIP3    H217131   1.170   4.534   2.045  2.0131 -1.2228  2.1985
 5723TIP3   OH217132   6.338   5.611   3.175  0.3187 -0.0730  0.3888
 5723TIP3    H117133   6.327   5.644   3.264 -0.1339 -1.0022  0.6853
 5723TIP3    H217134   6.301   5.523   3.177  0.5826 -0.2196 -0.6435
 5724TIP3   OH217135   1.513   1.931   2.099  0.0623  0.2205 -0.1318
 5724TIP3    H117136   1.426   1.929   2.137 -0.9866 -1.6975 -2.4123
 5724TIP3    H217137   1.566   1.875   2.157 -0.9493 -0.8660 -0.2186
 5725TIP3   OH217138   6.923   1.104   4.618  0.0181  0.0108 -0.5669
 5725TIP3    H117139   6.895   1.069   4.533  1.7303  2.0399 -2.0679
 5725TIP3    H217140   6.911   1.198   4.611 -0.0843  0.2104  1.5977
 5726TIP3   OH217141   6.811   1.177   5.880  0.1364 -0.3997  0.1163
 5726TIP3    H117142   6.768   1.096   5.909 -1.3304  0.3789  0.2150
 5726TIP3    H217143   6.904   1.163   5.900 -0.4116 -1.0468  2.5176
 5727TIP3   OH217144   0.269   3.919   4.496 -0.4212 -0.4502  0.1360
 5727TIP3    H117145   0.256   3.906   4.590 -0.9335 -1.7020 -0.0936
 5727TIP3    H217146   0.345   3.864   4.475 -1.2217 -1.3484 -0.4504
 5728TIP3   OH217147   6.560   4.425   1.051  0.6828 -0.8365  0.5916
 5728TIP3    H117148   6.628   4.368   1.089  0.9832 -0.0843  1.2114
 5728TIP3    H217149   6.564   4.505   1.104  0.8246  0.0853 -0.7678
 5729TIP3   OH217150   5.794   6.632   0.797  0.6029  0.2286 -0.6509
 5729TIP3    H117151   5.802   6.704   0.859 -0.9188  0.0943 -0.2673
 5729TIP3    H217152   5.862   6.570   0.824  1.5264  1.2302 -0.6122
 5730TIP3   OH217153   2.709   3.436   0.332  0.3534  0.0125 -0.1658
 5730TIP3    H117154   2.679   3.375   0.400  0.5377 -0.3863 -0.4366
 5730TIP3    H217155   2.734   3.515   0.380  0.1374 -0.1347  0.1946
 5731TIP3   OH217156   0.973   6.614   2.629 -0.1251  0.0319 -0.3551
 5731TIP3    H117157   0.941   6.556   2.698 -0.9386  0.0774 -0.6931
 5731TIP3    H217158   1.014   6.686   2.676 -0.2091 -0.1955  0.0769
 5732TIP3   OH217159   4.488   3.049   5.635  0.0520 -0.0633 -0.0331
 5732TIP3    H117160   4.417   3.110   5.613 -1.0643 -0.6479  1.7195
 5732TIP3    H217161   4.459   2.965   5.601 -1.1254 -0.7245  2.4213
 5733TIP3   OH217162   4.748   4.894   4.704  0.3074 -0.4834 -0.6768
 5733TIP3    H117163   4.699   4.818   4.736  0.6185 -2.0955 -3.6925
 5733TIP3    H217164   4.798   4.925   4.780 -1.1467 -2.1989  1.0670
 5734TIP3   OH217165   2.728   2.581   2.412 -0.0107 -0.3524 -0.3496
 5734TIP3    H117166   2.751   2.648   2.348  1.5041 -0.1255  0.3904
 5734TIP3    H217167   2.726   2.500   2.362  1.1949 -0.1850 -0.7154
 5735TIP3   OH217168   3.286   3.675   0.648 -0.5681 -0.4231  0.6510
 5735TIP3    H117169   3.324   3.732   0.581  0.3699 -1.8313 -0.0773
 5735TIP3    H217170   3.316   3.587   0.624 -1.9575 -1.2334  1.7266
 5736TIP3   OH217171   3.253   2.600   2.530 -0.4281  0.1796 -0.0520
 5736TIP3    H117172   3.326   2.550   2.493 -0.2771 -0.1964  0.7364
 5736TIP3    H217173   3.183   2.593   2.465  0.5304  1.3453 -1.2865
 5737TIP3   OH217174   3.101   2.113   2.529  0.1618  0.0445 -0.0165
 5737TIP3    H117175   3.009   2.127   2.508 -0.7138 -2.8279  1.4899
 5737TIP3    H217176   3.135   2.060   2.457 -0.3293 -1.7889  1.0514
 5738TIP3   OH217177   1.720   5.374   4.032 -0.2738  0.4925  0.3566
 5738TIP3    H117178   1.773   5.358   3.954  0.6627 -1.0883  1.2467
 5738TIP3    H217179   1.756   5.454   4.070 -0.6653  1.2143 -0.7361
 5739TIP3   OH217180   0.290   6.533   1.553  0.5094  0.2371 -0.6975
 5739TIP3    H117181   0.272   6.514   1.461  0.2974  0.3264 -0.6754
 5739TIP3    H217182   0.281   6.628   1.559  0.1882  0.1950 -0.5118
 5740TIP3   OH217183   7.107   1.785   5.481 -0.1268  0.1212 -0.1421
 5740TIP3    H117184   7.174   1.717   5.474 -0.4398 -0.2588  0.5044
 5740TIP3    H217185   7.092   1.795   5.575 -1.2793 -0.1075 -0.2809
 5741TIP3   OH217186   4.958   6.297   5.852 -0.7375  0.0190 -0.4648
 5741TIP3    H117187   5.036   6.273   5.903 -1.0451  1.2794  0.6587
 5741TIP3    H217188   4.886   6.254   5.898 -1.0216  1.1840  0.1982
 5742TIP3   OH217189   5.176   6.057   2.196  0.1001  0.5047  0.4056
 5742TIP3    H117190   5.146   6.142   2.164 -0.3819 -0.1220 -0.8680
 5742TIP3    H217191   5.266   6.050   2.165 -0.2771  0.0142 -0.5943
 5743TIP3   OH217192   6.000   3.666   0.734  0.1920 -0.1674 -0.0011
 5743TIP3    H117193   6.009   3.645   0.641 -0.9252  1.8071 -0.6342
 5743TIP3    H217194   6.081   3.713   0.756  0.0615  0.1815 -0.2501
 5744TIP3   OH217195   1.444   2.866   2.032  0.2257  0.1637  0.4471
 5744TIP3    H117196   1.538   2.883   2.034  0.1645  1.1649 -1.8069
 5744TIP3    H217197   1.431   2.811   1.955 -1.1014  0.5838  0.3466
 5745TIP3   OH217198   3.363   5.666   1.018 -0.3411 -0.0322  0.6879
 5745TIP3    H117199   3.435   5.605   1.034 -0.6103  0.1117  2.7004
 5745TIP3    H217200   3.407   5.751   1.007  0.1233 -0.5755 -3.1518
 5746TIP3   OH217201   2.043   3.220   2.451  0.4206  0.5245 -0.0784
 5746TIP3    H117202   2.126   3.229   2.498 -0.3881 -1.9656  2.0803
 5746TIP3    H217203   1.977   3.255   2.511 -0.5128 -1.5936  0.2360
 5747TIP3   OH217204   5.706   4.875   3.121  0.0536  0.1980 -0.0167
 5747TIP3    H117205   5.616   4.860   3.091  0.0712  0.8715 -0.4297
 5747TIP3    H217206   5.756   4.804   3.083 -0.1840  0.2251 -0.3826
 5748TIP3   OH217207   4.288   2.499   3.506 -0.2570 -0.2041  0.0504
 5748TIP3    H117208   4.308   2.593   3.509 -1.0387 -0.0370  0.2540
 5748TIP3    H217209   4.195   2.495   3.485 -0.3585 -0.9247  0.5886
 5749TIP3   OH217210   5.860   1.139   3.864 -0.4835 -0.7169 -0.1100
 5749TIP3    H117211   5.799   1.173   3.929 -1.0271 -1.6096 -0.1300
 5749TIP3    H217212   5.901   1.216   3.825 -0.0980 -0.1721  1.3322
 5750TIP3   OH217213   2.792   2.262   1.997  0.0387  0.5391  0.4593
 5750TIP3    H117214   2.819   2.225   1.913  1.3919 -0.5117  1.3027
 5750TIP3    H217215   2.813   2.355   1.990  1.1661  0.2773 -0.0068
 5751TIP3   OH217216   6.820   5.131   5.304  0.4475  0.7905  0.4568
 5751TIP3    H117217   6.853   5.187   5.235 -0.4507 -0.4159 -1.0088
 5751TIP3    H217218   6.894   5.075   5.328  0.1054 -0.5582 -1.4157
 5752TIP3   OH217219   2.844   5.207   2.084  0.0712  0.1244  0.2093
 5752TIP3    H117220   2.876   5.240   2.168  0.6176  1.0182 -0.3340
 5752TIP3    H217221   2.923   5.178   2.038 -0.1026  0.5651 -0.3799
 5753TIP3   OH217222   2.087   1.637   4.453 -0.5298  0.1452  0.3501
 5753TIP3    H117223   2.058   1.723   4.483  0.1473  0.5258 -0.0745
 5753TIP3    H217224   2.013   1.603   4.403  0.1205  1.5708 -1.6677
 5754TIP3   OH217225   5.522   2.680   5.277 -0.3482 -0.0308 -0.4683
 5754TIP3    H117226   5.597   2.632   5.242  0.5006  1.1529 -0.3274
 5754TIP3    H217227   5.447   2.621   5.263  0.2064 -0.3174 -2.7235
 5755TIP3   OH217228   3.545   5.146   0.147 -0.3338 -0.0616 -0.0722
 5755TIP3    H117229   3.515   5.078   0.207 -1.2957  0.8905  0.5613
 5755TIP3    H217230   3.465   5.182   0.109  0.2637 -0.7835 -2.1298
 5756TIP3   OH217231   0.164   5.221   5.711  0.3713  0.3736  0.6781
 5756TIP3    H117232   0.098   5.205   5.779  0.0955  0.8752  0.5339
 5756TIP3    H217233   0.117   5.211   5.629  1.4887 -4.0700  0.3493
 5757TIP3   OH217234   1.102   1.578   1.095 -0.5164  0.2553  0.2171
 5757TIP3    H117235   1.120   1.665   1.130 -1.8975  0.3327  0.8120
 5757TIP3    H217236   1.172   1.523   1.129 -0.3965  0.8596  0.9880
 5758TIP3   OH217237   1.347   1.489   1.191  0.2922  0.1898 -0.3312
 5758TIP3    H117238   1.417   1.546   1.160 -0.2271  0.6923 -0.6154
 5758TIP3    H217239   1.383   1.400   1.186  1.0745  0.4823  0.0193
 5759TIP3   OH217240   7.163   2.794   5.895 -0.3712 -0.3151 -0.7215
 5759TIP3    H117241   7.152   2.822   5.804 -2.2455  0.3013 -0.3470
 5759TIP3    H217242   7.079   2.814   5.937  0.1615 -1.3562  0.9518
 5760TIP3   OH217243   1.591   5.718   4.432  0.0857  0.2034 -0.0173
 5760TIP3    H117244   1.500   5.698   4.411  0.7975 -1.6321 -1.7116
 5760TIP3    H217245   1.590   5.745   4.524 -2.2450  1.0419 -0.2308
 5761TIP3   OH217246   0.595   6.387   3.787 -0.0723  0.1172 -0.3746
 5761TIP3    H117247   0.544   6.392   3.706 -2.3819  0.3557  0.9952
 5761TIP3    H217248   0.589   6.295   3.813 -1.5035  0.4886  0.7557
 5762TIP3   OH217249   2.226   3.795   1.849  0.2166 -0.1871 -0.0975
 5762TIP3    H117250   2.140   3.808   1.888 -0.8236 -1.5048 -1.7992
 5762TIP3    H217251   2.218   3.830   1.760  1.7468  0.5257  0.0069
 5763TIP3   OH217252   1.934   0.720   2.547 -0.5087  0.1315 -0.0608
 5763TIP3    H117253   1.881   0.791   2.512  0.3214  0.8349  0.0747
 5763TIP3    H217254   1.987   0.689   2.473  0.5317  0.9638  0.3085
 5764TIP3   OH217255   6.873   1.666   3.163 -0.3259 -0.4164 -0.1034
 5764TIP3    H117256   6.870   1.758   3.136  0.9659 -0.0049  1.0137
 5764TIP3    H217257   6.816   1.621   3.102  1.0626  0.7245 -2.3650
 5765TIP3   OH217258   5.035   2.303   2.144 -0.2695  0.0808  0.4856
 5765TIP3    H117259   5.120   2.258   2.144  1.5146  3.0362 -2.4275
 5765TIP3    H217260   5.031   2.347   2.228  0.0435 -1.7209  1.4982
 5766TIP3   OH217261   5.209   5.477   5.449 -0.7612  0.5352 -0.4178
 5766TIP3    H117262   5.243   5.390   5.469 -0.1714  0.7834 -0.3120
 5766TIP3    H217263   5.249   5.534   5.515  0.9683  1.3207 -2.0648
 5767TIP3   OH217264   1.202   4.344   5.524 -0.6925  0.0494  0.1163
 5767TIP3    H117265   1.191   4.255   5.558 -0.3749 -0.3082 -0.6667
 5767TIP3    H217266   1.127   4.356   5.466 -0.7737  0.3154  0.2806
 5768TIP3   OH217267   0.006   4.279   0.902 -0.1820  0.2504 -0.1827
 5768TIP3    H117268   0.007   4.189   0.934  0.9338  0.4325  0.3552
 5768TIP3    H217269   0.058   4.327   0.967 -1.0931  1.3599 -0.2411
 5769TIP3   OH217270   1.591   5.808   5.045 -0.0205 -0.2125  0.0910
 5769TIP3    H117271   1.675   5.845   5.071  0.0684 -0.8517  0.7550
 5769TIP3    H217272   1.548   5.878   4.997  0.8611  0.1470 -0.1951
 5770TIP3   OH217273   0.124   5.981   1.025  0.2193  0.3494 -0.6989
 5770TIP3    H117274   0.213   5.960   1.054 -0.0022 -0.6209 -0.7018
 5770TIP3    H217275   0.069   5.914   1.066 -0.5371  1.0343 -0.5649
 5771TIP3   OH217276   1.905   1.010   0.241 -0.0088 -0.3031 -0.1374
 5771TIP3    H117277   1.869   1.098   0.242 -0.2611 -0.3898 -0.7077
 5771TIP3    H217278   1.900   0.983   0.149 -0.8131 -1.2588  0.1564
 5772TIP3   OH217279   5.415   1.065   1.489  0.4090 -0.2481  1.0527
 5772TIP3    H117280   5.494   1.081   1.541  1.1979  0.9737 -0.4456
 5772TIP3    H217281   5.378   1.151   1.473  1.1122 -0.3618 -1.7256
 5773TIP3   OH217282   4.750   5.980   1.610 -0.6340  0.0742 -0.0462
 5773TIP3    H117283   4.817   5.966   1.544 -0.3294 -0.6210  0.4019
 5773TIP3    H217284   4.702   6.058   1.580 -0.2598 -0.0118 -0.8758
 5774TIP3   OH217285   5.389   6.417   2.600 -0.2896  0.4664  0.5242
 5774TIP3    H117286   5.308   6.379   2.633 -0.8187  1.5773  0.5683
 5774TIP3    H217287   5.371   6.511   2.598  0.9663  0.7129  0.4280
 5775TIP3   OH217288   7.095   0.581   0.194 -0.2004 -0.0148  0.8238
 5775TIP3    H117289   7.073   0.497   0.154  2.1346 -0.4968  0.4538
 5775TIP3    H217290   7.101   0.642   0.121 -3.3346  0.9392  1.1970
 5776TIP3   OH217291   1.555   4.056   1.861  0.1214  0.2746 -0.3727
 5776TIP3    H117292   1.635   4.003   1.861  0.6501  1.0592  0.2225
 5776TIP3    H217293   1.585   4.146   1.848 -0.6567  0.5917 -0.0591
 5777TIP3   OH217294   6.349   5.440   4.916 -0.0494  0.3920 -0.8071
 5777TIP3    H117295   6.336   5.417   5.008 -0.3060 -0.8357 -1.1435
 5777TIP3    H217296   6.287   5.512   4.902 -0.4672  0.1678 -0.1880
 5778TIP3   OH217297   3.117   6.152   5.831 -0.0427 -0.3602  0.0979
 5778TIP3    H117298   3.087   6.192   5.749 -2.6262 -2.8669 -0.3463
 5778TIP3    H217299   3.212   6.142   5.820 -0.2886 -0.4140 -2.5043
 5779TIP3   OH217300   0.192   4.838   2.586 -0.6283 -0.1096 -0.1671
 5779TIP3    H117301   0.210   4.900   2.657  0.4817  0.0473 -0.5578
 5779TIP3    H217302   0.276   4.796   2.569  0.3002  2.7535 -4.0841
 5780TIP3   OH217303   6.962   0.951   3.079 -0.3600 -0.1340  0.2268
 5780TIP3    H117304   7.026   0.893   3.121  1.0950 -0.4587 -2.2260
 5780TIP3    H217305   7.000   1.038   3.089 -0.6238 -0.0653  0.6287
 5781TIP3   OH217306   4.429   4.195   2.723  0.4545  0.2726 -0.0647
 5781TIP3    H117307   4.424   4.236   2.637  1.1181 -2.0698 -1.3099
 5781TIP3    H217308   4.350   4.141   2.729  0.9163 -0.3753  0.3331
 5782TIP3   OH217309   2.617   6.824   3.672 -0.6559  0.8417 -0.0331
 5782TIP3    H117310   2.596   6.795   3.761  0.1546  0.9343  0.2017
 5782TIP3    H217311   2.594   6.750   3.616 -0.7458  0.6140  0.3022
 5783TIP3   OH217312   6.048   1.197   3.157 -0.3263 -0.4198  1.1683
 5783TIP3    H117313   5.955   1.216   3.167 -0.6755 -1.6721  0.5237
 5783TIP3    H217314   6.055   1.154   3.073  0.8696 -0.2383  1.1536
 5784TIP3   OH217315   0.568   5.345   5.254 -0.5536 -0.2157 -0.1514
 5784TIP3    H117316   0.522   5.270   5.292 -1.1282  0.6963  1.0100
 5784TIP3    H217317   0.661   5.320   5.258 -0.8071 -1.3148 -0.8138
 5785TIP3   OH217318   5.717   3.560   5.485 -0.1158  0.0812  0.6468
 5785TIP3    H117319   5.710   3.602   5.570  1.9007  0.1501  0.8133
 5785TIP3    H217320   5.725   3.632   5.423 -0.5498  0.0095  0.5041
 5786TIP3   OH217321   3.938   3.878   1.025 -0.7754 -0.3614  0.0513
 5786TIP3    H117322   3.865   3.940   1.020  0.0875  0.9969  2.4299
 5786TIP3    H217323   3.915   3.819   1.097  0.0322 -0.5375  0.1758
 5787TIP3   OH217324   0.390   5.832   3.553 -0.4390  0.0805 -0.3107
 5787TIP3    H117325   0.472   5.872   3.581 -0.0392 -0.4817 -0.6423
 5787TIP3    H217326   0.323   5.895   3.578  0.2251  1.3047 -1.4692
 5788TIP3   OH217327   4.803   4.682   0.872  0.0814 -0.3900 -0.5010
 5788TIP3    H117328   4.796   4.754   0.809 -1.6136 -1.9093 -2.1689
 5788TIP3    H217329   4.851   4.614   0.825  0.0288 -1.0466  0.3769
 5789TIP3   OH217330   4.404   4.358   0.043 -0.0345 -0.4608 -0.4983
 5789TIP3    H117331   4.318   4.363   0.086  0.7731  0.0581  1.1182
 5789TIP3    H217332   4.390   4.400  -0.042 -0.9190  1.4952  0.5338
 5790TIP3   OH217333   2.610   5.783   0.460 -0.5775  0.5195  0.0120
 5790TIP3    H117334   2.671   5.832   0.516  0.3598 -1.4481  0.8159
 5790TIP3    H217335   2.595   5.701   0.508 -3.5302  0.7108 -0.3790
 5791TIP3   OH217336   5.612   0.945   0.657  0.6973  0.1700  0.6464
 5791TIP3    H117337   5.609   1.026   0.708  0.8032 -0.0079  0.9374
 5791TIP3    H217338   5.663   0.884   0.711  1.1052  0.0867  0.1756
 5792TIP3   OH217339   4.800   1.626   3.367 -0.7236 -0.4216  0.3172
 5792TIP3    H117340   4.883   1.632   3.320 -1.0961 -1.8614 -0.5878
 5792TIP3    H217341   4.798   1.704   3.423  0.5430  0.4249 -0.7594
 5793TIP3   OH217342   3.231   2.208   3.723 -0.3896  0.5046 -0.7911
 5793TIP3    H117343   3.309   2.161   3.752 -1.0736  0.6991  1.5703
 5793TIP3    H217344   3.257   2.249   3.641  1.2885 -1.1938 -1.1907
 5794TIP3   OH217345   2.697   5.905   1.790  0.3136 -0.7059 -0.1242
 5794TIP3    H117346   2.749   5.841   1.741  1.4629 -0.0216  0.1543
 5794TIP3    H217347   2.761   5.971   1.817 -0.8618  0.5816 -0.4528
 5795TIP3   OH217348   5.282   6.700   3.554  0.5096 -0.6004  0.2338
 5795TIP3    H117349   5.205   6.747   3.586  1.0665  1.5779 -1.4256
 5795TIP3    H217350   5.323   6.666   3.634 -0.3224  1.1207  1.4665
 5796TIP3   OH217351   6.083   2.902   0.195 -0.1899  0.3573  0.3055
 5796TIP3    H117352   6.102   2.995   0.208 -0.5031  0.3766  0.6262
 5796TIP3    H217353   6.057   2.895   0.103  0.9320  0.4000 -0.0390
 5797TIP3   OH217354   3.621   1.264   3.928 -0.0705 -0.7499 -0.7924
 5797TIP3    H117355   3.688   1.332   3.919 -0.3307 -0.4869 -0.7609
 5797TIP3    H217356   3.578   1.261   3.842  0.6086 -1.5889 -1.1169
 5798TIP3   OH217357   2.790   5.101   3.060 -0.0353 -0.3715 -0.4494
 5798TIP3    H117358   2.839   5.054   2.992 -0.5940  0.3406 -1.3585
 5798TIP3    H217359   2.755   5.032   3.116  1.2235 -0.9362 -0.3190
 5799TIP3   OH217360   5.379   2.481   3.445  0.1636 -0.4862 -0.1019
 5799TIP3    H117361   5.454   2.443   3.398  1.1804  1.5359 -0.2016
 5799TIP3    H217362   5.324   2.517   3.376  1.4340  2.0854  0.1157
 5800TIP3   OH217363   0.539   4.155   0.125  0.2364  0.2317  0.0219
 5800TIP3    H117364   0.609   4.199   0.174  0.8873 -0.3023 -0.3973
 5800TIP3    H217365   0.458   4.184   0.167  0.7887 -2.1392  3.1199
 5801TIP3   OH217366   6.706   4.018   4.306  0.3280 -0.5547 -0.1691
 5801TIP3    H117367   6.713   3.941   4.363  0.1728 -0.5778 -0.1811
 5801TIP3    H217368   6.796   4.039   4.284  0.3232 -1.7530 -1.5149
 5802TIP3   OH217369   0.667   5.157   3.680 -0.1439 -0.0661  0.1499
 5802TIP3    H117370   0.661   5.118   3.593  0.5808  0.7412 -0.2733
 5802TIP3    H217371   0.750   5.125   3.715 -1.1372 -1.6703  1.2175
 5803TIP3   OH217372   6.937   2.027   3.845 -0.2365 -0.4711  0.0065
 5803TIP3    H117373   7.001   2.095   3.865 -0.7450  0.2332 -0.6976
 5803TIP3    H217374   6.933   1.973   3.924 -0.5228  0.8742  0.9326
 5804TIP3   OH217375   3.862   2.642   0.922 -0.0304 -0.0380  0.3234
 5804TIP3    H117376   3.879   2.722   0.972 -1.3863 -0.4024  1.4188
 5804TIP3    H217377   3.838   2.577   0.988  0.1656 -1.1063 -0.6324
 5805TIP3   OH217378   3.063   4.738   4.212  0.1560  0.3263  0.1113
 5805TIP3    H117379   3.054   4.643   4.213  0.3639  0.3012 -0.1501
 5805TIP3    H217380   3.156   4.753   4.232  0.7804  0.3577 -2.4110
 5806TIP3   OH217381   2.056   5.362   0.775 -0.1328 -0.6369 -0.1392
 5806TIP3    H117382   2.132   5.389   0.724  1.4864 -2.2025  1.3049
 5806TIP3    H217383   1.990   5.340   0.709  0.8285  0.2633 -1.4558
 5807TIP3   OH217384   4.840   2.021   3.080  0.1311  0.2814  0.1505
 5807TIP3    H117385   4.854   1.929   3.102  1.4649  0.6405  0.8980
 5807TIP3    H217386   4.908   2.069   3.129  0.5694  1.5013 -1.5385
 5808TIP3   OH217387   3.507   4.435   5.710  0.1652  0.0193 -0.3109
 5808TIP3    H117388   3.490   4.495   5.783  0.3685  0.8223 -0.9026
 5808TIP3    H217389   3.569   4.372   5.745 -0.8601 -0.4908  0.6444
 5809TIP3   OH217390   5.412   6.515   5.467  0.3929  0.1262  0.0356
 5809TIP3    H117391   5.360   6.595   5.480  1.3185  0.8520 -0.6157
 5809TIP3    H217392   5.470   6.512   5.544  0.0222 -0.1968  0.3082
 5810TIP3   OH217393   5.114   0.458   4.125  0.3659 -1.0501 -0.3045
 5810TIP3    H117394   5.082   0.427   4.040  0.7446 -2.4164  0.0144
 5810TIP3    H217395   5.078   0.395   4.188 -2.0079  1.3337  0.9188
 5811TIP3   OH217396   2.962   4.615   0.137  0.0581 -0.4982 -0.1064
 5811TIP3    H117397   2.994   4.705   0.127  0.6395 -0.5957  0.8278
 5811TIP3    H217398   3.014   4.565   0.075  0.9869 -0.4786  0.6465
 5812TIP3   OH217399   0.405   5.989   0.516 -0.3540 -0.3510 -0.9255
 5812TIP3    H117400   0.442   6.078   0.519 -0.7228 -0.1854  1.5560
 5812TIP3    H217401   0.325   5.996   0.569 -0.5213 -2.1163 -0.9127
 5813TIP3   OH217402   5.931   0.457   1.323  0.5717  0.5111 -0.5320
 5813TIP3    H117403   5.921   0.476   1.230 -2.5765 -0.5059 -0.5119
 5813TIP3    H217404   5.881   0.525   1.367  1.3320  0.4878  0.3951
 5814TIP3   OH217405   5.076   2.018   4.857  0.2555  0.0495 -0.4418
 5814TIP3    H117406   5.055   2.103   4.896 -1.4585 -0.4151 -0.2911
 5814TIP3    H217407   4.998   1.994   4.807  1.5579 -0.3846 -2.4347
 5815TIP3   OH217408   7.065   0.609   1.378  0.6397 -0.3366  0.0843
 5815TIP3    H117409   6.997   0.666   1.343  1.3553  0.2512 -0.3807
 5815TIP3    H217410   7.128   0.600   1.307  0.8125 -1.2606  0.3478
 5816TIP3   OH217411   5.685   1.666   4.953  0.3949 -0.1810  0.7313
 5816TIP3    H117412   5.611   1.719   4.922 -0.1513 -0.1134  2.0819
 5816TIP3    H217413   5.644   1.590   4.994  1.0441  0.1842  2.0955
 5817TIP3   OH217414   6.085   5.329   1.199 -0.2286 -0.4242  0.1447
 5817TIP3    H117415   5.990   5.338   1.200 -0.1525  0.4912 -0.2466
 5817TIP3    H217416   6.112   5.349   1.289 -0.4971 -2.0289  0.6223
 5818TIP3   OH217417   5.740   2.385   4.289  0.4891 -0.0588 -0.0987
 5818TIP3    H117418   5.777   2.433   4.214 -1.2203  0.6442 -0.5455
 5818TIP3    H217419   5.645   2.397   4.280  0.0432 -2.7856  0.3182
 5819TIP3   OH217420   6.145   1.850   1.761  0.2247 -0.3633 -0.2650
 5819TIP3    H117421   6.114   1.941   1.758 -0.5538 -0.3868  2.9124
 5819TIP3    H217422   6.236   1.858   1.788  1.1270 -0.5017 -3.0655
 5820TIP3   OH217423   0.590   5.127   2.631  0.1089 -0.1851 -0.0486
 5820TIP3    H117424   0.600   5.221   2.616  0.2701 -0.2720 -0.5124
 5820TIP3    H217425   0.577   5.118   2.726  1.0879  0.2256  0.1347
 5821TIP3   OH217426   6.816   2.918   3.785  0.1627  0.0465  0.1476
 5821TIP3    H117427   6.829   3.002   3.742 -1.4833  1.2094  1.8026
 5821TIP3    H217428   6.832   2.853   3.716 -0.0101  1.7343 -1.5543
 5822TIP3   OH217429   3.402   0.051   0.799 -0.2782  0.4315 -0.7510
 5822TIP3    H117430   3.311   0.067   0.775 -0.1252  1.9994 -0.3828
 5822TIP3    H217431   3.403   0.054   0.895 -0.0053 -0.5819 -0.7152
 5823TIP3   OH217432   4.287   4.480   5.116  0.1846 -0.2099  0.1619
 5823TIP3    H117433   4.244   4.565   5.114 -0.6108 -0.6158 -0.7786
 5823TIP3    H217434   4.220   4.419   5.147  0.7965 -0.4871  1.0011
 5824TIP3   OH217435   3.871   2.282   3.173 -0.4387 -0.1976  0.2442
 5824TIP3    H117436   3.826   2.360   3.206  0.9885  0.5935  0.4110
 5824TIP3    H217437   3.957   2.314   3.147 -0.3866 -1.4220 -1.2326
 5825TIP3   OH217438   0.548   4.513   5.431 -0.0394  0.2932  0.2554
 5825TIP3    H117439   0.494   4.510   5.510  0.8163 -0.5041  0.8263
 5825TIP3    H217440   0.552   4.606   5.408 -0.4374  0.5121  1.0481
 5826TIP3   OH217441   5.389   1.069   4.046 -0.4517 -0.0894  0.1513
 5826TIP3    H117442   5.364   0.982   4.079  0.1656  0.3441  1.8933
 5826TIP3    H217443   5.321   1.091   3.983 -1.6064 -1.1069  0.9794
 5827TIP3   OH217444   4.491   3.719   5.544  0.4028  0.2394 -0.4028
 5827TIP3    H117445   4.457   3.630   5.536 -0.1993  0.5469 -1.3820
 5827TIP3    H217446   4.503   3.748   5.454  1.5503  0.8002 -0.0884
 5828TIP3   OH217447   6.001   6.024   5.429  0.4641  0.2075 -0.1108
 5828TIP3    H117448   5.986   5.984   5.344 -0.0253 -0.1731  0.1477
 5828TIP3    H217449   5.932   5.988   5.485 -0.4994  2.0327 -0.0599
 5829TIP3   OH217450   2.312   5.237   5.873 -0.2277 -0.1434 -0.6999
 5829TIP3    H117451   2.324   5.150   5.835 -0.3186 -0.7612  0.6268
 5829TIP3    H217452   2.243   5.225   5.938 -0.3838  0.9738 -0.6545
 5830TIP3   OH217453   6.390   6.359   4.592  0.5232  0.1489 -0.0512
 5830TIP3    H117454   6.454   6.394   4.530  1.0447 -1.1702 -0.2929
 5830TIP3    H217455   6.430   6.373   4.678 -0.6125  2.8423  0.1420
 5831TIP3   OH217456   0.740   0.297   3.565  0.6576  0.1135  0.2742
 5831TIP3    H117457   0.757   0.379   3.519 -0.0989  0.5045  0.6664
 5831TIP3    H217458   0.777   0.230   3.508  1.6107  0.7408  0.1164
 5832TIP3   OH217459   0.693   4.024   1.678  0.3047  0.7091  0.1467
 5832TIP3    H117460   0.682   4.008   1.772  0.4198 -1.0218 -0.0969
 5832TIP3    H217461   0.640   4.101   1.661 -2.7876 -1.0454  0.9967
 5833TIP3   OH217462   1.401   2.887   3.156  0.5225 -0.1994 -0.5094
 5833TIP3    H117463   1.392   2.898   3.250  1.1611  0.7526 -0.5466
 5833TIP3    H217464   1.312   2.894   3.122  0.2524 -0.8904  0.0493
 5834TIP3   OH217465   4.556   4.423   0.590  0.1017  0.5996 -0.2218
 5834TIP3    H117466   4.588   4.476   0.516  1.5276  0.0505 -0.0375
 5834TIP3    H217467   4.580   4.474   0.667  0.1895  0.3663 -0.0937
 5835TIP3   OH217468   1.244   2.323   0.941  0.1416  0.1255 -0.3019
 5835TIP3    H117469   1.160   2.357   0.909 -0.0430 -0.9079 -0.9428
 5835TIP3    H217470   1.261   2.374   1.020 -0.7807  0.7854 -0.5085
 5836TIP3   OH217471   3.980   2.254   2.874  0.1646 -0.3952 -0.2220
 5836TIP3    H117472   4.048   2.288   2.933  1.8781 -0.8235 -1.8629
 5836TIP3    H217473   3.939   2.332   2.837  0.7505 -0.1094 -0.2845
 5837TIP3   OH217474   2.124   4.216   2.104  0.1929  0.0180  0.1613
 5837TIP3    H117475   2.052   4.170   2.148  0.5147 -0.0014  0.6869
 5837TIP3    H217476   2.158   4.153   2.041 -0.4110  0.1164 -0.2700
 5838TIP3   OH217477   1.976   4.770   0.960 -0.0176 -0.2981  0.5579
 5838TIP3    H117478   1.946   4.824   1.032 -1.9801  1.6335 -1.5491
 5838TIP3    H217479   2.061   4.808   0.936 -0.5988  0.8050  0.1831
 5839TIP3   OH217480   5.240   2.144   1.546 -0.5340  0.3941 -0.2247
 5839TIP3    H117481   5.244   2.218   1.485  0.3966 -1.0514 -1.9902
 5839TIP3    H217482   5.330   2.112   1.552 -1.4253 -3.3236 -3.0856
 5840TIP3   OH217483   3.061   5.449   1.378 -0.1282 -0.0648 -0.1847
 5840TIP3    H117484   3.033   5.437   1.469 -1.1558  0.1835 -0.4575
 5840TIP3    H217485   3.009   5.522   1.346  0.5050  0.0998 -0.8636
 5841TIP3   OH217486   3.215   1.156   0.773 -0.0940  0.6598  0.4842
 5841TIP3    H117487   3.151   1.209   0.725  0.2526 -0.2281 -0.9921
 5841TIP3    H217488   3.184   1.066   0.764  1.2444  0.2348 -0.0803
 5842TIP3   OH217489   3.587   4.215   5.148  0.8862  0.3174 -0.0731
 5842TIP3    H117490   3.678   4.228   5.119  0.9748 -2.2543 -1.2327
 5842TIP3    H217491   3.583   4.123   5.174 -1.4442  0.3005 -0.2690
 5843TIP3   OH217492   6.040   1.050   5.551  0.1529  0.2288 -1.1385
 5843TIP3    H117493   6.072   1.139   5.567 -1.7933  0.7709  0.1309
 5843TIP3    H217494   6.107   1.010   5.496  2.3556  1.6343  0.3487
 5844TIP3   OH217495   4.104   3.140   2.977  0.5379  0.0397  0.5694
 5844TIP3    H117496   4.103   3.191   3.058 -1.0483  0.1699  0.5127
 5844TIP3    H217497   4.015   3.106   2.969  0.5879  0.2045 -1.2309
 5845TIP3   OH217498   6.436   4.435   5.516  0.3933  0.6104 -0.3335
 5845TIP3    H117499   6.397   4.410   5.599 -0.9099 -0.7071 -1.2911
 5845TIP3    H217500   6.441   4.354   5.465 -1.1948  1.7357 -2.4639
 5846TIP3   OH217501   3.979   6.804   3.738 -0.3870  0.2737  0.1583
 5846TIP3    H117502   3.886   6.822   3.720 -0.4974 -0.6776 -0.3264
 5846TIP3    H217503   3.978   6.724   3.791  0.1473  0.3605  0.3030
 5847TIP3   OH217504   4.460   3.086   5.890  0.4033  0.0699  0.2531
 5847TIP3    H117505   4.528   3.032   5.930  0.0963 -0.0063  0.6829
 5847TIP3    H217506   4.462   3.063   5.797 -0.2404 -1.2596  0.5457
 5848TIP3   OH217507   7.034   2.451   5.057  0.7925  0.1274  0.3511
 5848TIP3    H117508   7.119   2.411   5.074  0.8449 -0.2271 -0.6595
 5848TIP3    H217509   6.981   2.430   5.133  1.5396  0.1683  0.8942
 5849TIP3   OH217510   0.365   0.874   0.968  0.1144  0.0694  0.5314
 5849TIP3    H117511   0.433   0.851   0.905  1.0167  0.0729  1.4692
 5849TIP3    H217512   0.371   0.969   0.977  0.8181 -0.0508  1.5025
 5850TIP3   OH217513   2.267   0.263   1.691 -0.3219 -0.6707 -0.1648
 5850TIP3    H117514   2.278   0.354   1.718 -0.2358 -0.7950  0.2330
 5850TIP3    H217515   2.315   0.213   1.757 -0.9170 -1.0411 -0.0069
 5851TIP3   OH217516   5.340   6.450   2.095 -0.1374 -0.0766 -0.2383
 5851TIP3    H117517   5.395   6.419   2.168  0.4484 -0.2200 -0.7316
 5851TIP3    H217518   5.335   6.374   2.036 -2.0224 -0.5282  0.4547
 5852TIP3   OH217519   2.570   4.327   4.164 -0.1424 -0.1642 -0.0783
 5852TIP3    H117520   2.524   4.391   4.110  0.5824  0.6506  0.2412
 5852TIP3    H217521   2.501   4.266   4.193 -0.9028  0.6563 -0.1232
 5853TIP3   OH217522   2.474   2.147   2.794  0.4057 -0.0932 -0.5594
 5853TIP3    H117523   2.403   2.135   2.731  1.0307 -0.0388 -1.2939
 5853TIP3    H217524   2.537   2.077   2.773 -0.3903 -1.5391  1.4983
 5854TIP3   OH217525   6.806   2.807   5.173  0.2002  0.3922 -0.1729
 5854TIP3    H117526   6.789   2.800   5.267 -0.1530  0.4669 -0.2302
 5854TIP3    H217527   6.901   2.818   5.166  0.6043 -2.2531  0.0467
 5855TIP3   OH217528   6.165   4.332   4.290  0.4486  0.5002  0.3101
 5855TIP3    H117529   6.218   4.310   4.214 -0.9251 -0.2681 -0.4620
 5855TIP3    H217530   6.112   4.407   4.262  0.0951  0.3526  0.5701
 5856TIP3   OH217531   1.880   3.260   3.832  0.0071 -0.0178 -0.9465
 5856TIP3    H117532   1.953   3.314   3.803 -0.6900  0.7124 -1.3792
 5856TIP3    H217533   1.909   3.170   3.817  1.7494  0.1210  1.1092
 5857TIP3   OH217534   3.558   5.426   4.239  0.3461 -0.6478 -0.0114
 5857TIP3    H117535   3.559   5.503   4.296  0.6693  0.9317 -2.0375
 5857TIP3    H217536   3.639   5.380   4.259  0.7226  0.1837  0.4295
 5858TIP3   OH217537   3.089   0.388   2.401  0.3301 -0.6458 -0.1838
 5858TIP3    H117538   3.102   0.378   2.495  0.3901 -1.2846 -0.2505
 5858TIP3    H217539   3.155   0.451   2.374 -0.4628  0.4727  0.3852
 5859TIP3   OH217540   3.533   6.388   3.276  0.2094 -0.3705 -0.1436
 5859TIP3    H117541   3.487   6.445   3.338  1.2841  0.9172 -0.4991
 5859TIP3    H217542   3.473   6.382   3.201 -0.2896 -0.4327  0.2541
 5860TIP3   OH217543   3.015   2.920   3.449 -0.7967  0.2948  0.2177
 5860TIP3    H117544   3.091   2.924   3.390  0.9402  0.9054  2.3678
 5860TIP3    H217545   3.005   2.827   3.469 -0.3141  0.2508  0.2686
 5861TIP3   OH217546   6.412   1.932   1.902  0.4601  0.5530  0.6058
 5861TIP3    H117547   6.427   2.001   1.967  0.0973 -0.2177  1.5240
 5861TIP3    H217548   6.498   1.894   1.885  0.4406  0.1958  1.2800
 5862TIP3   OH217549   5.177   5.190   5.536  0.2675 -0.1072  0.1194
 5862TIP3    H117550   5.266   5.203   5.570  0.3042  0.0370 -0.0312
 5862TIP3    H217551   5.146   5.112   5.581  0.8156 -0.6998 -0.5038
 5863TIP3   OH217552   3.051   4.260   3.129 -0.5983 -0.1922 -0.0960
 5863TIP3    H117553   3.097   4.338   3.098 -2.4556  0.8120 -0.4248
 5863TIP3    H217554   3.036   4.277   3.222  0.0899 -0.7440  0.1270
 5864TIP3   OH217555   0.379   3.736   3.710 -0.4375 -0.1573  0.1957
 5864TIP3    H117556   0.446   3.727   3.777  0.8951  1.1756 -0.8802
 5864TIP3    H217557   0.297   3.745   3.758  0.5231  1.1569  1.6696
 5865TIP3   OH217558   3.709   3.762   4.441  0.4017  0.0416 -0.8452
 5865TIP3    H117559   3.751   3.739   4.524  1.0116 -1.2141 -1.4682
 5865TIP3    H217560   3.630   3.810   4.467  0.5539 -0.3577  0.4628
 5866TIP3   OH217561   0.368   1.575   5.855  0.5205  0.2534 -0.1557
 5866TIP3    H117562   0.382   1.614   5.769 -0.7008  1.0890  0.0066
 5866TIP3    H217563   0.353   1.650   5.913  1.7327 -0.2692  0.8892
 5867TIP3   OH217564   1.427   4.656   3.252 -0.4010 -0.0835 -0.6596
 5867TIP3    H117565   1.359   4.649   3.320 -1.8241  0.2690 -1.9937
 5867TIP3    H217566   1.466   4.569   3.248 -0.6447 -0.2448  0.2479
 5868TIP3   OH217567   2.401   4.425   0.272  0.0110 -0.7048  0.2466
 5868TIP3    H117568   2.374   4.343   0.230  0.7110 -0.9332  0.2192
 5868TIP3    H217569   2.333   4.443   0.336 -0.8871 -0.5505 -0.7302
 5869TIP3   OH217570   0.719   6.062   5.063 -0.9438  0.1109 -0.4421
 5869TIP3    H117571   0.687   5.974   5.082 -0.8510  0.1088 -0.2928
 5869TIP3    H217572   0.727   6.065   4.968  0.9929 -0.7425 -0.3630
 5870TIP3   OH217573   4.858   5.520   1.915  0.0167 -0.2391 -0.3770
 5870TIP3    H117574   4.862   5.586   1.985  0.4121  0.0858 -0.7057
 5870TIP3    H217575   4.806   5.560   1.846 -0.9583 -0.8198 -0.0066
 5871TIP3   OH217576   4.619   5.134   1.376  0.6955  0.1616  0.0299
 5871TIP3    H117577   4.700   5.180   1.397  1.2051 -1.0385  0.8269
 5871TIP3    H217578   4.648   5.048   1.344 -0.2607 -0.4918  0.8399
 5872TIP3   OH217579   1.408   5.550   0.789 -0.2783  0.4171 -0.7448
 5872TIP3    H117580   1.368   5.502   0.717  0.2070 -0.4780 -0.4388
 5872TIP3    H217581   1.467   5.487   0.830 -0.3106  1.0051  0.2433
 5873TIP3   OH217582   2.598   1.707   0.056 -0.4811 -0.3426 -0.1455
 5873TIP3    H117583   2.564   1.796   0.063 -0.9288 -0.5021 -0.3108
 5873TIP3    H217584   2.557   1.659   0.128 -1.5820 -0.8455 -1.0852
 5874TIP3   OH217585   0.221   1.670   5.384 -0.6680  0.3933  0.0170
 5874TIP3    H117586   0.300   1.697   5.430  1.0359 -0.8462 -2.0321
 5874TIP3    H217587   0.200   1.744   5.327 -1.9969  1.3742  1.6787
 5875TIP3   OH217588   2.661   1.423   0.349 -0.9539 -0.0319  0.1022
 5875TIP3    H117589   2.634   1.435   0.440  0.9363 -2.8762  1.1825
 5875TIP3    H217590   2.751   1.454   0.347 -0.6699 -0.8625 -0.5105
 5876TIP3   OH217591   6.789   6.603   5.046 -0.2384  0.5225 -0.0160
 5876TIP3    H117592   6.714   6.635   4.996 -0.5787  0.0910  0.2042
 5876TIP3    H217593   6.762   6.516   5.076 -0.0373  0.7592  0.8934
 5877TIP3   OH217594   3.243   1.468   4.074  0.7953 -0.4349 -0.3661
 5877TIP3    H117595   3.159   1.503   4.046 -0.1974 -2.0079  0.5087
 5877TIP3    H217596   3.296   1.465   3.994  0.1091  0.7204 -0.8875
 5878TIP3   OH217597   1.568   0.121   3.901  0.0747 -0.0264 -0.2227
 5878TIP3    H117598   1.620   0.147   3.976 -0.3446 -0.6123  0.2843
 5878TIP3    H217599   1.579   0.026   3.895 -1.0821 -0.2014  0.0373
 5879TIP3   OH217600   0.643   6.449   1.743  0.0877 -0.0005 -0.0982
 5879TIP3    H117601   0.704   6.508   1.787  1.5338 -0.6275 -1.1558
 5879TIP3    H217602   0.673   6.447   1.652 -0.0656 -2.1227 -0.1674
 5880TIP3   OH217603   6.260   1.206   5.416  0.0099 -0.5522 -0.3966
 5880TIP3    H117604   6.343   1.168   5.443 -0.7493 -1.6294  0.5549
 5880TIP3    H217605   6.250   1.180   5.324  0.3001 -1.2185 -0.2460
 5881TIP3   OH217606   2.007   0.942   0.880  0.2046  0.2501 -0.1169
 5881TIP3    H117607   1.941   0.885   0.841 -0.7088 -0.2502  2.0254
 5881TIP3    H217608   2.090   0.897   0.864 -0.1494 -0.0521 -1.2037
 5882TIP3   OH217609   1.471   3.246   0.559 -0.2865  0.1166 -0.0856
 5882TIP3    H117610   1.458   3.269   0.467  1.7222  1.1443 -0.1785
 5882TIP3    H217611   1.516   3.322   0.596  0.2640 -0.8822  1.3719
 5883TIP3   OH217612   2.791   0.738   4.953  0.7419  0.4606  0.2375
 5883TIP3    H117613   2.742   0.664   4.917  0.8833  0.7991 -0.6829
 5883TIP3    H217614   2.849   0.699   5.019  1.0519 -0.3055 -0.4644
 5884TIP3   OH217615   6.445   0.383   3.429  0.0791  0.2458 -0.2197
 5884TIP3    H117616   6.482   0.397   3.516  0.6677  1.1852 -0.6085
 5884TIP3    H217617   6.367   0.329   3.445 -0.4452  1.3091  1.0109
 5885TIP3   OH217618   5.269   5.221   3.918 -0.5192  0.3230  0.2985
 5885TIP3    H117619   5.197   5.280   3.941  0.9488  1.3483  2.6111
 5885TIP3    H217620   5.318   5.267   3.850 -0.1149  1.2326  1.1823
 5886TIP3   OH217621   5.128   0.163   5.279  0.6482  0.8704 -0.0084
 5886TIP3    H117622   5.061   0.110   5.234  0.2253  1.5319 -0.1653
 5886TIP3    H217623   5.193   0.099   5.308 -0.3832  0.1350  0.7458
 5887TIP3   OH217624   5.322   1.738   4.209 -0.1842 -0.5845  0.4672
 5887TIP3    H117625   5.327   1.714   4.302  0.5715 -1.6578  0.1663
 5887TIP3    H217626   5.291   1.659   4.166  0.4439 -0.4163 -0.3177
 5888TIP3   OH217627   7.112   6.819   5.078 -0.2677  0.4578 -0.4777
 5888TIP3    H117628   7.114   6.750   5.011  0.5648  0.4671 -0.4724
 5888TIP3    H217629   7.109   6.772   5.161  1.5219  0.3736 -0.4198
 5889TIP3   OH217630   1.235   0.891   2.249 -0.0809  0.0029  0.5614
 5889TIP3    H117631   1.255   0.844   2.169 -0.5667  0.1263  0.3641
 5889TIP3    H217632   1.217   0.981   2.221 -2.1618 -0.3818  0.5649
 5890TIP3   OH217633   5.369   3.274   5.378 -0.2529 -0.6500  0.0131
 5890TIP3    H117634   5.439   3.278   5.443 -0.5953 -1.0967  0.4184
 5890TIP3    H217635   5.383   3.190   5.333 -1.1814 -1.2835  0.8626
 5891TIP3   OH217636   0.121   5.363   3.542 -0.4819 -0.0846  0.6077
 5891TIP3    H117637   0.026   5.349   3.544 -0.4192 -0.4111  1.8339
 5891TIP3    H217638   0.158   5.279   3.515 -0.5733  0.3254 -0.8887
 5892TIP3   OH217639   4.667   5.610   4.546  0.0566  0.3187  0.6642
 5892TIP3    H117640   4.638   5.702   4.543  1.2798  0.7468  1.3635
 5892TIP3    H217641   4.759   5.613   4.522 -0.0753 -0.8391 -0.0501
 5893TIP3   OH217642   3.648   6.368   1.721 -0.3468  0.1766 -0.0349
 5893TIP3    H117643   3.699   6.386   1.800 -1.7163  1.8875  0.5275
 5893TIP3    H217644   3.652   6.273   1.711  0.4808 -0.0092  1.6792
 5894TIP3   OH217645   4.755   6.364   4.244  0.3758 -0.2045 -0.6671
 5894TIP3    H117646   4.810   6.397   4.173  0.4717  1.0590 -0.0544
 5894TIP3    H217647   4.811   6.370   4.322 -0.0567 -0.5834 -0.3170
 5895TIP3   OH217648   3.213   5.962   4.318 -0.2256 -0.5265 -0.2348
 5895TIP3    H117649   3.127   5.924   4.331  0.1033 -1.2691 -0.1537
 5895TIP3    H217650   3.197   6.055   4.304 -0.9112 -0.4030  1.2909
 5896TIP3   OH217651   0.825   2.335   3.151  0.0407 -0.3488 -0.4742
 5896TIP3    H117652   0.812   2.322   3.058 -0.1523 -1.8734 -0.2644
 5896TIP3    H217653   0.916   2.307   3.167  0.0537 -0.1576 -0.1988
 5897TIP3   OH217654   0.224   0.999   4.461 -0.1803  0.4353  0.8723
 5897TIP3    H117655   0.275   1.013   4.540  0.2570 -0.7384  0.8175
 5897TIP3    H217656   0.167   1.075   4.455  1.6126  1.8433  0.8922
 5898TIP3   OH217657   0.456   3.394   2.104  0.1974 -0.1648  0.1553
 5898TIP3    H117658   0.503   3.471   2.135 -1.1627  0.3913  0.9270
 5898TIP3    H217659   0.456   3.334   2.179  0.3622 -0.4869 -0.1014
 5899TIP3   OH217660   3.578   3.994   1.239 -0.3439 -0.8892  0.2346
 5899TIP3    H117661   3.671   4.001   1.258 -0.5210 -0.8243  1.1295
 5899TIP3    H217662   3.574   3.975   1.145  0.4967  1.2624 -0.3046
 5900TIP3   OH217663   1.563   0.972   5.495 -0.6202  0.4744  0.9165
 5900TIP3    H117664   1.588   1.061   5.517  1.1090  0.3750 -0.4005
 5900TIP3    H217665   1.596   0.918   5.567  0.4044  0.6816  0.6190
 5901TIP3   OH217666   2.455   2.041   4.167 -0.3988  0.2170 -0.6989
 5901TIP3    H117667   2.455   2.055   4.261 -1.1258 -1.7489 -0.3749
 5901TIP3    H217668   2.411   2.119   4.132 -2.2600 -0.0916  0.8004
 5902TIP3   OH217669   3.360   2.751   2.744 -0.5403  0.7931  0.2392
 5902TIP3    H117670   3.327   2.831   2.704 -0.8625 -0.4663 -2.1937
 5902TIP3    H217671   3.342   2.683   2.680  2.0219 -0.8445  1.0854
 5903TIP3   OH217672   1.114   6.092   4.997  0.1808  0.1266  0.2479
 5903TIP3    H117673   1.034   6.039   4.989  0.8020 -0.7006 -0.6874
 5903TIP3    H217674   1.140   6.084   5.088  0.4266 -1.4413  0.0621
 5904TIP3   OH217675   7.088   0.915   0.269 -0.2598  0.6806  0.7825
 5904TIP3    H117676   7.007   0.914   0.320  0.6264 -1.5022  2.2881
 5904TIP3    H217677   7.090   0.830   0.224 -0.0773  1.7860 -1.4358
 5905TIP3   OH217678   4.330   0.921   4.480  0.3753 -0.0654  0.1838
 5905TIP3    H117679   4.301   1.002   4.521  2.2699  0.8925 -0.2424
 5905TIP3    H217680   4.319   0.937   4.386  0.6270 -0.3589  0.1049
 5906TIP3   OH217681   0.929   0.185   1.834 -0.3635  0.4583  0.7377
 5906TIP3    H117682   0.890   0.147   1.912 -0.4479  0.7191  0.8229
 5906TIP3    H217683   1.018   0.207   1.861 -0.8751  1.9998  1.2317
 5907TIP3   OH217684   2.378   2.589   0.585  0.8554 -0.1152 -0.0090
 5907TIP3    H117685   2.332   2.551   0.510 -0.5239  0.4955  0.5166
 5907TIP3    H217686   2.351   2.536   0.660 -1.1395  1.8367  0.7517
 5908TIP3   OH217687   4.467   1.341   1.287 -0.0611  0.7020 -0.1963
 5908TIP3    H117688   4.538   1.361   1.226  0.1417  1.8495  0.3871
 5908TIP3    H217689   4.510   1.338   1.373 -0.5907  0.6421  0.0711
 5909TIP3   OH217690   5.426   5.920   1.702  0.4448 -0.4891  0.1679
 5909TIP3    H117691   5.356   5.978   1.733  1.4894  1.4028 -0.8541
 5909TIP3    H217692   5.443   5.862   1.776 -1.7799 -0.6171  0.6575
 5910TIP3   OH217693   1.619   1.815   2.774 -0.4040 -0.5860  0.0266
 5910TIP3    H117694   1.614   1.748   2.842 -0.1693 -0.2687  0.3627
 5910TIP3    H217695   1.687   1.875   2.804 -1.4871  0.5186  0.4039
 5911TIP3   OH217696   1.373   6.476   4.258 -0.6554  0.1604 -0.7029
 5911TIP3    H117697   1.424   6.442   4.332 -1.0158 -1.0911 -1.0072
 5911TIP3    H217698   1.415   6.559   4.236  1.0927 -0.6908 -0.7698
 5912TIP3   OH217699   0.284   0.366   4.403  0.0613 -0.4453 -0.2745
 5912TIP3    H117700   0.252   0.454   4.424  1.1295 -0.3986  1.3344
 5912TIP3    H217701   0.376   0.379   4.379  0.4109 -1.1924  0.6267
 5913TIP3   OH217702   2.229   1.043   2.521 -0.7939 -0.1124  0.1257
 5913TIP3    H117703   2.139   1.070   2.543  0.2754  3.6641  0.5360
 5913TIP3    H217704   2.265   1.012   2.604 -1.5823 -1.3360  0.0321
 5914TIP3   OH217705   0.606   3.490   4.848  0.4787  0.0591 -0.0114
 5914TIP3    H117706   0.563   3.484   4.933  1.7768 -0.8207  0.6305
 5914TIP3    H217707   0.682   3.547   4.864  1.8882 -1.7097  0.0019
 5915TIP3   OH217708   6.351   2.531   1.367 -0.2115 -0.1676 -0.2018
 5915TIP3    H117709   6.281   2.496   1.423  0.1841 -0.7399 -0.0539
 5915TIP3    H217710   6.363   2.465   1.300  0.1676 -0.0578 -0.2441
 5916TIP3   OH217711   5.002   1.373   5.683 -0.1259  0.0390 -0.2149
 5916TIP3    H117712   5.066   1.337   5.745 -0.3806  0.7191  0.4604
 5916TIP3    H217713   5.052   1.438   5.633  0.2227 -0.9126 -1.1290
 5917TIP3   OH217714   2.274   3.467   5.169 -0.3918 -0.2468 -0.6390
 5917TIP3    H117715   2.208   3.532   5.144 -0.9532 -1.0360 -1.2748
 5917TIP3    H217716   2.223   3.390   5.194  0.2765 -0.7670 -0.8503
 5918TIP3   OH217717   3.028   6.613   5.783  0.4468 -0.3700  0.1976
 5918TIP3    H117718   2.937   6.629   5.759  0.7216  1.3331  0.1731
 5918TIP3    H217719   3.071   6.592   5.700  0.5095  1.1139 -0.1769
 5919TIP3   OH217720   1.801   3.752   4.317 -0.4457 -0.0036  0.4548
 5919TIP3    H117721   1.708   3.751   4.338 -0.0663  0.0477  2.2705
 5919TIP3    H217722   1.843   3.707   4.390  1.0324  0.6815  0.0666
 5920TIP3   OH217723   4.139   5.067   4.697 -0.7122 -0.1215  0.6207
 5920TIP3    H117724   4.095   5.065   4.782 -2.1210 -0.3627 -0.0801
 5920TIP3    H217725   4.068   5.082   4.634  0.3209  0.1942 -0.5007
 5921TIP3   OH217726   5.061   4.976   5.682  0.2537  0.1148  0.4183
 5921TIP3    H117727   5.089   4.997   5.771 -1.3126  1.5845  0.6103
 5921TIP3    H217728   5.030   4.886   5.687  0.9319 -0.0921  1.1525
 5922TIP3   OH217729   7.025   3.631   3.373  0.0691  0.7646 -0.1134
 5922TIP3    H117730   7.007   3.544   3.408 -0.2091  1.1688  0.7714
 5922TIP3    H217731   7.113   3.652   3.405 -0.4492  1.4122  0.9301
 5923TIP3   OH217732   2.797   2.801   0.022 -1.0483 -0.3280 -0.7509
 5923TIP3    H117733   2.888   2.813  -0.004 -1.3150  2.0352 -0.7603
 5923TIP3    H217734   2.795   2.828   0.114 -1.9606  0.9939 -1.1312
 5924TIP3   OH217735   1.726   6.426   3.656  0.6205 -0.2351  0.6137
 5924TIP3    H117736   1.708   6.455   3.746  1.1735 -0.6332  0.8585
 5924TIP3    H217737   1.805   6.372   3.663  0.3568 -0.7246 -0.0333
 5925TIP3   OH217738   6.597   5.460   2.425  0.1886  0.4382  0.2897
 5925TIP3    H117739   6.600   5.492   2.516 -0.4918  1.1791  0.0624
 5925TIP3    H217740   6.505   5.469   2.399  0.4879  0.8466 -0.6819
 5926TIP3   OH217741   2.097   4.893   3.443 -0.1133 -0.6131 -0.3725
 5926TIP3    H117742   2.168   4.830   3.447 -1.5376 -2.3201 -0.7420
 5926TIP3    H217743   2.041   4.872   3.518 -1.5114 -0.9971 -1.4624
 5927TIP3   OH217744   4.014   1.601   0.778  0.4156  0.3354 -0.7205
 5927TIP3    H117745   4.061   1.669   0.826  1.7711 -1.2287  0.2988
 5927TIP3    H217746   4.081   1.557   0.727 -0.6243  0.4415 -2.2322
 5928TIP3   OH217747   5.010   0.655   1.525 -0.0960  0.3084  0.0476
 5928TIP3    H117748   4.957   0.684   1.599 -0.4050 -1.2704  0.4711
 5928TIP3    H217749   5.027   0.562   1.541  1.3922  0.3616 -0.9327
 5929TIP3   OH217750   1.180   2.513   2.161 -0.1843  0.1311 -0.0196
 5929TIP3    H117751   1.092   2.516   2.198  0.1115 -0.8563  0.8062
 5929TIP3    H217752   1.212   2.603   2.167 -0.4364  0.1358  1.4236
 5930TIP3   OH217753   2.643   1.954   2.691  0.1643  0.0222 -0.0457
 5930TIP3    H117754   2.713   1.952   2.756  0.6061  1.5789 -0.4415
 5930TIP3    H217755   2.688   1.964   2.607 -0.5297  2.0249 -0.2322
 5931TIP3   OH217756   0.588   3.024   3.339 -0.5388  0.1692 -0.5089
 5931TIP3    H117757   0.578   3.021   3.244  0.8757  0.4749 -0.6868
 5931TIP3    H217758   0.560   3.112   3.364 -1.3492 -0.0627 -0.5729
 5932TIP3   OH217759   6.964   6.501   1.549 -0.3715 -0.4823 -0.2190
 5932TIP3    H117760   7.039   6.505   1.608 -0.6763 -1.5369  0.2532
 5932TIP3    H217761   6.916   6.582   1.568 -0.5589 -0.8833  1.1250
 5933TIP3   OH217762   7.101   5.233   2.239  0.7369  0.4508  0.1647
 5933TIP3    H117763   7.121   5.325   2.252 -0.8990  0.9302 -0.4087
 5933TIP3    H217764   7.065   5.203   2.322  0.1860  0.6578  0.0069
 5934TIP3   OH217765   5.830   4.080   0.382 -0.0100 -0.5320 -0.1820
 5934TIP3    H117766   5.780   4.080   0.300 -0.2051  1.8468 -0.1211
 5934TIP3    H217767   5.920   4.067   0.354 -0.2807 -1.7592 -0.5639
 5935TIP3   OH217768   4.258   1.380   2.543  0.6533  0.1041 -0.2878
 5935TIP3    H117769   4.233   1.450   2.603  1.8104 -1.4065  2.1052
 5935TIP3    H217770   4.180   1.326   2.536  0.3884  0.5084 -0.4622
 5936TIP3   OH217771   4.314   3.677   1.311  0.7457  0.5491 -0.4368
 5936TIP3    H117772   4.263   3.639   1.383  1.5314  0.7664  0.2465
 5936TIP3    H217773   4.267   3.651   1.232 -1.7718  2.7196  0.2376
 5937TIP3   OH217774   5.300   4.243   3.006 -0.1066  0.3418 -0.1951
 5937TIP3    H117775   5.296   4.164   2.952 -1.2331 -0.3199  0.7999
 5937TIP3    H217776   5.387   4.240   3.046  0.3514  0.3065 -1.1832
 5938TIP3   OH217777   1.974   1.793   1.615 -0.4438 -0.1711 -0.3442
 5938TIP3    H117778   1.930   1.710   1.631  1.7789 -1.4732 -0.6111
 5938TIP3    H217779   2.050   1.771   1.560  1.3009  1.6873  1.1208
 5939TIP3   OH217780   4.326   0.623   0.270  0.1999  0.1609 -0.2287
 5939TIP3    H117781   4.402   0.610   0.326  0.5463  0.5391 -0.6101
 5939TIP3    H217782   4.359   0.614   0.180 -0.3259 -0.3166 -0.3896
 5940TIP3   OH217783   0.215   0.491   4.108  0.4210 -0.9740 -0.1340
 5940TIP3    H117784   0.265   0.526   4.034 -0.6395  0.6376 -0.1462
 5940TIP3    H217785   0.130   0.467   4.070 -0.0533 -0.3406  0.5078
 5941TIP3   OH217786   4.125   1.000   3.711 -0.1808 -0.2374 -0.4616
 5941TIP3    H117787   4.056   1.023   3.649 -0.9112 -0.9933  0.0435
 5941TIP3    H217788   4.188   1.071   3.705 -2.2059  1.8212  0.8481
 5942TIP3   OH217789   6.798   2.367   4.291  0.1157  0.2127 -0.1038
 5942TIP3    H117790   6.875   2.330   4.247  2.2291  2.7605  1.1324
 5942TIP3    H217791   6.759   2.425   4.226  0.0684 -0.0309 -0.2942
 5943TIP3   OH217792   1.289   5.929   3.601  0.0420 -0.5329 -0.3666
 5943TIP3    H117793   1.335   5.853   3.637 -0.1863 -1.2570 -1.5555
 5943TIP3    H217794   1.323   6.003   3.651  1.7194 -1.1668 -0.4793
 5944TIP3   OH217795   6.896   1.173   5.290 -0.1879  0.5797  0.3171
 5944TIP3    H117796   6.868   1.086   5.320 -1.0735  0.1781 -1.5289
 5944TIP3    H217797   6.834   1.233   5.330 -1.6341  0.0168 -0.9976
 5945TIP3   OH217798   1.880   4.304   2.279 -0.0426  0.5297  0.2028
 5945TIP3    H117799   1.828   4.357   2.339 -0.0347  0.4250  0.3007
 5945TIP3    H217800   1.963   4.352   2.271  0.0770  0.3727  0.5262
 5946TIP3   OH217801   2.245   5.912   2.912 -1.0692  0.0041  0.3572
 5946TIP3    H117802   2.285   5.862   2.840  1.6673 -0.1931  1.8931
 5946TIP3    H217803   2.182   5.851   2.951 -1.5382 -0.3848 -0.9636
 5947TIP3   OH217804   0.222   6.399   1.011 -0.0410 -0.0018 -0.2605
 5947TIP3    H117805   0.295   6.340   1.030 -0.8852 -0.7526  0.7652
 5947TIP3    H217806   0.185   6.366   0.929  0.3046 -0.0732 -0.3888
 5948TIP3   OH217807   5.471   2.096   3.057 -0.2847 -0.0175  0.2322
 5948TIP3    H117808   5.433   2.120   3.141  0.0657  2.7154 -0.2989
 5948TIP3    H217809   5.396   2.083   2.999 -0.4967  1.2064  0.2160
 5949TIP3   OH217810   1.464   5.697   5.361  0.2871  0.2029 -0.2237
 5949TIP3    H117811   1.438   5.710   5.452 -0.7087  1.3475 -0.6323
 5949TIP3    H217812   1.530   5.765   5.345  2.0621 -1.3540  0.2121
 5950TIP3   OH217813   1.237   5.320   1.059  0.2210 -0.2314  0.1945
 5950TIP3    H117814   1.170   5.313   1.126 -0.5166 -2.2693 -0.6593
 5950TIP3    H217815   1.212   5.396   1.007 -1.5883 -1.0397 -0.1989
 5951TIP3   OH217816   3.849   6.749   4.450 -0.2570 -0.2584 -0.2685
 5951TIP3    H117817   3.818   6.761   4.540  1.6412 -1.9490  0.6982
 5951TIP3    H217818   3.868   6.655   4.444 -0.8503 -0.2758 -2.6419
 5952TIP3   OH217819   4.753   3.435   0.140  0.1948 -0.2675  0.3229
 5952TIP3    H117820   4.661   3.418   0.161  0.3730 -1.1591  0.4156
 5952TIP3    H217821   4.801   3.366   0.184  1.0461  0.9364  1.3574
 5953TIP3   OH217822   0.183   5.609   2.077  0.4487  0.4831  0.4761
 5953TIP3    H117823   0.262   5.589   2.026  0.3316  0.6433  0.2297
 5953TIP3    H217824   0.134   5.669   2.022 -0.3093 -0.3627  0.2137
 5954TIP3   OH217825   6.925   4.673   1.708 -0.0169 -0.7638  0.6168
 5954TIP3    H117826   7.002   4.635   1.666  1.9224  0.9726  2.4019
 5954TIP3    H217827   6.880   4.720   1.638  1.7747  0.0127 -0.0564
 5955TIP3   OH217828   0.076   0.785   3.797 -0.1942 -0.0504  0.2493
 5955TIP3    H117829   0.126   0.706   3.814  2.8908  1.8129  0.6789
 5955TIP3    H217830   0.083   0.798   3.702  0.2704  0.2440  0.3176
 5956TIP3   OH217831   5.753   0.294   3.133 -0.0454  0.0134  0.1296
 5956TIP3    H117832   5.818   0.337   3.077  1.2208 -0.7778  0.9331
 5956TIP3    H217833   5.768   0.201   3.118 -1.4613 -0.1851 -0.1510
 5957TIP3   OH217834   4.960   1.571   4.054  0.0614 -0.1183  0.3218
 5957TIP3    H117835   5.018   1.601   4.124  0.3471 -1.2421  0.5833
 5957TIP3    H217836   5.018   1.528   3.991 -0.2641  0.3712 -0.3255
 5958TIP3   OH217837   0.761   3.648   1.598 -0.1674 -0.0462  0.5081
 5958TIP3    H117838   0.825   3.716   1.616  0.5641 -0.6484  0.2510
 5958TIP3    H217839   0.720   3.630   1.683 -0.3566  0.6869  0.5797
 5959TIP3   OH217840   1.844   5.036   5.516 -0.4020 -0.2046 -0.6465
 5959TIP3    H117841   1.750   5.037   5.533 -0.6191 -0.6264 -1.7338
 5959TIP3    H217842   1.857   5.102   5.447  0.0596 -0.3374 -0.6938
 5960TIP3   OH217843   0.963   5.383   2.451  0.1471  0.6971  0.2558
 5960TIP3    H117844   0.875   5.400   2.416 -0.6672  0.6394  2.1391
 5960TIP3    H217845   0.985   5.463   2.500  1.3777  0.9099 -0.5980
 5961TIP3   OH217846   6.316   0.070   3.190 -0.4261 -0.1923  0.0162
 5961TIP3    H117847   6.290   0.008   3.121 -0.1355 -0.9266  0.5495
 5961TIP3    H217848   6.304   0.156   3.151  3.2916 -0.5354 -2.3919
 5962TIP3   OH217849   3.468   2.810   5.639  0.2639  0.2594 -0.2158
 5962TIP3    H117850   3.389   2.824   5.690  0.3009 -2.5774  0.8268
 5962TIP3    H217851   3.468   2.716   5.620  3.7525 -0.0418  0.5759
 5963TIP3   OH217852   2.643   1.986   3.588  0.0324 -0.4684 -0.2567
 5963TIP3    H117853   2.616   2.061   3.640 -1.9123 -1.4712  0.3147
 5963TIP3    H217854   2.586   1.915   3.618  1.2573 -1.9754 -1.3189
 5964TIP3   OH217855   3.253   3.103   0.371  0.4673 -0.0448 -0.6364
 5964TIP3    H117856   3.302   3.146   0.302  0.9444  1.5444  0.6074
 5964TIP3    H217857   3.312   3.037   0.407  1.2481  0.9835  0.0082
 5965TIP3   OH217858   3.689   1.113   2.340 -0.3654  0.9503 -0.4924
 5965TIP3    H117859   3.731   1.072   2.416  0.6223  1.6368 -0.6391
 5965TIP3    H217860   3.596   1.104   2.356 -0.1737  0.8338  0.6778
 5966TIP3   OH217861   4.629   3.141   0.090 -0.0706 -0.9075 -0.2203
 5966TIP3    H117862   4.600   3.223   0.130 -0.2681  0.3096 -2.6382
 5966TIP3    H217863   4.675   3.095   0.160  2.5682  2.5402  0.6292
 5967TIP3   OH217864   3.773   4.753   5.567 -0.1123 -0.2116 -0.5818
 5967TIP3    H117865   3.697   4.776   5.513  1.5547  2.8107 -1.9158
 5967TIP3    H217866   3.747   4.779   5.655 -0.5180  1.1911 -1.0835
 5968TIP3   OH217867   5.950   0.234   2.173  0.5182 -0.1629 -0.3100
 5968TIP3    H117868   5.997   0.311   2.203 -0.8087  1.2058 -1.5712
 5968TIP3    H217869   5.981   0.219   2.084  1.2790 -1.5452  0.1669
 5969TIP3   OH217870   2.279   3.866   1.536 -0.3800  0.0587 -0.3333
 5969TIP3    H117871   2.227   3.936   1.499 -0.2215 -0.8299 -2.3595
 5969TIP3    H217872   2.223   3.788   1.531 -0.2721 -0.1489  1.1455
 5970TIP3   OH217873   5.497   2.078   4.850  0.2528 -0.0166 -0.0151
 5970TIP3    H117874   5.581   2.120   4.866  0.8967 -0.8024 -1.1967
 5970TIP3    H217875   5.490   2.010   4.917  0.4173  0.2213  0.2470
 5971TIP3   OH217876   4.091   0.027   4.052  0.3483 -0.1596  0.0905
 5971TIP3    H117877   4.066  -0.056   4.092  1.7999  0.3199  2.1073
 5971TIP3    H217878   4.007   0.066   4.024 -0.4803 -1.6026  0.4598
 5972TIP3   OH217879   1.618   0.519   3.204  0.2943 -0.1914 -0.0086
 5972TIP3    H117880   1.648   0.502   3.293  0.9701  0.0062 -0.1856
 5972TIP3    H217881   1.640   0.612   3.189 -0.0800 -0.1456 -0.2758
 5973TIP3   OH217882   2.105   3.039   0.996 -0.0236  0.0404  0.0809
 5973TIP3    H117883   2.068   3.026   1.084 -0.0334  0.3407  0.1249
 5973TIP3    H217884   2.061   2.974   0.941 -1.0851  0.7885  0.0044
 5974TIP3   OH217885   3.582   4.601   0.141 -0.0041 -0.0284 -0.0455
 5974TIP3    H117886   3.578   4.572   0.232 -0.8360  0.2354  0.0064
 5974TIP3    H217887   3.634   4.534   0.097  1.8543  0.7070  0.9403
 5975TIP3   OH217888   6.872   5.143   4.240  0.6779 -0.3178 -0.2752
 5975TIP3    H117889   6.878   5.049   4.257 -1.5839 -0.8424 -1.8570
 5975TIP3    H217890   6.814   5.175   4.309 -0.9239 -0.7030 -1.3715
 5976TIP3   OH217891   4.924   4.294   4.415  0.0958  0.0336  0.4375
 5976TIP3    H117892   4.992   4.325   4.474 -1.1285 -0.5059  2.2058
 5976TIP3    H217893   4.858   4.255   4.472 -0.7111 -1.3865 -1.3613
 5977TIP3   OH217894   5.432   4.512   3.591  0.5425 -0.6998  0.4902
 5977TIP3    H117895   5.421   4.434   3.537  2.7737 -0.0853 -0.9678
 5977TIP3    H217896   5.423   4.480   3.681 -0.7848 -2.1882 -0.1161
 5978TIP3   OH217897   3.069   4.872   1.940 -0.1712  0.0599 -0.1651
 5978TIP3    H117898   3.114   4.832   1.866 -0.1189  0.7744 -0.5197
 5978TIP3    H217899   2.984   4.827   1.944 -1.4185  1.9682 -2.4849
 5979TIP3   OH217900   3.832   0.194   3.070  0.1185 -0.5187 -0.4320
 5979TIP3    H117901   3.828   0.279   3.027  0.5068 -0.2406  0.0697
 5979TIP3    H217902   3.896   0.205   3.140 -0.1219 -1.1083 -0.1084
 5980TIP3   OH217903   3.690   1.952   1.239  0.3911 -0.2505 -0.2799
 5980TIP3    H117904   3.733   2.037   1.232  0.3396 -0.1293  0.7159
 5980TIP3    H217905   3.601   1.973   1.269  0.3477 -0.6537 -0.1263
 5981TIP3   OH217906   1.249   1.570   5.035 -0.3772 -1.1125  0.3367
 5981TIP3    H117907   1.339   1.548   5.012 -1.1767 -1.6743 -2.6960
 5981TIP3    H217908   1.251   1.665   5.051  0.9605 -1.3446  1.9006
 5982TIP3   OH217909   0.492   5.636   1.799  0.0472 -0.1741  0.2743
 5982TIP3    H117910   0.525   5.560   1.847  0.7628  0.1557  0.3213
 5982TIP3    H217911   0.565   5.698   1.800  0.3893 -0.4446 -1.8582
 5983TIP3   OH217912   2.111   5.980   3.864 -0.4369 -0.3473  0.3302
 5983TIP3    H117913   2.114   6.073   3.886 -0.8941 -0.5736  1.4127
 5983TIP3    H217914   2.103   5.978   3.769  1.5093  0.6869  0.0828
 5984TIP3   OH217915   1.276   6.387   3.657  0.9086  0.2968 -0.1343
 5984TIP3    H117916   1.186   6.388   3.624  0.7805 -1.0467  0.1034
 5984TIP3    H217917   1.283   6.467   3.709 -0.7080 -0.3391  1.1814
 5985TIP3   OH217918   6.946   1.449   0.265  0.3485 -0.4165  0.3772
 5985TIP3    H117919   6.851   1.434   0.268  0.2423 -0.3286 -1.4492
 5985TIP3    H217920   6.970   1.464   0.356 -1.3617 -0.6386  0.9120
 5986TIP3   OH217921   2.288   4.324   5.074 -0.2530 -0.0970  0.4306
 5986TIP3    H117922   2.345   4.309   5.149 -1.3967 -1.0733  1.1333
 5986TIP3    H217923   2.213   4.371   5.109 -0.9794 -0.8962  0.0044
 5987TIP3   OH217924   6.271   4.831   3.538  0.6717 -0.5935  0.0884
 5987TIP3    H117925   6.278   4.770   3.465  2.1590 -2.0164  1.3143
 5987TIP3    H217926   6.356   4.875   3.540  0.3661 -0.0158  0.4901
 5988TIP3   OH217927   1.589   6.355   5.708  0.1415  0.1446  0.2413
 5988TIP3    H117928   1.639   6.377   5.786  1.1864 -1.2374  0.0162
 5988TIP3    H217929   1.649   6.373   5.635 -0.6614  1.0050 -0.2289
 5989TIP3   OH217930   6.906   4.560   4.096  0.5978  0.1306 -0.1572
 5989TIP3    H117931   6.888   4.510   4.017 -0.9684  0.3792  0.0220
 5989TIP3    H217932   6.902   4.495   4.167  1.5867 -0.0167 -0.2252
 5990TIP3   OH217933   4.737   1.274   5.206  0.0936 -0.1783 -0.6271
 5990TIP3    H117934   4.801   1.309   5.267 -0.8844 -0.8878  0.8460
 5990TIP3    H217935   4.750   1.179   5.208  1.1145 -0.1520 -2.7810
 5991TIP3   OH217936   4.543   1.188   1.728  0.0115  0.3204 -0.3809
 5991TIP3    H117937   4.636   1.174   1.747  0.1002  0.7018 -0.5387
 5991TIP3    H217938   4.500   1.183   1.814  0.1367 -0.1608 -0.3424
 5992TIP3   OH217939   2.198   4.110   1.431  0.4359  0.2773  0.2592
 5992TIP3    H117940   2.141   4.152   1.496 -2.0604  0.0306 -1.6092
 5992TIP3    H217941   2.213   4.178   1.366  1.4431 -0.0005  0.1867
 5993TIP3   OH217942   1.714   6.166   2.457 -0.6600  0.2333  0.1313
 5993TIP3    H117943   1.786   6.210   2.412 -1.5866  1.0384 -0.6106
 5993TIP3    H217944   1.700   6.086   2.408  0.7526 -0.7351  1.2299
 5994TIP3   OH217945   1.738   2.915   2.832  0.1623 -0.4584 -0.2262
 5994TIP3    H117946   1.792   2.839   2.853 -0.5812 -1.0326 -0.3460
 5994TIP3    H217947   1.650   2.880   2.820 -0.5858  0.6682  1.5707
 5995TIP3   OH217948   3.593   4.782   0.986  0.5803 -0.1491  0.1646
 5995TIP3    H117949   3.646   4.706   0.966  0.4847 -0.6204  1.5884
 5995TIP3    H217950   3.517   4.774   0.929  1.4771 -0.0537 -1.0985
 5996TIP3   OH217951   6.029   5.395   4.639  0.9273  0.2953  0.0072
 5996TIP3    H117952   6.080   5.372   4.716  1.5849 -1.5452 -0.9279
 5996TIP3    H217953   6.037   5.490   4.632  1.1534  0.4567  1.9640
 5997TIP3   OH217954   6.375   2.852   2.092  0.1353 -0.3738  0.0220
 5997TIP3    H117955   6.435   2.833   2.164  0.6280  0.6453 -0.0962
 5997TIP3    H217956   6.409   2.801   2.018  1.0359  0.3993 -0.1171
 5998TIP3   OH217957   5.749   6.147   2.441 -0.2473  0.1209  0.1450
 5998TIP3    H117958   5.664   6.106   2.426 -0.6455  0.6785  0.8106
 5998TIP3    H217959   5.745   6.230   2.393  0.1705 -0.1402 -0.3546
 5999TIP3   OH217960   7.046   2.088   4.673 -0.1637 -0.3920  0.3094
 5999TIP3    H117961   7.043   2.159   4.609  1.1357 -0.3806  0.2263
 5999TIP3    H217962   6.954   2.064   4.687 -0.6303  1.2785  0.3330
 6000TIP3   OH217963   4.265   5.884   0.218 -0.4183  0.0195  0.4816
 6000TIP3    H117964   4.171   5.889   0.232 -0.0397  0.9571  3.2922
 6000TIP3    H217965   4.286   5.961   0.166 -1.0227  0.5821  1.0625
 6001TIP3   OH217966   5.465   3.398   4.042 -0.0205 -0.9004 -0.1702
 6001TIP3    H117967   5.373   3.416   4.063  0.0571 -0.0860 -0.4834
 6001TIP3    H217968   5.504   3.485   4.033  0.7779 -1.2476 -0.0632
 6002TIP3   OH217969   1.036   1.694   0.278  0.0461  0.5995 -0.1631
 6002TIP3    H117970   1.075   1.647   0.352  0.7119  2.3735  0.6734
 6002TIP3    H217971   1.095   1.768   0.263  0.1692  0.0560 -2.7984
 6003TIP3   OH217972   3.581   3.111   3.730  0.0666 -0.0081 -0.0071
 6003TIP3    H117973   3.650   3.129   3.794  0.2158  0.1361 -0.2064
 6003TIP3    H217974   3.502   3.149   3.769 -0.0832 -0.9570  0.6315
 6004TIP3   OH217975   6.506   1.416   3.261  0.0422  0.4695 -0.0225
 6004TIP3    H117976   6.484   1.428   3.169  1.3911  1.0758 -0.2923
 6004TIP3    H217977   6.562   1.338   3.262 -0.0247  0.4244  0.2919
 6005TIP3   OH217978   1.263   1.082   5.082  0.0987  0.6608  0.0397
 6005TIP3    H117979   1.186   1.137   5.100 -0.1824  0.8560 -1.6114
 6005TIP3    H217980   1.304   1.070   5.168 -0.8805  1.8825  0.7183
 6006TIP3   OH217981   0.844   2.887   5.518 -0.6720  0.3252 -0.4919
 6006TIP3    H117982   0.932   2.849   5.520 -1.2352 -0.9940  1.7393
 6006TIP3    H217983   0.793   2.827   5.463 -0.7780 -0.3434  0.3293
 6007TIP3   OH217984   4.465   6.311   3.178 -0.1285 -0.8961 -0.3539
 6007TIP3    H117985   4.395   6.357   3.132  1.3020  2.2304  0.2777
 6007TIP3    H217986   4.495   6.244   3.116 -0.7781  0.6481 -2.4556
 6008TIP3   OH217987   5.086   2.768   1.759  0.0607 -0.3057  0.1127
 6008TIP3    H117988   5.080   2.797   1.850 -1.9470  0.1985 -0.1469
 6008TIP3    H217989   5.163   2.711   1.758 -0.0185 -0.5334  2.1741
 6009TIP3   OH217990   6.665   3.878   0.956 -0.2996 -0.1126  0.1348
 6009TIP3    H117991   6.634   3.843   1.039 -1.8054 -1.9125 -1.1122
 6009TIP3    H217992   6.654   3.973   0.965 -0.2712 -0.2436  2.0160
 6010TIP3   OH217993   1.903   4.868   1.190  0.0434  0.2875 -0.0667
 6010TIP3    H117994   1.871   4.952   1.221  1.3035  0.6961  0.1788
 6010TIP3    H217995   1.870   4.805   1.254 -0.6061  0.6260 -0.0566
 6011TIP3   OH217996   7.214   2.368   3.933  0.3152  0.0339 -0.3493
 6011TIP3    H117997   7.212   2.273   3.925 -1.6626  0.1546 -2.0686
 6011TIP3    H217998   7.122   2.394   3.930  0.7631  1.9699  0.8595
 6012TIP3   OH217999   3.608   0.651   0.301 -0.1694  0.3774 -0.2145
 6012TIP3    H118000   3.639   0.665   0.390 -0.5343 -0.8056  0.1155
 6012TIP3    H218001   3.565   0.732   0.277  0.7972  1.0676  0.3160
 6013TIP3   OH218002   4.055   4.812   0.770  0.2286 -0.1803 -0.0380
 6013TIP3    H118003   4.101   4.854   0.697 -2.0477 -0.4320 -1.7444
 6013TIP3    H218004   4.093   4.724   0.775 -0.2067 -0.4891 -1.6034
 6014TIP3   OH218005   7.132   0.561   3.499 -0.0032  0.4952 -0.2487
 6014TIP3    H118006   7.101   0.511   3.423 -0.4361  0.1058  0.1763
 6014TIP3    H218007   7.227   0.560   3.490 -0.0034 -0.4042 -0.2611
 6015TIP3   OH218008   4.735   6.444   5.713  0.1598  0.2577  0.0878
 6015TIP3    H118009   4.772   6.470   5.629 -1.4620 -3.5861 -2.0455
 6015TIP3    H218010   4.792   6.373   5.743 -1.2589 -0.7715  0.4265
 6016TIP3   OH218011   6.245   0.572   4.809  0.0733  0.7470 -0.2348
 6016TIP3    H118012   6.193   0.594   4.887 -1.1737  0.3802 -0.9376
 6016TIP3    H218013   6.188   0.593   4.735  0.6292 -0.3760 -1.0215
 6017TIP3   OH218014   6.100   2.890   4.134  0.0379  0.3942 -0.0523
 6017TIP3    H118015   6.144   2.831   4.073 -1.7065  0.8665 -1.8332
 6017TIP3    H218016   6.047   2.832   4.188 -0.3168  0.1750 -0.6310
 6018TIP3   OH218017   1.275   2.514   5.210 -0.2030 -0.3757 -0.3911
 6018TIP3    H118018   1.327   2.537   5.133 -0.1459  1.6931  0.2008
 6018TIP3    H218019   1.331   2.536   5.284 -1.3792  0.5418  0.2462
 6019TIP3   OH218020   0.481   6.252   4.454  0.6540  0.6950 -0.4978
 6019TIP3    H118021   0.496   6.172   4.403  0.8991 -0.5900  1.4827
 6019TIP3    H218022   0.563   6.265   4.502 -1.0675 -1.0943  3.3881
 6020TIP3   OH218023   0.202   4.347   1.096 -0.2398 -0.1560  0.1259
 6020TIP3    H118024   0.250   4.363   1.177  1.4726  0.3312 -0.9368
 6020TIP3    H218025   0.211   4.253   1.081 -0.2311 -0.1815  0.2835
 6021TIP3   OH218026   1.906   0.414   1.403 -0.0239 -0.6098  0.6517
 6021TIP3    H118027   1.820   0.455   1.409 -0.1575 -0.9240  0.9094
 6021TIP3    H218028   1.954   0.449   1.477  0.9652  1.6029 -0.9320
 6022TIP3   OH218029   4.248   0.062   3.672  0.2237  0.2530  0.4045
 6022TIP3    H118030   4.286   0.082   3.758 -0.4113  0.4225  0.6548
 6022TIP3    H218031   4.176   0.002   3.691  1.4703 -1.5296 -0.2443
 6023TIP3   OH218032   3.168   2.537   3.722 -0.7594  0.3764 -0.3138
 6023TIP3    H118033   3.224   2.529   3.644 -0.2263 -2.5403  0.2769
 6023TIP3    H218034   3.226   2.516   3.795 -2.1137 -0.6111  0.5082
 6024TIP3   OH218035   5.687   2.101   0.718 -0.4848  0.9055 -0.5013
 6024TIP3    H118036   5.713   2.178   0.667  1.1612  0.9369  0.3121
 6024TIP3    H218037   5.763   2.043   0.714 -1.3732 -0.2926 -0.3591
 6025TIP3   OH218038   6.347   0.904   1.531  0.0357  0.2640  0.6908
 6025TIP3    H118039   6.260   0.869   1.549  0.0715 -1.4764 -1.9411
 6025TIP3    H218040   6.404   0.827   1.525  1.2697  1.1764  0.1592
 6026TIP3   OH218041   3.015   4.877   0.083 -0.2121 -0.1046  0.2640
 6026TIP3    H118042   3.033   4.939   0.153 -2.7635 -0.5206  1.4029
 6026TIP3    H218043   2.941   4.915   0.035  1.1342 -0.0789 -1.9912
 6027TIP3   OH218044   1.937   3.111   4.737  0.0038  0.3808 -0.0456
 6027TIP3    H118045   1.852   3.073   4.758  0.7580 -1.6603 -0.5158
 6027TIP3    H218046   1.975   3.133   4.822 -0.7748  0.8852  0.1863
 6028TIP3   OH218047   4.771   5.955   5.598 -0.1508 -0.3585 -0.0183
 6028TIP3    H118048   4.856   5.946   5.642  0.5320 -1.6785 -1.5029
 6028TIP3    H218049   4.745   5.865   5.577 -1.0003  0.1490 -1.2353
 6029TIP3   OH218050   2.853   2.940   1.994  0.1698  0.1393 -0.2296
 6029TIP3    H118051   2.921   2.877   1.971 -0.2848 -1.3147  2.0777
 6029TIP3    H218052   2.800   2.949   1.914  3.2561  1.7622 -2.2817
 6030TIP3   OH218053   2.845   2.021   0.763  0.4966  0.0972 -0.5214
 6030TIP3    H118054   2.792   2.038   0.841  1.3992 -1.2596  0.4422
 6030TIP3    H218055   2.783   1.992   0.697 -0.1780  0.3358 -0.0045
 6031TIP3   OH218056   3.638   3.642   4.096 -0.4792 -0.6243  0.4235
 6031TIP3    H118057   3.716   3.588   4.086 -0.4357 -0.2929 -1.3952
 6031TIP3    H218058   3.671   3.729   4.117 -0.2535 -0.2826 -1.1768
 6032TIP3   OH218059   2.445   6.184   4.707  0.7247  0.1424  0.2246
 6032TIP3    H118060   2.514   6.122   4.683 -1.0142 -1.7037 -0.2684
 6032TIP3    H218061   2.365   6.147   4.669 -0.5002  2.4298  0.3943
 6033TIP3   OH218062   5.244   0.641   2.019  0.2726  0.2859 -0.2609
 6033TIP3    H118063   5.337   0.664   2.018  0.7041 -1.1485  1.1459
 6033TIP3    H218064   5.237   0.574   2.087 -1.4007 -1.3305 -1.8950
 6034TIP3   OH218065   1.218   4.564   0.824  0.0551  0.1509 -0.1026
 6034TIP3    H118066   1.238   4.648   0.784 -2.6544 -0.0787 -2.2783
 6034TIP3    H218067   1.149   4.584   0.888 -0.1339 -0.3033 -0.1555
 6035TIP3   OH218068   1.449   0.112   2.721 -0.2788  0.6311 -0.3564
 6035TIP3    H118069   1.379   0.178   2.727 -1.4834 -0.7269  1.5138
 6035TIP3    H218070   1.518   0.146   2.777 -1.4951 -0.3147  1.8142
 6036TIP3   OH218071   1.238   0.947   3.824 -0.0307  0.4392  0.0978
 6036TIP3    H118072   1.228   0.864   3.777 -1.6849 -0.5452  2.0270
 6036TIP3    H218073   1.226   1.014   3.758  0.7310 -0.8455 -1.4089
 6037TIP3   OH218074   0.038   0.245   0.154  0.2673  0.1909  0.1268
 6037TIP3    H118075  -0.027   0.215   0.218 -1.3681  0.5567 -1.2851
 6037TIP3    H218076   0.070   0.328   0.190 -1.3119  0.8628  0.0556
 6038TIP3   OH218077   6.386   2.716   1.712  0.0853 -0.6178 -0.2749
 6038TIP3    H118078   6.432   2.712   1.796  2.2958 -2.6334 -1.4585
 6038TIP3    H218079   6.444   2.767   1.655 -0.6214 -0.6216 -1.0230
 6039TIP3   OH218080   1.990   6.841   0.526 -0.4126 -0.1775  0.2036
 6039TIP3    H118081   1.940   6.766   0.557  0.7342 -1.1121 -0.1061
 6039TIP3    H218082   2.043   6.806   0.454 -0.9341  1.2845 -0.9404
 6040TIP3   OH218083   1.845   6.175   5.680 -0.3876 -0.0591 -0.2608
 6040TIP3    H118084   1.832   6.243   5.614  1.0190 -0.0678 -0.5995
 6040TIP3    H218085   1.932   6.194   5.716 -1.4236  0.4134  2.1782
 6041TIP3   OH218086   4.785   2.282   0.061 -0.3107  0.3507  0.5064
 6041TIP3    H118087   4.752   2.317   0.143 -0.0478 -0.3963  0.9378
 6041TIP3    H218088   4.863   2.334   0.041  0.9538 -0.9230  1.9101
 6042TIP3   OH218089   0.484   6.099   4.718  0.4253 -0.3134  0.4896
 6042TIP3    H118090   0.474   6.158   4.643 -1.4580  0.8682  1.5831
 6042TIP3    H218091   0.399   6.055   4.725  0.3828 -0.0499  2.1782
 6043TIP3   OH218092   1.730   5.282   5.351  0.2625  0.8411 -0.4612
 6043TIP3    H118093   1.800   5.346   5.361 -0.8808  2.5358 -2.4395
 6043TIP3    H218094   1.693   5.271   5.439  2.3951  0.5379  0.4536
 6044TIP3   OH218095   1.411   6.254   0.902 -0.3560  0.0674  0.0033
 6044TIP3    H118096   1.427   6.312   0.828  2.8216 -0.5181  0.0802
 6044TIP3    H218097   1.462   6.175   0.881  1.0854  0.0882  2.9807
 6045TIP3   OH218098   1.314   3.612   0.569 -0.2486  0.1113  0.2001
 6045TIP3    H118099   1.381   3.562   0.523 -0.5493  0.8261 -1.0530
 6045TIP3    H218100   1.329   3.591   0.661  1.0502 -0.5300 -0.1214
 6046TIP3   OH218101   2.933   6.274   1.282  0.3503 -0.2033 -0.3727
 6046TIP3    H118102   3.023   6.303   1.293 -0.0057  0.4867  0.8243
 6046TIP3    H218103   2.880   6.353   1.289 -0.3071 -0.4149 -2.2190
 6047TIP3   OH218104   0.067   2.696   5.425 -0.0417 -0.2255 -0.2180
 6047TIP3    H118105   0.046   2.769   5.483 -2.4921  0.5162 -1.9021
 6047TIP3    H218106   0.099   2.627   5.484  0.7899  1.5997  1.5853
 6048TIP3   OH218107   0.508   1.067   5.451 -0.0445 -0.0359 -0.4489
 6048TIP3    H118108   0.530   1.103   5.537 -1.6609 -0.3183  0.1173
 6048TIP3    H218109   0.467   1.139   5.404 -1.3094 -0.5012 -0.1015
 6049TIP3   OH218110   0.371   0.963   5.006 -0.4195  0.1931 -0.2756
 6049TIP3    H118111   0.339   1.012   5.083  1.0531 -0.1402  0.5872
 6049TIP3    H218112   0.426   0.894   5.043 -1.6155 -1.5078 -1.5370
 6050TIP3   OH218113   5.193   5.976   3.164  0.1807 -0.0098  0.2731
 6050TIP3    H118114   5.227   6.049   3.214  0.5333 -0.2556  0.3952
 6050TIP3    H218115   5.117   6.012   3.117  0.5513  0.5127  0.0702
 6051TIP3   OH218116   5.039   1.513   5.076  0.4025  0.9590 -0.8507
 6051TIP3    H118117   4.943   1.509   5.067  0.3266  1.9085 -0.5835
 6051TIP3    H218118   5.064   1.590   5.025  1.1051  0.3434 -1.4486
 6052TIP3   OH218119   5.102   0.075   1.595  0.3621 -0.6262  0.2066
 6052TIP3    H118120   5.027   0.071   1.654  0.8037 -3.2046  0.7601
 6052TIP3    H218121   5.167   0.127   1.643 -0.5891  0.5395  0.2791
 6053TIP3   OH218122   2.957   0.942   5.256 -0.2368  0.2935  0.4893
 6053TIP3    H118123   2.985   1.032   5.273  0.2067  0.3216 -0.3549
 6053TIP3    H218124   3.023   0.907   5.196  1.2212 -1.5302  2.9647
 6054TIP3   OH218125   0.954   6.551   0.686 -0.5453 -0.2348  0.2389
 6054TIP3    H118126   1.023   6.599   0.732 -0.0432 -1.2675  0.5838
 6054TIP3    H218127   0.886   6.537   0.752 -0.3858 -0.6025  0.3261
 6055TIP3   OH218128   5.870   0.940   4.525 -0.3545 -0.2747  0.3363
 6055TIP3    H118129   5.928   0.905   4.593  0.2829  0.3109  0.1062
 6055TIP3    H218130   5.918   1.014   4.488 -1.2882  0.2882  0.2028
 6056TIP3   OH218131   0.038   5.378   0.561 -0.5094  0.1228 -0.3482
 6056TIP3    H118132   0.128   5.380   0.529  0.5602  0.2967  2.4035
 6056TIP3    H218133   0.037   5.308   0.627 -2.7868 -0.8444 -1.2856
 6057TIP3   OH218134   7.181   1.562   0.159  0.0887 -0.7213 -0.1880
 6057TIP3    H118135   7.123   1.638   0.154 -0.6293 -1.3529 -2.1052
 6057TIP3    H218136   7.125   1.491   0.190  0.8420 -0.4612  1.9698
 6058TIP3   OH218137   1.078   3.904   5.033  0.3883 -0.1275  0.2303
 6058TIP3    H118138   1.069   3.974   5.097 -3.0411 -0.8433  0.6973
 6058TIP3    H218139   0.994   3.858   5.034  1.1604 -1.9439 -2.7701
 6059TIP3   OH218140   1.105   3.702   4.066  0.2023  1.1458 -0.9506
 6059TIP3    H118141   1.054   3.763   4.013  0.0706  0.0529 -2.1357
 6059TIP3    H218142   1.093   3.617   4.023  0.5914  0.3269  0.4973
 6060TIP3   OH218143   5.364   3.440   1.625  0.2813  0.2677 -0.1498
 6060TIP3    H118144   5.453   3.413   1.604 -0.3446 -1.1169 -1.1939
 6060TIP3    H218145   5.310   3.397   1.560 -1.1847  0.9098  0.5926
 6061TIP3   OH218146   1.061   3.068   1.165  0.0007 -0.9436  0.2691
 6061TIP3    H118147   1.125   3.005   1.197 -0.6803 -1.4172  0.7193
 6061TIP3    H218148   1.049   3.046   1.073  2.8560  1.1722 -0.7397
 6062TIP3   OH218149   1.888   2.521   3.373  0.2037 -0.2302 -0.0827
 6062TIP3    H118150   1.859   2.577   3.300  1.2601  1.0264  0.4338
 6062TIP3    H218151   1.901   2.582   3.446  1.0848 -1.1945  0.5855
 6063TIP3   OH218152   1.435   1.478   2.797 -0.0561  0.0138  0.4684
 6063TIP3    H118153   1.512   1.425   2.777 -1.7328 -1.9474 -1.4300
 6063TIP3    H218154   1.382   1.422   2.855 -0.0015  1.4146  1.9352
 6064TIP3   OH218155   7.007   2.429   0.540 -0.6353 -0.0089  0.1345
 6064TIP3    H118156   6.966   2.364   0.483 -1.0009 -0.5136  0.9422
 6064TIP3    H218157   6.954   2.426   0.620  0.4593 -0.0538  0.8793
 6065TIP3   OH218158   5.626   6.473   0.048  0.2108  0.1816  0.0336
 6065TIP3    H118159   5.557   6.509   0.104 -1.9780 -1.1206 -1.6632
 6065TIP3    H218160   5.626   6.530  -0.029  0.4416 -0.3365 -0.3541
 6066TIP3   OH218161   2.387   6.178   3.347  0.4036  0.3071 -0.3571
 6066TIP3    H118162   2.305   6.211   3.310 -0.0739  1.3826  1.5384
 6066TIP3    H218163   2.371   6.086   3.364 -0.1257  0.3179 -0.7662
 6067TIP3   OH218164   6.883   3.722   1.551  0.2721 -0.3756 -0.2534
 6067TIP3    H118165   6.839   3.694   1.631  0.9211 -0.1141  0.2060
 6067TIP3    H218166   6.921   3.807   1.572  1.0341 -0.6132 -0.6127
 6068TIP3   OH218167   4.801   3.324   2.522 -0.1104  0.3096  0.2371
 6068TIP3    H118168   4.774   3.408   2.560 -1.0197 -0.8608  2.4435
 6068TIP3    H218169   4.766   3.259   2.584  0.3142 -1.7024 -1.5362
 6069TIP3   OH218170   0.416   1.885   4.667 -0.4681  0.3365  0.5651
 6069TIP3    H118171   0.453   1.811   4.618 -1.5883  0.3059 -0.2848
 6069TIP3    H218172   0.373   1.939   4.600 -0.8006  1.0639  1.3414
 6070TIP3   OH218173   2.437   6.560   4.950 -0.4902  0.1259 -0.4308
 6070TIP3    H118174   2.425   6.466   4.937 -0.9986 -0.1214  1.5060
 6070TIP3    H218175   2.375   6.583   5.020 -0.0440  1.8157 -0.5323
 6071TIP3   OH218176   4.347   6.554   0.312 -0.2602  0.0858 -0.0946
 6071TIP3    H118177   4.346   6.590   0.401 -0.7775 -0.3489  0.0861
 6071TIP3    H218178   4.428   6.586   0.274 -0.5346  1.1604  0.1723
 6072TIP3   OH218179   7.061   0.238   5.868  0.7226 -0.4097 -0.3424
 6072TIP3    H118180   7.135   0.295   5.889  1.1672 -0.1126 -2.4959
 6072TIP3    H218181   7.073   0.216   5.776 -0.7924 -2.0108 -0.2113
 6073TIP3   OH218182   2.466   6.693   0.395  0.5386 -0.5185 -0.5149
 6073TIP3    H118183   2.559   6.716   0.400  0.4695 -0.3479  0.0465
 6073TIP3    H218184   2.420   6.777   0.400  0.3836 -0.4102 -2.6613
 6074TIP3   OH218185   5.296   3.664   2.818 -0.0150 -0.3538  0.7356
 6074TIP3    H118186   5.310   3.687   2.726 -1.7777  2.0127  0.9639
 6074TIP3    H218187   5.218   3.609   2.817 -0.1596 -0.1497  0.8384
 6075TIP3   OH218188   4.695   5.327   5.914 -0.4132 -0.2893 -0.4601
 6075TIP3    H118189   4.674   5.349   5.823 -0.5939 -1.1797 -0.6445
 6075TIP3    H218190   4.788   5.350   5.923  0.1176 -1.8603 -1.4409
 6076TIP3   OH218191   3.018   4.355   2.520  0.3717  0.0007  0.5961
 6076TIP3    H118192   3.034   4.385   2.431 -1.5211  0.0490  0.2361
 6076TIP3    H218193   3.102   4.318   2.549  1.4404  1.3744 -0.6275
 6077TIP3   OH218194   1.147   3.099   5.513 -0.3161  0.4546 -0.9624
 6077TIP3    H118195   1.101   3.102   5.598  1.3787  1.3735 -0.0195
 6077TIP3    H218196   1.135   3.186   5.477  0.3416  0.5868 -0.8763
 6078TIP3   OH218197   6.762   3.686   1.768 -0.2149 -0.6481 -0.2625
 6078TIP3    H118198   6.667   3.683   1.784 -0.2143  0.2303 -0.0200
 6078TIP3    H218199   6.797   3.736   1.842  0.1531  1.0130 -1.4790
 6079TIP3   OH218200   1.614   3.315   3.752  0.6602  0.3511  0.2108
 6079TIP3    H118201   1.612   3.245   3.686 -2.0564 -0.2123  0.7573
 6079TIP3    H218202   1.704   3.314   3.786  1.3808 -1.1383 -1.5795
 6080TIP3   OH218203   1.671   4.732   4.406  0.2412 -0.8668  0.2454
 6080TIP3    H118204   1.590   4.768   4.371  1.0833 -1.2320 -2.3280
 6080TIP3    H218205   1.643   4.674   4.476 -1.3918  1.7712  1.9449
 6081TIP3   OH218206   4.021   0.925   1.070  0.9611 -0.4443  0.5021
 6081TIP3    H118207   4.072   0.856   1.028 -0.4386 -1.2449  0.0252
 6081TIP3    H218208   3.992   0.981   0.998  0.9067 -0.1871  0.7208
 6082TIP3   OH218209   0.708   5.615   3.078 -0.4578 -0.5299  0.3215
 6082TIP3    H118210   0.797   5.600   3.109  0.0587  0.3352 -0.6759
 6082TIP3    H218211   0.683   5.699   3.117  0.6833  1.2429 -2.4419
 6083TIP3   OH218212   4.767   5.314   1.229  0.0587  0.1124 -0.2232
 6083TIP3    H118213   4.717   5.387   1.192  1.7138  1.4148 -0.0253
 6083TIP3    H218214   4.843   5.306   1.172 -1.0784 -2.9738 -1.5589
 6084TIP3   OH218215   5.805   2.544   5.252  0.6064  0.0544 -0.5266
 6084TIP3    H118216   5.874   2.521   5.315  0.9288  1.2656 -0.4140
 6084TIP3    H218217   5.796   2.466   5.197 -0.9591 -1.8226  2.0990
 6085TIP3   OH218218   6.775   4.154   0.247  0.6210  0.1748  0.0825
 6085TIP3    H118219   6.752   4.127   0.159 -2.5881 -1.0310  1.1358
 6085TIP3    H218220   6.788   4.248   0.241 -1.0814  0.3692 -1.4527
 6086TIP3   OH218221   7.183   3.637   5.831 -0.5436  0.2054 -0.3846
 6086TIP3    H118222   7.103   3.650   5.883 -0.1463  0.2303  0.2391
 6086TIP3    H218223   7.245   3.598   5.893  0.2356  1.0908 -0.5797
 6087TIP3   OH218224   4.969   4.631   3.261  0.3909 -0.5052 -0.1845
 6087TIP3    H118225   4.926   4.548   3.283  0.6376 -0.1488  1.8501
 6087TIP3    H218226   5.061   4.617   3.286  0.6492  0.0487 -0.8038
 6088TIP3   OH218227   3.580   0.045   3.039 -0.4181  0.2371  0.0611
 6088TIP3    H118228   3.521   0.067   3.110  1.6439 -0.9994  2.3008
 6088TIP3    H218229   3.658   0.097   3.055  0.1470 -0.1670 -1.2217
 6089TIP3   OH218230   1.406   1.858   1.400  0.1882 -0.3929 -0.5962
 6089TIP3    H118231   1.334   1.908   1.438  1.1462 -0.1683  0.9662
 6089TIP3    H218232   1.485   1.901   1.431  1.0331 -2.4362  0.2325
 6090TIP3   OH218233   1.482   6.667   1.639  0.1989  0.2395  0.2191
 6090TIP3    H118234   1.404   6.699   1.686 -0.0715 -1.6430  1.1518
 6090TIP3    H218235   1.488   6.575   1.663  1.0149 -0.4210 -2.1990
 6091TIP3   OH218236   5.442   1.078   2.063 -0.0133 -0.3581  0.8384
 6091TIP3    H118237   5.421   1.061   1.971 -0.5483 -0.5568  0.9926
 6091TIP3    H218238   5.477   1.167   2.064  0.9905 -0.7291  0.2933
 6092TIP3   OH218239   0.084   0.868   1.078  0.0430  0.2392 -0.2788
 6092TIP3    H118240   0.151   0.934   1.096  0.4421  0.0313 -0.9217
 6092TIP3    H218241   0.132   0.785   1.075 -0.3326  0.0151 -0.2023
 6093TIP3   OH218242   3.402   1.361   0.253 -0.3042  0.2338  0.3516
 6093TIP3    H118243   3.422   1.452   0.229 -0.9947 -0.1642 -2.0592
 6093TIP3    H218244   3.401   1.314   0.169  0.0738 -2.0357  1.5274
 6094TIP3   OH218245   0.270   3.462   5.644 -0.4268 -0.0354 -0.0184
 6094TIP3    H118246   0.359   3.473   5.611  0.2200 -2.2937  0.7420
 6094TIP3    H218247   0.279   3.463   5.739 -1.5644  1.7219  0.1144
 6095TIP3   OH218248   2.394   2.437   3.883 -0.0466  0.3970  0.3502
 6095TIP3    H118249   2.458   2.427   3.952  0.5261  0.6530 -0.1363
 6095TIP3    H218250   2.423   2.513   3.833  1.5952 -1.8013 -2.3186
 6096TIP3   OH218251   6.286   3.220   5.020 -0.0708  0.2090  0.2584
 6096TIP3    H118252   6.367   3.223   4.969  0.4884 -0.7636  1.0479
 6096TIP3    H218253   6.268   3.312   5.040  0.6472  0.4709 -0.2090
 6097TIP3   OH218254   4.948   5.427   5.570  0.1126  0.3859 -0.1848
 6097TIP3    H118255   5.021   5.432   5.632  0.1511 -1.7338  0.0082
 6097TIP3    H218256   4.991   5.422   5.484  0.1069  1.4427 -0.2612
 6098TIP3   OH218257   1.066   6.540   0.101  0.0286  0.4586 -0.2042
 6098TIP3    H118258   0.989   6.574   0.055 -0.7098  0.2333  0.8352
 6098TIP3    H218259   1.031   6.502   0.181  1.0034 -1.4516 -0.6416
 6099TIP3   OH218260   3.934   4.977   2.433  0.0740  0.1857 -0.0794
 6099TIP3    H118261   3.865   4.942   2.489  1.0957  1.3206  2.0145
 6099TIP3    H218262   3.988   4.901   2.412 -0.5154 -0.3226  0.1937
 6100TIP3   OH218263   2.191   0.062   3.173  0.4619 -0.1477 -0.3595
 6100TIP3    H118264   2.245   0.013   3.235  0.9104  0.5008 -0.2212
 6100TIP3    H218265   2.249   0.079   3.099  0.3895  0.3710 -0.3026
 6101TIP3   OH218266   1.920   6.206   2.227  0.4623 -0.0053  0.5401
 6101TIP3    H118267   1.988   6.140   2.239  0.0197 -0.5264  0.2199
 6101TIP3    H218268   1.968   6.287   2.210  1.0007 -0.4341 -0.0157
 6102TIP3   OH218269   3.196   4.835   3.431  0.2101 -0.6358  0.1771
 6102TIP3    H118270   3.112   4.843   3.476  0.2101 -0.1201  0.0945
 6102TIP3    H218271   3.245   4.771   3.483  0.9839  1.3975  2.1506
 6103TIP3   OH218272   5.579   6.702   3.506  0.0468 -0.2064  0.1148
 6103TIP3    H118273   5.608   6.611   3.509 -1.5034 -0.9096 -2.5302
 6103TIP3    H218274   5.511   6.708   3.573  0.5990 -0.7920  0.7461
 6104TIP3   OH218275   2.842   5.265   5.610 -0.1205 -0.3406  0.1487
 6104TIP3    H118276   2.800   5.321   5.676 -1.1270 -1.6800  0.6998
 6104TIP3    H218277   2.861   5.324   5.537  0.6151  1.0903  1.4447
 6105TIP3   OH218278   2.999   5.504   1.645 -0.3535  0.2180  0.0619
 6105TIP3    H118279   2.953   5.582   1.675 -1.2874 -0.3746  0.2154
 6105TIP3    H218280   3.040   5.468   1.723 -0.8870 -0.0711  0.2151
 6106TIP3   OH218281   0.247   5.388   3.799  0.5532 -0.1690  0.0282
 6106TIP3    H118282   0.199   5.329   3.741  1.5531 -0.6020 -0.3711
 6106TIP3    H218283   0.326   5.340   3.823  0.8801  0.6006  0.5350
 6107TIP3   OH218284   5.043   5.665   1.669  0.0875 -0.2450 -0.2690
 6107TIP3    H118285   5.093   5.594   1.709  1.4740  1.1585  0.6479
 6107TIP3    H218286   5.094   5.744   1.690 -1.3742  1.0129 -1.2544
 6108TIP3   OH218287   3.549   4.546   0.399  0.4343  0.0736  1.0031
 6108TIP3    H118288   3.474   4.593   0.435 -0.0289  0.0591  0.0616
 6108TIP3    H218289   3.520   4.455   0.393 -0.0020  0.2908 -0.6966
 6109TIP3   OH218290   4.756   1.658   0.547 -0.0811  0.6008  0.3284
 6109TIP3    H118291   4.754   1.711   0.468 -1.3117 -1.3918 -1.0847
 6109TIP3    H218292   4.845   1.669   0.581  0.7328  0.9426 -1.7624
 6110TIP3   OH218293   1.582   3.478   0.691 -0.4110  0.5449  0.1395
 6110TIP3    H118294   1.515   3.537   0.728 -0.4184  1.7064 -1.5896
 6110TIP3    H218295   1.651   3.477   0.757 -0.4131  2.5461  0.2556
 6111TIP3   OH218296   6.960   5.610   3.067  0.8381  0.4483  0.5447
 6111TIP3    H118297   6.971   5.570   2.981 -1.0674  0.0955  0.4204
 6111TIP3    H218298   7.007   5.694   3.060 -2.2976  2.2554 -2.2159
 6112TIP3   OH218299   6.829   5.447   4.410 -0.2038  0.1408  0.1928
 6112TIP3    H118300   6.820   5.540   4.432 -0.2881  0.2043 -0.1135
 6112TIP3    H218301   6.770   5.434   4.336  0.2821 -0.0154 -0.1690
 6113TIP3   OH218302   2.173   6.260   4.163  0.1083  0.3995  0.4558
 6113TIP3    H118303   2.182   6.165   4.159 -1.0451  0.2682  0.5034
 6113TIP3    H218304   2.244   6.294   4.108 -0.3366 -0.5482 -0.7470
 6114TIP3   OH218305   5.368   5.735   2.422 -0.5687  0.0415  0.4973
 6114TIP3    H118306   5.367   5.689   2.506  0.2873 -1.3035 -0.1824
 6114TIP3    H218307   5.315   5.813   2.436 -1.5199 -0.8146  1.9042
 6115TIP3   OH218308   6.684   1.250   0.628  0.0142  0.3700  0.9244
 6115TIP3    H118309   6.597   1.235   0.664  0.2870 -0.2196  1.3483
 6115TIP3    H218310   6.686   1.343   0.607 -0.5618  0.4754  1.3313
 6116TIP3   OH218311   2.159   4.655   5.145  0.4290  0.0667 -0.4104
 6116TIP3    H118312   2.214   4.618   5.214  1.6575 -0.5522 -1.6582
 6116TIP3    H218313   2.082   4.597   5.143 -0.0655  0.6287  1.0009
 6117TIP3   OH218314   4.783   6.628   0.803  0.2742 -0.0350 -0.5170
 6117TIP3    H118315   4.806   6.645   0.895  1.4616  1.4012 -1.0379
 6117TIP3    H218316   4.711   6.688   0.785  0.6745  0.3885 -0.7601
 6118TIP3   OH218317   0.101   1.011   0.376  0.4857  0.0296 -0.0803
 6118TIP3    H118318   0.021   0.985   0.331  0.5458  0.1479 -0.2558
 6118TIP3    H218319   0.086   0.986   0.468  1.2943 -2.4544 -0.5335
 6119TIP3   OH218320   7.160   2.365   3.012  0.6072  0.4779 -0.0614
 6119TIP3    H118321   7.142   2.374   2.919  0.7303 -0.1697 -0.1539
 6119TIP3    H218322   7.247   2.404   3.024  1.1705 -0.5949 -0.4636
 6120TIP3   OH218323   2.443   4.767   5.062  0.2239 -0.6093 -0.1966
 6120TIP3    H118324   2.471   4.705   5.130  1.0984  1.0033  0.9864
 6120TIP3    H218325   2.461   4.722   4.980  2.6412 -1.2138  0.5921
 6121TIP3   OH218326   4.592   3.495   4.522 -0.7493  0.0884  0.1733
 6121TIP3    H118327   4.628   3.503   4.610  2.1903  1.5412 -0.9895
 6121TIP3    H218328   4.604   3.582   4.484 -1.6458 -0.5713 -1.7488
 6122TIP3   OH218329   5.087   5.768   1.094  0.1362 -0.1108  0.1961
 6122TIP3    H118330   5.050   5.854   1.111  1.2161  0.7651 -1.6051
 6122TIP3    H218331   5.117   5.737   1.180 -2.1828  0.3119  1.2393
 6123TIP3   OH218332   5.903   4.897   4.503  0.2843  0.5942 -0.6156
 6123TIP3    H118333   5.988   4.924   4.471  0.5366 -1.9889 -2.3668
 6123TIP3    H218334   5.863   4.849   4.431 -1.6161 -0.4069  0.9779
 6124TIP3   OH218335   1.944   3.046   3.274 -0.4396 -0.5617  0.5086
 6124TIP3    H118336   2.026   2.997   3.267  0.8092  1.4331  0.5437
 6124TIP3    H218337   1.922   3.044   3.367  1.3306  1.5621  1.0271
 6125TIP3   OH218338   4.187   1.121   0.147  0.2764  0.1183  0.5510
 6125TIP3    H118339   4.167   1.036   0.107 -0.7002  0.0421  1.1633
 6125TIP3    H218340   4.216   1.175   0.074  1.6808 -0.9535  0.2692
 6126TIP3   OH218341   1.650   5.846   3.783  0.1497 -0.0075 -0.2996
 6126TIP3    H118342   1.698   5.774   3.743 -1.3719 -1.2714  0.0456
 6126TIP3    H218343   1.680   5.849   3.874 -1.1786 -1.5712  0.2469
 6127TIP3   OH218344   0.972   3.212   4.408 -0.2178 -0.5481  0.7623
 6127TIP3    H118345   0.910   3.154   4.365 -1.6974  1.1634  0.4768
 6127TIP3    H218346   1.035   3.234   4.339 -0.0937 -1.1608  0.6690
 6128TIP3   OH218347   3.617   1.146   5.640 -0.1504  0.0817 -0.7849
 6128TIP3    H118348   3.660   1.221   5.600 -1.0383  0.5280 -0.9221
 6128TIP3    H218349   3.673   1.123   5.714 -0.1347  1.1778 -0.4481
 6129TIP3   OH218350   3.747   0.278   5.423  0.1486  0.6919 -0.0748
 6129TIP3    H118351   3.655   0.301   5.438  0.4484  0.7498  1.9090
 6129TIP3    H218352   3.794   0.316   5.497  1.5786 -0.5598 -0.2892
 6130TIP3   OH218353   0.087   3.507   4.365 -0.2428 -0.0689 -0.1247
 6130TIP3    H118354   0.156   3.553   4.317  0.0279  1.1512  1.3556
 6130TIP3    H218355   0.112   3.415   4.363  1.3738  0.3430  0.2829
 6131TIP3   OH218356   2.586   1.122   4.488 -0.0401 -0.2853  0.5931
 6131TIP3    H118357   2.571   1.200   4.543  0.1713 -0.4168  0.8410
 6131TIP3    H218358   2.667   1.085   4.521 -0.7198 -1.2612  1.2472
 6132TIP3   OH218359   6.212   3.041   1.521 -0.0868  0.3267  0.3882
 6132TIP3    H118360   6.161   2.961   1.512  0.7188 -0.0648 -0.9966
 6132TIP3    H218361   6.215   3.078   1.432  0.4114  1.3446  0.8099
 6133TIP3   OH218362   1.989   5.600   0.960  0.1855 -0.1771  0.3555
 6133TIP3    H118363   1.896   5.622   0.967  0.5157  1.3837  0.1020
 6133TIP3    H218364   1.995   5.547   0.880 -0.0550  2.6117 -1.6861
 6134TIP3   OH218365   1.763   0.199   4.514  0.3286 -0.2015  0.3194
 6134TIP3    H118366   1.671   0.201   4.486  0.5488  0.0500 -0.4021
 6134TIP3    H218367   1.759   0.193   4.609 -0.4391  1.1227  0.3916
 6135TIP3   OH218368   0.659   1.594   5.210  0.3111  0.6347 -0.0631
 6135TIP3    H118369   0.722   1.522   5.214  1.5749  1.6325 -1.3093
 6135TIP3    H218370   0.574   1.550   5.206  1.0845 -0.8633 -1.9243
 6136TIP3   OH218371   4.721   4.199   0.572 -0.1335  0.3997 -0.2267
 6136TIP3    H118372   4.653   4.266   0.575 -1.1335 -0.3489 -3.1363
 6136TIP3    H218373   4.674   4.116   0.580  0.3419 -0.1406 -2.3508
 6137TIP3   OH218374   6.433   2.701   4.096 -0.1400  0.5947  0.1964
 6137TIP3    H118375   6.447   2.607   4.104  0.1232  0.5348 -0.7996
 6137TIP3    H218376   6.492   2.728   4.026  1.6008  1.9413  2.0666
 6138TIP3   OH218377   2.976   0.996   0.254  0.3172 -0.3536  0.1206
 6138TIP3    H118378   3.042   1.047   0.301  1.4381 -1.7375  0.1327
 6138TIP3    H218379   2.898   1.052   0.254  1.0786  0.7857  1.2821
 6139TIP3   OH218380   5.189   6.332   2.804  0.4146  0.1199 -0.2157
 6139TIP3    H118381   5.214   6.393   2.873  1.2811  0.0758 -0.4871
 6139TIP3    H218382   5.123   6.379   2.752  0.8449  0.7025 -0.2345
 6140TIP3   OH218383   3.691   4.527   3.807 -0.3879  0.3221 -0.7673
 6140TIP3    H118384   3.730   4.442   3.788 -0.8499 -0.1075  0.1431
 6140TIP3    H218385   3.760   4.576   3.852 -1.2105 -0.8919  2.0161
 6141TIP3   OH218386   2.932   2.394   3.107  0.1147 -0.0194 -0.5321
 6141TIP3    H118387   2.843   2.360   3.121  0.8849 -3.1947 -2.2259
 6141TIP3    H218388   2.920   2.485   3.083 -2.5806 -0.0777  0.2932
 6142TIP3   OH218389   3.503   6.683   3.083 -0.1251  0.1706  0.3172
 6142TIP3    H118390   3.478   6.699   3.174 -1.0607  1.6072 -0.1585
 6142TIP3    H218391   3.559   6.605   3.087 -0.8715 -0.3298  2.0017
 6143TIP3   OH218392   4.017   4.649   4.379  1.0889  0.1262 -0.1742
 6143TIP3    H118393   3.981   4.656   4.291 -0.4818  0.0652  0.4322
 6143TIP3    H218394   4.111   4.638   4.366  0.8476 -0.1590 -1.8431
 6144TIP3   OH218395   3.396   3.496   4.512  0.0680  0.7180 -0.1668
 6144TIP3    H118396   3.348   3.418   4.539 -1.0321  0.8089 -1.7011
 6144TIP3    H218397   3.446   3.522   4.589 -0.4522 -0.8173  0.7259
 6145TIP3   OH218398   0.851   4.219   1.786 -0.9273  0.9830  0.0184
 6145TIP3    H118399   0.855   4.170   1.704 -0.8001  1.0426 -0.0112
 6145TIP3    H218400   0.813   4.157   1.848 -0.3590  0.6927  0.0891
 6146TIP3   OH218401   4.888   3.372   4.945 -0.2652  0.2687 -0.0835
 6146TIP3    H118402   4.984   3.370   4.937 -0.3813 -0.4626 -1.4426
 6146TIP3    H218403   4.861   3.282   4.929 -1.2211  0.5634 -0.1527
 6147TIP3   OH218404   1.606   5.503   5.530  0.0963  0.4882 -0.2683
 6147TIP3    H118405   1.630   5.536   5.443 -0.5005  1.2228 -0.1689
 6147TIP3    H218406   1.614   5.579   5.587  1.0054 -0.1189  0.4344
 6148TIP3   OH218407   2.892   0.040   4.425 -0.1978  0.6535 -0.1289
 6148TIP3    H118408   2.878   0.031   4.331 -0.6699 -0.7882  0.0448
 6148TIP3    H218409   2.814   0.086   4.457 -1.2416 -1.0412 -0.1355
 6149TIP3   OH218410   4.619   0.907   3.266  0.5992  0.0148 -0.1050
 6149TIP3    H118411   4.607   0.841   3.334  1.8306  1.8796  2.0689
 6149TIP3    H218412   4.697   0.879   3.219  0.4071 -0.6966 -0.0110
 6150TIP3   OH218413   3.519   6.553   2.340  0.1030  0.2569 -0.1281
 6150TIP3    H118414   3.517   6.648   2.339 -0.0315  0.2587  0.1906
 6150TIP3    H218415   3.570   6.531   2.418 -1.9923  0.0526  1.2802
 6151TIP3   OH218416  -0.023   6.757   2.440 -0.0363 -0.2364 -0.4317
 6151TIP3    H118417  -0.038   6.825   2.506 -0.1562 -1.3599  0.7214
 6151TIP3    H218418   0.071   6.758   2.426  0.0152 -0.1312 -0.0959
 6152TIP3   OH218419   3.289   4.642   0.388  0.0392  0.2503  0.4424
 6152TIP3    H118420   3.210   4.595   0.413  1.4226 -1.1141  2.6123
 6152TIP3    H218421   3.273   4.732   0.416 -1.1564  0.2808 -0.2459
 6153TIP3   OH218422   4.193   4.591   2.068 -0.0105 -0.1721  0.0772
 6153TIP3    H118423   4.188   4.531   1.993 -2.8707 -0.5111  0.4135
 6153TIP3    H218424   4.114   4.644   2.060  1.0729  1.7133  1.3334
 6154TIP3   OH218425   6.150   2.413   1.499  0.3728  0.0463  0.0610
 6154TIP3    H118426   6.139   2.387   1.591  0.4584 -2.1569 -0.5095
 6154TIP3    H218427   6.141   2.332   1.450 -0.4057  1.3005 -1.9674
 6155TIP3   OH218428   5.941   1.897   2.143 -0.1962  0.4859 -0.1231
 6155TIP3    H118429   5.987   1.951   2.206 -0.0513  1.5495 -1.1048
 6155TIP3    H218430   6.010   1.845   2.101 -0.0650  1.0351 -0.5957
 6156TIP3   OH218431   0.303   4.047   2.680  0.3263 -0.2317  0.2174
 6156TIP3    H118432   0.351   4.031   2.599  0.8659 -0.8316  0.6478
 6156TIP3    H218433   0.269   3.961   2.706 -1.2528  0.2156 -0.2361
 6157TIP3   OH218434   1.275   3.077   2.645  0.1806 -0.2464  0.3943
 6157TIP3    H118435   1.309   3.134   2.714 -1.9634  0.1048  1.2566
 6157TIP3    H218436   1.315   2.992   2.661  1.8567  0.5061  0.3359
 6158TIP3   OH218437   6.354   2.355   3.069  0.9017  0.3749 -0.2065
 6158TIP3    H118438   6.267   2.375   3.035  0.6811  0.4817  0.4097
 6158TIP3    H218439   6.414   2.398   3.008  0.5254  0.2509 -0.6669
 6159TIP3   OH218440   0.330   4.332   5.780  0.0079  0.2617 -0.1416
 6159TIP3    H118441   0.350   4.419   5.747  0.0042 -0.2409 -1.5290
 6159TIP3    H218442   0.338   4.340   5.876 -0.3352  1.8502 -0.2199
 6160TIP3   OH218443   3.488   5.033   3.729 -0.2305 -0.5836 -0.3107
 6160TIP3    H118444   3.485   5.127   3.745 -1.4693 -0.7405  0.4764
 6160TIP3    H218445   3.527   4.996   3.808  0.1938 -0.7453 -0.5920
 6161TIP3   OH218446   4.838   6.613   4.434  0.1973 -0.0008 -0.6505
 6161TIP3    H118447   4.886   6.661   4.367  2.7141  0.4482  1.2864
 6161TIP3    H218448   4.873   6.524   4.430 -1.2412 -0.5725 -1.3172
 6162TIP3   OH218449   5.117   1.432   1.663  0.2306  0.4041 -0.6847
 6162TIP3    H118450   5.028   1.455   1.689 -0.0437 -2.4112  1.1846
 6162TIP3    H218451   5.169   1.508   1.689 -0.9609  0.2415  2.6737
 6163TIP3   OH218452   2.116   5.874   0.895 -0.5646  0.3974  0.4621
 6163TIP3    H118453   2.047   5.938   0.877 -0.8233  0.8341  2.6614
 6163TIP3    H218454   2.070   5.797   0.927 -0.0922  0.5825  1.6613
 6164TIP3   OH218455   3.544   3.199   3.446 -0.2782  0.0948 -0.1932
 6164TIP3    H118456   3.556   3.172   3.537 -0.8660  0.7408  0.0875
 6164TIP3    H218457   3.449   3.199   3.433 -0.1812 -1.0307 -1.1403
 6165TIP3   OH218458   6.090   3.439   2.317  0.1180  0.3530  0.0415
 6165TIP3    H118459   6.066   3.402   2.402  0.8478 -0.5852 -0.1477
 6165TIP3    H218460   6.100   3.533   2.333 -1.1220  0.4045  0.6754
 6166TIP3   OH218461   4.251   6.411   2.631  0.2724  0.0925  0.5456
 6166TIP3    H118462   4.298   6.392   2.712 -0.1332  0.4306  0.8620
 6166TIP3    H218463   4.244   6.326   2.587  0.1755 -0.1516  1.0316
 6167TIP3   OH218464   1.225   1.243   4.593  0.9141  0.1550  0.2369
 6167TIP3    H118465   1.227   1.302   4.668  0.0772  1.4884 -0.7583
 6167TIP3    H218466   1.246   1.157   4.630  0.3664  0.7438  2.0199
 6168TIP3   OH218467   5.580   6.293   3.689 -0.3469  0.1653  1.0079
 6168TIP3    H118468   5.532   6.250   3.618 -0.7378  0.7847  0.8857
 6168TIP3    H218469   5.586   6.227   3.758 -0.5260 -0.2353  0.6472
 6169TIP3   OH218470   4.977   4.619   0.248 -0.0264 -0.1705  0.1946
 6169TIP3    H118471   4.962   4.543   0.193 -1.3505  0.1110  0.1165
 6169TIP3    H218472   4.889   4.647   0.274  0.2619  2.4559 -1.3195
 6170TIP3   OH218473   2.379   2.368   2.592 -0.2145  0.6241 -0.0978
 6170TIP3    H118474   2.404   2.428   2.521 -1.1733  1.5269  0.3012
 6170TIP3    H218475   2.341   2.425   2.659  0.6810 -0.2069  1.1716
 6171TIP3   OH218476   6.431   5.029   3.322 -0.5834  0.3743  0.3371
 6171TIP3    H118477   6.470   5.056   3.239  0.2661  1.4790  1.0562
 6171TIP3    H218478   6.337   5.036   3.309 -0.4340  1.2567 -0.2976
 6172TIP3   OH218479   2.087   6.174   0.072 -0.2359  0.0148 -0.2297
 6172TIP3    H118480   2.117   6.140   0.156 -0.3794 -1.0117 -0.5816
 6172TIP3    H218481   2.092   6.099   0.013  1.8706  1.1599 -1.6710
 6173TIP3   OH218482   5.857   6.615   3.359  0.5620 -0.3386 -0.0854
 6173TIP3    H118483   5.929   6.668   3.392 -0.2760  1.1951 -0.5740
 6173TIP3    H218484   5.814   6.581   3.437  0.9347 -0.0330  0.2548
 6174TIP3   OH218485   0.257   0.574   1.673  0.2819  0.6896  0.3489
 6174TIP3    H118486   0.166   0.578   1.642  0.4277 -0.0263 -0.1962
 6174TIP3    H218487   0.306   0.622   1.606  0.7286 -1.6459 -1.1087
 6175TIP3   OH218488   6.232   6.757   1.404 -0.0663  0.7426 -0.4875
 6175TIP3    H118489   6.181   6.781   1.481  0.3756 -0.2565  0.1351
 6175TIP3    H218490   6.177   6.782   1.330  0.5143  4.0848  0.0299
 6176TIP3   OH218491   2.294   1.793   4.558  0.1903  0.0957 -0.2861
 6176TIP3    H118492   2.235   1.721   4.537 -1.2151  1.1917 -0.2524
 6176TIP3    H218493   2.354   1.798   4.484 -0.9871  0.1630 -1.2601
 6177TIP3   OH218494   7.221   3.078   1.119  0.0423 -0.1378 -0.4336
 6177TIP3    H118495   7.178   3.136   1.057  0.5047  0.2940 -0.3538
 6177TIP3    H218496   7.226   3.129   1.200  0.4675 -0.2799 -0.3688
 6178TIP3   OH218497   3.398   0.359   1.873 -0.2383 -0.1944 -0.2824
 6178TIP3    H118498   3.420   0.267   1.885  0.9294  0.3171  2.0602
 6178TIP3    H218499   3.344   0.382   1.948  0.1879  1.2219 -0.3640
 6179TIP3   OH218500   4.720   0.863   2.942  0.1462  0.3567  0.0256
 6179TIP3    H118501   4.637   0.825   2.971  0.7057  0.7738  2.3848
 6179TIP3    H218502   4.708   0.958   2.951  0.4349  0.5078 -0.9911
 6180TIP3   OH218503   0.086   5.449   0.244  0.3699 -0.0633 -0.1652
 6180TIP3    H118504   0.064   5.537   0.274  0.9286  0.2396 -0.6335
 6180TIP3    H218505   0.001   5.408   0.224  0.0398  0.0084  1.0207
 6181TIP3   OH218506   2.612   1.098   4.901  0.0467  0.2401 -0.2144
 6181TIP3    H118507   2.635   1.131   4.988 -0.0642  2.1581 -0.8682
 6181TIP3    H218508   2.695   1.074   4.862 -0.0322 -2.3449  1.0088
 6182TIP3   OH218509   6.739   4.413   0.220 -0.1272  0.6543 -0.6771
 6182TIP3    H118510   6.746   4.508   0.234  0.2109  0.7527 -1.4778
 6182TIP3    H218511   6.651   4.391   0.251 -0.4402  1.3335 -1.0525
 6183TIP3   OH218512   2.331   4.950   2.716  0.0310 -0.4798  0.7114
 6183TIP3    H118513   2.372   4.988   2.638  1.3099 -0.9318  1.1333
 6183TIP3    H218514   2.370   4.999   2.789 -1.0272 -0.1764  1.0878
 6184TIP3   OH218515   2.378   2.929   1.427 -0.6840  0.5609  0.0194
 6184TIP3    H118516   2.310   2.995   1.418 -1.0625  0.2551  0.5915
 6184TIP3    H218517   2.452   2.964   1.377 -2.2278 -0.5153 -3.2504
 6185TIP3   OH218518   5.901   3.709   1.523  0.2736  0.0248 -0.3005
 6185TIP3    H118519   5.869   3.754   1.445  0.0783  1.0171  0.3440
 6185TIP3    H218520   5.872   3.763   1.596 -0.5986 -1.5143  0.5518
 6186TIP3   OH218521   0.735   2.243   3.930 -0.0546  0.1357 -0.1382
 6186TIP3    H118522   0.672   2.311   3.954  0.4001  0.2350  0.8425
 6186TIP3    H218523   0.804   2.289   3.882  0.2071  0.3675  0.4458
 6187TIP3   OH218524   1.433   4.390   2.435  0.5212 -0.2771 -0.8891
 6187TIP3    H118525   1.466   4.307   2.469  1.0979  1.2424  2.6984
 6187TIP3    H218526   1.511   4.445   2.426 -0.2163  1.4207  1.8513
 6188TIP3   OH218527   7.123   3.167   2.896 -0.3217 -0.6639 -0.0445
 6188TIP3    H118528   7.185   3.168   2.970 -0.8546 -1.6322  0.4326
 6188TIP3    H218529   7.170   3.213   2.826  0.3366 -0.0391  0.7758
 6189TIP3   OH218530   0.205   1.409   4.384 -0.3976  0.8713 -0.0526
 6189TIP3    H118531   0.198   1.493   4.429  0.3094 -0.0739  1.9409
 6189TIP3    H218532   0.143   1.415   4.312  0.6986  3.6362 -0.8920
 6190TIP3   OH218533   6.508   5.498   0.631 -0.5015  0.1121  0.5104
 6190TIP3    H118534   6.443   5.495   0.561 -0.6122  0.4716  0.5970
 6190TIP3    H218535   6.460   5.472   0.710 -0.1884 -1.1021  0.3219
 6191TIP3   OH218536   6.827   3.375   0.887  0.2014 -0.0675  0.8882
 6191TIP3    H118537   6.816   3.312   0.958 -0.0717 -0.4153  0.5362
 6191TIP3    H218538   6.848   3.322   0.810 -0.4892  0.2352  0.4874
 6192TIP3   OH218539   3.491   0.429   5.370  0.0397 -0.7966  0.1476
 6192TIP3    H118540   3.418   0.489   5.358  0.8676  0.2381  0.1236
 6192TIP3    H218541   3.567   0.476   5.337  0.3535 -2.8694 -2.3598
 6193TIP3   OH218542   3.463   1.293   3.701 -0.7365  0.5231  0.5187
 6193TIP3    H118543   3.491   1.356   3.634 -0.0920 -0.3879 -0.0827
 6193TIP3    H218544   3.442   1.214   3.652 -0.6778 -0.0156  1.3591
 6194TIP3   OH218545   0.023   3.495   1.954  0.4853 -0.2468  0.0871
 6194TIP3    H118546  -0.008   3.561   1.892  0.9065  1.9572  2.0948
 6194TIP3    H218547   0.118   3.497   1.947  0.5205 -0.2877  0.5226
 6195TIP3   OH218548   0.148   1.967   4.055 -0.3607 -0.1156  0.0941
 6195TIP3    H118549   0.114   1.914   4.128  0.7992 -0.5702  0.3348
 6195TIP3    H218550   0.222   2.015   4.093 -0.2200  0.2319 -0.6013
 6196TIP3   OH218551   4.237   0.704   3.317  0.2479  0.2627  0.0700
 6196TIP3    H118552   4.296   0.637   3.353  0.0350  0.9936  1.9227
 6196TIP3    H218553   4.195   0.661   3.243  0.4251 -1.5442  0.9382
 6197TIP3   OH218554   3.237   3.743   1.185 -0.2122 -0.2807  0.2442
 6197TIP3    H118555   3.202   3.725   1.098 -0.6910  1.6406 -0.0145
 6197TIP3    H218556   3.166   3.720   1.245 -0.6312  0.2732 -0.0307
 6198TIP3   OH218557   4.683   3.397   5.508 -0.6217 -0.2646  0.4520
 6198TIP3    H118558   4.727   3.464   5.561 -1.3056 -0.6562  1.5550
 6198TIP3    H218559   4.748   3.328   5.497  0.3337  0.8440 -1.2992
 6199TIP3   OH218560   3.974   5.049   1.982 -0.1324 -0.2493 -0.0692
 6199TIP3    H118561   3.898   5.038   1.925  0.9229 -1.0312 -1.4007
 6199TIP3    H218562   3.946   5.015   2.067 -0.8799 -1.7160 -0.8740
 6200TIP3   OH218563   6.706   2.787   2.291  0.3274  0.7121 -0.2792
 6200TIP3    H118564   6.789   2.803   2.247 -0.4626  2.6792 -1.1491
 6200TIP3    H218565   6.723   2.711   2.347  2.1253 -0.1718 -1.9066
 6201TIP3   OH218566   3.455   3.914   0.961  0.2842 -0.2321  0.2267
 6201TIP3    H118567   3.466   3.819   0.963  1.8824 -0.0641  0.4789
 6201TIP3    H218568   3.360   3.927   0.968  0.1208 -1.7767  1.5896
 6202TIP3   OH218569   4.392   3.367   3.362  0.4514  0.0381  0.1202
 6202TIP3    H118570   4.353   3.397   3.444  0.0539 -1.0226  0.3370
 6202TIP3    H218571   4.466   3.426   3.347 -0.0974  0.8943  0.6936
 6203TIP3   OH218572   2.470   2.733   4.274  0.2142 -0.8103 -0.1677
 6203TIP3    H118573   2.543   2.795   4.277 -0.3844 -0.0842 -0.3120
 6203TIP3    H218574   2.393   2.785   4.297 -0.1605 -1.7434  0.8192
 6204TIP3   OH218575   5.016   3.736   2.570 -0.6146 -0.5379  0.1518
 6204TIP3    H118576   4.991   3.801   2.636  0.5603 -0.0290  0.1047
 6204TIP3    H218577   5.045   3.660   2.620  0.7548  0.0267  0.2575
 6205TIP3   OH218578   6.915   2.076   2.230 -0.2651  0.3093 -0.0397
 6205TIP3    H118579   6.889   2.136   2.301 -0.8952 -0.7853  0.6808
 6205TIP3    H218580   6.882   2.117   2.150 -2.0699  0.1921  0.6014
 6206TIP3   OH218581   5.506   4.468   2.857  0.7511 -0.0113  0.3391
 6206TIP3    H118582   5.446   4.518   2.802  2.5455 -1.1490 -2.8880
 6206TIP3    H218583   5.492   4.377   2.832  1.0224 -0.6935  2.4795
 6207TIP3   OH218584   2.818   0.996   4.603  0.7442  0.1620 -0.3406
 6207TIP3    H118585   2.879   1.058   4.562  0.6499  3.4724  3.8130
 6207TIP3    H218586   2.866   0.962   4.679 -0.7802 -1.5423 -0.0694
 6208TIP3   OH218587   6.848   1.106   0.801 -0.2640  0.0916  0.3710
 6208TIP3    H118588   6.823   1.171   0.735 -1.1366 -1.1710 -0.5836
 6208TIP3    H218589   6.914   1.150   0.854 -2.4221  2.6092  1.2019
 6209TIP3   OH218590   0.748   1.551   2.323  0.1752  0.1066  0.1009
 6209TIP3    H118591   0.824   1.589   2.368  0.3097  1.3161 -1.0860
 6209TIP3    H218592   0.769   1.559   2.230 -0.4505 -1.6049 -0.2218
 6210TIP3   OH218593   4.937   1.111   3.158 -0.9565 -0.5772 -0.1212
 6210TIP3    H118594   4.938   1.017   3.174 -1.1302 -0.5547  0.0189
 6210TIP3    H218595   4.936   1.151   3.245 -0.6286 -0.4416 -0.1769
 6211TIP3   OH218596   4.715   4.258   2.180 -0.0312 -0.4501  0.3434
 6211TIP3    H118597   4.712   4.290   2.270 -0.4379  1.4054 -0.2781
 6211TIP3    H218598   4.724   4.163   2.188 -2.2066 -0.5869  2.3604
 6212TIP3   OH218599   6.638   6.055   5.351 -0.6105  0.3835 -0.3289
 6212TIP3    H118600   6.570   6.028   5.413  0.6049  0.1451  0.9583
 6212TIP3    H218601   6.676   6.133   5.390 -0.0441  0.4213 -0.9423
 6213TIP3   OH218602   4.217   1.798   3.661  0.1878 -0.2772 -0.3707
 6213TIP3    H118603   4.265   1.870   3.622 -0.1147 -0.3025 -0.7975
 6213TIP3    H218604   4.143   1.783   3.602  0.0091 -0.6527 -0.0605
 6214TIP3   OH218605   4.893   1.434   0.292 -0.3354  0.0691 -0.4573
 6214TIP3    H118606   4.971   1.387   0.319 -0.8305 -1.4085 -1.4765
 6214TIP3    H218607   4.838   1.368   0.249 -2.5238  0.8466  0.9158
 6215TIP3   OH218608   4.432   0.274   3.571  0.2762  0.1918 -0.4489
 6215TIP3    H118609   4.351   0.223   3.578  0.5327 -0.0549  1.0336
 6215TIP3    H218610   4.452   0.299   3.661  2.0487 -0.0580 -0.7436
 6216TIP3   OH218611   6.114   1.541   5.781  0.4668  0.5264 -0.3090
 6216TIP3    H118612   6.108   1.622   5.831  0.6831  1.1054 -1.1823
 6216TIP3    H218613   6.204   1.511   5.794  0.6344  0.8757 -0.6401
 6217TIP3   OH218614   6.208   6.577   2.794 -0.3216 -0.0258  0.3483
 6217TIP3    H118615   6.138   6.515   2.810  0.2344 -0.6796  0.2836
 6217TIP3    H218616   6.179   6.627   2.718 -0.4026 -0.7773 -0.1239
 6218TIP3   OH218617   0.955   2.784   2.557  0.1572 -0.4556  0.0508
 6218TIP3    H118618   0.965   2.879   2.558 -0.7901 -0.3190 -1.0170
 6218TIP3    H218619   0.915   2.763   2.642  3.3863 -0.3400  1.7593
 6219TIP3   OH218620   2.507   1.923   2.142 -0.2068 -0.2803  1.1300
 6219TIP3    H118621   2.442   1.861   2.176 -0.7504  1.1881  2.9503
 6219TIP3    H218622   2.573   1.929   2.212 -1.2053  2.6383  1.9742
 6220TIP3   OH218623   5.930   4.162   5.033 -0.2052 -0.0823 -0.0699
 6220TIP3    H118624   5.844   4.140   4.998 -0.3634 -0.4491  0.5296
 6220TIP3    H218625   5.979   4.195   4.958 -1.0692  0.7421 -0.2923
 6221TIP3   OH218626   2.238   5.181   0.446 -0.3513 -0.8295  0.1231
 6221TIP3    H118627   2.326   5.210   0.424 -0.4582  0.2079  0.9958
 6221TIP3    H218628   2.181   5.238   0.394 -0.5125 -1.1958 -0.1004
 6222TIP3   OH218629   4.319   4.580   3.283  0.3547 -0.6954  0.2015
 6222TIP3    H118630   4.304   4.666   3.243 -0.3268 -1.1304 -0.5090
 6222TIP3    H218631   4.337   4.522   3.210 -0.7396 -1.4691  0.5121
 6223TIP3   OH218632   2.495   4.791   3.421 -0.2961  0.0234  0.0146
 6223TIP3    H118633   2.434   4.832   3.483  1.7590  2.5492  0.5201
 6223TIP3    H218634   2.478   4.835   3.338 -0.4878 -0.7111 -0.3463
 6224TIP3   OH218635   0.399   0.669   1.444 -0.3217  0.2695 -0.0948
 6224TIP3    H118636   0.455   0.715   1.507 -0.8041 -1.8782  2.0550
 6224TIP3    H218637   0.416   0.712   1.361 -0.0113  3.6217  1.5302
 6225TIP3   OH218638   4.543   0.273   4.849  0.4678 -0.8066  0.1949
 6225TIP3    H118639   4.593   0.340   4.803 -0.2378 -0.6907 -0.4255
 6225TIP3    H218640   4.455   0.310   4.857 -0.0385 -1.8110 -0.5276
 6226TIP3   OH218641   4.523   6.006   4.848  0.2829 -0.0649 -0.2043
 6226TIP3    H118642   4.522   6.102   4.852 -0.9429  0.1077 -2.4691
 6226TIP3    H218643   4.459   5.979   4.913 -3.0447  1.0239 -2.7093
 6227TIP3   OH218644   1.267   0.251   1.446 -0.5365 -0.0844 -0.6242
 6227TIP3    H118645   1.292   0.177   1.501 -0.2798  0.7004  0.3392
 6227TIP3    H218646   1.192   0.219   1.396  0.5467 -1.5028 -1.3942
 6228TIP3   OH218647   4.281   6.702   0.589 -0.1015 -0.0216  0.1121
 6228TIP3    H118648   4.265   6.654   0.670  2.1976 -2.1603 -0.5673
 6228TIP3    H218649   4.208   6.678   0.532 -0.1454 -0.9520  0.5396
 6229TIP3   OH218650   4.356   4.218   3.603 -0.2176  0.2567  0.1718
 6229TIP3    H118651   4.391   4.282   3.541 -1.8799  0.2716 -0.7942
 6229TIP3    H218652   4.269   4.250   3.625  0.2627  0.1586  2.4370
 6230TIP3   OH218653   2.129   5.410   0.315  0.4705 -0.7710  0.0826
 6230TIP3    H118654   2.210   5.459   0.333  0.6660 -0.7537 -0.8123
 6230TIP3    H218655   2.059   5.471   0.337  0.7092  0.0081 -1.1999
 6231TIP3   OH218656   6.993   4.027   4.358  0.6827  0.2952  0.1571
 6231TIP3    H118657   7.050   3.990   4.425  0.7211  0.5571  0.2702
 6231TIP3    H218658   7.046   4.025   4.278  0.7251  0.2144  0.1865
 6232TIP3   OH218659   6.666   4.841   3.305 -0.9911  0.1657  0.2551
 6232TIP3    H118660   6.710   4.842   3.390  0.2500  0.7493 -0.3629
 6232TIP3    H218661   6.587   4.894   3.318 -0.2028  1.2606  0.7676
 6233TIP3   OH218662   2.932   5.704   2.424 -0.1556 -0.0619 -0.1766
 6233TIP3    H118663   2.883   5.767   2.476  0.8019  1.0813 -0.5920
 6233TIP3    H218664   3.024   5.725   2.441  0.1840 -1.0667 -0.6708
 6234TIP3   OH218665   0.573   5.541   0.406 -0.8225  0.3012  0.4925
 6234TIP3    H118666   0.667   5.525   0.404 -0.6114  1.4528  0.1793
 6234TIP3    H218667   0.565   5.624   0.453 -1.6517  0.3805  0.2191
 6235TIP3   OH218668   1.520   2.766   4.009 -0.0233 -0.2140  0.2931
 6235TIP3    H118669   1.604   2.722   4.000 -0.2635 -0.5608 -0.2953
 6235TIP3    H218670   1.520   2.833   3.941 -0.5000 -0.6702 -0.1631
 6236TIP3   OH218671   2.906   3.389   2.546  0.3368 -0.6715  0.0618
 6236TIP3    H118672   2.921   3.363   2.454  1.1386 -0.7036  0.1894
 6236TIP3    H218673   2.927   3.482   2.549  1.2613 -0.8767  0.3995
 6237TIP3   OH218674   4.423   6.737   4.008 -0.1193 -0.3128  0.5513
 6237TIP3    H118675   4.357   6.677   4.042  0.7881 -0.7325  1.6214
 6237TIP3    H218676   4.502   6.718   4.059  0.4429  1.1650  0.2745
 6238TIP3   OH218677   3.879   0.978   4.286 -0.2809  0.2734 -0.2211
 6238TIP3    H118678   3.862   0.884   4.274 -0.3147  0.1244  0.9376
 6238TIP3    H218679   3.930   1.002   4.208 -0.6654 -0.5947 -0.7636
 6239TIP3   OH218680   3.813   5.500  -0.017  0.4202  0.1957 -0.1648
 6239TIP3    H118681   3.854   5.576   0.023  0.9615 -0.5538  0.7204
 6239TIP3    H218682   3.788   5.444   0.056 -0.8620 -0.0474 -0.7512
 6240TIP3   OH218683   3.226   2.372   3.110  0.1419 -0.2762  0.1873
 6240TIP3    H118684   3.244   2.305   3.044  0.5902  2.8877 -3.1520
 6240TIP3    H218685   3.133   2.361   3.130 -0.7441  0.3079 -3.1316
 6241TIP3   OH218686   0.826   0.764   0.494  0.0159  0.4124 -0.1604
 6241TIP3    H118687   0.902   0.789   0.545  1.6578 -0.2547 -2.1410
 6241TIP3    H218688   0.858   0.697   0.434 -2.1944 -0.0568 -0.9334
 6242TIP3   OH218689   3.460   4.552   2.572  0.6538 -0.4504  0.1748
 6242TIP3    H118690   3.460   4.603   2.491 -1.4853 -0.2323  0.2421
 6242TIP3    H218691   3.505   4.607   2.636  1.6453 -0.2751 -0.6628
 6243TIP3   OH218692   2.681   4.448   5.618  0.1790 -0.3883  0.0617
 6243TIP3    H118693   2.604   4.458   5.673 -1.4213  0.9772 -2.2262
 6243TIP3    H218694   2.739   4.389   5.667 -1.2629  0.3831  2.9106
 6244TIP3   OH218695   0.095   0.142   0.774 -0.3100 -0.6521  0.0985
 6244TIP3    H118696   0.182   0.183   0.772 -0.5823 -0.0775 -1.7236
 6244TIP3    H218697   0.093   0.095   0.857  1.7954 -0.7629  0.1467
 6245TIP3   OH218698   1.338   0.683   4.500  0.3469 -0.2847  0.3632
 6245TIP3    H118699   1.377   0.767   4.523  2.2603 -0.7041 -1.0392
 6245TIP3    H218700   1.297   0.652   4.581 -0.5248  2.0126  0.8759
 6246TIP3   OH218701   4.279   5.348   4.229 -0.2743 -0.0168  0.3775
 6246TIP3    H118702   4.361   5.397   4.233 -0.4107  0.4912 -1.5968
 6246TIP3    H218703   4.306   5.257   4.216  0.0896  0.4047 -2.5389
 6247TIP3   OH218704   5.701   2.215   5.174 -0.0414  0.3752 -0.5114
 6247TIP3    H118705   5.784   2.252   5.144  0.2233  0.8013  0.7022
 6247TIP3    H218706   5.719   2.122   5.187  0.3400  0.5174  0.0258
 6248TIP3   OH218707   3.841   2.103   4.638 -0.0559  0.2329 -0.2423
 6248TIP3    H118708   3.840   2.189   4.680 -0.9208 -0.6167  1.5389
 6248TIP3    H218709   3.910   2.055   4.683 -0.7034 -0.5491 -0.0658
 6249TIP3   OH218710   0.393   2.084   4.854  0.4203  0.0623 -0.1006
 6249TIP3    H118711   0.484   2.108   4.870  0.3704  0.7597 -0.7626
 6249TIP3    H218712   0.398   2.014   4.789  0.4659  0.6670 -0.7576
 6250TIP3   OH218713   0.458   0.179   4.796  0.2298 -0.6168  0.4596
 6250TIP3    H118714   0.379   0.159   4.745 -0.0344  0.5041  0.4057
 6250TIP3    H218715   0.515   0.225   4.735 -0.5322  1.7248  1.4109
 6251TIP3   OH218716   3.069   4.244   5.429 -0.1692  0.3702 -0.1063
 6251TIP3    H118717   2.978   4.217   5.421  0.3047 -1.3575 -0.1581
 6251TIP3    H218718   3.104   4.190   5.500  1.5744 -1.2954 -2.1013
 6252TIP3   OH218719   4.571   0.423   5.482 -0.3415  0.0801 -0.6135
 6252TIP3    H118720   4.590   0.405   5.574 -0.0047 -0.8916 -0.8683
 6252TIP3    H218721   4.615   0.506   5.465 -0.6239  0.4011  0.1649
 6253TIP3   OH218722   4.489   3.355   0.220  0.3911 -0.2242  0.6065
 6253TIP3    H118723   4.424   3.324   0.158  0.0661 -3.5267  2.3620
 6253TIP3    H218724   4.439   3.403   0.286  0.6063  2.3287 -0.9527
 6254TIP3   OH218725   5.715   4.208   5.476 -0.1545 -0.2709 -0.1898
 6254TIP3    H118726   5.648   4.207   5.544 -0.0999 -1.2869 -0.1466
 6254TIP3    H218727   5.666   4.204   5.394 -0.1672 -0.4105 -0.1753
 6255TIP3   OH218728   2.144   3.496   3.315 -1.0517 -0.2464  0.2461
 6255TIP3    H118729   2.113   3.571   3.264 -2.2992 -0.6981  0.3203
 6255TIP3    H218730   2.189   3.535   3.390 -0.3821  0.4214 -0.4812
 6256TIP3   OH218731   4.532   0.804   1.356  0.2706 -0.0504 -0.5723
 6256TIP3    H118732   4.625   0.804   1.333  0.2654  1.6009 -0.7130
 6256TIP3    H218733   4.498   0.886   1.321 -0.2406  1.5879  3.2548
 6257TIP3   OH218734   6.315   2.434   0.388  0.3204 -0.0377 -0.0027
 6257TIP3    H118735   6.269   2.460   0.468  0.9642  1.4879 -0.0855
 6257TIP3    H218736   6.392   2.387   0.419 -0.4449 -1.2059  0.1854
 6258TIP3   OH218737   4.247   3.994   0.337  0.2070 -0.1112  0.0328
 6258TIP3    H118738   4.325   3.969   0.386  0.3131 -0.3891 -0.2827
 6258TIP3    H218739   4.175   3.982   0.400  0.3790 -0.1728  0.2186
 6259TIP3   OH218740   2.804   1.042   3.459  0.1155  0.8113  0.3324
 6259TIP3    H118741   2.864   1.034   3.385  0.9827 -0.7132  1.1508
 6259TIP3    H218742   2.842   1.112   3.512  0.6099  0.5523  0.3314
 6260TIP3   OH218743   7.067   1.238   0.140 -0.0848 -0.1184  0.1620
 6260TIP3    H118744   7.013   1.163   0.117  0.0457 -0.1305 -0.1136
 6260TIP3    H218745   7.014   1.288   0.202 -0.2897 -0.2847  0.1206
 6261TIP3   OH218746   0.924   1.702   2.455  0.1720  0.4284 -0.0499
 6261TIP3    H118747   0.904   1.764   2.385 -1.1810  0.4434  0.3077
 6261TIP3    H218748   1.000   1.739   2.499  0.1413  1.1862 -0.6051
 6262TIP3   OH218749   0.492   1.656   4.537  0.1367 -0.3664 -0.2707
 6262TIP3    H118750   0.562   1.628   4.478  0.2212  3.1665 -2.1135
 6262TIP3    H218751   0.412   1.651   4.485 -0.0158  1.3670 -0.2780
 6263TIP3   OH218752   3.218   6.435   1.075 -0.3111  0.2400 -0.0468
 6263TIP3    H118753   3.196   6.425   1.168 -1.7509  1.3949 -0.2093
 6263TIP3    H218754   3.239   6.347   1.045  3.2809  0.1988  2.0392
 6264TIP3   OH218755   2.392   1.257   2.423 -0.1793  0.4440 -0.0570
 6264TIP3    H118756   2.470   1.254   2.478 -0.7135  0.9284  0.7454
 6264TIP3    H218757   2.346   1.175   2.440  0.9578 -0.6028 -1.7759
 6265TIP3   OH218758   7.079   1.099   3.441  0.2237  0.0773 -0.1630
 6265TIP3    H118759   7.100   1.023   3.495 -2.1048 -1.1615 -0.8723
 6265TIP3    H218760   6.983   1.100   3.436  0.2781  0.5505 -3.5816
 6266TIP3   OH218761   4.255   4.932   3.988 -0.6239  0.3975  0.5160
 6266TIP3    H118762   4.286   4.842   4.001 -1.4277  0.1951  1.0898
 6266TIP3    H218763   4.244   4.940   3.893  1.6777  0.6674  0.2101
 6267TIP3   OH218764   1.151   3.639   3.266  0.0918 -0.0973 -0.5432
 6267TIP3    H118765   1.116   3.590   3.340 -0.4127 -0.5057 -1.0371
 6267TIP3    H218766   1.105   3.722   3.268  1.2239  0.5414  0.5242
 6268TIP3   OH218767   6.272   1.595   1.415  0.2898  0.0456  0.0523
 6268TIP3    H118768   6.349   1.539   1.424  0.3858 -0.1800 -1.7020
 6268TIP3    H218769   6.249   1.621   1.504  1.8772 -0.5820  0.6662
 6269TIP3   OH218770   0.418   0.466   3.227  0.1613 -0.1508 -0.0819
 6269TIP3    H118771   0.373   0.393   3.270 -0.4599  0.9045  1.0972
 6269TIP3    H218772   0.365   0.484   3.149 -0.8635  0.3544  0.7085
 6270TIP3   OH218773   5.206   3.507   1.869 -0.4626  0.7912 -0.1716
 6270TIP3    H118774   5.124   3.475   1.834 -1.2586  1.2640  1.1629
 6270TIP3    H218775   5.270   3.492   1.800 -0.9734 -2.5904 -0.0435
 6271TIP3   OH218776   2.791   3.592   4.482 -0.1774  0.1379  0.0599
 6271TIP3    H118777   2.734   3.654   4.527 -1.4282 -1.3131  0.5312
 6271TIP3    H218778   2.749   3.507   4.494  1.2101 -0.7437 -1.0309
 6272TIP3   OH218779   3.941   4.814   1.615  0.6253  1.2712 -0.5520
 6272TIP3    H118780   3.882   4.887   1.599  1.3131  1.6009 -1.7038
 6272TIP3    H218781   3.893   4.756   1.674  0.3186  2.9267  0.8698
 6273TIP3   OH218782   1.778   3.701   5.571  0.0024 -0.1230 -0.3804
 6273TIP3    H118783   1.829   3.782   5.579  1.0474 -0.4649 -2.7650
 6273TIP3    H218784   1.843   3.634   5.549 -1.2441 -0.8818 -1.9525
 6274TIP3   OH218785   6.018   3.099   2.609 -0.1700 -0.3681  0.3562
 6274TIP3    H118786   6.014   3.194   2.611  4.5887  0.1320 -1.3253
 6274TIP3    H218787   5.969   3.075   2.530  1.6345  1.1548 -1.3267
 6275TIP3   OH218788   0.109   1.327   2.282  0.3699 -0.1661  0.0997
 6275TIP3    H118789   0.086   1.247   2.236 -0.2020  0.4041 -0.6425
 6275TIP3    H218790   0.202   1.340   2.262  0.0184  0.3312 -1.3473
 6276TIP3   OH218791   5.934   3.630   5.196 -0.5382  0.2667 -0.0315
 6276TIP3    H118792   5.965   3.721   5.192 -0.9526  0.4298  0.4479
 6276TIP3    H218793   5.994   3.588   5.257 -1.3470  0.6253  1.0332
 6277TIP3   OH218794   3.739   1.085   0.624 -0.1110 -0.2063  0.0401
 6277TIP3    H118795   3.685   1.010   0.648  1.0210 -0.8013  0.7985
 6277TIP3    H218796   3.742   1.139   0.703  0.5673 -0.2861  0.0743
 6278TIP3   OH218797   3.508   1.367   1.360  0.0730  0.2397 -0.5599
 6278TIP3    H118798   3.493   1.423   1.436 -0.4829  0.6810 -0.9881
 6278TIP3    H218799   3.437   1.388   1.300  0.6023  0.0253 -1.2798
 6279TIP3   OH218800   0.234   1.607   4.158  0.1671  0.3419 -0.4195
 6279TIP3    H118801   0.192   1.666   4.221 -0.6889 -0.0050 -0.6455
 6279TIP3    H218802   0.220   1.648   4.073 -2.1092 -1.0596 -0.8022
 6280TIP3   OH218803   0.576   5.611   3.604 -0.0424  0.4380 -0.1196
 6280TIP3    H118804   0.520   5.678   3.564 -1.5688 -0.6075  0.1970
 6280TIP3    H218805   0.554   5.530   3.556  0.7379 -0.1162  0.4416
 6281TIP3   OH218806   2.608   3.394   3.832 -0.1478  0.5858  0.6672
 6281TIP3    H118807   2.526   3.345   3.825 -0.1630  0.5162  1.2560
 6281TIP3    H218808   2.676   3.327   3.832  0.3657  0.7123 -4.5981
 6282TIP3   OH218809   6.428   3.134   3.136  0.0317 -0.0261  0.3072
 6282TIP3    H118810   6.370   3.195   3.090 -0.8348 -0.6654  0.5285
 6282TIP3    H218811   6.426   3.164   3.227 -1.3770 -1.0775  0.6619
 6283TIP3   OH218812   3.834   5.170   2.648 -0.2539  0.2853 -0.0048
 6283TIP3    H118813   3.858   5.118   2.571  0.0119  2.2340 -1.3148
 6283TIP3    H218814   3.918   5.193   2.688 -0.0984  2.7404 -1.5835
 6284TIP3   OH218815   3.723   1.887   5.795  0.5648 -0.0721 -0.4182
 6284TIP3    H118816   3.710   1.979   5.773  0.2289 -0.6401 -2.8970
 6284TIP3    H218817   3.818   1.876   5.796  0.6106  0.3693  0.1960
 6285TIP3   OH218818   1.521   0.838   3.428 -0.2784 -0.2719 -0.3907
 6285TIP3    H118819   1.577   0.834   3.505 -1.2012  0.3956  0.3487
 6285TIP3    H218820   1.580   0.825   3.354  0.8259  0.3082  0.3629
 6286TIP3   OH218821   6.178   5.684   4.973 -0.2968 -0.5544 -0.1218
 6286TIP3    H118822   6.182   5.707   5.066 -0.9862 -0.0630 -0.2031
 6286TIP3    H218823   6.098   5.727   4.942  0.4633  0.1372 -1.1648
 6287TIP3   OH218824   5.279   5.809   5.233  0.0408 -0.1577 -0.3602
 6287TIP3    H118825   5.231   5.872   5.179  1.6110  1.2331 -0.2292
 6287TIP3    H218826   5.212   5.767   5.286 -1.1367  1.0196 -0.8588
 6288TIP3   OH218827   5.484   3.746   5.719 -0.2848  0.6900 -0.0613
 6288TIP3    H118828   5.559   3.743   5.778  0.2802 -0.8264 -0.8041
 6288TIP3    H218829   5.418   3.690   5.759 -0.3016  0.5033 -0.3434
 6289TIP3   OH218830   0.867   4.747   3.367  0.2226 -1.1030  0.1760
 6289TIP3    H118831   0.779   4.729   3.400  0.3043 -1.4484  0.2156
 6289TIP3    H218832   0.880   4.840   3.382  0.5575 -1.3924  1.8703
 6290TIP3   OH218833   1.907   5.189   2.502 -0.0452 -0.5183  0.4663
 6290TIP3    H118834   1.889   5.283   2.504 -1.8384 -0.7942 -0.8603
 6290TIP3    H218835   1.885   5.159   2.590 -2.0529 -0.1035  0.1445
 6291TIP3   OH218836   4.441   5.626   4.732  0.2174  0.1103  0.0861
 6291TIP3    H118837   4.450   5.715   4.698 -0.8757 -0.0460 -0.6227
 6291TIP3    H218838   4.522   5.582   4.705  0.3041  0.5895 -0.4497
 6292TIP3   OH218839   3.172   5.819   0.728 -0.0608  0.1197  0.2305
 6292TIP3    H118840   3.252   5.768   0.717 -0.0401  0.2084 -0.0409
 6292TIP3    H218841   3.107   5.774   0.674  0.1723  0.8500 -0.6712
 6293TIP3   OH218842   5.391   1.151   0.087  0.6582  0.5143 -1.0660
 6293TIP3    H118843   5.441   1.182   0.163  0.9490 -1.0349 -0.5851
 6293TIP3    H218844   5.457   1.128   0.022  0.5948 -1.2591 -0.5399
 6294TIP3   OH218845   6.312   2.797   5.785  0.1683 -0.1621  0.0659
 6294TIP3    H118846   6.378   2.859   5.755  1.8579 -2.3430 -0.9664
 6294TIP3    H218847   6.230   2.828   5.745  1.6448 -0.7906 -3.8440
 6295TIP3   OH218848   5.107   3.920   4.261 -0.3498 -0.4485  0.1703
 6295TIP3    H118849   5.031   3.978   4.268 -0.2574  0.0544 -2.0876
 6295TIP3    H218850   5.149   3.946   4.179  2.7920 -0.1202  1.7344
 6296TIP3   OH218851   3.174   2.515   1.152 -0.4194  0.5971 -0.3636
 6296TIP3    H118852   3.090   2.514   1.197 -0.4131 -0.6261 -0.3484
 6296TIP3    H218853   3.224   2.444   1.193  0.3424  0.8166 -0.8894
 6297TIP3   OH218854   6.212   6.325   0.240  0.1261  0.2658 -0.3047
 6297TIP3    H118855   6.271   6.271   0.187  0.6684  0.4274  0.1334
 6297TIP3    H218856   6.195   6.402   0.186  0.5635  0.3628 -0.3070
 6298TIP3   OH218857   0.693   3.797   5.585 -0.0979 -0.3226  0.3403
 6298TIP3    H118858   0.771   3.773   5.535  0.2253 -0.0124  0.6899
 6298TIP3    H218859   0.717   3.779   5.676  0.1068  1.1758  0.6004
 6299TIP3   OH218860   2.336   0.744   0.713 -0.4841  0.2060  0.3934
 6299TIP3    H118861   2.347   0.833   0.746 -3.0679  1.2644 -1.2886
 6299TIP3    H218862   2.372   0.748   0.624 -1.3896 -0.1527 -0.0021
 6300TIP3   OH218863   3.987   3.553   1.379  0.0103  0.2359  0.3430
 6300TIP3    H118864   4.001   3.522   1.290  0.7286  0.4438  0.3732
 6300TIP3    H218865   3.892   3.551   1.391  0.0147 -2.7167  0.6215
 6301TIP3   OH218866   5.758   3.967   4.872  0.0882 -0.0258 -0.2580
 6301TIP3    H118867   5.683   3.939   4.925 -0.8561  1.1181 -0.9507
 6301TIP3    H218868   5.729   3.956   4.782  0.1509  1.9046 -0.5500
 6302TIP3   OH218869   1.084   6.748   2.106 -0.1938 -0.0830 -0.2546
 6302TIP3    H118870   1.001   6.705   2.086 -0.6967  0.5862  0.3101
 6302TIP3    H218871   1.076   6.773   2.198  0.5601  0.1535 -0.2483
 6303TIP3   OH218872   0.272   3.667   0.213 -0.0543 -0.1920 -0.3863
 6303TIP3    H118873   0.228   3.616   0.280  1.1098 -2.1948 -1.0649
 6303TIP3    H218874   0.236   3.635   0.130  0.9677 -0.1931 -0.8493
 6304TIP3   OH218875   6.763   4.251   0.500 -0.2707  0.3680 -0.1132
 6304TIP3    H118876   6.853   4.283   0.509 -0.0785  0.1234 -1.0438
 6304TIP3    H218877   6.762   4.207   0.415 -1.2004  0.1202  0.0181
 6305TIP3   OH218878   0.959   0.228   0.246 -0.3748 -0.2681 -0.2369
 6305TIP3    H118879   0.954   0.133   0.243 -1.0821 -0.3234  1.4519
 6305TIP3    H218880   1.014   0.247   0.322 -2.0806  0.6568  0.8220
 6306TIP3   OH218881   6.592   1.822   3.345  0.0294 -0.0539 -0.4670
 6306TIP3    H118882   6.686   1.819   3.363  0.0053 -2.2420 -0.3936
 6306TIP3    H218883   6.577   1.745   3.290 -1.7857  0.0460 -0.1497
 6307TIP3   OH218884   3.087   1.783   3.233  0.1329  0.6150 -0.1730
 6307TIP3    H118885   3.105   1.812   3.322 -0.1149  2.6357 -0.7297
 6307TIP3    H218886   2.993   1.800   3.221 -0.2177 -1.2564 -0.2798
 6308TIP3   OH218887   4.069   3.627   2.644 -0.5190 -0.2645  0.1853
 6308TIP3    H118888   3.998   3.565   2.629 -0.6220 -0.0662 -0.1575
 6308TIP3    H218889   4.147   3.583   2.609 -0.7845  0.2633 -1.1451
 6309TIP3   OH218890   7.003   4.358   1.548 -0.1005 -0.2362 -0.2271
 6309TIP3    H118891   7.019   4.444   1.508 -1.7631  0.3831  0.3588
 6309TIP3    H218892   7.018   4.373   1.642  0.6562 -0.8848 -0.2292
 6310TIP3   OH218893   4.061   0.241   1.023  0.0173 -0.1738 -0.2970
 6310TIP3    H118894   4.009   0.321   1.017  0.2208  0.1933  2.0614
 6310TIP3    H218895   4.021   0.191   1.094  0.6469 -1.6295 -0.9171
 6311TIP3   OH218896   0.334   1.066   0.711 -0.2255 -0.1139  0.0222
 6311TIP3    H118897   0.366   0.981   0.677  0.4609 -0.3823  1.2815
 6311TIP3    H218898   0.241   1.067   0.687 -0.0493 -0.8157 -0.7974
 6312TIP3   OH218899   4.840   0.747   4.470 -0.2149 -0.1090  0.3591
 6312TIP3    H118900   4.774   0.716   4.408  0.7867  0.0529 -0.8098
 6312TIP3    H218901   4.830   0.842   4.469  0.4835 -0.0341 -0.3514
 6313TIP3   OH218902   5.583   1.929   3.310 -0.2038 -0.0622 -0.3323
 6313TIP3    H118903   5.589   1.897   3.220 -0.2902  0.5414 -0.5591
 6313TIP3    H218904   5.598   1.852   3.364 -0.9925 -0.6005 -0.8593
 6314TIP3   OH218905   3.915   2.651   1.593 -0.6247 -0.6909  0.2987
 6314TIP3    H118906   3.854   2.589   1.632 -1.7174 -0.6259 -1.1821
 6314TIP3    H218907   4.001   2.626   1.627 -1.0642 -2.8467 -0.0223
 6315TIP3   OH218908   0.746   2.277   5.500 -0.0126 -0.1023  0.3518
 6315TIP3    H118909   0.788   2.335   5.563  0.7942 -0.0041 -0.2611
 6315TIP3    H218910   0.771   2.311   5.414 -1.3721 -0.0357 -0.0406
 6316TIP3   OH218911   4.500   3.407   4.973  0.7023  0.1170 -0.0302
 6316TIP3    H118912   4.518   3.347   4.900 -0.3091  1.0784 -1.1020
 6316TIP3    H218913   4.575   3.467   4.973  0.0114  1.0314 -1.2722
 6317TIP3   OH218914   5.157   6.488   1.473 -0.0211 -0.5349  0.0839
 6317TIP3    H118915   5.107   6.452   1.400 -2.2613  1.8801  0.2943
 6317TIP3    H218916   5.126   6.439   1.550  0.7100 -1.5441 -0.2359
 6318TIP3   OH218917   2.110   6.045   2.553 -0.1808  0.0200  0.3409
 6318TIP3    H118918   2.033   5.997   2.521  0.0570  0.4552 -0.9623
 6318TIP3    H218919   2.089   6.066   2.644 -1.5899  0.0917  0.0245
 6319TIP3   OH218920   5.220   3.461   2.135 -0.1063 -0.1145  0.2424
 6319TIP3    H118921   5.214   3.366   2.143 -3.6559 -0.0255  0.0272
 6319TIP3    H218922   5.236   3.476   2.042 -1.6067 -0.5297 -0.1128
 6320TIP3   OH218923   5.262   1.867   4.733  0.1180 -0.2959 -0.3822
 6320TIP3    H118924   5.305   1.915   4.662  1.9863  0.0133  0.8758
 6320TIP3    H218925   5.218   1.935   4.785 -1.3648 -0.5360 -1.2592
 6321TIP3   OH218926   1.676   2.053   1.149  0.6285  0.0549  0.3416
 6321TIP3    H118927   1.605   2.117   1.144  0.8748  0.3354  0.4136
 6321TIP3    H218928   1.689   2.038   1.242  1.8587  1.3554  0.4139
 6322TIP3   OH218929   0.470   2.506   1.033  0.1145  0.0089 -0.1053
 6322TIP3    H118930   0.512   2.421   1.040  1.7382  0.4276 -3.2376
 6322TIP3    H218931   0.417   2.501   0.953 -2.3636  0.9843  1.3327
 6323TIP3   OH218932   7.192   3.212   2.621  0.1099  0.7154 -0.3403
 6323TIP3    H118933   7.219   3.304   2.626  0.9128  0.4807 -0.1503
 6323TIP3    H218934   7.148   3.205   2.536 -0.9074  1.5093  0.1043
 6324TIP3   OH218935   2.219   1.613   4.196  0.1406 -0.6671 -0.6059
 6324TIP3    H118936   2.193   1.577   4.281 -0.8843 -0.8916 -0.9971
 6324TIP3    H218937   2.283   1.681   4.217 -1.2359  0.3652  0.4733
 6325TIP3   OH218938   4.242   2.614   0.232  0.0899  0.1823  0.0685
 6325TIP3    H118939   4.268   2.522   0.224 -1.5269 -0.1816 -1.3993
 6325TIP3    H218940   4.326   2.661   0.237  1.0383 -1.1423 -1.9221
 6326TIP3   OH218941   5.748   2.347   2.375  0.0087  0.1521 -0.3225
 6326TIP3    H118942   5.781   2.257   2.376 -0.5912 -0.0760 -0.0182
 6326TIP3    H218943   5.788   2.389   2.451 -2.6479 -0.9948  1.8804
 6327TIP3   OH218944   5.501   4.493   3.165 -0.1325  0.2916  0.1920
 6327TIP3    H118945   5.490   4.514   3.072 -1.0249  0.1244  0.2453
 6327TIP3    H218946   5.511   4.398   3.167 -2.3838 -0.0107  0.4019
 6328TIP3   OH218947   0.394   5.921   5.629  0.6627  0.1253  0.3670
 6328TIP3    H118948   0.425   5.979   5.699 -0.7549  0.4466  0.7673
 6328TIP3    H218949   0.413   5.833   5.661  2.1572  0.3232  0.0880
 6329TIP3   OH218950   0.435   2.081   5.275  0.1809 -0.0612  0.3649
 6329TIP3    H118951   0.362   2.103   5.217  0.0099  0.0235  0.6123
 6329TIP3    H218952   0.500   2.149   5.258  0.8359 -0.9624 -0.9545
 6330TIP3   OH218953   4.227   1.083   2.840  0.4422 -0.0754 -0.3485
 6330TIP3    H118954   4.178   1.164   2.856  0.9943  0.2968 -0.5181
 6330TIP3    H218955   4.188   1.019   2.900  0.4603  0.4976  0.2868
 6331TIP3   OH218956   1.468   6.169   3.336  0.4955 -0.3767  0.6845
 6331TIP3    H118957   1.549   6.203   3.374 -0.2245  1.2103  0.8694
 6331TIP3    H218958   1.399   6.197   3.397 -0.5421  1.1713 -1.0873
 6332TIP3   OH218959   1.171   4.380   3.940  0.3106 -0.3048 -0.3107
 6332TIP3    H118960   1.263   4.383   3.969  0.8235 -2.2701 -1.5418
 6332TIP3    H218961   1.122   4.415   4.015  1.8168 -2.1439  1.6882
 6333TIP3   OH218962   7.108   2.069   0.665  0.4171 -0.0423 -0.5069
 6333TIP3    H118963   7.015   2.070   0.690  0.6836  0.7058  0.5421
 6333TIP3    H218964   7.155   2.079   0.748  1.3861  2.0279 -1.2301
 6334TIP3   OH218965   3.032   3.524   4.925 -0.6947  0.0409 -0.5313
 6334TIP3    H118966   2.979   3.586   4.975 -0.5628 -0.4448  0.2200
 6334TIP3    H218967   3.122   3.554   4.937 -0.4191 -1.4043  1.4949
 6335TIP3   OH218968   5.370   5.280   1.271 -0.5094 -0.0416  0.0354
 6335TIP3    H118969   5.422   5.286   1.191 -0.4850 -1.6023 -0.1076
 6335TIP3    H218970   5.357   5.186   1.284  0.0852  0.1173  2.2543
 6336TIP3   OH218971   1.198   2.065   2.180  0.2997  0.6981 -0.2861
 6336TIP3    H118972   1.215   2.140   2.124  1.4604  0.3099 -0.4729
 6336TIP3    H218973   1.201   1.989   2.121  1.2147  0.3198  0.2215
 6337TIP3   OH218974   6.197   0.930   1.296  0.1965 -0.2483  0.3859
 6337TIP3    H118975   6.154   0.846   1.280  1.7525 -1.0513  0.2868
 6337TIP3    H218976   6.249   0.916   1.375  0.4898  0.6186  0.3642
 6338TIP3   OH218977   3.987   0.944   4.022 -0.2587 -0.2748 -0.1358
 6338TIP3    H118978   4.067   0.927   3.971 -0.0374 -0.4840  0.2771
 6338TIP3    H218979   3.950   0.857   4.038 -1.6190 -0.0818 -1.9636
 6339TIP3   OH218980   7.205   1.843   2.768 -0.0470  0.2278 -0.1935
 6339TIP3    H118981   7.233   1.812   2.854 -1.0707  2.3478  0.9667
 6339TIP3    H218982   7.139   1.779   2.740  0.3278 -0.5089  0.5744
 6340TIP3   OH218983   5.239   6.274   5.147 -0.3987 -0.6493  0.1947
 6340TIP3    H118984   5.223   6.331   5.072 -1.4572 -0.5159  0.5131
 6340TIP3    H218985   5.175   6.302   5.213  1.9352  0.7792  2.0466
 6341TIP3   OH218986   6.081   6.159   1.351  0.0768  0.0080  0.4452
 6341TIP3    H118987   6.063   6.235   1.408 -1.2277 -1.1108  1.6149
 6341TIP3    H218988   5.994   6.127   1.326  0.6198  0.0430 -1.6700
 6342TIP3   OH218989   2.793   2.057   1.521  0.1055  0.5074 -0.2735
 6342TIP3    H118990   2.813   1.969   1.488  1.4947  1.2667 -1.5564
 6342TIP3    H218991   2.727   2.092   1.461 -0.1215  0.5257 -0.0204
 6343TIP3   OH218992   0.054   4.294   1.527 -0.5943 -0.0548 -0.1351
 6343TIP3    H118993   0.109   4.224   1.492 -0.5682  0.3118 -0.8394
 6343TIP3    H218994  -0.019   4.248   1.569  0.3787 -0.5627  1.0843
 6344TIP3   OH218995   5.368   4.633   4.771  0.6931 -0.2896 -0.2647
 6344TIP3    H118996   5.384   4.689   4.847  3.0246 -1.8135  0.4707
 6344TIP3    H218997   5.319   4.559   4.806  0.7993 -0.4595 -0.4753
 6345TIP3   OH218998   6.497   2.105   3.038 -0.1532  0.2781 -0.1742
 6345TIP3    H118999   6.440   2.182   3.044  0.0749  0.3988  0.5630
 6345TIP3    H219000   6.583   2.141   3.016 -0.0352  0.2482  0.2225
 6346TIP3   OH219001   3.931   5.847   4.068 -0.0470  0.3076 -0.3833
 6346TIP3    H119002   3.902   5.859   4.158 -1.7330 -0.9845 -0.6933
 6346TIP3    H219003   4.024   5.826   4.075  0.2022  1.7049  0.9062
 6347TIP3   OH219004   2.829   3.915   2.320  0.7078  0.4151 -0.4980
 6347TIP3    H119005   2.859   3.831   2.286 -1.8575 -0.3360 -1.1828
 6347TIP3    H219006   2.905   3.973   2.314  2.8235 -2.0293  0.8276
 6348TIP3   OH219007   3.143   3.735   3.526 -0.0797 -0.0785  0.7114
 6348TIP3    H119008   3.098   3.774   3.601 -0.4155  1.2661 -0.1490
 6348TIP3    H219009   3.152   3.807   3.464  0.3913 -1.1075 -0.4508
 6349TIP3   OH219010   0.337   0.246   4.139 -0.2064  0.0508  0.2719
 6349TIP3    H119011   0.298   0.333   4.153  0.4753  0.5305 -0.6835
 6349TIP3    H219012   0.411   0.262   4.080  1.8723 -0.7188  2.4894
 6350TIP3   OH219013   5.948   1.866   4.178 -0.2112  0.5277 -0.1583
 6350TIP3    H119014   5.941   1.960   4.161 -1.6779  0.5419  0.3451
 6350TIP3    H219015   5.923   1.856   4.269 -2.0002 -0.5149 -0.7103
 6351TIP3   OH219016   6.685   6.570   4.276 -0.1787  0.4717 -0.1203
 6351TIP3    H119017   6.763   6.613   4.311 -0.1533  0.5561 -0.2804
 6351TIP3    H219018   6.707   6.477   4.274 -0.3301  0.4192  0.4820
 6352TIP3   OH219019   4.076   3.420   5.740  0.0147 -0.1565  0.4386
 6352TIP3    H119020   3.988   3.448   5.714  0.0365 -0.3389  0.1643
 6352TIP3    H219021   4.061   3.356   5.810 -0.0879 -0.4838  0.1209
 6353TIP3   OH219022   1.958   1.149   2.521  0.1790 -0.1405 -0.4444
 6353TIP3    H119023   1.884   1.091   2.501  1.1926 -1.1390 -1.4816
 6353TIP3    H219024   1.923   1.237   2.512 -1.1807 -0.5851  0.2806
 6354TIP3   OH219025   0.084   6.827   4.136  0.1874 -0.5655 -0.2473
 6354TIP3    H119026   0.133   6.786   4.207  0.5473 -0.8170 -0.6387
 6354TIP3    H219027   0.014   6.766   4.116 -0.7539  0.1280  0.8129
 6355TIP3   OH219028   6.276   2.015   4.396  0.1147 -0.8285  0.5174
 6355TIP3    H119029   6.285   1.951   4.467  0.5879 -2.3789 -0.9090
 6355TIP3    H219030   6.181   2.021   4.382  0.1051 -1.6725  0.2371
 6356TIP3   OH219031   0.597   5.442   5.903 -0.0324  0.0599  0.3487
 6356TIP3    H119032   0.527   5.497   5.938  0.0555  0.6381 -0.3619
 6356TIP3    H219033   0.568   5.418   5.815 -0.5141 -1.8634  0.9838
 6357TIP3   OH219034   4.518   4.086   1.387  0.1958 -0.5057 -0.3783
 6357TIP3    H119035   4.430   4.054   1.366  0.3004 -1.5516  0.6761
 6357TIP3    H219036   4.563   4.010   1.423  1.8024 -0.1852 -1.6284
 6358TIP3   OH219037   1.441   4.260   4.015  0.3123 -0.2121  0.5435
 6358TIP3    H119038   1.525   4.304   4.032  0.0679  0.1163  0.9129
 6358TIP3    H219039   1.459   4.205   3.939  0.9359 -0.3425  0.7726
 6359TIP3   OH219040   4.418   3.507   3.839 -0.0209  0.6468 -0.0288
 6359TIP3    H119041   4.379   3.496   3.752 -0.4224 -3.6184  0.4757
 6359TIP3    H219042   4.507   3.473   3.830  0.2253  0.9595  1.0569
 6360TIP3   OH219043   6.985   1.823   3.637 -0.8566  0.0464 -0.2097
 6360TIP3    H119044   7.012   1.746   3.687 -1.1191 -0.5915 -1.0171
 6360TIP3    H219045   6.971   1.891   3.703  1.2892 -0.0030  0.3627
 6361TIP3   OH219046   6.439   2.928   0.382 -0.0346  0.1644  0.1750
 6361TIP3    H119047   6.443   2.933   0.478  2.9297  1.1580  0.0990
 6361TIP3    H219048   6.427   2.835   0.363  2.1581 -0.4598  1.5441
 6362TIP3   OH219049   5.793   6.448   1.980  0.0985 -0.1519 -0.4002
 6362TIP3    H119050   5.732   6.519   2.000 -0.1644 -0.3071 -0.6514
 6362TIP3    H219051   5.742   6.386   1.928  0.1615 -0.7935  0.2835
 6363TIP3   OH219052   3.264   4.252   3.832 -0.0119 -0.4015  0.3080
 6363TIP3    H119053   3.196   4.309   3.867 -0.0281 -0.0213 -0.3342
 6363TIP3    H219054   3.316   4.309   3.775  1.1844 -0.5464  1.2110
 6364TIP3   OH219055   3.901   1.452   2.524  0.3446 -0.1282  0.0241
 6364TIP3    H119056   3.863   1.505   2.595  0.0696 -0.1644 -0.0945
 6364TIP3    H219057   3.929   1.515   2.459  2.2904  0.0432  0.9496
 6365TIP3   OH219058   1.502   1.945   5.487 -0.5510 -0.1138 -0.1199
 6365TIP3    H119059   1.514   1.912   5.398 -1.6605 -0.1177 -0.2867
 6365TIP3    H219060   1.547   1.882   5.543 -0.2828 -0.3872 -0.6373
 6366TIP3   OH219061   6.434   6.343   2.311  0.2716 -0.1296  0.2063
 6366TIP3    H119062   6.413   6.421   2.363 -2.6708 -0.1242 -0.7891
 6366TIP3    H219063   6.380   6.351   2.233 -0.2542 -3.2149  0.1326
 6367TIP3   OH219064   3.038   0.294   0.349 -0.6604  0.0574 -0.0453
 6367TIP3    H119065   2.958   0.341   0.327 -2.5335 -2.6325  0.5869
 6367TIP3    H219066   3.011   0.203   0.360  2.1485 -0.6677  2.0776
 6368TIP3   OH219067   2.058   2.843   4.512 -0.2513 -0.4599  0.1029
 6368TIP3    H119068   1.995   2.916   4.504 -1.4882 -1.5584 -0.4921
 6368TIP3    H219069   2.010   2.776   4.561 -0.0583 -1.8653 -1.5508
 6369TIP3   OH219070   4.597   6.244   2.553  0.5992  0.2481 -0.2477
 6369TIP3    H119071   4.546   6.169   2.523  1.6101 -0.2131 -0.8885
 6369TIP3    H219072   4.545   6.321   2.529 -0.8672 -0.2339  1.2059
 6370TIP3   OH219073   1.239   1.841   5.115  0.0082  0.0614 -0.3932
 6370TIP3    H119074   1.258   1.933   5.097  0.2522  0.0337 -0.2815
 6370TIP3    H219075   1.153   1.841   5.156 -0.2891  0.1810 -1.0109
 6371TIP3   OH219076   1.703   0.547   5.087 -0.0239  0.5525  0.5461
 6371TIP3    H119077   1.705   0.579   4.997  0.2190 -0.8100  0.0398
 6371TIP3    H219078   1.782   0.584   5.127  1.3007 -0.9259 -0.5861
 6372TIP3   OH219079   1.015   1.063   5.427 -0.2461 -0.2951  0.1646
 6372TIP3    H119080   1.031   1.027   5.515  1.3517 -0.5336 -0.1874
 6372TIP3    H219081   0.947   1.006   5.390 -0.4713 -0.5902  1.0044
 6373TIP3   OH219082   7.159   0.574   4.811 -0.3663  0.0470  0.3637
 6373TIP3    H119083   7.173   0.663   4.844 -1.5849  0.9158 -1.3108
 6373TIP3    H219084   7.179   0.517   4.885  2.8678  1.5298  0.8201
 6374TIP3   OH219085   2.082   4.898   2.824  0.1816  0.1815  0.3408
 6374TIP3    H119086   2.156   4.854   2.782  0.8373  0.1539  1.4789
 6374TIP3    H219087   2.114   4.986   2.845 -0.0338  0.1147  0.9936
 6375TIP3   OH219088   2.556   3.607   1.210 -0.0669  0.4431  0.3577
 6375TIP3    H119089   2.605   3.684   1.239 -1.4982  0.8840  1.7130
 6375TIP3    H219090   2.513   3.575   1.289  0.3056 -1.6359 -0.2288
 6376TIP3   OH219091   0.045   1.530   5.230  0.0471 -0.4167  0.0237
 6376TIP3    H119092   0.009   1.610   5.192 -1.7324 -1.2693 -0.1709
 6376TIP3    H219093   0.126   1.558   5.272  0.9785  0.9466 -2.4911
 6377TIP3   OH219094   7.223   1.162   4.411  0.2638 -0.0947 -0.2779
 6377TIP3    H119095   7.246   1.233   4.351  1.0221 -0.5563 -0.5470
 6377TIP3    H219096   7.152   1.116   4.366 -2.0564  1.9472  1.0160
 6378TIP3   OH219097   6.571   4.235   1.898  0.3397 -0.1788 -0.1337
 6378TIP3    H119098   6.482   4.269   1.908  1.1229  2.0120  0.1479
 6378TIP3    H219099   6.569   4.148   1.938 -1.1430  0.7461  2.0197
 6379TIP3   OH219100   5.607   6.319   4.328  0.0523 -0.1220  1.0095
 6379TIP3    H119101   5.571   6.387   4.271  0.5422 -1.5110 -1.0862
 6379TIP3    H219102   5.657   6.366   4.394 -1.7558  1.6395  1.2082
 6380TIP3   OH219103   4.172   6.281   4.186 -0.0564 -0.1921  0.0065
 6380TIP3    H119104   4.262   6.296   4.213  0.1196 -2.5234  0.8780
 6380TIP3    H219105   4.179   6.238   4.100 -0.2534 -1.5445  0.6443
 6381TIP3   OH219106   4.461   4.056   3.358 -0.1343  0.2120 -0.1091
 6381TIP3    H119107   4.438   4.139   3.318  0.5682  1.3724  1.7758
 6381TIP3    H219108   4.379   4.023   3.395 -0.4010  0.0722 -0.8054
 6382TIP3   OH219109   4.342   0.648   3.802  0.4528  0.3983  0.3415
 6382TIP3    H119110   4.370   0.556   3.802 -3.3076 -0.9029 -0.4612
 6382TIP3    H219111   4.298   0.660   3.718  0.5771  2.8856  0.5620
 6383TIP3   OH219112   2.972   4.911   1.340  0.2696 -0.3488  0.1841
 6383TIP3    H119113   3.031   4.961   1.285  0.3657 -0.4295  0.2142
 6383TIP3    H219114   2.889   4.959   1.336  0.7558  0.6403  1.4081
 6384TIP3   OH219115   7.136   5.016   3.059  0.2135 -0.9110  0.4945
 6384TIP3    H119116   7.059   5.073   3.063  1.0281  0.2350  0.2667
 6384TIP3    H219117   7.153   5.004   2.965  1.4455  0.4493  0.5128
 6385TIP3   OH219118   3.748   3.815   1.799  0.1867  0.6128 -0.2409
 6385TIP3    H119119   3.698   3.897   1.794 -2.0326 -0.7408 -1.5084
 6385TIP3    H219120   3.803   3.816   1.720  0.1751  0.8708 -0.2464
 6386TIP3   OH219121   1.905   3.475   2.154 -0.2409  0.6084  0.5934
 6386TIP3    H119122   1.810   3.470   2.147 -0.2047  1.4736 -0.9351
 6386TIP3    H219123   1.936   3.480   2.064  1.4965 -2.7615  0.8430
 6387TIP3   OH219124   2.716   0.910   2.776 -0.2177  0.3774  0.2637
 6387TIP3    H119125   2.734   0.954   2.693  0.7053  0.0925  0.3114
 6387TIP3    H219126   2.666   0.975   2.826  1.0151  1.3440  0.2831
 6388TIP3   OH219127   1.184   5.767   4.097 -0.1872 -0.5579  0.1018
 6388TIP3    H119128   1.255   5.744   4.156  0.7324  1.3593 -0.1774
 6388TIP3    H219129   1.207   5.854   4.064 -1.6282 -0.7569 -1.6069
 6389TIP3   OH219130   4.509   5.724   2.648  0.3933  0.0211  0.3836
 6389TIP3    H119131   4.453   5.747   2.721 -2.6076 -2.1275 -1.0468
 6389TIP3    H219132   4.543   5.637   2.670  0.4991 -0.0981 -0.2246
 6390TIP3   OH219133   1.624   2.065   3.369 -0.1728  0.0980  0.2011
 6390TIP3    H119134   1.624   2.017   3.287 -1.1879  1.2646 -0.5244
 6390TIP3    H219135   1.713   2.057   3.402 -0.5222 -3.0495  0.6294
 6391TIP3   OH219136   5.180   4.950   3.861  0.0098  0.4326  0.1569
 6391TIP3    H119137   5.147   5.038   3.840  0.1565  0.7261  1.1146
 6391TIP3    H219138   5.263   4.944   3.813 -0.9900  0.0064 -1.5917
 6392TIP3   OH219139   5.137   6.176   1.326 -0.0807  0.3570 -0.2683
 6392TIP3    H119140   5.165   6.101   1.378 -2.0295  0.4491  0.9736
 6392TIP3    H219141   5.219   6.221   1.304  1.2566 -2.6104 -1.9322
 6393TIP3   OH219142   6.449   4.203   5.381  0.3138 -0.5787 -0.0487
 6393TIP3    H119143   6.428   4.256   5.305 -1.0277  3.0986  2.6145
 6393TIP3    H219144   6.375   4.143   5.390  0.6964 -1.3899 -1.7410
 6394TIP3   OH219145   5.858   2.005   5.821  0.1149  0.0017  0.1211
 6394TIP3    H119146   5.779   1.952   5.829 -0.0828  0.0060 -1.5823
 6394TIP3    H219147   5.845   2.077   5.883 -0.1003 -1.2942  1.6548
 6395TIP3   OH219148   2.068   4.454   3.570 -0.0429  0.4282  0.2600
 6395TIP3    H119149   2.005   4.445   3.642 -0.2601 -0.7058 -0.0571
 6395TIP3    H219150   2.017   4.435   3.491  0.5427  0.1672 -0.0627
 6396TIP3   OH219151   4.691   1.175   2.501  0.2220  0.4209 -0.1774
 6396TIP3    H119152   4.730   1.213   2.422  0.2484  1.2197  0.2011
 6396TIP3    H219153   4.764   1.132   2.545  0.2603  0.1929 -0.4646
 6397TIP3   OH219154   3.786   4.257   1.900 -0.6279 -0.0099  0.4540
 6397TIP3    H119155   3.852   4.193   1.926 -0.0684 -0.2400 -1.3606
 6397TIP3    H219156   3.723   4.207   1.849  0.5096  0.9722 -2.1524
 6398TIP3   OH219157   0.239   1.684   3.072  0.0533 -0.3037 -0.2426
 6398TIP3    H119158   0.261   1.652   3.159  1.5092 -0.3653 -0.6054
 6398TIP3    H219159   0.314   1.738   3.047 -0.8696  0.6719 -0.9897
 6399TIP3   OH219160   4.003   0.472   1.886 -0.1622 -0.5685  0.2729
 6399TIP3    H119161   3.926   0.415   1.890 -1.2969  0.9314  1.0740
 6399TIP3    H219162   3.993   0.531   1.961  1.4170  0.1330 -0.0185
 6400TIP3   OH219163   0.566   3.197   4.215  0.6461 -0.2320  0.2064
 6400TIP3    H119164   0.651   3.169   4.182 -0.2735 -0.9690 -1.6460
 6400TIP3    H219165   0.516   3.116   4.226 -0.5136  0.3208 -0.7903
 6401TIP3   OH219166   1.190   4.275   2.380 -0.3016 -0.0762 -0.6231
 6401TIP3    H119167   1.172   4.330   2.303  0.1594  0.6726 -0.2117
 6401TIP3    H219168   1.269   4.313   2.418 -0.8820 -0.0363  0.5903
 6402TIP3   OH219169   0.644   2.347   0.189  0.3027 -0.2904  0.6645
 6402TIP3    H119170   0.567   2.383   0.232  0.0738  0.0332  0.0086
 6402TIP3    H219171   0.712   2.347   0.256 -0.5690 -1.6998  1.5939
 6403TIP3   OH219172   2.417   5.699   4.715  0.1887  1.0097 -0.1766
 6403TIP3    H119173   2.355   5.746   4.659 -1.0681  0.8819  1.0444
 6403TIP3    H219174   2.471   5.648   4.654 -2.3038 -0.5722 -1.2427
 6404TIP3   OH219175   6.985   0.421   0.669  0.3819 -0.4061 -0.1570
 6404TIP3    H119176   6.959   0.446   0.580  1.9534  1.5194 -0.1497
 6404TIP3    H219177   6.983   0.503   0.718 -0.9583 -1.5230  1.7623
 6405TIP3   OH219178   6.912   1.405   1.530 -0.3024 -0.1300  0.7080
 6405TIP3    H119179   6.842   1.350   1.495  0.0123  0.4147 -0.8302
 6405TIP3    H219180   6.934   1.465   1.459  1.8283 -0.3729  1.1014
 6406TIP3   OH219181   0.954   4.621   5.320  0.0837 -0.0703 -0.2743
 6406TIP3    H119182   0.908   4.702   5.300  2.7285  1.0897 -2.3036
 6406TIP3    H219183   1.035   4.649   5.362  0.7642 -1.7077 -0.4161
 6407TIP3   OH219184   1.224   4.053   2.219 -0.0286 -0.2388  0.4303
 6407TIP3    H119185   1.314   4.066   2.190  0.8726 -0.8731  2.7085
 6407TIP3    H219186   1.206   4.127   2.277 -1.3382  0.3842 -0.7272
 6408TIP3   OH219187   5.102   5.959   3.649  0.0324 -0.1826  0.2451
 6408TIP3    H119188   5.009   5.939   3.637 -0.4229  1.1240  1.2794
 6408TIP3    H219189   5.116   5.947   3.743 -0.0837  3.2189  0.8308
 6409TIP3   OH219190   1.296   3.173   4.997  0.6778  0.4386  0.3238
 6409TIP3    H119191   1.213   3.187   5.043 -0.4601  0.4995 -1.6017
 6409TIP3    H219192   1.292   3.233   4.922  2.0815 -0.1724 -0.2815
 6410TIP3   OH219193   2.841   3.210   2.087 -0.3010  0.6506  0.3750
 6410TIP3    H119194   2.754   3.251   2.092 -0.8940 -0.3305 -1.1468
 6410TIP3    H219195   2.823   3.121   2.057  1.2529  0.4218  0.0729
 6411TIP3   OH219196   4.859   1.566   1.369 -0.3909  0.3094  0.8578
 6411TIP3    H119197   4.871   1.608   1.454  1.4133  0.4066  0.5943
 6411TIP3    H219198   4.795   1.621   1.324 -2.5672 -0.5956  2.6699
 6412TIP3   OH219199   1.461   5.395   1.239 -0.4775  0.2515 -0.6101
 6412TIP3    H119200   1.391   5.376   1.177 -1.4545  0.4450  0.4122
 6412TIP3    H219201   1.473   5.314   1.288 -1.4262  0.8288  0.6042
 6413TIP3   OH219202   4.648   5.095   3.798  0.3734  0.4260  0.1321
 6413TIP3    H119203   4.611   5.125   3.715  1.3963 -1.4249 -1.0726
 6413TIP3    H219204   4.739   5.074   3.778  0.5581 -0.3976  1.6482
 6414TIP3   OH219205   4.437   2.282   0.690  0.3947 -0.0487 -0.0885
 6414TIP3    H119206   4.402   2.198   0.721  1.1394 -0.8048 -1.2218
 6414TIP3    H219207   4.425   2.279   0.595  2.8165 -0.0330 -0.4507
 6415TIP3   OH219208   1.639   1.229   5.543  0.0487  0.7860 -0.0479
 6415TIP3    H119209   1.662   1.300   5.483  2.4388  0.9008  0.9080
 6415TIP3    H219210   1.562   1.262   5.591  0.0366  1.9770 -0.8473
 6416TIP3   OH219211   2.132   0.505   3.758 -0.2409  0.0308 -0.1237
 6416TIP3    H119212   2.119   0.500   3.664  1.2949 -0.0088 -0.3514
 6416TIP3    H219213   2.044   0.520   3.794 -0.8810 -0.2965 -1.5217
 6417TIP3   OH219214   4.339   0.747   5.355  0.8044  0.2030 -0.1302
 6417TIP3    H119215   4.410   0.810   5.365 -1.0601  2.7656 -1.8219
 6417TIP3    H219216   4.289   0.753   5.437 -0.0849  1.9630 -0.7677
 6418TIP3   OH219217   7.208   4.667   3.456 -0.0228  0.7364  0.0761
 6418TIP3    H119218   7.152   4.721   3.400 -1.3500 -0.4274  0.2376
 6418TIP3    H219219   7.179   4.577   3.440  0.9987  0.2107  1.0721
 6419TIP3   OH219220   6.369   1.148   2.291  0.0306  1.0694  0.3059
 6419TIP3    H119221   6.384   1.134   2.384  0.5195  3.5428  0.6867
 6419TIP3    H219222   6.453   1.180   2.258  0.0137 -0.2642 -1.1162
 6420TIP3   OH219223   1.081   3.733   0.278  0.2579  0.0086 -0.0045
 6420TIP3    H119224   0.997   3.779   0.282  0.3119  0.2449 -1.2500
 6420TIP3    H219225   1.063   3.647   0.316 -0.1675  0.5732  1.1284
 6421TIP3   OH219226   6.926   3.621   4.221  0.3370 -0.2082 -0.1129
 6421TIP3    H119227   6.921   3.610   4.126 -0.0260  1.0991 -0.2648
 6421TIP3    H219228   6.840   3.655   4.245  0.8659  0.7441  0.4939
 6422TIP3   OH219229   6.841   4.154   1.847 -0.0118  0.2691  0.5850
 6422TIP3    H119230   6.869   4.130   1.936 -0.1010  0.9197  0.7925
 6422TIP3    H219231   6.761   4.205   1.861  1.3608  2.6068  0.3068
 6423TIP3   OH219232   3.911   1.989   4.276  0.4277  0.2433 -0.4109
 6423TIP3    H119233   3.899   2.080   4.302  1.9692  0.1836  0.6708
 6423TIP3    H219234   3.822   1.953   4.275 -0.1778  1.6790 -0.5881
 6424TIP3   OH219235   0.401   0.124   2.775  0.5523  0.5959 -0.2279
 6424TIP3    H119236   0.450   0.180   2.715  0.3952  0.9201 -0.0560
 6424TIP3    H219237   0.402   0.171   2.858  1.1095 -0.0357  0.1313
 6425TIP3   OH219238   2.500   5.627   1.599 -0.6374  0.3295  0.0130
 6425TIP3    H119239   2.415   5.616   1.558 -0.8116  0.9297  0.2148
 6425TIP3    H219240   2.552   5.553   1.566 -0.7844  0.7753 -1.2484
 6426TIP3   OH219241   5.260   6.059   0.482  0.3241 -0.1957 -0.0031
 6426TIP3    H119242   5.229   6.145   0.511 -1.0918  0.1574 -2.3203
 6426TIP3    H219243   5.355   6.065   0.486  0.2480  1.4291  0.0496
 6427TIP3   OH219244   1.000   1.860   5.233  0.3272  0.4162 -0.5009
 6427TIP3    H119245   0.928   1.830   5.178 -1.2025  0.1769  1.5287
 6427TIP3    H219246   0.970   1.942   5.272  1.3498  0.5743  0.0091
 6428TIP3   OH219247   5.080   5.097   4.285  0.0923  0.3619  0.0800
 6428TIP3    H119248   5.118   5.178   4.251  0.4788  0.4824  0.7904
 6428TIP3    H219249   5.114   5.029   4.227  0.2341  0.6328 -0.1601
 6429TIP3   OH219250   5.451   6.131   4.119  0.0891 -0.4111  0.2648
 6429TIP3    H119251   5.390   6.057   4.121 -0.6213  0.1821  1.3861
 6429TIP3    H219252   5.488   6.134   4.207  0.2188  0.4813  0.1912
 6430TIP3   OH219253   6.692   5.003   3.920 -0.3687 -0.3198 -0.0189
 6430TIP3    H119254   6.677   5.006   3.826  0.6689 -0.1974 -0.1898
 6430TIP3    H219255   6.740   5.084   3.939  1.1388 -1.2372  0.2820
 6431TIP3   OH219256   3.518   5.776   4.429  0.0761  0.2893  0.4902
 6431TIP3    H119257   3.468   5.846   4.471  1.1190  0.5083  1.4252
 6431TIP3    H219258   3.561   5.730   4.501  0.2629 -0.6520 -0.1969
 6432TIP3   OH219259   5.926   6.462   0.593 -0.2662  0.0021 -0.2035
 6432TIP3    H119260   5.975   6.387   0.559 -0.1484 -0.1839  0.3755
 6432TIP3    H219261   5.921   6.447   0.687  1.4233  1.6641  0.2300
 6433TIP3   OH219262   0.386   1.593   3.653  0.6269 -0.4030 -0.8362
 6433TIP3    H119263   0.328   1.670   3.652 -1.4610 -1.8768 -0.6211
 6433TIP3    H219264   0.336   1.525   3.607  1.0610 -2.5247  1.6225
 6434TIP3   OH219265   5.584   3.145   5.103 -0.1453 -0.2175  0.3254
 6434TIP3    H119266   5.505   3.092   5.098 -0.3308  0.1320 -0.6322
 6434TIP3    H219267   5.623   3.122   5.187 -1.9225  0.5521  1.4199
 6435TIP3   OH219268   3.349   5.238   2.316 -0.1633  0.0125 -0.2442
 6435TIP3    H119269   3.315   5.149   2.303 -0.4036  0.2473 -1.3700
 6435TIP3    H219270   3.341   5.279   2.230  0.4049  0.9716  0.1433
 6436TIP3   OH219271   3.156   5.884   1.745  0.3646  0.1958 -0.5646
 6436TIP3    H119272   3.201   5.814   1.791  0.2246 -0.7399 -1.7925
 6436TIP3    H219273   3.213   5.960   1.756  1.3186 -0.5016 -0.5182
 6437TIP3   OH219274   6.978   4.676   2.924 -0.4414  0.2474 -0.3218
 6437TIP3    H119275   6.906   4.652   2.865 -0.4521 -1.1431  0.2176
 6437TIP3    H219276   6.951   4.643   3.009  0.6085  0.1714 -0.0068
 6438TIP3   OH219277   1.007   5.803   1.188  0.4884 -0.3534  0.0548
 6438TIP3    H119278   0.938   5.762   1.136 -0.5179  0.1351  0.9726
 6438TIP3    H219279   1.083   5.745   1.177 -0.4207 -1.5744  0.0250
 6439TIP3   OH219280   6.103   0.218   4.172 -0.0053 -0.1010 -0.0926
 6439TIP3    H119281   6.076   0.127   4.160 -1.9254  0.1898  1.5551
 6439TIP3    H219282   6.124   0.225   4.265  3.2042  0.4366 -0.7450
 6440TIP3   OH219283   2.418   5.014   1.653 -0.4125  0.0813 -0.1748
 6440TIP3    H119284   2.462   4.953   1.712  0.7622 -0.8052 -1.9021
 6440TIP3    H219285   2.472   5.092   1.655  0.3739 -0.4250 -1.0576
 6441TIP3   OH219286   3.201   1.160   1.516 -0.0463  0.2830 -0.3167
 6441TIP3    H119287   3.183   1.240   1.466  1.3212 -0.2863 -1.7970
 6441TIP3    H219288   3.127   1.103   1.497  0.7392 -0.1632 -2.2860
 6442TIP3   OH219289   4.096  -0.002   4.817  0.0814 -0.2963  0.1719
 6442TIP3    H119290   4.133   0.086   4.811 -0.6230  0.0839  1.0707
 6442TIP3    H219291   4.007   0.012   4.850 -0.0459 -1.3493  0.3175
 6443TIP3   OH219292   7.114   1.031   4.209  0.4083  0.2486  0.2487
 6443TIP3    H119293   7.033   1.041   4.160 -0.2952 -0.0755  1.3156
 6443TIP3    H219294   7.146   0.944   4.185  1.1197  0.8419 -1.1124
 6444TIP3   OH219295   4.397   2.553   5.802  0.0127  0.6764  0.7916
 6444TIP3    H119296   4.348   2.545   5.720  2.0694 -1.9423 -0.2959
 6444TIP3    H219297   4.445   2.635   5.793  0.4446  0.2757 -0.7718
 6445TIP3   OH219298   2.870   5.762   1.101  0.7441  0.0172 -0.2477
 6445TIP3    H119299   2.951   5.771   1.050  0.1227 -2.4296 -1.8419
 6445TIP3    H219300   2.801   5.792   1.042  0.1465 -1.6166 -0.4388
 6446TIP3   OH219301   5.503   3.392   2.237  0.1478 -0.7131  0.2257
 6446TIP3    H119302   5.568   3.332   2.200  1.8627  0.2957  1.4550
 6446TIP3    H219303   5.447   3.415   2.163  1.3335 -1.4317 -0.9487
 6447TIP3   OH219304   3.988   3.149   5.828 -0.5570 -0.0846  0.4685
 6447TIP3    H119305   4.010   3.060   5.801 -0.7096  0.6206 -2.1772
 6447TIP3    H219306   3.899   3.142   5.862 -1.0476 -0.7461 -0.9001
 6448TIP3   OH219307   7.130   2.471   4.238 -0.1075 -0.5452  0.4842
 6448TIP3    H119308   7.148   2.378   4.252 -1.8650 -0.7575  1.6248
 6448TIP3    H219309   7.114   2.506   4.326  0.0735  0.7482  0.0225
 6449TIP3   OH219310   4.131   3.877   3.129 -0.3228 -0.0791 -0.7056
 6449TIP3    H119311   4.056   3.831   3.167  0.2645 -0.1234  0.4465
 6449TIP3    H219312   4.118   3.872   3.034 -1.9538  0.2258 -0.5166
 6450TIP3   OH219313   3.262   5.255   2.008  0.1212  0.1886  0.0583
 6450TIP3    H119314   3.172   5.222   2.010  0.5162 -0.9506  0.1407
 6450TIP3    H219315   3.299   5.218   1.928  0.7449 -0.0021  0.4290
 6451TIP3   OH219316   4.738   4.409   5.699  0.4449 -0.2518 -0.9545
 6451TIP3    H119317   4.733   4.317   5.724 -3.2366  0.0439 -0.0224
 6451TIP3    H219318   4.726   4.457   5.781 -0.8097  0.9386 -1.7730
 6452TIP3   OH219319   4.909   4.231   0.755  0.0649 -0.1758 -0.3012
 6452TIP3    H119320   4.836   4.206   0.699 -1.1648  0.1195  1.1031
 6452TIP3    H219321   4.948   4.148   0.782  1.0332 -0.3168 -1.9768
 6453TIP3   OH219322   1.654   2.544   1.387 -0.2926  0.5324 -0.7161
 6453TIP3    H119323   1.569   2.524   1.426  0.1782  1.3383  0.8373
 6453TIP3    H219324   1.669   2.474   1.324 -1.4669 -0.4183  0.0071
 6454TIP3   OH219325   3.163   1.359   1.863 -0.4127 -0.4967  0.6047
 6454TIP3    H119326   3.105   1.414   1.916 -0.9946 -0.3905 -0.1163
 6454TIP3    H219327   3.177   1.410   1.783  1.2332 -0.2236  1.0384
 6455TIP3   OH219328   4.111   5.882   5.669  0.1802 -0.1551 -0.3401
 6455TIP3    H119329   4.116   5.787   5.676 -1.1430 -0.0952  3.7288
 6455TIP3    H219330   4.177   5.915   5.731 -1.2273  1.4965  0.3563
 6456TIP3   OH219331   3.306   3.948   5.378  0.4153  0.0142 -0.1640
 6456TIP3    H119332   3.312   4.034   5.419  0.0616 -0.9795  2.1422
 6456TIP3    H219333   3.339   3.887   5.444 -2.4151 -1.9593 -0.3757
 6457TIP3   OH219334   4.051   5.398   2.222  0.0902 -0.1034  0.2021
 6457TIP3    H119335   3.986   5.391   2.293 -0.2048  0.4345 -0.0097
 6457TIP3    H219336   4.009   5.356   2.147  0.4256 -0.7249  0.3480
 6458TIP3   OH219337   3.228   2.976   1.105  0.1361 -0.3742  0.0321
 6458TIP3    H119338   3.259   2.912   1.169  3.8202  0.1508 -1.0224
 6458TIP3    H219339   3.203   2.924   1.029  0.9040 -0.7333  0.0117
 6459TIP3   OH219340   6.873   5.957   4.781 -0.0227  0.1042  0.0976
 6459TIP3    H119341   6.926   5.943   4.860  1.5584 -1.1307 -1.1313
 6459TIP3    H219342   6.934   5.947   4.708 -2.2491 -3.7544 -1.5581
 6460TIP3   OH219343   3.466   0.582   1.365 -0.5995 -0.1244  0.2282
 6460TIP3    H119344   3.452   0.587   1.460 -0.6418  2.6310  0.1611
 6460TIP3    H219345   3.523   0.506   1.354 -1.6709 -1.3455  2.2809
 6461TIP3   OH219346   1.194   3.584   3.689 -0.4603 -0.0263  0.2111
 6461TIP3    H119347   1.191   3.526   3.765  0.7805 -0.0900  0.2293
 6461TIP3    H219348   1.143   3.538   3.622  1.4147 -1.7145 -0.1429
 6462TIP3   OH219349   2.698   5.669   4.222  0.2525 -0.6150 -0.0067
 6462TIP3    H119350   2.663   5.601   4.165  0.9128  0.0918 -1.3165
 6462TIP3    H219351   2.629   5.735   4.226 -0.6330 -1.5826  1.7573
 6463TIP3   OH219352   2.376   3.029   0.999  0.2787 -0.1176 -0.0336
 6463TIP3    H119353   2.280   3.027   0.999  0.2004  1.6589 -0.4959
 6463TIP3    H219354   2.399   3.084   0.925  1.6946 -0.9006 -0.2125
 6464TIP3   OH219355   0.372   1.717   3.333 -0.5892 -0.3386 -0.3398
 6464TIP3    H119356   0.459   1.734   3.369 -1.7506  2.0290  1.6579
 6464TIP3    H219357   0.366   1.622   3.329  1.7373 -0.5765  0.3311
 6465TIP3   OH219358   2.328   5.611   0.462  0.5402 -0.1755 -0.5578
 6465TIP3    H119359   2.364   5.698   0.443 -1.2269  0.6771 -0.2195
 6465TIP3    H219360   2.320   5.609   0.558 -2.3567  0.6251 -0.6810
 6466TIP3   OH219361   2.415   3.771   4.759  0.6449  0.3126 -0.6361
 6466TIP3    H119362   2.370   3.855   4.764 -0.4102 -0.2793  0.9882
 6466TIP3    H219363   2.424   3.744   4.851 -0.7665 -2.1863 -1.1286
 6467TIP3   OH219364   6.890   6.642   5.757 -0.4005  0.1758  0.5153
 6467TIP3    H119365   6.796   6.629   5.770 -0.5889  1.6368  0.7607
 6467TIP3    H219366   6.931   6.590   5.826 -1.0798  0.5698  1.2315
 6468TIP3   OH219367   6.745   4.151   5.376 -0.3415  0.0293 -0.4257
 6468TIP3    H119368   6.734   4.092   5.451  0.5563 -0.0149 -0.3179
 6468TIP3    H219369   6.695   4.229   5.398 -1.0333 -0.4475 -0.2953
 6469TIP3   OH219370   6.049   0.768   3.072 -0.3300  0.0211  0.5737
 6469TIP3    H119371   5.979   0.776   3.137  0.6122  0.1387  1.5922
 6469TIP3    H219372   6.021   0.826   3.001 -0.7957  0.8502  1.3980
 6470TIP3   OH219373   3.504   3.165   0.522 -0.7090  0.1647  0.6485
 6470TIP3    H119374   3.551   3.198   0.446 -0.2406 -1.8148  0.0066
 6470TIP3    H219375   3.435   3.229   0.539  1.2659  2.3938  0.6956
 6471TIP3   OH219376   5.584   1.044   4.604 -0.1926 -0.6884  0.0039
 6471TIP3    H119377   5.552   1.131   4.580 -1.6382 -0.3330  2.8728
 6471TIP3    H219378   5.677   1.046   4.581 -0.5244  1.0247 -1.4116
 6472TIP3   OH219379   4.877   5.917   2.525 -0.3058 -0.5238 -0.6355
 6472TIP3    H119380   4.926   5.910   2.444 -1.3905  1.5365 -1.5275
 6472TIP3    H219381   4.930   5.974   2.581 -0.6495 -0.0473 -0.7894
 6473TIP3   OH219382   0.588   0.631   0.579  0.4878  0.1005 -0.5985
 6473TIP3    H119383   0.678   0.654   0.556  0.9430  0.2808  1.2169
 6473TIP3    H219384   0.585   0.637   0.675 -1.5715  0.5059 -0.6388
 6474TIP3   OH219385   1.808   5.648   3.717 -0.3312 -0.3494 -0.1173
 6474TIP3    H119386   1.754   5.578   3.756 -0.3825  0.0514  0.5500
 6474TIP3    H219387   1.829   5.616   3.629  0.7312 -1.7875  0.6240
 6475TIP3   OH219388   3.860   1.170   5.185  0.0551 -0.3633  0.0550
 6475TIP3    H119389   3.882   1.262   5.173  1.0964 -0.7758 -1.6467
 6475TIP3    H219390   3.942   1.129   5.213 -0.3222 -0.8176  0.5131
 6476TIP3   OH219391   0.468   6.119   3.832 -0.0819 -0.4218 -0.2827
 6476TIP3    H119392   0.458   6.035   3.787  0.7071 -0.8855  0.3766
 6476TIP3    H219393   0.390   6.169   3.807 -2.1678 -2.4342  1.6466
 6477TIP3   OH219394   6.214   0.898   4.241  0.3589 -0.0698 -0.2462
 6477TIP3    H119395   6.254   0.966   4.186 -0.0259  0.3990  0.0490
 6477TIP3    H219396   6.124   0.928   4.254 -0.3639 -1.4850 -1.5510
 6478TIP3   OH219397   4.953   3.783   1.352  0.3821 -0.6403  0.1277
 6478TIP3    H119398   5.044   3.813   1.348 -0.1065  0.8242 -0.7884
 6478TIP3    H219399   4.938   3.742   1.267 -0.6147  1.7571 -0.9642
 6479TIP3   OH219400   0.038   3.442   0.597 -0.0521  0.1947 -0.1125
 6479TIP3    H119401   0.070   3.472   0.512 -0.6675  0.5908 -0.2076
 6479TIP3    H219402  -0.013   3.515   0.632  0.9168  0.3653  0.9989
 6480TIP3   OH219403   4.394   4.794   5.578 -0.0916 -0.4526 -0.4348
 6480TIP3    H119404   4.428   4.857   5.514  0.8130 -0.6349 -0.1530
 6480TIP3    H219405   4.431   4.823   5.661 -2.4840  0.7142  0.3217
 6481TIP3   OH219406   4.342   1.574   2.181  0.1793 -0.2437  0.3292
 6481TIP3    H119407   4.396   1.535   2.250 -0.7923 -0.5846  0.9209
 6481TIP3    H219408   4.379   1.540   2.100  0.2003 -1.3449  0.7766
 6482TIP3   OH219409   4.612   1.474   0.881 -0.2279  0.2156  0.4103
 6482TIP3    H119410   4.702   1.463   0.911  0.0300  1.3944  0.1434
 6482TIP3    H219411   4.563   1.497   0.960  0.0193  1.0938  0.3225
 6483TIP3   OH219412   1.144   4.608   3.070  0.1779 -0.2502  0.4838
 6483TIP3    H119413   1.163   4.698   3.094 -0.1864 -0.5069  1.7974
 6483TIP3    H219414   1.097   4.572   3.145 -1.6073 -0.9173 -0.8611
 6484TIP3   OH219415   5.321   4.157   0.283 -0.3971  1.0237 -0.1385
 6484TIP3    H119416   5.323   4.063   0.265  0.4574  1.1801 -0.9364
 6484TIP3    H219417   5.335   4.164   0.377  1.4352  0.4076 -0.3291
 6485TIP3   OH219418   2.014   6.442   0.172  0.5326 -0.6750 -0.4946
 6485TIP3    H119419   2.106   6.445   0.145  1.4958 -0.2998  2.4936
 6485TIP3    H219420   1.993   6.349   0.176  0.7141 -0.7602 -1.2939
 6486TIP3   OH219421   6.296   1.955   2.491 -0.1497  0.2077  0.3299
 6486TIP3    H119422   6.284   1.875   2.543  1.9064 -0.1734  0.3028
 6486TIP3    H219423   6.391   1.962   2.479 -0.4041  1.6602 -1.2579
 6487TIP3   OH219424   1.392   2.520   1.472 -0.3354  0.0686  0.0384
 6487TIP3    H119425   1.351   2.576   1.406 -2.4284 -1.0286  0.3181
 6487TIP3    H219426   1.360   2.554   1.555  1.0885  0.5077  0.4354
 6488TIP3   OH219427   1.264   6.259   0.299  0.4248  0.2119  0.0245
 6488TIP3    H119428   1.301   6.301   0.222 -0.4857  0.9413 -0.0336
 6488TIP3    H219429   1.203   6.194   0.265 -1.0667  1.5129  0.0821
 6489TIP3   OH219430   3.737   5.171   3.096  0.3514 -0.5037  0.1025
 6489TIP3    H119431   3.750   5.266   3.099  3.0843 -0.7904  0.0183
 6489TIP3    H219432   3.767   5.141   3.182  0.4351 -1.3841 -0.2338
 6490TIP3   OH219433   3.801   2.437   2.490  0.0899  0.5538 -0.7002
 6490TIP3    H119434   3.862   2.505   2.516  0.2204  0.1213  0.1649
 6490TIP3    H219435   3.837   2.356   2.528 -0.6661  0.1902 -0.7342
 6491TIP3   OH219436   3.066   5.832   3.504  0.0541  0.1668  0.0344
 6491TIP3    H119437   3.100   5.776   3.573 -0.7314 -0.2248  0.1093
 6491TIP3    H219438   2.991   5.877   3.543  0.4843  1.0550 -0.1150
 6492TIP3   OH219439   1.618   4.321   4.809  0.4682  0.1021  1.0145
 6492TIP3    H119440   1.564   4.281   4.741 -0.0460 -0.2305  1.6000
 6492TIP3    H219441   1.582   4.287   4.891  0.4746  1.2139  1.5016
 6493TIP3   OH219442   5.175   0.932   4.427 -0.0151  0.2948 -0.2184
 6493TIP3    H119443   5.192   0.964   4.516 -1.1543  0.8204 -0.1688
 6493TIP3    H219444   5.090   0.970   4.404  0.2345  0.1124 -1.5101
 6494TIP3   OH219445   3.093   5.647   3.090  0.8159  0.2438  0.0154
 6494TIP3    H119446   3.117   5.738   3.076 -2.7388  1.3154 -0.2968
 6494TIP3    H219447   3.127   5.601   3.014  2.9156  1.2096  0.3131
 6495TIP3   OH219448   3.126   3.398   0.968 -0.0750 -0.5331 -0.5861
 6495TIP3    H119449   3.146   3.358   0.883  0.6875 -0.0017 -0.6696
 6495TIP3    H219450   3.167   3.484   0.964  1.0057 -0.9465  0.7555
 6496TIP3   OH219451   2.921   3.356   4.032 -0.1408 -0.3051 -0.5090
 6496TIP3    H119452   2.834   3.390   4.054 -0.4351 -1.8897  0.9870
 6496TIP3    H219453   2.925   3.359   3.936 -1.5444  0.4759 -0.5676
 6497TIP3   OH219454   1.313   4.947   3.988 -0.4497 -0.4243  0.2299
 6497TIP3    H119455   1.257   4.970   4.062 -0.1151 -0.4929  0.5100
 6497TIP3    H219456   1.260   4.964   3.911 -0.6264  0.1405  0.4720
 6498TIP3   OH219457   3.592   4.537   4.834 -0.0217  0.2810 -0.2631
 6498TIP3    H119458   3.561   4.472   4.897 -0.6181  0.6711 -0.1482
 6498TIP3    H219459   3.521   4.545   4.771  0.4340  0.1408 -0.8035
 6499TIP3   OH219460   1.901   5.151   1.761  0.1549  0.4425  0.0775
 6499TIP3    H119461   1.883   5.081   1.824  3.1245 -0.3061  0.2478
 6499TIP3    H219462   1.847   5.225   1.791 -2.2150 -1.3448  0.5554
 6500TIP3   OH219463   6.854   2.279   2.035 -0.5236 -0.1173  0.3899
 6500TIP3    H119464   6.777   2.328   2.063 -2.4710 -2.1927 -0.9893
 6500TIP3    H219465   6.912   2.344   1.996 -2.1035  1.3492  0.4039
 6501TIP3   OH219466   4.267   3.461   4.729  0.5260 -0.0380 -0.2616
 6501TIP3    H119467   4.294   3.526   4.794 -0.2734 -0.2543  0.3197
 6501TIP3    H219468   4.279   3.377   4.774 -1.0347 -0.1453  0.0411
 6502TIP3   OH219469   5.099   3.211   2.721 -0.1753  0.1777 -0.2235
 6502TIP3    H119470   5.140   3.130   2.691 -0.7777  0.0620 -0.7530
 6502TIP3    H219471   5.160   3.246   2.786 -0.4654 -1.3180  0.8950
 6503TIP3   OH219472   5.584   5.312   0.437 -0.5055 -0.0174 -0.2008
 6503TIP3    H119473   5.495   5.314   0.402 -0.8608  1.4315  0.6826
 6503TIP3    H219474   5.616   5.402   0.424  0.3093 -0.1550  0.7756
 6504TIP3   OH219475   6.566   5.196   0.519 -0.3638  0.0730  0.2775
 6504TIP3    H119476   6.621   5.122   0.546 -0.4768 -0.3753 -0.6831
 6504TIP3    H219477   6.586   5.265   0.582 -0.5122 -0.8837  1.4100
 6505TIP3   OH219478   7.115   5.594   4.032 -0.0652  0.5864  0.6345
 6505TIP3    H119479   7.088   5.507   4.061 -0.8169  0.2224 -1.0318
 6505TIP3    H219480   7.158   5.633   4.108  0.0035 -1.1151  1.5036
 6506TIP3   OH219481   5.111   4.186   3.211  0.1873 -0.1760 -0.3440
 6506TIP3    H119482   5.133   4.237   3.134  1.0665 -3.4542 -2.4435
 6506TIP3    H219483   5.195   4.166   3.252 -0.1847  0.5286  0.8145
 6507TIP3   OH219484   3.451   1.763   1.308 -0.6281 -0.1678 -0.5269
 6507TIP3    H119485   3.356   1.758   1.304 -0.5682 -0.7705 -1.4669
 6507TIP3    H219486   3.481   1.732   1.222  0.4108  0.1334 -0.2944
 6508TIP3   OH219487   1.072   4.610   5.056  0.3742 -0.3024  0.0876
 6508TIP3    H119488   1.047   4.604   5.148  2.1895 -0.6292  0.5785
 6508TIP3    H219489   1.059   4.522   5.021 -2.2973  0.2484 -0.5673
 6509TIP3   OH219490   0.893   1.312   2.607 -0.6592  0.1619 -0.5948
 6509TIP3    H119491   0.963   1.290   2.545 -1.4614 -1.0280 -1.1177
 6509TIP3    H219492   0.927   1.285   2.692 -0.3205 -0.0412 -0.7897
 6510TIP3   OH219493   5.775   0.793   3.174  0.4257 -0.1716  0.1259
 6510TIP3    H119494   5.746   0.875   3.134 -0.3593 -0.3823  0.2526
 6510TIP3    H219495   5.709   0.729   3.148  1.8063 -1.1269 -1.2490
 6511TIP3   OH219496   0.291   1.990   4.446  0.2912 -0.0038  0.6507
 6511TIP3    H119497   0.320   2.011   4.358 -1.1423 -0.3593  0.0660
 6511TIP3    H219498   0.220   2.053   4.463 -2.0004 -2.2743  0.0485
 6512TIP3   OH219499   1.497   6.211   5.466  0.9362 -0.3488 -0.6360
 6512TIP3    H119500   1.503   6.268   5.542  1.5763 -0.6013 -0.4871
 6512TIP3    H219501   1.588   6.200   5.437  0.7503 -0.6982 -1.1020
 6513TIP3   OH219502   4.132   5.641   3.357  0.1047  0.0858  0.4490
 6513TIP3    H119503   4.104   5.549   3.354 -0.7964  0.3604 -0.0655
 6513TIP3    H219504   4.116   5.668   3.447 -0.5885  0.0097  0.3589
 6514TIP3   OH219505   4.804   4.583   2.922 -0.6740  0.5442  0.2768
 6514TIP3    H119506   4.838   4.662   2.965  0.2294  0.5801 -0.4833
 6514TIP3    H219507   4.880   4.525   2.914 -1.3773 -0.5220  1.0448
 6515TIP3   OH219508   5.486   0.358   3.074 -0.1190 -0.2906 -0.8003
 6515TIP3    H119509   5.569   0.366   3.122 -0.2120  1.9644 -0.9308
 6515TIP3    H219510   5.425   0.323   3.139  0.3207  0.5245  0.0839
 6516TIP3   OH219511   0.498   1.431   0.119  0.2845  0.1163  0.6497
 6516TIP3    H119512   0.478   1.397   0.032 -1.7302  0.9153  0.7631
 6516TIP3    H219513   0.416   1.427   0.167  0.9216  1.4060  1.9396
 6517TIP3   OH219514   6.108   1.665   2.287 -0.2432  1.1205 -0.1779
 6517TIP3    H119515   6.141   1.629   2.370 -0.5860  0.4812 -0.3094
 6517TIP3    H219516   6.163   1.742   2.271  0.7911  0.4297 -0.0812
 6518TIP3   OH219517   3.559   4.641   1.402  0.4861  0.1386 -0.0505
 6518TIP3    H119518   3.471   4.609   1.383  0.2247  1.0932 -0.4873
 6518TIP3    H219519   3.617   4.574   1.368 -0.0521  0.1348 -0.9782
 6519TIP3   OH219520   2.287   4.476   0.581 -0.3422 -0.1407 -0.1109
 6519TIP3    H119521   2.318   4.468   0.671 -1.9345 -1.1982  0.3881
 6519TIP3    H219522   2.205   4.524   0.588  0.0515  0.7289 -1.1440
 6520TIP3   OH219523   1.523   0.475   0.180  0.3184 -0.1057 -0.5407
 6520TIP3    H119524   1.577   0.458   0.257  1.0064  1.2121 -0.7107
 6520TIP3    H219525   1.494   0.388   0.151  0.1890 -0.6317  1.0866
 6521TIP3   OH219526   3.466   2.099   2.778  0.0032  0.1479 -0.1954
 6521TIP3    H119527   3.555   2.079   2.748  0.1055 -0.3440  0.4172
 6521TIP3    H219528   3.410   2.039   2.730 -0.0425  0.6980 -0.8444
 6522TIP3   OH219529   1.256   0.272   2.810  0.2509  0.2014 -0.0950
 6522TIP3    H119530   1.312   0.309   2.879 -0.4993  1.3129 -0.0657
 6522TIP3    H219531   1.195   0.216   2.858  1.4758 -1.2622 -0.1531
 6523TIP3   OH219532   6.319   1.988   2.855 -0.4317  0.5051  0.2129
 6523TIP3    H119533   6.396   2.013   2.905 -1.1049  0.2172  1.4228
 6523TIP3    H219534   6.348   1.914   2.801  0.0153  0.0538  1.0489
 6524TIP3   OH219535   6.361   6.617   0.701  0.1648  0.2828 -0.0255
 6524TIP3    H119536   6.286   6.674   0.686  1.4235  2.3120  0.9384
 6524TIP3    H219537   6.352   6.548   0.635 -1.2975  1.7189 -1.4321
 6525TIP3   OH219538   1.660   5.263   0.189  0.2886 -0.0471  0.2411
 6525TIP3    H119539   1.686   5.188   0.242  0.5115 -1.3273 -1.5766
 6525TIP3    H219540   1.742   5.307   0.167  0.4257 -0.7509 -0.7393
 6526TIP3   OH219541   1.969   2.698   2.905  0.5696  0.5839  0.1783
 6526TIP3    H119542   1.917   2.687   2.985  0.5093 -1.2430 -0.0728
 6526TIP3    H219543   1.918   2.655   2.837  1.9154 -0.4113 -0.2585
 6527TIP3   OH219544   1.760   3.200   1.919  0.6487  0.5195 -0.1188
 6527TIP3    H119545   1.735   3.262   1.988 -2.7365  1.8269 -2.2495
 6527TIP3    H219546   1.717   3.118   1.945 -1.4602  1.2655 -0.9787
 6528TIP3   OH219547   1.036   3.488   1.654  0.2682  0.6464 -1.1958
 6528TIP3    H119548   0.946   3.484   1.621  0.1656 -5.1097 -1.3218
 6528TIP3    H219549   1.090   3.492   1.575  0.0552  0.0406 -1.3811
 6529TIP3   OH219550   2.314   6.727   4.269  0.1624  0.2956 -0.6293
 6529TIP3    H119551   2.313   6.793   4.339 -0.1393 -0.0914 -0.2678
 6529TIP3    H219552   2.328   6.778   4.189  0.0031  0.7952 -0.3454
 6530TIP3   OH219553   5.212   2.009   5.608  0.6664 -0.1560  0.0702
 6530TIP3    H119554   5.180   2.012   5.517  0.4317  1.8302  0.1674
 6530TIP3    H219555   5.150   1.953   5.654  0.1438 -0.2837 -0.7739
 6531TIP3   OH219556   0.241   3.426   2.531 -0.0583  0.0293 -0.4904
 6531TIP3    H119557   0.255   3.334   2.510 -0.0324 -0.1433  0.2319
 6531TIP3    H219558   0.169   3.425   2.594  1.2576  0.3121  1.0816
 6532TIP3   OH219559   6.966   6.510   3.642 -0.0749 -0.3478 -0.5482
 6532TIP3    H119560   7.022   6.444   3.601 -2.1309 -0.5828 -3.2493
 6532TIP3    H219561   6.910   6.461   3.701 -0.5380 -0.8095 -1.3618
 6533TIP3   OH219562   5.269   5.721   4.390  0.1163  0.0795  0.3023
 6533TIP3    H119563   5.204   5.750   4.326 -1.2288  0.9821  2.0047
 6533TIP3    H219564   5.284   5.797   4.446  0.0819 -1.1110  2.0063
 6534TIP3   OH219565   0.603   5.264   0.935 -0.1250  0.8545 -0.1501
 6534TIP3    H119566   0.601   5.219   0.851  0.2809 -1.2996  0.9439
 6534TIP3    H219567   0.689   5.243   0.972 -0.4465  1.4424  0.9937
 6535TIP3   OH219568   5.673   0.010   0.644  0.2438  0.1937 -0.0819
 6535TIP3    H119569   5.767   0.027   0.653  0.0747  1.9779 -1.2729
 6535TIP3    H219570   5.635   0.043   0.725  0.5974 -0.3075  0.2978
 6536TIP3   OH219571   4.307   5.944   5.297  0.1330 -0.0508  0.3417
 6536TIP3    H119572   4.369   6.012   5.272 -1.5299  1.1461 -0.7563
 6536TIP3    H219573   4.225   5.991   5.311 -0.5227 -1.5653  1.8440
 6537TIP3   OH219574   6.170   6.428   4.262  0.0612  0.3450  0.0043
 6537TIP3    H119575   6.257   6.394   4.280  0.3546  1.3104  0.5012
 6537TIP3    H219576   6.151   6.485   4.337 -0.9321  0.2626 -0.1678
 6538TIP3   OH219577   5.344   3.173   2.503 -0.2850  0.3643  0.6024
 6538TIP3    H119578   5.277   3.119   2.546 -0.9148  2.5571  2.6662
 6538TIP3    H219579   5.422   3.160   2.556  0.0674  0.1247  0.0273
 6539TIP3   OH219580   3.782   5.820   4.319 -0.1056 -0.5724  0.3220
 6539TIP3    H119581   3.688   5.811   4.332 -0.7830 -0.0803 -3.2765
 6539TIP3    H219582   3.805   5.901   4.365 -1.6412 -0.1311  0.3584
 6540TIP3   OH219583   0.645   1.697   1.787  0.1904 -0.5184  0.3940
 6540TIP3    H119584   0.618   1.608   1.762 -0.0823 -0.6038  0.9868
 6540TIP3    H219585   0.655   1.743   1.703 -2.1603 -0.3760  0.1387
 6541TIP3   OH219586   3.797   5.591   5.723  0.3235 -0.4556  0.0920
 6541TIP3    H119587   3.889   5.598   5.749 -0.1134  0.2558  1.5576
 6541TIP3    H219588   3.792   5.635   5.638  1.2919 -0.3055  0.1062
 6542TIP3   OH219589   3.987   0.115   1.687  0.7268 -0.0641  0.1620
 6542TIP3    H119590   4.081   0.128   1.686  0.6283  0.9573  1.3490
 6542TIP3    H219591   3.974   0.024   1.659  2.0921 -0.3965  0.5591
 6543TIP3   OH219592   1.838   6.178   3.661  0.5344  0.7725 -0.0207
 6543TIP3    H119593   1.931   6.197   3.676  0.6712  1.7868 -1.8726
 6543TIP3    H219594   1.838   6.095   3.614  0.3366 -0.3164  1.8065
 6544TIP3   OH219595   6.616   0.978   1.782  1.0757  0.2576  0.0313
 6544TIP3    H119596   6.690   0.917   1.783  0.3101 -0.6966  1.7358
 6544TIP3    H219597   6.540   0.925   1.806  0.1217  1.5824  0.0669
 6545TIP3   OH219598   3.636   0.899   3.214 -0.2047  0.2529 -0.3376
 6545TIP3    H119599   3.642   0.930   3.123  1.2837  0.5882 -0.1362
 6545TIP3    H219600   3.564   0.950   3.251 -0.3391  0.6573 -1.1212
 6546TIP3   OH219601   4.432   2.144   2.990 -0.4292  0.4216 -0.3458
 6546TIP3    H119602   4.487   2.200   2.935 -0.5038 -1.0203 -1.9728
 6546TIP3    H219603   4.463   2.055   2.973 -1.1238 -0.1685  1.2188
 6547TIP3   OH219604   0.991   1.156   3.440 -0.2335 -0.0005  0.3946
 6547TIP3    H119605   1.078   1.130   3.469  0.2458  0.4619 -0.5695
 6547TIP3    H219606   0.946   1.182   3.520 -0.0151 -1.6915  1.0971
 6548TIP3   OH219607   3.508   1.255   1.969  0.2040  0.0102 -0.1604
 6548TIP3    H119608   3.580   1.213   2.018 -0.2379  1.3963  1.7744
 6548TIP3    H219609   3.551   1.290   1.890  1.3921 -0.3381  0.2983
 6549TIP3   OH219610   6.298   6.500   5.587 -0.4448 -0.1573  0.5398
 6549TIP3    H119611   6.247   6.527   5.663 -1.6253 -1.5718  0.2801
 6549TIP3    H219612   6.288   6.405   5.583  1.2354 -0.3419 -0.2429
 6550TIP3   OH219613   4.935   3.513   3.876 -0.1831  0.3263 -0.0798
 6550TIP3    H119614   4.898   3.436   3.832  1.3292  0.4097 -1.5936
 6550TIP3    H219615   4.997   3.549   3.813  1.7062  0.7838  1.9292
 6551TIP3   OH219616   4.123   3.813   4.974 -0.6833 -0.2407 -0.0397
 6551TIP3    H119617   4.198   3.754   4.968 -0.5763 -0.0616 -0.4999
 6551TIP3    H219618   4.122   3.842   5.065  0.6245  0.8114 -0.3214
 6552TIP3   OH219619   4.699   6.671   1.433 -0.7466 -0.2179  0.3046
 6552TIP3    H119620   4.704   6.660   1.528  1.1930 -0.3092  0.2421
 6552TIP3    H219621   4.633   6.607   1.405 -1.1451 -0.3916  1.5502
 6553TIP3   OH219622   1.805   0.792   0.763  0.0527  0.0603  0.0528
 6553TIP3    H119623   1.801   0.809   0.669 -0.3590  0.4379  0.1348
 6553TIP3    H219624   1.750   0.715   0.776 -0.8579  0.7076  0.1365
 6554TIP3   OH219625   6.456   5.975   3.772  0.0610 -0.1826 -0.5134
 6554TIP3    H119626   6.455   6.068   3.750 -1.9906 -0.1260 -0.3760
 6554TIP3    H219627   6.539   5.943   3.736  0.2174  1.4205 -1.7068
 6555TIP3   OH219628   0.073   4.285   5.733  0.0846 -0.1176  0.7205
 6555TIP3    H119629   0.168   4.275   5.740 -0.0917 -2.1782  0.5759
 6555TIP3    H219630   0.038   4.248   5.814 -0.6643 -1.0033  0.0232
 6556TIP3   OH219631   6.927   4.677   4.786 -0.3879  0.9281 -0.1530
 6556TIP3    H119632   6.888   4.643   4.705 -1.4904 -0.4919  0.9210
 6556TIP3    H219633   6.852   4.707   4.837  0.2604  1.3771  0.5511
 6557TIP3   OH219634   5.810   1.464   4.769 -0.1728  0.2195 -0.2522
 6557TIP3    H119635   5.729   1.415   4.780  1.0116 -1.3083  3.3462
 6557TIP3    H219636   5.803   1.537   4.830  1.1485 -0.0240  0.2443
 6558TIP3   OH219637   4.491   2.525   1.220  0.1608  0.2650 -0.6352
 6558TIP3    H119638   4.585   2.518   1.204  0.2973 -1.6107  0.6704
 6558TIP3    H219639   4.455   2.441   1.190 -0.8386  0.2879  0.4355
 6559TIP3   OH219640   5.619   3.419   1.919 -0.4824  0.4070 -0.0583
 6559TIP3    H119641   5.694   3.369   1.886  0.4086  1.9914 -0.5265
 6559TIP3    H219642   5.545   3.359   1.911  0.8428 -1.4919  1.1714
 6560TIP3   OH219643   5.943   0.056   0.673  0.1395  0.2769  0.9462
 6560TIP3    H119644   5.962   0.126   0.611  1.1287 -0.1538  0.7381
 6560TIP3    H219645   5.990  -0.020   0.637  0.6448 -0.0032  2.1705
 6561TIP3   OH219646   1.634   6.035   5.815 -0.6341 -0.0323 -0.3339
 6561TIP3    H119647   1.709   6.090   5.792 -1.7113  1.5874 -0.1250
 6561TIP3    H219648   1.560   6.074   5.768 -1.5133 -1.0577  0.1524
 6562TIP3   OH219649   0.484   3.649   3.970  0.7171 -0.1545 -0.3216
 6562TIP3    H119650   0.546   3.713   4.005 -0.3089 -0.0876  1.4975
 6562TIP3    H219651   0.477   3.583   4.039 -2.4203  0.6579  0.3084
 6563TIP3   OH219652   4.003   1.228   2.227 -0.6430  0.1697 -0.2296
 6563TIP3    H119653   4.031   1.208   2.137  0.3506  3.0724 -0.6911
 6563TIP3    H219654   3.914   1.260   2.218 -0.8932 -0.4600 -0.0269
 6564TIP3   OH219655   5.997   5.560   2.767  0.3886  0.2130  0.3211
 6564TIP3    H119656   6.042   5.641   2.791  0.1947  0.0071  1.4759
 6564TIP3    H219657   6.021   5.498   2.836 -0.7497 -0.2279  0.3495
 6565TIP3   OH219658   6.359   6.065   0.470 -0.7354  0.5858 -0.0397
 6565TIP3    H119659   6.392   6.061   0.380  0.3023  1.8253  0.2410
 6565TIP3    H219660   6.394   5.986   0.512 -1.8171 -0.3746 -0.8738
 6566TIP3   OH219661   2.397   1.059   0.082 -0.7782 -0.4992  0.5125
 6566TIP3    H119662   2.341   0.988   0.114 -0.2626 -1.6426 -1.0461
 6566TIP3    H219663   2.405   1.118   0.157 -0.3683 -2.5869  2.1954
 6567TIP3   OH219664   0.110   0.196   2.526  0.0966 -0.1399  0.7564
 6567TIP3    H119665   0.030   0.177   2.478 -0.4988 -0.8549  1.9591
 6567TIP3    H219666   0.130   0.287   2.505 -1.0442  0.0574  0.4459
 6568TIP3   OH219667   0.973   3.191   1.387  0.1716 -0.4023 -0.8254
 6568TIP3    H119668   1.054   3.220   1.346 -0.3187  2.0790 -0.2633
 6568TIP3    H219669   0.907   3.196   1.317 -0.0563  0.6741 -0.5520
 6569TIP3   OH219670   1.072   5.666   4.548  0.6478  0.1419 -0.2840
 6569TIP3    H119671   0.989   5.648   4.504  0.5375 -1.0289  0.3484
 6569TIP3    H219672   1.051   5.732   4.614  0.7924  1.8177 -1.8585
 6570TIP3   OH219673   3.160   6.330   0.379 -0.3521 -0.0794  0.1666
 6570TIP3    H119674   3.187   6.405   0.431 -2.6374  1.2509 -0.4683
 6570TIP3    H219675   3.085   6.293   0.426  0.3684 -1.6639  0.1612
 6571TIP3   OH219676   2.642   0.498   1.052  0.0671 -0.6299 -0.2852
 6571TIP3    H119677   2.626   0.405   1.034 -2.8747 -0.1059 -0.7995
 6571TIP3    H219678   2.630   0.542   0.968 -3.0277  0.6372  0.6834
 6572TIP3   OH219679   4.395   0.980   5.088  0.1497 -0.1851  0.0931
 6572TIP3    H119680   4.429   0.975   5.177 -0.1202 -0.2627  0.1939
 6572TIP3    H219681   4.357   0.894   5.072  0.4006 -0.2462 -0.1808
 6573TIP3   OH219682   0.462   5.455   0.731  0.1047  0.3914  0.5460
 6573TIP3    H119683   0.527   5.390   0.702 -1.3339 -1.0893  0.4630
 6573TIP3    H219684   0.402   5.463   0.656 -0.7303  0.4583  1.2088
 6574TIP3   OH219685   1.635   2.720   2.400 -0.0513  0.1353 -0.1867
 6574TIP3    H119686   1.590   2.785   2.456 -1.6404 -0.4675 -0.6930
 6574TIP3    H219687   1.662   2.770   2.323 -2.0379  0.1102 -0.9739
 6575TIP3   OH219688   5.263   3.900   0.197  0.4273  0.2427  0.1903
 6575TIP3    H119689   5.223   3.867   0.277  0.5588  1.0840  0.6084
 6575TIP3    H219690   5.190   3.913   0.137  0.3342 -0.4257  0.1446
 6576TIP3   OH219691   3.336   3.123   2.526 -0.4317  0.6114 -0.7571
 6576TIP3    H119692   3.424   3.144   2.555  0.0530 -0.0463 -1.6871
 6576TIP3    H219693   3.288   3.101   2.606  0.4399  0.3149 -0.3077
 6577TIP3   OH219694   0.600   1.243   4.712  0.0420 -0.0351  0.6191
 6577TIP3    H119695   0.525   1.289   4.672  1.3934 -0.1801 -2.3402
 6577TIP3    H219696   0.663   1.312   4.730  0.3639 -0.2315  0.2591
 6578TIP3   OH219697   4.051   1.713   1.957 -0.1044 -0.2748 -0.1746
 6578TIP3    H119698   3.996   1.770   1.905 -0.2808 -0.5146 -0.2535
 6578TIP3    H219699   4.140   1.737   1.934 -0.1452  0.8477  0.7349
 6579TIP3   OH219700   4.594   1.563   0.089 -0.4770  0.7003  0.3887
 6579TIP3    H119701   4.612   1.568  -0.005  2.5014 -1.2693  0.7033
 6579TIP3    H219702   4.601   1.470   0.110 -1.4916  1.0379  2.5205
 6580TIP3   OH219703   3.187   4.677   4.990 -0.3107  0.4665 -0.3220
 6580TIP3    H119704   3.140   4.639   5.065 -2.9700  2.5388 -0.7868
 6580TIP3    H219705   3.275   4.695   5.023 -1.2975  0.9783  2.2367
 6581TIP3   OH219706   0.092   6.715   0.239 -0.2294  0.5291  0.0890
 6581TIP3    H119707   0.076   6.623   0.258 -0.6655  0.7499  0.8151
 6581TIP3    H219708   0.084   6.721   0.143  0.6628 -0.3403 -0.0570
 6582TIP3   OH219709   1.818   3.375   5.355 -0.0866 -0.1099  0.5107
 6582TIP3    H119710   1.854   3.287   5.341  0.1188  0.4282 -3.5663
 6582TIP3    H219711   1.735   3.375   5.308  0.3626  2.0464 -0.4317
 6583TIP3   OH219712   5.078   4.689   3.750 -0.4270 -0.0568 -0.0971
 6583TIP3    H119713   5.131   4.762   3.784  0.2689  0.1744 -1.6152
 6583TIP3    H219714   4.989   4.722   3.752  0.0925  1.9584 -3.2482
 6584TIP3   OH219715   4.507   3.127   2.755  0.3535 -0.2595  0.4408
 6584TIP3    H119716   4.483   3.040   2.785 -0.7646 -0.3201 -0.5338
 6584TIP3    H219717   4.482   3.185   2.826 -1.4085 -0.4880  0.0704
 6585TIP3   OH219718   2.929   2.678   3.201 -0.0171 -0.1525  0.4727
 6585TIP3    H119719   3.017   2.674   3.163 -0.1083 -3.9115  0.3155
 6585TIP3    H219720   2.871   2.687   3.126  0.1205  3.0538  0.6157
 6586TIP3   OH219721   5.681   6.700   3.857  0.8000  0.0443 -0.2925
 6586TIP3    H119722   5.742   6.687   3.930  0.1236  1.5866  0.6038
 6586TIP3    H219723   5.726   6.761   3.799  1.8337 -2.0863 -1.8386
 6587TIP3   OH219724   4.091   5.581   5.569 -0.1425 -0.3359  0.4727
 6587TIP3    H119725   4.060   5.493   5.549  0.0979 -0.3806  0.3061
 6587TIP3    H219726   4.176   5.568   5.611 -0.5230 -0.2327  1.2926
 6588TIP3   OH219727   1.143   1.598   5.336  0.0383 -0.0537  0.1512
 6588TIP3    H119728   1.106   1.686   5.341 -0.4384 -0.3193  2.2931
 6588TIP3    H219729   1.084   1.551   5.277 -1.0449  0.4706  0.7823
 6589TIP3   OH219730   4.037   0.509   5.443 -0.4818 -0.1369 -0.3002
 6589TIP3    H119731   3.961   0.509   5.501 -0.3512 -0.9239 -0.1220
 6589TIP3    H219732   4.095   0.575   5.480 -1.0665  0.4656 -0.4346
 6590TIP3   OH219733   5.556   2.104   2.574  0.3277 -0.0766 -0.2099
 6590TIP3    H119734   5.545   2.159   2.651  1.2953 -1.4565  0.9593
 6590TIP3    H219735   5.471   2.062   2.562  0.1454  0.2155  0.0522
 6591TIP3   OH219736   5.307   4.926   5.046 -0.3662 -0.3275  0.0287
 6591TIP3    H119737   5.363   4.952   5.119  1.6541  0.8471 -1.8273
 6591TIP3    H219738   5.367   4.917   4.972 -2.6413  1.3651 -2.1931
 6592TIP3   OH219739   0.487   5.731   2.229  0.3313 -0.8722  0.3520
 6592TIP3    H119740   0.562   5.735   2.288  1.1365 -0.0541 -0.6981
 6592TIP3    H219741   0.415   5.767   2.280  1.0589  0.0251  0.7822
 6593TIP3   OH219742   0.414   5.246   3.083  0.0591 -0.5288 -0.3321
 6593TIP3    H119743   0.382   5.308   3.148  1.0645 -0.0467 -0.2744
 6593TIP3    H219744   0.349   5.175   3.083 -1.3171  0.6893 -0.6907
 6594TIP3   OH219745   0.124   3.561   5.151  0.4203  0.0873  0.4332
 6594TIP3    H119746   0.199   3.620   5.150  1.8748 -1.6665 -0.7775
 6594TIP3    H219747   0.138   3.505   5.228  0.9927 -0.9475 -0.3934
 6595TIP3   OH219748   5.715   3.084   5.332  0.6304  0.4912 -0.1339
 6595TIP3    H119749   5.643   3.084   5.396  0.4426  0.5162 -0.3414
 6595TIP3    H219750   5.786   3.130   5.376  1.0878 -0.9430  0.7062
 6596TIP3   OH219751   2.318   6.503   4.420  0.0794  0.1145  0.5700
 6596TIP3    H119752   2.333   6.581   4.367  2.5422 -0.2077  0.6686
 6596TIP3    H219753   2.406   6.474   4.446 -0.7147 -2.6900  0.5251
 6597TIP3   OH219754   3.371   6.237   4.583  0.1190  0.5011 -0.1303
 6597TIP3    H119755   3.371   6.229   4.679  1.9027 -1.3620 -0.2130
 6597TIP3    H219756   3.422   6.316   4.565 -2.1830  2.2346  0.4241
 6598TIP3   OH219757   0.742   4.710   2.548  0.2746 -0.0899 -0.2480
 6598TIP3    H119758   0.744   4.805   2.559  0.4810  0.0346 -1.2782
 6598TIP3    H219759   0.814   4.691   2.488 -1.4452 -0.5706 -2.2716
 6599TIP3   OH219760   1.596   0.832   1.230 -0.0804  0.0729 -0.4066
 6599TIP3    H119761   1.530   0.812   1.297  0.0016 -0.0146 -0.3522
 6599TIP3    H219762   1.620   0.747   1.194 -1.2048  0.2122 -1.5761
 6600TIP3   OH219763   4.294   2.906   3.029  0.0830  0.0838  0.5470
 6600TIP3    H119764   4.301   2.928   3.122  1.4426 -1.7769  0.9374
 6600TIP3    H219765   4.244   2.979   2.992 -2.9581 -0.4481  3.1623
 6601TIP3   OH219766   6.411   5.255   4.731  0.1099 -0.0399 -0.4187
 6601TIP3    H119767   6.411   5.326   4.667  2.3557  0.1209 -0.3174
 6601TIP3    H219768   6.371   5.292   4.809 -2.4432 -0.1644 -1.5733
 6602TIP3   OH219769   0.696   4.205   1.382 -0.0629  0.1537  0.1755
 6602TIP3    H119770   0.680   4.270   1.451  3.3794  1.4015  0.0206
 6602TIP3    H219771   0.753   4.140   1.424 -1.0872 -1.2262 -0.4936
 6603TIP3   OH219772   1.336   5.578   2.490 -0.3079  0.1532  0.0828
 6603TIP3    H119773   1.358   5.660   2.534 -0.5689  0.7727 -0.9274
 6603TIP3    H219774   1.418   5.550   2.449  0.2947 -1.1394  2.0420
 6604TIP3   OH219775   0.984   1.236   3.900  0.1667  0.0147 -0.1819
 6604TIP3    H119776   0.923   1.270   3.965 -0.2154  0.1881 -0.6276
 6604TIP3    H219777   1.061   1.209   3.951 -0.6566 -1.1309  0.5237
 6605TIP3   OH219778   4.064   0.539   2.649 -0.1984  0.6348  0.3481
 6605TIP3    H119779   4.006   0.497   2.586  0.1395 -1.1910  1.1837
 6605TIP3    H219780   4.147   0.549   2.603  1.5661 -4.9469  1.6279
 6606TIP3   OH219781   2.624   2.100   0.899  0.0906  0.4676  0.0676
 6606TIP3    H119782   2.614   2.195   0.888 -1.7151  0.1890 -1.0986
 6606TIP3    H219783   2.564   2.062   0.836 -2.6872 -1.4556  3.5166
 6607TIP3   OH219784   2.859   3.914   4.788  0.0248 -0.1508 -0.2541
 6607TIP3    H119785   2.891   4.003   4.802 -0.4076  0.0545 -0.5603
 6607TIP3    H219786   2.886   3.892   4.698 -0.0815 -0.2379 -0.2655
 6608TIP3   OH219787   4.460   1.400   5.836  0.1698  0.0742  0.0676
 6608TIP3    H119788   4.452   1.325   5.777  0.7802 -0.0357  0.1199
 6608TIP3    H219789   4.546   1.436   5.817  0.3663  0.0426  0.8897
 6609TIP3   OH219790   0.613   5.280   1.702  0.2557  0.5101  0.7531
 6609TIP3    H119791   0.608   5.185   1.708 -2.8495  0.6596  2.3928
 6609TIP3    H219792   0.551   5.303   1.633  2.5519  1.3449 -1.1803
 6610TIP3   OH219793   0.767   5.400   4.655 -0.2428 -0.2393 -0.5229
 6610TIP3    H119794   0.700   5.438   4.713  2.1083 -0.5520  2.6726
 6610TIP3    H219795   0.764   5.306   4.673  2.1910 -0.0788  1.1914
 6611TIP3   OH219796   4.504   4.440   2.090 -0.3293  0.4495 -0.2676
 6611TIP3    H119797   4.435   4.381   2.061 -1.2818  1.2243  0.3426
 6611TIP3    H219798   4.570   4.383   2.129 -1.4352 -0.1776  0.7268
 6612TIP3   OH219799   5.900   5.093   2.575 -0.1449 -0.5000  0.2924
 6612TIP3    H119800   5.899   5.014   2.521  0.2446 -1.3667  1.5079
 6612TIP3    H219801   5.969   5.147   2.537 -1.4474 -0.0272 -1.5078
 6613TIP3   OH219802   2.399   6.222   2.969 -0.4436 -0.1354 -0.4287
 6613TIP3    H119803   2.471   6.267   3.014 -1.7584  1.5038  0.1066
 6613TIP3    H219804   2.361   6.164   3.035  0.2859 -0.9484 -0.6919
 6614TIP3   OH219805   4.384   2.917   3.729  0.3891 -0.1481 -0.5166
 6614TIP3    H119806   4.450   2.985   3.722 -1.1701  1.3047 -2.4526
 6614TIP3    H219807   4.360   2.915   3.822  0.5608  1.9078 -0.3866
 6615TIP3   OH219808   3.398   3.547   5.595 -0.1397 -0.6130  0.6383
 6615TIP3    H119809   3.430   3.598   5.520 -0.1377 -1.1544  0.2654
 6615TIP3    H219810   3.358   3.612   5.652  0.3431 -0.1184  0.4269
 6616TIP3   OH219811   4.368   3.342   5.841 -0.5209  0.1388  0.1824
 6616TIP3    H119812   4.407   3.258   5.862 -1.1608 -0.1522  0.2271
 6616TIP3    H219813   4.320   3.327   5.760 -0.6649  0.4488  0.2078
 6617TIP3   OH219814   6.951   0.878   2.541 -0.8708  0.2422  0.4617
 6617TIP3    H119815   6.871   0.830   2.563 -0.0073 -1.0761  0.9176
 6617TIP3    H219816   7.011   0.810   2.511  0.6189  0.9391  1.7062
 6618TIP3   OH219817   3.617   3.829   2.759 -0.3060  0.4454 -0.5904
 6618TIP3    H119818   3.561   3.826   2.836 -1.7677  1.1077 -1.5766
 6618TIP3    H219819   3.681   3.898   2.778  0.7457 -0.8684  0.8763
 6619TIP3   OH219820   2.619   0.668   2.018 -0.0514 -0.5901 -0.4556
 6619TIP3    H119821   2.544   0.715   1.982  0.7351  0.6379 -0.5380
 6619TIP3    H219822   2.674   0.649   1.943  0.1725 -0.6645 -0.2739
 6620TIP3   OH219823   1.918   2.313   0.530 -0.4045  0.2708  0.0951
 6620TIP3    H119824   1.917   2.383   0.595 -1.5488 -0.6096  1.0677
 6620TIP3    H219825   1.974   2.245   0.569 -0.9682 -0.1945  0.1193
 6621TIP3   OH219826   6.626   1.444   5.309 -0.2825 -0.2976 -0.0409
 6621TIP3    H119827   6.711   1.436   5.266  1.3472  0.4831  2.7949
 6621TIP3    H219828   6.601   1.535   5.296  0.9444  0.3563  1.7685
 6622TIP3   OH219829   7.070   3.120   5.596 -0.0045  0.5576 -0.1515
 6622TIP3    H119830   7.130   3.194   5.607 -0.6953  1.0289  0.6184
 6622TIP3    H219831   6.986   3.160   5.573 -0.0885 -0.0749 -0.9769
 6623TIP3   OH219832   2.822   3.688   3.188  0.2443  0.0806 -0.9092
 6623TIP3    H119833   2.836   3.762   3.130  1.7881 -0.1780 -0.9088
 6623TIP3    H219834   2.795   3.727   3.271  1.2426  0.6712 -0.8465
 6624TIP3   OH219835   2.945   0.453   1.067  0.3199 -0.1161 -0.2826
 6624TIP3    H119836   2.975   0.501   1.144 -0.9899  0.4977 -0.1285
 6624TIP3    H219837   2.850   0.454   1.074  0.2043 -0.6270 -1.5679
 6625TIP3   OH219838   1.483   5.270   4.622 -0.7460 -0.5351  0.0004
 6625TIP3    H119839   1.497   5.238   4.533 -1.2148 -0.0108 -0.2673
 6625TIP3    H219840   1.400   5.318   4.618 -0.1778  0.5079  0.4392
 6626TIP3   OH219841   3.804   0.478   3.122  0.0564 -0.2537 -0.6154
 6626TIP3    H119842   3.760   0.542   3.179  0.1290  0.0968 -0.9464
 6626TIP3    H219843   3.866   0.433   3.180  0.5296  0.4855 -0.5262
 6627TIP3   OH219844   6.309   5.722   3.465  0.4651  0.1715 -0.0644
 6627TIP3    H119845   6.237   5.669   3.499  0.8734 -0.0447  0.4746
 6627TIP3    H219846   6.283   5.813   3.484 -0.2657  0.1816 -1.0476
 6628TIP3   OH219847   2.003   4.617   1.955  0.3690  0.0052 -0.2379
 6628TIP3    H119848   2.076   4.664   1.915 -0.9622  2.0064 -0.4800
 6628TIP3    H219849   1.938   4.610   1.885  0.1129 -1.2902  0.1078
 6629TIP3   OH219850   0.602   2.314   3.345 -0.0525  0.2097 -0.2217
 6629TIP3    H119851   0.660   2.280   3.277 -1.9073  0.1379 -1.8591
 6629TIP3    H219852   0.615   2.255   3.419  2.4400  0.6261 -0.2503
 6630TIP3   OH219853   1.633   0.559   0.436  0.0599 -0.1046  0.3108
 6630TIP3    H119854   1.720   0.528   0.463  0.4865 -1.4370 -2.2418
 6630TIP3    H219855   1.651   0.624   0.368 -0.9630  1.7768  1.7633
 6631TIP3   OH219856   0.135   5.750   5.231 -0.6395 -0.1483  0.1725
 6631TIP3    H119857   0.095   5.837   5.225  0.2934  0.2226 -1.8527
 6631TIP3    H219858   0.147   5.724   5.139  1.5333 -1.2440  0.7117
 6632TIP3   OH219859   3.799   5.928   5.874  0.1482  0.2154 -0.2805
 6632TIP3    H119860   3.723   5.873   5.853  0.1721  0.3593 -0.7458
 6632TIP3    H219861   3.808   5.987   5.800  0.4948  0.4461 -0.0594
 6633TIP3   OH219862   1.356   4.822   2.711 -0.0206 -0.8967 -0.6604
 6633TIP3    H119863   1.414   4.866   2.772  0.0870 -0.0960 -1.3234
 6633TIP3    H219864   1.268   4.835   2.747  0.1804 -2.1693  0.3796
 6634TIP3   OH219865   4.499   0.765   2.722 -0.3418  0.1038  0.4840
 6634TIP3    H119866   4.468   0.727   2.804 -2.3903  1.6953  0.5361
 6634TIP3    H219867   4.505   0.859   2.740  1.0692  0.2583 -0.6411
 6635TIP3   OH219868   3.714   2.265   5.543 -0.1708  0.4397 -0.2440
 6635TIP3    H119869   3.651   2.322   5.499 -1.6810 -1.3431 -0.5470
 6635TIP3    H219870   3.663   2.221   5.611  0.2439 -2.3205 -1.5823
 6636TIP3   OH219871   2.685   1.880   4.421 -0.1208  0.0848  0.1856
 6636TIP3    H119872   2.662   1.792   4.450  0.2120  0.6164  2.2463
 6636TIP3    H219873   2.754   1.908   4.482  0.9692  1.1723 -1.4491
 6637TIP3   OH219874   2.211   1.170   1.694 -0.0071  0.1254 -0.3714
 6637TIP3    H119875   2.140   1.108   1.710 -1.2594  1.2718 -1.2604
 6637TIP3    H219876   2.197   1.239   1.759 -1.0316  1.4101 -1.8859
 6638TIP3   OH219877   1.778   4.503   2.423 -0.2112  0.2977  0.0410
 6638TIP3    H119878   1.728   4.554   2.486  0.5725  1.8560 -0.5358
 6638TIP3    H219879   1.846   4.563   2.393  0.0386 -0.7267 -1.5454
 6639TIP3   OH219880   6.935   5.999   1.744  0.2251 -0.5021 -0.0108
 6639TIP3    H119881   6.928   6.035   1.655 -0.9795  1.1341  0.6907
 6639TIP3    H219882   6.864   6.040   1.792  1.3122 -0.7642  1.9291
 6640TIP3   OH219883   2.009   4.300   0.361 -0.1719  0.2606 -0.3730
 6640TIP3    H119884   1.982   4.323   0.272  0.0633 -0.4601 -0.6373
 6640TIP3    H219885   1.991   4.206   0.368  1.8077 -0.1710 -0.4259
 6641TIP3   OH219886   0.263   4.466   4.332 -0.1970 -0.0351  0.6395
 6641TIP3    H119887   0.297   4.405   4.397  1.1973 -0.2924 -0.2938
 6641TIP3    H219888   0.330   4.534   4.325  0.9029 -1.2724 -2.2257
 6642TIP3   OH219889   6.734   4.689   0.210 -0.2109 -0.0578  0.1992
 6642TIP3    H119890   6.778   4.772   0.224 -0.3270 -0.0815  0.7301
 6642TIP3    H219891   6.647   4.700   0.250 -1.8472  0.9683 -3.2353
 6643TIP3   OH219892   2.852   5.093   4.515  0.0136  0.4765  0.7110
 6643TIP3    H119893   2.862   5.115   4.608 -0.7517  1.4710  0.5852
 6643TIP3    H219894   2.757   5.090   4.502  0.1182  0.1629 -0.0035
 6644TIP3   OH219895   7.224   4.790   1.132 -0.2141  0.4237  0.1557
 6644TIP3    H119896   7.269   4.825   1.055  0.3912 -0.1340  0.2485
 6644TIP3    H219897   7.155   4.734   1.095  1.1809 -1.2642 -0.0189
 6645TIP3   OH219898   4.868   4.019   4.548  0.0254 -0.7372 -0.1511
 6645TIP3    H119899   4.870   4.010   4.453 -0.4532 -1.9981 -0.0581
 6645TIP3    H219900   4.789   4.069   4.566 -1.1438 -2.4600 -0.3041
 6646TIP3   OH219901   0.441   4.494   1.851  0.1724  0.3462 -0.4229
 6646TIP3    H119902   0.442   4.590   1.846 -0.0334  0.4307  0.8294
 6646TIP3    H219903   0.516   4.472   1.906 -0.3584 -0.1335  0.1342
 6647TIP3   OH219904   7.084   5.435   1.085  0.4432  0.3314  0.1393
 6647TIP3    H119905   7.039   5.468   1.163 -0.2967  0.3604 -0.2854
 6647TIP3    H219906   7.031   5.466   1.012  0.1352 -1.1348 -0.3052
 6648TIP3   OH219907   2.186   4.559   4.469  0.1204  0.1910  0.3538
 6648TIP3    H119908   2.100   4.588   4.441  0.6257  0.8900 -0.5198
 6648TIP3    H219909   2.247   4.603   4.410  1.1160  0.1976  1.3465
 6649TIP3   OH219910   0.308   2.337   4.669  0.0957  0.3465 -0.3991
 6649TIP3    H119911   0.337   2.394   4.597  0.0767  0.4447 -0.3301
 6649TIP3    H219912   0.348   2.375   4.747 -0.5521  0.7427 -0.2425
 6650TIP3   OH219913   6.496   3.529   5.117  0.3782  0.1630 -0.4395
 6650TIP3    H119914   6.520   3.620   5.098  0.8445  0.0923 -0.2062
 6650TIP3    H219915   6.400   3.528   5.112  0.3579  0.7150 -0.2286
 6651TIP3   OH219916   0.759   6.753   1.560  0.3192  0.7390 -0.1548
 6651TIP3    H119917   0.765   6.706   1.477 -0.5650 -0.5937  0.5019
 6651TIP3    H219918   0.666   6.755   1.580  0.4546  1.7280  0.4380
 6652TIP3   OH219919   5.764   4.729   2.772 -0.5608  0.1046  0.1645
 6652TIP3    H119920   5.857   4.737   2.791 -0.4035 -0.0933 -0.5068
 6652TIP3    H219921   5.729   4.677   2.845  0.3401 -2.0742 -0.8548
 6653TIP3   OH219922   4.650   0.303   3.139 -0.0772  0.1433 -0.4061
 6653TIP3    H119923   4.725   0.307   3.080  1.3411 -0.5639  1.2743
 6653TIP3    H219924   4.596   0.231   3.104  1.4411 -1.1954 -0.1217
 6654TIP3   OH219925   3.667   6.295   2.479  0.1739 -0.4055  0.3800
 6654TIP3    H119926   3.583   6.313   2.437  0.5912  1.6761  0.3235
 6654TIP3    H219927   3.728   6.357   2.438  1.7451 -1.8357  0.4497
 6655TIP3   OH219928   3.433   5.148   5.179 -0.3285  0.2099 -0.2523
 6655TIP3    H119929   3.521   5.129   5.145  0.1913  0.0203  1.1382
 6655TIP3    H219930   3.384   5.178   5.103  1.0604  0.7111 -0.9819
 6656TIP3   OH219931   5.364   3.452   2.495  0.6675  0.0437  0.9186
 6656TIP3    H119932   5.381   3.390   2.424  1.2410  2.8023 -1.5523
 6656TIP3    H219933   5.273   3.435   2.520  0.7933 -1.7268  0.3590
 6657TIP3   OH219934   4.323   5.077   4.254  0.7441 -0.0809 -0.5520
 6657TIP3    H119935   4.283   5.040   4.333 -0.5588  1.6573 -0.3214
 6657TIP3    H219936   4.303   5.014   4.185 -3.3743  1.0605 -0.6441
 6658TIP3   OH219937   2.105   2.774   0.862  0.4290  0.1795 -0.5992
 6658TIP3    H119938   2.047   2.716   0.911  0.6802  0.9403  0.6343
 6658TIP3    H219939   2.193   2.752   0.894  0.7739 -0.4116 -1.8786
 6659TIP3   OH219940   0.675   3.869   0.818 -0.5423  0.1463 -0.0105
 6659TIP3    H119941   0.736   3.935   0.850  0.9249 -0.7481 -0.8124
 6659TIP3    H219942   0.598   3.878   0.873  0.3198  1.3155  1.0650
 6660TIP3   OH219943   2.484   4.488   3.851 -0.4087 -0.9998 -0.3756
 6660TIP3    H119944   2.551   4.420   3.859 -0.5294 -0.9950  0.9956
 6660TIP3    H219945   2.425   4.456   3.783 -0.3291 -2.1522  0.0780
 6661TIP3   OH219946   2.949   4.187   2.148  0.1726 -0.0838 -0.2512
 6661TIP3    H119947   3.009   4.116   2.129 -0.0255 -0.1535 -0.6240
 6661TIP3    H219948   2.990   4.234   2.221  1.5826  0.9142 -1.6026
 6662TIP3   OH219949   0.163   4.378   0.429 -0.0862 -0.1476  0.1479
 6662TIP3    H119950   0.099   4.343   0.491  0.0220  0.1371  0.4193
 6662TIP3    H219951   0.114   4.441   0.377 -0.1240 -0.2275  0.0857
 6663TIP3   OH219952   3.493   2.056   3.985 -0.7482 -0.1504  0.0259
 6663TIP3    H119953   3.565   2.113   4.013  0.6822 -0.7856 -2.1593
 6663TIP3    H219954   3.508   2.042   3.892 -3.2896 -0.9623 -0.3381
 6664TIP3   OH219955   1.065   0.373   3.173 -0.3154 -0.0566 -0.6751
 6664TIP3    H119956   1.064   0.298   3.114  0.9393 -0.0982 -0.6623
 6664TIP3    H219957   1.153   0.374   3.209 -0.8184  0.4636  0.5773
 6665TIP3   OH219958   2.824   3.571   5.863 -0.2128  0.6803 -0.3061
 6665TIP3    H119959   2.769   3.650   5.868 -0.6207  0.4683 -1.1392
 6665TIP3    H219960   2.857   3.572   5.773 -0.7453 -0.4348 -0.5286
 6666TIP3   OH219961   3.758   2.416   4.155  0.3482  0.7294 -0.0493
 6666TIP3    H119962   3.674   2.429   4.199 -0.0177 -1.6524  0.0906
 6666TIP3    H219963   3.820   2.403   4.226 -0.1143 -2.3897 -0.0652
 6667TIP3   OH219964   3.820   5.466   3.062 -0.1442  0.0884 -0.5014
 6667TIP3    H119965   3.867   5.510   2.991  0.8195  0.4092  0.3000
 6667TIP3    H219966   3.831   5.524   3.137 -1.1191 -0.2576 -0.0796
 6668TIP3   OH219967   0.060   1.281   5.113  0.5984  0.3003 -0.2160
 6668TIP3    H119968  -0.007   1.279   5.044  2.8764  1.0603 -2.6399
 6668TIP3    H219969   0.064   1.372   5.141  0.7727  0.3027 -0.2475
 6669TIP3   OH219970   4.395   3.641   0.176 -0.2541 -0.3223  0.4385
 6669TIP3    H119971   4.488   3.659   0.186 -0.2336 -0.6316  0.8173
 6669TIP3    H219972   4.375   3.575   0.243 -1.4143  1.9975  2.5265
 6670TIP3   OH219973   3.168   2.467   2.170  0.1433 -0.4568 -0.5043
 6670TIP3    H119974   3.235   2.528   2.201 -0.7768 -0.1445  0.9637
 6670TIP3    H219975   3.216   2.400   2.123  1.2399  1.0935 -1.7171
 6671TIP3   OH219976   2.536   0.815   1.407 -0.0111  0.1450 -0.5647
 6671TIP3    H119977   2.505   0.725   1.409 -0.2809  0.2458  0.2926
 6671TIP3    H219978   2.468   0.865   1.452  1.0670  0.4691  0.7661
 6672TIP3   OH219979   1.898   3.105   5.384  0.5195  0.5668 -0.4813
 6672TIP3    H119980   1.975   3.100   5.328 -0.7621 -3.1025 -2.1919
 6672TIP3    H219981   1.918   3.048   5.459 -0.3042  0.0077 -0.6747
 6673TIP3   OH219982   5.866   0.013   2.301  0.0348 -0.4554  0.0703
 6673TIP3    H119983   5.912   0.083   2.255 -0.9418 -0.2418 -0.6093
 6673TIP3    H219984   5.777   0.015   2.265 -0.0308 -2.0052  0.0901
 6674TIP3   OH219985   3.488   3.658   2.438  0.1115  0.4420 -0.2910
 6674TIP3    H119986   3.512   3.750   2.448  1.2363  0.1936 -0.5767
 6674TIP3    H219987   3.471   3.628   2.527  0.4350  0.7570 -0.1189
 6675TIP3   OH219988   3.089   5.425   5.511  0.9338  0.4891  0.0938
 6675TIP3    H119989   3.070   5.387   5.597  0.6733  0.8460  0.1969
 6675TIP3    H219990   3.128   5.353   5.461 -2.2322 -0.8229 -0.7011
 6676TIP3   OH219991   3.219   6.320   5.484  0.0886 -0.2488 -0.1058
 6676TIP3    H119992   3.302   6.339   5.441  0.3042 -1.6967 -0.3976
 6676TIP3    H219993   3.242   6.306   5.576  0.3572 -1.6233 -0.3560
 6677TIP3   OH219994   6.499   0.682   0.712  0.2304  0.2678 -0.2741
 6677TIP3    H119995   6.407   0.659   0.725 -0.0028  1.0577 -0.4557
 6677TIP3    H219996   6.526   0.634   0.634 -0.4294  1.0835 -1.0278
 6678TIP3   OH219997   4.353   5.895   1.559 -0.3960 -0.7182 -0.3383
 6678TIP3    H119998   4.401   5.870   1.638 -1.2604 -1.4991 -0.0427
 6678TIP3    H219999   4.284   5.953   1.591 -1.5943 -2.1121 -0.3032
 6679TIP3   OH220000   0.796   4.337   3.531  0.0560 -0.3172  0.0039
 6679TIP3    H120001   0.793   4.393   3.609 -0.6931 -0.0056 -0.2394
 6679TIP3    H220002   0.877   4.287   3.541  1.2023  1.4008 -0.1766
 6680TIP3   OH220003   5.293   2.324   2.849  0.2946 -0.4566 -0.4030
 6680TIP3    H120004   5.263   2.236   2.871  1.9511 -1.2436 -1.1175
 6680TIP3    H220005   5.366   2.310   2.788  0.2160  1.4321 -0.9917
 6681TIP3   OH220006   3.769   2.132   4.049  0.5408  0.1657  0.1470
 6681TIP3    H120007   3.766   2.200   4.116  0.5937 -0.5876  0.9413
 6681TIP3    H220008   3.861   2.124   4.026  0.5333  0.3633  0.0508
 6682TIP3   OH220009   0.700   6.808   3.908  0.1444  0.4410 -0.2468
 6682TIP3    H120010   0.705   6.777   3.818 -0.5585 -0.2395 -0.0625
 6682TIP3    H220011   0.633   6.753   3.949  1.5428 -0.3048  1.1129
 6683TIP3   OH220012   4.103   3.146   4.006 -0.7181 -0.0316 -0.3473
 6683TIP3    H120013   4.090   3.232   3.967  0.4207  0.3426  0.0420
 6683TIP3    H220014   4.046   3.088   3.957 -1.0099  0.8328 -1.0498
 6684TIP3   OH220015   5.873   5.657   3.013 -0.7770  0.1800  0.3428
 6684TIP3    H120016   5.847   5.566   3.002 -0.2260  0.0517  0.0680
 6684TIP3    H220017   5.801   5.708   2.975 -0.9287 -0.1470  0.1933
 6685TIP3   OH220018   4.707   2.943   2.620  0.3932 -0.2213  0.3855
 6685TIP3    H120019   4.678   3.006   2.685  0.0008 -0.0444  0.0394
 6685TIP3    H220020   4.693   2.986   2.536 -1.1702 -1.2721  0.0671
 6686TIP3   OH220021   6.527   2.668   3.224  0.1089 -0.4921 -0.2138
 6686TIP3    H120022   6.520   2.588   3.171 -0.3846  0.4929 -1.6676
 6686TIP3    H220023   6.621   2.687   3.225  0.2657 -1.2446  0.4005
 6687TIP3   OH220024   0.826   5.644   4.938  0.1738 -0.2331  0.1122
 6687TIP3    H120025   0.852   5.603   5.021  0.3316 -1.5299 -0.5505
 6687TIP3    H220026   0.751   5.592   4.909 -0.1573  0.4876 -0.3534
 6688TIP3   OH220027   6.119   0.444   3.775  0.1488  0.1544 -0.4037
 6688TIP3    H120028   6.092   0.532   3.751  0.6761  0.2798 -0.5550
 6688TIP3    H220029   6.110   0.441   3.870  0.6306  0.5468 -0.3409
 6689TIP3   OH220030   6.210   5.792   1.358 -0.7279 -0.0173 -0.8146
 6689TIP3    H120031   6.255   5.877   1.352 -1.0157  0.1458 -0.6873
 6689TIP3    H220032   6.139   5.807   1.421 -1.0161 -0.2477 -1.0794
 6690TIP3   OH220033   2.178   2.089   0.329  0.1905 -0.3439  0.5569
 6690TIP3    H120034   2.166   2.028   0.402 -0.4511  1.3568  1.9477
 6690TIP3    H220035   2.091   2.096   0.289  0.2043 -0.1793  0.5519
 6691TIP3   OH220036   1.239   3.323   2.173  0.0022  0.1021  0.0223
 6691TIP3    H120037   1.160   3.350   2.126 -0.8801 -1.1417  0.7263
 6691TIP3    H220038   1.208   3.298   2.260  1.2121 -0.1729  0.3929
 6692TIP3   OH220039   5.803   5.120   3.030 -0.4503  0.6671  0.1790
 6692TIP3    H120040   5.762   5.040   3.065 -0.7537  0.7164 -0.0614
 6692TIP3    H220041   5.816   5.101   2.937 -2.0315  1.4984 -0.2507
 6693TIP3   OH220042   4.874   2.816   1.540 -0.2397  0.3132  0.6030
 6693TIP3    H120043   4.950   2.769   1.506 -0.6738 -1.6238  2.1381
 6693TIP3    H220044   4.903   2.851   1.624 -0.7409  0.4481  0.7248
 6694TIP3   OH220045   1.853   3.445   0.874  0.6956 -0.2250 -1.1961
 6694TIP3    H120046   1.944   3.430   0.902  0.2640  0.4790  0.7695
 6694TIP3    H220047   1.808   3.363   0.895  0.1439  0.6556  1.4030
 6695TIP3   OH220048   5.035   3.544   0.758  0.6419 -0.2863 -0.8908
 6695TIP3    H120049   5.115   3.507   0.794  0.7416  1.4940  0.9285
 6695TIP3    H220050   4.964   3.500   0.806  0.7703  1.9589  1.5884
 6696TIP3   OH220051   4.260   5.958   3.206 -0.4157 -0.1455 -0.0893
 6696TIP3    H120052   4.313   5.955   3.286 -0.8176  1.0924  0.2516
 6696TIP3    H220053   4.319   5.996   3.140 -0.1796 -0.8847 -0.3130
 6697TIP3   OH220054   6.165   0.123   1.648  0.1109  0.1040 -0.0292
 6697TIP3    H120055   6.129   0.103   1.561  1.0408 -0.8053 -0.2304
 6697TIP3    H220056   6.124   0.059   1.706  1.2593 -0.8604 -0.2397
 6698TIP3   OH220057   5.531   0.711   0.378  0.0884  0.6892 -0.2127
 6698TIP3    H120058   5.601   0.749   0.325  0.6243  1.2358  0.8654
 6698TIP3    H220059   5.548   0.742   0.467 -0.4163 -0.7376  0.4141
 6699TIP3   OH220060   4.312   2.246   3.895 -0.4010  0.2811 -0.0607
 6699TIP3    H120061   4.301   2.262   3.802  1.2485  1.0406 -0.1749
 6699TIP3    H220062   4.230   2.274   3.935 -0.7129  0.9854 -1.1685
 6700TIP3   OH220063   6.237   3.466   1.661 -0.3276 -0.3192  0.2254
 6700TIP3    H120064   6.273   3.438   1.577 -3.2142  0.8381 -1.5495
 6700TIP3    H220065   6.190   3.390   1.694  0.2677 -0.5717  0.5197
 6701TIP3   OH220066   1.574   6.347   4.415 -0.6904  0.1523  0.2041
 6701TIP3    H120067   1.607   6.391   4.494  0.3579 -0.0644 -0.0999
 6701TIP3    H220068   1.601   6.256   4.425 -1.4151 -0.0870  0.0488
 6702TIP3   OH220069   1.197   2.968   2.978 -0.0751 -0.2558 -0.4501
 6702TIP3    H120070   1.269   2.989   2.919 -1.5366  0.4306 -2.0585
 6702TIP3    H220071   1.130   3.034   2.959 -0.4492  0.2746  2.3146
 6703TIP3   OH220072   5.121   2.428   0.674 -0.1063 -0.0648 -0.8857
 6703TIP3    H120073   5.159   2.438   0.762  0.9344  0.0005 -1.3309
 6703TIP3    H220074   5.188   2.381   0.625 -1.6256 -2.2464 -1.0116
 6704TIP3   OH220075   6.496   0.102   2.139  0.1007 -0.0350  0.1581
 6704TIP3    H120076   6.582   0.128   2.171 -0.6589  2.8203  0.1677
 6704TIP3    H220077   6.484   0.153   2.058 -1.1417 -1.2322 -0.4549
 6705TIP3   OH220078   6.692   3.357   4.456 -0.5510 -0.1908  0.4263
 6705TIP3    H120079   6.641   3.276   4.459  1.2985 -1.4325 -0.5199
 6705TIP3    H220080   6.721   3.371   4.546  1.0801 -1.9179  0.2135
 6706TIP3   OH220081   5.565   0.599   2.955 -0.5702 -0.2029 -0.2616
 6706TIP3    H120082   5.548   0.505   2.962  3.0644 -0.8783  1.6846
 6706TIP3    H220083   5.540   0.635   3.040  2.3972 -0.3937  0.8170
 6707TIP3   OH220084   5.440   4.857   0.832 -0.1893  0.5361 -0.5121
 6707TIP3    H120085   5.402   4.891   0.751  0.8251  3.5565  0.1472
 6707TIP3    H220086   5.528   4.830   0.807 -1.4967 -3.4973 -1.3794
 6708TIP3   OH220087   0.149   3.822   3.865 -0.4334  0.0300  0.1389
 6708TIP3    H120088   0.059   3.851   3.849  0.6163  3.1302 -0.8699
 6708TIP3    H220089   0.193   3.900   3.900  2.1575 -1.0326 -0.5441
 6709TIP3   OH220090   5.454   6.753   0.043  0.1155  0.0878 -0.9379
 6709TIP3    H120091   5.492   6.713   0.121  1.2468  0.2334 -1.4023
 6709TIP3    H220092   5.362   6.766   0.066  0.6807  1.3122  0.8488
 6710TIP3   OH220093   7.141   2.280   3.540  0.1691  0.1312  0.2990
 6710TIP3    H120094   7.218   2.234   3.575  0.1490 -1.0817 -1.1871
 6710TIP3    H220095   7.145   2.266   3.446 -1.4231  0.7783  0.1095
 6711TIP3   OH220096   1.167   0.721   5.343  0.6406 -0.0684 -0.3965
 6711TIP3    H120097   1.076   0.749   5.355  0.3574 -0.9445 -0.4484
 6711TIP3    H220098   1.213   0.758   5.419  0.3715  0.8736 -0.6698
 6712TIP3   OH220099   0.630   2.009   0.553  0.2887 -0.1014  0.8417
 6712TIP3    H120100   0.705   2.036   0.500 -0.1940 -0.4964 -0.0605
 6712TIP3    H220101   0.636   1.914   0.557 -1.4285 -0.3753 -1.2359
 6713TIP3   OH220102   2.992   6.229   2.899  0.0412 -0.0567  0.0905
 6713TIP3    H120103   2.966   6.163   2.963 -0.3979  0.5806  0.5850
 6713TIP3    H220104   2.910   6.272   2.875  0.5166  1.5875  1.2192
 6714TIP3   OH220105   5.773   1.200   2.535 -0.1262 -0.3192 -0.6301
 6714TIP3    H120106   5.860   1.223   2.502  0.2918 -0.9025  0.0460
 6714TIP3    H220107   5.721   1.185   2.456  0.6759 -1.0178 -1.0341
 6715TIP3   OH220108   4.555   1.782   4.384  0.3672  0.0482 -0.2081
 6715TIP3    H120109   4.512   1.833   4.315  0.2979 -1.0021 -0.9583
 6715TIP3    H220110   4.644   1.767   4.351  1.0152  1.3191  0.8737
 6716TIP3   OH220111   0.878   6.385   5.704 -0.1906 -0.4061 -0.5064
 6716TIP3    H120112   0.858   6.431   5.622  1.6129  0.5829 -0.4585
 6716TIP3    H220113   0.916   6.301   5.676 -0.3123 -0.4044 -0.6741
 6717TIP3   OH220114   4.667   2.259   0.871  0.3682  0.1920  0.2847
 6717TIP3    H120115   4.749   2.301   0.845 -0.0125  0.9684  0.2960
 6717TIP3    H220116   4.626   2.232   0.789  0.4310  0.2015  0.2503
 6718TIP3   OH220117   0.847   4.942   0.766 -0.0493 -0.5642  0.8586
 6718TIP3    H120118   0.853   4.857   0.722  1.0714 -1.3916  2.4869
 6718TIP3    H220119   0.772   4.985   0.725  1.1208 -1.0650 -2.0936
 6719TIP3   OH220120   7.148   0.359   4.459  0.3160 -0.2031 -0.1926
 6719TIP3    H120121   7.217   0.328   4.401  0.4559 -1.1008  0.4310
 6719TIP3    H220122   7.068   0.354   4.406  0.5202 -0.4953 -0.4730
 6720TIP3   OH220123   1.502   3.296   1.755 -0.0514  0.0268  0.2235
 6720TIP3    H120124   1.475   3.239   1.827 -2.7229 -0.0805 -0.7593
 6720TIP3    H220125   1.423   3.307   1.702  1.6267  0.6489 -2.3401
 6721TIP3   OH220126   5.197   4.006   5.621 -0.2419  0.2689 -0.3807
 6721TIP3    H120127   5.284   4.027   5.652 -0.2394 -0.3971  0.0631
 6721TIP3    H220128   5.199   3.913   5.601 -1.5858 -0.3780  2.1456
 6722TIP3   OH220129   3.454   5.371   5.672 -0.1981 -0.0155  0.3314
 6722TIP3    H120130   3.476   5.393   5.581  1.3867 -2.6540 -0.0228
 6722TIP3    H220131   3.385   5.306   5.665  0.0034 -0.3066  1.0076
 6723TIP3   OH220132   2.593   2.901   2.823  0.5004  0.3624 -0.4187
 6723TIP3    H120133   2.596   2.976   2.764  0.3553  0.6302 -0.0865
 6723TIP3    H220134   2.634   2.932   2.903 -0.5646  0.4328  0.1070
 6724TIP3   OH220135   2.046   5.477   5.193  0.0127 -0.1158 -0.1036
 6724TIP3    H120136   1.982   5.500   5.125  0.9968  3.2275 -0.0588
 6724TIP3    H220137   1.993   5.462   5.271 -0.8427  1.6115 -0.3058
 6725TIP3   OH220138   0.168   0.345   4.693  0.1424  0.5316 -0.3284
 6725TIP3    H120139   0.206   0.324   4.608 -1.9056  0.5767 -1.3332
 6725TIP3    H220140   0.186   0.438   4.705 -1.1992  1.0190 -1.7004
 6726TIP3   OH220141   5.714   2.303   3.553 -0.6710  0.8261  0.2299
 6726TIP3    H120142   5.799   2.336   3.524  0.1295  0.6971  2.3035
 6726TIP3    H220143   5.726   2.208   3.560 -2.0558  0.3300 -2.7363
 6727TIP3   OH220144   2.345   0.542   0.353  0.6800 -0.3652 -0.3007
 6727TIP3    H120145   2.345   0.634   0.378 -0.5385 -0.6748  0.9829
 6727TIP3    H220146   2.335   0.542   0.258 -0.2918  0.8344 -0.2186
 6728TIP3   OH220147   3.597   4.410   0.909  0.1418  0.3675 -0.3054
 6728TIP3    H120148   3.594   4.315   0.913  0.6006  0.3564 -0.0680
 6728TIP3    H220149   3.518   4.436   0.862 -0.8378 -0.0328  1.0786
 6729TIP3   OH220150   0.760   4.378   0.145  0.1309  0.2552  0.0846
 6729TIP3    H120151   0.767   4.385   0.240 -0.0562 -2.3132  0.3549
 6729TIP3    H220152   0.848   4.396   0.113  0.2268  0.9931  0.7363
 6730TIP3   OH220153   5.304   3.635   3.426  0.5888  0.2682  0.0965
 6730TIP3    H120154   5.274   3.642   3.516 -0.0768 -1.0456 -0.0076
 6730TIP3    H220155   5.396   3.662   3.429  0.1867  1.6381  0.8960
 6731TIP3   OH220156   5.880   1.682   3.637  0.3070  0.3852  0.2423
 6731TIP3    H120157   5.922   1.747   3.693 -0.3022  0.9143  0.1047
 6731TIP3    H220158   5.951   1.644   3.586  0.6202  1.2777 -0.0056
 6732TIP3   OH220159   3.378   0.850   1.662 -0.4344 -0.1786  0.2942
 6732TIP3    H120160   3.283   0.850   1.677 -0.2528  1.3483  1.7227
 6732TIP3    H220161   3.401   0.942   1.654  0.8187 -0.5719 -1.0965
 6733TIP3   OH220162   3.296   3.587   5.039  0.3896 -0.1977 -0.4150
 6733TIP3    H120163   3.256   3.605   5.124 -1.2661  2.0819 -1.5688
 6733TIP3    H220164   3.349   3.508   5.053 -0.5379 -0.4073  2.4673
 6734TIP3   OH220165   6.610   6.722   5.476 -0.5122  0.3301 -0.5406
 6734TIP3    H120166   6.688   6.751   5.430  0.0844 -1.0109 -0.4010
 6734TIP3    H220167   6.554   6.686   5.408  0.6635 -2.2996 -0.2124
 6735TIP3   OH220168   0.451   4.360   0.691  0.1154  0.2677  0.2806
 6735TIP3    H120169   0.396   4.282   0.689 -0.2602  0.4509  2.0909
 6735TIP3    H220170   0.539   4.327   0.710  0.2878  0.1411 -0.7148
 6736TIP3   OH220171   6.017   4.088   4.336  0.3092  0.7473 -0.0073
 6736TIP3    H120172   6.086   4.035   4.376  1.4195 -0.4773 -3.2089
 6736TIP3    H220173   6.044   4.178   4.350  1.1716  0.3483  1.0504
 6737TIP3   OH220174   1.063   0.142   0.674  0.2136 -0.6191 -0.0045
 6737TIP3    H120175   1.055   0.104   0.761 -1.1552 -2.3024 -0.8076
 6737TIP3    H220176   0.983   0.193   0.662 -0.0312 -1.1366 -0.6092
 6738TIP3   OH220177   0.040   6.221   5.859  0.5362 -0.3537  0.3961
 6738TIP3    H120178   0.079   6.146   5.904  0.8663 -0.6776 -0.4135
 6738TIP3    H220179   0.115   6.270   5.826  0.4860  1.7342  3.0183
 6739TIP3   OH220180   3.800   0.339   0.985 -0.5854  0.4752  0.0257
 6739TIP3    H120181   3.794   0.266   1.047  2.7530  0.2749  0.2936
 6739TIP3    H220182   3.720   0.332   0.933 -0.5562 -3.2630  0.1894
 6740TIP3   OH220183   2.582   6.405   2.010  0.7286  0.1148  0.3420
 6740TIP3    H120184   2.551   6.477   2.064  0.6415 -0.0784  0.5484
 6740TIP3    H220185   2.563   6.327   2.060  1.6040 -0.0045  0.5014
 6741TIP3   OH220186   3.092   5.824   2.118 -0.1825  0.4526 -0.5472
 6741TIP3    H120187   3.156   5.849   2.184 -1.2840  0.9863  0.3351
 6741TIP3    H220188   3.089   5.728   2.123  1.0809  0.3597 -1.1300
 6742TIP3   OH220189   0.964   5.039   5.004 -0.2923 -0.3932  0.4494
 6742TIP3    H120190   0.999   5.114   4.955  1.4883 -1.9297 -0.7665
 6742TIP3    H220191   1.038   5.008   5.057 -2.0478  1.0199  4.0924
 6743TIP3   OH220192   1.207   3.042   0.688 -0.1450  0.0696 -0.0423
 6743TIP3    H120193   1.301   3.058   0.689 -0.1966  0.3413  0.6081
 6743TIP3    H220194   1.191   2.999   0.604  0.4215  0.8596 -0.5648
 6744TIP3   OH220195   5.383   0.324   2.444  0.1533 -0.4015 -0.7916
 6744TIP3    H120196   5.443   0.361   2.508  0.0761 -1.5718 -0.0180
 6744TIP3    H220197   5.405   0.230   2.441 -1.3667 -0.7790 -0.7818
 6745TIP3   OH220198   3.941   5.865   3.797 -0.0192  0.2386  0.2000
 6745TIP3    H120199   3.930   5.839   3.888 -0.2498 -0.1168  0.0721
 6745TIP3    H220200   3.950   5.960   3.800  1.4615  0.1105  0.7326
 6746TIP3   OH220201   2.346   5.812   1.797 -0.6113  0.1710  0.3613
 6746TIP3    H120202   2.306   5.839   1.714 -0.4740  0.7189  0.4736
 6746TIP3    H220203   2.413   5.749   1.771  0.0616  1.0262 -0.0343
 6747TIP3   OH220204   5.200   0.275   1.279  0.0853 -0.5022 -0.3074
 6747TIP3    H120205   5.192   0.241   1.368  1.0337 -1.5138 -0.5796
 6747TIP3    H220206   5.248   0.357   1.288 -0.2318 -0.3676  0.1539
 6748TIP3   OH220207   4.550   5.921   0.075  0.7739  0.2501 -0.2982
 6748TIP3    H120208   4.609   5.848   0.095  1.7445  0.8813 -0.7728
 6748TIP3    H220209   4.557   5.933  -0.020  2.1199  2.1511 -0.0228
 6749TIP3   OH220210   0.966   1.862   1.921  0.0862 -0.2964 -0.4158
 6749TIP3    H120211   0.955   1.957   1.918  0.7215 -0.2317 -0.7408
 6749TIP3    H220212   1.026   1.848   1.994 -0.8951 -0.5422  0.3784
 6750TIP3   OH220213   1.173   4.241   1.111 -0.0096  0.5192  0.2762
 6750TIP3    H120214   1.237   4.312   1.111 -0.2217  0.7242 -0.8694
 6750TIP3    H220215   1.109   4.267   1.177  1.2857  0.0820  1.8048
 6751TIP3   OH220216   5.215   5.853   0.064 -0.1035  0.3951  0.0397
 6751TIP3    H120217   5.186   5.855   0.155 -0.2468 -1.4197  0.0592
 6751TIP3    H220218   5.309   5.838   0.069  0.0248  1.0893 -0.1197
 6752TIP3   OH220219   2.475   1.406   2.221 -0.3992  0.2197  0.0196
 6752TIP3    H120220   2.420   1.341   2.264 -0.9179 -0.5237 -1.6811
 6752TIP3    H220221   2.531   1.355   2.162  0.5335  1.1654  0.0629
 6753TIP3   OH220222   2.551   5.888   2.053  0.2600  0.1637  0.3687
 6753TIP3    H120223   2.631   5.917   2.096 -0.5754  1.7306  0.9261
 6753TIP3    H220224   2.570   5.894   1.959  0.4625  1.5526  0.4814
 6754TIP3   OH220225   0.586   3.500   2.904  0.6110  0.3403  0.6175
 6754TIP3    H120226   0.563   3.542   2.821  2.0243  0.7742  0.4078
 6754TIP3    H220227   0.502   3.482   2.947 -0.0936  1.4213 -0.2574
 6755TIP3   OH220228   3.395   6.322   2.676  0.7305  0.0734  0.3571
 6755TIP3    H120229   3.444   6.385   2.731 -1.5820  0.4955  2.0809
 6755TIP3    H220230   3.312   6.311   2.721 -0.8253 -0.5844 -2.4631
 6756TIP3   OH220231   2.166   1.436   2.521  0.0968  0.2799  0.3126
 6756TIP3    H120232   2.247   1.387   2.512 -0.8574 -1.4141  0.4856
 6756TIP3    H220233   2.190   1.513   2.572  1.2749 -1.0301  1.8484
 6757TIP3   OH220234   2.877   5.182   1.663  0.1009 -0.2428 -0.9658
 6757TIP3    H120235   2.823   5.245   1.711  2.1147  1.5881 -0.9581
 6757TIP3    H220236   2.834   5.173   1.578  0.3214  2.0167 -1.3731
 6758TIP3   OH220237   5.885   3.228   1.927 -0.3375  0.2007 -0.5141
 6758TIP3    H120238   5.921   3.285   1.995  2.1246 -1.0583 -0.6449
 6758TIP3    H220239   5.945   3.239   1.853  0.4990 -2.7768 -0.3916
 6759TIP3   OH220240   3.763   6.344   0.573 -0.3749 -0.4795  0.6265
 6759TIP3    H120241   3.672   6.315   0.581  0.0897 -2.1217  0.2675
 6759TIP3    H220242   3.773   6.370   0.482 -0.3462 -0.8238  0.5299
 6760TIP3   OH220243   4.473   2.356   3.345  0.1954 -0.0322 -0.3838
 6760TIP3    H120244   4.429   2.415   3.407 -0.6570 -1.6801  0.6466
 6760TIP3    H220245   4.404   2.298   3.314  1.1730 -1.0854 -0.6464
 6761TIP3   OH220246   6.338   1.822   3.458 -0.2520 -0.1512  0.0858
 6761TIP3    H120247   6.430   1.819   3.432 -0.4744 -1.2414 -0.6381
 6761TIP3    H220248   6.290   1.843   3.378 -0.7653 -1.3535  0.0468
 6762TIP3   OH220249   3.888   6.285   1.373  0.4357  0.0910 -0.0420
 6762TIP3    H120250   3.838   6.241   1.304  0.2911  1.0748 -0.5804
 6762TIP3    H220251   3.855   6.375   1.373  2.7487  1.0046 -0.9723
 6763TIP3   OH220252   6.655   1.782   1.974  0.5694 -0.1205 -0.3805
 6763TIP3    H120253   6.725   1.759   1.912 -0.3409 -2.2724 -0.6885
 6763TIP3    H220254   6.624   1.698   2.008 -0.8849  0.8648  0.8789
 6764TIP3   OH220255   5.747   2.174   4.818  0.2678  0.1084  0.6455
 6764TIP3    H120256   5.817   2.143   4.761 -0.4169 -1.5323  0.6285
 6764TIP3    H220257   5.790   2.238   4.875  1.5679 -0.1892  0.0547
 6765TIP3   OH220258   3.011   0.784   3.472 -0.0808 -0.0987 -0.4328
 6765TIP3    H120259   3.022   0.852   3.539 -2.0283  0.2889 -0.4333
 6765TIP3    H220260   2.962   0.715   3.516 -3.6512  1.2068 -1.9260
 6766TIP3   OH220261   0.351   1.188   5.719  0.4059  0.2413  0.2392
 6766TIP3    H120262   0.446   1.188   5.729  0.4865  0.7468 -0.4511
 6766TIP3    H220263   0.331   1.269   5.671 -0.2650 -0.3386 -0.5126
 6767TIP3   OH220264   2.738   4.992   5.544 -0.0716 -0.3342 -0.1416
 6767TIP3    H120265   2.804   4.926   5.525  1.4691  1.6146 -2.0932
 6767TIP3    H220266   2.787   5.073   5.554 -2.0148  0.8324  0.4065
 6768TIP3   OH220267   6.433   6.625   5.242  0.0655  0.7661 -0.2426
 6768TIP3    H120268   6.410   6.532   5.249 -1.5668  1.2474  2.4832
 6768TIP3    H220269   6.472   6.634   5.155  0.4551 -2.4769 -0.5346
 6769TIP3   OH220270   6.686   0.366   4.523  0.2338 -0.8377  0.0749
 6769TIP3    H120271   6.608   0.311   4.535 -0.1646  0.0007  1.4894
 6769TIP3    H220272   6.673   0.440   4.582  1.0996  0.4339 -1.2514
 6770TIP3   OH220273   5.425   3.873   0.944  0.2327 -0.5039  0.2301
 6770TIP3    H120274   5.376   3.794   0.966 -0.9191  0.6334  2.0219
 6770TIP3    H220275   5.487   3.884   1.017 -0.4169  0.8391  0.6104
 6771TIP3   OH220276   4.200   5.696   2.416 -0.0470 -0.0446  0.4356
 6771TIP3    H120277   4.231   5.615   2.375  1.2621  0.5435  0.2000
 6771TIP3    H220278   4.109   5.705   2.387 -0.6009 -2.0065  1.4018
 6772TIP3   OH220279   3.998   1.081   4.525 -0.7596  0.5063  0.0783
 6772TIP3    H120280   3.987   1.027   4.447 -2.4067  0.2638  0.4391
 6772TIP3    H220281   3.941   1.040   4.591  0.2520  0.9619  1.2740
 6773TIP3   OH220282   4.988   4.028   2.105  0.1169 -0.3766  0.0895
 6773TIP3    H120283   4.959   4.007   2.194  1.1130 -0.4606  0.4056
 6773TIP3    H220284   4.959   3.953   2.052  1.0440 -1.1717  0.6720
 6774TIP3   OH220285   3.453   1.104   3.482 -0.5208  0.2122 -0.3370
 6774TIP3    H120286   3.458   1.014   3.514  1.0843 -0.0192 -1.1231
 6774TIP3    H220287   3.367   1.110   3.441 -1.0142 -0.6780  0.5265
 6775TIP3   OH220288   3.172   0.112   5.384 -0.2174  0.1127  0.1245
 6775TIP3    H120289   3.190   0.054   5.457 -0.2971 -1.2318 -0.8902
 6775TIP3    H220290   3.243   0.176   5.386  0.6604 -0.8472  0.4467
 6776TIP3   OH220291   6.448   1.765   0.226 -0.0124  0.0758 -0.1118
 6776TIP3    H120292   6.464   1.681   0.269 -1.7030 -0.1248  0.1921
 6776TIP3    H220293   6.354   1.779   0.234  0.1427  1.7195 -0.6982
 6777TIP3   OH220294   0.886   4.125   3.891  0.3083  0.2344 -0.0649
 6777TIP3    H120295   0.811   4.146   3.836 -0.0370  1.2852  0.7597
 6777TIP3    H220296   0.860   4.153   3.979  1.2019 -0.5212  0.4585
 6778TIP3   OH220297   4.083   5.714   5.129  0.2656  0.2308 -0.0382
 6778TIP3    H120298   4.041   5.800   5.136 -1.8501 -0.6375 -1.1157
 6778TIP3    H220299   4.120   5.698   5.216  1.1516  2.4075  0.0587
 6779TIP3   OH220300   1.431   0.337   0.510  0.1827 -0.1638 -0.9037
 6779TIP3    H120301   1.451   0.273   0.579 -1.8106 -2.0760 -1.9732
 6779TIP3    H220302   1.516   0.374   0.486  0.8914  1.6064  3.3813
 6780TIP3   OH220303   5.626   5.916   3.967  0.0879 -0.8315  0.2414
 6780TIP3    H120304   5.565   5.965   4.023 -0.1754  0.4022 -1.0868
 6780TIP3    H220305   5.682   5.983   3.928  0.0419 -1.6256 -1.2453
 6781TIP3   OH220306   2.082   0.655   2.313 -0.3237  0.2478  0.6324
 6781TIP3    H120307   2.023   0.691   2.247 -0.9414 -1.3645  0.2750
 6781TIP3    H220308   2.162   0.636   2.265 -0.6991 -0.7257  0.3814
 6782TIP3   OH220309   2.184   2.174   3.406  0.2584 -0.0332  0.5302
 6782TIP3    H120310   2.117   2.107   3.394 -0.2977  0.5550  0.2878
 6782TIP3    H220311   2.201   2.208   3.318  1.5399 -0.7972  0.4622
 6783TIP3   OH220312   2.605   1.028   3.266 -0.4099  0.0577  0.7092
 6783TIP3    H120313   2.663   1.052   3.339  0.2029 -0.2921  0.3497
 6783TIP3    H220314   2.517   1.034   3.302 -0.3688  3.2325  0.5701
 6784TIP3   OH220315   5.301   0.688   5.317 -0.6818  0.4522 -0.3198
 6784TIP3    H120316   5.381   0.640   5.297  0.3783  2.1554 -0.2822
 6784TIP3    H220317   5.253   0.690   5.235  0.4676  1.5300 -0.9868
 6785TIP3   OH220318   0.731   6.018   1.232 -0.2950 -0.1863  0.0936
 6785TIP3    H120319   0.801   6.067   1.189 -1.2064  1.8722  0.8112
 6785TIP3    H220320   0.764   6.004   1.321 -0.2760 -0.3645  0.0588
 6786TIP3   OH220321   1.380   3.668   2.500  0.0542 -0.6524 -0.0972
 6786TIP3    H120322   1.391   3.608   2.573 -0.4735 -0.7823 -0.1186
 6786TIP3    H220323   1.345   3.613   2.429  1.6996 -0.7886 -0.8496
 6787TIP3   OH220324   4.184   1.718   1.084  0.1801 -0.0256 -0.1153
 6787TIP3    H120325   4.164   1.632   1.120  1.7785 -0.1922  0.4404
 6787TIP3    H220326   4.170   1.778   1.157  0.1914  0.0431 -0.1698
 6788TIP3   OH220327   2.235   6.694   2.397 -0.3081  0.1558 -0.1001
 6788TIP3    H120328   2.164   6.759   2.396 -0.2003  0.4032  2.4439
 6788TIP3    H220329   2.196   6.617   2.439 -0.0847 -1.0482 -2.0064
 6789TIP3   OH220330   6.106   5.849   0.442  0.0560 -0.2791 -0.1457
 6789TIP3    H120331   6.102   5.861   0.537 -1.7136  0.9957 -0.3347
 6789TIP3    H220332   6.041   5.910   0.407  0.7596 -0.6255 -2.1997
 6790TIP3   OH220333   5.051   5.590   4.749  0.1216 -0.2490 -0.0858
 6790TIP3    H120334   5.029   5.588   4.656 -0.0916 -1.1263 -0.0244
 6790TIP3    H220335   4.990   5.654   4.787 -1.3134 -1.4710 -0.1953
 6791TIP3   OH220336   3.667   2.389   2.873  0.3693 -0.2261  0.3165
 6791TIP3    H120337   3.573   2.407   2.874  0.1843 -1.0087  2.8402
 6791TIP3    H220338   3.675   2.305   2.827 -0.3139 -0.7549  1.1448
 6792TIP3   OH220339   1.790   5.638   5.854 -0.0119 -0.5282  0.5542
 6792TIP3    H120340   1.732   5.688   5.796  0.7802  0.4566  0.5876
 6792TIP3    H220341   1.822   5.702   5.917  2.5812 -0.5847 -0.5963
 6793TIP3   OH220342   4.986   1.976   0.500  0.1483  0.6932 -0.2120
 6793TIP3    H120343   5.002   1.884   0.523 -2.4840  0.0498 -0.6914
 6793TIP3    H220344   5.026   1.986   0.414  0.6653  0.0779 -0.0553
 6794TIP3   OH220345   2.708   2.383   0.432 -0.3243 -0.2490 -0.4056
 6794TIP3    H120346   2.790   2.349   0.467 -0.9818 -0.8630  0.5968
 6794TIP3    H220347   2.641   2.353   0.494 -1.1066  1.7111 -0.2194
 6795TIP3   OH220348   4.202   6.152   3.918 -0.5244  0.3034  0.8244
 6795TIP3    H120349   4.211   6.235   3.872  0.9811  0.3731  1.1911
 6795TIP3    H220350   4.113   6.122   3.897 -0.7916  1.5895  0.0229
 6796TIP3   OH220351   5.448   0.153   5.853 -0.0902 -0.1980  0.0969
 6796TIP3    H120352   5.411   0.227   5.901 -1.3958 -1.4814  1.1727
 6796TIP3    H220353   5.418   0.166   5.762  1.3439  1.5793 -0.1857
 6797TIP3   OH220354   6.923   1.688   1.333  0.0835  0.4494 -0.0701
 6797TIP3    H120355   7.002   1.658   1.378 -0.1462 -0.3057 -0.1543
 6797TIP3    H220356   6.865   1.718   1.403 -0.0136 -0.0967  0.0858
 6798TIP3   OH220357   3.463   3.775   0.070  0.1232 -0.4859  0.3497
 6798TIP3    H120358   3.396   3.711   0.094  0.7979 -1.2964  0.1070
 6798TIP3    H220359   3.435   3.807  -0.016 -0.6144  0.1119  0.7988
 6799TIP3   OH220360   1.314   2.051   2.452  0.2248  0.2403  0.3492
 6799TIP3    H120361   1.308   2.137   2.410 -0.4572  0.2454  0.4415
 6799TIP3    H220362   1.324   2.071   2.546 -0.7349  0.2272  0.4655
 6800TIP3   OH220363   0.365   4.512   0.886 -0.0800  0.6936  0.2420
 6800TIP3    H120364   0.360   4.440   0.950  2.9401  2.9591  3.3976
 6800TIP3    H220365   0.406   4.472   0.809 -2.4411 -1.8119  0.1443
 6801TIP3   OH220366   2.272   0.386   1.248  0.1632 -0.8105  0.0788
 6801TIP3    H120367   2.182   0.364   1.224 -0.2552  1.0582 -0.1811
 6801TIP3    H220368   2.322   0.373   1.168  0.1740 -1.9181  0.2408
 6802TIP3   OH220369   1.601   1.941   1.541 -0.1865 -0.1576  0.6585
 6802TIP3    H120370   1.641   2.019   1.579 -0.6001  0.5729 -0.3542
 6802TIP3    H220371   1.673   1.896   1.497  0.2377 -0.8633  2.0174
 6803TIP3   OH220372   4.708   4.760   1.718  0.0181  0.0514 -0.8033
 6803TIP3    H120373   4.635   4.705   1.748  0.5645 -0.2051  0.1059
 6803TIP3    H220374   4.710   4.833   1.780  1.2293 -0.5359 -0.1174
 6804TIP3   OH220375   4.957   6.018   4.316  0.1339  0.2272 -0.0900
 6804TIP3    H120376   4.968   6.054   4.228 -1.0023 -0.1538 -0.4088
 6804TIP3    H220377   4.998   6.082   4.374  0.0684  0.9516 -0.8314
 6805TIP3   OH220378   0.607   5.389   2.628 -0.5142  0.0598  0.0798
 6805TIP3    H120379   0.597   5.435   2.711 -1.6431  2.1297 -1.1134
 6805TIP3    H220380   0.684   5.428   2.587  1.4898 -2.5796  1.0514
 6806TIP3   OH220381   1.093   3.901   3.326 -0.2189  0.4327  0.3910
 6806TIP3    H120382   1.138   3.963   3.269 -1.0637  0.9184  0.2287
 6806TIP3    H220383   1.051   3.955   3.393  0.2649 -0.0891  1.1277
 6807TIP3   OH220384   6.260   6.084   4.514  0.1028  0.0360  0.2375
 6807TIP3    H120385   6.250   6.079   4.419 -0.0890  0.1893  0.2502
 6807TIP3    H220386   6.287   6.174   4.531  0.4650 -0.0804  0.2995
 6808TIP3   OH220387   5.915   6.247   5.245 -0.3058  0.0418 -0.9363
 6808TIP3    H120388   5.847   6.246   5.312  0.2475 -0.3002 -0.3713
 6808TIP3    H220389   5.869   6.224   5.164 -0.9743  0.4351 -0.6721
 6809TIP3   OH220390   4.015   5.564   0.751  0.2134 -0.0329  0.3026
 6809TIP3    H120391   4.103   5.601   0.750 -0.3441  1.6642 -3.1747
 6809TIP3    H220392   4.029   5.470   0.738  1.5364  0.1593  0.1460
 6810TIP3   OH220393   0.101   2.993   1.611  0.4488  0.4167 -0.6480
 6810TIP3    H120394   0.088   2.966   1.701  0.6204 -0.1434 -0.7854
 6810TIP3    H220395   0.179   3.049   1.613  0.1838  0.7803 -0.3853
 6811TIP3   OH220396   6.847   0.894   5.066 -0.2726 -0.2258  0.3776
 6811TIP3    H120397   6.814   0.804   5.071  0.0544 -0.4047 -0.3906
 6811TIP3    H220398   6.845   0.926   5.156  2.2369 -1.9826  1.1960
 6812TIP3   OH220399   3.709   5.090   0.413 -0.4503 -0.1067 -0.1573
 6812TIP3    H120400   3.792   5.084   0.366 -0.4262  0.0117 -0.1299
 6812TIP3    H220401   3.716   5.026   0.484 -0.3876 -0.1042 -0.1617
 6813TIP3   OH220402   0.700   0.146   3.279 -0.3840  0.3187 -0.0216
 6813TIP3    H120403   0.712   0.228   3.230  1.5088 -1.0555 -2.0400
 6813TIP3    H220404   0.784   0.101   3.271 -1.1013 -1.4838  1.7584
 6814TIP3   OH220405   4.626   3.869   2.921 -0.1937 -0.0325  0.1280
 6814TIP3    H120406   4.695   3.934   2.935  1.2147 -1.2806 -0.7495
 6814TIP3    H220407   4.554   3.899   2.977  1.0823  1.2491  1.1744
 6815TIP3   OH220408   3.623   4.012   4.229 -0.1462 -0.4356  0.0132
 6815TIP3    H120409   3.557   4.060   4.179  0.2624 -0.3838 -0.4923
 6815TIP3    H220410   3.585   4.002   4.317 -1.1647 -1.1173 -0.4791
 6816TIP3   OH220411   2.262   5.404   2.813  0.1785 -0.1601 -0.3941
 6816TIP3    H120412   2.336   5.345   2.797  0.6222  0.1530  0.4417
 6816TIP3    H220413   2.197   5.348   2.856  0.5601 -0.0834  0.3060
 6817TIP3   OH220414   1.096   2.699   0.625  0.4209 -0.1954  0.6179
 6817TIP3    H120415   1.072   2.680   0.534  1.1021  0.0010  0.3925
 6817TIP3    H220416   1.154   2.627   0.650  1.3307  0.4636  0.4473
 6818TIP3   OH220417   1.943   5.887   0.249  0.4507  0.4863 -0.0624
 6818TIP3    H120418   1.905   5.926   0.170  0.9427 -1.4120 -1.3371
 6818TIP3    H220419   2.022   5.938   0.266 -0.0346  1.3508 -0.3938
 6819TIP3   OH220420   3.304   1.387   4.933 -0.2013 -0.4844 -0.4882
 6819TIP3    H120421   3.391   1.359   4.905 -0.8009 -1.0224 -1.8723
 6819TIP3    H220422   3.243   1.336   4.879 -1.3982 -0.5436  0.8500
 6820TIP3   OH220423   5.697   2.859   0.786 -0.8087 -0.0429 -0.2372
 6820TIP3    H120424   5.696   2.789   0.851 -2.0545 -0.2269 -0.4175
 6820TIP3    H220425   5.614   2.848   0.739 -0.7347  1.1745 -0.6769
 6821TIP3   OH220426   3.647   4.195   5.724 -0.1949 -0.3129 -0.4198
 6821TIP3    H120427   3.714   4.228   5.665 -1.5443  0.0908 -1.8198
 6821TIP3    H220428   3.689   4.124   5.772  1.7481  1.1290  0.1346
 6822TIP3   OH220429   6.268   5.865   1.044  0.1507  0.3535 -0.3371
 6822TIP3    H120430   6.178   5.844   1.070  0.1918 -0.7001 -1.0157
 6822TIP3    H220431   6.289   5.943   1.095 -0.0736 -1.0950  2.1368
 6823TIP3   OH220432   1.120   2.794   5.483  0.8333  0.3477  0.6836
 6823TIP3    H120433   1.152   2.717   5.530  2.0380  0.5703  0.2718
 6823TIP3    H220434   1.175   2.798   5.405  0.2635  1.1867  0.3188
 6824TIP3   OH220435   4.066   2.565   1.980 -0.9517  0.2114  0.3860
 6824TIP3    H120436   4.079   2.480   1.937  1.3303  1.3102 -1.3396
 6824TIP3    H220437   4.070   2.546   2.073  2.4403 -1.2888  0.0671
 6825TIP3   OH220438   6.174   5.918   0.177 -0.3349 -0.0458  0.3034
 6825TIP3    H120439   6.165   5.887   0.267 -0.9476  1.0184  0.6294
 6825TIP3    H220440   6.262   5.890   0.151 -0.3739 -0.8793  1.0243
 6826TIP3   OH220441   2.839   4.947   3.955 -0.5654  0.7206  0.4365
 6826TIP3    H120442   2.868   4.945   4.047  0.7556 -1.6614  0.0548
 6826TIP3    H220443   2.813   5.038   3.940  0.2445  1.4281  2.8508
 6827TIP3   OH220444   4.540   5.955   1.828  0.5856 -0.1923  0.1273
 6827TIP3    H120445   4.556   6.031   1.884 -1.6449  1.0731 -0.7996
 6827TIP3    H220446   4.625   5.934   1.789  1.2173  1.9379  0.2725
 6828TIP3   OH220447   6.330   0.867   4.504  0.4316 -0.3660  0.1786
 6828TIP3    H120448   6.415   0.898   4.475  0.2004  0.2209  0.1092
 6828TIP3    H220449   6.276   0.869   4.425 -0.0816  0.8172  0.5408
 6829TIP3   OH220450   3.768   5.971   1.369  0.0334  0.1112  0.0582
 6829TIP3    H120451   3.804   5.917   1.299 -1.6134 -1.8242  0.6294
 6829TIP3    H220452   3.726   6.044   1.323 -0.0440 -0.5262 -0.9082
 6830TIP3   OH220453   3.104   1.438   0.001 -0.0768 -0.5683  0.0508
 6830TIP3    H120454   3.109   1.401   0.088 -0.7548  0.0413  0.3637
 6830TIP3    H220455   3.071   1.527   0.014  0.1020 -0.3613 -0.7965
 6831TIP3   OH220456   6.509   5.384   0.997  0.0850  0.5773 -0.6196
 6831TIP3    H120457   6.456   5.456   1.033  1.7615  2.1983 -1.2585
 6831TIP3    H220458   6.595   5.395   1.038  0.3312 -1.2390 -0.5607
 6832TIP3   OH220459   1.390   0.410   3.650  0.2809 -0.5483 -0.2814
 6832TIP3    H120460   1.315   0.353   3.637  0.3006 -1.0126  1.4281
 6832TIP3    H220461   1.420   0.390   3.738  2.9940 -1.0602 -1.2154
 6833TIP3   OH220462   5.393   4.000   1.238 -0.4264 -0.7985  0.1158
 6833TIP3    H120463   5.476   3.986   1.194  1.0926  0.6439  2.3238
 6833TIP3    H220464   5.369   4.090   1.215  0.6941  0.1992  2.5270
 6834TIP3   OH220465   3.360   4.219   2.242 -0.4462  0.2117  0.5306
 6834TIP3    H120466   3.406   4.202   2.160  0.7331  1.1347  0.9777
 6834TIP3    H220467   3.329   4.133   2.270  1.3184 -0.5289  0.3637
 6835TIP3   OH220468   0.873   4.881   5.256  0.6547  0.0332 -0.2147
 6835TIP3    H120469   0.946   4.907   5.200  1.4313  0.6122  1.0100
 6835TIP3    H220470   0.808   4.949   5.243  0.9547  0.3282 -0.1946
 6836TIP3   OH220471   5.315   5.991   4.468 -0.0785  0.1828  0.3881
 6836TIP3    H120472   5.403   6.003   4.431 -0.0512 -0.1176  0.3498
 6836TIP3    H220473   5.292   6.076   4.504 -0.5473  0.7957 -1.2611
 6837TIP3   OH220474   7.101   0.323   2.816 -0.0671  0.0527 -0.1959
 6837TIP3    H120475   7.039   0.312   2.744  0.6548  1.1828 -1.0427
 6837TIP3    H220476   7.055   0.289   2.893 -2.4387  2.2844 -0.4517
 6838TIP3   OH220477   3.605   1.728   2.796 -0.3706 -0.6464  0.4782
 6838TIP3    H120478   3.671   1.764   2.855  1.4606 -0.7989 -1.3452
 6838TIP3    H220479   3.629   1.635   2.788 -1.3229 -0.8927  0.4331
 6839TIP3   OH220480   0.633   5.945   3.564  0.5805 -0.5250  0.0198
 6839TIP3    H120481   0.724   5.922   3.582  1.2287  2.0644  0.4117
 6839TIP3    H220482   0.636   6.037   3.540 -2.1350  0.1266  1.7621
 6840TIP3   OH220483   3.957   4.580   2.674  0.1743 -0.1131 -0.2041
 6840TIP3    H120484   4.018   4.505   2.678 -1.0430 -1.1090  2.5420
 6840TIP3    H220485   3.873   4.543   2.701 -1.2518  1.6519 -1.9538
 6841TIP3   OH220486   4.107   1.213   0.406  0.0413  0.4789 -0.6970
 6841TIP3    H120487   4.116   1.300   0.368  0.2375  0.3247 -1.0025
 6841TIP3    H220488   4.116   1.153   0.332  1.0224  0.1512 -0.3172
 6842TIP3   OH220489   3.709   2.531   5.657 -0.8740  0.0759  0.0690
 6842TIP3    H120490   3.721   2.455   5.713 -1.0294 -0.5148 -0.6954
 6842TIP3    H220491   3.615   2.552   5.665 -1.2967 -1.1260 -1.3668
 6843TIP3   OH220492   4.551   4.574   2.527  0.6059 -0.3057  0.3071
 6843TIP3    H120493   4.556   4.640   2.458 -0.0928 -0.1519  0.4030
 6843TIP3    H220494   4.578   4.493   2.484  1.2096 -0.0140  0.1235
 6844TIP3   OH220495   2.615   3.960   2.008  0.1394 -0.2475 -0.1987
 6844TIP3    H120496   2.706   3.973   1.983 -0.0072 -0.2853 -0.7855
 6844TIP3    H220497   2.598   3.868   1.989 -0.1828 -0.0986 -0.6531
 6845TIP3   OH220498   6.354   2.323   5.432 -0.2637 -0.2081 -0.3453
 6845TIP3    H120499   6.391   2.261   5.370 -0.6657  0.6773 -1.5092
 6845TIP3    H220500   6.320   2.394   5.378 -0.0519  0.9108  0.9225
 6846TIP3   OH220501   0.237   2.163   2.879  0.1189 -0.6634 -0.1641
 6846TIP3    H120502   0.196   2.179   2.964 -0.4202 -0.0069 -0.5361
 6846TIP3    H220503   0.316   2.216   2.880 -1.4304  1.8464 -1.2137
 6847TIP3   OH220504   7.098   6.644   2.210  0.3540  0.2329  0.4297
 6847TIP3    H120505   7.113   6.684   2.296  0.3726 -1.5855  1.3245
 6847TIP3    H220506   7.028   6.581   2.225  2.0972 -1.9885 -0.2441
 6848TIP3   OH220507   4.679   1.899   5.520 -0.0203 -0.4219  0.1796
 6848TIP3    H120508   4.590   1.889   5.488 -0.0708 -2.6842  0.8840
 6848TIP3    H220509   4.694   1.822   5.574  2.2521  0.0876  0.3720
 6849TIP3   OH220510   2.947   3.892   4.518  0.4335  0.3800 -0.3578
 6849TIP3    H120511   3.031   3.938   4.522 -0.0434  1.2100  1.7242
 6849TIP3    H220512   2.925   3.889   4.425  1.1996  3.0986 -0.7099
 6850TIP3   OH220513   5.418   4.590   4.363 -0.1218 -0.2675  0.5409
 6850TIP3    H120514   5.339   4.538   4.347 -1.1548  1.1622  0.7884
 6850TIP3    H220515   5.385   4.675   4.392  1.2244  2.1962 -4.1378
 6851TIP3   OH220516   3.994   0.686   2.862 -0.5884 -0.1691 -0.2315
 6851TIP3    H120517   4.009   0.644   2.778 -1.3324 -1.6343  0.3255
 6851TIP3    H220518   4.011   0.617   2.927  2.3364  1.5285  1.0031
 6852TIP3   OH220519   5.457   6.243   5.850 -0.0566  0.0745  0.3800
 6852TIP3    H120520   5.494   6.331   5.861  4.7652 -1.1022 -3.1096
 6852TIP3    H220521   5.520   6.184   5.891 -2.8576 -2.0073  2.1167
 6853TIP3   OH220522   4.688   5.928   4.308  0.0955  0.6909  0.0851
 6853TIP3    H120523   4.783   5.937   4.316  0.3789 -1.1541 -0.7292
 6853TIP3    H220524   4.670   5.930   4.214 -0.1743 -2.5114 -0.0456
 6854TIP3   OH220525   4.411   4.709   0.936  0.0737 -0.1237 -0.3086
 6854TIP3    H120526   4.391   4.759   0.857  0.8954  2.1902  0.8774
 6854TIP3    H220527   4.498   4.739   0.963 -0.6777  0.0836  2.1359
 6855TIP3   OH220528   7.066   4.332   1.253  0.2045  0.0706 -0.1417
 6855TIP3    H120529   6.993   4.353   1.311 -0.0315 -1.4965  0.1799
 6855TIP3    H220530   7.144   4.346   1.306 -0.0065 -1.2507  0.5548
 6856TIP3   OH220531   2.643   3.385   5.860 -0.2550 -0.5490  0.5282
 6856TIP3    H120532   2.709   3.454   5.863  0.6097 -1.3476  0.2078
 6856TIP3    H220533   2.628   3.362   5.952 -1.0546  0.5160  0.6854
 6857TIP3   OH220534   3.497   0.264   5.600  0.6140 -0.0307 -0.2368
 6857TIP3    H120535   3.482   0.299   5.688 -0.0814 -0.3015 -0.2406
 6857TIP3    H220536   3.497   0.341   5.544 -0.2338  0.0387 -0.1575
 6858TIP3   OH220537   1.214   0.736   3.060 -0.2103 -0.4696  0.1022
 6858TIP3    H120538   1.185   0.799   3.126 -1.6902 -1.1406  0.1313
 6858TIP3    H220539   1.136   0.720   3.007 -0.3161 -3.3676  0.9901
 6859TIP3   OH220540   1.301   5.514   5.767 -0.2091 -0.1713  0.2902
 6859TIP3    H120541   1.322   5.421   5.760 -0.7620 -0.4045  1.4148
 6859TIP3    H220542   1.229   5.517   5.830 -0.6196  0.9694 -0.2056
 6860TIP3   OH220543   3.958   6.335   0.171  0.0766  0.1338  0.5759
 6860TIP3    H120544   3.931   6.418   0.132  0.8776 -0.7519 -2.0008
 6860TIP3    H220545   3.881   6.306   0.220 -1.5782  0.6026 -1.5885
 6861TIP3   OH220546   3.888   5.922   4.776  0.0195  0.6950 -0.0089
 6861TIP3    H120547   3.967   5.975   4.784  0.3441  0.9263 -3.1863
 6861TIP3    H220548   3.919   5.832   4.784 -0.0191  0.8185  2.1374
 6862TIP3   OH220549   2.137   5.170   2.912  0.0281 -0.1340 -0.5469
 6862TIP3    H120550   2.144   5.152   3.006  0.5464 -2.4517 -0.9899
 6862TIP3    H220551   2.045   5.196   2.900 -0.9430 -2.8515  0.1872
 6863TIP3   OH220552   6.569   2.990   1.150  0.7065  0.2634 -0.3130
 6863TIP3    H120553   6.556   2.930   1.076  0.7178  0.3339 -0.3724
 6863TIP3    H220554   6.598   3.072   1.109  1.4923  0.0642 -0.1658
 6864TIP3   OH220555   0.957   5.959   3.219  0.1967 -0.3814 -0.1276
 6864TIP3    H120556   1.042   5.949   3.178  0.3502  0.4361 -0.0382
 6864TIP3    H220557   0.944   5.879   3.269  0.0259 -1.3775 -1.7133
 6865TIP3   OH220558   1.549   4.969   4.505  0.2748  0.2316 -0.8287
 6865TIP3    H120559   1.484   4.931   4.565  0.0838  2.8241  0.7444
 6865TIP3    H220560   1.496   5.021   4.444  0.6462 -0.7041 -1.9881
 6866TIP3   OH220561   2.220   1.479   0.813 -0.1968 -0.3494 -0.4645
 6866TIP3    H120562   2.175   1.426   0.748 -1.4906 -2.0115  1.6698
 6866TIP3    H220563   2.302   1.433   0.828 -0.9961 -1.4226  0.8432
 6867TIP3   OH220564   4.403   6.808   3.053  0.4239  0.3710  0.5359
 6867TIP3    H120565   4.357   6.742   3.105  0.4917  0.0345  0.1758
 6867TIP3    H220566   4.334   6.856   3.009  0.4133 -0.6106 -0.5836
 6868TIP3   OH220567   1.900   3.401   4.742  0.4587  0.1213 -0.0944
 6868TIP3    H120568   1.924   3.309   4.731  0.7669 -0.1932  2.5312
 6868TIP3    H220569   1.805   3.401   4.738  0.2876 -0.7847  2.1898
 6869TIP3   OH220570   6.671   5.537   3.096 -0.1763 -0.6079 -0.4544
 6869TIP3    H120571   6.764   5.553   3.083 -0.1398 -1.7064 -1.7905
 6869TIP3    H220572   6.627   5.607   3.046 -0.0332 -1.6655 -2.1299
 6870TIP3   OH220573   6.779   2.810   0.473 -0.3816  0.1554  0.2784
 6870TIP3    H120574   6.870   2.785   0.458 -0.3409  1.1612 -1.3514
 6870TIP3    H220575   6.736   2.797   0.388 -1.4196  1.0764  0.6437
 6871TIP3   OH220576   0.238   3.837   1.502  0.2481  0.6512  0.0095
 6871TIP3    H120577   0.195   3.755   1.476  0.2083  0.7268 -0.1685
 6871TIP3    H220578   0.332   3.818   1.494  0.2419  0.5587  0.1679
 6872TIP3   OH220579   5.654   0.564   2.395  0.4901 -0.1136  0.7265
 6872TIP3    H120580   5.648   0.513   2.475 -1.2192 -1.2945 -0.1005
 6872TIP3    H220581   5.650   0.500   2.325  0.5789  0.9931 -0.3253
 6873TIP3   OH220582   0.343   6.262   1.586 -0.2755 -0.2422 -0.0903
 6873TIP3    H120583   0.305   6.254   1.673 -2.2652 -1.5489 -0.9986
 6873TIP3    H220584   0.327   6.353   1.561  0.0513  0.0631  0.7730
 6874TIP3   OH220585   2.980   6.016   3.193  0.1641 -0.0653 -0.5116
 6874TIP3    H120586   3.047   5.978   3.136 -0.0433  1.2957 -1.7131
 6874TIP3    H220587   3.028   6.042   3.272  0.9655  0.3968 -1.1337
 6875TIP3   OH220588   4.844   1.903   2.597  0.0279 -0.0091  0.4130
 6875TIP3    H120589   4.856   1.812   2.571 -0.7904 -0.3859  1.2721
 6875TIP3    H220590   4.926   1.947   2.574 -0.1758 -0.5897 -1.5196
 6876TIP3   OH220591   3.797   5.961   1.928  0.0486 -0.1866 -0.2624
 6876TIP3    H120592   3.864   6.029   1.934 -1.2759  1.1347  0.2308
 6876TIP3    H220593   3.786   5.930   2.018  0.2235 -0.6434 -0.3943
 6877TIP3   OH220594   2.826   0.587   3.577 -0.6631  0.3345  0.3810
 6877TIP3    H120595   2.817   0.537   3.658 -0.5850  0.8514  0.7122
 6877TIP3    H220596   2.749   0.563   3.525 -0.4191 -0.4389  0.3623
 6878TIP3   OH220597   2.457   5.509   5.291  0.4334 -0.6781 -0.6179
 6878TIP3    H120598   2.387   5.573   5.282  0.4347 -0.3732  1.1817
 6878TIP3    H220599   2.474   5.505   5.385  1.3261 -2.3676 -0.8111
 6879TIP3   OH220600   4.116   2.149   3.432  0.2587  0.3075 -0.1133
 6879TIP3    H120601   4.068   2.066   3.423 -0.2471  0.5749  0.0807
 6879TIP3    H220602   4.178   2.149   3.360 -0.9567  0.5805 -1.1993
 6880TIP3   OH220603   2.153   5.215   4.860 -0.0663  0.2703 -0.4091
 6880TIP3    H120604   2.161   5.242   4.769 -0.4783 -0.1774 -0.5841
 6880TIP3    H220605   2.090   5.143   4.858  0.1400  0.0674  0.1921
 6881TIP3   OH220606   1.970   4.372   2.882 -0.3689  0.2239 -0.5367
 6881TIP3    H120607   2.023   4.297   2.854  2.1566  2.6982 -3.0244
 6881TIP3    H220608   1.994   4.386   2.974 -0.3886 -1.5684 -0.2325
 6882TIP3   OH220609   0.229   4.070   1.153 -0.0709 -0.2829  0.5650
 6882TIP3    H120610   0.170   4.038   1.084 -0.9834  0.7279  0.8607
 6882TIP3    H220611   0.180   4.057   1.234 -0.1644  1.1669  0.7555
 6883TIP3   OH220612   6.779   2.436   0.126  0.6383  0.3627 -0.5553
 6883TIP3    H120613   6.817   2.369   0.183  1.3608 -0.5162 -1.9895
 6883TIP3    H220614   6.849   2.454   0.062 -0.5323  0.4270 -1.8644
 6884TIP3   OH220615   3.578   3.104   2.880  0.9494 -0.1015 -0.0410
 6884TIP3    H120616   3.559   3.128   2.971  0.5675  0.1028 -0.1750
 6884TIP3    H220617   3.574   3.009   2.880  1.0066 -0.1063  0.1676
 6885TIP3   OH220618   0.852   2.593   2.057  0.1943  0.1707  0.2712
 6885TIP3    H120619   0.778   2.550   2.099 -0.1304 -0.6653 -1.0809
 6885TIP3    H220620   0.906   2.625   2.129 -1.3043  0.5063  1.2912
 6886TIP3   OH220621   1.514   3.465   1.194 -0.1634 -0.2555 -0.0045
 6886TIP3    H120622   1.605   3.482   1.170  0.5733 -0.3627  2.4448
 6886TIP3    H220623   1.516   3.383   1.244 -1.9029 -1.2265 -1.4022
 6887TIP3   OH220624   5.868   1.728   2.802 -0.1589 -0.0600  0.4049
 6887TIP3    H120625   5.844   1.805   2.751  1.4141 -1.1230 -2.1820
 6887TIP3    H220626   5.922   1.762   2.873  0.0153  1.2733 -0.3329
 6888TIP3   OH220627   1.026   3.001   4.682 -0.0646  0.5314  0.2074
 6888TIP3    H120628   1.050   2.952   4.761  2.0136  1.2968  0.1141
 6888TIP3    H220629   0.979   2.937   4.628  1.8041 -1.1351  0.4444
 6889TIP3   OH220630   1.356   1.596   5.865  0.2894 -0.1916 -0.1034
 6889TIP3    H120631   1.284   1.645   5.903 -0.5421  1.4736 -3.4632
 6889TIP3    H220632   1.351   1.510   5.907 -3.4508 -0.0585  0.0466
 6890TIP3   OH220633   4.736   4.099   5.795 -0.1499  0.0761  0.1707
 6890TIP3    H120634   4.721   4.030   5.860  0.1398  0.7809  0.9995
 6890TIP3    H220635   4.773   4.053   5.719  0.5231 -0.6170  0.9018
 6891TIP3   OH220636   0.161   4.089   3.923 -0.2884 -0.7257 -0.4226
 6891TIP3    H120637   0.200   4.157   3.979  1.3933 -1.5395 -0.5357
 6891TIP3    H220638   0.100   4.136   3.867 -1.9770  0.1579  1.9649
 6892TIP3   OH220639   2.871   5.423   3.819 -0.1365  0.2137 -0.1108
 6892TIP3    H120640   2.801   5.487   3.802 -1.8906 -1.0898  1.7465
 6892TIP3    H220641   2.908   5.405   3.733 -2.6765  0.3676 -1.3381
 6893TIP3   OH220642   3.570   3.215   1.025  0.0094 -0.1365 -0.5725
 6893TIP3    H120643   3.483   3.247   1.050  1.2321  0.5374  3.6419
 6893TIP3    H220644   3.567   3.121   1.042  0.4174  0.0933  0.8934
 6894TIP3   OH220645   0.551   0.060   5.294 -0.1140 -0.3527  0.7565
 6894TIP3    H120646   0.575   0.029   5.207  0.1127  1.2138  0.2252
 6894TIP3    H220647   0.627   0.042   5.348 -0.0226 -0.7935  0.4818
 6895TIP3   OH220648   2.955   2.331   3.855 -1.0100  0.0424  0.2294
 6895TIP3    H120649   3.043   2.315   3.819 -1.6442 -1.9340 -0.5838
 6895TIP3    H220650   2.941   2.424   3.842  0.5796  0.2119 -0.5489
 6896TIP3   OH220651   7.076   5.315   4.019 -0.1264 -0.3387  0.3708
 6896TIP3    H120652   7.050   5.364   3.940  0.6115 -0.7792 -0.1579
 6896TIP3    H220653   7.066   5.223   3.994  0.7670 -0.4916  0.5643
 6897TIP3   OH220654   3.584   2.010   0.217  0.2559  0.2940  0.1494
 6897TIP3    H120655   3.566   1.916   0.227 -2.1201  0.5918 -0.7414
 6897TIP3    H220656   3.588   2.024   0.123  0.6351  1.1087  0.2740
 6898TIP3   OH220657   4.471   3.752   2.681  0.2296 -0.3603 -0.0166
 6898TIP3    H120658   4.518   3.792   2.754  0.9410 -0.5528 -0.3637
 6898TIP3    H220659   4.417   3.822   2.645 -1.3013 -0.6058  1.6126
 6899TIP3   OH220660   5.182   1.329   3.430 -0.3333  0.0763  0.6552
 6899TIP3    H120661   5.135   1.251   3.460  1.3293 -1.1415  0.2743
 6899TIP3    H220662   5.134   1.358   3.352 -1.3969 -0.0957  1.2212
 6900TIP3   OH220663   3.998   1.720   4.363 -0.0463 -0.3037 -1.1113
 6900TIP3    H120664   4.076   1.746   4.411 -0.7354 -0.6964  0.2769
 6900TIP3    H220665   3.959   1.803   4.333 -1.6412  0.3580  2.3311
 6901TIP3   OH220666   5.509   3.991   2.464 -0.3328  0.3637  0.0070
 6901TIP3    H120667   5.576   3.963   2.401  0.1567 -0.9423  1.0662
 6901TIP3    H220668   5.427   3.959   2.427  0.2608 -3.5741  1.5862
 6902TIP3   OH220669   5.020   2.388   1.809  0.0673  0.2519  0.1669
 6902TIP3    H120670   4.955   2.445   1.770 -0.2806  0.7620  1.4364
 6902TIP3    H220671   4.987   2.299   1.794 -0.0982  0.4418 -0.5987
 6903TIP3   OH220672   4.522   4.867   4.097 -0.4814  0.1417  1.1152
 6903TIP3    H120673   4.531   4.794   4.159  3.4105  0.6765  1.4418
 6903TIP3    H220674   4.564   4.941   4.141  2.4644  0.5682 -1.9819
 6904TIP3   OH220675   2.366   3.111   2.501 -0.3071  0.2352  0.2657
 6904TIP3    H120676   2.367   3.163   2.421  1.2328 -2.6761 -1.7663
 6904TIP3    H220677   2.444   3.139   2.549 -0.2991  0.7778 -0.0599
 6905TIP3   OH220678   3.260   4.364   2.637  0.6321 -0.3445  0.1862
 6905TIP3    H120679   3.228   4.365   2.727 -0.3777 -2.1740 -0.1166
 6905TIP3    H220680   3.326   4.434   2.635  0.4640 -0.0578  2.2461
 6906TIP3   OH220681   1.765   3.754   3.867 -0.0127 -0.0031 -0.3388
 6906TIP3    H120682   1.759   3.822   3.934  0.4047  0.3999 -0.6985
 6906TIP3    H220683   1.787   3.674   3.915  0.1825  0.2627  0.0152
 6907TIP3   OH220684   1.869   4.072   0.414 -0.3440 -0.8406 -0.7145
 6907TIP3    H120685   1.873   4.059   0.319  2.3126  1.6232 -1.0903
 6907TIP3    H220686   1.775   4.074   0.434 -0.9864 -2.8652 -2.9859
 6908TIP3   OH220687   4.168   2.421   4.458  0.9393  0.2153 -0.0125
 6908TIP3    H120688   4.135   2.502   4.497  1.6594  0.1075  0.8631
 6908TIP3    H220689   4.259   2.440   4.436  1.6329 -0.8197  1.7320
 6909TIP3   OH220690   3.011   3.800   3.759 -0.2666  0.3235 -0.0386
 6909TIP3    H120691   2.919   3.775   3.761  0.0297 -0.8416 -0.1889
 6909TIP3    H220692   3.033   3.816   3.851 -0.9142  1.8697 -0.1112
 6910TIP3   OH220693   6.423   5.833   2.370  0.5685 -0.2512  0.3472
 6910TIP3    H120694   6.359   5.903   2.383  1.4770  0.6682  0.0117
 6910TIP3    H220695   6.371   5.752   2.373 -0.4418  0.3998  1.1581
 6911TIP3   OH220696   0.051   2.456   4.775 -0.2770 -0.0666 -0.3386
 6911TIP3    H120697   0.072   2.467   4.682 -0.6469  0.7116 -0.3338
 6911TIP3    H220698  -0.038   2.490   4.784  0.0656  0.6390  0.4593
 6912TIP3   OH220699   6.796   2.762   3.170 -0.3097 -0.3450 -0.1618
 6912TIP3    H120700   6.833   2.850   3.174 -1.7809  0.3971 -1.6433
 6912TIP3    H220701   6.871   2.706   3.146  0.6604  0.4537  0.8801
 6913TIP3   OH220702   0.297   4.546   4.641  0.5039 -0.2220  0.0800
 6913TIP3    H120703   0.262   4.617   4.587 -2.4077 -0.7612  1.0770
 6913TIP3    H220704   0.253   4.556   4.726  1.0998 -2.3677  0.7184
 6914TIP3   OH220705   1.946   6.586   1.033 -0.2322 -0.4473  0.2484
 6914TIP3    H120706   1.864   6.546   1.061  0.2480 -0.0887  2.3486
 6914TIP3    H220707   1.965   6.545   0.949 -1.9058 -1.4794  0.3273
 6915TIP3   OH220708   5.663   4.990   2.361  0.2626 -0.0702  0.0080
 6915TIP3    H120709   5.599   4.972   2.429 -0.0469 -3.4487 -1.0078
 6915TIP3    H220710   5.739   4.936   2.384  0.4693 -0.6539 -1.8509
 6916TIP3   OH220711   0.451   3.197   0.330  0.1604  0.1130 -0.1184
 6916TIP3    H120712   0.495   3.228   0.409 -1.5218 -1.0676  1.3914
 6916TIP3    H220713   0.442   3.274   0.275  1.0659  1.0637  1.0079
 6917TIP3   OH220714   7.027   5.269   2.959  0.0345  0.0459 -0.2093
 6917TIP3    H120715   7.042   5.315   3.042  0.6781 -0.2395 -0.1603
 6917TIP3    H220716   7.112   5.274   2.914 -1.0563  3.0006 -2.2948
 6918TIP3   OH220717   2.989   6.034   3.828 -0.1119 -0.5824 -0.0027
 6918TIP3    H120718   3.015   6.048   3.737 -1.7785 -0.0025 -0.4344
 6918TIP3    H220719   3.055   5.975   3.864  1.8108  0.8952 -0.9422
 6919TIP3   OH220720   0.250   2.980   3.023  0.0914 -0.9590  0.2668
 6919TIP3    H120721   0.219   3.068   3.043  0.0270 -1.4889  2.9696
 6919TIP3    H220722   0.339   2.977   3.058  0.3982 -1.7325 -0.5297
 6920TIP3   OH220723   6.838   1.996   2.649 -0.3400 -0.2203 -0.0759
 6920TIP3    H120724   6.864   2.086   2.663  0.5425 -0.3175 -0.9652
 6920TIP3    H220725   6.903   1.944   2.697  0.7115 -0.4403 -1.6719
 6921TIP3   OH220726   4.529   2.144   2.073 -0.5064  0.1010  0.1756
 6921TIP3    H120727   4.608   2.173   2.117  0.1785 -1.0784 -0.2183
 6921TIP3    H220728   4.508   2.060   2.115 -1.1817  0.0991 -0.1500
 6922TIP3   OH220729   6.586   0.548   4.276  0.7212  0.5117 -0.3436
 6922TIP3    H120730   6.542   0.590   4.202  2.3822  1.4856 -0.8262
 6922TIP3    H220731   6.558   0.457   4.272 -0.0783  0.7869 -1.5106
 6923TIP3   OH220732   7.080   4.327   2.726 -0.4046 -0.3353  0.0564
 6923TIP3    H120733   7.057   4.414   2.695  1.6918 -0.1077 -0.9910
 6923TIP3    H220734   7.080   4.335   2.822 -2.5141  0.1354  0.0761
 6924TIP3   OH220735   6.459   4.790   0.860 -0.1169 -0.0115 -0.4801
 6924TIP3    H120736   6.546   4.824   0.840  0.3595 -0.0240  1.3430
 6924TIP3    H220737   6.467   4.695   0.847  0.3115 -0.0716  0.1752
 6925TIP3   OH220738   0.546   0.417   4.374  0.4286 -0.0466 -0.1739
 6925TIP3    H120739   0.541   0.455   4.462 -1.1846 -1.3516  0.3460
 6925TIP3    H220740   0.614   0.468   4.330  0.4604  1.4071  1.4446
 6926TIP3   OH220741   0.638   3.077   0.133  0.1276 -0.6427  0.0853
 6926TIP3    H120742   0.565   3.094   0.192 -0.6822 -1.4839 -0.6442
 6926TIP3    H220743   0.606   3.009   0.073  1.0304 -0.0349 -1.1329
 6927TIP3   OH220744   2.110   2.666   4.968 -0.0784 -0.3261 -0.0330
 6927TIP3    H120745   2.096   2.755   5.001  1.6256  0.0866 -0.3356
 6927TIP3    H220746   2.065   2.665   4.884 -0.2935  0.1893  0.0685
 6928TIP3   OH220747   2.522   5.373   3.080 -0.4031  0.3154  0.0421
 6928TIP3    H120748   2.564   5.403   3.161  1.5746  0.8422 -1.1132
 6928TIP3    H220749   2.514   5.451   3.026  0.7462 -0.4218 -1.2762
 6929TIP3   OH220750   2.271   6.399   2.492 -0.1113 -0.2718 -0.7329
 6929TIP3    H120751   2.321   6.324   2.524  0.1393  0.9117  1.9409
 6929TIP3    H220752   2.196   6.406   2.552 -1.0671  0.6110 -1.9706
 6930TIP3   OH220753   1.174   5.656   3.353 -0.4297  0.5541  0.0343
 6930TIP3    H120754   1.142   5.590   3.414  1.1411 -1.2740 -1.0104
 6930TIP3    H220755   1.266   5.668   3.375  0.5819 -1.1697 -2.6657
 6931TIP3   OH220756   1.157   4.795   0.060  0.7110 -0.6282 -0.6542
 6931TIP3    H120757   1.184   4.860  -0.005 -0.1770  0.4443 -0.0043
 6931TIP3    H220758   1.238   4.774   0.107  1.4668 -1.8071 -2.3857
 6932TIP3   OH220759   6.930   0.342   5.435 -0.8222  0.4117  0.3795
 6932TIP3    H120760   7.007   0.372   5.483 -0.5865  0.6402 -0.1281
 6932TIP3    H220761   6.966   0.291   5.362 -1.0729  1.5589 -0.5848
 6933TIP3   OH220762   0.147   1.446   3.859  0.4250 -0.3281  0.0090
 6933TIP3    H120763   0.165   1.537   3.838  1.3147 -0.7662 -1.2205
 6933TIP3    H220764   0.206   1.426   3.932 -0.4985  0.3434  0.9665
 6934TIP3   OH220765   1.978   5.846   4.634 -0.7128  0.6283 -0.0797
 6934TIP3    H120766   2.044   5.867   4.699 -1.9115 -0.2538  1.5107
 6934TIP3    H220767   1.962   5.929   4.588  1.6520  0.7849 -0.7344
 6935TIP3   OH220768   2.839   6.511   5.285  0.0368  0.2818 -0.1297
 6935TIP3    H120769   2.892   6.539   5.359 -0.1746 -0.4919  0.3255
 6935TIP3    H220770   2.878   6.554   5.209  0.6846  0.5225  0.3391
 6936TIP3   OH220771   7.054   3.570   0.894 -0.2299  0.2886  0.1176
 6936TIP3    H120772   6.977   3.537   0.850 -0.3500 -0.4149  0.8209
 6936TIP3    H220773   7.022   3.598   0.980  0.2818 -0.0195  0.4174
 6937TIP3   OH220774   6.061   2.231   3.512 -0.5797  0.3363  0.0408
 6937TIP3    H120775   6.093   2.155   3.463  2.0959  0.4003  1.4808
 6937TIP3    H220776   6.024   2.193   3.592 -1.2875  0.4471 -0.2300
 6938TIP3   OH220777   0.680   3.356   5.769 -0.2952  0.1779  0.5506
 6938TIP3    H120778   0.622   3.416   5.815 -0.5378  0.0702  0.3846
 6938TIP3    H220779   0.627   3.320   5.698  0.3283  1.0247 -0.3769
 6939TIP3   OH220780   7.025   3.121   4.439 -0.2398  0.2511  0.2011
 6939TIP3    H120781   7.075   3.088   4.364 -0.3118  0.5477  0.0217
 6939TIP3    H220782   7.022   3.047   4.500  0.4475  0.2395  0.2279
 6940TIP3   OH220783   1.422   4.341   3.546 -0.2131 -0.5540 -0.2565
 6940TIP3    H120784   1.473   4.384   3.476 -0.7440  1.2224  0.3887
 6940TIP3    H220785   1.344   4.308   3.501 -0.1069 -0.2671 -0.6626
 6941TIP3   OH220786   1.665   1.071   0.614  0.5159 -0.0296  0.5020
 6941TIP3    H120787   1.669   0.976   0.619  2.1040 -0.0480 -0.1595
 6941TIP3    H220788   1.619   1.089   0.531 -0.4432 -0.1922  0.9899
 6942TIP3   OH220789   6.013   3.168   0.271  0.0385  0.2464  0.1110
 6942TIP3    H120790   5.922   3.195   0.288 -0.1179  0.4300 -0.9485
 6942TIP3    H220791   6.066   3.230   0.320 -0.4069 -0.4669  1.5713
 6943TIP3   OH220792   3.403   4.117   2.630 -0.1917  0.2423 -0.5304
 6943TIP3    H120793   3.380   4.063   2.706 -0.4182 -1.3685 -1.6936
 6943TIP3    H220794   3.330   4.178   2.622 -0.8612 -0.4972 -0.2665
 6944TIP3   OH220795   5.634   0.197   5.096 -0.6960  0.7322 -0.3670
 6944TIP3    H120796   5.565   0.264   5.099  0.2694  1.7167  0.9960
 6944TIP3    H220797   5.650   0.184   5.002 -2.3067  0.8876 -0.7037
 6945TIP3   OH220798   5.921   3.471   0.433  0.5090  0.0588 -0.0257
 6945TIP3    H120799   5.957   3.515   0.357 -0.6697  0.5825 -0.2993
 6945TIP3    H220800   5.998   3.445   0.484  1.2764  0.7957 -0.7711
 6946TIP3   OH220801   7.171   6.227   1.832  0.2205 -0.7351 -0.2212
 6946TIP3    H120802   7.186   6.252   1.923  2.0248 -0.6540 -0.5006
 6946TIP3    H220803   7.102   6.162   1.836 -0.0749 -0.3719  1.1569
 6947TIP3   OH220804   6.966   0.248   4.962  0.6462 -1.0018  0.4056
 6947TIP3    H120805   6.893   0.284   4.912  0.6180  0.3768  1.3979
 6947TIP3    H220806   7.039   0.245   4.900  0.0569 -1.3197 -0.2807
 6948TIP3   OH220807   0.374   2.954   2.227 -0.1433  0.5661  0.4382
 6948TIP3    H120808   0.443   2.889   2.242 -0.0548  0.7272  0.7261
 6948TIP3    H220809   0.300   2.902   2.196 -0.2605  0.2562  1.2359
 6949TIP3   OH220810   3.521   2.098   3.710 -0.3677  0.0681  0.0921
 6949TIP3    H120811   3.517   2.192   3.693  1.5197  0.1732  0.0363
 6949TIP3    H220812   3.570   2.062   3.637  0.0637 -0.7789  0.7796
 6950TIP3   OH220813   2.436   4.074   3.096 -0.5882 -0.2562 -0.0407
 6950TIP3    H120814   2.392   3.989   3.107 -0.1814 -0.2909  1.5269
 6950TIP3    H220815   2.478   4.068   3.010  1.3313 -2.5498  0.9516
 6951TIP3   OH220816   0.950   4.085   1.459 -0.1685  0.3156  0.2521
 6951TIP3    H120817   0.992   4.001   1.443  1.2826  1.0670 -0.0474
 6951TIP3    H220818   1.022   4.147   1.467 -1.0769  1.1783  2.7541
 6952TIP3   OH220819   4.824   2.519   1.667 -0.1564  0.2247  0.4685
 6952TIP3    H120820   4.767   2.589   1.697 -1.9910 -1.4005  0.9381
 6952TIP3    H220821   4.823   2.526   1.572  0.1068  1.1129  0.5156
 6953TIP3   OH220822   2.284   3.353   4.852 -0.3096  0.5148  0.1450
 6953TIP3    H120823   2.357   3.344   4.913  0.0461 -0.4834 -0.3973
 6953TIP3    H220824   2.319   3.404   4.780  0.0387 -0.4411 -0.3762
 6954TIP3   OH220825   3.214   3.003   5.006 -0.4073  0.4322  0.4620
 6954TIP3    H120826   3.156   2.927   5.000  1.1827 -0.7288 -1.3956
 6954TIP3    H220827   3.217   3.039   4.918  0.4100  1.4679  0.8904
 6955TIP3   OH220828   6.611   4.145   3.595 -0.1280  0.4876  0.2075
 6955TIP3    H120829   6.533   4.186   3.557 -0.3541 -1.3867 -1.5082
 6955TIP3    H220830   6.582   4.057   3.621  1.0046  0.3722  1.1790
 6956TIP3   OH220831   4.992   2.964   0.798  0.1881 -0.0005 -0.0676
 6956TIP3    H120832   4.902   2.967   0.767  0.5801  0.9624 -1.2105
 6956TIP3    H220833   4.992   3.020   0.877 -0.5693 -1.5163  1.0609
 6957TIP3   OH220834   0.527   6.054   5.435  0.1077 -0.2265  0.2321
 6957TIP3    H120835   0.473   6.015   5.504  0.5191  1.5325  1.6512
 6957TIP3    H220836   0.609   6.005   5.439  0.0088 -0.3577  0.7960
 6958TIP3   OH220837   5.128   1.322   5.416 -0.5433 -0.3792  0.2516
 6958TIP3    H120838   5.191   1.262   5.456 -0.9222 -1.4582 -0.7034
 6958TIP3    H220839   5.043   1.292   5.446 -0.8001 -0.9168 -0.9444
 6959TIP3   OH220840   5.381   5.771   2.865 -0.0824 -0.4076  0.6883
 6959TIP3    H120841   5.436   5.702   2.828  2.3442  2.0201 -0.6042
 6959TIP3    H220842   5.409   5.777   2.956  0.1403 -0.7201  0.6457
 6960TIP3   OH220843   6.689   5.589   1.333 -0.3633  0.1414 -0.0266
 6960TIP3    H120844   6.753   5.532   1.375 -2.1309 -1.1733  1.0162
 6960TIP3    H220845   6.686   5.557   1.242 -0.2117 -0.4074  0.1542
 6961TIP3   OH220846   6.320   3.102   0.848  0.3777 -0.0318  0.6346
 6961TIP3    H120847   6.241   3.133   0.803  1.4085 -0.1540 -1.3675
 6961TIP3    H220848   6.292   3.021   0.891 -0.7816  0.3372  0.6149
 6962TIP3   OH220849   0.292   1.861   3.646  0.4026  0.4255 -0.3269
 6962TIP3    H120850   0.256   1.938   3.604 -0.1650  1.2857  1.6177
 6962TIP3    H220851   0.385   1.879   3.655  0.3496  0.6844 -0.3049
 6963TIP3   OH220852   2.667   0.711   0.532  0.3674  0.4132  0.4238
 6963TIP3    H120853   2.685   0.765   0.455  2.8267 -0.6580  0.1503
 6963TIP3    H220854   2.591   0.660   0.507  1.5687 -0.5020 -1.7064
 6964TIP3   OH220855   0.147   1.262   1.777 -0.3035 -0.4146 -0.0128
 6964TIP3    H120856   0.065   1.260   1.828 -0.1105 -0.0680  0.3210
 6964TIP3    H220857   0.120   1.290   1.690 -0.5869 -0.6332  0.0021
 6965TIP3   OH220858   4.357   5.117   1.741  0.0062 -0.6644 -0.0888
 6965TIP3    H120859   4.305   5.059   1.686 -0.3585 -0.0306 -0.4199
 6965TIP3    H220860   4.316   5.203   1.731 -0.5433 -0.6624  1.7485
 6966TIP3   OH220861   0.208   4.859   1.352 -0.3813  0.6537 -0.4132
 6966TIP3    H120862   0.133   4.821   1.307 -0.1320  0.6900 -0.8653
 6966TIP3    H220863   0.219   4.945   1.311 -0.5852  0.9813  0.2034
 6967TIP3   OH220864   2.581   5.536   2.800  0.1664 -0.5946  0.3422
 6967TIP3    H120865   2.593   5.445   2.827  1.8481  0.0518  2.0087
 6967TIP3    H220866   2.650   5.552   2.736 -0.1923 -0.5055 -0.0275
 6968TIP3   OH220867   4.408   5.376   3.300  0.5839 -0.1776 -0.1435
 6968TIP3    H120868   4.328   5.333   3.331  0.1730  0.2548 -0.5777
 6968TIP3    H220869   4.458   5.306   3.258  0.0752 -0.3111 -0.5468
 6969TIP3   OH220870   0.810   5.013   0.063  0.1647 -0.4534  0.3602
 6969TIP3    H120871   0.816   4.934   0.010 -0.7776 -1.0900  1.1598
 6969TIP3    H220872   0.810   4.981   0.153  1.9033  0.6102  0.8011
 6970TIP3   OH220873   4.545   3.549   1.370 -0.4283  0.0785 -0.2844
 6970TIP3    H120874   4.511   3.463   1.394  2.1992 -0.8322  0.4670
 6970TIP3    H220875   4.474   3.590   1.320 -0.9612 -3.4524 -2.7704
 6971TIP3   OH220876   3.354   2.267   2.083  0.3135  0.2929  0.4963
 6971TIP3    H120877   3.372   2.192   2.139 -0.4109 -0.1514  0.1468
 6971TIP3    H220878   3.290   2.235   2.020  2.1139  0.3700 -1.4930
 6972TIP3   OH220879   6.017   1.705   4.710 -0.1072 -0.1138  0.3886
 6972TIP3    H120880   6.075   1.630   4.693 -1.8748 -1.2058 -1.3444
 6972TIP3    H220881   6.020   1.716   4.805  0.7890 -1.9251  0.6297
 6973TIP3   OH220882   4.037   1.954   2.888 -0.9680 -0.5156 -0.7473
 6973TIP3    H120883   4.040   2.049   2.878  0.4084 -0.5542 -0.9031
 6973TIP3    H220884   4.051   1.920   2.799  0.9055 -0.8392 -0.3735
 6974TIP3   OH220885   2.696   0.250   4.503  0.4837 -0.4962 -0.1403
 6974TIP3    H120886   2.675   0.336   4.539 -0.0224 -1.3769  1.8091
 6974TIP3    H220887   2.714   0.266   4.410 -1.5328  1.4039 -0.2732
 6975TIP3   OH220888   1.502   6.040   4.438  0.0253 -0.0287 -0.1289
 6975TIP3    H120889   1.470   5.961   4.482 -0.5142  0.0401 -0.3955
 6975TIP3    H220890   1.423   6.088   4.413  0.3394  0.2679 -0.5628
 6976TIP3   OH220891   4.931   6.455   4.893 -0.4890 -0.2312 -0.6519
 6976TIP3    H120892   4.840   6.458   4.921 -0.4650 -1.3051 -0.4230
 6976TIP3    H220893   4.980   6.494   4.965 -0.6168 -1.1818 -0.0371
 6977TIP3   OH220894   2.953   5.400   0.344  0.3011 -0.7026  0.7209
 6977TIP3    H120895   3.033   5.347   0.345  0.1630 -0.9116  1.6546
 6977TIP3    H220896   2.946   5.430   0.254  2.1225  0.3954  0.8958
 6978TIP3   OH220897   5.891   6.505   4.887 -0.1759  0.1536 -0.2590
 6978TIP3    H120898   5.822   6.471   4.944 -0.7597  1.1968 -0.3283
 6978TIP3    H220899   5.969   6.506   4.942 -0.8076  1.5122  0.6829
 6979TIP3   OH220900   2.527   0.524   2.532  0.3991 -0.0132 -0.4640
 6979TIP3    H120901   2.572   0.517   2.616 -0.2021 -0.0224 -0.1383
 6979TIP3    H220902   2.523   0.618   2.515 -0.8879  0.0857  0.2987
 6980TIP3   OH220903   6.237   1.406   4.145 -0.7282 -0.2172 -0.4587
 6980TIP3    H120904   6.281   1.374   4.067  0.0836  1.3272 -0.6773
 6980TIP3    H220905   6.294   1.381   4.218 -1.5153 -1.7101 -0.3263
 6981TIP3   OH220906   4.281   3.457   0.382 -0.0824 -0.5319 -0.0992
 6981TIP3    H120907   4.277   3.417   0.469  1.3233  2.1047  1.3219
 6981TIP3    H220908   4.204   3.514   0.379 -0.2376 -0.7685 -0.6916
 6982TIP3   OH220909   2.826   0.431   0.689  0.0829 -0.2170 -0.3083
 6982TIP3    H120910   2.813   0.408   0.781  1.2970  2.9922  0.7902
 6982TIP3    H220911   2.749   0.482   0.666  0.8566  0.9864 -0.2977
 6983TIP3   OH220912   0.306   1.698   0.861 -0.1278 -0.3696  0.2754
 6983TIP3    H120913   0.384   1.740   0.899 -0.9915  1.2374  0.3548
 6983TIP3    H220914   0.337   1.611   0.835  1.2162 -0.4738  2.0063
 6984TIP3   OH220915   1.633   6.661   5.717  0.4319 -0.4940  0.6909
 6984TIP3    H120916   1.704   6.596   5.714  0.0973 -0.9763 -4.0466
 6984TIP3    H220917   1.675   6.743   5.689 -0.6987 -0.7260 -1.9069
 6985TIP3   OH220918   5.489   4.549   1.148 -0.0547 -0.2945  0.1101
 6985TIP3    H120919   5.552   4.479   1.167 -0.2213  0.0448  2.1290
 6985TIP3    H220920   5.543   4.624   1.125  0.2816 -0.1581  1.2909
 6986TIP3   OH220921   6.421   5.706   2.938  0.1381  0.4167  0.2226
 6986TIP3    H120922   6.398   5.674   3.025 -1.3963 -0.4765 -0.4764
 6986TIP3    H220923   6.460   5.792   2.953 -2.9907  1.7087  1.5790
 6987TIP3   OH220924   1.724   3.437   1.675 -0.2561  0.2740  0.2070
 6987TIP3    H120925   1.687   3.515   1.716 -1.8484  0.8776 -2.1567
 6987TIP3    H220926   1.672   3.365   1.709  0.8437  0.2465  1.9569
 6988TIP3   OH220927   6.341   6.711   3.466  0.0285 -0.3590  0.1471
 6988TIP3    H120928   6.328   6.656   3.544  1.6419 -1.1479 -0.0923
 6988TIP3    H220929   6.420   6.762   3.486  0.2690 -0.3318 -0.8345
 6989TIP3   OH220930   4.053   3.898   0.506  0.4812  0.4105 -0.7666
 6989TIP3    H120931   4.052   3.884   0.601  0.9680 -1.0016 -0.9384
 6989TIP3    H220932   3.965   3.928   0.485 -0.1701 -0.8846 -0.0580
 6990TIP3   OH220933   2.143   6.761   1.820 -0.2490  0.6849  0.4081
 6990TIP3    H120934   2.086   6.693   1.854 -2.6426  2.3745  0.0026
 6990TIP3    H220935   2.221   6.714   1.790 -0.1949 -1.4326  3.4223
 6991TIP3   OH220936   3.065   2.798   0.947  0.0846 -0.4692  0.0037
 6991TIP3    H120937   3.118   2.727   0.911 -1.9948 -0.4333 -3.6463
 6991TIP3    H220938   2.999   2.754   1.002  0.8693 -0.9609  0.5717
 6992TIP3   OH220939   4.697   3.055   0.431 -0.0835 -0.4575  0.0040
 6992TIP3    H120940   4.702   3.043   0.526 -0.6762  0.7375  0.2050
 6992TIP3    H220941   4.647   2.980   0.400 -0.7838 -0.3333  0.7779
 6993TIP3   OH220942   1.616   2.832   5.787  0.2153  0.1124 -0.5258
 6993TIP3    H120943   1.562   2.823   5.866  0.6770 -0.1546 -0.2397
 6993TIP3    H220944   1.697   2.872   5.817 -0.2711  1.6344 -1.1534
 6994TIP3   OH220945   1.822   6.029   0.043  0.3565 -0.5275 -0.3603
 6994TIP3    H120946   1.891   6.091   0.019  0.0772 -0.2269 -0.3862
 6994TIP3    H220947   1.776   6.012  -0.039 -1.8415  1.9999  0.2269
 6995TIP3   OH220948   1.765   0.953   4.732 -0.3220 -0.3633  0.1088
 6995TIP3    H120949   1.758   0.976   4.825 -1.6912 -0.7689  0.1414
 6995TIP3    H220950   1.748   1.035   4.686  0.5451 -0.1217  0.2137
 6996TIP3   OH220951   6.795   3.137   2.181  0.0535 -0.0727  0.3817
 6996TIP3    H120952   6.767   3.228   2.187 -0.7278 -0.1535 -1.5019
 6996TIP3    H220953   6.785   3.103   2.270 -0.3287  1.4846  0.9555
 6997TIP3   OH220954   3.826   3.379   3.025 -0.0282  0.3768  0.3773
 6997TIP3    H120955   3.911   3.403   2.989 -0.5074 -0.8657 -1.7676
 6997TIP3    H220956   3.824   3.283   3.019 -1.1679  0.3112  1.4091
 6998TIP3   OH220957   6.246   0.632   0.775  0.5560 -0.0073  0.3818
 6998TIP3    H120958   6.240   0.541   0.806  0.8934  0.2300  1.1736
 6998TIP3    H220959   6.186   0.680   0.832  0.4010  0.2784 -0.0198
 6999TIP3   OH220960   5.202   6.674   1.163 -0.5300 -0.0102 -0.1940
 6999TIP3    H120961   5.224   6.695   1.072  2.1439  0.4406  0.4616
 6999TIP3    H220962   5.226   6.582   1.173 -1.3066 -0.2040 -0.0626
 7000TIP3   OH220963   6.232   3.507   5.025  0.2670  0.3525 -0.1889
 7000TIP3    H120964   6.151   3.470   5.059  1.4431 -2.7408 -0.4423
 7000TIP3    H220965   6.212   3.600   5.012 -2.3930  0.2418  2.1439
 7001TIP3   OH220966   1.915   1.267   1.858 -0.0806  0.2080  0.3158
 7001TIP3    H120967   1.833   1.316   1.855 -0.1670  0.0357 -0.4813
 7001TIP3    H220968   1.929   1.239   1.767  0.7868  0.1233  0.4666
 7002TIP3   OH220969   4.137   4.516   0.492  0.1558 -0.2883 -0.2804
 7002TIP3    H120970   4.068   4.551   0.434 -0.0957  1.1855  0.8502
 7002TIP3    H220971   4.211   4.576   0.479 -0.3511  0.8908  1.8600
 7003TIP3   OH220972   1.781   5.054   0.638 -0.1602  0.4645 -0.3675
 7003TIP3    H120973   1.749   5.021   0.721  1.4867 -0.9808 -0.2455
 7003TIP3    H220974   1.803   5.146   0.655 -0.7735  0.4564  0.4960
 7004TIP3   OH220975   0.994   6.124   5.681  0.2583  0.4656  0.4006
 7004TIP3    H120976   0.942   6.059   5.729 -0.3465  1.0005  0.4972
 7004TIP3    H220977   1.080   6.084   5.672 -0.1527 -0.4252  0.2876
 7005TIP3   OH220978   1.733   0.105   0.173 -0.1129 -0.2330  0.1150
 7005TIP3    H120979   1.777   0.020   0.168 -0.1401 -0.3432  1.5023
 7005TIP3    H220980   1.712   0.116   0.266 -0.2666  1.2171 -0.0744
 7006TIP3   OH220981   5.273   1.667   4.498 -0.1161 -0.2513  0.3441
 7006TIP3    H120982   5.349   1.686   4.554  0.0846  0.1733 -0.0553
 7006TIP3    H220983   5.228   1.594   4.541  0.7842 -0.8269  0.3374
 7007TIP3   OH220984   5.678   0.758   0.845  0.5087 -0.2414 -0.4713
 7007TIP3    H120985   5.626   0.811   0.905 -0.4808 -1.9183  0.2192
 7007TIP3    H220986   5.768   0.770   0.874  0.1458 -0.1894  0.6905
 7008TIP3   OH220987   3.281   1.236   1.067  0.0262 -0.3498  0.4931
 7008TIP3    H120988   3.270   1.158   1.122  2.2140 -0.4612  0.8851
 7008TIP3    H220989   3.355   1.214   1.010 -1.7516  0.0222 -2.1055
 7009TIP3   OH220990   2.039   3.528   0.140  0.4103  0.1621 -0.0617
 7009TIP3    H120991   2.105   3.556   0.077  2.0362  0.1189  1.5358
 7009TIP3    H220992   2.085   3.528   0.224 -1.6919  0.3184  1.1588
 7010TIP3   OH220993   7.081   1.689   0.717 -0.0505 -0.1322 -0.0482
 7010TIP3    H120994   7.018   1.761   0.721  0.7164  0.5396  0.1537
 7010TIP3    H220995   7.113   1.680   0.807 -1.7676 -2.2295  0.4232
 7011TIP3   OH220996   5.894   1.392   3.783  0.7517 -0.1008  0.2863
 7011TIP3    H120997   5.963   1.456   3.796 -0.8450  1.8143 -0.1979
 7011TIP3    H220998   5.814   1.437   3.810 -0.3427 -2.1949  0.7314
 7012TIP3   OH220999   2.950   3.704   2.179  0.0882 -0.1009  0.0684
 7012TIP3    H121000   2.926   3.697   2.087  0.3986  1.0400 -0.1170
 7012TIP3    H221001   3.040   3.736   2.178 -0.1377  0.5778  0.7606
 7013TIP3   OH221002   4.165   1.443   3.494  0.2802  0.4380  0.0135
 7013TIP3    H121003   4.251   1.487   3.500 -0.3084  1.5953  0.2718
 7013TIP3    H221004   4.166   1.379   3.565  0.2778  1.6435  1.1232
 7014TIP3   OH221005   0.183   2.465   3.032  0.6784  0.0185  0.0853
 7014TIP3    H121006   0.246   2.460   3.104  0.2717 -0.0607  0.4403
 7014TIP3    H221007   0.197   2.551   2.994 -0.1748  0.7218  1.2639
 7015TIP3   OH221008   7.017   0.593   4.157 -0.0533 -0.6231 -0.2372
 7015TIP3    H121009   6.970   0.521   4.200  0.6177 -1.0619 -0.2173
 7015TIP3    H221010   7.069   0.633   4.227  0.4167 -0.8244 -0.4612
 7016TIP3   OH221011   1.047   2.178   4.488  0.0432  0.1400  0.3155
 7016TIP3    H121012   1.070   2.126   4.566  1.9637  0.4372 -0.0087
 7016TIP3    H221013   1.027   2.112   4.421  0.6295 -0.1741  0.4358
 7017TIP3   OH221014   7.050   2.698   0.952 -0.9746  0.3023 -0.3747
 7017TIP3    H121015   7.095   2.738   0.878 -0.1004 -0.6996 -0.4067
 7017TIP3    H221016   7.088   2.740   1.029  1.2022 -1.6091 -0.3240
 7018TIP3   OH221017   3.592   0.851   4.345 -0.0783 -0.4255  0.4048
 7018TIP3    H121018   3.661   0.798   4.384  0.9749 -0.2400 -1.1482
 7018TIP3    H221019   3.633   0.936   4.329 -0.7092 -0.2550 -0.3713
 7019TIP3   OH221020   1.448   5.349   0.040 -0.6126 -0.0485 -0.0200
 7019TIP3    H121021   1.516   5.307   0.091  0.9495  2.3012 -0.0104
 7019TIP3    H221022   1.373   5.289   0.045  1.4971 -2.8947 -0.3192
 7020TIP3   OH221023   3.561   6.043   1.808 -0.0823 -0.8925 -0.1462
 7020TIP3    H121024   3.566   5.992   1.728 -0.0659 -4.4663  1.9195
 7020TIP3    H221025   3.649   6.040   1.844 -0.6560 -1.7122  1.2741
 7021TIP3   OH221026   3.823   3.985   2.448  0.3318 -0.3835  0.0811
 7021TIP3    H121027   3.739   3.950   2.417  0.7040 -0.8211 -0.4514
 7021TIP3    H221028   3.801   4.072   2.482 -0.4853 -0.8397  0.7652
 7022TIP3   OH221029   4.419   4.577   2.788 -0.2348 -0.1229  0.3628
 7022TIP3    H121030   4.429   4.666   2.823 -1.0479  0.4183 -0.7285
 7022TIP3    H221031   4.473   4.576   2.709 -2.1499  0.2373 -1.0249
 7023TIP3   OH221032   4.087   1.697   5.703 -0.3533 -0.4256 -0.2503
 7023TIP3    H121033   4.114   1.768   5.761  1.4295 -0.0184 -1.5221
 7023TIP3    H221034   4.088   1.619   5.759  1.2000 -0.0263  0.3267
 7024TIP3   OH221035   5.486   1.841   2.061  0.0802  0.0595  0.2029
 7024TIP3    H121036   5.577   1.839   2.032 -0.0818 -1.8214 -0.2777
 7024TIP3    H221037   5.438   1.880   1.988  0.4734  1.1039  0.4779
 7025TIP3   OH221038   6.630   6.218   3.850  0.1299  0.0532  0.0464
 7025TIP3    H121039   6.669   6.299   3.817  1.4151 -0.9987 -1.1107
 7025TIP3    H221040   6.703   6.157   3.857 -0.9129 -1.2217  0.2646
 7026TIP3   OH221041   2.360   1.102   2.071 -0.2704 -0.1055  0.0461
 7026TIP3    H121042   2.320   1.170   2.018  1.0720 -0.4048 -1.4235
 7026TIP3    H221043   2.287   1.046   2.097 -0.9945  0.0703 -1.4970
 7027TIP3   OH221044   5.917   2.590   1.475  0.0189 -0.3335 -0.2767
 7027TIP3    H121045   5.892   2.544   1.395  1.5768 -2.9720  0.6322
 7027TIP3    H221046   5.982   2.533   1.517  2.0592  2.7002  1.0477
 7028TIP3   OH221047   3.592   4.429   2.000  0.7627  0.6699  0.1140
 7028TIP3    H121048   3.671   4.420   2.053 -0.5902  0.2836  2.1390
 7028TIP3    H221049   3.541   4.350   2.018  0.0405  0.7489 -1.4219
 7029TIP3   OH221050   2.900   2.455   4.259 -0.6500 -0.2964  0.4510
 7029TIP3    H121051   2.914   2.531   4.203  1.6849 -1.1018 -0.1599
 7029TIP3    H221052   2.961   2.467   4.332 -1.1242 -1.0132  0.9816
 7030TIP3   OH221053   6.733   2.497   5.160 -0.1756 -0.6980  0.1373
 7030TIP3    H121054   6.661   2.553   5.189  0.8828  2.5823 -2.8039
 7030TIP3    H221055   6.714   2.478   5.069  2.6844  0.6049 -0.8797
 7031TIP3   OH221056   4.428   3.304   2.969  0.1006 -0.0306  0.0442
 7031TIP3    H121057   4.453   3.382   2.919  2.6598 -0.0650  1.1647
 7031TIP3    H221058   4.369   3.337   3.036  1.7985  1.1522  1.0276
 7032TIP3   OH221059   3.230   6.045   0.518  0.1936 -0.3898 -0.3256
 7032TIP3    H121060   3.255   5.953   0.525 -2.0766 -1.0390  0.0329
 7032TIP3    H221061   3.194   6.067   0.604  3.0224  1.6679  0.4729
 7033TIP3   OH221062   4.100   4.153   0.735 -0.1310 -0.7076 -0.2734
 7033TIP3    H121063   4.159   4.101   0.789 -1.0960 -4.2961 -2.3712
 7033TIP3    H221064   4.159   4.209   0.684  1.1582 -1.4110  0.3935
 7034TIP3   OH221065   1.068   3.181   1.854  0.2365 -0.3225 -0.5552
 7034TIP3    H121066   1.026   3.235   1.920  0.0935  2.0064 -2.4313
 7034TIP3    H221067   1.116   3.115   1.904 -2.6578 -0.9019  1.7598
 7035TIP3   OH221068   0.829   0.282   2.938  0.0415 -0.1070 -0.3309
 7035TIP3    H121069   0.826   0.354   3.001 -0.5304 -0.0242 -0.4500
 7035TIP3    H221070   0.891   0.312   2.871 -0.1391  0.2473 -0.3428
 7036TIP3   OH221071   4.034   5.910   1.778  0.0549 -0.4150  0.3520
 7036TIP3    H121072   3.951   5.875   1.811 -0.1602 -0.5133 -0.2962
 7036TIP3    H221073   4.014   5.999   1.750 -0.8250 -1.6476 -3.5078
 7037TIP3   OH221074   1.427   2.818   1.459  0.9525 -0.2500 -0.2760
 7037TIP3    H121075   1.352   2.862   1.419  0.4587 -0.5076  0.3596
 7037TIP3    H221076   1.503   2.855   1.414  0.4416 -0.0550 -0.9863
 7038TIP3   OH221077   3.715   5.516   0.796  0.0323 -0.3736  0.2009
 7038TIP3    H121078   3.806   5.545   0.796 -0.1739  0.2874  0.4817
 7038TIP3    H221079   3.717   5.432   0.750  0.8596 -0.6306  0.6943
 7039TIP3   OH221080   2.838   3.081   3.951 -0.4931 -0.2752 -0.2878
 7039TIP3    H121081   2.773   3.096   3.882 -1.1745  0.9703  0.5724
 7039TIP3    H221082   2.920   3.065   3.904 -0.5876  2.1526 -1.4525
 7040TIP3   OH221083   6.494   4.043   2.099  0.1870 -0.2567  0.2890
 7040TIP3    H121084   6.430   4.001   2.041  1.3116  0.9398 -1.9601
 7040TIP3    H221085   6.454   4.039   2.186 -2.0670 -1.2170 -0.7115
 7041TIP3   OH221086   3.725   4.563   2.260  0.0048 -0.0722 -0.6722
 7041TIP3    H121087   3.795   4.587   2.321  0.6839 -0.1266 -1.4173
 7041TIP3    H221088   3.691   4.481   2.295  0.0331  0.1670 -0.0704
 7042TIP3   OH221089   0.848   2.890   3.683  0.5509 -0.1226 -0.0682
 7042TIP3    H121090   0.885   2.977   3.698  0.2249  0.0863 -0.4597
 7042TIP3    H221091   0.799   2.871   3.762 -1.0140  0.8996 -0.7384
 7043TIP3   OH221092   4.217   0.212   2.154 -0.5436  0.6872 -0.0960
 7043TIP3    H121093   4.203   0.132   2.206 -0.3030 -0.4491 -1.7108
 7043TIP3    H221094   4.169   0.197   2.073  1.5713  1.0611 -1.5012
 7044TIP3   OH221095   2.525   1.662   3.178 -0.0557 -0.0301  0.1084
 7044TIP3    H121096   2.593   1.623   3.233  0.6542 -1.0011 -1.3806
 7044TIP3    H221097   2.471   1.588   3.151 -1.0142  0.5736  0.3455
 7045TIP3   OH221098   5.212   2.927   2.907  0.3848  0.1860  0.1156
 7045TIP3    H121099   5.246   2.837   2.904  0.4214  0.1864  0.5153
 7045TIP3    H221100   5.281   2.977   2.952  0.7170  0.5717 -0.7964
 7046TIP3   OH221101   0.510   5.975   1.083  0.4741  0.6901 -0.2250
 7046TIP3    H121102   0.525   5.901   1.024 -0.0561 -0.5875  1.1853
 7046TIP3    H221103   0.597   5.999   1.114  0.7100  1.0688 -1.1585
 7047TIP3   OH221104   0.417   6.725   3.689 -0.7116  0.2356  0.0196
 7047TIP3    H121105   0.384   6.771   3.767 -0.6479  1.8490 -0.8575
 7047TIP3    H221106   0.412   6.790   3.619 -1.5982 -1.4491 -1.5554
 7048TIP3   OH221107   3.214   1.985   0.180 -0.4474 -1.0120 -0.4535
 7048TIP3    H121108   3.257   2.012   0.099 -1.2508 -1.1420 -0.9411
 7048TIP3    H221109   3.210   2.064   0.233  0.0957 -0.9264 -0.5351
 7049TIP3   OH221110  -0.017   2.227   3.280 -0.0687  0.4995  0.3450
 7049TIP3    H121111   0.073   2.250   3.257 -0.6553  0.3980 -2.4535
 7049TIP3    H221112  -0.036   2.151   3.225 -2.0082  0.8237  0.5090
 7050TIP3   OH221113   0.209   1.518   1.513 -0.0941  0.1424  0.2054
 7050TIP3    H121114   0.132   1.474   1.550 -0.1866 -0.0660 -0.2319
 7050TIP3    H221115   0.251   1.559   1.588 -0.5929  0.1956  0.4591
 7051TIP3   OH221116   0.349   4.293   4.527 -0.5258 -0.0194  0.4828
 7051TIP3    H121117   0.392   4.230   4.586  0.2863  0.2618  0.1927
 7051TIP3    H221118   0.338   4.371   4.580 -2.0225 -0.5512  1.0148
 7052TIP3   OH221119   3.793   2.287   4.411 -0.2792 -0.1093  0.2042
 7052TIP3    H121120   3.816   2.245   4.494 -0.9977 -1.6965 -0.3448
 7052TIP3    H221121   3.701   2.311   4.421 -1.2474 -2.8605 -1.0220
 7053TIP3   OH221122   6.689   1.681   5.765  0.4343  0.5004 -0.2921
 7053TIP3    H121123   6.646   1.762   5.792 -0.7589  0.3157 -1.5595
 7053TIP3    H221124   6.711   1.694   5.673 -0.4884 -0.8834 -0.7444
 7054TIP3   OH221125   0.062   4.824   5.195  0.0032 -0.4818  0.4755
 7054TIP3    H121126  -0.013   4.798   5.249 -1.0863  0.9465 -0.2491
 7054TIP3    H221127   0.024   4.884   5.130  1.7229 -0.0237 -0.1574
 7055TIP3   OH221128   4.618   4.822   3.286 -0.2965 -0.3509  0.2437
 7055TIP3    H121129   4.589   4.776   3.365  0.9381 -0.1295  0.8511
 7055TIP3    H221130   4.571   4.780   3.214  0.2375 -2.0597  0.8591
 7056TIP3   OH221131   2.232   4.107   3.931 -0.5928 -0.1636 -0.3396
 7056TIP3    H121132   2.145   4.100   3.970 -0.6221  2.1750  0.1831
 7056TIP3    H221133   2.226   4.058   3.849 -1.7990 -1.6228  0.5640
 7057TIP3   OH221134   1.384   3.702   4.581  0.5254  0.1003 -0.7579
 7057TIP3    H121135   1.406   3.633   4.519 -0.7501 -0.4733 -0.5974
 7057TIP3    H221136   1.288   3.703   4.583  0.5324  1.2282 -0.0362
 7058TIP3   OH221137   0.306   1.478   4.890  0.3894  0.4589  0.3199
 7058TIP3    H121138   0.252   1.548   4.853  0.1659  0.7261  1.1488
 7058TIP3    H221139   0.304   1.409   4.823  1.8512  1.8007 -1.2025
 7059TIP3   OH221140   2.952   0.257   5.096 -0.5889  0.1476  0.0032
 7059TIP3    H121141   3.038   0.264   5.055 -1.3884  0.6811 -1.6568
 7059TIP3    H221142   2.951   0.325   5.163  0.6186 -0.5117  0.7149
 7060TIP3   OH221143   4.091   1.499   2.294 -0.7082 -0.1813 -0.3817
 7060TIP3    H121144   4.069   1.406   2.288 -0.8421 -0.0803 -2.2285
 7060TIP3    H221145   4.166   1.510   2.235 -1.5636  1.0932 -1.2924
 7061TIP3   OH221146   4.356   0.548   2.609  0.0193 -0.2207 -0.0559
 7061TIP3    H121147   4.398   0.634   2.607  1.7107 -0.9426  1.4635
 7061TIP3    H221148   4.405   0.496   2.546 -1.0308 -0.0835 -1.0055
 7062TIP3   OH221149   1.999   6.759   4.943 -0.1360 -0.0602 -0.1266
 7062TIP3    H121150   1.918   6.779   4.990 -0.6801 -0.1344 -1.0194
 7062TIP3    H221151   2.013   6.834   4.886  0.2228 -0.2236 -0.2557
 7063TIP3   OH221152   5.671   4.681   2.417 -0.0523 -0.4485  0.3652
 7063TIP3    H121153   5.617   4.703   2.493 -1.1905  1.8779 -1.0282
 7063TIP3    H221154   5.617   4.619   2.368  0.5048 -1.6216  1.1809
 7064TIP3   OH221155   1.690   4.088   5.830 -0.1067 -0.4378  0.1902
 7064TIP3    H121156   1.664   4.117   5.917  0.2143  1.2696 -0.2375
 7064TIP3    H221157   1.608   4.080   5.781 -0.3723 -2.3091  0.8638
 7065TIP3   OH221158   2.240   6.575   0.664  0.0031 -0.6100 -0.1838
 7065TIP3    H121159   2.180   6.511   0.702 -1.1869  0.6233  0.0877
 7065TIP3    H221160   2.205   6.590   0.576  1.5455 -1.9050 -1.0799
 7066TIP3   OH221161   2.340   1.748   2.875 -0.0500 -0.3478 -0.0761
 7066TIP3    H121162   2.313   1.703   2.955 -0.6381 -0.2018 -0.1884
 7066TIP3    H221163   2.435   1.755   2.883  0.1215 -2.0669 -0.2941
 7067TIP3   OH221164   1.249   0.408   2.557 -0.4734  0.2279 -0.4355
 7067TIP3    H121165   1.283   0.349   2.490 -2.8179 -0.6566 -0.9415
 7067TIP3    H221166   1.220   0.350   2.628 -1.1937  0.8820 -0.1768
 7068TIP3   OH221167   6.661   0.712   3.837  0.3200 -0.2926  0.0672
 7068TIP3    H121168   6.661   0.794   3.887  2.2961 -0.2799  0.1357
 7068TIP3    H221169   6.681   0.739   3.747  1.2882 -0.7020  0.1457
 7069TIP3   OH221170   2.083   3.405   0.576  0.0478 -0.5404 -0.5901
 7069TIP3    H121171   2.075   3.357   0.494  0.5260 -2.5059  0.4430
 7069TIP3    H221172   2.095   3.337   0.643 -0.9757  0.9458  1.2089
 7070TIP3   OH221173   0.392   4.410   2.483 -0.0814 -0.0649  0.3620
 7070TIP3    H121174   0.309   4.429   2.439 -0.3653 -2.4901 -0.2983
 7070TIP3    H221175   0.369   4.349   2.552  0.7967  1.4711  2.1063
 7071TIP3   OH221176   6.361   1.922   4.008 -0.2954 -0.1287  0.0202
 7071TIP3    H121177   6.444   1.966   4.029 -0.2374 -0.0246 -0.4233
 7071TIP3    H221178   6.350   1.858   4.079 -0.4645  0.7096  0.7681
 7072TIP3   OH221179   6.895   2.737   3.592  0.1169 -1.0464 -0.1342
 7072TIP3    H121180   6.828   2.673   3.571 -0.5193 -0.6686  0.6793
 7072TIP3    H221181   6.955   2.691   3.650 -0.4371 -0.8748  0.5947
 7073TIP3   OH221182   7.209   0.621   2.705  0.0966 -0.0721 -0.0278
 7073TIP3    H121183   7.272   0.550   2.716 -0.9979 -1.0524  0.0864
 7073TIP3    H221184   7.151   0.591   2.634  0.9701  1.7183 -1.5970
 7074TIP3   OH221185   0.868   6.306   2.070  0.1903  0.1547 -0.1653
 7074TIP3    H121186   0.855   6.388   2.022  0.9181  1.8982  2.3708
 7074TIP3    H221187   0.788   6.296   2.122  0.0927 -0.7847 -0.4877
 7075TIP3   OH221188   4.063   5.281   4.391 -0.0955 -0.0534  0.0578
 7075TIP3    H121189   4.107   5.325   4.464 -0.7849  2.6442 -1.0078
 7075TIP3    H221190   4.121   5.295   4.316 -0.4885 -0.7290 -0.3845
 7076TIP3   OH221191   3.987   0.643   3.857 -0.4320 -0.7585 -0.8915
 7076TIP3    H121192   3.948   0.593   3.929  0.3044 -2.0946 -1.3985
 7076TIP3    H221193   3.912   0.685   3.814 -0.8818  0.1270  0.6727
 7077TIP3   OH221194   6.709   5.179   1.382  0.2482  0.6473 -0.5569
 7077TIP3    H121195   6.740   5.155   1.294 -0.7898 -0.3443 -0.6708
 7077TIP3    H221196   6.764   5.253   1.407  1.1702  0.3675 -1.6701
 7078TIP3   OH221197   0.086   5.743   1.506 -0.0070 -0.5878 -0.2047
 7078TIP3    H121198   0.101   5.832   1.476 -0.0266 -0.4713  0.1299
 7078TIP3    H221199  -0.007   5.728   1.493 -0.1647 -0.2671  0.5152
 7079TIP3   OH221200   3.530   6.039   0.295 -0.0807 -0.2347  0.3888
 7079TIP3    H121201   3.473   6.108   0.328 -1.8179  0.1730 -3.0270
 7079TIP3    H221202   3.571   6.077   0.217  1.8913 -1.8453  0.5492
 7080TIP3   OH221203   3.167   0.659   5.735 -0.0400 -0.0171 -0.0452
 7080TIP3    H121204   3.088   0.695   5.695  0.8908 -0.2091 -2.2072
 7080TIP3    H221205   3.237   0.718   5.707  0.6458  0.0188  1.6399
 7081TIP3   OH221206   4.443   3.722   4.679  0.0957 -0.1015  0.0281
 7081TIP3    H121207   4.498   3.672   4.618 -0.2408 -1.3321  0.7138
 7081TIP3    H221208   4.360   3.733   4.633  1.1412  2.6550 -1.4451
 7082TIP3   OH221209   2.748   5.950   3.030 -0.4936  0.1362 -0.0568
 7082TIP3    H121210   2.786   5.907   2.954 -0.3124 -0.4939  0.3862
 7082TIP3    H221211   2.823   5.981   3.080 -0.6198  1.2957 -0.5347
 7083TIP3   OH221212   1.288   6.164   1.928  0.1075  0.0384 -0.3907
 7083TIP3    H121213   1.249   6.090   1.974 -0.5020 -1.5221 -3.2263
 7083TIP3    H221214   1.254   6.159   1.839  1.1680  2.9283 -1.0858
 7084TIP3   OH221215   6.882   2.370   0.763  0.9328  0.2929  0.0328
 7084TIP3    H121216   6.815   2.302   0.769  1.2064  0.0566  0.4552
 7084TIP3    H221217   6.843   2.447   0.803  1.3176 -0.1601  1.3027
 7085TIP3   OH221218   4.640   4.716   4.907 -0.3118  0.2267  0.2689
 7085TIP3    H121219   4.636   4.798   4.957 -0.0089 -0.7957  2.0376
 7085TIP3    H221220   4.550   4.683   4.910 -0.2468  0.0553  0.3331
 7086TIP3   OH221221   1.790   3.735   1.331 -0.3674  0.0162 -0.4836
 7086TIP3    H121222   1.754   3.812   1.285  0.0783  0.1771 -0.5642
 7086TIP3    H221223   1.782   3.664   1.268  1.1560  0.4407 -1.1961
 7087TIP3   OH221224   4.849   3.275   3.725 -0.1346 -0.7634 -0.0212
 7087TIP3    H121225   4.859   3.247   3.634  0.4161  0.6643 -0.4347
 7087TIP3    H221226   4.868   3.197   3.776 -0.2059 -1.5297 -1.1278
 7088TIP3   OH221227   2.138   2.990   4.100 -0.0222 -0.1088 -0.4534
 7088TIP3    H121228   2.209   2.987   4.035 -0.0237  0.1535 -0.4694
 7088TIP3    H221229   2.118   3.083   4.108  0.6958 -0.0363  0.7004
 7089TIP3   OH221230   5.803   6.011   0.032  0.4192  0.0606  0.3374
 7089TIP3    H121231   5.759   6.078  -0.019  0.1672 -1.5132 -1.6416
 7089TIP3    H221232   5.892   6.044   0.044  0.4886  0.5002 -1.1604
 7090TIP3   OH221233   7.064   3.068   5.887  0.0680  0.6883  0.3902
 7090TIP3    H121234   7.159   3.081   5.875  0.3624 -1.2396  0.3378
 7090TIP3    H221235   7.028   3.077   5.799  0.1966  1.3021  0.3910
 7091TIP3   OH221236   5.756   3.712   5.728 -0.1633 -0.6938 -0.2736
 7091TIP3    H121237   5.810   3.791   5.735 -1.3532  0.4316 -2.5566
 7091TIP3    H221238   5.735   3.690   5.819 -0.4458  2.1074  0.4540
 7092TIP3   OH221239   5.265   6.229   0.063 -0.0185  0.0892 -0.1587
 7092TIP3    H121240   5.185   6.221   0.116  0.1847  1.1682  0.3476
 7092TIP3    H221241   5.293   6.320   0.077  0.3913  0.2110 -1.6386
 7093TIP3   OH221242   5.475   4.134   0.838  0.1351  0.2128  0.1819
 7093TIP3    H121243   5.426   4.069   0.888  1.7073  0.1995  1.8278
 7093TIP3    H221244   5.565   4.125   0.869  1.3790 -0.2439 -3.2130
 7094TIP3   OH221245   1.880   3.752   2.953  0.7180 -0.1847  0.5132
 7094TIP3    H121246   1.886   3.763   2.858  2.5473 -0.9468  0.5101
 7094TIP3    H221247   1.831   3.670   2.964  2.2552 -1.1938  0.1442
 7095TIP3   OH221248   2.376   2.777   2.722 -0.0068 -0.6952  0.3542
 7095TIP3    H121249   2.379   2.741   2.633 -1.4155  0.6129 -0.2816
 7095TIP3    H221250   2.457   2.827   2.730 -0.0606 -0.4685 -0.3836
 7096TIP3   OH221251   1.261   6.536   2.239 -0.4532  0.1189  0.2047
 7096TIP3    H121252   1.266   6.580   2.154 -0.2156 -2.2201 -1.0536
 7096TIP3    H221253   1.312   6.456   2.228 -2.4860 -1.5047  1.7256
 7097TIP3   OH221254   1.067   6.230   4.483 -0.5387  0.1880 -0.2349
 7097TIP3    H121255   1.110   6.192   4.559 -1.4649 -2.7105 -1.0199
 7097TIP3    H221256   1.099   6.320   4.479 -0.1636  0.3468  3.2999
 7098TIP3   OH221257   0.591   0.533   4.625  0.4352  0.0795  0.6942
 7098TIP3    H121258   0.624   0.546   4.715  2.0425  0.9722  0.0298
 7098TIP3    H221259   0.629   0.606   4.576 -0.7375 -0.1813 -0.6484
 7099TIP3   OH221260   5.737   4.704   4.993  0.1062  0.2442  0.0975
 7099TIP3    H121261   5.717   4.658   4.911  0.6731  0.4295 -0.1518
 7099TIP3    H221262   5.823   4.744   4.977 -0.1348  0.9330  0.5016
 7100TIP3   OH221263   4.083   5.933   2.947 -0.3357  0.2683 -0.4782
 7100TIP3    H121264   4.159   5.918   3.003 -0.0254  0.8135 -0.7438
 7100TIP3    H221265   4.111   5.903   2.860 -0.8389 -0.6386 -0.3403
 7101TIP3   OH221266   3.277   1.919   3.021 -0.2362 -0.4822 -1.1833
 7101TIP3    H121267   3.274   1.843   2.963 -1.4055 -0.0707 -1.6821
 7101TIP3    H221268   3.248   1.885   3.106 -0.7608 -0.6092 -1.4062
 7102TIP3   OH221269   6.270   3.457   5.629 -0.0753 -0.1282  0.4399
 7102TIP3    H121270   6.350   3.446   5.578  0.1956  1.7958  0.3634
 7102TIP3    H221271   6.300   3.487   5.714 -0.6966  0.1507  0.5621
 7103TIP3   OH221272   1.720   4.243   4.390 -0.2150  0.0451  0.5119
 7103TIP3    H121273   1.797   4.186   4.392  0.5482  1.0102  3.3281
 7103TIP3    H221274   1.738   4.304   4.319  1.0394 -0.5084  0.3185
 7104TIP3   OH221275   5.740   6.489   3.584  0.4526  0.1020  0.0382
 7104TIP3    H121276   5.697   6.417   3.631 -0.4650  0.3025 -0.4821
 7104TIP3    H221277   5.768   6.549   3.654 -2.9804  1.5883  0.3595
 7105TIP3   OH221278   3.183   5.690   5.540  0.2786  0.5179  0.0876
 7105TIP3    H121279   3.145   5.602   5.535 -1.4545  1.1224  1.5294
 7105TIP3    H221280   3.210   5.710   5.450  1.9747 -1.9825 -0.0379
 7106TIP3   OH221281   7.140   3.788   1.977 -0.0500  0.0881  0.2250
 7106TIP3    H121282   7.172   3.765   1.890 -0.1812 -0.6486  0.3576
 7106TIP3    H221283   7.214   3.772   2.036 -0.0982  0.1422  0.3005
 7107TIP3   OH221284   6.921   3.687   2.981 -0.8049  0.4506 -0.0845
 7107TIP3    H121285   6.831   3.719   2.983 -0.9532  0.0336  0.0171
 7107TIP3    H221286   6.925   3.629   2.906 -0.4997  0.8082 -0.3479
 7108TIP3   OH221287   5.047   1.819   4.203  0.2301 -0.4761 -0.2871
 7108TIP3    H121288   5.139   1.824   4.229  0.7536 -0.3462 -2.0590
 7108TIP3    H221289   5.033   1.897   4.149 -0.9841 -0.3885  0.1296
 7109TIP3   OH221290   5.224   0.944   0.930 -0.4558  0.1743  0.1502
 7109TIP3    H121291   5.226   1.032   0.968 -1.5155  0.8028 -1.1837
 7109TIP3    H221292   5.244   0.958   0.837 -0.6245 -1.0071 -0.0670
 7110TIP3   OH221293   1.708   1.027   5.790  0.2814 -0.2858 -0.1005
 7110TIP3    H121294   1.725   1.120   5.779  1.9395 -0.5993 -0.3970
 7110TIP3    H221295   1.666   1.020   5.876  2.7632  0.4592  1.2545
 7111TIP3   OH221296   4.805   2.706   1.949  0.0192 -0.6546  0.7602
 7111TIP3    H121297   4.832   2.737   1.862 -2.7180  0.2159  0.1187
 7111TIP3    H221298   4.785   2.785   1.998 -4.3158 -1.0634  0.0493
 7112TIP3   OH221299   4.504   3.148   1.671  0.0535  0.2761  0.1266
 7112TIP3    H121300   4.497   3.092   1.594  1.1598  1.7700 -1.1156
 7112TIP3    H221301   4.497   3.087   1.746 -1.4331 -1.1591 -1.1033
 7113TIP3   OH221302   5.523   4.753   3.555 -0.0782 -0.0261  0.0970
 7113TIP3    H121303   5.492   4.667   3.581 -0.8084  0.6160  1.4097
 7113TIP3    H221304   5.558   4.740   3.467  1.7791 -2.1126  1.0504
 7114TIP3   OH221305   6.895   0.988   1.653 -0.0892  0.1868 -0.2733
 7114TIP3    H121306   6.982   0.950   1.647  0.9299  2.0592  1.3728
 7114TIP3    H221307   6.859   0.981   1.564  2.0176 -0.0010 -1.1601
 7115TIP3   OH221308   4.094   4.614   3.063  0.0914 -0.2033  0.1240
 7115TIP3    H121309   4.008   4.637   3.098  0.6996 -0.3294  1.8177
 7115TIP3    H221310   4.143   4.696   3.065 -0.0415 -0.0700 -1.0985
 7116TIP3   OH221311   1.669   4.820   3.867  0.3055 -0.7464 -0.6964
 7116TIP3    H121312   1.692   4.758   3.936 -2.8307 -1.8382 -0.5116
 7116TIP3    H221313   1.704   4.904   3.898  2.2213 -1.8565  0.3572
 7117TIP3   OH221314   4.569   0.614   0.420  0.7564 -0.2847 -0.2043
 7117TIP3    H121315   4.629   0.568   0.480  2.6362  0.4872 -1.3954
 7117TIP3    H221316   4.560   0.701   0.458 -0.9048 -0.8400  0.7821
 7118TIP3   OH221317   6.757   1.462   2.014 -0.3752  0.4581  0.3842
 7118TIP3    H121318   6.829   1.466   2.077 -0.1055  1.5412  0.0389
 7118TIP3    H221319   6.791   1.408   1.942 -0.9061 -1.2943  1.3965
 7119TIP3   OH221320   4.463   0.110   4.649  0.9229  0.2105  0.1018
 7119TIP3    H121321   4.503   0.030   4.684  3.0437  1.1665  0.0127
 7119TIP3    H221322   4.468   0.172   4.722 -0.1750  0.4482 -0.0152
 7120TIP3   OH221323   5.046   0.318   3.833 -0.0140  0.6005  0.2432
 7120TIP3    H121324   5.084   0.405   3.818  0.3395  0.3078 -0.6174
 7120TIP3    H221325   5.049   0.276   3.748 -1.2909  0.1704  0.3926
 7121TIP3   OH221326   6.903   5.786   1.220  0.1765  0.4184  0.2754
 7121TIP3    H121327   6.863   5.738   1.148  1.6663 -0.1864 -0.1819
 7121TIP3    H221328   6.830   5.828   1.265 -0.9845 -0.9441 -0.2989
 7122TIP3   OH221329   6.033   3.798   4.221 -0.1577  0.5540  0.6090
 7122TIP3    H121330   6.121   3.765   4.233 -0.5115 -0.4579  0.5043
 7122TIP3    H221331   5.987   3.775   4.302 -0.6564 -0.0586  0.1612
 7123TIP3   OH221332   6.955   3.081   0.044  0.2583  0.0236 -0.4184
 7123TIP3    H121333   6.873   3.080   0.093  0.7939 -0.9308  0.5004
 7123TIP3    H221334   6.992   2.993   0.057  1.2806  0.3369 -1.0619
 7124TIP3   OH221335   2.577   0.426   0.448  0.7585 -0.2081 -0.4673
 7124TIP3    H121336   2.545   0.337   0.460 -0.9068  0.2498 -1.2348
 7124TIP3    H221337   2.505   0.472   0.405  0.8254  2.0203  1.5865
 7125TIP3   OH221338   3.973   0.057   2.831  0.6659 -0.0680 -0.1279
 7125TIP3    H121339   3.940   0.120   2.895  1.1234  0.8065 -0.7201
 7125TIP3    H221340   4.067   0.051   2.850  1.3602  2.1722 -2.2368
 7126TIP3   OH221341   2.546   5.477   5.849  0.4127  0.7332  0.0910
 7126TIP3    H121342   2.629   5.460   5.892  0.4136  1.3823  0.3517
 7126TIP3    H221343   2.499   5.393   5.853  0.4319  0.7598  1.3045
 7127TIP3   OH221344   1.961   5.794   2.922 -0.0046 -0.2187  0.2238
 7127TIP3    H121345   1.949   5.882   2.887  0.7078 -0.5210 -0.8420
 7127TIP3    H221346   1.877   5.751   2.909  0.5739 -0.7528 -2.5099
 7128TIP3   OH221347   0.175   2.879   4.477 -0.0303  0.5363 -0.1283
 7128TIP3    H121348   0.232   2.826   4.533 -0.9006 -0.5898 -0.2590
 7128TIP3    H221349   0.128   2.937   4.537  1.4656  1.7315 -0.0532
 7129TIP3   OH221350   4.959   0.991   5.428  0.0660  0.3081 -0.4813
 7129TIP3    H121351   4.990   0.941   5.504  0.9835 -0.1945 -1.1729
 7129TIP3    H221352   5.022   0.971   5.359 -2.0258 -1.1126 -2.0988
 7130TIP3   OH221353   3.406   0.586   4.869  0.7479 -0.5148  0.0220
 7130TIP3    H121354   3.470   0.596   4.799  1.3029 -3.1660  0.0630
 7130TIP3    H221355   3.415   0.666   4.922  1.5881  0.6997 -1.8564
 7131TIP3   OH221356   3.227   4.426   3.003 -0.1827 -0.0827 -0.0428
 7131TIP3    H121357   3.173   4.429   2.924 -1.1201 -0.7858  0.5413
 7131TIP3    H221358   3.273   4.510   3.004  1.0684 -0.6684 -2.1306
 7132TIP3   OH221359   6.471   6.317   5.296  0.4126 -0.5842  0.8774
 7132TIP3    H121360   6.493   6.245   5.355  1.2630  0.2736  1.6350
 7132TIP3    H221361   6.384   6.295   5.263  0.7219 -2.0359  0.9554
 7133TIP3   OH221362   6.034   1.139   4.161  0.2515 -0.4853  0.5312
 7133TIP3    H121363   5.983   1.201   4.108  2.0998  0.2589 -0.4804
 7133TIP3    H221364   6.039   1.180   4.247  1.3106  0.7632 -0.0839
 7134TIP3   OH221365   4.375   0.275   4.211 -0.3727  0.6247 -0.5579
 7134TIP3    H121366   4.400   0.197   4.260  1.3103  0.9938 -0.7774
 7134TIP3    H221367   4.295   0.306   4.255 -1.7969 -1.8461 -1.2234
 7135TIP3   OH221368   6.415   5.703   4.159 -0.2690 -0.1595 -0.6235
 7135TIP3    H121369   6.467   5.776   4.192 -1.1474  0.5187 -0.7127
 7135TIP3    H221370   6.470   5.662   4.093  1.1993 -1.0495  1.0605
 7136TIP3   OH221371   4.911   1.463   4.785  0.3570  0.5978  0.2121
 7136TIP3    H121372   4.864   1.466   4.868  0.7002  1.0546  0.3934
 7136TIP3    H221373   4.949   1.550   4.775 -0.0124  0.6755 -0.6253
 7137TIP3   OH221374   4.577   4.822   3.833  0.2226 -0.1906  0.0600
 7137TIP3    H121375   4.555   4.800   3.924  2.2305 -1.1313  0.3560
 7137TIP3    H221376   4.624   4.905   3.839  1.9276 -1.1101  0.1363
 7138TIP3   OH221377   0.909   1.919   0.412 -0.2360 -0.2293 -0.3047
 7138TIP3    H121378   0.975   1.935   0.479  0.1840  0.3044 -0.8437
 7138TIP3    H221379   0.892   1.825   0.418 -1.3185  0.0348  1.5642
 7139TIP3   OH221380   0.270   2.708   1.587  0.4681  0.8283 -0.0884
 7139TIP3    H121381   0.342   2.654   1.553  2.1765  2.6806  0.3645
 7139TIP3    H221382   0.248   2.668   1.671  1.7569  0.8335  0.2813
 7140TIP3   OH221383   4.293   6.724   2.423 -0.5904 -0.3368 -0.0302
 7140TIP3    H121384   4.284   6.720   2.519 -0.1930 -2.5014 -0.0250
 7140TIP3    H221385   4.297   6.817   2.403  2.0776  0.1941  2.3647
 7141TIP3   OH221386   1.666   1.262   4.869  0.0282  0.6169 -0.5069
 7141TIP3    H121387   1.680   1.341   4.921 -1.1794  1.1523 -0.9634
 7141TIP3    H221388   1.719   1.195   4.912 -4.1982 -0.2409  4.2980
 7142TIP3   OH221389   2.769   6.210   3.391 -0.1603  0.2993 -0.2228
 7142TIP3    H121390   2.817   6.236   3.312  2.5786  0.7150  1.4492
 7142TIP3    H221391   2.771   6.287   3.447  2.4654 -1.3502  2.2180
 7143TIP3   OH221392   0.882   5.547   2.736 -0.0316 -0.4652 -0.1044
 7143TIP3    H121393   0.934   5.559   2.815 -0.3284  1.4220 -0.1400
 7143TIP3    H221394   0.792   5.541   2.767 -0.0629 -0.7009 -0.2363
 7144TIP3   OH221395   2.549   5.940   5.357 -0.0499 -0.5296 -0.5955
 7144TIP3    H121396   2.543   5.901   5.444 -1.9468  0.3819 -0.2714
 7144TIP3    H221397   2.642   5.932   5.333  0.4470 -1.0722  1.3659
 7145TIP3   OH221398   2.495   0.622   3.244 -0.1659  0.0742  0.2801
 7145TIP3    H121399   2.431   0.556   3.271 -0.2203 -0.3385 -0.8012
 7145TIP3    H221400   2.446   0.705   3.245 -1.2916 -0.4731 -2.2903
 7146TIP3   OH221401   5.181   2.073   2.889 -0.5744  0.1361 -0.0805
 7146TIP3    H121402   5.096   2.104   2.858 -0.6952 -0.5810 -0.4956
 7146TIP3    H221403   5.161   2.002   2.949 -0.2690 -0.0669 -0.2155
 7147TIP3   OH221404   2.030   2.891   2.596  0.1585  0.0262  0.6293
 7147TIP3    H121405   2.100   2.936   2.549 -0.1984  0.5667  0.6106
 7147TIP3    H221406   2.038   2.922   2.687 -0.1922  0.2545  0.5818
 7148TIP3   OH221407   4.666   6.681   4.634 -0.1458  0.2187 -0.0328
 7148TIP3    H121408   4.628   6.762   4.600 -0.0626 -0.1081 -0.9355
 7148TIP3    H221409   4.724   6.651   4.563  0.5196 -0.1549  0.6562
 7149TIP3   OH221410   2.927   3.302   5.025 -0.0666  0.3956  0.7702
 7149TIP3    H121411   2.955   3.234   5.086  1.4266 -0.5708 -0.9171
 7149TIP3    H221412   3.005   3.356   5.012  0.0143 -0.1250 -1.1710
 7150TIP3   OH221413   1.553   6.151   3.073 -0.3012 -0.2773  0.0956
 7150TIP3    H121414   1.515   6.148   3.161 -0.0211  0.7012  0.2559
 7150TIP3    H221415   1.578   6.242   3.060 -0.7016 -0.3241 -1.1639
 7151TIP3   OH221416   0.175   3.780   5.583 -0.0548  0.5656 -0.1400
 7151TIP3    H121417   0.126   3.752   5.505 -0.1025 -0.4484  0.2360
 7151TIP3    H221418   0.113   3.831   5.634 -0.9161 -1.1153  0.5711
 7152TIP3   OH221419   3.716   5.107   1.330  0.1457 -0.5859 -0.1583
 7152TIP3    H121420   3.714   5.022   1.288 -1.1444 -1.3441  1.3088
 7152TIP3    H221421   3.745   5.089   1.420  1.6304  0.7972 -0.3146
 7153TIP3   OH221422   4.177   6.513   0.748  0.3300 -0.6391 -0.1143
 7153TIP3    H121423   4.197   6.430   0.706 -1.1653 -0.9000 -0.3542
 7153TIP3    H221424   4.092   6.500   0.789 -2.5073  2.1221 -4.2502
 7154TIP3   OH221425   1.920   1.757   2.053  0.1459 -0.3294  0.3205
 7154TIP3    H121426   1.867   1.678   2.046  0.3685 -0.4754  0.2723
 7154TIP3    H221427   1.936   1.767   2.147 -0.6472  0.1700  0.4085
 7155TIP3   OH221428   1.360   5.938   1.153  0.1963 -0.4303 -0.0855
 7155TIP3    H121429   1.324   5.850   1.137 -0.2408 -0.7093  2.0452
 7155TIP3    H221430   1.451   5.922   1.177 -0.1061 -0.4224  1.1355
 7156TIP3   OH221431   3.417   3.210   0.125 -0.0881  0.6854  0.4665
 7156TIP3    H121432   3.445   3.281   0.183  1.9824  0.8136 -0.5963
 7156TIP3    H221433   3.428   3.245   0.037 -0.9557 -0.2862 -0.0440
 7157TIP3   OH221434   1.201   0.858   1.792  0.3265 -0.4365 -0.3179
 7157TIP3    H121435   1.148   0.859   1.712  2.7685  0.2987 -2.0614
 7157TIP3    H221436   1.194   0.769   1.825 -0.7984 -0.7413 -1.3051
 7158TIP3   OH221437   5.173   2.964   2.621  1.0675 -0.3510 -0.0860
 7158TIP3    H121438   5.160   2.926   2.709 -2.1675  1.4568  0.3635
 7158TIP3    H221439   5.149   2.893   2.561  2.4643 -1.3293  0.4562
 7159TIP3   OH221440   4.154   1.512   1.255 -0.0142 -0.4221  0.3099
 7159TIP3    H121441   4.064   1.540   1.271 -0.0759 -0.3146 -0.2038
 7159TIP3    H221442   4.151   1.417   1.261 -0.1814 -0.4240  0.2077
 7160TIP3   OH221443   6.489   0.233   3.803 -0.1524  0.3585  0.1579
 7160TIP3    H121444   6.449   0.264   3.884 -1.4493  0.3128 -0.4309
 7160TIP3    H221445   6.453   0.145   3.790  0.7293  0.0144 -0.0173
 7161TIP3   OH221446   6.398   2.403   4.244 -0.0092 -0.0245  0.1286
 7161TIP3    H121447   6.405   2.419   4.338 -0.7459  0.1684  0.1567
 7161TIP3    H221448   6.415   2.310   4.234 -0.3949 -0.1390  0.5090
 7162TIP3   OH221449   6.941   2.226   2.767 -0.0697 -0.6547 -0.2429
 7162TIP3    H121450   6.978   2.196   2.850 -0.6616 -0.0286  0.2602
 7162TIP3    H221451   6.984   2.310   2.750 -0.9200 -0.1302  0.1282
 7163TIP3   OH221452   0.098   1.640   1.867  0.3803  0.5920 -0.2029
 7163TIP3    H121453   0.089   1.621   1.960  1.9037  1.2456  0.1157
 7163TIP3    H221454   0.011   1.626   1.830 -0.1605 -0.0070  1.2546
 7164TIP3   OH221455   5.707   3.455   0.595  0.2448  0.4053  0.0614
 7164TIP3    H121456   5.697   3.548   0.614  2.2619  0.6096  0.3215
 7164TIP3    H221457   5.768   3.453   0.521  2.3814 -0.7234  1.7327
 7165TIP3   OH221458   5.221   2.828   4.372 -0.1723 -0.5804 -0.6365
 7165TIP3    H121459   5.137   2.869   4.354 -0.0518  0.2645  0.5627
 7165TIP3    H221460   5.199   2.752   4.427 -0.0978  0.4558  0.9115
 7166TIP3   OH221461   6.148   1.197   2.464 -0.9273 -0.7290 -0.3990
 7166TIP3    H121462   6.228   1.183   2.413 -1.1145 -0.2483 -0.8412
 7166TIP3    H221463   6.083   1.224   2.398 -1.2097 -0.2316  0.0731
 7167TIP3   OH221464   4.216   2.243   2.644  0.1959 -0.2834  0.2201
 7167TIP3    H121465   4.263   2.325   2.634 -2.5149  1.1706 -2.3699
 7167TIP3    H221466   4.211   2.229   2.739 -0.1585  3.1528  0.8271
 7168TIP3   OH221467   5.583   3.233   5.548  0.5155  0.2535  0.5811
 7168TIP3    H121468   5.635   3.294   5.600  2.3537 -0.9025  0.1978
 7168TIP3    H221469   5.551   3.169   5.611  2.0797 -0.6918  0.4958
 7169TIP3   OH221470   4.870   2.544   0.502 -0.1718 -0.2869 -0.3637
 7169TIP3    H121471   4.929   2.540   0.577 -0.2905  1.6470 -0.1157
 7169TIP3    H221472   4.825   2.628   0.511 -3.3811 -1.8692 -0.2821
 7170TIP3   OH221473   0.720   3.929   2.953 -0.4224 -0.3827 -0.1701
 7170TIP3    H121474   0.786   3.935   2.883 -1.8260  0.5914 -1.4747
 7170TIP3    H221475   0.722   3.837   2.980 -1.3104 -1.3623 -3.0509
 7171TIP3   OH221476   1.921   3.494   1.866 -0.0787 -0.1353 -0.1128
 7171TIP3    H121477   1.877   3.452   1.792 -0.2011  0.2656 -0.2686
 7171TIP3    H221478   2.014   3.479   1.850 -0.0445  0.7701 -0.8569
 7172TIP3   OH221479   5.176   1.202   0.990  0.7145 -0.4731  0.1472
 7172TIP3    H121480   5.196   1.290   1.022  0.0059 -0.9659  2.1088
 7172TIP3    H221481   5.081   1.194   1.000  0.9673 -2.0770  1.8068
 7173TIP3   OH221482   2.959   4.225   3.880  0.2076 -0.2890 -0.0447
 7173TIP3    H121483   2.995   4.192   3.962 -0.3497 -2.4337 -0.6027
 7173TIP3    H221484   3.017   4.298   3.856  0.8033 -0.0775  1.8502
 7174TIP3   OH221485   5.447   2.438   1.127 -0.5246 -0.3809 -0.1337
 7174TIP3    H121486   5.534   2.407   1.101 -1.1413 -1.3646 -1.1410
 7174TIP3    H221487   5.464   2.513   1.184  0.9712  0.4428 -1.5764
 7175TIP3   OH221488   1.308   6.441   1.252  0.2955 -0.2047 -0.6841
 7175TIP3    H121489   1.238   6.386   1.286 -0.0407  0.1307 -0.8216
 7175TIP3    H221490   1.379   6.380   1.231  0.7117 -0.3781  1.0761
 7176TIP3   OH221491   2.545   5.134   4.532  0.0448 -0.3426 -0.3543
 7176TIP3    H121492   2.494   5.068   4.484 -0.0661  0.0188 -0.7390
 7176TIP3    H221493   2.546   5.102   4.622 -0.2350 -0.7334 -0.4848
 7177TIP3   OH221494   1.429   3.646   3.364 -0.4119  0.1097 -0.0838
 7177TIP3    H121495   1.343   3.613   3.339 -0.8037  1.0238 -0.0107
 7177TIP3    H221496   1.456   3.591   3.438 -1.2290  0.2277  0.3152
 7178TIP3   OH221497   6.692   5.924   1.380  0.2853  0.3518  0.2229
 7178TIP3    H121498   6.645   5.848   1.414  0.0683  0.6642  0.6238
 7178TIP3    H221499   6.623   5.985   1.352  0.3746  1.6073  2.5240
 7179TIP3   OH221500   3.663   6.583   1.521  1.2840  0.1836 -0.0665
 7179TIP3    H121501   3.655   6.503   1.573  2.0486  0.1572  0.0166
 7179TIP3    H221502   3.588   6.636   1.547  0.1643 -0.9345 -0.8859
 7180TIP3   OH221503   0.543   0.957   4.721  0.0198  0.5763  0.3596
 7180TIP3    H121504   0.557   0.939   4.814 -2.4107 -0.7977  0.5338
 7180TIP3    H221505   0.532   1.052   4.717  0.0528  0.6424  1.4783
 7181TIP3   OH221506   7.237   6.232   1.313 -0.1741  0.0508 -0.1740
 7181TIP3    H121507   7.209   6.228   1.222 -0.3518  0.4692 -0.1395
 7181TIP3    H221508   7.156   6.240   1.363 -0.0569  0.1441  0.0012
 7182TIP3   OH221509   7.087   5.350   4.287 -0.0386  0.0396 -0.5337
 7182TIP3    H121510   7.000   5.363   4.324 -0.0071  2.0877 -1.0658
 7182TIP3    H221511   7.072   5.321   4.197 -0.1671 -0.2594 -0.4144
 7183TIP3   OH221512   6.600   2.211   5.605  0.3788  0.0490 -0.1342
 7183TIP3    H121513   6.584   2.117   5.599 -2.4086  0.3742  0.8053
 7183TIP3    H221514   6.525   2.251   5.562  1.1546  1.8835  0.1225
 7184TIP3   OH221515   2.599   4.691   5.265 -0.1965 -0.0889  0.0169
 7184TIP3    H121516   2.658   4.616   5.271  0.1138  0.1389 -0.1947
 7184TIP3    H221517   2.578   4.713   5.356 -0.7941 -0.8294  0.0655
 7185TIP3   OH221518   4.873   2.165   3.862 -0.7409 -0.0401 -0.0726
 7185TIP3    H121519   4.861   2.233   3.796 -1.2042  1.6763  1.6911
 7185TIP3    H221520   4.787   2.123   3.870 -0.9286  0.3625  0.0596
 7186TIP3   OH221521   5.982   4.575   1.048  0.3762 -0.2994  0.0298
 7186TIP3    H121522   5.922   4.500   1.049 -0.8810  0.6561 -0.8618
 7186TIP3    H221523   6.020   4.576   1.136  0.4840 -2.0097  0.0429
 7187TIP3   OH221524   5.223   6.379   0.516 -0.1636 -0.3173 -0.0243
 7187TIP3    H121525   5.146   6.371   0.572 -0.1933  0.0954 -0.0025
 7187TIP3    H221526   5.235   6.473   0.505  0.6267 -0.3660  0.3685
 7188TIP3   OH221527   1.303   3.017   1.710  0.0667 -0.1653  0.6774
 7188TIP3    H121528   1.270   2.980   1.792  0.5592 -1.2776  0.3949
 7188TIP3    H221529   1.247   2.978   1.643  0.2187  0.0681  0.4138
 7189TIP3   OH221530   3.154   2.571   2.812  0.7255  0.0701  0.0423
 7189TIP3    H121531   3.148   2.639   2.744  2.1773 -0.1133 -0.3155
 7189TIP3    H221532   3.192   2.496   2.767  0.0533 -0.6595  0.6689
 7190TIP3   OH221533   2.143   5.178   3.458  0.0928 -0.1037  0.2607
 7190TIP3    H121534   2.168   5.088   3.475  0.2147  0.0752  1.1228
 7190TIP3    H221535   2.207   5.210   3.395  1.8774  0.2360  2.1436
 7191TIP3   OH221536   1.202   5.841   3.159 -0.1967 -1.0884 -0.0569
 7191TIP3    H121537   1.189   5.767   3.218  1.5006 -0.1839  1.5621
 7191TIP3    H221538   1.290   5.828   3.123 -0.3067 -0.4310 -0.5879
 7192TIP3   OH221539   0.808   4.462   5.564  0.1271  0.0568  0.2603
 7192TIP3    H121540   0.716   4.462   5.537 -0.2502  0.9629  1.4637
 7192TIP3    H221541   0.855   4.494   5.487 -0.6378  0.2169 -0.1581
 7193TIP3   OH221542   6.187   2.509   4.111 -0.2161 -0.2334 -0.0188
 7193TIP3    H121543   6.265   2.482   4.161 -1.2680 -1.2248  1.1671
 7193TIP3    H221544   6.216   2.585   4.061  0.8256  1.1240  2.4417
 7194TIP3   OH221545   1.300   2.013   3.191  0.0032 -0.2156 -0.1874
 7194TIP3    H121546   1.319   2.081   3.126 -3.4610 -0.5355 -1.7531
 7194TIP3    H221547   1.353   1.938   3.164  1.9175  0.9874  0.0420
 7195TIP3   OH221548   0.942   6.690   3.024  0.7016 -0.0646 -0.0371
 7195TIP3    H121549   1.028   6.732   3.026  0.5195  0.3725  2.6235
 7195TIP3    H221550   0.880   6.762   3.039 -0.0794 -0.5206 -0.9314
 7196TIP3   OH221551   3.867   4.572   0.951 -0.7404 -0.2324  0.1554
 7196TIP3    H121552   3.927   4.555   0.878 -0.5356  0.8811  0.0486
 7196TIP3    H221553   3.794   4.512   0.935 -0.6606 -0.0707 -0.9334
 7197TIP3   OH221554   6.464   6.616   2.831  0.0760 -0.2789  0.4415
 7197TIP3    H121555   6.373   6.604   2.802 -0.8714 -0.5083  3.2507
 7197TIP3    H221556   6.509   6.536   2.805 -0.6212 -0.3552 -0.5719
 7198TIP3   OH221557   5.531   6.119   2.975 -0.6018  0.0582  0.7117
 7198TIP3    H121558   5.439   6.116   3.000 -0.3104 -0.3069  1.7908
 7198TIP3    H221559   5.561   6.205   3.004 -0.9047  0.6966 -0.7985
 7199TIP3   OH221560   6.768   2.071   4.756  0.3789  0.1875  0.3074
 7199TIP3    H121561   6.692   2.014   4.747 -0.2626  1.1861 -1.0265
 7199TIP3    H221562   6.765   2.102   4.846 -0.7499  0.1459  0.2917
 7200TIP3   OH221563   4.318   6.206   5.694  0.2022  0.3823 -0.3095
 7200TIP3    H121564   4.371   6.149   5.750  0.1674  0.1225 -0.5422
 7200TIP3    H221565   4.238   6.221   5.745  1.3579  2.5302  1.0068
 7201TIP3   OH221566   1.573   5.332   0.469 -0.6206  0.0639  0.0682
 7201TIP3    H121567   1.602   5.314   0.380 -0.1209 -0.7839  0.3873
 7201TIP3    H221568   1.562   5.427   0.472  2.2093  0.4722 -0.0791
 7202TIP3   OH221569   0.956   5.625   5.422  0.6012 -0.1137  0.2291
 7202TIP3    H121570   1.032   5.682   5.409  1.4303 -1.0599  0.7892
 7202TIP3    H221571   0.912   5.661   5.499 -1.8057  2.8005 -2.2656
 7203TIP3   OH221572   1.072   5.071   1.583 -0.5211 -0.1375  0.0569
 7203TIP3    H121573   1.159   5.075   1.623 -0.5066 -0.5326  0.0706
 7203TIP3    H221574   1.089   5.071   1.489 -0.5707  1.1561  0.0328
 7204TIP3   OH221575   0.633   1.973   1.418 -0.3252  0.0275 -0.0178
 7204TIP3    H121576   0.722   1.987   1.384 -0.1440 -2.6931 -0.8732
 7204TIP3    H221577   0.576   2.006   1.349  0.0135  0.4399 -0.1085
 7205TIP3   OH221578   4.138   1.872   0.617  0.5248 -0.0724  0.2575
 7205TIP3    H121579   4.222   1.836   0.590  0.7280  0.1079  0.6433
 7205TIP3    H221580   4.149   1.894   0.710  0.6623  1.6920 -0.1448
 7206TIP3   OH221581   2.828   2.034   0.103 -0.4968 -0.3444  0.4274
 7206TIP3    H121582   2.778   2.093   0.159  1.2609  0.6733  1.0048
 7206TIP3    H221583   2.845   1.957   0.157  0.5222  0.3046  1.0726
 7207TIP3   OH221584   6.277   5.186   3.606  0.7609 -0.0405  0.0171
 7207TIP3    H121585   6.345   5.191   3.672 -0.3027 -1.1405  1.2569
 7207TIP3    H221586   6.298   5.106   3.557  0.7598  0.0214 -0.0860
 7208TIP3   OH221587   3.263   4.130   1.679 -0.1418 -0.7142 -0.2734
 7208TIP3    H121588   3.225   4.214   1.703 -1.1054 -0.6164 -1.9469
 7208TIP3    H221589   3.354   4.134   1.710 -0.5861  0.3318  0.9565
 7209TIP3   OH221590   2.636   1.991   0.544  0.8780 -0.1797 -0.0636
 7209TIP3    H121591   2.693   2.041   0.485  0.7567  1.3046  1.0206
 7209TIP3    H221592   2.643   1.901   0.513  2.8084  0.1586 -0.7647
 7210TIP3   OH221593   3.921   1.088   1.531  0.1585 -0.2128  0.6988
 7210TIP3    H121594   3.884   1.065   1.445  0.4766  0.2913  0.4224
 7210TIP3    H221595   3.847   1.082   1.591  0.0917 -1.3339  0.5359
 7211TIP3   OH221596   5.916   6.716   4.688  0.3511  0.6095  0.1404
 7211TIP3    H121597   5.907   6.637   4.741  0.1697  0.1356 -0.5709
 7211TIP3    H221598   5.981   6.769   4.733 -1.1417  1.0829  1.8447
 7212TIP3   OH221599   3.765   0.833   2.871 -0.2100 -0.2076  0.3603
 7212TIP3    H121600   3.850   0.793   2.889  1.0045  1.3206 -1.5731
 7212TIP3    H221601   3.751   0.817   2.778 -1.8971 -0.1352  0.5851
 7213TIP3   OH221602   6.619   3.182   5.521  0.9577  0.3713  0.2831
 7213TIP3    H121603   6.550   3.235   5.480  1.3641  0.5835 -0.1350
 7213TIP3    H221604   6.699   3.233   5.507  1.3359 -0.3079 -0.0244
 7214TIP3   OH221605   4.806   2.748   4.956 -0.3015  0.0474 -0.5638
 7214TIP3    H121606   4.778   2.742   5.047 -0.1797  1.0683 -0.4471
 7214TIP3    H221607   4.869   2.676   4.946 -1.0230 -0.6687 -0.1239
 7215TIP3   OH221608   3.454   3.496   2.222 -0.1264 -0.1963 -0.2430
 7215TIP3    H121609   3.366   3.458   2.223  0.0039 -0.4832  0.1184
 7215TIP3    H221610   3.463   3.537   2.308 -0.7155  1.6885 -1.0271
 7216TIP3   OH221611   3.340   3.460   1.756 -0.7525  0.0653  0.3249
 7216TIP3    H121612   3.393   3.515   1.699 -0.5100 -0.1068  0.3836
 7216TIP3    H221613   3.284   3.522   1.803 -2.2632  0.0945 -1.4099
 7217TIP3   OH221614   2.616   3.086   4.489  0.0995 -0.3556  0.0247
 7217TIP3    H121615   2.674   3.095   4.414 -0.8529 -0.0998 -0.6964
 7217TIP3    H221616   2.528   3.105   4.455 -0.2035  1.0543  1.4761
 7218TIP3   OH221617   1.328   3.674   3.037 -0.2805  0.0125  0.8107
 7218TIP3    H121618   1.270   3.689   3.111 -0.7716 -2.3366  0.9623
 7218TIP3    H221619   1.408   3.637   3.075  1.3896  2.9995  0.5850
 7219TIP3   OH221620   0.727   3.826   2.572  0.1154  0.1901 -0.3699
 7219TIP3    H121621   0.642   3.854   2.539 -0.0849 -0.5685 -0.5205
 7219TIP3    H221622   0.707   3.766   2.644  0.5519  1.6461  1.0004
 7220TIP3   OH221623   3.225   1.025   3.384 -0.1512 -0.2066 -0.0953
 7220TIP3    H121624   3.184   1.023   3.470  0.6648  0.4020  0.3251
 7220TIP3    H221625   3.152   1.034   3.323 -0.7239 -0.4658  0.5397
 7221TIP3   OH221626   1.976   3.823   5.176  0.5165 -0.0278 -1.0080
 7221TIP3    H121627   1.940   3.787   5.095  2.2113  1.0627 -2.3103
 7221TIP3    H221628   1.909   3.884   5.207 -0.9441 -1.7846 -0.5538
 7222TIP3   OH221629   4.793   1.054   1.755 -0.2062 -0.1638 -0.0456
 7222TIP3    H121630   4.856   1.088   1.692 -0.8942 -0.8647 -1.1503
 7222TIP3    H221631   4.757   0.976   1.713  0.4529 -1.5887  1.8886
 7223TIP3   OH221632   5.912   1.314   1.404  0.4693  0.0162  0.3073
 7223TIP3    H121633   5.909   1.360   1.487  0.4462  0.3442  0.1247
 7223TIP3    H221634   6.006   1.306   1.385  0.4644  0.5130  0.0512
 7224TIP3   OH221635   3.054   5.584   4.509  0.1050 -0.6276  0.3191
 7224TIP3    H121636   3.110   5.568   4.433 -0.4112  1.9140 -0.7005
 7224TIP3    H221637   3.047   5.499   4.552  2.3417 -1.6491 -1.1427
 7225TIP3   OH221638   2.681   4.396   3.580  0.4362 -0.9550  0.3360
 7225TIP3    H121639   2.629   4.440   3.513 -1.4592 -0.1385  2.2251
 7225TIP3    H221640   2.749   4.460   3.603 -1.9582  0.9905  2.6533
 7226TIP3   OH221641   7.120   6.470   3.408  0.2025 -0.6857  0.1575
 7226TIP3    H121642   7.102   6.556   3.369  0.9968 -0.2857  0.6757
 7226TIP3    H221643   7.191   6.485   3.469  0.4129 -1.7389  0.1861
 7227TIP3   OH221644   0.476   3.941   1.058  0.3405 -0.3047 -0.1196
 7227TIP3    H121645   0.411   4.002   1.092 -0.5702 -0.4854 -1.4771
 7227TIP3    H221646   0.560   3.984   1.075 -0.1705  0.3377  0.8530
 7228TIP3   OH221647   1.504   0.635   1.675  0.2846  0.0160  0.7479
 7228TIP3    H121648   1.440   0.657   1.607 -1.9333 -0.3163  2.6102
 7228TIP3    H221649   1.560   0.713   1.681  0.5554  0.0524 -1.4013
 7229TIP3   OH221650   6.260   3.336   2.631 -0.2308  0.7263  0.3202
 7229TIP3    H121651   6.167   3.352   2.650 -0.7369 -0.9655 -0.4668
 7229TIP3    H221652   6.296   3.305   2.714 -0.8749 -0.4439  0.2047
 7230TIP3   OH221653   4.798   1.111   4.150 -0.2544  0.1967  0.2444
 7230TIP3    H121654   4.811   1.202   4.124  0.8588  0.2151  0.8316
 7230TIP3    H221655   4.817   1.061   4.071  0.9804  0.3809  0.4016
 7231TIP3   OH221656   3.188   6.343   1.335  0.0722 -0.2702  0.4337
 7231TIP3    H121657   3.211   6.399   1.409 -0.5066 -0.2465  0.5974
 7231TIP3    H221658   3.230   6.259   1.355  1.0855  0.1324  0.1058
 7232TIP3   OH221659   4.010   2.805   1.819  0.0113  0.4809  0.1199
 7232TIP3    H121660   3.956   2.761   1.753 -0.9300  0.3228  0.9675
 7232TIP3    H221661   4.027   2.738   1.885  1.3073  0.5178 -0.1481
 7233TIP3   OH221662   0.636   5.762   4.195  0.7204 -0.1496  0.9049
 7233TIP3    H121663   0.705   5.746   4.131  0.4117  1.5067  0.1151
 7233TIP3    H221664   0.600   5.675   4.213  1.1413 -0.7106 -0.8038
 7234TIP3   OH221665   1.150   0.645   2.677 -0.5182 -0.1511  0.1686
 7234TIP3    H121666   1.219   0.585   2.649 -0.8701 -0.5722  0.1885
 7234TIP3    H221667   1.141   0.707   2.605  0.8759  0.8067  0.7553
 7235TIP3   OH221668   0.749   4.060   5.279  0.0378  0.1928 -0.5064
 7235TIP3    H121669   0.733   4.155   5.276  0.7446  0.4874  2.1945
 7235TIP3    H221670   0.667   4.024   5.314  1.0094  0.3345  2.1249
 7236TIP3   OH221671   0.555   1.470   0.966  0.1790 -0.6825  0.5008
 7236TIP3    H121672   0.530   1.440   1.053 -0.7374  0.3629  0.6174
 7236TIP3    H221673   0.475   1.461   0.913  1.1132 -2.8216 -0.6974
 7237TIP3   OH221674   4.190   1.277   4.523  0.4949  0.3488  0.6598
 7237TIP3    H121675   4.131   1.201   4.523  0.4255  0.3907 -0.1583
 7237TIP3    H221676   4.145   1.341   4.468  1.7674 -0.0041 -0.8722
 7238TIP3   OH221677   1.640   1.924   3.115 -0.1159 -0.3948 -0.4108
 7238TIP3    H121678   1.555   1.880   3.108  0.6059 -1.9848  0.3892
 7238TIP3    H221679   1.638   1.990   3.045 -2.1152 -0.1836 -0.2076
 7239TIP3   OH221680   2.732   1.778   1.781  0.1279 -0.0096 -0.3474
 7239TIP3    H121681   2.657   1.791   1.723 -1.3971 -0.6184  1.3716
 7239TIP3    H221682   2.714   1.694   1.824  0.7004  0.8246  1.6515
 7240TIP3   OH221683   4.053   3.294   5.412  0.6186  0.3920 -0.1668
 7240TIP3    H121684   3.994   3.301   5.487  1.1896 -0.2651  0.3587
 7240TIP3    H221685   4.005   3.335   5.340 -0.9923 -1.2007 -0.0602
 7241TIP3   OH221686   5.627   6.207   1.877  0.1400 -0.0836 -0.5123
 7241TIP3    H121687   5.650   6.130   1.928 -1.9550 -0.3996  0.0500
 7241TIP3    H221688   5.651   6.185   1.787 -0.5443 -1.4537 -0.3760
 7242TIP3   OH221689   1.721   6.483   1.884 -0.5817 -0.0384  0.2096
 7242TIP3    H121690   1.625   6.490   1.886 -0.6626 -0.6000 -1.0111
 7242TIP3    H221691   1.738   6.390   1.901 -0.0998  0.4592  3.0410
 7243TIP3   OH221692   1.422   0.193   1.794 -0.2139 -0.2783  0.4595
 7243TIP3    H121693   1.413   0.139   1.715 -0.2413  0.1995  0.1303
 7243TIP3    H221694   1.483   0.263   1.768 -2.5253  1.6601 -0.1328
 7244TIP3   OH221695   4.760   1.468   5.019  0.2152  0.0399  0.2614
 7244TIP3    H121696   4.695   1.410   5.058  0.9007 -0.5387  0.5724
 7244TIP3    H221697   4.720   1.555   5.022  0.1103 -0.0320  1.9773
 7245TIP3   OH221698   3.595   6.443   0.180  0.1359 -0.7986  0.3791
 7245TIP3    H121699   3.629   6.355   0.165 -0.1575 -0.7464 -0.6872
 7245TIP3    H221700   3.501   6.436   0.163  0.2224 -0.1326 -0.4650
 7246TIP3   OH221701   5.168   4.387   4.581 -0.4217  0.3648  0.7235
 7246TIP3    H121702   5.150   4.316   4.643 -1.1876 -0.7837 -0.7475
 7246TIP3    H221703   5.174   4.465   4.635 -3.3879 -0.1943  2.0375
 7247TIP3   OH221704   5.753   5.598   4.216  0.0801  0.1546 -0.0585
 7247TIP3    H121705   5.662   5.600   4.244  0.1861  2.2865  0.3221
 7247TIP3    H221706   5.803   5.606   4.298  0.5413  1.0888 -0.4203
 7248TIP3   OH221707   4.497   2.179   0.440 -0.1532  0.1255  0.0569
 7248TIP3    H121708   4.576   2.131   0.464 -0.4699  0.2721  1.4683
 7248TIP3    H221709   4.446   2.117   0.388  0.7660 -0.0422 -0.6814
 7249TIP3   OH221710   1.734   0.077   3.489  0.1091 -0.0169 -0.1029
 7249TIP3    H121711   1.705   0.153   3.438  0.0939 -0.9459 -1.5262
 7249TIP3    H221712   1.794   0.031   3.431 -0.1403 -1.2806  0.6099
 7250TIP3   OH221713   4.516   6.456   1.366 -0.1082  0.6504  0.9054
 7250TIP3    H121714   4.488   6.372   1.403  1.7682 -0.2863  0.3060
 7250TIP3    H221715   4.460   6.469   1.290  1.3592 -1.4879 -0.6430
 7251TIP3   OH221716   4.380   1.332   0.436 -0.6283  0.6656 -0.0700
 7251TIP3    H121717   4.457   1.367   0.481 -0.5471  0.7193 -0.2471
 7251TIP3    H221718   4.310   1.335   0.501 -0.3025 -0.0869  0.3288
 7252TIP3   OH221719   1.242   5.290   0.613 -0.0359  0.6899  0.7613
 7252TIP3    H121720   1.314   5.228   0.625 -0.1748  0.2152 -0.7409
 7252TIP3    H221721   1.174   5.258   0.672 -0.3753 -1.0342 -0.4826
 7253TIP3   OH221722   7.096   6.333   5.321 -0.2295 -0.0206  0.8361
 7253TIP3    H121723   7.084   6.259   5.381 -1.2628  0.4938  1.2844
 7253TIP3    H221724   7.187   6.326   5.292 -0.6945 -2.3145 -0.2669
 7254TIP3   OH221725   2.800   4.585   3.196  0.4602 -0.3460 -0.1511
 7254TIP3    H121726   2.768   4.505   3.153  1.5778 -1.2015  0.5545
 7254TIP3    H221727   2.888   4.562   3.226  0.7028  1.0861  0.2854
 7255TIP3   OH221728   6.244   2.450   3.303 -0.0601  0.0977 -0.1129
 7255TIP3    H121729   6.289   2.403   3.233  1.1961  1.9224 -0.6200
 7255TIP3    H221730   6.272   2.541   3.292 -0.3043  0.5457  2.4022
 7256TIP3   OH221731   0.683   2.751   0.820 -0.6329  0.3447  0.5708
 7256TIP3    H121732   0.731   2.834   0.811  0.4320 -0.3009  0.0481
 7256TIP3    H221733   0.593   2.777   0.838 -0.0352  1.6141  1.9615
 7257TIP3   OH221734   1.069   0.405   5.700 -0.2597  0.2599  0.0629
 7257TIP3    H121735   0.988   0.355   5.690  0.6819 -1.4879  0.8365
 7257TIP3    H221736   1.128   0.370   5.634  0.7630 -0.4224  1.2925
 7258TIP3   OH221737   6.631   4.737   4.313  0.7558 -0.6230  0.2593
 7258TIP3    H121738   6.676   4.775   4.238 -1.2749  1.3506 -0.0564
 7258TIP3    H221739   6.599   4.812   4.363 -0.0334 -1.9072  1.7813
 7259TIP3   OH221740   5.608   5.243   5.158 -0.3040  0.6725  0.1013
 7259TIP3    H121741   5.591   5.207   5.071  1.7214 -0.5216  0.1424
 7259TIP3    H221742   5.670   5.314   5.142 -0.9850  1.3740  0.4702
 7260TIP3   OH221743   4.598   1.519   5.267  0.3066 -0.2706  0.3283
 7260TIP3    H121744   4.615   1.427   5.284  0.5985 -0.1026  0.9851
 7260TIP3    H221745   4.684   1.561   5.271 -0.0274  0.3621  2.2255
 7261TIP3   OH221746   4.823   6.774   4.836 -0.3917 -0.0226  0.0164
 7261TIP3    H121747   4.764   6.732   4.774  0.3865 -0.6088 -0.3417
 7261TIP3    H221748   4.822   6.867   4.812 -0.3859 -0.1876 -0.6262
 7262TIP3   OH221749   3.510   6.603   5.208  0.0388  0.0124 -0.3028
 7262TIP3    H121750   3.498   6.545   5.283 -2.4827  1.2381  0.3554
 7262TIP3    H221751   3.591   6.650   5.227 -0.5437  0.3012  1.6691
 7263TIP3   OH221752   3.360   0.437   1.088  0.1255 -0.0259  0.0560
 7263TIP3    H121753   3.395   0.488   1.161  0.4243 -0.7265  0.4149
 7263TIP3    H221754   3.305   0.370   1.129 -2.4080  1.5521 -0.5291
 7264TIP3   OH221755   5.312   6.234   5.570  0.3175  0.0306  0.1059
 7264TIP3    H121756   5.302   6.328   5.554 -1.8822  0.3735  2.6052
 7264TIP3    H221757   5.365   6.229   5.650 -0.8044 -0.7304  0.8346
 7265TIP3   OH221758   5.784   1.162   2.825  0.1192 -0.0580 -0.1614
 7265TIP3    H121759   5.708   1.142   2.770 -0.7485  0.1522  0.9025
 7265TIP3    H221760   5.821   1.242   2.789 -1.0937  0.6910  0.1864
 7266TIP3   OH221761   2.492   5.557   5.607  0.3022 -0.1749 -0.0603
 7266TIP3    H121762   2.511   5.651   5.616 -0.6733  0.2323 -1.7752
 7266TIP3    H221763   2.512   5.520   5.693  1.4545  1.4656  0.4214
 7267TIP3   OH221764   0.160   1.745   4.858  0.2852  0.1783  0.1026
 7267TIP3    H121765   0.121   1.805   4.794 -0.2983 -0.1998  0.0963
 7267TIP3    H221766   0.243   1.786   4.881  0.7222  0.0996 -1.2331
 7268TIP3   OH221767   0.253   6.516   4.752 -0.1556 -0.1788 -0.1164
 7268TIP3    H121768   0.236   6.516   4.658  0.6236 -0.5943 -0.2645
 7268TIP3    H221769   0.178   6.469   4.790 -0.4878  0.0151 -0.5211
 7269TIP3   OH221770   1.793   3.259   0.201 -0.0800  0.0568  0.1642
 7269TIP3    H121771   1.761   3.212   0.278 -0.0906 -0.0201  0.1133
 7269TIP3    H221772   1.828   3.341   0.235  1.4121 -0.6655  0.4545
 7270TIP3   OH221773   1.026   1.030   2.987  0.3142 -0.0618 -0.3710
 7270TIP3    H121774   0.985   1.115   2.997  2.0775  0.7442  0.2984
 7270TIP3    H221775   1.054   1.005   3.075  1.8217 -0.2513 -0.8630
 7271TIP3   OH221776   5.250   4.457   1.223  0.4115  0.1782 -0.5858
 7271TIP3    H121777   5.328   4.512   1.219 -1.2012  2.7021  0.3748
 7271TIP3    H221778   5.180   4.511   1.189 -1.3443 -1.1467  0.7098
 7272TIP3   OH221779   4.608   1.200   4.666  0.8171 -0.3775  0.4660
 7272TIP3    H121780   4.526   1.191   4.618  0.0817 -0.8963  1.7644
 7272TIP3    H221781   4.581   1.211   4.757  2.1972 -0.5986  0.9207
 7273TIP3   OH221782   1.028   4.470   4.168  0.0511  0.6549  0.3580
 7273TIP3    H121783   1.064   4.432   4.249 -0.3353 -0.1087  0.1843
 7273TIP3    H221784   0.940   4.499   4.193  0.4892  1.8132  0.5881
 7274TIP3   OH221785   3.866   3.772   2.044 -0.4815 -0.0135  0.5384
 7274TIP3    H121786   3.794   3.775   2.107 -1.4228 -0.2448 -0.4954
 7274TIP3    H221787   3.844   3.838   1.979 -0.8127 -1.4349 -0.8635
 7275TIP3   OH221788   2.170   1.524   3.740  0.3087 -0.0363  0.3358
 7275TIP3    H121789   2.096   1.531   3.681  0.1470  0.2652  0.5746
 7275TIP3    H221790   2.152   1.587   3.810  0.3965 -0.5360  0.8151
 7276TIP3   OH221791   3.847   0.198   2.179 -0.8293 -0.0803 -0.1138
 7276TIP3    H121792   3.812   0.201   2.090 -2.4276 -0.1365  0.4803
 7276TIP3    H221793   3.942   0.192   2.168 -1.0880 -2.0236 -1.8498
 7277TIP3   OH221794   0.949   5.919   5.857 -0.8754  0.2349 -0.8651
 7277TIP3    H121795   1.021   5.952   5.910 -2.1837  3.3771 -0.7872
 7277TIP3    H221796   0.904   5.856   5.914  1.2983 -1.2275 -0.6723
 7278TIP3   OH221797   5.374   5.385   4.947  0.4469  0.3664 -0.0338
 7278TIP3    H121798   5.336   5.419   5.028 -2.5623  0.0065 -1.1656
 7278TIP3    H221799   5.413   5.302   4.973 -2.9963 -1.2266  0.7411
 7279TIP3   OH221800   3.865   4.628   4.147 -0.4701  0.6767  0.0169
 7279TIP3    H121801   3.786   4.664   4.107  0.1312 -1.5926 -3.6004
 7279TIP3    H221802   3.851   4.534   4.149  2.6151  0.0185 -2.1976
 7280TIP3   OH221803   2.085   4.039   5.447  0.1585  0.1923 -0.0992
 7280TIP3    H121804   2.044   3.978   5.508 -0.2274  1.2868  0.7706
 7280TIP3    H221805   2.179   4.023   5.457  0.0806  0.0266  0.4325
 7281TIP3   OH221806   0.492   6.003   4.283 -0.3650  0.2577  0.3254
 7281TIP3    H121807   0.521   5.914   4.263 -0.2755  0.2391  0.5307
 7281TIP3    H221808   0.533   6.057   4.216 -1.3044  0.0155 -0.4708
 7282TIP3   OH221809   3.566   1.667   3.831 -0.7106  0.3070 -0.2562
 7282TIP3    H121810   3.626   1.653   3.905  0.0845  0.5933 -0.8287
 7282TIP3    H221811   3.624   1.690   3.758 -0.9890 -4.3210 -2.2484
 7283TIP3   OH221812   7.073   6.022   0.322  0.2331 -0.6030 -0.4766
 7283TIP3    H121813   7.027   5.979   0.250  0.4295 -2.4862  0.4531
 7283TIP3    H221814   7.004   6.063   0.374  0.1682  1.6050 -2.1881
 7284TIP3   OH221815   1.205   1.966   4.584  0.2916  0.2742  0.2569
 7284TIP3    H121816   1.233   1.986   4.673 -1.8805 -0.6401  1.1922
 7284TIP3    H221817   1.147   1.890   4.593 -1.5194  1.3293 -1.6799
 7285TIP3   OH221818   5.378   3.998   3.670 -0.3735  0.0401 -0.1583
 7285TIP3    H121819   5.425   4.027   3.592  1.1141  0.5039  0.8754
 7285TIP3    H221820   5.288   3.986   3.640 -0.2157  1.8907 -1.5718
 7286TIP3   OH221821   1.752   3.793   3.602  0.2685 -0.2183 -0.2097
 7286TIP3    H121822   1.670   3.761   3.566  0.1386  0.1533 -0.2520
 7286TIP3    H221823   1.766   3.741   3.681 -1.8780  2.1232  1.8753
 7287TIP3   OH221824   4.839   2.055   2.300  0.0277 -0.0373  0.4493
 7287TIP3    H121825   4.823   1.962   2.284  0.8360 -0.0882 -0.0932
 7287TIP3    H221826   4.857   2.092   2.214  0.8605  0.3914  0.7936
 7288TIP3   OH221827   0.762   0.571   3.479 -0.2946  0.9186 -0.0433
 7288TIP3    H121828   0.774   0.654   3.524  0.4654  0.3675  0.8019
 7288TIP3    H221829   0.846   0.553   3.438  0.2499 -0.4375  1.5554
 7289TIP3   OH221830   2.244   2.480   5.548 -0.5615 -0.0863 -0.4513
 7289TIP3    H121831   2.332   2.444   5.538 -0.7074 -0.4473 -0.4593
 7289TIP3    H221832   2.189   2.404   5.568 -0.5436  0.3687  1.6029
 7290TIP3   OH221833   1.142   6.397   2.549 -0.2057 -0.4457 -0.1009
 7290TIP3    H121834   1.134   6.364   2.460 -1.1782  0.0197 -0.1998
 7290TIP3    H221835   1.130   6.492   2.541  1.8066 -0.1268  0.2692
 7291TIP3   OH221836   2.794   1.476   2.612  0.2805  0.3395  0.3370
 7291TIP3    H121837   2.845   1.413   2.663  0.8763  0.1817 -0.4355
 7291TIP3    H221838   2.859   1.523   2.559 -0.1541  1.6363  0.9216
 7292TIP3   OH221839   3.493   3.264   4.153  0.4094  0.4379 -0.5964
 7292TIP3    H121840   3.451   3.339   4.111 -1.3137 -0.5096 -0.6502
 7292TIP3    H221841   3.545   3.302   4.224  0.9006  1.7941 -1.6296
 7293TIP3   OH221842   6.228   0.131   1.134 -0.3612 -0.0463 -0.0626
 7293TIP3    H121843   6.194   0.147   1.045 -0.7795  1.7430  0.3805
 7293TIP3    H221844   6.153   0.144   1.191 -0.1817 -1.5596  0.5648
 7294TIP3   OH221845   6.963   2.449   3.720 -0.1700 -0.1351 -0.0961
 7294TIP3    H121846   6.930   2.411   3.801 -1.4057  0.3515 -0.3488
 7294TIP3    H221847   7.014   2.379   3.679  0.3106 -0.4353  1.0042
 7295TIP3   OH221848   3.894   0.708   4.174  0.1490  0.2512  0.4161
 7295TIP3    H121849   3.866   0.617   4.159  0.4554  0.2969 -0.4717
 7295TIP3    H221850   3.989   0.706   4.164 -0.0336  1.1046 -2.1440
 7296TIP3   OH221851   4.439   0.463   0.737 -0.1629  0.8201  0.0468
 7296TIP3    H121852   4.427   0.396   0.670  0.2666  1.6013 -0.8259
 7296TIP3    H221853   4.523   0.441   0.777 -0.7766 -0.1022  0.8895
 7297TIP3   OH221854   5.431   6.722   2.580  0.1906  0.6096  0.1540
 7297TIP3    H121855   5.460   6.793   2.637  2.2624 -0.4302  0.4854
 7297TIP3    H221856   5.392   6.767   2.504 -0.8492  2.0232  1.4585
 7298TIP3   OH221857   2.516  -0.011   3.695  0.4800 -0.3262 -0.1117
 7298TIP3    H121858   2.442   0.029   3.741 -0.6432 -0.6448 -1.5829
 7298TIP3    H221859   2.591   0.006   3.752 -0.6424  0.3677  1.2241
 7299TIP3   OH221860   2.350   0.907   1.605 -0.0391  0.4128  0.1154
 7299TIP3    H121861   2.295   0.985   1.595 -0.0887  0.4959  0.9299
 7299TIP3    H221862   2.385   0.914   1.694 -0.8613 -1.0069  0.5848
 7300TIP3   OH221863   6.475   2.914   2.968  0.0666 -0.3688  0.4952
 7300TIP3    H121864   6.406   2.852   2.991 -1.2475  0.9656  0.2694
 7300TIP3    H221865   6.461   2.988   3.026  0.6117  0.3887 -0.3196
 7301TIP3   OH221866   2.575   2.886   0.837  0.2065  0.3030 -0.1889
 7301TIP3    H121867   2.566   2.866   0.744 -0.6544 -0.3116  0.0200
 7301TIP3    H221868   2.486   2.897   0.869  0.5329  1.8084  0.3067
 7302TIP3   OH221869   5.568   5.599   2.080  0.2955 -0.3765  0.1653
 7302TIP3    H121870   5.523   5.515   2.074 -0.5490 -0.0918  1.9190
 7302TIP3    H221871   5.652   5.580   2.122  0.1157 -0.3616  0.5360
 7303TIP3   OH221872   2.477   1.192   1.293  0.0928 -0.2805  0.0644
 7303TIP3    H121873   2.460   1.264   1.354  0.0652  0.7001 -1.0671
 7303TIP3    H221874   2.551   1.144   1.332 -0.3963 -0.1240  1.2261
 7304TIP3   OH221875   4.718   2.156   2.529 -0.3187 -0.4826 -0.0162
 7304TIP3    H121876   4.690   2.092   2.594 -2.0743  0.7813  0.5671
 7304TIP3    H221877   4.754   2.104   2.457 -2.1288 -2.1619  0.2036
 7305TIP3   OH221878   3.330   2.460   0.175  0.0910 -0.0346  0.5334
 7305TIP3    H121879   3.354   2.392   0.112  0.1068 -0.2382  0.7553
 7305TIP3    H221880   3.235   2.464   0.171  0.0461 -0.5012  0.9551
 7306TIP3   OH221881   0.564   5.787   4.831 -0.6902 -0.0831  0.4388
 7306TIP3    H121882   0.527   5.809   4.916 -2.6122 -0.4355 -0.2555
 7306TIP3    H221883   0.640   5.845   4.822 -0.9441  0.5470  2.0223
 7307TIP3   OH221884   2.341   3.266   3.772 -0.0974  0.3761  0.7769
 7307TIP3    H121885   2.347   3.196   3.838 -2.1596  0.0416  0.6705
 7307TIP3    H221886   2.331   3.219   3.689  1.1012  0.8162  0.3587
 7308TIP3   OH221887   7.007   4.488   3.456  0.1981 -0.0186 -0.2045
 7308TIP3    H121888   6.934   4.497   3.395 -0.9913  2.3363  1.3841
 7308TIP3    H221889   6.986   4.410   3.508 -0.8928  0.2832 -0.1732
 7309TIP3   OH221890   1.287   3.840   0.439  0.0358  0.4760 -0.7970
 7309TIP3    H121891   1.226   3.781   0.394  0.7530  0.0870 -1.2648
 7309TIP3    H221892   1.323   3.788   0.510  0.5228  0.4066 -1.0905
 7310TIP3   OH221893   6.308   6.682   1.757  0.0393 -0.1983  0.7695
 7310TIP3    H121894   6.370   6.747   1.724 -1.0502  0.0857 -0.8794
 7310TIP3    H221895   6.294   6.706   1.848  1.7140  0.2129  0.9444
 7311TIP3   OH221896   2.210   6.534   1.125  0.3718  0.3435  0.4658
 7311TIP3    H121897   2.226   6.491   1.041  0.3885  1.0917  0.0776
 7311TIP3    H221898   2.125   6.575   1.116  0.1240 -0.0295  1.0189
 7312TIP3   OH221899   0.649   6.348   3.233  0.1829  0.0644 -0.4051
 7312TIP3    H121900   0.566   6.372   3.272  0.9962  0.2391  1.3082
 7312TIP3    H221901   0.696   6.300   3.302  1.8780  0.8191 -0.9723
 7313TIP3   OH221902   7.098   3.083   1.775  0.7084  0.0588 -0.3446
 7313TIP3    H121903   7.052   3.014   1.824  2.3728 -0.3459  0.7235
 7313TIP3    H221904   7.112   3.045   1.689 -0.9894  0.2235 -0.7289
 7314TIP3   OH221905   4.994   5.899   1.484  0.3985 -0.2774  0.1797
 7314TIP3    H121906   5.034   5.916   1.569  1.7124  0.7966 -0.6315
 7314TIP3    H221907   5.053   5.837   1.441 -0.4647 -1.1280  0.1722
 7315TIP3   OH221908   5.095   2.311   4.615  0.1052  0.3976 -0.0753
 7315TIP3    H121909   5.135   2.271   4.692 -1.7486  1.3804  1.4740
 7315TIP3    H221910   5.048   2.240   4.572 -1.0425  0.3547  1.2133
 7316TIP3   OH221911   5.066   4.410   2.881  0.0802  0.2937  0.5727
 7316TIP3    H121912   5.146   4.390   2.930  0.4280 -1.3356 -0.5807
 7316TIP3    H221913   5.023   4.325   2.869 -0.9313  0.9094 -0.3497
 7317TIP3   OH221914   4.889   1.238   4.625 -0.5328  0.4069  0.1731
 7317TIP3    H121915   4.921   1.315   4.671  0.1296  2.1404 -2.9118
 7317TIP3    H221916   4.800   1.261   4.599 -1.4048 -1.0900  1.6265
 7318TIP3   OH221917   3.711   0.292   0.627 -0.0551 -0.0836  0.1229
 7318TIP3    H121918   3.651   0.351   0.671  1.3942  2.0655 -0.6468
 7318TIP3    H221919   3.786   0.346   0.603  1.0118 -2.0550 -1.3502
 7319TIP3   OH221920   6.411   1.261   0.418  0.4189  0.0800 -0.0119
 7319TIP3    H121921   6.446   1.175   0.440 -0.9362 -0.8428 -1.2494
 7319TIP3    H221922   6.342   1.243   0.354  0.4132  2.1325 -0.6540
 7320TIP3   OH221923   5.678   1.598   3.774  0.7131  0.6149  0.1171
 7320TIP3    H121924   5.610   1.551   3.724  0.6713 -1.1942  1.7345
 7320TIP3    H221925   5.749   1.611   3.712  1.2125 -2.7476 -0.2045
 7321TIP3   OH221926   0.153   5.587   4.554 -0.2210 -0.0963 -0.0299
 7321TIP3    H121927   0.204   5.668   4.561  0.0601 -0.3979  2.1390
 7321TIP3    H221928   0.205   5.531   4.497  0.6512  0.4851  0.1671
 7322TIP3   OH221929   5.084   6.471   3.417 -0.2438 -0.2609 -0.8527
 7322TIP3    H121930   5.038   6.394   3.451 -0.5462 -0.6099 -2.0271
 7322TIP3    H221931   5.160   6.481   3.474 -1.2948 -0.1925  0.5918
 7323TIP3   OH221932   2.143   1.901   5.398 -0.0390  0.5094 -0.1061
 7323TIP3    H121933   2.229   1.935   5.377 -0.2260  1.5124  0.6561
 7323TIP3    H221934   2.087   1.929   5.325  0.5447 -1.4009 -1.3368
 7324TIP3   OH221935   6.757   2.212   3.247 -0.2475 -0.6110  0.0166
 7324TIP3    H121936   6.802   2.291   3.277  0.7178 -1.0560 -0.2127
 7324TIP3    H221937   6.820   2.170   3.188 -1.4497 -0.6227 -1.2815
 7325TIP3   OH221938   5.717   1.019   3.498 -0.1116 -0.1714 -0.5075
 7325TIP3    H121939   5.671   1.059   3.424 -0.5754 -1.6012 -1.0321
 7325TIP3    H221940   5.778   1.086   3.528 -0.3311  0.6442 -1.8185
 7326TIP3   OH221941   6.365   0.107   4.283  0.2516 -0.1537  0.3640
 7326TIP3    H121942   6.306   0.050   4.332  0.5440 -1.2429 -0.4950
 7326TIP3    H221943   6.426   0.046   4.240  1.3960  0.8910  0.4679
 7327TIP3   OH221944   1.709   5.695   2.838  0.4095  0.6500 -0.0349
 7327TIP3    H121945   1.670   5.654   2.915  0.8042 -0.0735 -0.2112
 7327TIP3    H221946   1.651   5.769   2.818  0.2935  0.8241  0.9296
 7328TIP3   OH221947   5.741   0.133   1.425  0.6092 -0.2425 -0.7495
 7328TIP3    H121948   5.646   0.129   1.422  0.6248 -0.9553 -0.4741
 7328TIP3    H221949   5.761   0.196   1.494  0.3324 -1.2252  0.2598
 7329TIP3   OH221950   6.503   4.577   2.969 -0.7046  0.3957 -0.0420
 7329TIP3    H121951   6.471   4.492   2.999  0.9041 -1.0443 -2.1186
 7329TIP3    H221952   6.457   4.641   3.024 -1.9413 -1.7875  1.6170
 7330TIP3   OH221953   2.648   4.773   3.078 -0.2945 -0.6661  0.2650
 7330TIP3    H121954   2.638   4.680   3.057  1.6134 -1.2555  1.6223
 7330TIP3    H221955   2.718   4.775   3.144  0.6568  1.8562 -0.7009
 7331TIP3   OH221956   2.947   0.232   4.015  0.2814  0.2438 -0.0605
 7331TIP3    H121957   2.995   0.311   4.037 -1.0203  0.9535  0.3323
 7331TIP3    H221958   3.013   0.173   3.980  1.6235  0.7821  1.4252
 7332TIP3   OH221959   0.844   1.816   0.148 -0.4703 -0.2302  0.2404
 7332TIP3    H121960   0.762   1.770   0.131 -1.2550  0.7239  1.2914
 7332TIP3    H221961   0.905   1.746   0.174 -1.3300 -0.8071  0.7686
 7333TIP3   OH221962   4.086   1.874   0.885 -0.4484 -0.4963 -0.6839
 7333TIP3    H121963   4.085   1.811   0.957 -1.0324  1.3667  1.0240
 7333TIP3    H221964   4.129   1.951   0.921 -3.0229  1.4360 -1.4533
 7334TIP3   OH221965   1.923   1.858   2.881 -0.6896  0.1937 -0.0590
 7334TIP3    H121966   1.941   1.929   2.943  0.6515 -0.3085  0.1643
 7334TIP3    H221967   1.986   1.872   2.810  0.9410 -1.8211  0.8850
 7335TIP3   OH221968   5.484   1.421   3.969  0.3923 -0.2581  0.2053
 7335TIP3    H121969   5.501   1.414   3.875 -0.3727 -0.4460  0.0743
 7335TIP3    H221970   5.497   1.333   4.003 -1.1961 -0.6103 -0.0543
 7336TIP3   OH221971   6.880   6.054   2.774  0.0796  0.2906  0.2122
 7336TIP3    H121972   6.858   5.998   2.849 -0.6613  1.8861  1.2378
 7336TIP3    H221973   6.897   6.140   2.813  2.1818  0.5758 -1.2117
 7337TIP3   OH221974   4.675   1.294   1.998  0.2235  0.7812 -0.3637
 7337TIP3    H121975   4.587   1.331   1.992 -0.1342 -0.2542 -3.3854
 7337TIP3    H221976   4.662   1.206   2.034  0.1604  0.9655  0.0703
 7338TIP3   OH221977   1.416   6.266   4.756 -0.3766 -0.0994  0.0068
 7338TIP3    H121978   1.382   6.347   4.719 -1.0449  1.7984  4.1768
 7338TIP3    H221979   1.507   6.263   4.727 -1.0205  0.6902 -2.3110
 7339TIP3   OH221980   6.020   3.281   1.113 -0.9298 -0.0385  0.1666
 7339TIP3    H121981   5.926   3.299   1.107 -1.0769 -0.8455 -0.0285
 7339TIP3    H221982   6.060   3.340   1.049 -1.2109  0.9163  0.8432
 7340TIP3   OH221983   5.707   0.974   1.415  0.4879  0.4599 -1.0464
 7340TIP3    H121984   5.677   1.063   1.399 -0.7878  0.3510  0.4239
 7340TIP3    H221985   5.798   0.983   1.443  0.8338  1.1399 -2.3435
 7341TIP3   OH221986   1.031   1.736   3.149  0.6916 -0.1142  0.1573
 7341TIP3    H121987   0.974   1.687   3.208  0.1529  0.0830 -0.2018
 7341TIP3    H221988   0.983   1.816   3.128 -0.1739 -1.2163 -2.4192
 7342TIP3   OH221989   1.773   0.318   1.889  0.1112  0.2755 -0.2159
 7342TIP3    H121990   1.850   0.376   1.886 -0.1173  0.5248 -2.1990
 7342TIP3    H221991   1.712   0.355   1.825 -0.3874 -1.6868 -0.9395
 7343TIP3   OH221992   2.788   3.656   1.420  0.4869 -0.0206 -0.6315
 7343TIP3    H121993   2.846   3.730   1.404 -0.8153  0.8080 -1.7733
 7343TIP3    H221994   2.840   3.579   1.397  1.6675  0.5537  0.0155
 7344TIP3   OH221995   1.697   5.243   3.215  0.1602 -0.0763 -0.3375
 7344TIP3    H121996   1.736   5.172   3.267  2.0153  0.3865 -1.0412
 7344TIP3    H221997   1.618   5.267   3.263  0.0137 -1.9536  0.4384
 7345TIP3   OH221998   3.723   5.980   5.378  0.1095  0.2211  0.2405
 7345TIP3    H121999   3.705   6.073   5.367  0.0334  0.0440 -1.3802
 7345TIP3    H222000   3.637   5.938   5.376  0.2634 -0.1759 -2.7287
 7346TIP3   OH222001   3.011   6.679   2.826 -0.6732 -0.0399 -0.4694
 7346TIP3    H122002   3.066   6.656   2.751 -1.2451  0.3662 -1.0193
 7346TIP3    H222003   3.050   6.759   2.860 -1.1001  0.4291 -1.0574
 7347TIP3   OH222004   2.597   6.072   2.656  0.3803 -0.0597 -0.2196
 7347TIP3    H122005   2.603   6.099   2.748  0.0652 -0.7704  0.0177
 7347TIP3    H222006   2.509   6.096   2.629  0.7376  0.8771 -0.5821
 7348TIP3   OH222007   4.576   0.052   5.209  0.0783 -0.4142 -0.3262
 7348TIP3    H122008   4.507   0.024   5.148 -0.4510 -1.9614  0.9417
 7348TIP3    H222009   4.648  -0.008   5.192  0.7650  0.5355 -0.9017
 7349TIP3   OH222010   3.159   1.395   4.412  0.0044 -0.1737  0.2234
 7349TIP3    H122011   3.228   1.461   4.410 -0.0219  0.2272  3.9438
 7349TIP3    H222012   3.080   1.441   4.383  0.4404  0.7661  0.5100
 7350TIP3   OH222013   5.025   2.051   0.781 -0.4865 -0.1847  0.9220
 7350TIP3    H122014   5.097   2.009   0.829  0.2767  0.6666  0.5458
 7350TIP3    H222015   5.042   2.030   0.689 -1.3709 -0.9358  0.9125
 7351TIP3   OH222016   2.540   6.550   4.144 -0.0571 -0.3562 -0.3095
 7351TIP3    H122017   2.503   6.607   4.077  1.1758 -0.3248 -0.9916
 7351TIP3    H222018   2.573   6.610   4.211  0.8041 -0.2850 -0.7944
 7352TIP3   OH222019   4.505   5.793   5.682 -0.0678 -0.3678 -0.2631
 7352TIP3    H122020   4.511   5.888   5.683  0.8917 -0.4166  0.7819
 7352TIP3    H222021   4.592   5.764   5.654 -0.4819 -0.9382 -0.9919
 7353TIP3   OH222022   6.995   4.817   2.539  0.0148 -0.2697 -0.3398
 7353TIP3    H122023   6.941   4.894   2.555  0.7011  0.4451 -1.3246
 7353TIP3    H222024   7.063   4.848   2.479  1.6941 -1.0580  1.0827
 7354TIP3   OH222025   5.182   6.684   5.331  0.9048 -0.4669 -0.1327
 7354TIP3    H122026   5.244   6.754   5.349  0.5195  0.4069 -2.0026
 7354TIP3    H222027   5.100   6.715   5.369  0.9161 -0.2554 -0.2790
 7355TIP3   OH222028   3.864   3.992   2.878 -0.3830 -0.1319 -0.6072
 7355TIP3    H122029   3.917   4.072   2.884 -0.2201 -0.3031  0.4059
 7355TIP3    H222030   3.919   3.931   2.829  0.6166 -0.4886  0.8999
 7356TIP3   OH222031   4.209   3.814   1.599 -0.6689 -0.1099 -0.7908
 7356TIP3    H122032   4.297   3.804   1.635 -0.7280  0.4316 -0.4885
 7356TIP3    H222033   4.171   3.887   1.647 -0.6843  0.7535 -2.0671
 7357TIP3   OH222034   4.449   2.556   2.155  0.1420 -0.7402  0.7274
 7357TIP3    H122035   4.441   2.497   2.080  1.0206  1.6138 -1.3782
 7357TIP3    H222036   4.541   2.547   2.182  0.0496 -0.9673  0.9647
 7358TIP3   OH222037   0.963   0.068   2.631 -0.4039 -0.0040 -0.1297
 7358TIP3    H122038   0.981   0.065   2.537 -0.0993 -0.1245 -0.0671
 7358TIP3    H222039   1.008  -0.009   2.666  0.0524  0.4242  0.2166
 7359TIP3   OH222040   5.732   6.262   5.461 -0.4535  0.3678  0.1249
 7359TIP3    H122041   5.692   6.175   5.461 -0.4634  0.2833 -2.4980
 7359TIP3    H222042   5.794   6.261   5.534  0.0261 -2.0902 -0.2463
 7360TIP3   OH222043   3.435   0.515   2.124  0.0290  0.0798  0.4048
 7360TIP3    H122044   3.371   0.517   2.195 -0.1292  2.0918  0.2739
 7360TIP3    H222045   3.472   0.427   2.127 -2.7621 -1.1708  0.4438
 7361TIP3   OH222046   2.805   1.566   1.045 -0.2018 -0.1788 -0.1901
 7361TIP3    H122047   2.804   1.532   0.955  0.0588 -0.3348 -0.1356
 7361TIP3    H222048   2.733   1.521   1.088 -0.8238  0.4778 -0.5304
 7362TIP3   OH222049   4.968   3.766   3.661 -0.6438 -0.1096  0.2346
 7362TIP3    H122050   5.025   3.690   3.672  0.4183  0.4309 -1.1524
 7362TIP3    H222051   4.938   3.787   3.749  0.4220 -1.0858  0.8599
 7363TIP3   OH222052   3.566   4.707   2.769  0.5382  0.0829 -0.3778
 7363TIP3    H122053   3.633   4.716   2.837  0.3966  2.4030 -0.4411
 7363TIP3    H222054   3.483   4.725   2.814  0.0869 -1.4086 -0.5742
 7364TIP3   OH222055   1.441   2.229   4.204  0.1454  0.9697  0.0800
 7364TIP3    H122056   1.372   2.170   4.236  0.6186  0.5243  0.2886
 7364TIP3    H222057   1.411   2.316   4.228  0.9311  0.5982  2.6317
 7365TIP3   OH222058   6.967   4.756   5.088 -0.2975 -0.0585 -0.1153
 7365TIP3    H122059   6.974   4.784   4.997  0.5388  1.3103  0.3264
 7365TIP3    H222060   7.039   4.694   5.100  0.4894  0.8349 -0.0527
 7366TIP3   OH222061   1.799   3.892   2.481  0.5704  0.2632  0.0214
 7366TIP3    H122062   1.719   3.891   2.428  0.6271 -1.3390 -0.0948
 7366TIP3    H222063   1.830   3.982   2.477 -0.3438  0.5420 -1.2744
 7367TIP3   OH222064   3.048   0.942   2.079  0.0414  0.0023  0.5955
 7367TIP3    H122065   3.022   1.001   2.150 -0.7936 -0.2905  0.5433
 7367TIP3    H222066   2.976   0.880   2.072  1.1517 -1.3956  1.0418
 7368TIP3   OH222067   6.959   5.997   2.080  0.0698  0.0193  0.3742
 7368TIP3    H122068   6.998   5.947   2.008  0.9529 -1.0131  1.5415
 7368TIP3    H222069   6.895   5.937   2.118  0.7239 -0.0318  1.4228
 7369TIP3   OH222070   6.533   0.482   3.067  0.6040  0.2399 -0.5208
 7369TIP3    H122071   6.444   0.519   3.067  0.4864 -0.0103  0.6622
 7369TIP3    H222072   6.561   0.485   3.158  1.2888 -0.9473 -0.6634
 7370TIP3   OH222073   4.886   3.690   0.577  0.0832  0.0028 -0.5238
 7370TIP3    H122074   4.932   3.684   0.493  0.2613 -0.8015 -0.3697
 7370TIP3    H222075   4.947   3.653   0.640  0.5270  1.8440  0.2095
 7371TIP3   OH222076   3.973   0.401   0.609  0.2075 -0.1765 -0.2068
 7371TIP3    H122077   3.934   0.488   0.619 -1.5575 -1.1839  3.6517
 7371TIP3    H222078   4.043   0.399   0.674  1.1456 -1.2317 -1.2188
 7372TIP3   OH222079   0.637   2.784   1.345 -0.4552 -0.0240  0.1605
 7372TIP3    H122080   0.626   2.832   1.428 -0.5458  0.8320 -0.3395
 7372TIP3    H222081   0.548   2.771   1.313 -0.3826  3.2334 -1.8025
 7373TIP3   OH222082   5.116   3.286   3.937  0.8100 -0.1851  0.3527
 7373TIP3    H122083   5.049   3.226   3.905  0.3537 -0.0085  0.9611
 7373TIP3    H222084   5.120   3.270   4.031  0.6485  0.7657  0.5313
 7374TIP3   OH222085   4.338   3.140   4.484 -0.1015  0.2058  0.1823
 7374TIP3    H122086   4.272   3.074   4.505 -0.6061  0.7202  0.2484
 7374TIP3    H222087   4.315   3.171   4.397 -2.2068  2.9834  1.5660
 7375TIP3   OH222088   5.176   1.459   4.645 -0.2784  0.4523  0.5012
 7375TIP3    H122089   5.102   1.466   4.706 -0.1940  1.1360  0.5333
 7375TIP3    H222090   5.233   1.393   4.684 -1.2335 -0.6515  0.0813
 7376TIP3   OH222091   0.653   6.512   4.318 -0.0775 -0.6722  0.6472
 7376TIP3    H122092   0.572   6.551   4.284 -0.1356  0.2042  1.7542
 7376TIP3    H222093   0.634   6.493   4.410  0.9725 -0.4643  0.9177
 7377TIP3   OH222094   1.874   4.185   2.522 -0.4075 -0.2891  0.2507
 7377TIP3    H122095   1.945   4.186   2.587 -0.8112 -0.1727  0.6899
 7377TIP3    H222096   1.909   4.236   2.449 -0.3631  0.5203  0.8179
 7378TIP3   OH222097   0.924   0.441   4.318 -0.3715 -0.6670  0.1129
 7378TIP3    H122098   0.882   0.415   4.236 -2.2157 -0.0773  0.8296
 7378TIP3    H222099   0.928   0.360   4.369 -0.3552 -0.7812 -0.0666
 7379TIP3   OH222100   0.763   3.837   2.282 -0.6361 -0.5601  0.7475
 7379TIP3    H122101   0.789   3.900   2.349 -0.2777 -0.5059  0.5605
 7379TIP3    H222102   0.828   3.847   2.213 -2.3380  1.1592 -0.7618
 7380TIP3   OH222103   0.925   2.599   3.976 -0.1268  0.0051  0.1523
 7380TIP3    H122104   0.941   2.519   4.026  0.9531  0.1719  0.0882
 7380TIP3    H222105   0.932   2.669   4.039 -1.4071  0.0515  0.2756
 7381TIP3   OH222106   6.182   4.974   4.554  0.0296  0.4967  0.6389
 7381TIP3    H122107   6.253   4.915   4.529 -2.2030 -0.9473 -3.0512
 7381TIP3    H222108   6.194   5.050   4.496 -1.1969  0.3990  0.2472
 7382TIP3   OH222109   4.152   6.378   3.196  0.4628  0.0972  0.6102
 7382TIP3    H122110   4.087   6.389   3.127  0.3768  1.1107  0.8250
 7382TIP3    H222111   4.101   6.363   3.276  0.5843 -1.9843  0.3294
 7383TIP3   OH222112   6.824   3.605   5.445 -0.3777 -0.3539  0.3254
 7383TIP3    H122113   6.741   3.652   5.450 -0.5167 -0.2542 -2.0178
 7383TIP3    H222114   6.848   3.608   5.353  2.4644 -0.0307  1.0088
 7384TIP3   OH222115   6.933   6.106   3.465 -0.2377  0.5644  0.5183
 7384TIP3    H122116   6.879   6.134   3.391  0.1747 -2.8083 -1.2764
 7384TIP3    H222117   7.018   6.084   3.426  0.3018 -0.4129  2.1264
 7385TIP3   OH222118   3.294   5.589   5.065  0.4466  0.5908 -0.4338
 7385TIP3    H122119   3.360   5.571   4.998 -0.5423  1.4774 -1.7051
 7385TIP3    H222120   3.249   5.667   5.034  1.0864  2.0982  2.1985
 7386TIP3   OH222121   1.037   6.226   2.757 -0.3800 -0.1313 -0.1360
 7386TIP3    H122122   1.071   6.138   2.742 -2.2290 -0.9641  0.3227
 7386TIP3    H222123   1.046   6.269   2.672 -1.7221 -1.5919 -1.0711
 7387TIP3   OH222124   6.998   5.430   3.792 -0.0161 -0.3803  0.5458
 7387TIP3    H122125   7.050   5.500   3.751  0.1851 -1.0095 -0.2878
 7387TIP3    H222126   6.963   5.380   3.719 -0.7566 -0.7297  1.1303
 7388TIP3   OH222127   3.811   1.012   4.706 -0.1844 -0.4422  0.5122
 7388TIP3    H122128   3.832   1.020   4.799 -1.4690  2.0277  0.6578
 7388TIP3    H222129   3.721   0.980   4.703 -0.0538 -0.7873  0.1009
 7389TIP3   OH222130   7.020   2.623   3.100 -0.7407 -0.0277 -0.5885
 7389TIP3    H122131   7.091   2.684   3.078 -0.0621 -0.9674 -1.0655
 7389TIP3    H222132   7.042   2.542   3.053 -1.4832 -0.7307  0.2394
 7390TIP3   OH222133   5.800   5.527   2.303  0.4122 -0.5291 -0.0402
 7390TIP3    H122134   5.833   5.527   2.213 -0.1160 -0.2709 -0.2375
 7390TIP3    H222135   5.876   5.504   2.356  0.7524 -0.5874 -0.5440
 7391TIP3   OH222136   6.372   3.553   2.512  0.4255  0.2753  0.2216
 7391TIP3    H122137   6.340   3.466   2.534  1.3310 -0.1728 -0.1981
 7391TIP3    H222138   6.430   3.540   2.437  0.0615  1.3290 -0.2727
 7392TIP3   OH222139   4.992   6.004   1.222  0.5455 -0.3597 -0.2838
 7392TIP3    H122140   5.037   6.088   1.224 -0.8945  0.4533 -0.7592
 7392TIP3    H222141   4.968   5.987   1.313 -1.8813  1.3097 -0.5432
 7393TIP3   OH222142   5.737   6.048   2.126  0.1623 -0.0186  0.0437
 7393TIP3    H122143   5.769   5.973   2.177  3.1109  1.0241 -0.1152
 7393TIP3    H222144   5.799   6.118   2.144 -1.2336  1.7524 -1.5847
 7394TIP3   OH222145   5.867   5.334   3.340  0.2079  0.2143  0.1205
 7394TIP3    H122146   5.788   5.379   3.311 -0.3054 -1.0554 -0.5083
 7394TIP3    H222147   5.845   5.241   3.337  1.4536 -0.1326  0.7504
 7395TIP3   OH222148   2.120   4.411   3.115  0.3689  0.2441  0.1835
 7395TIP3    H122149   2.165   4.342   3.163 -0.1341  0.5036  1.0422
 7395TIP3    H222150   2.057   4.448   3.177  1.9413  2.7978  0.4210
 7396TIP3   OH222151   0.594   4.739   1.934  0.0309 -0.7523 -0.9668
 7396TIP3    H122152   0.659   4.762   1.866 -0.9544  2.5934 -0.9617
 7396TIP3    H222153   0.628   4.781   2.013 -0.3847 -2.0243 -0.1016
 7397TIP3   OH222154   2.793   5.137   2.593 -0.4047 -0.4819 -0.5915
 7397TIP3    H122155   2.878   5.174   2.568  0.7547  0.9022  4.4000
 7397TIP3    H222156   2.813   5.048   2.621  0.0848  0.5217  2.7089
 7398TIP3   OH222157   0.463   2.090   0.093  0.3089  0.1322 -0.2431
 7398TIP3    H122158   0.469   2.092  -0.003 -3.1446 -1.0799 -0.6276
 7398TIP3    H222159   0.410   2.167   0.115 -1.9603 -1.4457  0.2148
 7399TIP3   OH222160   7.063   6.337   4.956  0.4152  0.6072 -0.3589
 7399TIP3    H122161   7.118   6.346   5.033  1.0475 -1.4564 -0.5240
 7399TIP3    H222162   6.976   6.315   4.990  0.3087  1.2387 -0.2041
 7400TIP3   OH222163   5.889   0.121   0.200 -0.4942  0.6241 -0.3970
 7400TIP3    H122164   5.802   0.097   0.232  0.8110 -0.8445  2.4091
 7400TIP3    H222165   5.935   0.038   0.192  1.3322  1.5118  0.3917
 7401TIP3   OH222166   5.015   2.598   4.911  0.3787 -0.1409 -0.0534
 7401TIP3    H122167   5.078   2.613   4.982 -0.0873  0.9855  0.1562
 7401TIP3    H222168   5.062   2.546   4.847  1.4617  0.5167  0.1876
 7402TIP3   OH222169   6.683   2.218   2.876 -0.3248  1.0070 -0.2072
 7402TIP3    H122170   6.641   2.304   2.870 -0.1625  1.1639  0.7235
 7402TIP3    H222171   6.769   2.230   2.837  0.0576  1.5211  0.7745
 7403TIP3   OH222172   6.694   1.871   0.316  0.1248  0.1289 -0.2824
 7403TIP3    H122173   6.719   1.944   0.260 -0.3683 -0.9816 -2.0262
 7403TIP3    H222174   6.612   1.839   0.279 -0.5957 -0.2131  1.5224
 7404TIP3   OH222175   6.433   4.300   2.705 -0.3163 -0.0255 -0.5588
 7404TIP3    H122176   6.515   4.348   2.689 -0.8921  0.6943 -1.4456
 7404TIP3    H222177   6.368   4.368   2.721 -0.7689 -0.5901  0.0548
 7405TIP3   OH222178   2.866   3.248   5.444  0.0362  0.7462  0.5112
 7405TIP3    H122179   2.905   3.186   5.507  0.0645 -0.4933 -0.6757
 7405TIP3    H222180   2.921   3.240   5.366  0.0396  2.3124  0.3345
 7406TIP3   OH222181   6.859   5.533   2.340 -0.4102  0.2325  0.8563
 7406TIP3    H122182   6.914   5.488   2.405  0.3778  1.3294  0.9804
 7406TIP3    H222183   6.770   5.525   2.375 -0.2508 -0.9279  1.0372
 7407TIP3   OH222184   0.164   0.245   1.489 -0.1747  0.2033  0.0083
 7407TIP3    H122185   0.120   0.329   1.500  1.3896  0.9918  0.6257
 7407TIP3    H222186   0.240   0.251   1.546  1.6437 -0.4258 -2.2055
 7408TIP3   OH222187   1.285   2.029   4.292 -0.0227  0.2790  0.1236
 7408TIP3    H122188   1.198   2.034   4.252 -0.7726 -0.2593  1.6050
 7408TIP3    H222189   1.286   1.943   4.335  1.4967  0.0085 -0.4141
 7409TIP3   OH222190   0.895   5.926   3.617  0.2673 -0.7637 -0.6017
 7409TIP3    H122191   0.936   5.846   3.583  0.9624 -0.9585  0.6448
 7409TIP3    H222192   0.919   5.928   3.710 -1.3428 -0.1097 -0.1582
 7410TIP3   OH222193   1.516   5.924   2.924  0.1203  0.1766 -0.2354
 7410TIP3    H122194   1.543   5.966   3.006  1.4371  0.6662 -0.8892
 7410TIP3    H222195   1.546   5.984   2.856 -0.7584 -0.3367 -1.0900
 7411TIP3   OH222196   5.821   2.167   0.479  0.0243 -0.3408 -0.5321
 7411TIP3    H122197   5.735   2.163   0.437  1.2676  1.4517 -3.5737
 7411TIP3    H222198   5.828   2.258   0.510  1.2319 -0.1464 -1.3374
 7412TIP3   OH222199   6.039   2.528   2.303 -0.5967 -0.0695 -0.3811
 7412TIP3    H122200   5.985   2.563   2.374 -0.2467  0.1001 -0.1949
 7412TIP3    H222201   6.053   2.602   2.244 -1.3123 -0.3361 -0.8981
 7413TIP3   OH222202   0.416   6.773   4.164 -0.8818  0.3004  0.0948
 7413TIP3    H122203   0.454   6.711   4.102 -0.2135  0.6013  0.1942
 7413TIP3    H222204   0.388   6.847   4.110  0.1454  0.7762  0.1929
 7414TIP3   OH222205   1.821   5.433   1.434 -0.3048 -0.3416 -0.0952
 7414TIP3    H122206   1.903   5.405   1.474 -0.4220 -0.5785 -0.0186
 7414TIP3    H222207   1.767   5.463   1.508 -0.3448 -0.3342 -0.1270
 7415TIP3   OH222208   4.712   5.981   0.358  0.1060  0.0569 -0.4067
 7415TIP3    H122209   4.807   5.992   0.364  0.2699 -0.9730 -0.8628
 7415TIP3    H222210   4.701   5.896   0.317 -1.0411 -0.3914  0.7921
 7416TIP3   OH222211   4.203   2.729   4.276 -0.6076  0.2945  0.2915
 7416TIP3    H122212   4.218   2.653   4.220 -1.5428  1.3933 -1.5703
 7416TIP3    H222213   4.291   2.754   4.306 -0.0626 -0.3663 -0.6695
 7417TIP3   OH222214   2.321   5.699   4.251 -0.4654  0.7488 -0.0255
 7417TIP3    H122215   2.352   5.629   4.194  0.2461 -0.2346  1.5164
 7417TIP3    H222216   2.385   5.769   4.240  1.1068 -0.3967  1.4211
 7418TIP3   OH222217   0.929   4.848   2.922 -0.1976 -0.7173 -0.3875
 7418TIP3    H122218   0.961   4.848   2.832  0.2441  0.2527 -0.2462
 7418TIP3    H222219   0.840   4.813   2.916 -0.6687  0.5527 -1.4075
 7419TIP3   OH222220   4.887   1.651   5.284  0.2266 -0.2185  0.4076
 7419TIP3    H122221   4.975   1.621   5.262  0.8887  0.0307  2.4523
 7419TIP3    H222222   4.868   1.720   5.221  0.8758 -1.2664 -0.9751
 7420TIP3   OH222223   6.714   5.542   2.688 -0.5596  0.0983  0.2029
 7420TIP3    H122224   6.767   5.462   2.688 -0.9914 -0.3885 -3.5088
 7420TIP3    H222225   6.777   5.613   2.676 -0.4730 -0.2846 -2.0184
 7421TIP3   OH222226   6.462   2.301   3.902  0.1859  0.1200  0.2753
 7421TIP3    H122227   6.468   2.365   3.831  1.5817 -0.9906 -0.6670
 7421TIP3    H222228   6.368   2.288   3.915 -0.1095  2.0956  0.2762
 7422TIP3   OH222229   4.955   6.720   0.576 -0.2700 -0.3192  0.3052
 7422TIP3    H122230   4.918   6.714   0.665  0.5055  0.3451  0.6869
 7422TIP3    H222231   4.886   6.760   0.524 -0.0889  1.0008  1.0328
 7423TIP3   OH222232   6.917   2.514   5.837 -0.6070  0.1688 -0.7759
 7423TIP3    H122233   6.888   2.433   5.796  1.1907 -0.2600 -1.2740
 7423TIP3    H222234   7.005   2.495   5.870 -0.4863  1.6611 -0.1446
 7424TIP3   OH222235   6.009   5.288   0.165  0.2419  0.0522 -0.7979
 7424TIP3    H122236   5.980   5.282   0.255 -1.2247  1.0318 -1.1757
 7424TIP3    H222237   6.091   5.338   0.169 -0.4810  1.2226 -0.1218
 7425TIP3   OH222238   1.342   1.608   0.847 -0.2065 -0.5404  0.2261
 7425TIP3    H122239   1.357   1.665   0.922 -0.2685 -0.2561  0.0255
 7425TIP3    H222240   1.318   1.668   0.776  0.1160 -0.7826 -0.0882
 7426TIP3   OH222241   1.198   2.596   1.684  0.6282 -0.2958 -0.2465
 7426TIP3    H122242   1.125   2.648   1.650  0.7074 -0.7483 -1.1327
 7426TIP3    H222243   1.260   2.661   1.717  0.4136  0.1464 -0.7012
 7427TIP3   OH222244   2.430   4.208   5.310  0.5779  0.2730  0.6166
 7427TIP3    H122245   2.417   4.145   5.382 -1.0538  0.6272  0.6835
 7427TIP3    H222246   2.474   4.158   5.242  1.5065 -0.2710  1.5849
 7428TIP3   OH222247   3.406   3.839   0.457  0.1416  0.4368 -0.1284
 7428TIP3    H122248   3.474   3.845   0.523  0.7749 -3.0351 -0.2833
 7428TIP3    H222249   3.448   3.866   0.376  1.7707 -2.4304 -0.3800
 7429TIP3   OH222250   4.826   1.741   4.353 -0.5528 -0.6350 -0.3285
 7429TIP3    H122251   4.846   1.654   4.388 -0.8783 -0.0805  1.2952
 7429TIP3    H222252   4.904   1.763   4.301  0.2754 -1.1894  0.6381
 7430TIP3   OH222253   6.114   4.713   0.271 -0.3430  0.6809  0.1875
 7430TIP3    H122254   6.120   4.784   0.335  3.2520  0.3734  0.3979
 7430TIP3    H222255   6.088   4.636   0.322  0.5739  0.8657  0.9776
 7431TIP3   OH222256   2.312   2.924   4.422 -0.2263  0.2068 -0.2592
 7431TIP3    H122257   2.312   3.018   4.402  0.0696  0.0920 -0.8415
 7431TIP3    H222258   2.224   2.906   4.453 -1.3202  0.1007 -3.0691
 7432TIP3   OH222259   6.293   6.420   1.640 -0.1697 -0.2751 -0.2033
 7432TIP3    H122260   6.251   6.496   1.681 -1.4048 -1.3232  0.5474
 7432TIP3    H222261   6.378   6.414   1.685 -0.3881  0.1971  0.2958
 7433TIP3   OH222262   3.619   6.151   3.141 -0.2561 -0.1652  0.1955
 7433TIP3    H122263   3.533   6.120   3.114 -0.1649 -0.6320  0.4238
 7433TIP3    H222264   3.601   6.225   3.199 -0.4871  0.0440 -0.1457
 7434TIP3   OH222265   0.679   6.583   4.974  0.1918  0.1245 -0.7549
 7434TIP3    H122266   0.630   6.612   4.897 -1.0384 -1.9556 -0.8317
 7434TIP3    H222267   0.728   6.507   4.945  0.0963 -0.4036  0.3975
 7435TIP3   OH222268   0.694   4.277   0.744  0.2110  0.8545 -0.3739
 7435TIP3    H122269   0.733   4.350   0.696  0.3476  1.7670  1.0502
 7435TIP3    H222270   0.766   4.214   0.755  0.3677  0.9722 -0.7114
 7436TIP3   OH222271   2.174   3.432   4.457 -0.4571 -0.3080 -0.5365
 7436TIP3    H122272   2.257   3.460   4.495 -1.0867  0.2030  0.4892
 7436TIP3    H222273   2.160   3.490   4.383  0.9605 -1.5441 -1.8519
 7437TIP3   OH222274   2.656   1.299   4.701  0.5303  0.1003 -0.0592
 7437TIP3    H122275   2.637   1.228   4.763  0.3936  1.1829  1.1871
 7437TIP3    H222276   2.747   1.323   4.720  0.7042 -0.0064 -0.7524
 7438TIP3   OH222277   6.562   6.378   5.897 -0.1353  0.8878  0.6644
 7438TIP3    H122278   6.580   6.431   5.819 -0.6767  1.7129  1.0974
 7438TIP3    H222279   6.560   6.288   5.864  4.7447  0.5623  0.4828
 7439TIP3   OH222280   3.825   4.281   5.049 -0.2838 -0.3958  0.3085
 7439TIP3    H122281   3.918   4.283   5.073 -0.1013  0.4022 -0.4355
 7439TIP3    H222282   3.823   4.314   4.959 -1.2596 -0.7162  0.2056
 7440TIP3   OH222283   0.517   0.322   5.036  0.1659  0.3782 -0.2200
 7440TIP3    H122284   0.477   0.401   5.001  2.1077  1.4813 -0.0605
 7440TIP3    H222285   0.512   0.259   4.965 -1.5019  0.5712 -0.3108
 7441TIP3   OH222286   0.313   1.774   2.546 -0.2924  0.1038 -0.3570
 7441TIP3    H122287   0.311   1.721   2.627 -2.3878  1.1396  0.3391
 7441TIP3    H222288   0.370   1.724   2.487 -0.3137 -1.7252  1.0557
 7442TIP3   OH222289   2.755   5.871   3.846  0.0900 -0.4863 -0.4808
 7442TIP3    H122290   2.671   5.902   3.811 -0.1012 -1.6180 -1.0559
 7442TIP3    H222291   2.821   5.925   3.802  0.0168 -3.0173 -4.1359
 7443TIP3   OH222292   1.097   4.978   2.012  0.2450  0.2125 -0.2114
 7443TIP3    H122293   1.056   4.950   2.094 -1.5391 -1.3839 -1.5414
 7443TIP3    H222294   1.047   5.055   1.986 -0.0015 -0.0071 -0.3929
 7444TIP3   OH222295   3.159   0.577   0.915  0.0503 -0.0982  0.2913
 7444TIP3    H122296   3.240   0.564   0.965 -0.6178 -1.0454  1.1462
 7444TIP3    H222297   3.101   0.506   0.942 -1.1459  0.6609 -0.1715
 7445TIP3   OH222298   6.733   0.640   5.397 -0.3959 -0.5756 -0.3459
 7445TIP3    H122299   6.791   0.580   5.445 -0.9820 -1.1163 -0.2972
 7445TIP3    H222300   6.655   0.645   5.452 -0.4559  0.0363 -0.4827
 7446TIP3   OH222301   0.739   6.798   0.244  0.6729  0.0180 -0.3420
 7446TIP3    H122302   0.653   6.804   0.285  0.8759 -0.2951  0.1377
 7446TIP3    H222303   0.800   6.789   0.317  1.0994  0.0941 -0.6851
 7447TIP3   OH222304   1.193   4.312   2.811 -0.4294  0.5257 -0.6782
 7447TIP3    H122305   1.247   4.242   2.775 -0.4474  0.5650 -0.7845
 7447TIP3    H222306   1.248   4.354   2.876 -0.8391 -0.3361  0.2441
 7448TIP3   OH222307   0.450   2.990   5.006 -0.0124  0.1219 -0.0358
 7448TIP3    H122308   0.356   3.008   5.011 -0.3456 -1.1176 -1.2588
 7448TIP3    H222309   0.472   3.001   4.913  0.8612 -0.4579  0.0899
 7449TIP3   OH222310   0.268   6.427   4.474  0.7313 -0.0555 -0.2804
 7449TIP3    H122311   0.198   6.367   4.501  0.6744 -0.2411 -0.8278
 7449TIP3    H222312   0.346   6.372   4.467  0.6239 -0.1358 -1.0389
 7450TIP3   OH222313   5.977   3.393   5.059  0.7273 -1.1248 -0.3461
 7450TIP3    H122314   5.902   3.358   5.009 -0.3872 -1.6854  1.6193
 7450TIP3    H222315   5.945   3.477   5.093  1.4989 -0.7266 -0.5779
 7451TIP3   OH222316   6.440   3.840   0.627  0.1077 -0.3478  0.0288
 7451TIP3    H122317   6.512   3.900   0.649 -0.0307 -0.0142 -0.4089
 7451TIP3    H222318   6.484   3.758   0.603  0.3052 -0.3787  0.4869
 7452TIP3   OH222319   6.866   1.252   1.771  0.2111  0.1590  0.1115
 7452TIP3    H122320   6.864   1.157   1.756  2.9602 -0.1141  0.8155
 7452TIP3    H222321   6.870   1.290   1.683  4.4630 -0.8005 -0.3495
 7453TIP3   OH222322   0.372   3.446   3.083 -0.4774 -0.4607 -0.6157
 7453TIP3    H122323   0.391   3.539   3.074 -0.5344 -0.4262 -0.3741
 7453TIP3    H222324   0.314   3.440   3.159  1.2530 -0.9355  0.7231
 7454TIP3   OH222325   1.058   0.843   0.692  0.0789  0.1999  0.0782
 7454TIP3    H122326   1.147   0.841   0.659 -0.1026  1.4234 -0.5070
 7454TIP3    H222327   1.055   0.772   0.756  1.5145  0.2531  0.2297
 7455TIP3   OH222328   6.199   1.567   2.942 -0.5058 -0.3876 -0.1093
 7455TIP3    H122329   6.290   1.551   2.965 -0.5058 -0.0230  0.1573
 7455TIP3    H222330   6.181   1.508   2.869 -0.5626 -1.7671  0.9717
 7456TIP3   OH222331   1.780   2.388   2.909 -0.3501  0.8504  0.1928
 7456TIP3    H122332   1.821   2.348   2.986  0.6054  2.0393  0.3294
 7456TIP3    H222333   1.689   2.402   2.934 -0.6161 -0.8217  0.2845
 7457TIP3   OH222334   5.708   0.362   0.377 -0.4362  0.1589  0.0087
 7457TIP3    H122335   5.618   0.330   0.370  0.2139 -1.4748 -1.6029
 7457TIP3    H222336   5.737   0.334   0.464 -0.9852 -0.6610 -0.0658
 7458TIP3   OH222337   4.272   0.908   3.920 -0.0421 -0.3046 -0.5990
 7458TIP3    H122338   4.296   0.823   3.882 -0.0518 -0.2858 -0.6465
 7458TIP3    H222339   4.231   0.956   3.848 -1.6674 -0.9205 -0.1351
 7459TIP3   OH222340   2.567   2.192   1.386 -0.3530  0.1975 -0.0377
 7459TIP3    H122341   2.578   2.287   1.385  1.1734  0.1937  2.9101
 7459TIP3    H222342   2.473   2.179   1.401 -0.6601  1.1941 -0.9791
 7460TIP3   OH222343   5.078   5.775   4.189 -0.2955  0.4048 -0.7796
 7460TIP3    H122344   5.005   5.831   4.213 -1.8354 -2.3419  1.4808
 7460TIP3    H222345   5.045   5.722   4.116 -0.6747 -0.9157  0.3162
 7461TIP3   OH222346   0.151   0.331   2.818 -0.1007  0.4533 -0.1049
 7461TIP3    H122347   0.184   0.328   2.728 -1.5728  1.4788 -0.7124
 7461TIP3    H222348   0.056   0.338   2.808 -0.2649  0.8090  1.5265
 7462TIP3   OH222349   6.402   3.555   3.784 -0.3018  0.2164 -0.1654
 7462TIP3    H122350   6.427   3.556   3.692 -0.5650 -1.5033 -0.2948
 7462TIP3    H222351   6.457   3.621   3.825 -1.3994  2.2843 -1.8199
 7463TIP3   OH222352   4.587   1.362   1.524 -0.8477  0.0926 -0.6599
 7463TIP3    H122353   4.616   1.445   1.563  0.9917 -0.1708 -1.3704
 7463TIP3    H222354   4.572   1.305   1.599  1.7752 -0.1304 -0.2109
 7464TIP3   OH222355   6.623   6.695   0.644  0.1227  0.4139 -0.5557
 7464TIP3    H122356   6.627   6.789   0.627  1.1789  0.8045  1.5641
 7464TIP3    H222357   6.532   6.679   0.668  0.2414  1.2081  0.5057
 7465TIP3   OH222358   0.135   3.262   1.807  0.2741 -0.8342 -0.1362
 7465TIP3    H122359   0.091   3.339   1.842  1.9994  0.0170  0.2225
 7465TIP3    H222360   0.135   3.200   1.880 -0.3622 -0.8726 -0.1603
 7466TIP3   OH222361   4.490   1.040   2.812  0.4835  0.7677  0.0813
 7466TIP3    H122362   4.401   1.054   2.842 -0.2175  0.7046 -1.8528
 7466TIP3    H222363   4.501   1.100   2.739  1.1152 -1.0351 -1.3815
 7467TIP3   OH222364   3.247   0.433   0.268 -0.4199 -0.2266  0.1006
 7467TIP3    H122365   3.162   0.405   0.303  0.3707 -0.3636  2.0049
 7467TIP3    H222366   3.311   0.403   0.332  1.2360 -1.3022 -1.9535
 7468TIP3   OH222367   1.289   6.043   4.060 -0.3552 -0.3629  1.3022
 7468TIP3    H122368   1.355   6.089   4.113 -1.3076 -0.5550  2.7099
 7468TIP3    H222369   1.208   6.090   4.078 -0.6752 -0.3459 -0.1428
 7469TIP3   OH222370   7.197   0.482   3.958 -0.4467  0.6620  0.3332
 7469TIP3    H122371   7.140   0.519   4.026 -0.1309  0.9027  0.4670
 7469TIP3    H222372   7.149   0.498   3.876 -1.5981 -1.0658  0.6188
 7470TIP3   OH222373   2.891   4.667   1.947 -0.0898  0.1216  0.3214
 7470TIP3    H122374   2.854   4.648   1.861  1.3259  0.9011 -0.5009
 7470TIP3    H222375   2.817   4.696   1.999 -0.8961  0.1433 -0.8026
 7471TIP3   OH222376   5.057   4.071   3.954  0.2957  0.1947  0.0790
 7471TIP3    H122377   5.040   4.148   4.008 -0.0782  0.5770 -0.5821
 7471TIP3    H222378   5.153   4.070   3.943  0.4240 -0.1622  1.1391
 7472TIP3   OH222379   3.783   1.505   3.603  0.2638 -0.3792 -0.5361
 7472TIP3    H122380   3.785   1.473   3.694 -0.0954  0.0199 -0.3836
 7472TIP3    H222381   3.823   1.435   3.552  1.3774 -0.1963  0.0589
 7473TIP3   OH222382   6.601   5.634   3.362  0.1330 -0.0304  0.5556
 7473TIP3    H122383   6.617   5.576   3.287  0.0191  0.6280  0.0213
 7473TIP3    H222384   6.562   5.576   3.427  0.0503 -0.5701  0.0424
 7474TIP3   OH222385   2.023   4.937   0.574  0.5268 -0.0716  0.2954
 7474TIP3    H122386   2.034   4.971   0.485 -0.0110 -0.4187  0.0945
 7474TIP3    H222387   1.929   4.944   0.591  0.2054 -2.4820 -0.1730
 7475TIP3   OH222388   5.908   0.352   0.811 -0.5784 -0.1086 -0.4009
 7475TIP3    H122389   5.923   0.257   0.815 -1.2676 -0.2071  0.3733
 7475TIP3    H222390   5.857   0.365   0.731  1.5774 -0.0556 -1.8160
 7476TIP3   OH222391   5.494   5.374   1.788  0.4179  0.3029 -0.4542
 7476TIP3    H122392   5.558   5.329   1.733  1.0615  2.6713 -1.7867
 7476TIP3    H222393   5.412   5.368   1.739  1.0768  2.7655 -2.0185
 7477TIP3   OH222394   4.366   6.119   0.112  0.1965 -0.4601  0.1610
 7477TIP3    H122395   4.427   6.065   0.062 -0.7125 -1.4818  0.1198
 7477TIP3    H222396   4.335   6.185   0.050 -0.1418 -1.0810 -0.3383
 7478TIP3   OH222397   3.420   5.983   0.802 -0.1248 -0.1057 -0.6084
 7478TIP3    H122398   3.475   5.985   0.724  0.1880 -1.5508 -0.4690
 7478TIP3    H222399   3.426   5.892   0.832 -0.4851  0.3504  0.9207
 7479TIP3   OH222400   5.668   4.976   3.923  0.1588 -0.6470  0.0572
 7479TIP3    H122401   5.687   4.891   3.883  0.8442 -1.7231  2.4890
 7479TIP3    H222402   5.730   4.983   3.995 -1.9760  0.4697  1.9077
 7480TIP3   OH222403   2.121   0.184   1.464  0.5276  0.5001 -0.1759
 7480TIP3    H122404   2.172   0.213   1.539  0.7779  0.3339 -0.2806
 7480TIP3    H222405   2.062   0.257   1.445 -0.5729 -0.0055  1.0837
 7481TIP3   OH222406   2.904   4.774   5.608  0.2552  0.1382 -0.0602
 7481TIP3    H122407   2.965   4.843   5.633 -0.4383  0.5576  0.5184
 7481TIP3    H222408   2.833   4.781   5.672  0.8152 -2.0002  0.8542
 7482TIP3   OH222409   4.383   5.460   5.319 -0.1011  0.7239 -0.7491
 7482TIP3    H122410   4.470   5.490   5.345 -0.7252  0.9905  1.2186
 7482TIP3    H222411   4.337   5.539   5.293 -0.2676  0.8402 -0.1288
 7483TIP3   OH222412   5.680   4.635   4.474  0.7756  0.4785 -0.1806
 7483TIP3    H122413   5.722   4.676   4.398  1.6154  0.1123  0.0757
 7483TIP3    H222414   5.588   4.626   4.448  0.7525  1.6972 -0.5825
 7484TIP3   OH222415   2.504   3.664   0.242 -0.4435  0.1986  0.1257
 7484TIP3    H122416   2.456   3.712   0.175  0.5641 -0.3923 -1.0563
 7484TIP3    H222417   2.558   3.602   0.193 -1.0246 -1.5151  1.5624
 7485TIP3   OH222418   1.099   6.022   5.293 -0.7217  0.1519 -0.5034
 7485TIP3    H122419   1.005   6.031   5.306 -0.5485  1.0096  0.2055
 7485TIP3    H222420   1.138   6.062   5.370  0.2298 -0.0388 -0.8758
 7486TIP3   OH222421   0.229   5.040   3.012  0.6696  0.2143  0.1233
 7486TIP3    H122422   0.265   4.969   2.960  0.2050  0.7540 -0.9665
 7486TIP3    H222423   0.162   4.999   3.066  0.0200 -0.0935 -0.8999
 7487TIP3   OH222424   3.741   4.536   1.798  0.5797 -0.5031 -0.4548
 7487TIP3    H122425   3.726   4.463   1.858  0.9854 -0.0262  0.2353
 7487TIP3    H222426   3.767   4.494   1.715 -1.5142 -1.2291 -0.7927
 7488TIP3   OH222427   3.526   6.046   5.040 -0.2560 -0.0223 -0.1109
 7488TIP3    H122428   3.480   5.967   5.068  1.5283 -1.2109 -0.4044
 7488TIP3    H222429   3.529   6.101   5.119 -0.4334 -0.7710  0.4241
 7489TIP3   OH222430   2.039   0.836   1.608  0.5442 -0.0616 -0.3108
 7489TIP3    H122431   2.025   0.900   1.678 -0.1924 -0.9902  0.4130
 7489TIP3    H222432   2.086   0.764   1.651 -1.2661 -1.3337 -0.3560
 7490TIP3   OH222433   6.187   4.951   2.258  1.2030 -0.5860  0.1086
 7490TIP3    H122434   6.267   4.900   2.257  0.3310 -2.1264  1.8108
 7490TIP3    H222435   6.117   4.888   2.240  0.0475 -0.2230  2.7022
 7491TIP3   OH222436   0.262   2.509   1.836 -0.1129  0.5273 -0.2519
 7491TIP3    H122437   0.234   2.481   1.923  0.0357 -0.6790 -0.5653
 7491TIP3    H222438   0.352   2.478   1.829 -0.0076  0.9242 -0.7008
 7492TIP3   OH222439   0.797   5.769   0.337 -0.4716  0.3655  0.0401
 7492TIP3    H122440   0.818   5.676   0.334 -1.1729  0.2396 -1.7727
 7492TIP3    H222441   0.876   5.810   0.373 -0.2225 -0.9116  1.0285
 7493TIP3   OH222442   0.146   0.740   3.269 -0.0035 -0.4109  0.2315
 7493TIP3    H122443   0.058   0.766   3.242 -0.3216 -3.5191 -2.2936
 7493TIP3    H222444   0.204   0.791   3.213 -0.2722  0.1023  0.4131
 7494TIP3   OH222445   2.899   0.729   0.879  0.3194 -0.5348  0.4252
 7494TIP3    H122446   2.954   0.796   0.919  0.1160 -0.0659 -0.0764
 7494TIP3    H222447   2.945   0.647   0.898  1.7780 -0.0683 -0.9068
 7495TIP3   OH222448   2.492   6.529   0.769  0.5741  0.0182  0.1884
 7495TIP3    H122449   2.402   6.542   0.737 -0.1307 -3.0810  0.5447
 7495TIP3    H222450   2.481   6.472   0.845  2.7938  0.7726  1.1320
 7496TIP3   OH222451   6.101   5.682   4.583 -0.5431 -0.7425 -0.0838
 7496TIP3    H122452   6.163   5.740   4.627 -2.0714  1.2928 -0.4229
 7496TIP3    H222453   6.145   5.659   4.501  0.3651 -0.6147  0.3488
 7497TIP3   OH222454   7.097   5.613   5.681  0.1423 -0.2709 -0.3034
 7497TIP3    H122455   7.097   5.633   5.775 -2.4799 -1.4493  0.0278
 7497TIP3    H222456   7.183   5.573   5.665  0.7353  0.1667  1.5302
 7498TIP3   OH222457   0.020   0.176   5.530 -0.4759  0.1135  0.3551
 7498TIP3    H122458   0.073   0.137   5.600  0.4408 -0.7751 -0.7901
 7498TIP3    H222459  -0.069   0.149   5.551 -0.2981  0.3304  1.4773
 7499TIP3   OH222460   5.720   2.605   0.390  0.1478 -0.3183 -0.0193
 7499TIP3    H122461   5.669   2.613   0.471  0.7843 -0.1555  0.3767
 7499TIP3    H222462   5.795   2.552   0.416 -0.4586 -1.6532 -0.9014
 7500TIP3   OH222463   2.663   6.346   1.541  0.3566  0.4151  0.1997
 7500TIP3    H122464   2.597   6.406   1.576 -0.1933 -0.1029  0.0551
 7500TIP3    H222465   2.705   6.395   1.471  0.5349  0.9632  0.6848
 7501TIP3   OH222466   6.743   0.198   2.062  0.5619  0.5293  0.4428
 7501TIP3    H122467   6.809   0.140   2.025 -0.3918  0.0404 -0.5339
 7501TIP3    H222468   6.687   0.222   1.988  0.0198  1.4519  1.1263
 7502TIP3   OH222469   0.904   1.464   1.253  0.5898 -0.4208  0.0466
 7502TIP3    H122470   0.956   1.493   1.179 -0.5467 -0.9300 -0.9941
 7502TIP3    H222471   0.868   1.544   1.291 -0.6333 -0.2684 -1.3536
 7503TIP3   OH222472   0.912   0.807   0.151  0.3060 -0.6627 -0.1544
 7503TIP3    H122473   0.847   0.820   0.083  0.0776 -2.1077 -0.2378
 7503TIP3    H222474   0.915   0.890   0.198 -0.4166 -0.0549 -1.1503
 7504TIP3   OH222475   3.289   4.221   0.174  0.2867 -0.4177 -0.4282
 7504TIP3    H122476   3.212   4.210   0.229  0.1082 -2.4138 -1.0029
 7504TIP3    H222477   3.352   4.269   0.229  0.4399 -3.0760  1.8893
 7505TIP3   OH222478   5.771   1.673   1.584  0.4047 -0.1609  0.3797
 7505TIP3    H122479   5.707   1.672   1.655 -0.0421 -2.0441  0.0044
 7505TIP3    H222480   5.769   1.584   1.548  2.6427 -0.0609 -0.1813
 7506TIP3   OH222481   6.032   0.740   1.244  0.0435 -0.1826  0.4088
 7506TIP3    H122482   5.944   0.741   1.281 -0.3805  1.8331 -0.5079
 7506TIP3    H222483   6.019   0.756   1.150  1.3166 -1.4994 -0.0486
 7507TIP3   OH222484   1.095   5.988   0.693 -0.0341  0.3797  0.1358
 7507TIP3    H122485   1.146   6.034   0.759  0.3328  0.8713 -0.4695
 7507TIP3    H222486   1.151   5.990   0.615  0.5366 -2.1744  0.3978
 7508TIP3   OH222487   4.153   1.798   3.107  0.1479  0.2120  0.2947
 7508TIP3    H122488   4.113   1.815   3.021  3.0259  1.0900 -1.0033
 7508TIP3    H222489   4.154   1.884   3.150 -1.0090 -0.1692  1.1210
 7509TIP3   OH222490   5.044   4.608   1.107  0.1394  0.5164 -0.4536
 7509TIP3    H122491   4.984   4.536   1.090  0.4837  0.2510 -0.5639
 7509TIP3    H222492   5.104   4.607   1.032  0.5632  0.4787 -0.1208
 7510TIP3   OH222493   7.200   6.484   0.925 -0.3418 -0.2571 -0.1003
 7510TIP3    H122494   7.294   6.468   0.931 -0.4759 -0.7031  1.0751
 7510TIP3    H222495   7.173   6.499   1.015 -0.9162  2.8169 -0.6615
 7511TIP3   OH222496   6.281   6.499   0.455  0.1598 -0.0360 -0.1959
 7511TIP3    H122497   6.265   6.430   0.391  0.8530  0.3277 -0.7697
 7511TIP3    H222498   6.268   6.580   0.407 -0.1895  0.2426  0.3582
 7512TIP3   OH222499   1.512   1.803   5.232 -0.0654 -0.4810 -0.4058
 7512TIP3    H122500   1.419   1.817   5.214 -0.0276  2.8681  1.1178
 7512TIP3    H222501   1.556   1.873   5.183  1.5998 -1.6242 -0.6070
 7513TIP3   OH222502   5.596   4.330   4.964  0.7363 -0.7709 -0.2522
 7513TIP3    H122503   5.521   4.286   4.925  1.6268 -2.0500 -0.6086
 7513TIP3    H222504   5.655   4.347   4.890  0.9407 -0.0822  0.0625
 7514TIP3   OH222505   4.518   1.891   2.977 -0.0030  0.3128 -0.1411
 7514TIP3    H122506   4.612   1.875   2.970  0.3118  1.1622  1.6203
 7514TIP3    H222507   4.491   1.844   3.056 -0.6676  1.6188  0.4442
 7515TIP3   OH222508   3.834   6.557   0.071 -0.0689 -0.1540 -0.4234
 7515TIP3    H122509   3.753   6.518   0.103  0.6292 -1.1303  0.2200
 7515TIP3    H222510   3.831   6.547  -0.024 -0.3184 -0.9754 -0.3345
 7516TIP3   OH222511   2.992   4.205   1.103 -0.0136 -0.6922  0.3709
 7516TIP3    H122512   3.034   4.122   1.127  1.1657  0.0112  0.8436
 7516TIP3    H222513   2.953   4.236   1.184 -0.9625 -1.0477  0.0641
 7517TIP3   OH222514   2.143   4.652   4.841 -0.3137 -0.5721  0.5910
 7517TIP3    H122515   2.238   4.640   4.830 -0.2062  1.1066 -0.8399
 7517TIP3    H222516   2.133   4.675   4.933  0.6500 -0.8431  0.7834
 7518TIP3   OH222517   0.294   5.126   0.649 -0.0375  0.1080  0.1769
 7518TIP3    H122518   0.389   5.119   0.648 -0.1055 -0.9886 -0.1668
 7518TIP3    H222519   0.272   5.152   0.738  0.6699  2.1693 -0.1960
 7519TIP3   OH222520   4.275   0.647   0.591  0.2009  0.1070 -0.1972
 7519TIP3    H122521   4.347   0.695   0.631 -0.2010  0.0941  0.5522
 7519TIP3    H222522   4.317   0.570   0.551  0.4913 -0.4127  1.0680
 7520TIP3   OH222523   1.550   5.003   5.464 -0.7046 -0.4503  0.7771
 7520TIP3    H122524   1.544   5.094   5.495  0.6921 -0.3970  0.9394
 7520TIP3    H222525   1.508   5.005   5.378 -3.0214 -0.2209  1.8392
 7521TIP3   OH222526   1.736   5.827   4.749 -0.1782  0.3645 -0.2036
 7521TIP3    H122527   1.806   5.791   4.693  0.3773 -0.2260  0.8493
 7521TIP3    H222528   1.778   5.841   4.834 -1.2426  0.3764  0.3323
 7522TIP3   OH222529   2.500   4.827   1.825  0.0705  0.2473  0.1833
 7522TIP3    H122530   2.447   4.749   1.812  1.9025 -1.0317 -0.0660
 7522TIP3    H222531   2.501   4.840   1.920 -1.6907  1.0853  0.1274
 7523TIP3   OH222532   3.123   6.655   0.949 -0.2607  0.3420  0.0806
 7523TIP3    H122533   3.138   6.574   0.998  0.3290 -0.6068 -1.6006
 7523TIP3    H222534   3.194   6.713   0.978 -0.2883  0.0254  0.8034
 7524TIP3   OH222535   4.249   4.193   1.539 -0.1589 -0.5330  0.0162
 7524TIP3    H122536   4.250   4.124   1.473 -0.1742 -1.7013  1.1920
 7524TIP3    H222537   4.162   4.232   1.532 -0.2002 -0.7283 -0.5725
 7525TIP3   OH222538   2.253   2.756   4.693  0.3134 -0.3976 -0.4982
 7525TIP3    H122539   2.198   2.832   4.671  1.2729  0.0471 -1.4066
 7525TIP3    H222540   2.311   2.788   4.762 -2.7844 -1.8219  3.1739
 7526TIP3   OH222541   0.822   6.355   4.905  0.4864  0.1177 -0.6356
 7526TIP3    H122542   0.830   6.299   4.983 -1.7022  1.1479  0.4183
 7526TIP3    H222543   0.829   6.294   4.831  1.3975 -1.0580  0.3776
 7527TIP3   OH222544   3.800   3.402   1.733  0.7246  0.2283  0.4857
 7527TIP3    H122545   3.826   3.439   1.818 -1.1339  0.2674  1.0980
 7527TIP3    H222546   3.704   3.396   1.739  0.6014 -0.1785 -1.4608
 7528TIP3   OH222547   6.015   1.917   2.495 -0.4350 -0.4384  0.5872
 7528TIP3    H122548   6.091   1.971   2.470 -1.1128  0.4956  0.4976
 7528TIP3    H222549   6.029   1.899   2.588  0.8512 -1.8884  0.1654
 7529TIP3   OH222550   3.383   1.361   5.555  0.1241 -0.1145 -0.2790
 7529TIP3    H122551   3.417   1.295   5.494 -0.1714 -1.8470  1.3438
 7529TIP3    H222552   3.436   1.439   5.538  0.0726 -0.5118 -2.7051
 7530TIP3   OH222553   0.700   4.077   1.950  0.4517  0.2646  0.6938
 7530TIP3    H122554   0.608   4.051   1.949  0.9622 -1.6321  0.5504
 7530TIP3    H222555   0.708   4.134   2.027 -0.6360 -0.2941  1.2402
 7531TIP3   OH222556   3.796   5.773   3.494 -0.1840 -0.1564  0.5815
 7531TIP3    H122557   3.885   5.749   3.520  1.3446  1.8418 -2.2542
 7531TIP3    H222558   3.765   5.830   3.565  1.3452  0.1855  1.0087
 7532TIP3   OH222559   0.670  -0.006   5.834 -0.4280  0.2718  0.1225
 7532TIP3    H122560   0.650   0.087   5.829 -0.3157  0.3027  0.2362
 7532TIP3    H222561   0.601  -0.042   5.890 -0.1404  0.3872  0.5586
 7533TIP3   OH222562   1.008   0.095   1.393  0.0220 -0.1986 -0.3039
 7533TIP3    H122563   0.940   0.081   1.328  1.2074 -0.3105 -1.5707
 7533TIP3    H222564   0.981   0.043   1.468 -0.9551 -0.7551 -1.0237
 7534TIP3   OH222565   5.498   1.150   5.725 -0.0422  0.0839  0.3711
 7534TIP3    H122566   5.489   1.238   5.687 -0.8635  0.2759  0.9908
 7534TIP3    H222567   5.577   1.155   5.778 -0.5508  0.7175  1.0927
 7535TIP3   OH222568   2.916   6.155   2.379 -0.3466  0.2336  0.4807
 7535TIP3    H122569   2.880   6.223   2.436 -1.0138  0.6079 -0.3688
 7535TIP3    H222570   2.917   6.194   2.292  0.2273 -0.4921  0.1510
 7536TIP3   OH222571   3.883   0.809   3.177  0.2418  0.2880  0.2864
 7536TIP3    H122572   3.935   0.857   3.241  2.1180  0.9082 -1.5736
 7536TIP3    H222573   3.793   0.839   3.192  1.1937  3.9574 -0.2793
 7537TIP3   OH222574   4.885   0.830   3.242  0.1593 -0.3193  0.1818
 7537TIP3    H122575   4.847   0.744   3.224  0.1263 -0.6858  1.8073
 7537TIP3    H222576   4.881   0.838   3.338  1.3236  0.9549  0.1545
 7538TIP3   OH222577   6.868   0.817   5.818 -0.1505 -0.2269  0.0412
 7538TIP3    H122578   6.838   0.727   5.817  1.1929 -0.7012 -0.7012
 7538TIP3    H222579   6.875   0.841   5.725 -1.5301  1.0201  0.2262
 7539TIP3   OH222580   0.208   1.089   2.754 -0.4587  0.0119 -0.7388
 7539TIP3    H122581   0.185   1.069   2.844  0.1830 -0.2964 -0.6393
 7539TIP3    H222582   0.151   1.032   2.702 -1.5205  0.8839 -0.5702
 7540TIP3   OH222583   4.143   3.262   3.555 -0.0638  0.1445  0.7084
 7540TIP3    H122584   4.152   3.210   3.475  0.1574  1.2831 -0.0251
 7540TIP3    H222585   4.057   3.239   3.589 -0.6150  0.4385 -0.4487
 7541TIP3   OH222586   4.101   4.011   1.756  0.3159  0.0173 -0.1412
 7541TIP3    H122587   4.080   4.013   1.849 -0.0057  0.7526 -0.2217
 7541TIP3    H222588   4.125   4.101   1.734  1.9731 -0.4609 -0.4341
 7542TIP3   OH222589   4.000   6.630   0.478  0.3710 -0.2962  0.0754
 7542TIP3    H122590   3.924   6.630   0.420  0.8480 -0.1028 -0.5713
 7542TIP3    H222591   4.035   6.541   0.472 -2.6547 -2.0524  4.3068
 7543TIP3   OH222592   2.254   4.672   3.700 -0.1229  0.6913  0.3771
 7543TIP3    H122593   2.171   4.647   3.659  0.7632 -0.8355 -0.5742
 7543TIP3    H222594   2.251   4.630   3.786 -0.6511  1.2638  0.6406
 7544TIP3   OH222595   6.102   3.208   1.743 -0.3950 -0.1214  0.2541
 7544TIP3    H122596   6.169   3.140   1.746 -0.8633 -0.5720  2.5625
 7544TIP3    H222597   6.040   3.178   1.677 -0.1842 -1.5480  0.6650
 7545TIP3   OH222598   6.998   3.397   3.503 -0.1997 -0.1244 -0.7040
 7545TIP3    H122599   7.076   3.354   3.539  1.1455  0.9483 -2.1879
 7545TIP3    H222600   6.936   3.399   3.575  1.5213 -0.1267  0.8388
 7546TIP3   OH222601   6.317   6.088   4.921  0.0483  0.3693 -0.4846
 7546TIP3    H122602   6.411   6.080   4.903  0.7845  1.8494  2.0729
 7546TIP3    H222603   6.291   6.166   4.873  0.5824  0.9247  0.0915
 7547TIP3   OH222604   0.911   4.759   1.745 -0.0422 -0.4768  0.0940
 7547TIP3    H122605   0.966   4.775   1.822 -0.8699  0.8127  0.4605
 7547TIP3    H222606   0.933   4.830   1.685 -0.5623 -0.5437 -0.1781
 7548TIP3   OH222607   6.662   1.318   5.583  0.4292  0.2202 -0.4761
 7548TIP3    H122608   6.672   1.363   5.499 -0.0685  1.4084  0.0695
 7548TIP3    H222609   6.738   1.347   5.635 -0.0687  0.7207 -0.0074
 7549TIP3   OH222610   5.585   0.228   1.839 -0.2513  0.0112  0.4227
 7549TIP3    H122611   5.572   0.239   1.933 -3.2700  0.1868  0.0785
 7549TIP3    H222612   5.529   0.295   1.799 -0.2440 -1.0533 -1.4917
 7550TIP3   OH222613   2.783   4.160   5.104  0.2695  0.3718  0.6711
 7550TIP3    H122614   2.798   4.152   5.198  0.9144  0.2992  0.5640
 7550TIP3    H222615   2.714   4.097   5.085 -0.7485  1.2555  1.3032
 7551TIP3   OH222616   3.867   6.369   3.946 -0.2964 -0.2677  0.1431
 7551TIP3    H122617   3.782   6.353   3.987 -0.0626 -1.5715  0.1569
 7551TIP3    H222618   3.882   6.463   3.959 -0.8078 -0.3898  1.9009
 7552TIP3   OH222619   3.004   0.542   2.907  0.3901  0.1664 -0.2864
 7552TIP3    H122620   2.962   0.464   2.942 -0.3942  0.7633  0.1382
 7552TIP3    H222621   3.063   0.570   2.977  0.2771  0.2507 -0.2241
 7553TIP3   OH222622   4.710   3.270   1.376  0.1389 -0.1391  0.1660
 7553TIP3    H122623   4.750   3.337   1.321  0.1625 -0.9317 -0.8078
 7553TIP3    H222624   4.616   3.287   1.370  0.1492 -0.1442 -0.0215
 7554TIP3   OH222625   5.414   6.365   3.942  0.4565  0.6561 -0.4579
 7554TIP3    H122626   5.406   6.289   4.000 -0.7485 -0.0633 -1.4907
 7554TIP3    H222627   5.508   6.375   3.927  0.6324 -0.6569 -0.3116
 7555TIP3   OH222628   7.029   4.876   0.667 -0.0051  0.1038  0.1081
 7555TIP3    H122629   7.011   4.792   0.626 -0.5850 -0.5195  1.5787
 7555TIP3    H222630   7.122   4.871   0.693 -0.2676 -0.4575  0.9848
 7556TIP3   OH222631   5.715   2.253   3.855 -0.2307 -0.2511  0.1389
 7556TIP3    H122632   5.740   2.161   3.849  0.0864 -0.1592  0.0719
 7556TIP3    H222633   5.649   2.263   3.786 -0.4415 -0.4844  0.3036
 7557TIP3   OH222634   1.228   0.126   5.885  0.1996 -0.0588  0.2382
 7557TIP3    H122635   1.285   0.136   5.809 -1.3957 -2.6331 -1.4412
 7557TIP3    H222636   1.199   0.215   5.905  0.7148  0.7176 -2.1390
 7558TIP3   OH222637   5.369   3.731   5.471  0.3228  0.2812 -0.4991
 7558TIP3    H122638   5.425   3.666   5.428  1.1938  0.8314 -0.2218
 7558TIP3    H222639   5.400   3.733   5.562 -1.5758 -0.9634  0.2433
 7559TIP3   OH222640   4.073   0.638   5.705  0.3065 -0.0505 -0.5375
 7559TIP3    H122641   4.166   0.652   5.691  0.5898 -1.7364 -0.4816
 7559TIP3    H222642   4.068   0.567   5.769 -1.0167  0.3494 -0.1647
 7560TIP3   OH222643   0.903   5.159   5.487  0.3249 -0.3760  0.1519
 7560TIP3    H122644   0.963   5.084   5.496  0.1511 -0.6451 -0.8329
 7560TIP3    H222645   0.851   5.157   5.567  0.0314 -1.5794 -0.0464
 7561TIP3   OH222646   4.173   4.430   2.730  0.4680 -0.5639 -0.3915
 7561TIP3    H122647   4.215   4.475   2.803  0.2521  0.2218 -0.7369
 7561TIP3    H222648   4.245   4.387   2.683  0.8562  0.4574 -0.7609
 7562TIP3   OH222649   5.183   0.452   1.802 -0.0930  0.6144 -0.2542
 7562TIP3    H122650   5.211   0.527   1.749  0.1526 -1.4016 -3.2607
 7562TIP3    H222651   5.210   0.473   1.891  1.7150  3.2217 -1.3039
 7563TIP3   OH222652   3.518   5.095   0.723  0.1834 -0.4415  0.0102
 7563TIP3    H122653   3.561   5.112   0.806  0.7846  0.5747 -0.4821
 7563TIP3    H222654   3.433   5.058   0.747 -0.2660  1.1965  1.1483
 7564TIP3   OH222655   5.348   5.097   1.828 -0.3313  0.0839 -0.3501
 7564TIP3    H122656   5.329   5.143   1.909  0.7968 -0.0774  0.0325
 7564TIP3    H222657   5.324   5.159   1.759 -0.5783  0.5201  0.1203
 7565TIP3   OH222658   2.586   4.363   5.082  0.0583  0.2339 -0.4547
 7565TIP3    H122659   2.599   4.397   5.171 -2.2482 -1.2159  0.5303
 7565TIP3    H222660   2.667   4.314   5.064  0.3160  0.0042  1.1275
 7566TIP3   OH222661   3.159   2.209   4.451  0.0149  0.2265 -0.3936
 7566TIP3    H122662   3.107   2.286   4.471 -2.7113 -2.0084  1.9184
 7566TIP3    H222663   3.228   2.208   4.518 -0.9212 -0.1497  0.5823
 7567TIP3   OH222664   6.121   3.984   4.032 -0.1037 -0.3539 -0.2468
 7567TIP3    H122665   6.211   4.007   4.056 -0.8920  1.6567  1.0047
 7567TIP3    H222666   6.094   3.919   4.097  0.0523 -0.0401  0.1343
 7568TIP3   OH222667   5.259   4.612   5.150  0.6328  0.1399 -0.4497
 7568TIP3    H122668   5.355   4.619   5.145  0.8235 -0.4450  1.4446
 7568TIP3    H222669   5.230   4.697   5.183  0.4337  0.4752 -1.4581
 7569TIP3   OH222670   4.071   4.291   1.739 -0.1718 -0.3251 -0.3210
 7569TIP3    H122671   4.004   4.352   1.709  0.9995  0.6711 -1.0392
 7569TIP3    H222672   4.139   4.348   1.776  0.5368 -1.2608 -0.1566
 7570TIP3   OH222673   2.222   0.432   2.487  0.3224 -0.1178 -0.0685
 7570TIP3    H122674   2.205   0.497   2.555  0.0179 -0.5371  0.2592
 7570TIP3    H222675   2.292   0.470   2.434 -0.4741  0.8925 -0.4330
 7571TIP3   OH222676   0.787   4.193   4.431  0.1175 -0.3786  0.4665
 7571TIP3    H122677   0.829   4.276   4.410  0.3276 -0.8590 -1.1163
 7571TIP3    H222678   0.694   4.208   4.412  0.1094 -0.4111  0.4797
 7572TIP3   OH222679   4.118   6.051   4.830 -0.2007  0.1098 -0.0712
 7572TIP3    H122680   4.159   5.965   4.841 -0.7159 -0.4385 -2.1097
 7572TIP3    H222681   4.173   6.096   4.767  0.1300  1.3698  1.0650
 7573TIP3   OH222682   1.964   1.245   3.201  0.0934  0.5815  0.2423
 7573TIP3    H122683   1.895   1.304   3.232 -0.8537  0.2406 -1.1508
 7573TIP3    H222684   2.022   1.301   3.150  0.2688  0.6721  0.5407
 7574TIP3   OH222685   3.019   1.270   2.734 -0.0588  0.8778 -0.4923
 7574TIP3    H122686   2.978   1.219   2.805  0.5023  0.3386 -0.5481
 7574TIP3    H222687   3.089   1.319   2.777  0.2824  0.5490 -0.6719
 7575TIP3   OH222688   6.275   1.990   3.771  0.3463 -0.4166 -0.0579
 7575TIP3    H122689   6.315   1.940   3.700 -0.8377 -1.7015  0.1407
 7575TIP3    H222690   6.307   1.948   3.851 -0.8293 -1.0482  0.1090
 7576TIP3   OH222691   5.002   4.769   2.760 -0.0029  0.3371 -0.5013
 7576TIP3    H122692   5.054   4.849   2.754 -1.0830  0.9916 -1.3418
 7576TIP3    H222693   4.971   4.768   2.851  0.0140  0.8710 -0.4862
 7577TIP3   OH222694   5.591   3.415   1.490 -0.6244 -0.3523  0.6319
 7577TIP3    H122695   5.664   3.384   1.544 -0.3810  0.4309  0.7617
 7577TIP3    H222696   5.623   3.407   1.400 -0.4601 -0.2290  0.6783
 7578TIP3   OH222697   5.400   0.519   5.879  0.5322 -0.0713  0.0848
 7578TIP3    H122698   5.446   0.534   5.796 -0.0011 -0.3449 -0.2692
 7578TIP3    H222699   5.411   0.601   5.927  3.5271 -0.9349  1.1004
 7579TIP3   OH222700   5.365   1.005   1.800  0.4690 -0.2256  0.4898
 7579TIP3    H122701   5.397   1.014   1.711  1.1038 -0.7947  0.6482
 7579TIP3    H222702   5.320   0.920   1.801  1.2058 -0.6201  0.9156
 7580TIP3   OH222703   2.621   2.966   1.274  0.0686  0.0073 -0.1830
 7580TIP3    H122704   2.678   3.024   1.325 -0.1096  0.2504 -0.2583
 7580TIP3    H222705   2.629   2.997   1.184  1.4521 -1.2753 -0.5508
 7581TIP3   OH222706   7.169   0.126   1.366 -0.0523 -0.1198 -0.0105
 7581TIP3    H122707   7.144   0.034   1.377 -0.9364  0.1452  0.3193
 7581TIP3    H222708   7.240   0.140   1.428 -0.0121 -0.5391  0.0404
 7582TIP3   OH222709   5.800   4.988   0.980 -0.5195 -0.2301  0.6383
 7582TIP3    H122710   5.811   4.907   0.930 -1.6634 -0.4162  0.6625
 7582TIP3    H222711   5.890   5.018   0.996 -0.1020 -0.8382 -0.4156
 7583TIP3   OH222712   3.366   1.855   4.116 -0.3081 -0.6957  0.0805
 7583TIP3    H122713   3.423   1.902   4.055 -0.1055 -0.1590  0.6719
 7583TIP3    H222714   3.310   1.923   4.153  0.4489 -0.7960  1.4592
 7584TIP3   OH222715   4.440   0.923   3.529 -0.4000  0.4148  0.5057
 7584TIP3    H122716   4.422   0.983   3.457  0.4784  0.8667  0.6421
 7584TIP3    H222717   4.474   0.978   3.599 -1.2866 -0.0160  1.2909
 7585TIP3   OH222718   3.155   6.446   2.883 -0.1968 -0.2455  0.4289
 7585TIP3    H122719   3.097   6.376   2.913  0.4776 -0.0291  2.4320
 7585TIP3    H222720   3.111   6.527   2.909  0.5462 -0.0587  1.1617
 7586TIP3   OH222721   2.792   2.532   1.931  0.6037  0.0822  0.3521
 7586TIP3    H122722   2.842   2.613   1.936  2.2357 -0.7810 -1.0134
 7586TIP3    H222723   2.787   2.512   1.838 -0.1783 -1.1381  0.6327
 7587TIP3   OH222724   3.013   4.284   5.027 -0.4550 -0.4260  0.2297
 7587TIP3    H122725   3.014   4.363   5.081  0.1209  0.6554 -1.2839
 7587TIP3    H222726   2.926   4.247   5.040 -0.6533  0.3129  1.1631
 7588TIP3   OH222727   6.038   5.781   4.003 -0.1323 -0.3725 -0.4774
 7588TIP3    H122728   6.124   5.762   3.964 -0.7129 -0.6288 -1.6903
 7588TIP3    H222729   5.976   5.738   3.945 -1.0921 -0.1437  0.3623
 7589TIP3   OH222730   4.236   2.489   5.143 -0.4843  0.1057 -0.1888
 7589TIP3    H122731   4.281   2.474   5.060  1.3620  1.8265  0.4224
 7589TIP3    H222732   4.275   2.425   5.203 -1.5574 -0.8886 -0.5050
 7590TIP3   OH222733   5.563   4.989   4.323 -0.4552  0.0927 -0.0832
 7590TIP3    H122734   5.522   5.032   4.247 -0.3317 -3.1576 -2.1821
 7590TIP3    H222735   5.494   4.985   4.389 -1.1357  1.3652 -0.6717
 7591TIP3   OH222736   2.714   1.262   3.873 -0.2228  0.4761  0.0042
 7591TIP3    H122737   2.623   1.233   3.883  0.5040 -1.3323  2.3920
 7591TIP3    H222738   2.760   1.183   3.844  0.7913  0.9962  0.1830
 7592TIP3   OH222739   3.494   5.599   0.569  0.2809 -0.1004 -0.5973
 7592TIP3    H122740   3.524   5.567   0.484  0.4502 -0.4611 -0.4029
 7592TIP3    H222741   3.463   5.521   0.615 -0.8602  0.2422 -0.7498
 7593TIP3   OH222742   2.926   5.580   2.794  0.0648  0.0999 -0.0548
 7593TIP3    H122743   2.988   5.508   2.803 -0.1668 -0.1476 -0.4075
 7593TIP3    H222744   2.884   5.565   2.709  0.1245  0.7383 -0.2024
 7594TIP3   OH222745   1.841   6.655   3.319 -0.1281 -0.4161  0.4083
 7594TIP3    H122746   1.754   6.632   3.285  0.1244  0.7440 -1.1810
 7594TIP3    H222747   1.842   6.751   3.317  1.3835 -0.4168 -0.1988
 7595TIP3   OH222748   5.440   5.842   3.124  0.0612  0.3381  0.1054
 7595TIP3    H122749   5.510   5.882   3.177  0.2154  0.3530 -0.1085
 7595TIP3    H222750   5.364   5.898   3.138  0.3289  0.8199 -0.3435
 7596TIP3   OH222751   4.333   4.395   4.161 -0.3304 -0.5600  0.3347
 7596TIP3    H122752   4.301   4.310   4.191  0.6586 -0.4017  1.9835
 7596TIP3    H222753   4.425   4.381   4.140 -0.6221 -0.2976 -1.2213
 7597TIP3   OH222754   0.852   5.714   5.650  0.4029  0.6027  0.0358
 7597TIP3    H122755   0.864   5.635   5.704  3.7869 -0.6007 -2.1757
 7597TIP3    H222756   0.882   5.786   5.705 -0.1066  0.0053  1.1312
 7598TIP3   OH222757   4.221   6.332   2.038 -0.0330 -0.1328 -0.1916
 7598TIP3    H122758   4.259   6.275   1.971 -0.5375  0.3404 -0.8920
 7598TIP3    H222759   4.250   6.420   2.014 -2.4613  0.3937 -1.4110
 7599TIP3   OH222760   2.758   6.362   0.878 -0.1984 -0.0951  0.2890
 7599TIP3    H122761   2.725   6.335   0.792 -0.6009 -0.1656  0.4637
 7599TIP3    H222762   2.848   6.390   0.861 -0.7590  1.3925 -0.4327
 7600TIP3   OH222763   0.044   4.543   3.838 -0.4231 -0.2038 -0.1786
 7600TIP3    H122764   0.001   4.601   3.776  0.9485  0.1613 -0.8214
 7600TIP3    H222765   0.044   4.591   3.921 -0.8081 -0.0143 -0.2851
 7601TIP3   OH222766   5.754   0.886   3.916 -0.4832 -0.1725 -0.2494
 7601TIP3    H122767   5.804   0.957   3.877  0.9946 -1.6985 -1.2589
 7601TIP3    H222768   5.746   0.911   4.008 -0.6255  1.6051 -0.6969
 7602TIP3   OH222769   5.924   1.074   5.142  0.0987  0.1038 -0.0349
 7602TIP3    H122770   5.852   1.076   5.204  0.2668 -1.0995  0.2199
 7602TIP3    H222771   5.979   1.149   5.166  1.0010 -1.2020  2.3428
 7603TIP3   OH222772   3.154   4.703   3.116 -0.7043 -0.2977  0.1200
 7603TIP3    H122773   3.124   4.633   3.174  0.5132  0.1385  1.3131
 7603TIP3    H222774   3.097   4.777   3.135 -0.5905 -0.2934  0.4449
 7604TIP3   OH222775   5.159   2.706   0.481  0.2921  0.5303  0.7035
 7604TIP3    H122776   5.191   2.618   0.502 -0.6755 -0.4174 -1.5383
 7604TIP3    H222777   5.091   2.722   0.547 -1.9256 -1.8969 -0.8041
 7605TIP3   OH222778   0.660   3.283   2.550 -0.1253  0.1224 -0.1479
 7605TIP3    H122779   0.627   3.238   2.472 -0.4773  0.6848 -0.3244
 7605TIP3    H222780   0.627   3.372   2.543 -1.1804 -0.1076  1.2316
 7606TIP3   OH222781   2.897   5.279   3.286 -0.0650  0.8152 -0.0354
 7606TIP3    H122782   2.848   5.222   3.226 -1.8055  1.1427  1.0025
 7606TIP3    H222783   2.981   5.234   3.299 -0.6742 -0.5573 -0.6804
 7607TIP3   OH222784   3.093   0.348   3.514  0.0798 -0.3610 -0.0261
 7607TIP3    H122785   3.021   0.342   3.452  1.8421 -0.2475 -2.2257
 7607TIP3    H222786   3.143   0.424   3.485  2.2696 -1.7057 -0.0011
 7608TIP3   OH222787   1.936   5.628   3.429  0.1527 -0.3031 -0.1402
 7608TIP3    H122788   1.939   5.560   3.361 -0.3763 -0.3865 -0.0804
 7608TIP3    H222789   2.001   5.693   3.400  1.2314 -1.1897  0.1954
 7609TIP3   OH222790   4.847   3.185   3.476 -0.2355  0.5464  0.3775
 7609TIP3    H122791   4.789   3.120   3.435 -0.5484  1.0688 -0.0190
 7609TIP3    H222792   4.928   3.137   3.492 -0.9257 -0.3339  1.3826
 7610TIP3   OH222793   5.736   2.894   0.302 -0.3713 -0.4040 -0.3082
 7610TIP3    H122794   5.710   2.809   0.336 -0.0571 -0.6912 -0.7879
 7610TIP3    H222795   5.812   2.877   0.247  0.0153  0.2510 -0.0019
 7611TIP3   OH222796   1.913   1.468   4.296  0.1541 -0.1568  0.1599
 7611TIP3    H122797   1.990   1.422   4.264  0.5933  0.9794 -0.4401
 7611TIP3    H222798   1.869   1.500   4.217 -0.8992 -0.6996  0.4949
 7612TIP3   OH222799   1.271   6.104   5.648 -0.2266 -0.3597  0.3416
 7612TIP3    H122800   1.348   6.137   5.602 -0.5322 -0.9196 -0.6134
 7612TIP3    H222801   1.248   6.173   5.710  0.2761  0.3733 -0.2721
 7613TIP3   OH222802   3.345   0.066   4.036  0.1721  0.1112  0.0101
 7613TIP3    H122803   3.252   0.049   4.019 -0.1843  0.9183  1.0019
 7613TIP3    H222804   3.389  -0.016   4.014 -0.6255  0.0577 -1.5206
 7614TIP3   OH222805   1.980   4.023   2.271 -0.6357 -0.2333  0.0432
 7614TIP3    H122806   1.912   4.086   2.250 -1.1082 -1.3287 -1.9511
 7614TIP3    H222807   1.941   3.938   2.249  0.8389 -1.0007  0.2953
 7615TIP3   OH222808   5.986   0.195   1.329  0.3035  0.4839  0.4050
 7615TIP3    H122809   5.972   0.289   1.331  0.3324  0.4980  0.1167
 7615TIP3    H222810   5.918   0.158   1.385  0.0544  0.6495  0.2120
 7616TIP3   OH222811   4.690   1.517   2.442 -0.5769  0.1892 -0.1477
 7616TIP3    H122812   4.619   1.455   2.457 -0.8145  0.4448 -0.2149
 7616TIP3    H222813   4.714   1.505   2.350 -0.9471  0.5381 -0.2887
 7617TIP3   OH222814   7.051   4.920   3.596 -0.1503 -0.1670  0.3149
 7617TIP3    H122815   7.058   4.887   3.507  2.0580 -1.2352  0.8326
 7617TIP3    H222816   7.045   4.842   3.650 -2.5643  0.4668  1.1191
 7618TIP3   OH222817   0.595   5.509   4.820 -0.0191 -0.1430 -0.2357
 7618TIP3    H122818   0.504   5.479   4.813  0.3171 -0.8776 -1.8264
 7618TIP3    H222819   0.588   5.604   4.823 -0.8377 -0.1726 -0.7704
 7619TIP3   OH222820   2.046   1.358   0.638 -0.0207 -0.3280  0.2414
 7619TIP3    H122821   2.012   1.281   0.682  2.5929 -0.8355  1.5198
 7619TIP3    H222822   2.091   1.324   0.561  0.5014 -0.0254  0.4058
 7620TIP3   OH222823   4.974   6.545   2.784 -0.0380  0.5877  0.3803
 7620TIP3    H122824   4.995   6.628   2.740  2.4677 -0.3479 -0.4008
 7620TIP3    H222825   4.932   6.571   2.866  2.0615  2.7732  0.9095
 7621TIP3   OH222826   5.367   1.425   5.655  0.3172 -0.0017 -0.1905
 7621TIP3    H122827   5.419   1.505   5.646  1.3208 -0.1639  2.9733
 7621TIP3    H222828   5.362   1.390   5.566 -0.0740  3.4463 -1.6963
 7622TIP3   OH222829   3.978   5.776   3.173  0.0443 -0.1586  0.0468
 7622TIP3    H122830   4.045   5.811   3.114  1.3992 -2.4388  0.1283
 7622TIP3    H222831   4.025   5.760   3.255 -0.6182 -1.6552  0.1558
 7623TIP3   OH222832   6.261   2.449   5.904 -0.1261 -0.1633  0.4197
 7623TIP3    H122833   6.210   2.427   5.826  0.6135 -1.3036  0.2334
 7623TIP3    H222834   6.217   2.526   5.941 -1.0459 -0.1867 -0.5847
 7624TIP3   OH222835   4.878   0.621   2.923  0.1027 -0.0901  0.2096
 7624TIP3    H122836   4.824   0.572   2.861  0.5095 -1.1943  0.7087
 7624TIP3    H222837   4.820   0.690   2.955 -0.1220  0.4859 -1.3591
 7625TIP3   OH222838   0.262   3.016   0.414 -0.0829 -0.2098 -0.9980
 7625TIP3    H122839   0.202   3.088   0.434 -0.5315 -0.4612 -1.4196
 7625TIP3    H222840   0.337   3.058   0.373  0.5310  0.2360  0.5045
 7626TIP3   OH222841   5.857   5.110   4.108 -0.0190  0.3375  0.8792
 7626TIP3    H122842   5.939   5.091   4.155 -0.1927  1.2346  1.5854
 7626TIP3    H222843   5.854   5.206   4.104 -0.7974  0.3003  0.4347
 7627TIP3   OH222844   4.578   1.871   2.176 -0.7909 -0.4859  0.0335
 7627TIP3    H122845   4.671   1.857   2.193 -0.4412 -0.2435 -1.5001
 7627TIP3    H222846   4.574   1.886   2.082 -2.1987  1.0026  0.2901
 7628TIP3   OH222847   5.819   0.301   2.729  0.4931 -0.0071  0.1252
 7628TIP3    H122848   5.747   0.257   2.775  0.0675  0.2164 -0.3149
 7628TIP3    H222849   5.827   0.252   2.646  0.9244 -0.1002  0.2191
 7629TIP3   OH222850   3.855   1.423   1.071  0.0845 -0.0123  0.0506
 7629TIP3    H122851   3.797   1.473   1.013 -1.4183 -1.4591  0.2253
 7629TIP3    H222852   3.926   1.394   1.015 -0.4876  0.0095 -0.7002
 7630TIP3   OH222853   3.759   2.056   2.138 -0.1789 -0.3414  0.2943
 7630TIP3    H122854   3.791   1.985   2.194 -2.6527 -2.2768 -0.5089
 7630TIP3    H222855   3.837   2.091   2.095  1.4723 -0.5309  2.9307
 7631TIP3   OH222856   0.198   4.844   2.022 -0.1273  0.5474  0.1827
 7631TIP3    H122857   0.241   4.826   2.105 -1.9212  0.5783  1.1747
 7631TIP3    H222858   0.217   4.936   2.005  1.4572  0.1790 -0.2287
 7632TIP3   OH222859   3.453  -0.011   4.779  0.2334 -0.0480  0.0414
 7632TIP3    H122860   3.526   0.011   4.721  0.5856  0.8526  0.8185
 7632TIP3    H222861   3.487   0.001   4.867 -0.9252  0.6555  0.4129
 7633TIP3   OH222862   2.759   6.327   2.785  0.1577 -0.0681  0.1604
 7633TIP3    H122863   2.727   6.416   2.799  3.7856  1.2011  1.2692
 7633TIP3    H222864   2.756   6.316   2.690 -0.2129  1.2705 -0.0099
 7634TIP3   OH222865   1.252   3.915   2.620  0.0909 -0.0376 -0.2137
 7634TIP3    H122866   1.175   3.919   2.563 -0.9885 -0.3330  1.1674
 7634TIP3    H222867   1.307   3.847   2.582  0.6885  1.5431 -2.3886
 7635TIP3   OH222868   5.710   3.739   0.301 -0.0523  0.5929  0.9915
 7635TIP3    H122869   5.653   3.746   0.377 -1.3511 -1.9770  0.3897
 7635TIP3    H222870   5.700   3.823   0.255 -0.7320  1.4487  2.6267
 7636TIP3   OH222871   3.683   4.496   3.376 -0.6587  0.4299 -0.2850
 7636TIP3    H122872   3.776   4.476   3.368 -1.1880 -1.8267 -1.4838
 7636TIP3    H222873   3.641   4.447   3.306 -2.9046  0.3674  0.9973
 7637TIP3   OH222874   5.323   5.045   4.476  0.1476  0.6460  0.6091
 7637TIP3    H122875   5.249   5.081   4.427  0.4752 -1.0812 -1.3009
 7637TIP3    H222876   5.285   4.973   4.527  0.5960 -0.9663 -1.2191
 7638TIP3   OH222877   1.238   1.217   3.268  0.5068 -0.4692 -0.4087
 7638TIP3    H122878   1.230   1.132   3.310 -0.2647  0.4370  1.3711
 7638TIP3    H222879   1.297   1.267   3.324 -0.8156  0.8827 -0.1499
 7639TIP3   OH222880   3.235   0.994   1.177 -0.0237 -0.2733  0.1172
 7639TIP3    H122881   3.158   0.980   1.233  0.2559  2.3889  1.2880
 7639TIP3    H222882   3.298   0.929   1.208 -0.9370 -0.8574  0.8275
 7640TIP3   OH222883   4.263   0.152   1.652 -0.0963 -0.2061  0.3327
 7640TIP3    H122884   4.345   0.196   1.674  1.2859 -1.5221 -1.8405
 7640TIP3    H222885   4.256   0.082   1.716 -0.7063  1.1774  1.8664
 7641TIP3   OH222886   4.568   2.771   5.782  0.2141  0.2575 -0.0133
 7641TIP3    H122887   4.622   2.832   5.832  0.5291  0.6956 -0.8748
 7641TIP3    H222888   4.630   2.718   5.733 -0.1190  0.6017 -0.8256
 7642TIP3   OH222889   2.081   3.748   3.824 -0.0142 -0.0193  0.2325
 7642TIP3    H122890   2.127   3.828   3.800 -0.4326  0.7692  1.9323
 7642TIP3    H222891   1.996   3.778   3.857 -0.9309 -1.2993 -0.8200
 7643TIP3   OH222892   3.624   6.316   4.037 -0.0735  0.2986 -0.5101
 7643TIP3    H122893   3.592   6.232   4.070  1.2988 -0.1534 -0.2614
 7643TIP3    H222894   3.545   6.366   4.018 -0.9176 -0.9809 -0.4858
 7644TIP3   OH222895   6.387   2.165   5.038 -0.1533  0.7202 -0.1899
 7644TIP3    H122896   6.417   2.243   4.991  2.3462 -0.0196  0.0317
 7644TIP3    H222897   6.409   2.092   4.981  0.7138 -0.0245  1.0369
 7645TIP3   OH222898   0.284   0.517   2.209 -0.3218 -0.5334 -0.4634
 7645TIP3    H122899   0.318   0.480   2.127  0.5194  2.1445 -1.4361
 7645TIP3    H222900   0.283   0.612   2.194 -2.2147 -0.0796  1.8826
 7646TIP3   OH222901   3.627   5.185   4.418 -0.1622  0.3458 -0.0795
 7646TIP3    H122902   3.670   5.265   4.446  1.7185 -1.0583  1.3003
 7646TIP3    H222903   3.542   5.186   4.463 -0.1875  1.5796 -0.1438
 7647TIP3   OH222904   5.693   0.520   1.956  0.3688  0.4828 -0.0183
 7647TIP3    H122905   5.715   0.464   2.030  0.4266  1.2059  0.5189
 7647TIP3    H222906   5.628   0.581   1.989  0.1248  0.5862 -0.6623
 7648TIP3   OH222907   2.929   3.117   4.587  0.8152 -0.2642 -0.2140
 7648TIP3    H122908   2.954   3.038   4.538  2.4659  0.8893 -1.3219
 7648TIP3    H222909   2.937   3.188   4.524  2.6925  1.2350  1.5937
 7649TIP3   OH222910   3.094   0.648   4.377 -0.4108 -0.5609  0.2290
 7649TIP3    H122911   3.101   0.742   4.395  0.6544 -0.8112  1.1783
 7649TIP3    H222912   3.177   0.611   4.407 -0.9748 -1.8685  0.2427
 7650TIP3   OH222913   1.780   6.355   5.159 -0.1127 -0.2404  0.6628
 7650TIP3    H122914   1.874   6.346   5.149 -0.0504 -1.5410  2.1768
 7650TIP3    H222915   1.756   6.424   5.096  1.7878 -0.0354  0.1083
 7651TIP3   OH222916   2.346   1.417   3.111 -0.5773  0.3296  0.1763
 7651TIP3    H122917   2.307   1.452   3.031 -0.7941 -0.6082 -0.1364
 7651TIP3    H222918   2.317   1.326   3.115  0.2047  0.0918  0.8232
 7652TIP3   OH222919   2.781   1.631   0.680  0.0588 -0.0049 -0.4058
 7652TIP3    H122920   2.844   1.673   0.621 -0.4653 -0.6482 -1.4507
 7652TIP3    H222921   2.697   1.636   0.633 -0.2694 -1.0105  0.0446
 7653TIP3   OH222922   0.523   6.726   5.586  0.3676 -0.0031  0.4846
 7653TIP3    H122923   0.487   6.814   5.573  1.2074  0.3612  0.5033
 7653TIP3    H222924   0.584   6.737   5.660  0.8160 -0.4972  0.1910
 7654TIP3   OH222925   1.707   2.704   0.411 -0.3812  0.4260 -0.4145
 7654TIP3    H122926   1.780   2.733   0.357  0.6119 -1.7546 -0.3752
 7654TIP3    H222927   1.644   2.667   0.349 -0.2323 -0.1004 -0.2574
 7655TIP3   OH222928   3.295   0.839   2.313 -0.0871  0.3048 -0.1834
 7655TIP3    H122929   3.314   0.920   2.266  0.0942 -0.2970 -1.1643
 7655TIP3    H222930   3.306   0.862   2.406  0.2576  1.3173 -0.4642
 7656TIP3   OH222931   1.105   3.273   4.183 -0.0973  0.0605 -0.1078
 7656TIP3    H122932   1.037   3.219   4.143  0.9089 -1.8186  0.5761
 7656TIP3    H222933   1.181   3.215   4.187  0.4664  0.8769  2.5385
 7657TIP3   OH222934   6.684   0.861   4.635  0.3213  0.0136 -0.6343
 7657TIP3    H122935   6.708   0.788   4.692 -0.4678  0.3543  0.1624
 7657TIP3    H222936   6.758   0.870   4.575  0.8603 -0.8080 -0.1186
 7658TIP3   OH222937   0.776   4.475   4.664 -0.1190 -0.3426 -0.2172
 7658TIP3    H122938   0.745   4.425   4.739  1.7540  0.8595  1.4708
 7658TIP3    H222939   0.705   4.538   4.647 -0.2571 -0.1400  1.0364
 7659TIP3   OH222940   1.749   0.464   2.350 -0.0086 -0.2460 -0.0816
 7659TIP3    H122941   1.834   0.423   2.368 -0.1680 -0.6610 -0.2760
 7659TIP3    H222942   1.709   0.408   2.283  0.8895  1.6397 -2.3565
 7660TIP3   OH222943   2.543   2.114   4.439  0.6689  0.2238  0.3168
 7660TIP3    H122944   2.592   2.032   4.429  0.2959  0.0918 -0.5324
 7660TIP3    H222945   2.607   2.183   4.420  0.4862  0.0440 -1.0886
 7661TIP3   OH222946   2.001   3.534   2.413  0.2728 -0.4474 -0.0611
 7661TIP3    H122947   1.964   3.531   2.325 -0.4732  0.0912  0.2225
 7661TIP3    H222948   1.946   3.475   2.464 -0.7895  1.0081  0.5587
 7662TIP3   OH222949   3.157   3.355   0.689 -0.0589  0.0861  0.3331
 7662TIP3    H122950   3.106   3.340   0.610 -0.1292  0.2048  0.3564
 7662TIP3    H222951   3.233   3.406   0.660  0.7962 -1.2863  0.0406
 7663TIP3   OH222952   6.721   2.575   4.103 -0.1626  0.1133 -0.0928
 7663TIP3    H122953   6.721   2.630   4.025  1.1407 -0.0535 -0.2241
 7663TIP3    H222954   6.673   2.626   4.168 -0.9739  0.3966 -0.8853
 7664TIP3   OH222955   4.631   3.647   0.575  0.2247 -0.2220  0.4372
 7664TIP3    H122956   4.724   3.665   0.560  0.8633 -2.8579  0.8736
 7664TIP3    H222957   4.606   3.588   0.505 -1.1312  0.3572  0.4038
 7665TIP3   OH222958   4.272   0.670   2.037 -0.2664 -1.2229  0.0033
 7665TIP3    H122959   4.208   0.676   2.107  0.2883  0.5575  0.4147
 7665TIP3    H222960   4.223   0.691   1.958 -0.5112 -1.3786  0.1126
 7666TIP3   OH222961   4.676   6.304   4.898  0.1132  0.2742  0.5409
 7666TIP3    H122962   4.601   6.331   4.845  0.5795  1.0173  0.2489
 7666TIP3    H222963   4.674   6.361   4.975  0.0312 -0.1111  0.8275
 7667TIP3   OH222964   6.489   3.500   5.799 -0.5861 -0.6185  0.0123
 7667TIP3    H122965   6.564   3.448   5.769 -0.6678 -0.2398 -0.8973
 7667TIP3    H222966   6.502   3.510   5.893  1.7460  1.3850 -0.4227
 7668TIP3   OH222967   4.010   4.473   0.737 -0.2223 -0.3020  0.2851
 7668TIP3    H122968   4.070   4.428   0.796  0.8787  0.1982 -0.4100
 7668TIP3    H222969   4.059   4.482   0.655 -0.4566  1.9972  0.3456
 7669TIP3   OH222970   4.487   5.745   0.891  0.3693  0.2229  0.0796
 7669TIP3    H122971   4.530   5.731   0.807 -0.6272 -0.3136 -0.3593
 7669TIP3    H222972   4.559   5.751   0.954  1.0842 -2.2319 -0.3827
 7670TIP3   OH222973   5.465   1.440   1.230 -0.9036 -0.4366 -0.1757
 7670TIP3    H122974   5.388   1.497   1.224 -1.4283 -0.6911  2.6904
 7670TIP3    H222975   5.467   1.413   1.322  1.5921 -1.9079 -0.5879
 7671TIP3   OH222976   6.964   4.221   5.780  0.6859 -0.1762  0.4717
 7671TIP3    H122977   7.031   4.246   5.843  0.8222  2.2915 -0.5382
 7671TIP3    H222978   6.898   4.290   5.787  0.1186 -0.4923 -1.2168
 7672TIP3   OH222979   0.860   1.435   0.464  0.1804  0.2614 -0.5475
 7672TIP3    H122980   0.895   1.471   0.382 -2.2686  1.8440 -1.0008
 7672TIP3    H222981   0.894   1.492   0.532  1.6999 -0.6764 -0.4593
 7673TIP3   OH222982   1.378   1.746   0.608 -0.2966 -0.1674 -0.6004
 7673TIP3    H122983   1.418   1.738   0.521  0.1049  1.2096 -0.5679
 7673TIP3    H222984   1.453   1.741   0.668 -0.4133  0.3338 -0.4165
 7674TIP3   OH222985   5.762   1.959   2.701  0.3824  0.2430  0.1232
 7674TIP3    H122986   5.814   2.031   2.738  0.0723  1.6119 -1.9186
 7674TIP3    H222987   5.672   1.990   2.708  0.0707 -0.8133  0.9343
 7675TIP3   OH222988   0.260   0.590   0.951 -0.0320  0.1081  0.3109
 7675TIP3    H122989   0.216   0.552   0.875  2.4860 -0.4351 -0.9867
 7675TIP3    H222990   0.271   0.682   0.929 -1.0160  0.3873  0.9171
 7676TIP3   OH222991   1.756   4.977   3.086  0.1141  0.1551  0.0964
 7676TIP3    H122992   1.773   5.065   3.120 -0.8087  0.2208  0.3922
 7676TIP3    H222993   1.812   4.920   3.139 -0.2591  0.4200  0.7890
 7677TIP3   OH222994   3.520   2.331   4.278  0.0362  0.1250  0.1095
 7677TIP3    H122995   3.434   2.324   4.237  0.4014 -2.5655 -0.3299
 7677TIP3    H222996   3.501   2.334   4.372 -0.5372 -0.3505  0.0170
 7678TIP3   OH222997   6.959   4.022   0.428 -0.5966  0.1272  0.5032
 7678TIP3    H122998   6.911   4.056   0.353 -0.9954  0.7090  1.0131
 7678TIP3    H222999   6.954   4.092   0.494 -0.3379 -0.4101  1.1073
 7679TIP3   OH223000   0.150   3.089   5.061  0.3145  0.5310 -0.2782
 7679TIP3    H123001   0.191   3.141   4.992 -2.6201  1.5874 -1.3522
 7679TIP3    H223002   0.062   3.069   5.028 -0.6991 -0.1602  2.5503
 7680TIP3   OH223003   6.432   0.777   4.813  0.1499  0.3040  0.5593
 7680TIP3    H123004   6.475   0.778   4.727  1.2048 -0.8128  1.0304
 7680TIP3    H223005   6.372   0.702   4.808 -0.5329  0.8526  0.4654
 7681TIP3   OH223006   0.090   1.077   2.127  0.3946 -0.1392  0.1584
 7681TIP3    H123007   0.105   1.022   2.050  1.1523  0.2915 -0.0146
 7681TIP3    H223008   0.040   1.022   2.187 -0.8261 -0.2565 -0.9142
 7682TIP3   OH223009   2.664   3.253   1.666  0.2542 -0.6735 -0.9965
 7682TIP3    H123010   2.690   3.278   1.578 -1.8393 -2.8266 -2.3587
 7682TIP3    H223011   2.661   3.157   1.664  1.2881 -0.8746  1.8138
 7683TIP3   OH223012   0.166   1.216   3.353 -0.2378 -0.5184  0.3270
 7683TIP3    H123013   0.144   1.139   3.300 -0.7329 -0.0326 -0.1860
 7683TIP3    H223014   0.081   1.258   3.371  0.1755  1.0988 -1.2278
 7684TIP3   OH223015   0.497   5.831   2.881 -0.6013 -0.7272 -0.3069
 7684TIP3    H123016   0.510   5.889   2.956  0.4794  0.2331 -1.2064
 7684TIP3    H223017   0.404   5.835   2.863 -0.7359 -0.2880  0.4387
 7685TIP3   OH223018   6.596   6.185   2.076  0.9817 -0.3724  0.7699
 7685TIP3    H123019   6.652   6.233   2.137 -0.4562  1.4798  0.7304
 7685TIP3    H223020   6.578   6.102   2.121  0.9246  0.4536  2.3641
 7686TIP3   OH223021   1.573   3.980   1.378  0.1160  0.5420 -0.5862
 7686TIP3    H123022   1.612   3.981   1.290 -0.2035 -0.2406 -0.7447
 7686TIP3    H223023   1.563   4.073   1.400  2.4388  0.7964 -0.3592
 7687TIP3   OH223024   1.370   5.129   2.394 -0.1146  0.1115 -0.1859
 7687TIP3    H123025   1.329   5.214   2.378 -0.5821 -0.0613  0.0580
 7687TIP3    H223026   1.347   5.077   2.317  1.0372  0.5120 -0.8209
 7688TIP3   OH223027   0.863   3.612   5.261 -0.8604 -0.3052 -0.2764
 7688TIP3    H123028   0.817   3.540   5.305  0.2218 -0.3351  0.8548
 7688TIP3    H223029   0.900   3.664   5.332  2.8047 -1.5494 -1.0726
 7689TIP3   OH223030   1.317   6.362   3.152  0.5512  0.6097 -0.1919
 7689TIP3    H123031   1.272   6.352   3.235  0.0146  2.1702 -0.2542
 7689TIP3    H223032   1.249   6.388   3.090  1.0676  0.2044 -0.9463
 7690TIP3   OH223033   4.657   2.649   0.240 -0.1367  0.3201  0.0950
 7690TIP3    H123034   4.614   2.677   0.320  1.1028  3.0781 -0.0926
 7690TIP3    H223035   4.736   2.704   0.234  0.8273 -1.1418 -2.0248
 7691TIP3   OH223036   4.666   5.518   2.804 -0.1503 -0.5846  0.0943
 7691TIP3    H123037   4.689   5.439   2.755  1.7522 -0.7254  1.1160
 7691TIP3    H223038   4.748   5.566   2.812 -1.1995  1.3515 -0.1851
 7692TIP3   OH223039   3.335   2.130   1.626 -0.1155  0.2114  0.4332
 7692TIP3    H123040   3.294   2.086   1.701 -1.2022  0.5602  0.0613
 7692TIP3    H223041   3.363   2.214   1.661  1.2462 -0.4211  0.9447
 7693TIP3   OH223042   7.144   0.920   0.849 -0.8312 -0.6876 -0.2714
 7693TIP3    H123043   7.068   0.937   0.905 -1.3099  0.8627 -1.3389
 7693TIP3    H223044   7.215   0.902   0.910 -1.7927 -1.0506  0.7737
 7694TIP3   OH223045   6.149   2.791   1.831 -0.2228 -0.0828 -0.4211
 7694TIP3    H123046   6.194   2.739   1.764 -0.0925  0.8712 -1.0948
 7694TIP3    H223047   6.212   2.859   1.853  0.5028 -1.4491  2.0716
 7695TIP3   OH223048   6.487   5.398   3.464  0.7009 -0.0164  0.3956
 7695TIP3    H123049   6.494   5.354   3.379  2.4926 -2.1932  1.5466
 7695TIP3    H223050   6.396   5.384   3.490  0.7642 -1.6186 -0.0753
 7696TIP3   OH223051   3.731   0.492   4.965  0.0205  0.1482 -0.0591
 7696TIP3    H123052   3.728   0.505   4.871  2.9394  2.0329 -0.0250
 7696TIP3    H223053   3.773   0.406   4.976 -2.3423 -1.1405 -0.3538
 7697TIP3   OH223054   5.314   2.209   3.280  0.1776 -0.0353  0.2801
 7697TIP3    H123055   5.325   2.175   3.369  0.5590  0.8286  0.5749
 7697TIP3    H223056   5.390   2.266   3.266 -1.2893  2.0940  0.4750
 7698TIP3   OH223057   2.122   5.801   5.609  0.0821  0.4218 -0.3557
 7698TIP3    H123058   2.094   5.710   5.612 -1.2190  0.7590 -1.1787
 7698TIP3    H223059   2.188   5.804   5.540 -0.0225  0.1345 -0.4705
 7699TIP3   OH223060   2.815   1.458   5.078 -0.0988 -0.2652 -0.1604
 7699TIP3    H123061   2.906   1.454   5.046 -0.2741 -3.0094 -0.5706
 7699TIP3    H223062   2.821   1.436   5.171 -0.1360  2.2680  0.4973
 7700TIP3   OH223063   0.112   2.278   0.340  0.0759 -0.5721 -0.0429
 7700TIP3    H123064   0.117   2.194   0.385 -2.8497 -0.3125  0.9492
 7700TIP3    H223065   0.111   2.343   0.411  4.1853  0.6036 -0.7909
 7701TIP3   OH223066   2.859   6.202   0.275  0.3550 -0.1735  0.5234
 7701TIP3    H123067   2.927   6.157   0.225  1.3169 -1.7779  3.0804
 7701TIP3    H223068   2.882   6.295   0.267 -0.1671 -0.2055 -2.7550
 7702TIP3   OH223069   5.539   1.304   4.525  0.8046  0.1969  0.0329
 7702TIP3    H123070   5.560   1.350   4.606  1.9790 -0.5862  0.1980
 7702TIP3    H223071   5.577   1.358   4.456  1.1678  0.0765  0.1351
 7703TIP3   OH223072   0.339   0.512   4.902 -0.7341 -0.4114  0.5184
 7703TIP3    H123073   0.312   0.544   4.816 -1.1272 -0.2459  0.7015
 7703TIP3    H223074   0.325   0.586   4.961 -0.1647 -0.4245  0.6716
 7704TIP3   OH223075   4.030   1.794   4.751  0.0579  0.3498 -0.1834
 7704TIP3    H123076   3.959   1.731   4.739 -0.1932  0.8510 -1.4900
 7704TIP3    H223077   4.100   1.763   4.693  0.7198  0.1725  0.6785
 7705TIP3   OH223078   6.374   6.827   0.919 -0.0447  0.0475 -0.0076
 7705TIP3    H123079   6.453   6.865   0.955 -0.6718  1.1103  0.2667
 7705TIP3    H223080   6.394   6.733   0.911  1.4418  0.3812 -0.5111
 7706TIP3   OH223081   1.461   1.664   0.342 -0.0324 -0.0607  0.2546
 7706TIP3    H123082   1.391   1.599   0.350  0.2661 -0.3635  0.4473
 7706TIP3    H223083   1.445   1.706   0.258 -0.0207 -0.6401 -0.0437
 7707TIP3   OH223084   2.945   3.382   3.722 -0.7495  0.0819 -0.4481
 7707TIP3    H123085   3.012   3.370   3.654 -0.8311 -1.5568 -0.2856
 7707TIP3    H223086   2.863   3.359   3.679 -1.0840  1.0849 -0.3586
 7708TIP3   OH223087   0.539   0.810   1.618  0.5318 -0.4007 -0.2844
 7708TIP3    H123088   0.527   0.790   1.711  1.3947  2.9672  0.7145
 7708TIP3    H223089   0.566   0.902   1.617 -0.4528  0.0083 -3.9661
 7709TIP3   OH223090   1.520   5.184   1.858  0.0814 -0.2029 -0.5481
 7709TIP3    H123091   1.560   5.257   1.810 -2.0376  0.2662 -1.7119
 7709TIP3    H223092   1.594   5.140   1.899  1.5095  2.2542 -0.2556
 7710TIP3   OH223093   5.519   6.040   5.127 -0.1594 -0.1731 -0.1092
 7710TIP3    H123094   5.481   6.128   5.128 -2.2985 -1.0280  1.2364
 7710TIP3    H223095   5.530   6.017   5.219  0.1330 -1.4047 -0.4333
 7711TIP3   OH223096   4.947   6.159   4.074 -0.4968  0.4835  0.1932
 7711TIP3    H123097   5.003   6.216   4.021 -1.4637  0.6563 -0.6737
 7711TIP3    H223098   4.858   6.182   4.048 -0.9308 -0.9601  0.3063
 7712TIP3   OH223099   1.213   0.625   5.092  0.2657  0.0378 -0.0381
 7712TIP3    H123100   1.200   0.626   5.187 -0.5295 -3.2435 -0.0062
 7712TIP3    H223101   1.146   0.685   5.059  0.5594  1.2443  1.4342
 7713TIP3   OH223102   6.818   3.752   4.590  0.4713  0.1090  0.3970
 7713TIP3    H123103   6.750   3.744   4.657  0.2629  1.1599  0.3138
 7713TIP3    H223104   6.771   3.747   4.507  0.3795  1.6346  0.3362
 7714TIP3   OH223105   1.829   0.414   4.089  0.3331  0.4944 -0.2540
 7714TIP3    H123106   1.851   0.465   4.011  1.2871 -0.5741 -0.7064
 7714TIP3    H223107   1.905   0.423   4.147 -0.6641  1.8892  0.9221
 7715TIP3   OH223108   5.633   2.832   1.502  0.4034 -0.1394  0.0366
 7715TIP3    H123109   5.581   2.907   1.475  1.8523  0.7673 -0.3312
 7715TIP3    H223110   5.678   2.861   1.581 -2.5278 -2.2126  2.7339
 7716TIP3   OH223111   6.355   3.829   0.359  0.0676  0.5685  0.2113
 7716TIP3    H123112   6.396   3.813   0.443  0.1994 -2.5544 -0.3272
 7716TIP3    H223113   6.406   3.900   0.320  1.2031  0.7635  1.9562
 7717TIP3   OH223114   1.785   0.969   4.298  0.0808  0.3123 -0.0125
 7717TIP3    H123115   1.830   0.884   4.303  0.8951  0.7071 -0.4986
 7717TIP3    H223116   1.696   0.946   4.269  0.5159 -0.3225 -0.9226
 7718TIP3   OH223117   0.506   3.008   3.075  0.1202  0.1532  0.3303
 7718TIP3    H123118   0.545   3.086   3.036  0.4442 -1.0553 -1.8910
 7718TIP3    H223119   0.562   2.936   3.047 -1.0550 -1.0695  1.0046
 7719TIP3   OH223120   2.176   1.127   3.424  0.0475  0.9049 -0.3969
 7719TIP3    H123121   2.114   1.186   3.465 -1.4604 -0.2678 -0.9180
 7719TIP3    H223122   2.154   1.129   3.331  0.2576 -0.1170 -0.4838
 7720TIP3   OH223123   1.413   2.608   4.996  0.0989  0.5885  0.1788
 7720TIP3    H123124   1.428   2.528   4.945 -0.5336  1.0469 -0.7598
 7720TIP3    H223125   1.449   2.678   4.940  2.0865  0.8436  1.6577
 7721TIP3   OH223126   1.446   1.324   2.214 -0.2612 -0.0465 -0.0107
 7721TIP3    H123127   1.435   1.343   2.307 -1.2513  1.4249 -0.3799
 7721TIP3    H223128   1.482   1.405   2.177  0.5841 -0.7784 -0.8403
 7722TIP3   OH223129   1.235   1.609   1.402 -0.1727  0.3133 -0.4979
 7722TIP3    H123130   1.292   1.685   1.412 -2.2921  2.0920 -1.1917
 7722TIP3    H223131   1.271   1.561   1.328  0.5182  1.2898 -0.8115
 7723TIP3   OH223132   1.790   3.790   2.168  0.5812  0.0913  0.0112
 7723TIP3    H123133   1.742   3.707   2.171  1.4953 -0.4699  2.9417
 7723TIP3    H223134   1.745   3.842   2.102 -1.6235 -1.8009 -0.0956
 7724TIP3   OH223135   2.872   4.352   1.318 -0.1841 -0.6559 -0.1765
 7724TIP3    H123136   2.883   4.270   1.366 -3.0938 -0.1824  1.5190
 7724TIP3    H223137   2.812   4.403   1.371 -1.9152  0.8376 -3.2910
 7725TIP3   OH223138   3.356   6.515   5.883  0.2360  0.3425  0.7237
 7725TIP3    H123139   3.433   6.562   5.850 -0.0105  2.5545  2.9188
 7725TIP3    H223140   3.369   6.425   5.856  2.9548  0.8876 -0.1049
 7726TIP3   OH223141   5.123   1.042   0.463 -0.1923 -0.4533  0.1580
 7726TIP3    H123142   5.049   1.034   0.524  1.2388 -0.1960  2.0018
 7726TIP3    H223143   5.197   1.003   0.509  1.4448  1.6310 -0.5454
 7727TIP3   OH223144   5.035   1.923   1.077 -0.4341  0.1801  0.1502
 7727TIP3    H123145   4.989   1.877   1.007 -0.7219  0.9539 -0.1748
 7727TIP3    H223146   5.123   1.938   1.043 -0.8112  1.2883 -0.3956
 7728TIP3   OH223147   6.538   3.802   5.020 -0.1336  0.0663 -0.3468
 7728TIP3    H123148   6.632   3.814   5.038  0.2360  0.5964 -2.3817
 7728TIP3    H223149   6.498   3.885   5.043 -0.6164 -0.9546  3.0278
 7729TIP3   OH223150   6.298   0.463   5.661 -0.0753  0.7622  0.2406
 7729TIP3    H123151   6.241   0.396   5.624 -0.8346  0.6488  1.5730
 7729TIP3    H223152   6.258   0.546   5.634  0.3635  0.7042 -0.6423
 7730TIP3   OH223153   4.338   3.612   2.973 -0.1712  0.0313  0.1445
 7730TIP3    H123154   4.419   3.583   2.930 -0.0416  0.6155 -0.0084
 7730TIP3    H223155   4.328   3.703   2.946 -0.9817 -0.0879  0.0122
 7731TIP3   OH223156   2.566   3.078   3.415  0.3955 -0.6119  0.4560
 7731TIP3    H123157   2.638   3.107   3.359 -0.7033  1.0118 -0.1759
 7731TIP3    H223158   2.567   2.982   3.408  2.9309 -0.7139  1.0738
 7732TIP3   OH223159   1.215   2.784   2.205 -0.2979 -0.2756 -0.3867
 7732TIP3    H123160   1.283   2.846   2.178  0.9288 -0.6588  1.6265
 7732TIP3    H223161   1.229   2.772   2.299 -2.2658 -1.4849 -0.1898
 7733TIP3   OH223162   2.884   4.578   3.625 -0.0653  0.1480 -0.6354
 7733TIP3    H123163   2.894   4.660   3.576 -1.1221  0.9329  0.3804
 7733TIP3    H223164   2.824   4.601   3.697  0.4086 -1.2765  0.2543
 7734TIP3   OH223165   0.977   5.478   3.661  0.2881 -0.2838 -0.2628
 7734TIP3    H123166   1.026   5.540   3.714 -0.4070 -0.3102  0.4254
 7734TIP3    H223167   1.041   5.443   3.600  1.2199 -0.5777  0.8503
 7735TIP3   OH223168   0.949   3.861   3.881 -0.1555 -0.4416 -0.7030
 7735TIP3    H123169   0.945   3.957   3.883 -0.5160 -0.4140 -1.9481
 7735TIP3    H223170   1.016   3.841   3.817  0.6706 -1.0473  0.3178
 7736TIP3   OH223171   0.472   3.360   0.111 -0.4945 -0.4954 -0.2318
 7736TIP3    H123172   0.509   3.423   0.049 -0.2575 -0.3960  0.0074
 7736TIP3    H223173   0.383   3.345   0.080 -1.5484  2.0555  1.2503
 7737TIP3   OH223174   5.354   2.677   2.841  0.1187  0.1082 -0.1100
 7737TIP3    H123175   5.387   2.643   2.924 -0.2528  1.3430  0.5717
 7737TIP3    H223176   5.288   2.613   2.813  1.5880 -1.3091 -0.4485
 7738TIP3   OH223177   6.856   1.161   2.085  0.1061 -0.3325  0.4156
 7738TIP3    H123178   6.928   1.224   2.090  0.4768 -0.7368  0.1906
 7738TIP3    H223179   6.876   1.096   2.152 -0.7599  0.2701  1.2948
 7739TIP3   OH223180   0.161   5.247   4.834  0.2950 -0.3012 -0.2830
 7739TIP3    H123181   0.166   5.197   4.916  0.7183  1.1964  0.6504
 7739TIP3    H223182   0.099   5.199   4.780 -0.7264 -0.8190  1.2944
 7740TIP3   OH223183   3.175   1.271   3.803 -0.1052 -0.3901 -0.0061
 7740TIP3    H123184   3.226   1.351   3.791 -2.1372  1.0847  0.7456
 7740TIP3    H223185   3.218   1.226   3.876  0.9173  0.1142 -0.2805
 7741TIP3   OH223186   2.024   1.618   3.399  0.4189  0.2472  0.0638
 7741TIP3    H123187   1.965   1.567   3.454  0.7756 -2.1246 -1.5958
 7741TIP3    H223188   1.966   1.669   3.342 -0.0036 -0.2351  0.0544
 7742TIP3   OH223189   5.136   0.097   3.178  0.6112  0.4922 -0.3540
 7742TIP3    H123190   5.141   0.061   3.089 -0.7065 -2.8013  0.7499
 7742TIP3    H223191   5.044   0.086   3.203  0.5679  2.9458  0.8927
 7743TIP3   OH223192   3.851   5.561   5.077 -0.9272 -0.0128 -0.1282
 7743TIP3    H123193   3.819   5.528   5.161  0.4362 -0.7297  0.1385
 7743TIP3    H223194   3.930   5.609   5.099 -0.3945 -0.4592 -1.0392
 7744TIP3   OH223195   4.496   6.229   4.186 -0.1761  0.1984 -0.6638
 7744TIP3    H123196   4.526   6.143   4.157  0.1941  0.2668 -0.4942
 7744TIP3    H223197   4.571   6.287   4.172 -0.2411  0.3826 -0.2767
 7745TIP3   OH223198   6.076   0.773   4.935 -0.3341 -0.0161 -0.4840
 7745TIP3    H123199   6.116   0.839   4.991  0.8595 -0.6809 -0.5071
 7745TIP3    H223200   6.041   0.822   4.860  1.5693  0.4965 -1.0873
 7746TIP3   OH223201   1.405   4.687   3.910 -0.3459  0.5811  0.4796
 7746TIP3    H123202   1.470   4.757   3.906 -0.1392  0.5310  2.1677
 7746TIP3    H223203   1.328   4.728   3.948 -0.9220  0.3502 -0.3988
 7747TIP3   OH223204   5.798   6.473   1.498  0.4406  0.2452 -0.1831
 7747TIP3    H123205   5.730   6.440   1.555 -0.9957 -0.5899 -2.2589
 7747TIP3    H223206   5.867   6.407   1.501 -0.7118 -1.0535 -1.2790
 7748TIP3   OH223207   0.288   2.920   3.918 -0.2583 -0.1557 -0.3209
 7748TIP3    H123208   0.377   2.952   3.932 -1.1474  1.6581  1.6757
 7748TIP3    H223209   0.298   2.826   3.903  2.0538  0.1977 -1.3371
 7749TIP3   OH223210   2.554   5.483   2.374  0.1260 -0.2831 -0.1608
 7749TIP3    H123211   2.494   5.509   2.444  1.9008  0.6193  1.1206
 7749TIP3    H223212   2.567   5.563   2.322  0.3429 -0.4181 -0.3164
 7750TIP3   OH223213   1.518   1.733   5.677  0.0816 -0.2614 -0.0091
 7750TIP3    H123214   1.446   1.707   5.733 -1.3471 -0.9562 -2.0540
 7750TIP3    H223215   1.570   1.653   5.666 -1.0436 -0.8170 -1.6109
 7751TIP3   OH223216   2.707   2.213   3.852  0.5220  0.6967 -0.3001
 7751TIP3    H123217   2.797   2.245   3.849  0.3761  1.1064 -0.5442
 7751TIP3    H223218   2.704   2.154   3.927  0.3400  2.7485  1.4157
 7752TIP3   OH223219   4.831   6.664   5.840 -0.0544 -0.1461 -0.1360
 7752TIP3    H123220   4.800   6.600   5.776 -0.4367  0.0328 -0.1331
 7752TIP3    H223221   4.753   6.690   5.888  0.4406 -1.3880  1.4294
 7753TIP3   OH223222   6.953   2.996   3.118 -0.1082 -0.2556  0.2500
 7753TIP3    H123223   7.029   3.003   3.175 -0.7701 -0.4715  1.1790
 7753TIP3    H223224   6.990   2.984   3.030  0.9170 -1.6721  0.8464
 7754TIP3   OH223225   4.741   0.597   3.248 -0.6747 -0.6328  0.0111
 7754TIP3    H123226   4.707   0.607   3.337  0.2458 -1.2266  0.4451
 7754TIP3    H223227   4.694   0.522   3.213 -1.2737 -0.1987 -0.1229
 7755TIP3   OH223228   1.404   1.275   0.521 -0.2490  0.0398  0.2124
 7755TIP3    H123229   1.314   1.299   0.498 -1.3110 -1.5813  2.2770
 7755TIP3    H223230   1.411   1.295   0.614  1.1808 -0.8184  0.3176
 7756TIP3   OH223231   1.172   5.759   5.353 -0.4475  0.2016  0.4180
 7756TIP3    H123232   1.268   5.757   5.347 -0.5441 -1.7531 -2.2897
 7756TIP3    H223233   1.148   5.842   5.312  0.0641 -0.3842 -1.1490
 7757TIP3   OH223234   3.193   4.948   1.502 -0.4863 -1.1311 -0.2335
 7757TIP3    H123235   3.117   4.920   1.451 -1.3889  2.2410 -0.9638
 7757TIP3    H223236   3.268   4.933   1.445 -1.3008  0.9065 -1.9821
 7758TIP3   OH223237   5.632   1.572   2.110 -0.3835  0.0867  0.1998
 7758TIP3    H123238   5.674   1.643   2.159 -0.5850  1.0396 -0.9434
 7758TIP3    H223239   5.538   1.589   2.119 -0.4914 -0.9424  1.1862
 7759TIP3   OH223240   3.163   6.081   2.019 -0.6571  0.6246  0.0326
 7759TIP3    H123241   3.256   6.090   2.040 -0.7392  1.8340 -0.0673
 7759TIP3    H223242   3.143   5.988   2.036  0.5437  0.3684  0.1065
 7760TIP3   OH223243   5.228   1.466   3.662  0.0644  0.2281 -0.1003
 7760TIP3    H123244   5.201   1.457   3.571  0.7201 -0.5238 -0.2337
 7760TIP3    H223245   5.323   1.455   3.661 -0.0581 -1.2325  0.8292
 7761TIP3   OH223246   1.095   3.586   2.888  0.6604 -0.0091  0.9444
 7761TIP3    H123247   1.046   3.656   2.932  1.7103  0.9350  0.6728
 7761TIP3    H223248   1.186   3.600   2.915  1.0045 -0.7634  0.2312
 7762TIP3   OH223249   3.853   3.832   4.219  0.0794 -0.3141 -0.6420
 7762TIP3    H123250   3.940   3.797   4.236 -0.4629 -0.7281  1.5873
 7762TIP3    H223251   3.801   3.805   4.295 -1.4713  1.6157 -0.9398
 7763TIP3   OH223252   6.437   5.549   2.719  0.4046  0.3048  0.1743
 7763TIP3    H123253   6.430   5.610   2.792  1.5730  0.5001  0.1325
 7763TIP3    H223254   6.523   5.509   2.729  0.2054 -0.3349 -0.5812
 7764TIP3   OH223255   6.562   5.363   2.112  0.3193 -0.0194 -0.2268
 7764TIP3    H123256   6.529   5.280   2.146  1.6625 -0.4247  0.1372
 7764TIP3    H223257   6.542   5.427   2.181  0.5780 -0.3149  0.1225
 7765TIP3   OH223258   3.236   4.706   3.934 -0.8120 -0.2197 -0.1737
 7765TIP3    H123259   3.268   4.740   4.017  0.8212 -0.0638 -0.8220
 7765TIP3    H223260   3.143   4.690   3.948 -0.7957  0.8413  1.3373
 7766TIP3   OH223261   1.023   5.581   0.117  0.3362 -0.1158 -0.3786
 7766TIP3    H123262   1.028   5.675   0.099 -1.7763  0.1458  0.2121
 7766TIP3    H223263   1.061   5.571   0.204 -0.4112  0.3583  0.0084
 7767TIP3   OH223264   1.522   4.052   3.210 -0.5805 -0.4549  0.7482
 7767TIP3    H123265   1.553   3.961   3.206  0.3855 -0.0914 -0.4986
 7767TIP3    H223266   1.547   4.089   3.126 -0.6814  1.0641  1.3666
 7768TIP3   OH223267   2.713   3.315   2.727 -0.9092 -0.3676 -0.5009
 7768TIP3    H123268   2.689   3.227   2.697 -1.0687 -0.7184  0.6056
 7768TIP3    H223269   2.780   3.344   2.665 -3.2622  0.1561 -2.9781
 7769TIP3   OH223270   3.341   0.048   5.600 -0.0398 -0.3147  0.0521
 7769TIP3    H123271   3.379   0.136   5.601 -1.0282  0.1498  1.5973
 7769TIP3    H223272   3.389   0.001   5.668  1.0319 -1.2611 -1.3093
 7770TIP3   OH223273   5.476   2.017   1.524 -0.1873 -0.2372  0.1250
 7770TIP3    H123274   5.450   1.941   1.473  0.9502  1.6167 -3.6290
 7770TIP3    H223275   5.571   2.023   1.512  0.0551  0.6861  2.0380
 7771TIP3   OH223276   1.550   0.582   4.294  0.5220  0.4241  0.0832
 7771TIP3    H123277   1.474   0.610   4.345  0.2400 -0.2822  0.0611
 7771TIP3    H223278   1.597   0.521   4.352  0.4552 -0.0144 -0.3167
 7772TIP3   OH223279   2.182   1.711   1.434 -0.4666 -0.3002  0.1597
 7772TIP3    H123280   2.218   1.641   1.379  1.5110  0.2021  0.7509
 7772TIP3    H223281   2.233   1.708   1.514 -1.7460  0.5168  1.0477
 7773TIP3   OH223282   5.748   2.103   1.763  0.5167  0.1634 -0.0028
 7773TIP3    H123283   5.757   2.197   1.749  0.4021 -0.0319 -1.5938
 7773TIP3    H223284   5.655   2.089   1.780  0.8268  0.5395  2.2143
 7774TIP3   OH223285   2.991   2.609   2.389  0.4651  0.4595  0.0308
 7774TIP3    H123286   2.899   2.597   2.414  0.1497  1.0348 -0.7808
 7774TIP3    H223287   2.988   2.681   2.326  1.2852 -0.5499 -1.1923
 7775TIP3   OH223288   7.062   3.354   4.228 -0.0379  0.3866 -0.0025
 7775TIP3    H123289   6.979   3.306   4.232 -0.2698  0.7038 -0.7462
 7775TIP3    H223290   7.036   3.443   4.200  0.6346  0.2436 -1.1437
 7776TIP3   OH223291   3.049   0.396   5.686  0.2654  0.5992 -0.1014
 7776TIP3    H123292   3.077   0.381   5.776  0.8602 -0.1995 -0.4092
 7776TIP3    H223293   3.098   0.473   5.658  1.7455 -0.4302 -0.4369
 7777TIP3   OH223294   6.153   2.755   1.406  0.2500  0.1365 -0.0360
 7777TIP3    H123295   6.060   2.734   1.404  0.1997  0.3392  0.2207
 7777TIP3    H223296   6.196   2.672   1.385  0.0592 -0.3354  1.3194
 7778TIP3   OH223297   0.524   4.008   5.456  0.3988  0.1646 -0.0776
 7778TIP3    H123298   0.558   3.945   5.519  1.0001  1.8201  1.3425
 7778TIP3    H223299   0.541   4.093   5.496 -0.4106  1.2425 -1.8982
 7779TIP3   OH223300   0.559   1.862   0.914  0.2357  0.4467 -0.4902
 7779TIP3    H123301   0.639   1.908   0.888  2.6951 -3.2147 -0.1930
 7779TIP3    H223302   0.573   1.839   1.006 -1.2024 -0.2523 -0.4199
 7780TIP3   OH223303   1.993   0.321   2.409  0.4795 -0.1584  0.0205
 7780TIP3    H123304   1.957   0.280   2.487  0.8877 -0.5992 -0.0144
 7780TIP3    H223305   2.074   0.363   2.439  0.9459 -0.8274 -0.2677
 7781TIP3   OH223306   2.548   0.619   3.920 -0.1049 -0.5075 -0.4488
 7781TIP3    H123307   2.454   0.601   3.926 -0.3467  0.5061 -0.9555
 7781TIP3    H223308   2.589   0.547   3.967 -1.1925 -0.3328  0.8562
 7782TIP3   OH223309   1.627   0.562   0.738 -0.2959  0.5273  0.5268
 7782TIP3    H123310   1.537   0.559   0.770 -0.9808  1.4782 -1.2145
 7782TIP3    H223311   1.620   0.595   0.649  1.7303 -0.0368  0.1124
 7783TIP3   OH223312   4.947   5.900   0.143 -0.2317  0.4861  0.1480
 7783TIP3    H123313   5.022   5.844   0.128  0.4873  1.1401  1.1519
 7783TIP3    H223314   4.872   5.841   0.144  0.1146 -0.0449 -1.9601
 7784TIP3   OH223315   5.774   6.758   0.149  0.6488  0.3383 -0.0361
 7784TIP3    H123316   5.681   6.750   0.172  0.9548  1.5001  1.8498
 7784TIP3    H223317   5.775   6.766   0.054 -1.2474  0.9256 -0.0505
 7785TIP3   OH223318   0.497   5.325   5.684  0.2737  0.3993 -0.3037
 7785TIP3    H123319   0.555   5.315   5.609  1.9253  0.2027  0.9627
 7785TIP3    H223320   0.460   5.237   5.697  0.2338  0.3594 -0.6609
 7786TIP3   OH223321   1.502   1.217   1.126 -0.5023  0.4441  0.2452
 7786TIP3    H123322   1.531   1.179   1.043 -1.0620  0.8630 -0.1410
 7786TIP3    H223323   1.583   1.248   1.167  0.1741 -2.1537  1.1249
 7787TIP3   OH223324   4.542   4.904   5.095 -0.5661 -0.3270 -0.0502
 7787TIP3    H123325   4.450   4.889   5.074 -0.3202 -0.7348 -0.8725
 7787TIP3    H223326   4.560   4.846   5.169 -1.3012  0.7278  0.9923
 7788TIP3   OH223327   0.899   5.532   5.168 -0.1531 -0.1790 -0.2822
 7788TIP3    H123328   0.870   5.445   5.193 -2.5305  0.0147 -1.9938
 7788TIP3    H223329   0.901   5.581   5.250 -0.0301 -1.4827  0.5278
 7789TIP3   OH223330   2.486   1.595   1.325  0.8276  0.7952 -0.9287
 7789TIP3    H123331   2.499   1.665   1.260  0.3458 -0.0003 -1.9117
 7789TIP3    H223332   2.459   1.641   1.404  0.0094  1.6940 -1.6997
 7790TIP3   OH223333   3.166   3.880   5.099  0.1253  0.1080  0.2509
 7790TIP3    H123334   3.073   3.860   5.086 -0.3282  1.8834  0.5012
 7790TIP3    H223335   3.207   3.856   5.016 -0.5846 -0.4808  0.0541
 7791TIP3   OH223336   7.247   1.712   0.397 -0.0298 -0.2395 -0.6289
 7791TIP3    H123337   7.172   1.772   0.393  0.1563 -0.0304 -1.1074
 7791TIP3    H223338   7.220   1.637   0.345 -0.9292 -1.3608  1.3393
 7792TIP3   OH223339   5.679   4.239   1.409 -0.0291 -0.0233 -0.2167
 7792TIP3    H123340   5.588   4.264   1.426  0.0529 -0.6359  1.3276
 7792TIP3    H223341   5.693   4.163   1.465  1.3207 -0.1688 -0.7339
 7793TIP3   OH223342   4.898   4.372   0.428  0.0493  0.0892  0.2518
 7793TIP3    H123343   4.939   4.292   0.394  0.6169 -0.6073  2.3527
 7793TIP3    H223344   4.829   4.340   0.486 -1.2724  1.2129 -0.6418
 7794TIP3   OH223345   1.914   0.220   5.284 -0.1191  0.2886 -0.5247
 7794TIP3    H123346   1.938   0.272   5.207  1.3092 -1.5319 -1.3974
 7794TIP3    H223347   1.948   0.132   5.265  1.0481 -0.0398  2.5415
 7795TIP3   OH223348   3.757   4.367   4.136 -0.1952 -0.4274 -0.3688
 7795TIP3    H123349   3.788   4.327   4.055  0.8297 -0.9125  0.2337
 7795TIP3    H223350   3.777   4.302   4.204  0.7308  0.7388  0.5213
 7796TIP3   OH223351   6.549   2.460   3.644 -0.8394 -0.5601  0.0178
 7796TIP3    H123352   6.601   2.380   3.639 -0.0032 -0.0438  0.3302
 7796TIP3    H223353   6.550   2.495   3.555 -0.0010 -0.1556  0.1766
 7797TIP3   OH223354   5.780   0.321   1.638  0.0563 -0.0260 -0.1713
 7797TIP3    H123355   5.782   0.416   1.647 -0.6428  0.0020 -0.2626
 7797TIP3    H223356   5.745   0.290   1.722 -0.7853 -0.1322 -0.5576
 7798TIP3   OH223357   4.805   4.532   5.216 -0.0867  0.1541 -0.0985
 7798TIP3    H123358   4.870   4.469   5.248  1.4266  0.6428 -2.0247
 7798TIP3    H223359   4.834   4.554   5.128 -2.4057  1.1030 -0.6998
 7799TIP3   OH223360   4.942   6.105   4.620 -0.2198 -0.5137 -0.0482
 7799TIP3    H123361   4.872   6.117   4.683 -2.2594  0.3118 -2.3183
 7799TIP3    H223362   4.987   6.025   4.648 -1.1227 -0.2716  2.2728
 7800TIP3   OH223363   6.747   3.690   3.416 -0.2088  0.0211 -0.5791
 7800TIP3    H123364   6.843   3.683   3.422 -0.2447 -0.8200 -0.8736
 7800TIP3    H223365   6.728   3.674   3.324 -0.5514  1.3874 -0.7596
 7801TIP3   OH223366   1.270   0.566   1.809  0.1126 -0.7737 -0.0248
 7801TIP3    H123367   1.219   0.487   1.796 -0.7728 -0.0710 -0.8686
 7801TIP3    H223368   1.348   0.554   1.754 -1.3853  0.1523 -2.4943
 7802TIP3   OH223369   0.706   3.089   1.847  0.2582  0.6000  0.1355
 7802TIP3    H123370   0.768   3.138   1.793  0.1119 -1.6393 -2.2702
 7802TIP3    H223371   0.740   3.097   1.936  1.9292  2.4263 -0.5983
 7803TIP3   OH223372   5.944   3.446   1.512  0.4624  0.2170 -0.0391
 7803TIP3    H123373   6.021   3.442   1.456  0.5558 -0.2885  0.1131
 7803TIP3    H223374   5.913   3.536   1.506  1.3647  0.5586  0.2946
 7804TIP3   OH223375   0.830   0.273   5.634 -0.2397 -0.2237  0.2539
 7804TIP3    H123376   0.845   0.227   5.551 -0.1551  0.9837 -0.4212
 7804TIP3    H223377   0.755   0.228   5.672 -0.9662 -0.1196 -1.0003
 7805TIP3   OH223378   4.090   1.514   0.391  0.1585  0.1833  0.1497
 7805TIP3    H123379   4.053   1.601   0.402  0.1707  0.1548  0.4331
 7805TIP3    H223380   4.132   1.495   0.476  1.8531  0.7060 -0.5243
 7806TIP3   OH223381   0.016   4.412   4.454  0.3214 -0.5745 -0.2527
 7806TIP3    H123382   0.015   4.321   4.425  0.4254 -0.3805 -0.8619
 7806TIP3    H223383   0.082   4.455   4.399 -0.7414  0.1993 -0.9564
 7807TIP3   OH223384   3.287   3.192   1.981 -0.0408 -0.4722  0.0989
 7807TIP3    H123385   3.200   3.224   2.001  0.4237  1.0853 -0.2022
 7807TIP3    H223386   3.328   3.264   1.931  2.3989  0.1177  2.6844
 7808TIP3   OH223387   5.172   5.769   3.397  0.2920  0.6751 -0.2535
 7808TIP3    H123388   5.094   5.726   3.430  0.5226 -0.7798 -1.5221
 7808TIP3    H223389   5.140   5.831   3.332  0.1328  0.7985 -0.0592
 7809TIP3   OH223390   3.987   2.782   3.663 -0.4009  0.1742 -0.0194
 7809TIP3    H123391   4.001   2.694   3.699  0.7554  0.6082  0.6166
 7809TIP3    H223392   3.948   2.831   3.735  0.0327  0.4955 -0.0033
 7810TIP3   OH223393   3.896   3.438   2.225 -0.5203 -1.1437  0.2523
 7810TIP3    H123394   3.918   3.355   2.183  0.8187 -0.0859 -1.2640
 7810TIP3    H223395   3.847   3.486   2.158 -1.2439 -0.6729  1.0966
 7811TIP3   OH223396   3.845   1.934   2.391  0.1757 -0.2043  0.5065
 7811TIP3    H123397   3.780   1.880   2.436  1.0371 -1.4977  0.2665
 7811TIP3    H223398   3.869   1.882   2.314  1.8988 -0.0327  0.8935
 7812TIP3   OH223399   3.761   5.415   4.875  0.3415 -0.2659 -0.2206
 7812TIP3    H123400   3.837   5.362   4.852  1.6865  1.0910  0.9181
 7812TIP3    H223401   3.796   5.485   4.929 -1.9108 -0.4203  1.6047
 7813TIP3   OH223402   5.514   5.831   1.962  0.2427 -0.2963 -0.0603
 7813TIP3    H123403   5.601   5.859   1.935  0.2518 -0.0237  0.2495
 7813TIP3    H223404   5.527   5.742   1.997  0.4538 -0.1242  0.3033
 7814TIP3   OH223405   0.038   5.146   3.256  0.2190  0.1178  0.5879
 7814TIP3    H123406   0.030   5.241   3.240  0.3021 -0.2003 -1.6743
 7814TIP3    H223407   0.002   5.106   3.176  0.1034 -1.7681  1.5516
 7815TIP3   OH223408   4.830   0.091   4.491  0.0877  0.0148 -0.8034
 7815TIP3    H123409   4.822   0.077   4.585  1.5785  0.5697 -0.5684
 7815TIP3    H223410   4.778   0.170   4.475  1.1709  0.8948 -0.1337
 7816TIP3   OH223411   1.323   6.528   4.706  0.4658 -0.1846 -0.2830
 7816TIP3    H123412   1.295   6.615   4.676  0.1287 -0.4216 -0.6840
 7816TIP3    H223413   1.262   6.506   4.777  1.0904  0.2623  0.3936
 7817TIP3   OH223414   3.418   4.701   0.782  0.5432 -0.5650  0.4955
 7817TIP3    H123415   3.325   4.725   0.775  0.5465 -0.8189 -0.6119
 7817TIP3    H223416   3.419   4.606   0.774  0.8798 -0.5964  0.8596
 7818TIP3   OH223417   3.133   4.014   3.465 -0.1902  0.1600  0.2243
 7818TIP3    H123418   3.077   3.984   3.393 -0.7378 -1.8812  1.4003
 7818TIP3    H223419   3.072   4.052   3.528 -0.4534 -2.4929  1.7207
 7819TIP3   OH223420   3.609   2.918   1.034  0.7973 -0.7456  0.2828
 7819TIP3    H123421   3.549   2.854   0.995  0.3834 -0.1859 -0.0153
 7819TIP3    H223422   3.696   2.887   1.009  0.5304 -0.0153 -1.7499
 7820TIP3   OH223423   4.923   2.310   0.803  0.2001  0.1097 -0.2314
 7820TIP3    H123424   4.950   2.219   0.817  0.3029  0.3593  1.3629
 7820TIP3    H223425   4.998   2.351   0.761  1.4036  0.1697  1.8176
 7821TIP3   OH223426   4.043   6.491   4.572 -0.2987 -0.1819 -0.0196
 7821TIP3    H123427   4.070   6.476   4.663  0.4180  1.2396  0.0239
 7821TIP3    H223428   4.121   6.469   4.521 -1.5953 -4.0574 -0.6365
 7822TIP3   OH223429   7.060   5.055   3.944  0.2687 -0.0744  0.5193
 7822TIP3    H123430   6.990   4.998   3.914  0.4567  0.1468 -0.3511
 7822TIP3    H223431   7.104   5.004   4.013  0.5932 -1.1009 -0.4112
 7823TIP3   OH223432   1.202   4.738   5.395  0.8769  0.4217 -0.0252
 7823TIP3    H123433   1.225   4.671   5.460  1.5703 -0.1800 -0.8571
 7823TIP3    H223434   1.283   4.749   5.344  0.1626  0.3897 -1.1974
 7824TIP3   OH223435   0.069   0.578   1.157 -0.4827 -0.5452  0.1047
 7824TIP3    H123436   0.047   0.488   1.181  0.3770 -0.6480  0.5725
 7824TIP3    H223437   0.095   0.574   1.065 -0.2543 -0.8116  0.1819
 7825TIP3   OH223438   2.420   6.183   0.720 -0.2565 -0.1172  0.1675
 7825TIP3    H123439   2.455   6.163   0.807 -0.2175  0.2333  0.2358
 7825TIP3    H223440   2.496   6.212   0.670  0.1731 -2.5072 -0.6971
 7826TIP3   OH223441   5.063   2.704   2.527 -0.2926 -0.3669 -0.6554
 7826TIP3    H123442   5.100   2.622   2.561 -1.3465 -1.5751 -2.3286
 7826TIP3    H223443   5.070   2.696   2.432 -0.7078  1.3724 -0.8608
 7827TIP3   OH223444   6.766   1.887   2.976 -0.1334  0.0978  0.3287
 7827TIP3    H123445   6.684   1.909   2.933  0.0761 -0.7510 -0.5378
 7827TIP3    H223446   6.795   1.969   3.016 -1.5026  0.3464  0.8401
 7828TIP3   OH223447   4.189   4.909   1.627  0.1452  0.0656 -0.4676
 7828TIP3    H123448   4.104   4.866   1.617 -0.5835  0.2989  3.1969
 7828TIP3    H223449   4.237   4.852   1.687  1.9260  0.8657 -1.0764
 7829TIP3   OH223450   5.013   2.684   3.773  0.4859  0.2023 -0.8525
 7829TIP3    H123451   5.063   2.728   3.841 -2.5661  1.2181  0.9595
 7829TIP3    H223452   5.053   2.713   3.691  1.9354  2.0364  0.4285
 7830TIP3   OH223453   5.050   4.465   5.832  0.0129  0.1053  0.6006
 7830TIP3    H123454   4.958   4.452   5.859 -0.1258 -2.6501 -0.8889
 7830TIP3    H223455   5.100   4.407   5.890  0.7431  0.9162  0.8015
 7831TIP3   OH223456   0.661   5.058   5.276 -0.3435 -0.3594 -0.5524
 7831TIP3    H123457   0.582   5.064   5.330 -0.5309 -0.4282 -0.8179
 7831TIP3    H223458   0.693   5.148   5.271 -1.2869 -0.0561 -1.7554
 7832TIP3   OH223459   6.345   3.514   3.260 -0.0988  0.1625  0.0235
 7832TIP3    H123460   6.405   3.481   3.193  1.3099 -2.5346  2.3996
 7832TIP3    H223461   6.360   3.609   3.261  0.6042  0.1676 -2.6441
 7833TIP3   OH223462   2.207   0.132   2.198  0.1321 -0.0637 -0.2226
 7833TIP3    H123463   2.289   0.167   2.163  0.7844 -1.7330 -0.4290
 7833TIP3    H223464   2.234   0.065   2.261 -1.0645  0.9290  1.4317
 7834TIP3   OH223465   6.924   2.106   3.556  0.1523 -0.2355  0.0815
 7834TIP3    H123466   7.011   2.144   3.543 -0.0008 -0.0800 -0.5009
 7834TIP3    H223467   6.919   2.092   3.651  0.9692 -0.6376  0.0763
 7835TIP3   OH223468   4.657   0.533   2.789  0.0956  0.0132 -0.2271
 7835TIP3    H123469   4.609   0.602   2.742 -1.8697 -0.8080  0.4367
 7835TIP3    H223470   4.668   0.463   2.725  1.3241  0.5800 -0.6572
 7836TIP3   OH223471   7.025   3.634   4.464 -0.7177 -0.3347  0.0536
 7836TIP3    H123472   6.949   3.645   4.522  0.1801  2.8304  0.8064
 7836TIP3    H223473   6.997   3.671   4.380 -0.5728 -0.8170 -0.2096
 7837TIP3   OH223474   1.435   0.582   0.960  0.0980 -0.0158  0.1563
 7837TIP3    H123475   1.387   0.501   0.976  1.3708 -1.1884 -1.5693
 7837TIP3    H223476   1.510   0.579   1.020  0.4774 -0.4489 -0.3265
 7838TIP3   OH223477   4.718   0.685   2.386  0.4118 -0.0759  0.0375
 7838TIP3    H123478   4.678   0.605   2.421 -0.4465 -1.0876 -2.9257
 7838TIP3    H223479   4.650   0.724   2.331  1.3172  1.9253  0.2537
 7839TIP3   OH223480   4.216   5.072   5.619  0.8722  0.3463 -0.0069
 7839TIP3    H123481   4.263   5.034   5.544 -0.3235 -0.5310 -0.3298
 7839TIP3    H223482   4.267   5.046   5.695  1.4469  0.2413 -0.4178
 7840TIP3   OH223483   2.772   4.759   3.402 -0.0926  0.6043 -0.7007
 7840TIP3    H123484   2.783   4.702   3.325  0.5170 -0.6887  0.2957
 7840TIP3    H223485   2.677   4.765   3.414 -0.1690 -1.0788 -0.2377
 7841TIP3   OH223486   1.791   2.874   0.627 -0.0379 -0.6034 -0.2171
 7841TIP3    H123487   1.760   2.803   0.571  1.3278 -1.2996 -0.1250
 7841TIP3    H223488   1.878   2.895   0.594  0.2527 -0.1212  0.8090
 7842TIP3   OH223489   5.967   4.357   0.210  0.1917 -0.3183  0.1662
 7842TIP3    H123490   5.926   4.424   0.265 -3.1269 -2.2235  0.2901
 7842TIP3    H223491   6.028   4.312   0.268 -1.0872 -0.4073  1.4887
 7843TIP3   OH223492   6.933   1.373   5.679  0.0367 -0.1945  0.2782
 7843TIP3    H123493   6.941   1.300   5.739  1.4975 -1.4043 -1.2889
 7843TIP3    H223494   7.021   1.385   5.643 -0.5145  1.2786 -0.7031
 7844TIP3   OH223495   6.915   4.991   5.674  0.0222 -0.2673 -0.0559
 7844TIP3    H123496   6.952   5.076   5.647 -0.3856  0.0329  0.3242
 7844TIP3    H223497   6.951   4.929   5.611 -0.4245  0.3338 -0.9258
 7845TIP3   OH223498   5.262   4.167   5.220  0.0732  0.6034  0.4281
 7845TIP3    H123499   5.262   4.201   5.310 -0.7529 -0.6681  0.9329
 7845TIP3    H223500   5.178   4.194   5.184  0.0093  0.3061  0.3543
 7846TIP3   OH223501   7.075   6.657   5.286 -0.1632  0.2256 -0.2209
 7846TIP3    H123502   7.044   6.567   5.275  0.1015  0.1862 -0.6507
 7846TIP3    H223503   7.116   6.657   5.373  0.9235 -0.3909 -0.7119
 7847TIP3   OH223504   3.248   3.250   3.015 -0.0729  0.0905  0.6574
 7847TIP3    H123505   3.200   3.271   3.095 -1.3618 -3.0142  0.8189
 7847TIP3    H223506   3.331   3.213   3.046 -1.0640 -2.2410  0.6851
 7848TIP3   OH223507   2.797   2.730   2.196  0.2102  0.0404  0.0106
 7848TIP3    H123508   2.726   2.699   2.140 -1.2779  1.0997  1.2130
 7848TIP3    H223509   2.838   2.801   2.147  0.0052 -0.1313 -0.4161
 7849TIP3   OH223510   6.534   3.180   3.667 -0.2434 -0.1611 -0.0704
 7849TIP3    H123511   6.625   3.188   3.636 -0.0312 -2.4570 -0.1543
 7849TIP3    H223512   6.536   3.216   3.755  0.8004 -0.3897  0.0123
 7850TIP3   OH223513   1.339   3.681   4.208  0.7760 -1.0641  0.0050
 7850TIP3    H123514   1.399   3.645   4.142  1.2943  2.2382 -1.5793
 7850TIP3    H223515   1.255   3.689   4.163  0.1398 -2.1078  0.9676
 7851TIP3   OH223516   3.882   5.729   2.916  0.0749  0.4799  0.0035
 7851TIP3    H123517   3.924   5.801   2.963 -0.6717 -0.1930  1.7829
 7851TIP3    H223518   3.789   5.754   2.912  0.4325  1.8439 -3.6688
 7852TIP3   OH223519   4.160   1.995   4.175  0.5429 -0.0499  0.2591
 7852TIP3    H123520   4.086   1.981   4.234  0.4670 -4.7884 -0.6062
 7852TIP3    H223521   4.121   1.993   4.087  1.4996 -1.3208 -0.1652
 7853TIP3   OH223522   1.046   0.428   3.706  0.0242  0.6643  0.6141
 7853TIP3    H123523   1.122   0.377   3.679 -0.6765  0.1635 -0.5260
 7853TIP3    H223524   1.028   0.400   3.796 -1.2070 -2.2913 -0.4112
 7854TIP3   OH223525   5.618   5.896   4.692 -0.1103 -0.2577 -0.2812
 7854TIP3    H123526   5.633   5.897   4.597 -0.5375 -0.8333 -0.3619
 7854TIP3    H223527   5.704   5.914   4.730 -0.3468  2.2620 -0.8012
 7855TIP3   OH223528   4.127   0.197   4.602 -0.7194 -0.3397 -0.0996
 7855TIP3    H123529   4.075   0.249   4.541 -2.0393 -0.7811  0.6032
 7855TIP3    H223530   4.168   0.130   4.547 -0.3801  0.3876 -0.7558
 7856TIP3   OH223531   3.615   1.788   2.199 -0.2418 -0.2918 -0.0179
 7856TIP3    H123532   3.612   1.697   2.229 -2.3782  0.3233  1.9069
 7856TIP3    H223533   3.625   1.781   2.104 -1.4053 -2.5864 -0.0478
 7857TIP3   OH223534   4.447   6.231   2.324 -0.7997 -0.4260 -0.2541
 7857TIP3    H123535   4.459   6.326   2.325  0.0613 -0.5409  0.7297
 7857TIP3    H223536   4.353   6.219   2.307 -0.5525  0.5455 -2.6424
 7858TIP3   OH223537   2.229   1.012   5.454 -0.0702  0.6701  0.2728
 7858TIP3    H123538   2.279   0.937   5.488  0.2129  1.3790  1.4591
 7858TIP3    H223539   2.160   1.026   5.519 -1.4470  0.1089 -1.0295
 7859TIP3   OH223540   0.156   4.423   5.425  0.0420 -0.0898  0.0266
 7859TIP3    H123541   0.061   4.419   5.439  0.0856  0.7176  0.5810
 7859TIP3    H223542   0.192   4.445   5.510  0.6790  0.3520 -0.3488
 7860TIP3   OH223543   1.633   6.213   0.550  0.1378 -0.2398 -0.3612
 7860TIP3    H123544   1.560   6.270   0.526  1.0081  0.5684 -1.1200
 7860TIP3    H223545   1.647   6.158   0.473 -0.6285 -1.4562  0.3267
 7861TIP3   OH223546   6.041   6.126   0.059  0.7510  0.1241 -0.9770
 7861TIP3    H123547   6.079   6.052   0.106 -1.4095  0.9066  2.3013
 7861TIP3    H223548   6.116   6.180   0.034  2.0889 -0.5541  1.3064
 7862TIP3   OH223549   1.271   4.836   1.851 -0.6642 -0.2182 -0.2316
 7862TIP3    H123550   1.299   4.766   1.911 -0.0403  1.0826  1.0673
 7862TIP3    H223551   1.200   4.880   1.897 -1.5075 -0.3899 -1.3335
 7863TIP3   OH223552   7.014   2.713   0.394  0.2039  0.4180 -0.1791
 7863TIP3    H123553   6.997   2.619   0.380  0.4013  0.1909  1.0513
 7863TIP3    H223554   7.097   2.715   0.442 -0.2374  1.1821  0.5624
 7864TIP3   OH223555   2.532   3.585   5.544  0.3583 -0.6163 -0.1700
 7864TIP3    H123556   2.609   3.550   5.586  1.6526  0.7755 -1.2539
 7864TIP3    H223557   2.539   3.556   5.453  0.4887  0.8026 -0.6481
 7865TIP3   OH223558   5.250   6.090   2.474 -0.0439  0.0620  0.0235
 7865TIP3    H123559   5.251   6.137   2.391 -0.6897 -0.1269 -0.1025
 7865TIP3    H223560   5.178   6.130   2.523 -0.5679 -0.7341 -0.0656
 7866TIP3   OH223561   4.526   6.298   3.769  0.0152 -0.2441 -0.0912
 7866TIP3    H123562   4.549   6.390   3.782  1.7022 -0.5407 -0.7631
 7866TIP3    H223563   4.526   6.286   3.674 -0.6261 -0.8413 -0.0231
 7867TIP3   OH223564   5.971   0.081   2.897 -0.4957 -0.0904  0.2283
 7867TIP3    H123565   5.958   0.016   2.965  0.7814 -0.1864  0.3892
 7867TIP3    H223566   6.051   0.054   2.852 -0.8965  0.4033 -0.8196
 7868TIP3   OH223567   6.752   3.239   1.114  0.1070  0.1020 -0.3936
 7868TIP3    H123568   6.676   3.268   1.065  0.3825  1.8580  0.1450
 7868TIP3    H223569   6.729   3.253   1.206  1.2407  1.1632 -0.2464
 7869TIP3   OH223570   1.002   6.660   1.629  0.2206  0.2096  0.3883
 7869TIP3    H123571   0.922   6.709   1.611 -0.4086 -1.0386 -0.3942
 7869TIP3    H223572   0.982   6.609   1.707  1.1524  1.7614  1.6774
 7870TIP3   OH223573   5.015   2.644   5.505  0.2838  0.3290  0.1530
 7870TIP3    H123574   4.975   2.559   5.520  0.5699 -0.1410 -1.5372
 7870TIP3    H223575   5.106   2.633   5.531  0.6970 -0.3685 -1.5186
 7871TIP3   OH223576   2.201   4.646   3.397 -0.0896 -0.1837  0.3400
 7871TIP3    H123577   2.123   4.644   3.342  1.0615 -0.9315 -1.3691
 7871TIP3    H223578   2.202   4.561   3.441 -0.2662 -0.1549  0.3976
 7872TIP3   OH223579   2.167   6.244   3.191  0.4918 -0.0655 -0.3876
 7872TIP3    H123580   2.195   6.299   3.118  0.6900  1.2932  0.6751
 7872TIP3    H223581   2.087   6.286   3.222  0.0027 -1.0621 -0.2835
 7873TIP3   OH223582   5.661   6.085   1.630 -0.2265 -0.5921 -0.3574
 7873TIP3    H123583   5.581   6.033   1.631 -0.7546  0.2087 -0.1526
 7873TIP3    H223584   5.731   6.021   1.615 -0.8480 -1.3663 -0.0325
 7874TIP3   OH223585   3.589   2.497   0.857 -0.0364 -0.3001 -0.0677
 7874TIP3    H123586   3.585   2.448   0.775 -0.4781 -3.7808  1.8229
 7874TIP3    H223587   3.640   2.441   0.916 -1.3128  1.1312  2.5739
 7875TIP3   OH223588   4.233   2.830   0.963  0.0820 -0.9221 -0.3779
 7875TIP3    H123589   4.183   2.820   0.882 -1.3540 -3.3603  0.7227
 7875TIP3    H223590   4.300   2.762   0.959  0.2211 -0.8400  0.3435
 7876TIP3   OH223591   5.758   3.877   3.437 -0.1980 -0.4906 -0.4183
 7876TIP3    H123592   5.828   3.930   3.398 -0.6085  0.2277 -0.2073
 7876TIP3    H223593   5.798   3.836   3.514  0.3011 -1.0092 -0.9471
 7877TIP3   OH223594   6.673   5.173   0.073  0.0039  0.2690  0.1859
 7877TIP3    H123595   6.680   5.078   0.064  0.4469  0.4179 -1.4569
 7877TIP3    H223596   6.764   5.204   0.073 -0.1453  0.7176  0.2987
 7878TIP3   OH223597   4.286   5.892   3.767  0.2197 -0.3226  0.5209
 7878TIP3    H123598   4.301   5.984   3.786 -1.4599  0.1261 -0.1001
 7878TIP3    H223599   4.216   5.866   3.827 -0.3071 -0.7805 -0.2592
 7879TIP3   OH223600   4.817   3.949   4.240  0.1067  0.0948  0.0226
 7879TIP3    H123601   4.748   3.994   4.190  1.3128  1.3276 -0.5859
 7879TIP3    H223602   4.815   3.859   4.206 -0.4749  0.3838 -0.7630
 7880TIP3   OH223603   5.615   6.396   0.996  0.7203  0.3797 -0.6036
 7880TIP3    H123604   5.667   6.474   0.978  1.2146  0.7120  1.9106
 7880TIP3    H223605   5.530   6.414   0.956  1.1477  1.7517 -0.9418
 7881TIP3   OH223606   6.968   6.292   2.850 -0.6230  0.9195  0.1160
 7881TIP3    H123607   6.970   6.347   2.771  1.1017  1.0124  0.1949
 7881TIP3    H223608   6.964   6.355   2.922  0.2675  0.9275  0.1688
 7882TIP3   OH223609   0.382   2.460   3.250 -0.9687 -0.6256 -0.2334
 7882TIP3    H123610   0.472   2.440   3.276 -0.5209  2.2266  0.8014
 7882TIP3    H223611   0.336   2.473   3.333 -0.9676  2.9865 -0.6589
 7883TIP3   OH223612   2.933   4.088   3.659  0.2466 -0.1383 -0.1551
 7883TIP3    H123613   2.852   4.037   3.664  1.5954 -2.5516 -1.1021
 7883TIP3    H223614   2.937   4.135   3.742 -1.4020 -1.1064  0.5322
 7884TIP3   OH223615   5.220   3.881   2.097 -0.2453 -0.2268  0.5797
 7884TIP3    H123616   5.146   3.826   2.073 -0.0595  0.2096 -1.1031
 7884TIP3    H223617   5.194   3.970   2.072 -0.5633  0.5636  3.2973
 7885TIP3   OH223618   1.183   4.339   0.691  0.4455 -0.1007 -0.5997
 7885TIP3    H123619   1.211   4.413   0.746  0.2314  0.1204 -0.7918
 7885TIP3    H223620   1.243   4.341   0.617  0.7887 -0.4511 -0.3346
 7886TIP3   OH223621   0.587   0.278   5.752 -0.5848  0.1801 -0.3085
 7886TIP3    H123622   0.582   0.322   5.837 -2.0445 -0.8146  0.1556
 7886TIP3    H223623   0.505   0.302   5.708 -0.8324 -1.0406 -0.5525
 7887TIP3   OH223624   1.335   1.643   4.737  0.3844  0.0698  0.2121
 7887TIP3    H123625   1.254   1.679   4.771  0.8231  2.6226 -1.2195
 7887TIP3    H223626   1.356   1.571   4.796 -1.6673  0.8469  1.9977
 7888TIP3   OH223627   0.920   4.470   1.849  0.2128  0.1394  0.5043
 7888TIP3    H123628   0.897   4.386   1.810 -1.1150 -0.1756  1.8593
 7888TIP3    H223629   0.979   4.448   1.921  0.1545  0.3869  0.6327
 7889TIP3   OH223630   6.825   1.658   1.623 -0.3556 -0.3489  0.1661
 7889TIP3    H123631   6.869   1.576   1.600 -1.0223 -0.6641 -0.0157
 7889TIP3    H223632   6.876   1.694   1.695  1.6555  0.5381 -1.5930
 7890TIP3   OH223633   4.459   0.508   5.078  0.7939 -0.3913 -0.1206
 7890TIP3    H123634   4.550   0.479   5.090  0.6404 -1.4322 -1.3428
 7890TIP3    H223635   4.406   0.442   5.123  0.6130  0.0322  0.2992
 7891TIP3   OH223636   4.417   5.037   5.424 -0.7237  0.0058  0.3476
 7891TIP3    H123637   4.421   5.109   5.361 -1.1325  0.7354  1.1455
 7891TIP3    H223638   4.484   5.058   5.489  0.4141 -1.2693 -0.3482
 7892TIP3   OH223639   2.836   5.047   5.039 -0.0098  0.2474 -0.0478
 7892TIP3    H123640   2.786   5.045   5.121 -0.6969  2.1586 -0.3808
 7892TIP3    H223641   2.803   4.973   4.989 -0.8812  0.1353  0.6760
 7893TIP3   OH223642   1.435   6.403   0.487  0.1731  0.0875  0.0445
 7893TIP3    H123643   1.375   6.346   0.440  0.5182  0.2793 -0.6449
 7893TIP3    H223644   1.399   6.491   0.477  0.7206  0.2436 -0.6361
 7894TIP3   OH223645   6.845   4.908   1.004  0.2857 -0.8317  0.7229
 7894TIP3    H123646   6.902   4.971   0.960  2.1692 -1.6065  1.9225
 7894TIP3    H223647   6.861   4.825   0.958  0.0674 -1.0404  1.0200
 7895TIP3   OH223648   5.468   6.415   5.228 -0.2239 -0.0830  0.2642
 7895TIP3    H123649   5.448   6.445   5.316  0.4748 -1.3449  0.8833
 7895TIP3    H223650   5.387   6.374   5.197 -0.2665 -0.2653  0.6061
 7896TIP3   OH223651   3.419   5.943   3.655  0.6074 -0.1236 -0.4858
 7896TIP3    H123652   3.407   5.866   3.600 -0.4799 -0.8446  0.7036
 7896TIP3    H223653   3.358   6.008   3.619 -0.7613 -0.8915  0.3309
 7897TIP3   OH223654   6.582   5.075   0.876 -0.1152 -0.1404  0.1585
 7897TIP3    H123655   6.659   5.092   0.821 -1.0331 -1.1325 -1.5431
 7897TIP3    H223656   6.552   5.161   0.904  2.2968  0.2079  1.9225
 7898TIP3   OH223657   0.113   2.169   4.567  0.6844  0.0232  0.2311
 7898TIP3    H123658   0.172   2.236   4.602 -0.0836  0.8980 -0.1007
 7898TIP3    H223659   0.026   2.198   4.593  0.2550 -0.2893 -0.7916
 7899TIP3   OH223660   0.808   3.839   5.093 -0.1587 -0.1621 -0.5136
 7899TIP3    H123661   0.828   3.761   5.145  0.9601 -0.0939 -0.8184
 7899TIP3    H223662   0.769   3.900   5.156 -2.7685 -1.5784 -0.6193
 7900TIP3   OH223663   6.183   1.837   0.285  0.3083  0.1202 -0.1378
 7900TIP3    H123664   6.180   1.929   0.258 -0.1100 -0.3832 -1.9001
 7900TIP3    H223665   6.160   1.839   0.378  1.0810  1.8603  0.0621
 7901TIP3   OH223666   3.196   0.496   4.735  0.2110 -0.1009  0.6639
 7901TIP3    H123667   3.270   0.518   4.791 -0.0646  0.6775  0.7338
 7901TIP3    H223668   3.235   0.484   4.648  0.4063  0.4656  0.6664
 7902TIP3   OH223669   3.533   2.660   0.627 -0.2489 -0.0995  0.1661
 7902TIP3    H123670   3.468   2.606   0.583  0.8659 -1.0677 -0.3609
 7902TIP3    H223671   3.527   2.635   0.719  1.3219 -2.3839 -0.2663
 7903TIP3   OH223672   2.437   4.518   4.870  0.0626  0.2580 -0.1262
 7903TIP3    H123673   2.405   4.459   4.802 -1.5264  1.1411 -0.1881
 7903TIP3    H223674   2.448   4.462   4.947  0.9467 -0.5677 -0.8345
 7904TIP3   OH223675   1.681   5.747   3.443  0.5239  0.1965 -0.0707
 7904TIP3    H123676   1.672   5.837   3.474 -0.5668  0.0675  0.0099
 7904TIP3    H223677   1.775   5.734   3.437  0.7259  0.8567  1.3141
 7905TIP3   OH223678   5.212   3.007   0.635  0.0449  0.2613 -0.4539
 7905TIP3    H123679   5.155   2.981   0.707 -0.1514  2.2396  0.1546
 7905TIP3    H223680   5.185   2.952   0.562 -1.0489 -0.4566  0.4604
 7906TIP3   OH223681   6.247   4.867   5.190  0.4352 -0.1101  0.2280
 7906TIP3    H123682   6.162   4.831   5.215  0.2588 -1.0148 -1.4956
 7906TIP3    H223683   6.307   4.838   5.259 -0.1232 -1.9942 -0.0194
 7907TIP3   OH223684   6.655   5.092   4.454  0.2872 -0.1488 -0.3793
 7907TIP3    H123685   6.596   5.087   4.378  2.2679  1.8384 -2.1715
 7907TIP3    H223686   6.607   5.146   4.517  0.1069  1.4553 -1.8058
 7908TIP3   OH223687   0.792   3.696   4.872  0.5883 -0.3388  0.0927
 7908TIP3    H123688   0.778   3.731   4.960  1.0484 -1.2001  0.5234
 7908TIP3    H223689   0.875   3.649   4.877 -0.4098 -2.2581 -0.1887
 7909TIP3   OH223690   1.043   6.522   1.384  0.5716 -0.5020  0.1701
 7909TIP3    H123691   1.110   6.551   1.322 -0.8303  0.8597 -0.8044
 7909TIP3    H223692   1.028   6.598   1.440 -1.3533 -0.1385 -0.7592
 7910TIP3   OH223693   6.896   1.481   5.239 -0.4185 -0.5494 -0.4367
 7910TIP3    H123694   6.982   1.438   5.247  0.6413  1.4701 -0.4854
 7910TIP3    H223695   6.898   1.522   5.153 -1.0352  0.3769 -0.0159
 7911TIP3   OH223696   2.838   5.989   3.534  0.3304 -0.6367  0.4543
 7911TIP3    H123697   2.805   6.061   3.480 -0.1381 -1.7652 -0.8212
 7911TIP3    H223698   2.760   5.954   3.578  0.5919 -0.2342  1.2600
 7912TIP3   OH223699   3.383   4.044   5.797  0.5706  0.2091 -0.4979
 7912TIP3    H123700   3.423   4.114   5.849 -0.7156  0.7592 -0.2125
 7912TIP3    H223701   3.312   4.012   5.852 -1.6999  1.7004 -2.3721
 7913TIP3   OH223702   3.019   0.097   2.269 -0.4271  0.5987  0.0626
 7913TIP3    H123703   3.029   0.172   2.328 -2.0585 -0.2459  1.4784
 7913TIP3    H223704   2.993   0.025   2.326  3.7375 -1.9003 -0.7500
 7914TIP3   OH223705   0.366   1.260   2.249 -0.0496 -0.7977 -0.1227
 7914TIP3    H123706   0.355   1.192   2.315  1.0528 -0.4322  0.4420
 7914TIP3    H223707   0.455   1.291   2.260 -0.1426 -0.1009 -1.1895
 7915TIP3   OH223708   2.488   0.784   2.528  0.0052 -0.2055  0.2542
 7915TIP3    H123709   2.422   0.799   2.595  0.7666 -0.2046  1.0157
 7915TIP3    H223710   2.553   0.852   2.542  0.6487 -0.7820  0.1385
 7916TIP3   OH223711   6.947   6.700   4.394  0.7897  0.1445 -0.2161
 7916TIP3    H123712   6.887   6.775   4.392 -0.7834 -1.0385  0.4027
 7916TIP3    H223713   6.998   6.709   4.314  1.3907  2.4366  0.3551
 7917TIP3   OH223714   5.185   1.930   4.423  0.2409 -0.0218 -0.3334
 7917TIP3    H123715   5.213   1.848   4.463 -0.3952  0.6490  1.6228
 7917TIP3    H223716   5.262   1.987   4.429  0.2294 -0.0079 -0.3159
 7918TIP3   OH223717   4.753   2.590   5.744  0.6119  1.0405 -0.0392
 7918TIP3    H123718   4.831   2.548   5.780 -0.3817 -2.0102 -1.0445
 7918TIP3    H223719   4.765   2.585   5.649 -1.8773 -2.2660 -0.3827
 7919TIP3   OH223720   3.517   1.627   5.181 -0.4459  0.2585 -0.5325
 7919TIP3    H123721   3.539   1.708   5.227  1.8965 -1.7805  2.3286
 7919TIP3    H223722   3.422   1.630   5.172 -0.4770  3.1569 -0.3770
 7920TIP3   OH223723   2.483   4.034   1.544  0.1920  0.2049  0.2834
 7920TIP3    H123724   2.410   3.973   1.537  0.5177 -0.0855 -0.7549
 7920TIP3    H223725   2.450   4.104   1.600 -0.7395 -0.1249  0.1674
 7921TIP3   OH223726   4.761   0.473   4.780  0.3956 -0.0228 -0.2563
 7921TIP3    H123727   4.827   0.427   4.728  0.4378 -0.5213  0.2395
 7921TIP3    H223728   4.789   0.565   4.777  1.4507 -0.3066  0.4490
 7922TIP3   OH223729   2.419   4.961   3.228  0.7133  0.6491  0.3382
 7922TIP3    H123730   2.409   5.038   3.284 -0.7417 -0.6308  1.9674
 7922TIP3    H223731   2.422   4.996   3.139 -0.1275  2.5677  1.0076
 7923TIP3   OH223732   5.570   5.531   5.816  0.3932 -0.4359  0.5194
 7923TIP3    H123733   5.581   5.599   5.749  0.8626 -1.0609 -0.0413
 7923TIP3    H223734   5.543   5.580   5.895 -0.9789  0.2336 -0.3188
 7924TIP3   OH223735   0.506   1.430   2.763 -0.2257  0.4489 -0.1962
 7924TIP3    H123736   0.442   1.493   2.796  0.2075  1.0271 -0.4313
 7924TIP3    H223737   0.573   1.484   2.721  0.2467 -0.1634 -0.2454
 7925TIP3   OH223738   2.965   6.189   1.541  0.4895 -0.2478  0.1402
 7925TIP3    H123739   2.949   6.230   1.456 -1.4534  1.3518  1.1743
 7925TIP3    H223740   3.035   6.241   1.580 -0.0789  0.3907  0.3364
 7926TIP3   OH223741   4.927   1.098   5.786 -0.4214  0.2553 -0.0722
 7926TIP3    H123742   5.022   1.103   5.778 -0.1832 -2.5876  0.2624
 7926TIP3    H223743   4.895   1.171   5.732  1.8585 -0.4674 -2.6256
 7927TIP3   OH223744   3.923   3.904   5.569  0.6896  0.2565  0.1542
 7927TIP3    H123745   3.861   3.939   5.505 -0.7908 -2.4720 -0.0465
 7927TIP3    H223746   3.906   3.810   5.570  3.7039 -0.4008  1.3622
 7928TIP3   OH223747   4.812   5.678   5.674 -0.8539 -0.5673 -0.0800
 7928TIP3    H123748   4.878   5.625   5.632 -1.2066 -1.4353  0.4301
 7928TIP3    H223749   4.808   5.645   5.764 -0.1164  1.2315  0.6653
 7929TIP3   OH223750   7.044   4.835   3.332 -0.7837 -0.0661  0.1172
 7929TIP3    H123751   6.969   4.790   3.293 -1.5195  1.7559 -0.7029
 7929TIP3    H223752   7.078   4.891   3.262  0.9441 -0.3345  0.6813
 7930TIP3   OH223753   6.340   4.195   3.797  0.5233  0.1715  0.1825
 7930TIP3    H123754   6.381   4.109   3.805  2.7591  0.9217 -1.8758
 7930TIP3    H223755   6.270   4.182   3.733  0.4406 -0.2142  0.3456
 7931TIP3   OH223756   0.738   2.982   5.089 -0.4482 -0.1331  0.0285
 7931TIP3    H123757   0.646   2.994   5.115  0.9878  2.1595  5.4380
 7931TIP3    H223758   0.772   3.071   5.078  1.5732 -0.8352  0.2098
 7932TIP3   OH223759   2.750   5.976   4.115 -0.3904  0.4646  0.2919
 7932TIP3    H123760   2.780   6.066   4.103  1.2742 -0.1180 -0.3374
 7932TIP3    H223761   2.782   5.930   4.037 -0.7784 -0.7585  0.8299
 7933TIP3   OH223762   0.389   2.357   2.407 -0.4818 -0.5382 -0.0300
 7933TIP3    H123763   0.311   2.323   2.450 -1.0248  0.9458  0.2220
 7933TIP3    H223764   0.455   2.289   2.419 -1.0627 -0.8249  1.8309
 7934TIP3   OH223765   2.975   5.378   4.684  0.9223  0.1531  0.6929
 7934TIP3    H123766   3.045   5.333   4.730  0.4561 -1.2113  0.1285
 7934TIP3    H223767   2.894   5.336   4.714  0.2677  1.9166  1.5870
 7935TIP3   OH223768   1.807   0.718   2.220 -0.3980 -0.3430 -0.3564
 7935TIP3    H123769   1.727   0.769   2.213 -0.3145  0.0094  0.9792
 7935TIP3    H223770   1.780   0.637   2.262 -0.0220 -0.1113  0.3491
 7936TIP3   OH223771   5.932   4.556   2.527  0.4080 -0.5364 -0.1354
 7936TIP3    H123772   5.974   4.596   2.603 -0.2643  1.8576 -0.9159
 7936TIP3    H223773   5.846   4.528   2.560  0.4834 -0.3713  0.2083
 7937TIP3   OH223774   5.276   3.988   3.336  0.7481 -0.4585 -0.2749
 7937TIP3    H123775   5.278   3.916   3.272  1.4434 -0.5396 -0.1786
 7937TIP3    H223776   5.244   3.948   3.417 -3.6371  0.3583 -1.3537
 7938TIP3   OH223777   6.115   3.714   1.683 -0.3272  0.0164 -0.1469
 7938TIP3    H123778   6.046   3.727   1.619 -0.1517 -0.4489 -0.4413
 7938TIP3    H223779   6.141   3.622   1.671  0.3492  0.1950 -0.0488
 7939TIP3   OH223780   5.097   4.412   3.720 -0.0834 -0.6684 -0.4167
 7939TIP3    H123781   5.190   4.397   3.734 -0.2790 -1.3564  0.2394
 7939TIP3    H223782   5.085   4.506   3.733  0.5621 -0.5206 -0.8294
 7940TIP3   OH223783   4.544   5.421   0.611  0.1386 -0.0911  0.1261
 7940TIP3    H123784   4.548   5.413   0.707 -0.3477  1.4882  0.3046
 7940TIP3    H223785   4.636   5.423   0.583  0.2865  0.0440  0.6145
 7941TIP3   OH223786   4.294   4.177   1.105  0.1609 -0.3410 -0.3196
 7941TIP3    H123787   4.241   4.102   1.079 -0.3498  0.0269 -0.3674
 7941TIP3    H223788   4.351   4.194   1.030 -2.8138  2.0970 -2.2703
 7942TIP3   OH223789   1.142   0.884   4.961 -0.3295  0.1134  0.7233
 7942TIP3    H123790   1.050   0.890   4.986 -0.0611 -0.2958  1.8992
 7942TIP3    H223791   1.184   0.957   5.008  0.4195 -1.4943  2.6716
 7943TIP3   OH223792   3.375   0.290   4.537 -0.2085  0.3933 -0.2479
 7943TIP3    H123793   3.347   0.199   4.532 -2.5123  0.9676  0.5402
 7943TIP3    H223794   3.457   0.288   4.586 -1.6753 -1.1022  2.4119
 7944TIP3   OH223795   0.081   4.938   0.630  0.0730  0.2718  0.1516
 7944TIP3    H123796   0.139   5.008   0.600 -0.2932  0.6280  0.2746
 7944TIP3    H223797   0.099   4.865   0.570 -0.5316  0.9164 -0.8384
 7945TIP3   OH223798   3.548   1.309   4.196  0.0727 -0.5294  0.2742
 7945TIP3    H123799   3.547   1.293   4.102 -0.3258  0.1212  0.1578
 7945TIP3    H223800   3.477   1.255   4.230 -1.7102  1.3571 -0.2044
 7946TIP3   OH223801   1.735   4.271   1.828 -0.5050  0.0425  0.3842
 7946TIP3    H123802   1.740   4.326   1.750 -1.7492  1.1146  1.0205
 7946TIP3    H223803   1.826   4.255   1.852 -0.0994  1.6277  0.0237
 7947TIP3   OH223804   5.747   1.472   3.429 -0.0994 -0.0829 -0.0107
 7947TIP3    H123805   5.677   1.420   3.469 -0.6124  1.0197  0.5619
 7947TIP3    H223806   5.746   1.555   3.477  0.1100  0.8078 -1.4806
 7948TIP3   OH223807   0.041   5.863   2.383  0.1077 -0.1816 -0.3753
 7948TIP3    H123808   0.099   5.892   2.453 -0.4325  0.6083 -0.2399
 7948TIP3    H223809   0.082   5.895   2.303 -0.7980  1.5692 -0.1839
 7949TIP3   OH223810   4.558   0.739   3.939 -0.1484 -0.1192  0.8784
 7949TIP3    H123811   4.618   0.666   3.923  0.9163  1.2339 -2.0547
 7949TIP3    H223812   4.471   0.703   3.924  0.1644 -1.2687  1.6843
 7950TIP3   OH223813   0.893   0.628   1.776  0.0990 -0.1662  0.1588
 7950TIP3    H123814   0.874   0.721   1.784  0.6489 -0.1141  0.9352
 7950TIP3    H223815   0.969   0.625   1.718  0.0120 -0.1401  0.0429
 7951TIP3   OH223816   6.485   6.171   3.569  0.0350 -0.8818 -0.3367
 7951TIP3    H123817   6.423   6.162   3.497  0.8456 -1.0494 -1.0201
 7951TIP3    H223818   6.556   6.224   3.534 -0.9088  1.6223  1.2184
 7952TIP3   OH223819   7.122   2.298   0.172 -0.2567  0.0482  0.1961
 7952TIP3    H123820   7.057   2.247   0.221  2.2230 -2.3444  1.2683
 7952TIP3    H223821   7.196   2.305   0.232  1.6365 -0.0320 -2.0278
 7953TIP3   OH223822   4.143   4.290   5.537 -0.4565 -0.0498 -0.2189
 7953TIP3    H123823   4.150   4.236   5.458  1.5056 -0.0271 -0.1270
 7953TIP3    H223824   4.192   4.370   5.516  0.4764 -0.2179  1.1155
 7954TIP3   OH223825   1.907   1.927   3.213 -0.0930 -0.2329 -0.0394
 7954TIP3    H123826   1.895   1.942   3.306 -2.0779  2.3363 -0.6018
 7954TIP3    H223827   1.818   1.913   3.179  0.3736  0.7004 -1.7761
 7955TIP3   OH223828   2.927   1.214   4.221  0.6424 -0.3175  0.5782
 7955TIP3    H123829   2.950   1.269   4.146  1.7662 -0.5118  0.7688
 7955TIP3    H223830   2.962   1.128   4.199 -0.3757 -0.7716  0.6528
 7956TIP3   OH223831   1.787   6.740   1.491  0.7290  0.4194 -0.1848
 7956TIP3    H123832   1.833   6.740   1.407  0.9845  0.9811 -0.0477
 7956TIP3    H223833   1.825   6.813   1.539 -0.8290  1.3599 -0.3331
 7957TIP3   OH223834   3.107   0.419   0.659 -0.2248  0.0723 -0.3122
 7957TIP3    H123835   3.131   0.389   0.572  0.7440  0.7488 -0.2915
 7957TIP3    H223836   3.019   0.456   0.648 -0.4216 -0.5244 -0.8315
 7958TIP3   OH223837   6.975   2.376   3.287 -0.7148  0.1656  0.7513
 7958TIP3    H123838   7.045   2.312   3.272 -0.9134 -0.5774  2.6805
 7958TIP3    H223839   7.011   2.459   3.257 -0.6630 -0.8709 -2.3733
 7959TIP3   OH223840   0.820   3.414   0.067  0.2800 -0.4486  0.0157
 7959TIP3    H123841   0.755   3.467   0.021 -0.4289 -1.0397  0.3059
 7959TIP3    H223842   0.890   3.475   0.091 -1.1951  0.6854  1.6646
 7960TIP3   OH223843   1.305   6.380   0.056  0.1893  0.3266  0.0108
 7960TIP3    H123844   1.354   6.423  -0.015 -0.5911  2.4293  0.6871
 7960TIP3    H223845   1.214   6.403   0.039 -0.1346 -0.1718  1.0276
 7961TIP3   OH223846   1.287   0.154   4.346 -0.5349  0.4748 -0.2427
 7961TIP3    H123847   1.291   0.248   4.329  0.5608  0.3806 -0.6220
 7961TIP3    H223848   1.351   0.117   4.286 -1.0197 -0.5290 -0.1567
 7962TIP3   OH223849   5.943   2.322   5.104 -0.3989  0.3377  0.0069
 7962TIP3    H123850   6.035   2.314   5.129 -0.7107  2.4676  2.2590
 7962TIP3    H223851   5.946   2.354   5.014  1.1492  1.2708  0.3371
 7963TIP3   OH223852   1.916   0.085   1.272 -0.3408 -0.4088  0.3370
 7963TIP3    H123853   1.936   0.012   1.213  0.2104  1.0168 -1.3090
 7963TIP3    H223854   1.987   0.083   1.336 -0.2552 -1.2345  0.2322
 7964TIP3   OH223855   0.201   1.197   3.761  0.2551 -0.0429  0.3432
 7964TIP3    H123856   0.113   1.163   3.745  0.5833 -0.6670 -0.1625
 7964TIP3    H223857   0.187   1.271   3.821 -0.6569  0.1662 -0.1054
 7965TIP3   OH223858   6.085   6.429   1.200 -0.2525 -0.4076 -0.2261
 7965TIP3    H123859   6.081   6.343   1.241  0.0025 -0.2313  0.1648
 7965TIP3    H223860   6.174   6.460   1.216 -0.5313  0.2016  0.1941
 7966TIP3   OH223861   0.627   2.174   3.585  0.0156 -0.2508 -0.0355
 7966TIP3    H123862   0.723   2.167   3.588  0.0542  0.0345  3.0716
 7966TIP3    H223863   0.596   2.086   3.608 -0.5225 -0.4645 -1.4972
 7967TIP3   OH223864   5.771   1.319   5.454  0.0775  0.2416 -0.3006
 7967TIP3    H123865   5.820   1.340   5.375  1.3211  0.2930  0.4589
 7967TIP3    H223866   5.837   1.314   5.523 -0.9491 -0.0245  0.7002
 7968TIP3   OH223867   2.441   3.231   0.793 -0.5555 -0.2955 -0.1188
 7968TIP3    H123868   2.396   3.306   0.755  1.0588  0.5331 -0.4623
 7968TIP3    H223869   2.533   3.257   0.799 -0.3545 -1.2414  2.2820
 7969TIP3   OH223870   2.359   6.327   0.954 -0.0106 -0.5209 -0.2118
 7969TIP3    H123871   2.425   6.367   1.011 -0.5469  1.9273 -1.1527
 7969TIP3    H223872   2.347   6.239   0.988  0.3483  0.5163  2.9120
 7970TIP3   OH223873   6.331   4.953   2.806  0.1778 -0.3965 -0.0786
 7970TIP3    H123874   6.370   5.038   2.826  0.7955 -1.0485  1.7391
 7970TIP3    H223875   6.240   4.961   2.834  0.0174 -0.0907 -0.6744
 7971TIP3   OH223876   4.772   2.574   0.830 -0.4305 -0.0698 -0.8662
 7971TIP3    H123877   4.713   2.524   0.773 -0.0397 -1.6276  0.0308
 7971TIP3    H223878   4.860   2.549   0.802 -0.2178  0.4622 -0.6887
 7972TIP3   OH223879   4.858   6.188   5.198  0.1586  0.0935  0.4017
 7972TIP3    H123880   4.773   6.146   5.210 -0.4745  1.3545  0.5403
 7972TIP3    H223881   4.887   6.209   5.286 -0.0581  0.9185  0.2852
 7973TIP3   OH223882   5.969   0.341   3.361  0.6142  0.3980 -0.4777
 7973TIP3    H123883   6.043   0.343   3.301 -0.2797 -0.6881 -1.6521
 7973TIP3    H223884   5.899   0.297   3.313 -0.1202 -0.5885  1.3771
 7974TIP3   OH223885   2.164   0.079   0.052 -0.1761  0.0621 -0.0361
 7974TIP3    H123886   2.088   0.039   0.009 -0.7486  1.3927 -0.3227
 7974TIP3    H223887   2.161   0.171   0.025  1.5971  0.1281 -0.1240
 7975TIP3   OH223888   2.219   4.100   1.876  0.3912  0.6323  0.1455
 7975TIP3    H123889   2.153   4.135   1.816 -0.5800 -0.4854  0.5276
 7975TIP3    H223890   2.303   4.117   1.832 -0.1717  1.5906 -0.5998
 7976TIP3   OH223891   0.611   6.338   5.770  0.3457  0.3014 -0.4176
 7976TIP3    H123892   0.705   6.357   5.767  0.1390  1.2295 -1.8499
 7976TIP3    H223893   0.571   6.419   5.801 -0.0258  0.0365 -0.1907
 7977TIP3   OH223894   4.940   4.788   3.044  0.3270 -0.2894 -0.3332
 7977TIP3    H123895   5.003   4.857   3.068 -1.4395  1.2241  0.1492
 7977TIP3    H223896   4.939   4.730   3.120  2.2514 -1.2311 -0.9672
 7978TIP3   OH223897   0.889   4.064   5.526  0.0707  0.2152 -0.1774
 7978TIP3    H123898   0.869   4.087   5.617  0.4793 -0.2172  0.0211
 7978TIP3    H223899   0.803   4.055   5.485 -0.1339 -0.3987  0.3702
 7979TIP3   OH223900   6.084   0.056   3.617 -0.0552  0.6588  0.3887
 7979TIP3    H123901   6.008   0.113   3.606  0.6377  2.1810  2.7194
 7979TIP3    H223902   6.159   0.113   3.598  0.6305 -0.9558 -2.4762
 7980TIP3   OH223903   3.431   6.221   3.480 -0.1841  0.2217 -0.0720
 7980TIP3    H123904   3.514   6.260   3.509 -0.6898  0.8885  0.5108
 7980TIP3    H223905   3.449   6.190   3.391  0.9073 -0.3457  0.3254
 7981TIP3   OH223906   2.952   4.360   4.440  0.8947  0.1898  0.4451
 7981TIP3    H123907   2.899   4.376   4.518  1.0869  0.5098  0.5103
 7981TIP3    H223908   3.037   4.398   4.460  0.7841  0.7596 -0.1249
 7982TIP3   OH223909   4.390   0.448   2.129 -0.3671  0.0189  0.1970
 7982TIP3    H123910   4.368   0.521   2.070  1.8484  0.4926 -0.1063
 7982TIP3    H223911   4.321   0.384   2.113 -1.8776  1.6577 -0.1854
 7983TIP3   OH223912   3.643   4.090   3.893  0.2187 -0.1496 -0.0038
 7983TIP3    H123913   3.683   4.009   3.861  0.9095 -0.1571  0.8344
 7983TIP3    H223914   3.561   4.062   3.934 -0.3980 -0.2034 -1.2153
 7984TIP3   OH223915   3.379   6.785   4.022  0.4414  0.0191 -0.0974
 7984TIP3    H123916   3.391   6.833   3.940 -0.0678 -1.6083 -1.1583
 7984TIP3    H223917   3.464   6.791   4.066  0.0625  2.9720  0.4821
 7985TIP3   OH223918   1.436   5.182   4.370  0.3918 -0.1273 -0.3613
 7985TIP3    H123919   1.527   5.184   4.343  0.4235  1.1323 -0.1971
 7985TIP3    H223920   1.386   5.192   4.289  0.4014 -0.4855 -0.4129
 7986TIP3   OH223921   4.607   6.170   1.953  0.3028  0.2038  0.1761
 7986TIP3    H123922   4.671   6.142   2.018 -1.1044 -2.2574  0.6056
 7986TIP3    H223923   4.546   6.226   2.002  0.5727  0.3088  0.3963
 7987TIP3   OH223924   6.100   2.951   0.964  0.4348 -0.9773  0.4556
 7987TIP3    H123925   6.009   2.978   0.955  1.1330  1.6277  0.0796
 7987TIP3    H223926   6.113   2.936   1.057  0.6959  3.7027  1.4331
 7988TIP3   OH223927   6.558   1.624   0.002  0.2912  0.3134  0.2577
 7988TIP3    H123928   6.627   1.687  -0.020 -1.8041  2.1983 -1.3375
 7988TIP3    H223929   6.518   1.660   0.081  0.4941 -0.2639  0.6294
 7989TIP3   OH223930   0.570   2.163   4.487 -0.3047 -0.0799  0.5415
 7989TIP3    H123931   0.483   2.164   4.526  0.3592 -0.7442  2.1726
 7989TIP3    H223932   0.566   2.095   4.420 -1.4361  0.9446 -0.4528
 7990TIP3   OH223933   3.501   3.941   4.481 -0.7488  0.0483  0.3788
 7990TIP3    H123934   3.448   4.019   4.491 -0.6345  0.2301 -0.3554
 7990TIP3    H223935   3.440   3.874   4.449 -0.5000  0.3295 -0.7255
 7991TIP3   OH223936   7.213   6.497   1.688  0.3364 -0.0235  0.0778
 7991TIP3    H123937   7.211   6.402   1.684  0.4912 -0.0445  0.5238
 7991TIP3    H223938   7.210   6.518   1.781 -2.1882  0.4607 -0.0379
 7992TIP3   OH223939   3.028   2.310   0.088 -0.5085  0.5017  0.2503
 7992TIP3    H123940   2.947   2.295   0.040 -0.1763  2.3006 -0.9828
 7992TIP3    H223941   3.010   2.387   0.142 -0.2855 -0.4028  1.6757
 7993TIP3   OH223942   1.142   4.896   3.772  0.1854  0.2348 -0.0758
 7993TIP3    H123943   1.104   4.838   3.839  2.0686  0.5727  1.3699
 7993TIP3    H223944   1.100   4.869   3.691 -2.7733  0.3053  1.2946
 7994TIP3   OH223945   3.193   2.329   0.675  0.0818 -0.0876 -0.3668
 7994TIP3    H123946   3.188   2.404   0.616  1.1404 -0.5461 -1.0739
 7994TIP3    H223947   3.287   2.311   0.683 -0.1177 -0.9076  0.3497
 7995TIP3   OH223948   4.416   6.204   1.438 -0.0271  0.5281 -0.2191
 7995TIP3    H123949   4.384   6.152   1.365 -0.0875 -0.8879  0.7831
 7995TIP3    H223950   4.340   6.213   1.497  0.2532  0.8933  0.0985
 7996TIP3   OH223951   3.307   4.730   2.890  0.2310 -0.6964 -0.0674
 7996TIP3    H123952   3.265   4.724   2.976  0.4050 -1.5221 -0.0258
 7996TIP3    H223953   3.239   4.762   2.831 -0.7422 -2.8275 -0.1786
 7997TIP3   OH223954   2.439   0.127   4.512 -0.3240  0.1819 -0.1196
 7997TIP3    H123955   2.438   0.042   4.556 -0.3067 -0.3401 -1.1218
 7997TIP3    H223956   2.532   0.150   4.509 -0.4487  1.3129  2.1390
 7998TIP3   OH223957   1.999   0.112   4.369 -0.3281 -0.0984 -0.5583
 7998TIP3    H123958   2.065   0.166   4.414 -0.9318  1.2913 -1.2839
 7998TIP3    H223959   1.916   0.141   4.407 -0.6089 -1.2004 -0.3019
 7999TIP3   OH223960   3.919   1.322   1.733  0.0902 -0.2909 -0.1521
 7999TIP3    H123961   3.893   1.231   1.747 -0.4505 -0.2522 -0.8522
 7999TIP3    H223962   4.004   1.316   1.691 -0.9073 -0.5473 -2.2272
 8000TIP3   OH223963   5.873   4.470   1.423 -0.2107 -0.3508  0.3488
 8000TIP3    H123964   5.806   4.407   1.398 -1.1654  0.3602  1.0768
 8000TIP3    H223965   5.829   4.555   1.419  1.0287  0.2836 -0.5299
 8001TIP3   OH223966   0.547   4.500   3.806  0.0331  0.0238 -0.7031
 8001TIP3    H123967   0.548   4.595   3.815  0.9643  0.1319 -1.8314
 8001TIP3    H223968   0.454   4.477   3.803 -0.2053  0.8108  0.2906
 8002TIP3   OH223969   4.896   4.676   3.543 -0.0416  0.1271  0.6740
 8002TIP3    H123970   4.971   4.635   3.587  0.4976  0.8678  0.4614
 8002TIP3    H223971   4.924   4.685   3.452 -0.3668  0.4675  0.6079
 8003TIP3   OH223972   0.440   4.348   3.099  0.5907 -0.2776  0.0271
 8003TIP3    H123973   0.348   4.322   3.096  0.7668 -0.8227 -0.6885
 8003TIP3    H223974   0.488   4.272   3.067  1.2025  0.4339 -0.7948
 8004TIP3   OH223975   4.869   1.098   0.070 -0.5965 -0.7595  0.8038
 8004TIP3    H123976   4.958   1.133   0.063 -0.2816 -1.4159  1.4623
 8004TIP3    H223977   4.842   1.085  -0.021  0.9889 -3.0195  0.5807
 8005TIP3   OH223978   4.081   5.263   2.733 -0.0282  0.4863  0.7059
 8005TIP3    H123979   4.171   5.235   2.752 -0.3743 -0.6471  0.7607
 8005TIP3    H223980   4.054   5.312   2.810  0.1380 -0.2132  1.2212
 8006TIP3   OH223981   4.862   0.346   5.800  0.2817  0.1424  0.1165
 8006TIP3    H123982   4.920   0.273   5.782 -0.1282  0.0868 -1.0912
 8006TIP3    H223983   4.913   0.404   5.857  0.4461 -1.2675  1.4686
 8007TIP3   OH223984   5.765   3.396   2.397 -0.4748 -0.1345  0.1444
 8007TIP3    H123985   5.817   3.454   2.341 -1.8823 -1.2295 -2.4590
 8007TIP3    H223986   5.677   3.397   2.359 -0.8709 -2.9681  0.7554
 8008TIP3   OH223987   5.395   0.444   0.081  0.3502  0.5399  0.3450
 8008TIP3    H123988   5.315   0.400   0.054 -0.3190  1.1118  1.3386
 8008TIP3    H223989   5.379   0.537   0.064  0.8333  0.6503  0.4640
 8009TIP3   OH223990   4.338   2.840   1.554  0.4458  0.3061 -0.6686
 8009TIP3    H123991   4.275   2.901   1.594 -1.0054 -0.0869 -2.2370
 8009TIP3    H223992   4.422   2.885   1.562  0.0652  0.7697  1.6617
 8010TIP3   OH223993   0.302   1.675   2.806  0.3608 -0.7314 -0.4337
 8010TIP3    H123994   0.378   1.717   2.845 -0.4624  2.3837 -1.8596
 8010TIP3    H223995   0.242   1.660   2.880  0.5083  1.1348  0.1094
 8011TIP3   OH223996   5.115   1.272   3.019 -0.5393  0.2891  0.2777
 8011TIP3    H123997   5.195   1.234   2.984 -0.0634  0.4876  1.1194
 8011TIP3    H223998   5.061   1.196   3.044 -0.3808  0.1602  0.2272
 8012TIP3   OH223999   1.942   2.331   3.173  0.3435 -0.6875 -0.6199
 8012TIP3    H124000   2.034   2.360   3.169  0.5313 -0.8848  1.2891
 8012TIP3    H224001   1.901   2.393   3.234 -0.6659 -0.9394 -1.0358
 8013TIP3   OH224002   2.231   5.683   5.205  0.3405  0.0786  0.0056
 8013TIP3    H124003   2.275   5.669   5.121  2.9571 -0.2031  1.3486
 8013TIP3    H224004   2.156   5.624   5.203 -1.5863  2.2870 -3.3471
 8014TIP3   OH224005   5.397   0.926   2.272 -0.1137 -0.4597  0.5117
 8014TIP3    H124006   5.414   0.982   2.196 -0.4086 -2.3352 -1.0316
 8014TIP3    H224007   5.304   0.904   2.265 -0.3740  0.0421  1.9677
 8015TIP3   OH224008   5.713   3.506   0.085 -0.1515  0.3716 -0.4843
 8015TIP3    H124009   5.752   3.422   0.109  0.8548  0.6916 -0.9428
 8015TIP3    H224010   5.668   3.535   0.164 -0.5765 -0.6314 -0.3465
 8016TIP3   OH224011   5.005   4.354   0.099  0.0947  0.0115 -0.1562
 8016TIP3    H124012   4.988   4.288   0.166 -0.6559  0.3408 -0.0081
 8016TIP3    H224013   4.950   4.327   0.025  1.1105 -0.4920 -0.7473
 8017TIP3   OH224014   6.491   5.180   5.614  0.1812  0.2526 -0.1649
 8017TIP3    H124015   6.486   5.085   5.623 -1.0429  0.2561 -0.5867
 8017TIP3    H224016   6.538   5.210   5.692  1.8695 -0.8017 -0.7212
 8018TIP3   OH224017   3.113   5.209   5.328  0.1039  0.5812 -0.9865
 8018TIP3    H124018   3.094   5.235   5.238  1.3910  0.8042 -1.2194
 8018TIP3    H224019   3.156   5.124   5.319 -0.3097  0.3218 -0.5302
 8019TIP3   OH224020   3.809   5.050   1.573 -0.2268  0.2560 -0.1888
 8019TIP3    H124021   3.781   5.039   1.664 -0.9451  0.9022 -0.3206
 8019TIP3    H224022   3.891   5.099   1.578 -0.8563  1.3097  0.0756
 8020TIP3   OH224023   5.335   5.369   0.298  0.0647 -0.4858  0.6236
 8020TIP3    H124024   5.349   5.462   0.315  0.0059 -0.1544 -1.0057
 8020TIP3    H224025   5.295   5.336   0.379 -0.2844  0.9822  1.0853
 8021TIP3   OH224026   0.668   1.637   5.684 -0.0037 -0.0448 -0.3286
 8021TIP3    H124027   0.729   1.642   5.611  1.4502 -1.6913  0.7031
 8021TIP3    H224028   0.626   1.552   5.673 -0.3250  0.0259  0.3453
 8022TIP3   OH224029   2.974   2.743   5.683  0.5231  0.1009 -0.1726
 8022TIP3    H124030   2.990   2.649   5.670  0.9144  0.1582 -0.1076
 8022TIP3    H224031   2.878   2.750   5.686  0.5022 -0.3820  0.4606
 8023TIP3   OH224032   5.148   1.822   3.008  0.5879 -0.2516  0.0426
 8023TIP3    H124033   5.128   1.783   3.093 -0.2961  0.0433 -0.0222
 8023TIP3    H224034   5.210   1.761   2.967  0.4899 -0.7412  0.6135
 8024TIP3   OH224035   1.276   1.612   1.979 -0.3178 -0.5620 -0.0492
 8024TIP3    H124036   1.267   1.568   2.064 -0.3292 -1.4159 -0.4863
 8024TIP3    H224037   1.225   1.559   1.919 -1.2911  0.6921 -0.3816
 8025TIP3   OH224038   4.452   5.321   4.900 -0.4507 -0.1569  0.3181
 8025TIP3    H124039   4.435   5.404   4.945  1.3396  0.3363  0.1830
 8025TIP3    H224040   4.534   5.290   4.938 -0.3646 -1.1521 -0.6263
 8026TIP3   OH224041   0.060   3.282   3.099  0.0820  0.0817 -0.4495
 8026TIP3    H124042   0.102   3.304   3.182 -1.0010 -0.7174  0.3404
 8026TIP3    H224043   0.027   3.365   3.066 -0.4813  0.2509  0.5045
 8027TIP3   OH224044   1.629   4.815   3.568 -0.4047  0.0352 -0.0594
 8027TIP3    H124045   1.542   4.850   3.552  0.3640  3.1613  1.8108
 8027TIP3    H224046   1.635   4.806   3.663  0.7259 -1.9556 -0.2477
 8028TIP3   OH224047   5.428   0.361   3.685 -0.2537 -0.3966 -0.1977
 8028TIP3    H124048   5.356   0.424   3.691 -0.5054 -0.8210  2.3906
 8028TIP3    H224049   5.388   0.282   3.648 -0.6625 -0.0113 -0.5878
 8029TIP3   OH224050   0.634   4.842   1.278 -0.5907  0.0619  0.2787
 8029TIP3    H124051   0.639   4.873   1.369 -2.0733 -0.9980  0.7583
 8029TIP3    H224052   0.559   4.782   1.277 -1.5299  1.1295 -1.9627
 8030TIP3   OH224053   1.550   4.030   4.314  0.2487  0.0935  0.4056
 8030TIP3    H124054   1.486   4.006   4.381 -0.2439 -0.4100 -0.2236
 8030TIP3    H224055   1.604   4.098   4.354  0.3610 -0.6329  1.5225
 8031TIP3   OH224056   0.399   1.503   5.164 -0.7918  0.2426  0.0484
 8031TIP3    H124057   0.380   1.597   5.158 -0.1161  0.2971 -1.7740
 8031TIP3    H224058   0.355   1.464   5.089  0.4085 -0.6218 -0.2445
 8032TIP3   OH224059   0.037   3.773   3.475 -0.4002  0.3982  0.0030
 8032TIP3    H124060   0.090   3.851   3.490  2.4854 -1.0255 -1.8076
 8032TIP3    H224061   0.075   3.707   3.533 -2.0628 -0.0011  0.6860
 8033TIP3   OH224062   5.073   1.384   1.273 -0.4682  0.4842  0.1553
 8033TIP3    H124063   5.117   1.448   1.216 -1.2743 -0.2718 -1.3593
 8033TIP3    H224064   4.996   1.430   1.305 -1.6142  0.0232 -1.7558
 8034TIP3   OH224065   0.679   2.837   2.238 -0.0016  0.0446 -0.3899
 8034TIP3    H124066   0.653   2.854   2.148  0.3378  0.5497 -0.4011
 8034TIP3    H224067   0.771   2.810   2.232  0.6476  1.9516 -0.0661
 8035TIP3   OH224068   3.700   0.552   5.231 -0.4882 -0.1202 -0.1630
 8035TIP3    H124069   3.701   0.541   5.136 -0.1259 -0.0847 -0.1645
 8035TIP3    H224070   3.738   0.638   5.246 -2.9347  1.0324 -0.1289
 8036TIP3   OH224071   1.738   0.053   2.385 -0.5495 -0.0622  0.4147
 8036TIP3    H124072   1.825   0.071   2.351  0.2167  0.2518  2.3764
 8036TIP3    H224073   1.683   0.121   2.347 -0.2254 -0.9364 -1.7421
 8037TIP3   OH224074   3.913   2.991   3.870 -0.0533  0.0091  0.0366
 8037TIP3    H124075   3.826   2.987   3.909  0.0664  1.3388  0.5200
 8037TIP3    H224076   3.969   2.940   3.929 -0.3510 -0.1408  0.1885
 8038TIP3   OH224077   0.019   2.039   5.815  0.2532  0.6548  0.2641
 8038TIP3    H124078   0.055   1.957   5.849  0.1626  0.1130 -0.9178
 8038TIP3    H224079   0.041   2.104   5.882  0.2674 -0.3368  1.2546
 8039TIP3   OH224080   0.723   4.125   3.365  0.0196 -0.4676  0.1703
 8039TIP3    H124081   0.794   4.082   3.413  0.8445  0.1750 -0.4330
 8039TIP3    H224082   0.723   4.215   3.397  0.8059  0.0622 -1.2249
 8040TIP3   OH224083   6.076   6.160   2.078 -0.4990  0.0112 -0.2278
 8040TIP3    H124084   6.057   6.218   2.151  1.2671  0.8648 -0.3980
 8040TIP3    H224085   6.145   6.205   2.028  0.1942 -1.7380 -0.9454
 8041TIP3   OH224086   1.045   3.454   5.110 -0.1037 -0.8503 -0.0566
 8041TIP3    H124087   0.980   3.499   5.164 -1.5490 -0.6480 -1.8691
 8041TIP3    H224088   1.107   3.523   5.085 -1.0280 -0.3043 -0.9346
 8042TIP3   OH224089   1.260   3.387   4.801  0.4893 -0.1276  0.7708
 8042TIP3    H124090   1.316   3.396   4.724 -2.0316 -0.8043 -1.2854
 8042TIP3    H224091   1.181   3.344   4.768 -0.4416 -1.0975  3.9113
 8043TIP3   OH224092   2.682   0.530   1.513  0.6309 -0.5315  0.1471
 8043TIP3    H124093   2.675   0.569   1.601 -0.9975  0.4827 -0.3925
 8043TIP3    H224094   2.675   0.436   1.528 -0.4213 -0.3284  1.0417
 8044TIP3   OH224095   4.993   6.227   0.200 -0.0081 -0.2764 -0.2662
 8044TIP3    H124096   4.994   6.184   0.285 -1.1354 -1.4495 -0.8139
 8044TIP3    H224097   4.922   6.185   0.152  1.5012 -0.6734 -2.3201
 8045TIP3   OH224098   3.415   1.821   4.411 -0.1259 -0.1568  0.8281
 8045TIP3    H124099   3.346   1.888   4.412 -0.1009 -0.0670 -0.9084
 8045TIP3    H224100   3.411   1.784   4.323  2.1418 -0.0407  0.6250
 8046TIP3   OH224101   0.805   2.390   1.830 -0.2817 -0.6107 -0.2863
 8046TIP3    H124102   0.863   2.369   1.757  1.2208 -1.0294  0.9603
 8046TIP3    H224103   0.838   2.474   1.864 -0.3012 -0.9281  0.5376
 8047TIP3   OH224104   5.716   6.338   3.992 -0.5254 -0.0510 -1.0549
 8047TIP3    H124105   5.674   6.418   4.024 -1.2704 -0.6432 -0.5212
 8047TIP3    H224106   5.786   6.321   4.055 -1.6955 -0.9588  0.0312
 8048TIP3   OH224107   5.871   4.846   2.450 -0.3766 -0.4026  0.4398
 8048TIP3    H124108   5.925   4.830   2.373  0.4271  0.9008  0.6998
 8048TIP3    H224109   5.841   4.759   2.477  1.1114 -1.0999 -0.0572
 8049TIP3   OH224110   0.975   1.668   0.871 -0.0075  0.2325  0.6892
 8049TIP3    H124111   1.007   1.592   0.823  2.0581  0.9959  0.7442
 8049TIP3    H224112   1.029   1.671   0.950 -1.8028  0.3186  1.9762
 8050TIP3   OH224113   5.876   5.525   1.517  0.1967  0.3553  0.0496
 8050TIP3    H124114   5.806   5.559   1.573 -0.0722 -0.1498  0.0271
 8050TIP3    H224115   5.950   5.512   1.576 -0.1670 -0.4208  0.3440
 8051TIP3   OH224116   2.121   6.219   3.554  0.0165  0.1249 -0.4530
 8051TIP3    H124117   2.172   6.261   3.623  1.5784  0.3229 -1.6628
 8051TIP3    H224118   2.086   6.292   3.502  0.5229 -0.0383 -1.0286
 8052TIP3   OH224119   1.345   4.864   3.572  0.1179 -0.0315 -0.0225
 8052TIP3    H124120   1.310   4.843   3.658  0.1712  0.3467  0.0954
 8052TIP3    H224121   1.282   4.827   3.510 -0.1872  0.1324  0.1844
 8053TIP3   OH224122   6.935   3.388   3.173 -0.0341 -0.2983 -0.4282
 8053TIP3    H124123   6.955   3.461   3.114  2.3142  0.0119  0.6571
 8053TIP3    H224124   7.016   3.373   3.222 -1.1451 -2.1717  0.9834
 8054TIP3   OH224125   5.373   1.663   2.951 -0.0039 -0.1102  0.3211
 8054TIP3    H124126   5.418   1.677   2.868 -0.4502 -0.8461 -0.0553
 8054TIP3    H224127   5.439   1.685   3.018  0.7200 -0.5682 -0.2198
 8055TIP3   OH224128   1.105   1.519   4.246  0.0264 -0.1176 -0.0059
 8055TIP3    H124129   1.038   1.515   4.314  0.1336  1.3163  0.2076
 8055TIP3    H224130   1.141   1.430   4.242 -1.2165 -0.6659  0.5382
 8056TIP3   OH224131   7.200   1.193   5.367 -0.1681 -0.3541 -0.0819
 8056TIP3    H124132   7.105   1.178   5.370  0.0139 -1.8471 -0.6404
 8056TIP3    H224133   7.218   1.214   5.276 -0.0390  0.6512  0.1653
 8057TIP3   OH224134   7.052   5.551   0.812  0.0395 -0.1535 -0.6897
 8057TIP3    H124135   7.051   5.646   0.802  2.5660 -0.0613 -0.7449
 8057TIP3    H224136   7.028   5.517   0.726  2.2106  0.4956 -1.6084
 8058TIP3   OH224137   1.441   4.831   0.846  0.5604 -0.0868  0.4157
 8058TIP3    H124138   1.349   4.857   0.846  0.2620 -1.1108  0.9798
 8058TIP3    H224139   1.473   4.855   0.759 -0.7629 -1.4839 -0.4992
 8059TIP3   OH224140   1.762   5.949   2.239  0.4478  0.0326 -0.2622
 8059TIP3    H124141   1.856   5.963   2.256  0.7114 -0.7452 -0.9923
 8059TIP3    H224142   1.759   5.919   2.148 -0.5174  0.0552 -0.2450
 8060TIP3   OH224143   6.392   6.479   1.078  0.1571  0.1299  0.0941
 8060TIP3    H124144   6.472   6.522   1.048  1.1794 -1.8158 -0.1796
 8060TIP3    H224145   6.398   6.481   1.173  2.2815 -2.7748  0.1751
 8061TIP3   OH224146   0.376   1.446   0.753  0.2821  0.2346 -0.2109
 8061TIP3    H124147   0.391   1.354   0.732 -1.0844 -0.0521 -0.0161
 8061TIP3    H224148   0.331   1.481   0.675  1.7102  1.0162 -0.7172
 8062TIP3   OH224149   0.286   0.764   2.821  0.0236  0.8788 -0.3970
 8062TIP3    H124150   0.192   0.767   2.837 -0.2375  0.4589 -1.6866
 8062TIP3    H224151   0.318   0.693   2.877 -0.7594 -0.2523 -1.3292
 8063TIP3   OH224152   2.237   3.916   5.200 -0.1883  0.4223 -0.1101
 8063TIP3    H124153   2.303   3.865   5.247  0.8368 -0.4687 -2.3892
 8063TIP3    H224154   2.154   3.872   5.221  0.1297  0.4860  1.3803
 8064TIP3   OH224155   1.764   1.438   3.836 -0.0587  0.0938 -0.0798
 8064TIP3    H124156   1.676   1.414   3.867  0.4139  0.2284  1.4637
 8064TIP3    H224157   1.812   1.459   3.916  0.8311  1.9318 -1.0496
 8065TIP3   OH224158   0.299   0.864   3.105  0.4615 -0.1995  0.1076
 8065TIP3    H124159   0.393   0.856   3.121  1.0713 -0.2466 -2.8836
 8065TIP3    H224160   0.289   0.841   3.012 -2.3835  0.6885  0.1112
 8066TIP3   OH224161   2.598   4.002   4.841 -0.0983 -0.0351 -0.4582
 8066TIP3    H124162   2.672   3.945   4.822  0.2390 -0.0673  0.8756
 8066TIP3    H224163   2.606   4.074   4.778  0.9745 -0.1146 -0.4238
 8067TIP3   OH224164   6.120   3.521   3.106 -0.1010 -0.2215  0.2693
 8067TIP3    H124165   6.062   3.583   3.150  0.4759  0.1513  0.5212
 8067TIP3    H224166   6.200   3.521   3.159  0.0087 -0.9840  0.1218
 8068TIP3   OH224167   4.685   2.747   3.738 -0.2773 -0.9328  0.1194
 8068TIP3    H124168   4.628   2.787   3.805 -0.3136 -1.0771  0.1741
 8068TIP3    H224169   4.630   2.743   3.660 -0.0742 -0.2882 -0.0670
 8069TIP3   OH224170   2.535   4.752   5.525 -0.2632 -0.3527  0.2853
 8069TIP3    H124171   2.541   4.720   5.614 -0.9671  0.3139  0.5826
 8069TIP3    H224172   2.580   4.836   5.526  1.0002 -0.9870 -0.3368
 8070TIP3   OH224173   6.078   2.153   0.595 -0.0339  0.9925  0.4542
 8070TIP3    H124174   5.999   2.182   0.549  0.8045  0.9718 -1.0531
 8070TIP3    H224175   6.080   2.059   0.581  1.0976  1.1870 -0.9613
 8071TIP3   OH224176   1.766   3.536   0.098 -0.4585  0.1792  0.2623
 8071TIP3    H124177   1.861   3.529   0.102 -0.3800 -2.7615 -2.4247
 8071TIP3    H224178   1.749   3.603   0.032 -0.1561 -0.2729 -0.2914
 8072TIP3   OH224179   2.315   5.321   3.312  0.0261 -0.1010 -0.4206
 8072TIP3    H124180   2.311   5.349   3.221  0.1710  1.0030 -0.1024
 8072TIP3    H224181   2.367   5.389   3.356  1.2169 -1.3648  0.2126
 8073TIP3   OH224182   3.436   4.162   5.522  0.0273 -0.0918  0.4176
 8073TIP3    H124183   3.488   4.146   5.600  2.3027 -0.7357 -1.1293
 8073TIP3    H224184   3.458   4.251   5.495 -0.0611 -0.1867  0.0247
 8074TIP3   OH224185   0.165  -0.010   2.702 -0.1600  0.7906  0.2805
 8074TIP3    H124186   0.246   0.021   2.743  0.2194 -0.6024  0.6046
 8074TIP3    H224187   0.151   0.051   2.629  2.5816 -0.4219 -1.3974
 8075TIP3   OH224188   0.037   2.689   2.676  0.0844 -0.1012 -0.2338
 8075TIP3    H124189   0.129   2.710   2.688  0.5747 -1.8079 -0.7518
 8075TIP3    H224190   0.030   2.658   2.586 -1.3230  1.4817 -0.7262
 8076TIP3   OH224191   0.688   5.097   3.399 -0.4902 -0.3544 -0.0876
 8076TIP3    H124192   0.782   5.106   3.411 -0.5044  0.0714 -0.2668
 8076TIP3    H224193   0.675   5.101   3.304 -0.6651 -0.6570 -0.0788
 8077TIP3   OH224194   0.634   4.957   0.431 -0.0728 -0.1541  0.3011
 8077TIP3    H124195   0.545   4.976   0.401 -0.8476 -2.2837  0.9951
 8077TIP3    H224196   0.638   4.991   0.520 -0.4707 -0.6714  0.5249
 8078TIP3   OH224197   2.251   1.442   1.189  0.1910  0.2640 -0.6115
 8078TIP3    H124198   2.331   1.493   1.201  0.8206 -0.4694 -1.5230
 8078TIP3    H224199   2.261   1.368   1.249 -1.1458  1.6362  1.4030
 8079TIP3   OH224200   5.526   3.953   0.617  0.6062 -0.3742  0.1022
 8079TIP3    H124201   5.510   3.998   0.700 -0.0361 -2.4963  1.2052
 8079TIP3    H224202   5.619   3.934   0.618  1.2051  2.0581 -1.0541
 8080TIP3   OH224203   4.046   4.044   3.335 -0.0601  0.4853  0.0260
 8080TIP3    H124204   4.066   3.991   3.258  0.3992  0.8079 -0.0808
 8080TIP3    H224205   4.127   4.042   3.387 -0.9147 -1.2064  1.3870
 8081TIP3   OH224206   2.366   2.915   1.721 -0.0923 -0.1315  0.2271
 8081TIP3    H124207   2.303   2.867   1.774 -0.6640  0.6984  0.3257
 8081TIP3    H224208   2.346   2.890   1.631  2.7161 -3.7827  0.3945
 8082TIP3   OH224209   6.877   4.144   1.387 -0.2596 -0.3061 -0.0751
 8082TIP3    H124210   6.948   4.186   1.435 -0.9179  0.3627  0.3318
 8082TIP3    H224211   6.876   4.054   1.419 -0.2597 -0.0409  0.6745
 8083TIP3   OH224212   6.808   1.364   4.816 -0.6249 -1.3246  0.0820
 8083TIP3    H124213   6.879   1.399   4.869 -0.7458 -0.8866 -0.0348
 8083TIP3    H224214   6.805   1.271   4.836 -0.2329 -1.2821  0.3328
 8084TIP3   OH224215   6.212   2.016   0.916  0.2496  0.5515  0.0240
 8084TIP3    H124216   6.256   1.950   0.970 -1.1265 -0.9451 -0.5836
 8084TIP3    H224217   6.263   2.019   0.835  0.9893  1.1091  0.5012
 8085TIP3   OH224218   3.936   2.456   0.725 -0.0330 -0.1373  0.7493
 8085TIP3    H124219   3.880   2.380   0.740 -0.8397  0.2477 -0.2304
 8085TIP3    H224220   3.905   2.521   0.788 -0.5272 -0.0245  0.4023
 8086TIP3   OH224221   6.021   1.647   5.235  0.0267  0.0502 -0.0519
 8086TIP3    H124222   6.092   1.611   5.287  0.9614  1.5682 -0.2145
 8086TIP3    H224223   5.956   1.677   5.299  1.0790  1.7291  0.2742
 8087TIP3   OH224224   2.125   0.961   3.655 -0.4464  0.1435  0.2995
 8087TIP3    H124225   2.132   1.027   3.586 -1.6595 -0.0645 -0.0417
 8087TIP3    H224226   2.175   0.998   3.728  1.1046  0.2302 -0.7552
 8088TIP3   OH224227   2.300   3.277   0.216  0.5074 -0.3437 -0.0773
 8088TIP3    H124228   2.218   3.228   0.213  0.0956  0.3556 -0.5646
 8088TIP3    H224229   2.337   3.257   0.302  0.0580 -1.0348 -0.0372
 8089TIP3   OH224230   1.066   4.738   5.728  0.1245  0.3732 -0.0135
 8089TIP3    H124231   1.140   4.700   5.681 -0.5631  0.0506 -0.8555
 8089TIP3    H224232   1.102   4.817   5.769  0.9669  0.1369 -0.2791
 8090TIP3   OH224233   0.344   4.846   3.971  0.3903  0.3939 -0.2480
 8090TIP3    H124234   0.324   4.763   4.016  0.3319  1.4296  1.7665
 8090TIP3    H224235   0.415   4.824   3.912  0.2554 -1.1398  0.1013
 8091TIP3   OH224236   6.824   4.294   4.644 -0.0777 -0.0402 -0.0268
 8091TIP3    H124237   6.896   4.296   4.708 -0.3570  1.5922  0.3016
 8091TIP3    H224238   6.745   4.303   4.697 -0.3168  1.2826 -0.5514
 8092TIP3   OH224239   1.855   6.055   0.668 -0.3021  0.2250 -0.3576
 8092TIP3    H124240   1.902   6.092   0.743 -0.1345  0.2815 -0.4890
 8092TIP3    H224241   1.810   6.129   0.628  0.9379  0.5086 -1.2838
 8093TIP3   OH224242   4.382   6.367   3.447 -0.0066  0.1463 -0.6840
 8093TIP3    H124243   4.397   6.357   3.353 -0.5024 -1.5101 -0.6237
 8093TIP3    H224244   4.295   6.329   3.461  0.6088 -0.8615  0.6318
 8094TIP3   OH224245   6.743   3.142   0.194  0.2825 -0.2348  0.2238
 8094TIP3    H124246   6.672   3.081   0.178 -0.1741 -0.1559  1.7846
 8094TIP3    H224247   6.710   3.226   0.165  0.3170 -0.4532 -0.4588
 8095TIP3   OH224248   7.008   4.035   2.039 -0.4453  0.1837  0.3757
 8095TIP3    H124249   7.080   3.973   2.027 -1.2413 -0.6181 -0.4521
 8095TIP3    H224250   7.006   4.050   2.134 -0.1450 -0.9825  0.5896
 8096TIP3   OH224251   4.173   0.467   0.797  0.1081  0.0974 -0.1319
 8096TIP3    H124252   4.183   0.436   0.887  1.5949 -0.9646 -0.6239
 8096TIP3    H224253   4.259   0.456   0.758 -0.0883  2.0325 -1.2597
 8097TIP3   OH224254   0.298   2.495   5.838  0.0195  0.4154  0.5099
 8097TIP3    H124255   0.342   2.410   5.833 -1.9189 -0.6373  0.3714
 8097TIP3    H224256   0.245   2.489   5.918 -0.5503  1.2744  0.2000
 8098TIP3   OH224257   2.625   3.772   4.308 -0.0971 -0.5772  0.0234
 8098TIP3    H124258   2.700   3.808   4.261  0.1066 -1.1377 -0.0929
 8098TIP3    H224259   2.645   3.788   4.400  0.9424 -2.1141  0.1109
 8099TIP3   OH224260   5.898   3.978   5.722 -0.0461  0.5430 -0.9111
 8099TIP3    H124261   5.973   4.007   5.671  0.5806 -1.1167 -0.9861
 8099TIP3    H224262   5.904   4.028   5.804  0.6301  1.0458 -1.2593
 8100TIP3   OH224263   5.339   6.112   3.553 -0.1611  0.1663 -0.0125
 8100TIP3    H124264   5.263   6.057   3.534 -0.1500  0.3482 -0.5769
 8100TIP3    H224265   5.390   6.061   3.616 -0.3949 -0.2578 -0.1642
 8101TIP3   OH224266   3.240   2.166   2.922 -0.0182 -0.2193 -0.0338
 8101TIP3    H124267   3.229   2.073   2.941 -0.8302 -0.2400 -0.5731
 8101TIP3    H224268   3.324   2.171   2.875  0.0528 -0.6725  0.0418
 8102TIP3   OH224269   5.498   4.892   1.739  0.2374  0.0087 -0.3260
 8102TIP3    H124270   5.459   4.888   1.651 -0.7750  2.5568 -0.0842
 8102TIP3    H224271   5.448   4.960   1.784  1.9328  0.0618  1.6121
 8103TIP3   OH224272   6.276   4.515   4.695  0.1643 -0.4587 -0.3858
 8103TIP3    H124273   6.200   4.571   4.676  0.8871  0.9731  0.7157
 8103TIP3    H224274   6.287   4.462   4.616 -2.3007 -1.1219 -0.3756
 8104TIP3   OH224275   2.904   2.886   3.709  0.0565  0.6547 -0.2587
 8104TIP3    H124276   2.937   2.915   3.625  1.8573 -0.8902 -0.1403
 8104TIP3    H224277   2.945   2.944   3.773 -0.3209  1.0255 -0.3491
 8105TIP3   OH224278   5.500   6.005   2.437 -0.0037  0.3164 -0.3403
 8105TIP3    H124279   5.417   6.051   2.451 -0.2155 -0.5214  1.4319
 8105TIP3    H224280   5.492   5.966   2.350 -2.0333 -0.8446  0.3221
 8106TIP3   OH224281   6.385   0.849   2.926  0.1676  0.1802 -0.6760
 8106TIP3    H124282   6.408   0.794   2.850  1.7159  0.2852 -0.3183
 8106TIP3    H224283   6.461   0.842   2.984  0.4220  2.6716 -0.5997
 8107TIP3   OH224284   6.142   6.302   2.460 -0.0021 -0.0553  0.2645
 8107TIP3    H124285   6.079   6.297   2.531  0.9448  0.2946  1.1585
 8107TIP3    H224286   6.214   6.353   2.496  1.2676 -1.3363 -0.3498
 8108TIP3   OH224287   5.529   5.774   4.240 -0.0794 -0.0852 -0.4006
 8108TIP3    H124288   5.547   5.833   4.313  1.6015  0.4610 -1.2139
 8108TIP3    H224289   5.453   5.814   4.196 -2.0862 -1.2164  1.8105
 8109TIP3   OH224290   6.390   1.408   1.612 -0.3343 -0.1148 -0.2945
 8109TIP3    H124291   6.429   1.346   1.550 -0.9374 -0.4000 -0.4014
 8109TIP3    H224292   6.307   1.368   1.636 -1.3882  1.2652 -1.4152
 8110TIP3   OH224293   0.276   3.513   1.929 -0.8912 -0.2453  0.2943
 8110TIP3    H124294   0.324   3.554   1.857 -1.0030  0.5387  0.6646
 8110TIP3    H224295   0.338   3.449   1.965 -0.0087  0.9455  0.9376
 8111TIP3   OH224296   0.397   5.589   0.988  0.0329 -0.3595  0.0703
 8111TIP3    H124297   0.441   5.535   0.923  0.7926  0.7016 -0.3351
 8111TIP3    H224298   0.386   5.674   0.945  1.9249  0.8517  1.7870
 8112TIP3   OH224299   2.923   1.771   4.953  0.2054 -0.0686 -0.2526
 8112TIP3    H124300   2.975   1.709   5.003  0.2844 -0.3997 -0.7409
 8112TIP3    H224301   2.934   1.854   4.999  1.0341 -0.1677 -0.2600
 8113TIP3   OH224302   3.176   5.573   0.270 -0.0248 -0.4728 -0.3344
 8113TIP3    H124303   3.100   5.631   0.276  1.2523  1.2508 -0.0143
 8113TIP3    H224304   3.251   5.632   0.275  1.3451 -2.0024 -1.8480
 8114TIP3   OH224305   0.990   2.529   4.732 -0.5004  0.7245  0.9901
 8114TIP3    H124306   0.939   2.585   4.673 -1.4657 -0.2792  0.8420
 8114TIP3    H224307   0.986   2.573   4.817  0.5927  1.9971  0.4236
 8115TIP3   OH224308   4.844   1.047   3.865 -0.2049  0.2020  0.8288
 8115TIP3    H124309   4.841   1.119   3.803  1.5754 -1.0818 -0.8517
 8115TIP3    H224310   4.759   1.003   3.856  0.4645 -0.7274 -1.7500
 8116TIP3   OH224311   4.980   0.518   2.525  0.4567 -0.2863 -0.1165
 8116TIP3    H124312   5.065   0.562   2.529  0.1304  0.4031 -0.6245
 8116TIP3    H224313   4.978   0.477   2.439  0.9644 -1.7588  0.5338
 8117TIP3   OH224314   0.301   3.071   5.500 -0.3808  0.3553 -0.0312
 8117TIP3    H124315   0.348   3.015   5.438 -0.2736 -0.8856  1.1191
 8117TIP3    H224316   0.229   3.108   5.449  0.4574  0.3951 -1.2165
 8118TIP3   OH224317   3.093   2.373   5.835 -0.3113  0.1162 -0.6578
 8118TIP3    H124318   3.087   2.460   5.874 -1.4559 -1.2522  2.5542
 8118TIP3    H224319   3.049   2.381   5.750 -0.2544  2.6692 -0.4995
 8119TIP3   OH224320   5.312   0.042   0.054  0.3757 -0.3432 -0.6539
 8119TIP3    H124321   5.325   0.074   0.143  0.4799  0.8807 -1.0875
 8119TIP3    H224322   5.261  -0.039   0.064  1.2965 -0.7980  0.5661
 8120TIP3   OH224323   6.886   6.027   5.240  0.1315 -0.0438 -0.3207
 8120TIP3    H124324   6.805   6.035   5.288  1.2167  1.5372  1.3572
 8120TIP3    H224325   6.911   5.935   5.250 -0.9888 -0.3388 -0.1509
 8121TIP3   OH224326   1.805   3.893   1.758  0.1720  0.4458  0.1841
 8121TIP3    H124327   1.865   3.848   1.816 -0.0915  0.7881  0.7290
 8121TIP3    H224328   1.862   3.936   1.694  0.4128 -0.9470 -0.5781
 8122TIP3   OH224329   5.211   4.591   0.859  0.2906  0.8571  0.0694
 8122TIP3    H124330   5.300   4.565   0.834 -0.3163 -0.3454 -0.9750
 8122TIP3    H224331   5.155   4.523   0.821 -1.0604  1.4598  0.9198
 8123TIP3   OH224332   0.579   2.574   3.660 -0.0333 -0.0177 -0.1871
 8123TIP3    H124333   0.605   2.660   3.630  0.1414 -0.2602 -0.7473
 8123TIP3    H224334   0.661   2.524   3.666 -0.3223 -0.8453 -2.1558
 8124TIP3   OH224335   2.068   6.578   0.409  0.2049 -0.2855 -0.1148
 8124TIP3    H124336   2.045   6.526   0.332 -1.1948 -1.5426  1.0993
 8124TIP3    H224337   1.994   6.567   0.469 -0.0899  2.9575  0.3091
 8125TIP3   OH224338   1.308   2.890   3.420 -0.1241  0.2347  0.3771
 8125TIP3    H124339   1.343   2.807   3.452 -0.0979 -0.0677 -0.4091
 8125TIP3    H224340   1.324   2.953   3.491  1.2206 -0.0941  0.3795
 8126TIP3   OH224341   4.898   0.490   0.309 -0.1274 -0.0851 -0.0575
 8126TIP3    H124342   4.831   0.552   0.282 -0.2276  0.1419  0.7091
 8126TIP3    H224343   4.868   0.456   0.393  0.8376  0.2141  0.4285
 8127TIP3   OH224344   3.640   6.774   4.217  0.2193  0.0145 -0.3694
 8127TIP3    H124345   3.732   6.747   4.219  0.4878  0.8710 -0.7282
 8127TIP3    H224346   3.603   6.739   4.298  0.6334 -1.0958 -0.6468
 8128TIP3   OH224347   4.623   3.602   1.047 -0.1514  0.3719  0.4146
 8128TIP3    H124348   4.586   3.686   1.074 -1.6071  0.3970 -1.4727
 8128TIP3    H224349   4.560   3.567   0.984  1.4212 -1.1859 -0.3796
 8129TIP3   OH224350   5.591   4.223   5.240  0.2822  0.2366 -0.0557
 8129TIP3    H124351   5.587   4.254   5.150  1.4837 -0.2415 -0.2944
 8129TIP3    H224352   5.538   4.143   5.241 -2.1770  1.7520  0.3808
 8130TIP3   OH224353   5.760   5.464   4.964  0.3895 -0.6528  0.3839
 8130TIP3    H124354   5.745   5.455   4.870  0.4192 -0.8535  0.3973
 8130TIP3    H224355   5.703   5.535   4.991  0.7778 -0.2310  0.1152
 8131TIP3   OH224356   1.226   1.033   0.983  0.3004 -0.6983 -0.7795
 8131TIP3    H124357   1.226   1.091   1.059  2.0563  0.9409 -1.9218
 8131TIP3    H224358   1.314   0.994   0.983  0.6047 -0.1003 -2.3165
 8132TIP3   OH224359   0.134   3.208   5.331 -0.2055  0.1436 -0.3198
 8132TIP3    H124360   0.127   3.303   5.346 -0.0519  0.0718  0.2320
 8132TIP3    H224361   0.136   3.199   5.236  1.4111  0.8285 -0.3915
 8133TIP3   OH224362   6.514   3.235   0.985  0.1905 -0.2274  0.5577
 8133TIP3    H124363   6.437   3.190   0.949 -0.8807  0.8221  1.4277
 8133TIP3    H224364   6.479   3.286   1.058  1.7986  0.0011  1.2009
 8134TIP3   OH224365   5.856   0.658   5.633 -0.3093  0.6343  0.2331
 8134TIP3    H124366   5.846   0.741   5.586  0.8773 -0.7395 -2.6941
 8134TIP3    H224367   5.822   0.592   5.572  2.7499 -1.4400  0.5567
 8135TIP3   OH224368   6.193   1.481   5.384  0.0530  0.3647 -0.2297
 8135TIP3    H124369   6.250   1.404   5.380  0.9081  1.0204 -0.7393
 8135TIP3    H224370   6.225   1.531   5.459 -0.8885 -0.0573  0.4793
 8136TIP3   OH224371   3.678   2.223   2.347  0.1010  0.0514 -0.3798
 8136TIP3    H124372   3.708   2.179   2.267  1.1086 -1.6057  0.8410
 8136TIP3    H224373   3.758   2.239   2.397 -0.5662  0.4745  0.5891
 8137TIP3   OH224374   0.424   2.164   0.614  0.0737 -0.2427  0.5399
 8137TIP3    H124375   0.492   2.105   0.580 -1.0411 -0.4086 -1.5796
 8137TIP3    H224376   0.455   2.251   0.591 -0.3008 -0.3031 -0.2130
 8138TIP3   OH224377   3.125   3.523   5.749  0.0760 -0.1131 -0.6846
 8138TIP3    H124378   3.094   3.465   5.819  1.2744  0.2290  0.1781
 8138TIP3    H224379   3.198   3.571   5.789 -0.2330  1.2503 -1.6965
 8139TIP3   OH224380   3.718   0.551   3.576 -0.4818  0.3933 -0.2726
 8139TIP3    H124381   3.711   0.591   3.663 -2.5505  2.7565 -1.3762
 8139TIP3    H224382   3.654   0.480   3.577 -1.9545  1.6650 -0.4005
 8140TIP3   OH224383   1.043   3.813   1.056  0.3746  0.6367  0.1922
 8140TIP3    H124384   0.986   3.768   0.994 -0.7974  2.1543  0.0983
 8140TIP3    H224385   1.115   3.752   1.071 -1.1173 -1.2599  0.0955
 8141TIP3   OH224386   3.438   5.253   4.921  0.0031  0.5024  0.3444
 8141TIP3    H124387   3.524   5.220   4.946 -0.0075  0.4064  0.2537
 8141TIP3    H224388   3.456   5.331   4.869  0.0332  0.5218  0.3842
 8142TIP3   OH224389   0.028   5.712   3.141 -0.1980 -0.4355  0.0036
 8142TIP3    H124390   0.096   5.692   3.206  0.6718  0.6407 -0.5368
 8142TIP3    H224391   0.057   5.668   3.061 -0.7048 -0.8620  0.0489
 8143TIP3   OH224392   1.065   2.200   3.112  0.1550 -0.2241 -0.1340
 8143TIP3    H124393   1.099   2.147   3.184  0.7488  0.3285  0.0047
 8143TIP3    H224394   1.139   2.256   3.087 -0.9736  1.8759  0.9795
 8144TIP3   OH224395   6.207   3.133   1.262 -0.2998 -0.1802  0.3111
 8144TIP3    H124396   6.251   3.056   1.227 -1.0103 -0.4487 -0.0003
 8144TIP3    H224397   6.133   3.147   1.203  0.3202  1.2676 -0.1720
 8145TIP3   OH224398   5.397   5.726   1.527 -0.1004  0.2098  0.0523
 8145TIP3    H124399   5.431   5.788   1.591  1.5084 -1.3163  0.7839
 8145TIP3    H224400   5.386   5.644   1.576 -0.8010 -0.4770 -1.1753
 8146TIP3   OH224401   4.005   5.914   0.254 -0.0665 -0.3395  0.5197
 8146TIP3    H124402   3.910   5.898   0.256 -0.3981  1.3722  0.2923
 8146TIP3    H224403   4.013   6.007   0.274  1.5687 -0.4238  0.3371
 8147TIP3   OH224404   1.977   3.051   0.484  0.5750  0.0569  0.1839
 8147TIP3    H124405   1.885   3.079   0.481  1.3353  2.7687 -1.1106
 8147TIP3    H224406   2.004   3.046   0.393  2.2375  1.3791  0.5625
 8148TIP3   OH224407   2.433   6.778   4.751  0.0861  0.3758 -0.3688
 8148TIP3    H124408   2.448   6.707   4.813  0.1365 -1.1964 -2.1105
 8148TIP3    H224409   2.341   6.770   4.727  0.4540 -0.0666 -1.6878
 8149TIP3   OH224410   1.436   6.029   3.833  0.0720 -0.0145 -0.2415
 8149TIP3    H124411   1.495   5.954   3.829  1.9575  1.2791  1.6000
 8149TIP3    H224412   1.387   6.017   3.915  0.5334  0.8575  0.1692
 8150TIP3   OH224413   0.849   4.427   5.848  0.1026  0.3776 -0.1225
 8150TIP3    H124414   0.839   4.436   5.753  3.2276  0.8108 -0.5400
 8150TIP3    H224415   0.838   4.516   5.882 -2.1845  0.0459  0.1431
 8151TIP3   OH224416   1.977   3.230   3.072 -0.6503  0.4801 -0.2962
 8151TIP3    H124417   1.947   3.166   3.136  0.6062  0.5392  0.3912
 8151TIP3    H224418   2.059   3.194   3.038  0.0538  1.6725  0.0687
 8152TIP3   OH224419   0.738   1.544   2.625  0.3838 -0.1721  0.6737
 8152TIP3    H124420   0.769   1.585   2.544 -0.0833  2.4638  1.7302
 8152TIP3    H224421   0.757   1.451   2.613  1.6605  0.3160 -1.8439
 8153TIP3   OH224422   0.786   1.332   5.800  0.5218 -0.0776 -0.0224
 8153TIP3    H124423   0.834   1.276   5.860 -1.1931 -1.1974  0.3774
 8153TIP3    H224424   0.742   1.396   5.856  1.2068  0.7081 -0.3529
 8154TIP3   OH224425   6.670   0.562   2.259 -0.0306 -0.3085  0.1421
 8154TIP3    H124426   6.749   0.514   2.234 -0.9512 -0.9414 -1.7379
 8154TIP3    H224427   6.659   0.629   2.191 -0.6067  0.3770  0.8887
 8155TIP3   OH224428   2.659   0.851   3.896  0.0781 -0.2735  0.0711
 8155TIP3    H124429   2.698   0.838   3.809 -0.0920  0.2217 -0.0853
 8155TIP3    H224430   2.612   0.769   3.914  0.0447 -0.3480 -0.3447
 8156TIP3   OH224431   3.020   2.670   4.137  0.4579  0.2057  0.2794
 8156TIP3    H124432   3.009   2.679   4.042  1.5563 -0.0791  0.1159
 8156TIP3    H224433   2.994   2.755   4.172  0.2192  0.3725 -0.2852
 8157TIP3   OH224434   2.718   4.752   1.411  0.2569  0.4674 -0.0346
 8157TIP3    H124435   2.806   4.750   1.450  0.1847  0.1528  0.1158
 8157TIP3    H224436   2.727   4.808   1.334  0.3862  1.1625  0.4729
 8158TIP3   OH224437   1.734   0.221   5.052 -0.8601  0.1379 -0.2750
 8158TIP3    H124438   1.759   0.309   5.080 -0.0512  0.3519 -1.5327
 8158TIP3    H224439   1.690   0.182   5.127  2.3730  0.1501  1.8015
 8159TIP3   OH224440   6.419   0.065   5.093  0.1854 -0.1119 -0.1268
 8159TIP3    H124441   6.382   0.103   5.014 -0.2982  0.0835  0.1888
 8159TIP3    H224442   6.349   0.010   5.129  1.0388 -1.7435 -0.8538
 8160TIP3   OH224443   4.758   1.606   5.574  0.2184 -0.1253  0.3310
 8160TIP3    H124444   4.828   1.596   5.509 -0.6401 -0.5373 -0.5477
 8160TIP3    H224445   4.783   1.547   5.645  1.2353  0.4296  0.4545
 8161TIP3   OH224446   2.983   2.108   2.102  0.4344  0.7200  0.0759
 8161TIP3    H124447   3.012   2.178   2.161 -1.1157  0.8812  0.7175
 8161TIP3    H224448   2.913   2.148   2.051 -1.1556 -0.5724  1.1347
 8162TIP3   OH224449   6.698   0.475   0.216  0.5191  0.0881 -0.0319
 8162TIP3    H124450   6.693   0.528   0.136  0.7240 -0.5747 -0.4905
 8162TIP3    H224451   6.770   0.414   0.201  1.8523  1.2273  1.4615
 8163TIP3   OH224452   4.067   6.402   1.760  0.0594  0.0973  0.6587
 8163TIP3    H124453   4.131   6.462   1.799 -0.7769  0.8180  0.9740
 8163TIP3    H224454   3.992   6.458   1.740  0.2103 -0.3754 -1.4067
 8164TIP3   OH224455   3.208   1.294   4.677  0.4792  0.0600  0.2670
 8164TIP3    H124456   3.209   1.362   4.609  0.8529  1.3070  1.4805
 8164TIP3    H224457   3.229   1.213   4.630  0.4364  0.8363 -1.1435
 8165TIP3   OH224458   3.955   2.933   1.486  0.5347  0.0144  0.6534
 8165TIP3    H124459   4.016   2.904   1.418 -0.2540 -2.7279  1.0101
 8165TIP3    H224460   4.004   2.921   1.568 -0.0548 -1.1377  0.8590
 8166TIP3   OH224461   1.635   1.939   5.894 -0.2059 -0.1542  0.1244
 8166TIP3    H124462   1.564   2.003   5.885  1.0982  1.1834 -1.3807
 8166TIP3    H224463   1.624   1.880   5.819 -1.4230 -1.8170  1.5263
 8167TIP3   OH224464   0.296   3.983   4.771 -0.1632  0.5630  0.1872
 8167TIP3    H124465   0.304   4.078   4.771  2.0231  0.4517  1.0669
 8167TIP3    H224466   0.315   3.958   4.862 -2.1417 -0.6514  0.3117
 8168TIP3   OH224467   2.146   4.638   5.704 -0.3583  0.4603 -0.1775
 8168TIP3    H124468   2.092   4.713   5.729 -0.5479  0.0989  0.5062
 8168TIP3    H224469   2.150   4.584   5.782 -0.9534 -0.6864 -0.9076
 8169TIP3   OH224470   1.231   4.476   0.052 -0.4000  0.0068  0.8853
 8169TIP3    H124471   1.172   4.493  -0.022  0.7800  0.7600  0.0955
 8169TIP3    H224472   1.260   4.562   0.080  2.0349 -0.4062 -0.1699
 8170TIP3   OH224473   5.514   4.563   5.091  0.1991  0.5349 -0.2362
 8170TIP3    H124474   5.587   4.622   5.074  1.8614 -1.4886 -0.5015
 8170TIP3    H224475   5.534   4.484   5.041 -1.6870 -0.4599  0.4640
 8171TIP3   OH224476   1.354   5.350   3.195 -0.0592  0.4227 -0.6521
 8171TIP3    H124477   1.403   5.329   3.116 -0.7346 -0.0235 -0.9611
 8171TIP3    H224478   1.375   5.441   3.214  1.2266  0.1170 -0.5302
 8172TIP3   OH224479   7.054   3.397   0.280 -0.3113  0.0367  0.1764
 8172TIP3    H124480   7.010   3.325   0.324 -1.6310 -0.1255 -1.3017
 8172TIP3    H224481   7.000   3.474   0.299 -1.3096 -0.1632 -1.6597
 8173TIP3   OH224482   1.896   5.638   0.386 -0.1169 -0.2832 -0.0578
 8173TIP3    H124483   1.827   5.604   0.329 -0.6036 -0.3839  0.5789
 8173TIP3    H224484   1.924   5.719   0.343 -1.2741  0.2421  0.1331
 8174TIP3   OH224485   5.420   4.950   3.730  0.2669 -1.0373  0.3228
 8174TIP3    H124486   5.496   5.004   3.755  0.2412 -1.5512  1.6016
 8174TIP3    H224487   5.457   4.883   3.671  0.7670 -1.1309  0.7328
 8175TIP3   OH224488   3.386   2.643   2.192  0.0727 -0.3084 -0.9234
 8175TIP3    H124489   3.436   2.603   2.121 -1.6912 -1.2964 -1.6876
 8175TIP3    H224490   3.448   2.701   2.236  2.0433 -1.9521 -1.3886
 8176TIP3   OH224491   6.032   6.685   4.432 -0.5365 -0.0777 -0.1623
 8176TIP3    H124492   6.049   6.771   4.394  0.7550 -0.1576  0.1830
 8176TIP3    H224493   6.032   6.700   4.526 -0.7168 -0.3954 -0.1104
 8177TIP3   OH224494   3.335   2.157   4.663 -0.4800  0.1426  0.2970
 8177TIP3    H124495   3.290   2.142   4.746  0.7542  1.9096  1.3639
 8177TIP3    H224496   3.414   2.103   4.670 -1.2079 -1.0834 -0.5379
 8178TIP3   OH224497   2.659   5.460   1.458  0.2969  0.1221  0.0188
 8178TIP3    H124498   2.615   5.454   1.373  0.6820 -3.0296 -0.0917
 8178TIP3    H224499   2.727   5.525   1.445 -0.5951  0.8019 -1.6179
 8179TIP3   OH224500   2.839   5.318   0.683  0.0541  0.0408 -0.1918
 8179TIP3    H124501   2.825   5.329   0.777 -1.0900  1.2681 -0.4745
 8179TIP3    H224502   2.927   5.353   0.667  1.4198 -2.6415  0.7741
 8180TIP3   OH224503   5.976   2.440   0.411 -0.5115  0.2065  0.0792
 8180TIP3    H124504   5.995   2.384   0.335 -2.4772  0.0158 -0.3213
 8180TIP3    H224505   6.009   2.526   0.385  0.8246 -0.3223 -0.0731
 8181TIP3   OH224506   3.405   1.332   2.573 -0.0767  0.4494  1.0868
 8181TIP3    H124507   3.407   1.427   2.565  0.7940  0.3000 -2.0317
 8181TIP3    H224508   3.496   1.305   2.563 -0.5914 -0.7634 -0.9576
 8182TIP3   OH224509   4.325   3.797   2.410 -0.0811  0.3858  0.3254
 8182TIP3    H124510   4.277   3.724   2.369 -0.7034  0.7326  0.4218
 8182TIP3    H224511   4.407   3.802   2.360 -1.1660  1.3544 -1.4836
 8183TIP3   OH224512   0.567   1.767   4.111 -0.0820  0.5226 -0.4397
 8183TIP3    H124513   0.505   1.710   4.066  0.2855 -0.1136 -0.1475
 8183TIP3    H224514   0.600   1.825   4.042 -0.1349  0.0984 -0.8258
 8184TIP3   OH224515   3.116   6.347   3.262 -0.5280 -0.1929 -0.0865
 8184TIP3    H124516   3.111   6.276   3.327  0.0837 -0.3074 -0.1585
 8184TIP3    H224517   3.200   6.334   3.219 -0.9763 -0.1921 -0.9948
 8185TIP3   OH224518   0.887   0.728   5.358 -0.0249  0.5434 -0.2180
 8185TIP3    H124519   0.897   0.749   5.265  0.1427  0.3957 -0.2329
 8185TIP3    H224520   0.793   0.741   5.375 -0.0430  0.6401 -0.3899
 8186TIP3   OH224521   3.899   0.395   2.498  0.5564  0.6149 -0.1891
 8186TIP3    H124522   3.813   0.424   2.468 -0.2929  1.1731  2.5380
 8186TIP3    H224523   3.904   0.303   2.471 -0.5672  0.7861 -1.0536
 8187TIP3   OH224524   2.370   0.105   5.462 -0.2675  0.1552 -0.0092
 8187TIP3    H124525   2.371   0.196   5.433  2.3291  0.4061  0.6377
 8187TIP3    H224526   2.462   0.085   5.483 -0.7568 -2.5929 -0.0714
 8188TIP3   OH224527   5.292   2.232   0.152  0.1727  0.3551  0.1209
 8188TIP3    H124528   5.354   2.219   0.224  1.9163  1.2983 -1.1447
 8188TIP3    H224529   5.319   2.314   0.111 -3.3086  2.0746  0.8210
 8189TIP3   OH224530   0.144   5.572   1.105 -0.2604 -0.3281 -0.0464
 8189TIP3    H124531   0.106   5.535   1.025  1.0868 -1.2431 -0.3031
 8189TIP3    H224532   0.234   5.592   1.081  0.1802 -0.6705  1.2514
 8190TIP3   OH224533   2.542   0.508   4.603 -0.5997 -0.1706  0.1566
 8190TIP3    H124534   2.535   0.501   4.507 -2.2661 -0.8428  0.2986
 8190TIP3    H224535   2.580   0.595   4.617 -0.6105  0.0688 -1.1078
 8191TIP3   OH224536   2.658   4.357   0.253  0.2059 -0.3812 -0.2015
 8191TIP3    H124537   2.571   4.396   0.264  0.6071  0.7503 -0.8275
 8191TIP3    H224538   2.641   4.266   0.230 -0.8114 -0.1717 -0.3258
 8192TIP3   OH224539   5.822   1.983   3.869 -0.1441  0.1582  0.0504
 8192TIP3    H124540   5.905   1.938   3.884 -0.2580 -0.3320 -0.7372
 8192TIP3    H224541   5.755   1.923   3.903 -0.2734 -0.1224 -0.6903
 8193TIP3   OH224542   4.604   5.684   0.649 -0.1290  0.0956 -0.9705
 8193TIP3    H124543   4.653   5.717   0.573 -0.2276 -0.4103 -1.2598
 8193TIP3    H224544   4.599   5.590   0.635  1.4618 -0.2809  0.6202
 8194TIP3   OH224545   3.637   0.837   0.715 -0.1145 -0.0306  0.0228
 8194TIP3    H124546   3.558   0.863   0.763 -0.2479 -1.7500  0.8281
 8194TIP3    H224547   3.699   0.812   0.784 -0.4212 -2.8990 -0.6325
 8195TIP3   OH224548   3.795   3.001   0.415  0.4044  0.0532 -1.1895
 8195TIP3    H124549   3.727   2.947   0.375 -0.9945  0.0825  0.9983
 8195TIP3    H224550   3.764   3.090   0.406  0.9688  0.2120 -1.6246
 8196TIP3   OH224551   2.741   4.364  -0.016 -0.3396  0.8000 -0.0509
 8196TIP3    H124552   2.741   4.454  -0.049  2.5834  1.1377  0.5953
 8196TIP3    H224553   2.741   4.373   0.079  0.0219  0.1200  0.0190
 8197TIP3   OH224554   3.769   4.940   4.440 -0.1704  0.5379  0.1516
 8197TIP3    H124555   3.718   4.860   4.452 -0.3138  0.6130  0.0469
 8197TIP3    H224556   3.709   5.001   4.397 -0.2606  0.9034  0.7823
 8198TIP3   OH224557   6.387   1.256   1.919 -0.6161 -0.1401  0.2423
 8198TIP3    H124558   6.459   1.200   1.949 -0.6573  0.0841  0.7711
 8198TIP3    H224559   6.413   1.344   1.947 -0.2937  0.1949 -1.0594
 8199TIP3   OH224560   2.166   2.235   5.601 -0.0239  0.2070 -0.4695
 8199TIP3    H124561   2.223   2.198   5.668 -1.2392 -0.3823  0.2802
 8199TIP3    H224562   2.083   2.250   5.646 -0.3535  1.4076 -1.4362
 8200TIP3   OH224563   1.746   2.787   5.438  0.3942 -0.5406 -0.6441
 8200TIP3    H124564   1.834   2.817   5.458 -0.4603  1.6658  0.0999
 8200TIP3    H224565   1.739   2.796   5.343  1.0901 -1.1831 -0.7688
 8201TIP3   OH224566   3.444   4.605   5.094 -0.2159 -0.4258 -0.2048
 8201TIP3    H124567   3.533   4.603   5.060 -0.5775 -0.2860 -1.1918
 8201TIP3    H224568   3.433   4.693   5.129  0.5504 -0.9277  1.4085
 8202TIP3   OH224569   5.021   2.032   4.028  0.2561  0.4288  0.0137
 8202TIP3    H124570   4.966   2.085   3.970  1.1753  0.4558 -0.8634
 8202TIP3    H224571   5.109   2.067   4.017  0.4358  0.5422  1.5851
 8203TIP3   OH224572   1.328   1.295   1.719 -0.1662 -0.0885  0.2701
 8203TIP3    H124573   1.310   1.234   1.790  1.7211  1.7121  2.4965
 8203TIP3    H224574   1.392   1.250   1.665  0.1082 -0.6643  1.0483
 8204TIP3   OH224575   0.612   5.565   2.846  0.1667  0.0024  0.0176
 8204TIP3    H124576   0.563   5.647   2.847 -1.0642 -0.7118  1.1545
 8204TIP3    H224577   0.645   5.556   2.935  0.5784 -0.5880 -0.1888
 8205TIP3   OH224578   0.455   3.969   3.365 -0.3553 -0.3312 -0.7690
 8205TIP3    H124579   0.540   4.011   3.372 -0.5692 -0.0450  0.3003
 8205TIP3    H224580   0.395   4.041   3.342 -0.7736  0.0517  1.3713
 8206TIP3   OH224581   6.780   1.872   1.002 -0.0197 -0.2659  0.0379
 8206TIP3    H124582   6.757   1.910   1.086  0.0318  1.6516 -0.7670
 8206TIP3    H224583   6.707   1.813   0.982 -1.2425  1.0875  0.3316
 8207TIP3   OH224584   2.703   4.823   5.021  0.0384  0.1646  0.4140
 8207TIP3    H124585   2.628   4.810   5.079  1.2286 -1.6036  1.6905
 8207TIP3    H224586   2.752   4.741   5.027  2.0753  1.2475 -0.3418
 8208TIP3   OH224587   1.890   0.796   5.162 -0.0655 -0.1677  0.4363
 8208TIP3    H124588   1.810   0.839   5.192  0.0298 -0.0609  0.5359
 8208TIP3    H224589   1.878   0.787   5.067  0.7631  1.9013  0.0871
 8209TIP3   OH224590   6.862   4.264   3.611  0.1219 -0.0761  0.4181
 8209TIP3    H124591   6.770   4.237   3.617  0.0512 -0.8414 -2.4210
 8209TIP3    H224592   6.906   4.190   3.569  1.4252  1.3874 -0.9204
 8210TIP3   OH224593   2.897  -0.015   5.111 -0.2401  0.4237  0.1067
 8210TIP3    H124594   2.803   0.000   5.122 -0.3468  1.4035 -1.7527
 8210TIP3    H224595   2.932   0.070   5.085  0.8526 -0.3339 -1.0120
 8211TIP3   OH224596   1.340   4.939   0.368 -0.2980 -0.4826 -0.8513
 8211TIP3    H124597   1.341   4.843   0.369 -1.0070 -0.4935 -0.6620
 8211TIP3    H224598   1.406   4.963   0.302 -0.5304 -1.1067 -1.3208
 8212TIP3   OH224599   1.547   1.521   4.249  0.0601  0.1628  0.0168
 8212TIP3    H124600   1.544   1.558   4.337 -1.4376  1.0458 -0.3718
 8212TIP3    H224601   1.514   1.432   4.259  1.5005 -0.3381  0.5862
 8213TIP3   OH224602   4.566   3.574   3.523  0.4624  0.1532  0.8436
 8213TIP3    H124603   4.535   3.663   3.537  1.9171  0.8186  0.0868
 8213TIP3    H224604   4.591   3.572   3.431 -1.3203 -1.6423  0.3288
 8214TIP3   OH224605   0.752   2.822   4.818  0.3982 -0.1908 -0.0255
 8214TIP3    H124606   0.658   2.827   4.800  0.3605  0.0913  0.2464
 8214TIP3    H224607   0.764   2.870   4.900  0.8459  0.1646 -0.2938
 8215TIP3   OH224608   5.627   1.851   5.856 -0.9688  0.2465 -0.5200
 8215TIP3    H124609   5.540   1.888   5.845 -0.7139  1.2910  0.7684
 8215TIP3    H224610   5.614   1.772   5.908 -1.1098  0.6728  0.1041
 8216TIP3   OH224611   5.488   3.686   4.767 -0.0867  0.2201  0.5205
 8216TIP3    H124612   5.488   3.592   4.748 -1.3475  0.7679 -2.8273
 8216TIP3    H224613   5.395   3.708   4.774  0.0698  1.5505 -1.0435
 8217TIP3   OH224614   5.812   2.371   1.686 -0.1433  0.0824  0.1127
 8217TIP3    H124615   5.747   2.433   1.654 -1.2046 -0.0299  1.9039
 8217TIP3    H224616   5.872   2.423   1.739  0.1754 -0.0905 -0.0759
 8218TIP3   OH224617   2.746   4.647   1.713 -0.5086 -0.5367  0.1814
 8218TIP3    H124618   2.715   4.736   1.696 -0.3196 -0.2245  1.3618
 8218TIP3    H224619   2.823   4.638   1.657 -1.1565 -0.3516 -0.7560
 8219TIP3   OH224620   5.468   0.118   1.438 -0.1714  0.6731 -0.4140
 8219TIP3    H124621   5.432   0.033   1.463  0.5739  0.0544 -1.3703
 8219TIP3    H224622   5.402   0.181   1.467  0.0487 -0.0637  1.8811
 8220TIP3   OH224623   3.991   6.227   2.359 -0.0221  0.1559 -0.4137
 8220TIP3    H124624   3.964   6.155   2.416 -0.5762  1.1412  0.6070
 8220TIP3    H224625   4.074   6.198   2.321 -1.1154 -1.8060 -1.4981
 8221TIP3   OH224626   4.824   3.400   2.925  0.7540  0.0046 -0.2562
 8221TIP3    H124627   4.831   3.314   2.883  0.4131 -0.2665  0.2403
 8221TIP3    H224628   4.841   3.383   3.018  0.1216  0.3826 -0.0696
 8222TIP3   OH224629   0.966   2.800   1.873 -0.0613  0.7191 -0.0034
 8222TIP3    H124630   0.950   2.763   1.786  1.1592  0.0245  0.0430
 8222TIP3    H224631   0.957   2.726   1.932 -0.1160  1.0324  0.3854
 8223TIP3   OH224632   0.449   4.814   5.805 -0.2143 -0.3023  0.2135
 8223TIP3    H124633   0.375   4.756   5.825  0.3500 -1.2638 -0.3935
 8223TIP3    H224634   0.460   4.867   5.884 -2.3599  0.8007 -0.1414
 8224TIP3   OH224635   0.441   4.823   0.748  0.1710 -0.2819  0.6073
 8224TIP3    H124636   0.442   4.917   0.763 -1.1379 -0.1962  0.2651
 8224TIP3    H224637   0.464   4.785   0.833 -0.1452  0.3282  0.9696
 8225TIP3   OH224638   4.470   5.228   0.142 -0.1433  1.0293  0.3140
 8225TIP3    H124639   4.400   5.291   0.159 -0.3047  0.4132  2.1290
 8225TIP3    H224640   4.549   5.270   0.174 -0.2333  0.3858  1.4314
 8226TIP3   OH224641   7.014   5.931   4.997  0.0363 -0.2973 -0.4236
 8226TIP3    H124642   6.957   5.968   5.065  0.4694 -1.1338  0.4162
 8226TIP3    H224643   7.072   5.872   5.045  2.3376  1.3070 -1.1025
 8227TIP3   OH224644   0.439   1.124   0.065 -0.6246  0.2611  0.3050
 8227TIP3    H124645   0.443   1.139   0.160 -0.0651  1.5110  0.1048
 8227TIP3    H224646   0.348   1.102   0.048 -0.6055 -0.5778  1.2137
 8228TIP3   OH224647   6.671   3.758   4.360  0.0670  0.1256  0.1227
 8228TIP3    H124648   6.621   3.697   4.414  1.5519 -1.2101  0.0841
 8228TIP3    H224649   6.663   3.722   4.271 -0.0400  0.6908 -0.0984
 8229TIP3   OH224650   1.858   1.910   1.826  0.0171 -0.5556  0.3346
 8229TIP3    H124651   1.874   1.853   1.901 -1.0626 -2.2780 -0.6841
 8229TIP3    H224652   1.908   1.871   1.755 -0.2449  0.1391 -0.2432
 8230TIP3   OH224653   0.147   1.742   1.356 -0.5520 -0.9237  0.2051
 8230TIP3    H124654   0.215   1.796   1.316 -0.4264 -0.4100  1.0817
 8230TIP3    H224655   0.195   1.683   1.415 -0.5193 -3.1292 -1.8866
 8231TIP3   OH224656   5.615   5.200   1.054 -0.2584  0.7375 -0.1445
 8231TIP3    H124657   5.612   5.195   0.959 -1.7729 -1.5641 -0.0739
 8231TIP3    H224658   5.676   5.131   1.080  0.2733  1.4556  0.5686
 8232TIP3   OH224659   4.456   6.019   3.028 -0.1507  0.2842 -0.6518
 8232TIP3    H124660   4.431   6.009   2.936 -2.0254 -0.8390 -0.0914
 8232TIP3    H224661   4.551   6.015   3.028 -0.1625 -1.5052 -2.3857
 8233TIP3   OH224662   2.298   2.132   5.822 -0.7133  0.1671 -0.1890
 8233TIP3    H124663   2.304   2.180   5.904 -0.8447 -1.2713  0.6940
 8233TIP3    H224664   2.381   2.083   5.817 -1.7181 -1.6871  0.3769
 8234TIP3   OH224665   5.758   0.766   2.830  0.8050 -0.5276 -0.0844
 8234TIP3    H124666   5.729   0.688   2.877 -0.6018 -1.5099 -2.4349
 8234TIP3    H224667   5.796   0.822   2.898 -1.0506 -1.8550  2.1971
 8235TIP3   OH224668   0.774   5.683   4.527  0.0118  0.5724 -0.2393
 8235TIP3    H124669   0.761   5.605   4.580 -1.0713  1.2620  0.5496
 8235TIP3    H224670   0.693   5.732   4.536  0.6317  1.7403 -0.7936
 8236TIP3   OH224671   6.307   6.081   1.214  0.0954  0.3341  0.1519
 8236TIP3    H124672   6.224   6.103   1.256  0.2969  0.6341  0.3949
 8236TIP3    H224673   6.374   6.126   1.266  0.6256 -1.6280  1.2797
 8237TIP3   OH224674   4.287   6.271   0.986 -0.7385  0.4834  0.2065
 8237TIP3    H124675   4.307   6.294   0.896  2.6628 -1.5766  0.2378
 8237TIP3    H224676   4.299   6.176   0.990 -3.4146  0.0915  2.3153
 8238TIP3   OH224677   4.461   0.396   2.407  0.5623  0.5312  0.6042
 8238TIP3    H124678   4.416   0.399   2.322 -1.0501 -1.9887  1.2858
 8238TIP3    H224679   4.544   0.353   2.388 -0.4418 -1.4771  0.4674
 8239TIP3   OH224680   0.396   0.401   1.970  0.0666  0.0881  0.5622
 8239TIP3    H124681   0.321   0.342   1.968 -1.3965  1.8520 -0.1503
 8239TIP3    H224682   0.456   0.367   1.904 -1.0697 -0.1977 -0.3444
 8240TIP3   OH224683   2.342   4.175   4.292 -0.3097 -0.1510 -0.4181
 8240TIP3    H124684   2.293   4.222   4.224 -2.0114  0.2731  1.0664
 8240TIP3    H224685   2.377   4.244   4.348 -2.4079 -0.5490  1.4952
 8241TIP3   OH224686   4.491   5.142   3.556  0.0590  0.1460 -0.6971
 8241TIP3    H124687   4.499   5.133   3.461  0.4385  0.0407 -0.6559
 8241TIP3    H224688   4.482   5.236   3.571  3.9571  0.6561 -0.5712
 8242TIP3   OH224689   0.433   6.407   4.174  0.0215 -0.4414  0.1917
 8242TIP3    H124690   0.372   6.428   4.103  0.0240 -0.4198  0.1964
 8242TIP3    H224691   0.376   6.382   4.248  0.0064 -2.9271 -0.5451
 8243TIP3   OH224692   2.370   3.424   2.838 -0.7364  0.7924 -0.3957
 8243TIP3    H124693   2.349   3.497   2.896 -3.1933 -0.1178 -0.0354
 8243TIP3    H224694   2.407   3.357   2.896 -0.4901  0.9413 -0.3777
 8244TIP3   OH224695   5.621   0.213   2.864 -0.0181  0.1652  0.1660
 8244TIP3    H124696   5.567   0.251   2.934  1.6945 -0.0857  1.6875
 8244TIP3    H224697   5.650   0.129   2.900 -0.3886 -0.7183 -1.5134
 8245TIP3   OH224698   5.115   1.766   0.347 -0.3160 -0.0129  0.1913
 8245TIP3    H124699   5.199   1.799   0.379 -1.2076  2.0144  0.6327
 8245TIP3    H224700   5.107   1.800   0.258  0.0161 -1.5776 -0.4681
 8246TIP3   OH224701   2.378   0.607   1.655 -0.2401  0.0011 -0.0263
 8246TIP3    H124702   2.390   0.702   1.663  0.5390 -0.1416  0.6582
 8246TIP3    H224703   2.350   0.594   1.565 -1.4640  0.9860  0.1736
 8247TIP3   OH224704   3.130   5.805   1.008 -0.0349  0.1153  0.7613
 8247TIP3    H124705   3.118   5.826   0.915 -0.2584  0.6840  0.9131
 8247TIP3    H224706   3.220   5.773   1.014 -1.0032 -3.2042 -0.2293
 8248TIP3   OH224707   5.852   5.069   1.489 -0.7010  0.1871 -0.3055
 8248TIP3    H124708   5.816   5.024   1.413 -0.2146  0.6248 -0.7988
 8248TIP3    H224709   5.831   5.012   1.563 -2.2972  0.3735 -0.5877
 8249TIP3   OH224710   3.282   6.125   1.735 -0.2655  0.3986 -0.1676
 8249TIP3    H124711   3.370   6.089   1.720 -0.5040 -0.7567  1.0129
 8249TIP3    H224712   3.298   6.205   1.786  0.1077  0.2452 -0.0364
 8250TIP3   OH224713   3.055   4.506   0.793 -0.0886  0.2520  0.2229
 8250TIP3    H124714   3.088   4.451   0.864 -1.4829  0.0531  0.7345
 8250TIP3    H224715   3.022   4.443   0.728 -1.0317  0.4674  0.4903
 8251TIP3   OH224716   3.562   4.188   3.432 -0.0708  0.3135  0.4097
 8251TIP3    H124717   3.532   4.111   3.383 -1.7265  0.9142  0.3889
 8251TIP3    H224718   3.628   4.228   3.375  1.1231 -1.2781  0.6107
 8252TIP3   OH224719   1.190   2.439   3.035  0.5383 -0.4393  0.2733
 8252TIP3    H124720   1.185   2.525   2.994 -0.5010 -0.3411  0.5574
 8252TIP3    H224721   1.255   2.449   3.104  0.8049 -0.0303 -0.0313
 8253TIP3   OH224722   7.057   4.391   1.825 -0.1783  0.6788  0.5594
 8253TIP3    H124723   6.982   4.337   1.850 -0.1589 -0.0143 -0.7877
 8253TIP3    H224724   7.075   4.445   1.902 -1.2961 -0.0054  1.3219
 8254TIP3   OH224725   1.051   0.487   1.260 -1.0820 -0.4548  0.0334
 8254TIP3    H124726   1.078   0.579   1.264  2.9096 -1.2470 -2.7695
 8254TIP3    H224727   0.968   0.489   1.212 -1.0261  1.6634 -0.0869
 8255TIP3   OH224728   5.439   0.650   4.449  0.0764 -0.0321 -0.0947
 8255TIP3    H124729   5.535   0.650   4.449  0.0895  0.2573  1.2994
 8255TIP3    H224730   5.416   0.731   4.403  0.5313  0.5689  0.6998
 8256TIP3   OH224731   5.967   1.431   0.749 -0.3792  0.5126  0.3563
 8256TIP3    H124732   6.004   1.437   0.661 -0.7694  1.2956  0.2441
 8256TIP3    H224733   6.039   1.453   0.808  0.8343 -2.9981  0.4749
 8257TIP3   OH224734   0.941   1.865   4.133  0.4215  0.0418 -0.0415
 8257TIP3    H124735   0.961   1.817   4.213 -2.1754  1.6947  1.7445
 8257TIP3    H224736   0.976   1.952   4.148 -0.0311  0.3518 -0.7363
 8258TIP3   OH224737   1.626   4.468   5.434 -0.1298  0.0247 -0.2482
 8258TIP3    H124738   1.627   4.557   5.468 -3.0156 -0.0506  0.3072
 8258TIP3    H224739   1.652   4.477   5.342  1.3003  1.1389  0.2225
 8259TIP3   OH224740   4.678   2.469   2.018  0.1220 -0.0043 -0.2081
 8259TIP3    H124741   4.698   2.443   2.108 -1.0345  0.0630  0.0806
 8259TIP3    H224742   4.730   2.548   2.003  0.5123 -0.1610  0.3019
 8260TIP3   OH224743   4.714   1.748   2.879 -0.2347  0.2685 -0.2213
 8260TIP3    H124744   4.667   1.694   2.815  1.6417 -0.6065 -0.9194
 8260TIP3    H224745   4.799   1.764   2.840 -0.0352  2.1405  0.8453
 8261TIP3   OH224746   2.794   2.110   5.830 -0.6163  0.4689 -0.5261
 8261TIP3    H124747   2.755   2.139   5.912 -0.2042  0.1520 -0.2189
 8261TIP3    H224748   2.837   2.027   5.851  0.3724  0.8895 -0.8176
 8262TIP3   OH224749   5.386   0.515   1.270 -0.2413  0.0723  0.4135
 8262TIP3    H124750   5.461   0.481   1.222 -1.7091 -2.1309 -0.4547
 8262TIP3    H224751   5.408   0.607   1.288  1.7807  0.0246 -1.5198
 8263TIP3   OH224752   5.430   2.823   0.701 -0.3897  0.8082 -0.0758
 8263TIP3    H124753   5.384   2.862   0.627  1.8634  2.5904 -0.6547
 8263TIP3    H224754   5.382   2.855   0.778 -1.0567  1.2910 -0.6767
 8264TIP3   OH224755   1.998   6.413   3.406 -0.2671  0.5138  0.2473
 8264TIP3    H124756   2.064   6.481   3.418 -1.1651  1.1895  1.5240
 8264TIP3    H224757   1.926   6.456   3.362 -1.5708  0.9191  2.6106
 8265TIP3   OH224758   6.537   0.168   1.519 -0.4652  0.6982  0.2267
 8265TIP3    H124759   6.553   0.250   1.566 -0.4375  1.6316 -1.3605
 8265TIP3    H224760   6.514   0.194   1.430 -0.1426 -1.0327 -0.4172
 8266TIP3   OH224761   0.359   3.664   4.312  0.1286 -0.0530  0.0984
 8266TIP3    H124762   0.273   3.706   4.307  1.0118  1.6743 -1.8091
 8266TIP3    H224763   0.397   3.697   4.393 -0.5829  0.0032  0.4181
 8267TIP3   OH224764   2.553   6.664   2.167  0.1545 -0.2987 -0.5660
 8267TIP3    H124765   2.615   6.640   2.235 -0.4343 -0.9843 -0.2668
 8267TIP3    H224766   2.574   6.756   2.147 -0.1740  0.1696  1.0903
 8268TIP3   OH224767   4.448   4.378   1.407  0.3575  0.2148 -0.0880
 8268TIP3    H124768   4.360   4.350   1.431  1.1584 -2.4544  0.0598
 8268TIP3    H224769   4.459   4.463   1.450 -0.8583 -1.0301  2.9060
 8269TIP3   OH224770   1.571   3.649   1.819  0.1714  0.2894 -0.3598
 8269TIP3    H124771   1.590   3.714   1.752  1.4554  2.1763  1.7017
 8269TIP3    H224772   1.476   3.651   1.831  0.1468  1.3655 -0.7368
 8270TIP3   OH224773   1.949   1.459   2.880 -0.2423  0.4916 -0.0581
 8270TIP3    H124774   2.043   1.456   2.861  0.2780  1.1521  2.1230
 8270TIP3    H224775   1.911   1.390   2.825  1.3612  0.8550 -1.7075
 8271TIP3   OH224776   2.610   2.750   1.500  1.0797 -0.3209 -0.0860
 8271TIP3    H124777   2.579   2.674   1.550 -0.7185  0.4721  0.0877
 8271TIP3    H224778   2.533   2.781   1.452  1.7708  1.3541 -0.2026
 8272TIP3   OH224779   2.520   0.842   4.893  0.2502  0.2765 -0.5825
 8272TIP3    H124780   2.610   0.842   4.924 -0.2498  1.5458  0.9561
 8272TIP3    H224781   2.495   0.934   4.889 -0.6821 -0.0062 -1.9413
 8273TIP3   OH224782   5.230   5.801   1.978 -0.2543 -0.5486  0.0207
 8273TIP3    H124783   5.210   5.741   2.050 -0.1066 -2.6686 -1.6083
 8273TIP3    H224784   5.325   5.807   1.978 -0.2882  0.1531  0.5022
 8274TIP3   OH224785   2.355   1.954   5.202 -0.1732 -0.4408  0.5010
 8274TIP3    H124786   2.439   1.967   5.158 -0.2299 -0.4334  0.3950
 8274TIP3    H224787   2.379   1.932   5.292 -0.0065 -1.8134  0.1524
 8275TIP3   OH224788   6.093   5.499   2.001 -0.5349 -0.1234  0.8171
 8275TIP3    H124789   6.136   5.573   2.043  1.5511 -1.1164  0.5255
 8275TIP3    H224790   6.163   5.450   1.959 -2.2097 -0.6412 -1.6223
 8276TIP3   OH224791   0.420   6.631   2.093  0.1480  0.0925  0.5216
 8276TIP3    H124792   0.508   6.626   2.130  0.4949  1.8684  0.0471
 8276TIP3    H224793   0.374   6.555   2.128  2.3498 -1.8490 -0.5426
 8277TIP3   OH224794   7.027   6.467   3.045 -0.2902  0.4484  0.0190
 8277TIP3    H124795   7.116   6.446   3.018 -0.5176 -0.6290  0.0682
 8277TIP3    H224796   7.008   6.551   3.002  0.2612  0.0100 -1.1133
 8278TIP3   OH224797   3.912   1.807   2.169 -0.5463 -0.4808  0.5195
 8278TIP3    H124798   3.953   1.833   2.087 -0.4975  0.6224  0.8669
 8278TIP3    H224799   3.917   1.712   2.170  1.2947 -0.4280  0.1783
 8279TIP3   OH224800   6.524   3.259   2.339  0.3366  0.9778 -0.0810
 8279TIP3    H124801   6.437   3.228   2.362 -0.1557  1.3749 -1.3584
 8279TIP3    H224802   6.583   3.197   2.381 -0.5020  1.4390  1.9091
 8280TIP3   OH224803   4.240   5.056   3.042  0.2698  0.4128  0.1953
 8280TIP3    H124804   4.275   5.070   2.954 -0.6199  0.9933 -0.0926
 8280TIP3    H224805   4.173   5.124   3.051 -0.4301 -0.3518  0.8883
 8281TIP3   OH224806   6.903   4.534   2.203 -0.5851 -0.1657  0.3365
 8281TIP3    H124807   6.928   4.567   2.117 -1.0317 -0.8402 -0.0551
 8281TIP3    H224808   6.986   4.506   2.243 -0.5634 -1.3824 -0.5261
 8282TIP3   OH224809   2.204   6.268   4.884  0.0859 -0.5740 -0.0519
 8282TIP3    H124810   2.148   6.336   4.922 -1.0877 -1.9974  0.8565
 8282TIP3    H224811   2.284   6.271   4.936  1.1668  1.7691 -1.6331
 8283TIP3   OH224812   4.158   2.100   1.001 -0.7426 -0.3384  0.7156
 8283TIP3    H124813   4.128   2.178   0.954 -2.3382 -1.2207  0.1728
 8283TIP3    H224814   4.100   2.094   1.077  1.2363  0.5692  2.3735
 8284TIP3   OH224815   7.087   6.313   0.107 -0.0515  0.2210  0.1238
 8284TIP3    H124816   7.112   6.396   0.147  4.1784 -0.8762  0.2390
 8284TIP3    H224817   7.091   6.250   0.180 -0.4657 -0.5220 -0.4861
 8285TIP3   OH224818   5.294   1.332   1.488  0.4413 -0.1671 -0.0871
 8285TIP3    H124819   5.238   1.333   1.410 -0.2717 -0.1972  0.4165
 8285TIP3    H224820   5.241   1.375   1.555  2.0274  2.2333 -0.2584
 8286TIP3   OH224821   1.955   5.931   1.348  0.4880  0.5525  0.1012
 8286TIP3    H124822   1.923   5.969   1.267  2.0818  1.5382 -0.1038
 8286TIP3    H224823   1.888   5.867   1.373  0.3947 -0.4479 -2.4548
 8287TIP3   OH224824   3.870   2.505   0.340 -0.6226  0.1213  0.3001
 8287TIP3    H124825   3.815   2.427   0.338 -2.0135  0.9668  2.1534
 8287TIP3    H224826   3.841   2.558   0.266  1.2628 -1.6254 -1.8094
 8288TIP3   OH224827   4.710   0.119   2.824  0.1767  0.1589 -0.3021
 8288TIP3    H124828   4.767   0.189   2.854 -0.5175  1.0396 -0.9969
 8288TIP3    H224829   4.767   0.042   2.819  0.9045  0.6192  0.6346
 8289TIP3   OH224830   7.057   1.983   0.402 -0.8188 -0.5264  0.3658
 8289TIP3    H124831   7.002   2.058   0.380  2.5444  2.0600 -0.1622
 8289TIP3    H224832   7.101   2.008   0.483  3.2729  0.0985 -1.7392
 8290TIP3   OH224833   5.786   4.993   2.799 -0.4298  0.1707 -0.4881
 8290TIP3    H124834   5.758   4.901   2.790 -2.2730  0.6345 -0.0103
 8290TIP3    H224835   5.826   5.014   2.715 -0.8378 -0.8061 -0.9537
 8291TIP3   OH224836   2.845   6.590   4.458 -0.3526  0.4493 -0.2414
 8291TIP3    H124837   2.840   6.554   4.546 -0.2459 -1.5141 -0.9978
 8291TIP3    H224838   2.927   6.641   4.458 -0.6342  0.9421  0.9214
 8292TIP3   OH224839   6.899   1.238   2.712 -0.0689  0.2252 -0.0824
 8292TIP3    H124840   6.961   1.165   2.719  0.4103  0.5757 -0.5502
 8292TIP3    H224841   6.948   1.313   2.747  0.0539  0.6668 -1.1699
 8293TIP3   OH224842   4.728   0.064   2.016 -0.3307  0.0923  0.1332
 8293TIP3    H124843   4.640   0.060   1.979 -0.7701  2.0156  0.8604
 8293TIP3    H224844   4.714   0.095   2.106  1.2371  2.9977 -0.5335
 8294TIP3   OH224845   5.154   2.994   5.428  0.2656  0.1127  0.0857
 8294TIP3    H124846   5.156   2.984   5.523  2.6213 -2.6356 -0.1063
 8294TIP3    H224847   5.245   2.981   5.400 -0.7232 -1.9542 -2.7087
 8295TIP3   OH224848   2.303   3.265   5.484  0.3262 -0.3609  0.5962
 8295TIP3    H124849   2.249   3.230   5.413 -0.1303 -2.3680  1.8622
 8295TIP3    H224850   2.392   3.263   5.451  0.1110 -1.2145  0.0565
 8296TIP3   OH224851   2.364   2.708   0.951 -0.6187 -0.2710 -0.3164
 8296TIP3    H124852   2.441   2.726   1.003 -0.3380  1.8120 -1.3474
 8296TIP3    H224853   2.396   2.659   0.876 -0.4562 -0.2629 -0.2514
 8297TIP3   OH224854   4.579   3.061   2.131 -0.8009  0.1019 -0.0770
 8297TIP3    H124855   4.512   3.129   2.129  0.1272  1.0732  0.8623
 8297TIP3    H224856   4.650   3.098   2.183  0.2776 -1.0884 -0.6447
 8298TIP3   OH224857   5.033   3.612   2.314  0.1911 -0.8433  0.4153
 8298TIP3    H124858   5.053   3.573   2.399  0.0651 -0.7288  0.4978
 8298TIP3    H224859   5.095   3.571   2.254  0.4267 -0.7627  0.6021
 8299TIP3   OH224860   4.426   2.524   1.622  0.4302 -0.0730  0.0383
 8299TIP3    H124861   4.494   2.592   1.619  1.0032 -0.6712 -1.5542
 8299TIP3    H224862   4.443   2.470   1.545 -1.0791 -1.0062  0.3253
 8300TIP3   OH224863   3.962   2.764   2.324 -0.2994  0.2446  0.2214
 8300TIP3    H124864   4.031   2.705   2.292 -2.4523 -0.8348 -2.9862
 8300TIP3    H224865   3.989   2.851   2.293  0.9314  0.3439  1.4756
 8301TIP3   OH224866   3.671   6.605   4.877  0.0692 -1.0678 -0.1928
 8301TIP3    H124867   3.577   6.594   4.892 -0.1709  0.0598 -0.7727
 8301TIP3    H224868   3.705   6.516   4.878 -1.0045 -1.5005  0.0232
 8302TIP3   OH224869   2.247   1.236   0.461 -0.1626  0.2829 -0.1116
 8302TIP3    H124870   2.255   1.156   0.513  0.1244  0.1319 -0.3849
 8302TIP3    H224871   2.328   1.240   0.410 -0.3313  0.5621 -0.3608
 8303TIP3   OH224872   3.313   2.983   3.787  0.4930 -0.1183  0.2495
 8303TIP3    H124873   3.376   2.928   3.742  0.3751  0.8235 -1.1360
 8303TIP3    H224874   3.339   2.980   3.879  2.8471  0.6133 -0.3386
 8304TIP3   OH224875   0.543   4.724   0.984  0.3772  0.0923  0.4976
 8304TIP3    H124876   0.504   4.637   0.975  1.6032 -0.5779  1.4120
 8304TIP3    H224877   0.625   4.720   0.935  0.0438  1.0116 -0.1578
 8305TIP3   OH224878   0.935   6.471   0.326 -0.4037  0.4886 -0.3907
 8305TIP3    H124879   0.939   6.563   0.352  0.1656  0.5975 -0.8435
 8305TIP3    H224880   0.965   6.422   0.402  0.4567  0.7515 -0.5529
 8306TIP3   OH224881   5.557   5.882   0.925  0.1195  0.4395 -0.4092
 8306TIP3    H124882   5.587   5.963   0.884  1.4423  0.2036  0.0603
 8306TIP3    H224883   5.615   5.815   0.891 -0.9409 -0.3260 -0.7581
 8307TIP3   OH224884   4.333   4.913   0.697 -0.1798 -0.2364  0.1949
 8307TIP3    H124885   4.399   4.982   0.703  0.7130 -1.1558  1.5594
 8307TIP3    H224886   4.349   4.873   0.611 -0.4135  0.9372 -0.4148
 8308TIP3   OH224887   2.031   2.944   5.016 -0.2310  0.0235 -0.1868
 8308TIP3    H124888   1.952   2.934   5.069 -0.9692  1.2597 -0.9903
 8308TIP3    H224889   2.080   3.013   5.061  0.9519 -1.4505  0.8993
 8309TIP3   OH224890   5.666   2.700   2.915 -0.0110  0.1045 -0.0860
 8309TIP3    H124891   5.619   2.670   2.837 -1.3451  0.4666  0.5461
 8309TIP3    H224892   5.616   2.776   2.945  2.1312  1.7685 -0.4858
 8310TIP3   OH224893   0.101   6.247   2.306  0.2604 -0.6010 -0.1624
 8310TIP3    H124894   0.034   6.210   2.247 -0.4160 -0.4619  0.5021
 8310TIP3    H224895   0.184   6.213   2.272 -0.1375 -0.7443 -1.0323
 8311TIP3   OH224896   1.644   3.746   4.603 -0.2906 -0.3455 -0.7054
 8311TIP3    H124897   1.645   3.665   4.552  0.8135 -0.8066  0.0312
 8311TIP3    H224898   1.551   3.769   4.609 -0.4837 -0.4075 -2.6758
 8312TIP3   OH224899   1.682   2.910   3.294  0.8052 -0.2060  0.2119
 8312TIP3    H124900   1.757   2.967   3.274  1.5369 -1.5588 -1.0476
 8312TIP3    H224901   1.609   2.950   3.248  0.4796  1.6015  2.1222
 8313TIP3   OH224902   6.269   5.386   0.140 -0.0580  0.4027  0.1338
 8313TIP3    H124903   6.323   5.455   0.100  0.3101  1.1520  1.8164
 8313TIP3    H224904   6.332   5.332   0.189 -0.3877 -0.9673 -0.8874
 8314TIP3   OH224905   2.181   5.910   2.054  0.4456 -0.0661 -0.5733
 8314TIP3    H124906   2.247   5.847   2.028  0.2599 -0.5612  0.1350
 8314TIP3    H224907   2.192   5.983   1.993  1.6519 -0.1277 -0.4456
 8315TIP3   OH224908   5.868   1.442   2.784  0.3565  0.4717  0.0575
 8315TIP3    H124909   5.808   1.487   2.844  0.1690  0.7888 -0.3651
 8315TIP3    H224910   5.941   1.502   2.774 -0.8734  1.7388 -2.2401
 8316TIP3   OH224911   5.788   2.056   3.614  0.7728 -0.5312 -0.2411
 8316TIP3    H124912   5.803   2.018   3.701  1.2560 -0.4341 -0.2752
 8316TIP3    H224913   5.807   1.985   3.553 -0.8311 -0.9892 -0.2483
 8317TIP3   OH224914   1.484   5.865   3.278  0.3163 -0.0350  0.0133
 8317TIP3    H124915   1.568   5.835   3.313 -0.3971 -0.9072  1.0391
 8317TIP3    H224916   1.478   5.957   3.306  0.5386 -0.2210  0.6839
 8318TIP3   OH224917   6.774   4.439   1.936 -0.4439  0.2835  0.6343
 8318TIP3    H124918   6.772   4.450   2.031 -0.6859 -0.0014  0.6644
 8318TIP3    H224919   6.696   4.388   1.916  0.0471 -0.3806  0.3759
 8319TIP3   OH224920   3.253   4.965   5.321  0.3175  0.5751 -0.1830
 8319TIP3    H124921   3.251   4.896   5.387  1.0612 -0.6502 -1.3706
 8319TIP3    H224922   3.331   5.017   5.343  1.7743 -1.0531 -1.1928
 8320TIP3   OH224923   6.636   0.806   2.105 -0.2594  0.0925 -0.1322
 8320TIP3    H124924   6.728   0.815   2.081  0.4651 -0.7711  2.1072
 8320TIP3    H224925   6.591   0.874   2.054  1.9048  1.9808  0.3426
 8321TIP3   OH224926   0.748   2.696   3.156  0.3354  0.1489 -0.5991
 8321TIP3    H124927   0.663   2.714   3.196  0.5318 -0.1757 -0.0314
 8321TIP3    H224928   0.794   2.642   3.220  0.4832 -0.7578 -1.4500
 8322TIP3   OH224929   5.890   5.070   4.922  0.4984  0.1738 -0.5250
 8322TIP3    H124930   5.870   5.073   5.016  0.3421  1.8468 -0.5711
 8322TIP3    H224931   5.968   5.125   4.913  1.1264 -0.8234 -1.2487
 8323TIP3   OH224932   3.091   4.543   5.572 -0.2283 -0.4158 -0.3600
 8323TIP3    H124933   3.000   4.560   5.546  0.1087  1.3285 -0.5046
 8323TIP3    H224934   3.117   4.468   5.520 -1.2699 -0.3094 -1.0711
 8324TIP3   OH224935   7.130   3.890   4.548 -0.1234  0.3995  0.0504
 8324TIP3    H124936   7.100   3.805   4.579  0.6031 -0.0144 -0.3487
 8324TIP3    H224937   7.135   3.944   4.626 -0.4029  0.0163  0.3354
 8325TIP3   OH224938   0.645   1.802   3.369 -0.2437  0.1051 -0.2677
 8325TIP3    H124939   0.683   1.812   3.456 -1.0308  0.5754  0.0388
 8325TIP3    H224940   0.700   1.736   3.325 -0.8413 -1.4431  1.1911
 8326TIP3   OH224941   2.927   2.905   4.152  0.0997  0.1125 -0.7770
 8326TIP3    H124942   2.930   2.986   4.101  0.6792  0.5022 -0.1445
 8326TIP3    H224943   2.834   2.880   4.151 -0.4625  1.8806  0.6346
 8327TIP3   OH224944   1.799   1.873   4.049  0.1140  0.3570 -0.5455
 8327TIP3    H124945   1.843   1.940   4.102  1.3595 -0.7629 -0.1083
 8327TIP3    H224946   1.749   1.922   3.984  0.6410  1.7134  0.0483
 8328TIP3   OH224947   4.635   5.055   5.881  0.4050 -0.1110  0.0794
 8328TIP3    H124948   4.641   5.060   5.786 -0.9800  0.9473  0.0130
 8328TIP3    H224949   4.642   5.146   5.910  0.9082 -0.4322  1.0161
 8329TIP3   OH224950   3.939   3.220   2.612  0.0871  0.2060  0.3379
 8329TIP3    H124951   3.986   3.187   2.536  1.1980  1.0426  0.6342
 8329TIP3    H224952   3.904   3.304   2.585  0.4925  0.5107  0.7455
 8330TIP3   OH224953   5.206   0.885   0.143  0.4540  0.3026  0.7862
 8330TIP3    H124954   5.225   0.963   0.195 -0.4705  1.3995 -0.4372
 8330TIP3    H224955   5.178   0.820   0.207 -1.7961  1.9640  1.6256
 8331TIP3   OH224956   4.377   1.818   4.126 -0.0421  0.0711  0.0741
 8331TIP3    H124957   4.318   1.893   4.128 -0.2262 -0.0021 -1.4672
 8331TIP3    H224958   4.429   1.830   4.046  0.6977 -0.8608  0.3953
 8332TIP3   OH224959   0.819   3.729   3.282  0.1291  0.0996  0.0921
 8332TIP3    H124960   0.767   3.723   3.362 -1.4657 -1.3226 -0.9779
 8332TIP3    H224961   0.898   3.776   3.308 -0.9641  0.9122  2.1666
 8333TIP3   OH224962   4.437   2.625   0.944  0.0410  0.0901 -0.0302
 8333TIP3    H124963   4.369   2.578   0.896 -0.0284  1.3634 -1.2447
 8333TIP3    H224964   4.454   2.571   1.020  0.2380 -2.0792 -1.5357
 8334TIP3   OH224965   4.389   5.419   2.907 -1.0986 -0.0869 -0.2847
 8334TIP3    H124966   4.341   5.485   2.957 -2.7306  0.5550 -2.5345
 8334TIP3    H224967   4.451   5.469   2.855 -0.2525 -0.6223  0.2012
 8335TIP3   OH224968   3.625   3.832   3.238  0.1446 -0.7454  0.1769
 8335TIP3    H124969   3.571   3.910   3.223  0.4646 -0.6573 -0.5770
 8335TIP3    H224970   3.608   3.776   3.162  0.4172 -1.1195  0.3893
 8336TIP3   OH224971   3.295   5.997   2.749 -0.3082 -0.3122  0.0398
 8336TIP3    H124972   3.331   5.912   2.724  0.5463 -0.5108  1.7591
 8336TIP3    H224973   3.317   6.055   2.677  0.8217 -1.1198 -0.2924
 8337TIP3   OH224974   6.981   5.740   5.260  0.0597 -0.4599 -0.1070
 8337TIP3    H124975   6.947   5.688   5.333  1.6437  0.1551  1.1340
 8337TIP3    H224976   7.061   5.694   5.234  0.3047  0.1600 -0.4544
 8338TIP3   OH224977   1.804   5.283   0.941  0.2278 -0.2676 -0.1173
 8338TIP3    H124978   1.894   5.292   0.910  0.4145 -1.4300  0.0540
 8338TIP3    H224979   1.803   5.330   1.025  0.0254  1.8444 -1.2475
 8339TIP3   OH224980   2.186   0.828   2.079 -0.6365  0.0363 -0.2160
 8339TIP3    H124981   2.250   0.821   2.149 -2.4185 -0.8885  1.4297
 8339TIP3    H224982   2.107   0.862   2.122 -1.6728 -0.1921 -1.8480
 8340TIP3   OH224983   6.541   4.913   5.638  0.0451  0.1695  0.3023
 8340TIP3    H124984   6.471   4.889   5.699  0.6032  1.1657  1.3544
 8340TIP3    H224985   6.622   4.892   5.683  0.5052  2.1252  0.4770
 8341TIP3   OH224986   3.851   4.027   5.845 -0.2479 -0.2359  0.0123
 8341TIP3    H124987   3.863   3.967   5.772  0.3954 -0.0430 -0.0516
 8341TIP3    H224988   3.821   3.972   5.917 -1.3652 -0.3544 -0.5238
 8342TIP3   OH224989   3.618   0.370   1.352 -0.4693 -0.7882 -0.0080
 8342TIP3    H124990   3.625   0.312   1.276 -1.2756 -0.0514 -0.6661
 8342TIP3    H224991   3.689   0.342   1.410 -0.9576 -2.5519 -0.2075
 8343TIP3   OH224992   2.659   6.701   1.163  0.4444  0.1913 -0.0624
 8343TIP3    H124993   2.566   6.724   1.168  0.4793  0.0595  2.0762
 8343TIP3    H224994   2.703   6.783   1.141 -0.1486  0.2678 -1.0118
 8344TIP3   OH224995   1.718   0.697   0.193  0.4448  0.3360 -0.4633
 8344TIP3    H124996   1.800   0.673   0.149  1.2235  0.4711  0.8656
 8344TIP3    H224997   1.650   0.652   0.142  1.3811 -0.2078 -1.2768
 8345TIP3   OH224998   4.205   3.546   1.863  0.3391 -0.0114 -0.5195
 8345TIP3    H124999   4.185   3.458   1.832  0.7024 -0.2909  0.0317
 8345TIP3    H225000   4.289   3.567   1.822  2.0628 -1.3412  2.1101
 8346TIP3   OH225001   6.918   2.214   5.706  0.8691 -0.4122  0.1189
 8346TIP3    H125002   6.827   2.216   5.677  1.1440  1.0009 -0.7050
 8346TIP3    H225003   6.913   2.224   5.801  0.1985  1.0308 -0.0426
 8347TIP3   OH225004   4.178   3.208   1.402  0.2799  0.5070 -0.0178
 8347TIP3    H125005   4.119   3.175   1.334 -1.5419  2.0844  0.6970
 8347TIP3    H225006   4.120   3.237   1.472  1.8693  2.4040  0.6210
 8348TIP3   OH225007   6.815   1.146   0.424  0.8127  0.2237  0.0921
 8348TIP3    H125008   6.781   1.188   0.503  0.2771 -0.1907  0.0900
 8348TIP3    H225009   6.910   1.143   0.437  0.8957  1.6569 -0.0195
 8349TIP3   OH225010   1.879   2.042   5.792  0.5401  0.1767  0.5725
 8349TIP3    H125011   1.941   1.990   5.741 -1.2111 -0.0670 -1.4686
 8349TIP3    H225012   1.809   1.981   5.815 -0.5288  1.1225 -0.0504
 8350TIP3   OH225013   2.934   1.779   1.596  0.6703 -0.4256  0.2241
 8350TIP3    H125014   2.895   1.791   1.682 -0.8008 -0.3294 -0.4277
 8350TIP3    H225015   2.881   1.711   1.555  0.7295  0.2171 -0.9644
 8351TIP3   OH225016   3.413   4.313   4.961  0.6690  0.7643  0.2006
 8351TIP3    H125017   3.364   4.341   5.039  1.3361  0.8447  0.5981
 8351TIP3    H225018   3.482   4.256   4.995  0.0916 -0.3565 -0.4890
 8352TIP3   OH225019   3.127   0.699   3.126  0.4665 -0.2448  0.1552
 8352TIP3    H125020   3.168   0.737   3.204  0.1410  0.1864  0.1179
 8352TIP3    H225021   3.170   0.742   3.052  1.7366 -1.6289  0.0478
 8353TIP3   OH225022   0.271   5.107   2.043 -0.0936  0.5911 -0.2342
 8353TIP3    H125023   0.347   5.165   2.042 -1.2714  2.3107  1.6741
 8353TIP3    H225024   0.221   5.134   2.120 -1.4068 -2.1307 -0.0115
 8354TIP3   OH225025   3.446   3.384   5.352  0.0965 -0.6388  0.1515
 8354TIP3    H125026   3.374   3.323   5.360  0.0324 -0.4945  0.6952
 8354TIP3    H225027   3.442   3.437   5.431 -1.6329  2.0113 -1.5407
 8355TIP3   OH225028   4.940   0.338   1.157 -0.1640  0.7115  0.1711
 8355TIP3    H125029   4.862   0.393   1.160 -0.8741 -0.2924  0.6466
 8355TIP3    H225030   4.926   0.273   1.227  0.1236 -0.7450 -1.0649
 8356TIP3   OH225031   0.563   5.192   2.105 -0.1101  0.0431  0.6186
 8356TIP3    H125032   0.571   5.141   2.185  0.8638  0.1150  0.5759
 8356TIP3    H225033   0.619   5.147   2.042 -0.9766 -0.0953 -0.0694
 8357TIP3   OH225034   0.942   1.805   4.761  0.8291 -0.4814 -0.0868
 8357TIP3    H125035   0.900   1.753   4.830  1.3954  1.1034  1.5303
 8357TIP3    H225036   0.889   1.885   4.756  2.0755  0.3768  0.0907
 8358TIP3   OH225037   3.927   6.359   0.789 -0.1044  0.4488  0.1555
 8358TIP3    H125038   3.871   6.355   0.711  0.5542  0.0608 -0.3117
 8358TIP3    H225039   3.958   6.270   0.801 -0.4455  0.4417  1.0611
 8359TIP3   OH225040   6.736   4.178   2.158 -0.0025  0.0551 -0.0828
 8359TIP3    H125041   6.663   4.117   2.145  0.1560  0.1050 -1.3397
 8359TIP3    H225042   6.694   4.263   2.171 -0.1857 -0.0550  0.0471
 8360TIP3   OH225043   0.353   5.829   2.462  0.0868 -0.1149 -0.1579
 8360TIP3    H125044   0.447   5.822   2.476  0.7654  0.5885 -3.4858
 8360TIP3    H225045   0.333   5.922   2.477  0.0792 -0.1272 -0.0943
 8361TIP3   OH225046   6.067   6.745   5.371  0.1455  0.3132 -0.5261
 8361TIP3    H125047   6.145   6.766   5.422 -0.2428  0.5537 -0.0182
 8361TIP3    H225048   6.079   6.654   5.344  1.3073  0.7958 -1.7700
 8362TIP3   OH225049   1.671   5.895   5.353  0.4264 -0.1265  0.2255
 8362TIP3    H125050   1.700   5.909   5.444  0.1970  0.0016  0.2790
 8362TIP3    H225051   1.698   5.974   5.307  0.1791 -0.0137  0.2720
 8363TIP3   OH225052   1.857   0.417   0.764 -0.0976 -0.4348  0.0574
 8363TIP3    H125053   1.901   0.442   0.845 -1.1413 -3.3783  1.6916
 8363TIP3    H225054   1.771   0.461   0.768  0.2763  0.3261 -0.0612
 8364TIP3   OH225055   4.840   5.329   1.516  0.7684  0.7221  0.3663
 8364TIP3    H125056   4.747   5.342   1.538  0.9454 -0.3714  1.9700
 8364TIP3    H225057   4.842   5.327   1.421 -0.5954  2.4436  0.2478
 8365TIP3   OH225058   6.691   6.289   4.318  0.1916  0.6527  0.5054
 8365TIP3    H125059   6.655   6.212   4.361 -0.1062  0.2287 -0.4685
 8365TIP3    H225060   6.782   6.267   4.301  0.1449  0.5730  0.3582
 8366TIP3   OH225061   2.351   3.080   3.564 -0.4144 -0.4341  0.2194
 8366TIP3    H125062   2.435   3.098   3.523  0.2466 -0.7580  1.3686
 8366TIP3    H225063   2.350   2.985   3.578 -0.8163 -0.3911  0.5203
 8367TIP3   OH225064   3.991   1.695   3.499 -0.1352 -0.2370 -0.0341
 8367TIP3    H125065   4.036   1.611   3.499 -0.1347 -0.2403 -0.5859
 8367TIP3    H225066   3.899   1.673   3.487 -0.3924 -0.2730  1.7615
 8368TIP3   OH225067   1.301   4.081   0.323 -0.1910  0.5464 -0.1389
 8368TIP3    H125068   1.235   4.138   0.362  1.4509  0.8888  2.4329
 8368TIP3    H225069   1.308   4.007   0.382  0.8032 -0.1179 -1.0386
 8369TIP3   OH225070   4.809   0.805   1.314 -0.4813 -0.0005  0.3882
 8369TIP3    H125071   4.856   0.765   1.387 -1.4607 -0.8556  0.5849
 8369TIP3    H225072   4.840   0.895   1.311  0.0805 -0.1467  1.4147
 8370TIP3   OH225073   6.992   6.811   0.305 -0.0375 -0.0247  0.1416
 8370TIP3    H125074   7.013   6.718   0.307 -1.8209 -0.4554  0.6467
 8370TIP3    H225075   6.993   6.834   0.212  0.5144 -0.5002  0.0204
 8371TIP3   OH225076   5.049   6.408   2.495 -0.3439 -0.2319  0.4968
 8371TIP3    H125077   4.981   6.467   2.528 -0.2712 -0.8272  1.7633
 8371TIP3    H225078   5.010   6.368   2.417  0.0752  2.3778 -1.1646
 8372TIP3   OH225079   3.330   3.749   1.922 -0.1358 -0.3832  0.6899
 8372TIP3    H125080   3.250   3.701   1.947 -0.1376 -1.0961 -0.5953
 8372TIP3    H225081   3.320   3.764   1.828  1.3947 -0.7570  0.4521
 8373TIP3   OH225082   2.179   6.150   1.235  0.4926  0.4674  0.2248
 8373TIP3    H125083   2.095   6.183   1.202 -1.1104 -0.2208  3.2624
 8373TIP3    H225084   2.196   6.071   1.182 -0.2836  1.1072 -1.0276
 8374TIP3   OH225085   0.714   3.367   1.510  0.4171  0.4622 -1.0983
 8374TIP3    H125086   0.749   3.443   1.556  0.1275 -0.9066  1.5150
 8374TIP3    H225087   0.776   3.297   1.528 -0.0800 -0.3035 -2.2371
 8375TIP3   OH225088   5.114   4.813   1.769 -0.1342 -0.4576  0.1728
 8375TIP3    H125089   5.069   4.732   1.794  1.0036 -1.5052 -1.0005
 8375TIP3    H225090   5.044   4.868   1.732 -0.9993 -0.7134  1.3762
 8376TIP3   OH225091   0.194   3.495   4.868  0.7276 -0.0193 -0.0434
 8376TIP3    H125092   0.149   3.501   4.953  0.8827  0.6106 -0.0003
 8376TIP3    H225093   0.270   3.552   4.877 -0.5393  2.0186 -1.4025
 8377TIP3   OH225094   4.277   2.018   2.464 -0.0613 -0.5282  0.0570
 8377TIP3    H125095   4.368   1.987   2.461  0.0791 -0.1742  0.4474
 8377TIP3    H225096   4.282   2.101   2.512 -0.5074 -0.1936 -0.4542
 8378TIP3   OH225097   2.339   0.620   1.400 -0.0067  0.0046  0.0713
 8378TIP3    H125098   2.263   0.678   1.392  0.7996  0.9041 -1.7219
 8378TIP3    H225099   2.322   0.550   1.338  0.8668  0.5267 -0.7821
 8379TIP3   OH225100   0.913   6.714   0.448 -0.2524 -0.6110  0.2791
 8379TIP3    H125101   0.990   6.771   0.449  0.7667 -1.9309  0.5843
 8379TIP3    H225102   0.916   6.669   0.533  0.0675 -2.4777 -0.6706
 8380TIP3   OH225103   2.734   0.224   0.246  0.4265  0.1154 -0.6750
 8380TIP3    H125104   2.788   0.298   0.276  0.5149  0.1300 -0.8714
 8380TIP3    H225105   2.700   0.185   0.327  0.2710  0.4532 -0.5733
 8381TIP3   OH225106   6.976   6.265   1.368  0.7736  0.1800  0.0986
 8381TIP3    H125107   6.970   6.353   1.405 -0.9769  0.5106 -0.8369
 8381TIP3    H225108   6.915   6.213   1.420  1.7343 -0.4823  0.5909
 8382TIP3   OH225109   6.474   0.143   0.809  0.0138  0.0214  0.8274
 8382TIP3    H125110   6.394   0.094   0.789  0.7503 -1.5811  1.6283
 8382TIP3    H225111   6.487   0.201   0.734 -0.1122 -2.0669 -0.8769
 8383TIP3   OH225112   4.679   4.226   0.268  0.1800 -0.1871  0.0184
 8383TIP3    H125113   4.627   4.149   0.245  0.7123 -0.8603  1.0087
 8383TIP3    H225114   4.747   4.193   0.326 -0.7739  1.3096  2.1466
 8384TIP3   OH225115   6.050   3.777   1.177 -0.2409 -0.0321 -0.0244
 8384TIP3    H125116   6.031   3.747   1.088  0.2617  0.7958 -0.4267
 8384TIP3    H225117   6.063   3.697   1.228 -2.1168 -0.5756 -0.3098
 8385TIP3   OH225118   1.158   2.401   5.438  0.4231 -0.6779  0.5322
 8385TIP3    H125119   1.188   2.426   5.350  1.5304  1.9210  1.5306
 8385TIP3    H225120   1.221   2.335   5.466  2.0504  0.7614  0.4870
 8386TIP3   OH225121   1.053   3.446   3.965 -0.4731  0.2606  0.3712
 8386TIP3    H125122   0.967   3.409   3.979 -0.0783 -1.6375 -1.6061
 8386TIP3    H225123   1.111   3.397   4.024  0.0249 -2.4436 -2.1359
 8387TIP3   OH225124   3.883   3.491   0.276  0.1434 -0.3507 -0.3409
 8387TIP3    H125125   3.926   3.503   0.191  1.0938 -0.0236  0.1706
 8387TIP3    H225126   3.953   3.460   0.334 -0.1588  0.7763  0.6667
 8388TIP3   OH225127   3.511   0.799   5.020 -0.2206  0.2056  0.4535
 8388TIP3    H125128   3.588   0.747   5.044 -1.0327 -0.3596  1.9851
 8388TIP3    H225129   3.512   0.872   5.082 -0.1712  0.9708 -0.4254
 8389TIP3   OH225130   2.950   3.387   1.408 -0.3175  0.2069 -0.3017
 8389TIP3    H125131   2.969   3.391   1.501  0.9690  2.4418 -0.5988
 8389TIP3    H225132   2.997   3.309   1.377 -0.4350 -0.3289  0.8035
 8390TIP3   OH225133   4.490   4.562   1.741  0.0618 -0.0917  0.0103
 8390TIP3    H125134   4.551   4.498   1.704 -0.0986  0.2777 -0.9390
 8390TIP3    H225135   4.408   4.513   1.752  0.3932 -0.4661  0.8401
 8391TIP3   OH225136   4.095   3.117   5.186  0.0499  0.5253 -0.0654
 8391TIP3    H125137   4.144   3.171   5.124  1.0198 -0.6403 -0.3581
 8391TIP3    H225138   4.037   3.065   5.130  0.1674  0.2238  0.0928
 8392TIP3   OH225139   5.007   5.353   1.025  0.4222  0.1909 -0.2436
 8392TIP3    H125140   5.016   5.260   1.003 -0.0692  0.2568 -0.7585
 8392TIP3    H225141   4.989   5.396   0.941  1.3162  0.8473 -0.1180
 8393TIP3   OH225142   1.687   0.263   3.686 -0.0373 -0.6377  0.5786
 8393TIP3    H125143   1.725   0.191   3.637  0.6895  0.5025 -0.6145
 8393TIP3    H225144   1.638   0.222   3.757  0.4770 -2.2713  0.0162
 8394TIP3   OH225145   2.371   5.881   2.308 -0.2616  0.1479 -0.3839
 8394TIP3    H125146   2.308   5.809   2.312  0.0963 -0.1148  1.0417
 8394TIP3    H225147   2.396   5.886   2.216 -0.1661 -1.6601 -0.4961
 8395TIP3   OH225148   6.132   2.031   4.934  0.0306  0.2238 -0.1375
 8395TIP3    H125149   6.047   1.990   4.920  0.8833 -0.9539 -2.3663
 8395TIP3    H225150   6.154   2.010   5.025 -1.3102 -0.8826 -0.0360
 8396TIP3   OH225151   1.377   1.820   3.412  0.1963  0.1983  0.1579
 8396TIP3    H125152   1.283   1.802   3.406  0.0722  1.1566 -1.3300
 8396TIP3    H225153   1.389   1.900   3.361  1.6536  0.7705  1.3045
 8397TIP3   OH225154   2.848   3.242   0.971 -0.0283 -0.4630 -0.0362
 8397TIP3    H125155   2.922   3.296   0.944  0.3925 -1.2251 -0.4607
 8397TIP3    H225156   2.808   3.289   1.044 -0.2274  0.8687 -0.9791
 8398TIP3   OH225157   4.343   4.218   4.668  0.5674  0.3667  0.4618
 8398TIP3    H125158   4.378   4.189   4.752 -2.6682 -0.1746  1.7516
 8398TIP3    H225159   4.321   4.137   4.622 -0.3518  0.6842  0.3256
 8399TIP3   OH225160   6.352   6.643   4.007 -0.1131 -0.3172  0.0403
 8399TIP3    H125161   6.440   6.609   3.988 -0.0573 -1.2430  1.7615
 8399TIP3    H225162   6.300   6.566   4.027 -0.9120  0.3493  0.6171
 8400TIP3   OH225163   2.173   0.376   5.651  0.7159 -0.1014  0.7104
 8400TIP3    H125164   2.188   0.287   5.681  0.6250 -0.4083 -0.1397
 8400TIP3    H225165   2.133   0.366   5.565  1.6880  0.7695  0.1384
 8401TIP3   OH225166   3.884   6.696   1.009  0.5930 -0.3479  0.1237
 8401TIP3    H125167   3.886   6.788   1.034  0.3768  0.0366 -1.2075
 8401TIP3    H225168   3.896   6.697   0.914  0.8764 -1.7098  0.1286
 8402TIP3   OH225169   3.180   0.391   5.023 -0.3355 -0.2184 -0.3351
 8402TIP3    H125170   3.156   0.443   4.946  1.7882  1.8253  0.2761
 8402TIP3    H225171   3.236   0.321   4.988 -1.2786 -0.7278 -0.8803
 8403TIP3   OH225172   4.349   5.128   0.952  0.1701 -0.3957 -0.0131
 8403TIP3    H125173   4.309   5.095   0.872 -0.6991  0.5558  0.0009
 8403TIP3    H225174   4.303   5.082   1.023  0.0638 -0.3209 -0.0329
 8404TIP3   OH225175   0.221   1.061   4.158 -0.3725 -0.3479 -0.1268
 8404TIP3    H125176   0.233   1.027   4.247 -1.0885  3.0625  1.4433
 8404TIP3    H225177   0.126   1.054   4.143 -0.5019  0.6952  0.1438
 8405TIP3   OH225178   1.454   6.229   4.157  0.2528  0.2243 -0.3445
 8405TIP3    H125179   1.544   6.217   4.188 -0.1614 -0.8754  0.4910
 8405TIP3    H225180   1.436   6.322   4.171  1.7011  0.7722 -1.8055
 8406TIP3   OH225181   1.861   0.220   4.782  0.2811 -0.2383  0.0169
 8406TIP3    H125182   1.796   0.243   4.848  2.0452 -0.0136  1.7657
 8406TIP3    H225183   1.925   0.167   4.829  1.4482 -0.3360 -1.5991
 8407TIP3   OH225184   3.015   3.527   3.396  0.1484  0.5004 -0.2693
 8407TIP3    H125185   3.058   3.579   3.465  0.6369  0.9820 -0.9308
 8407TIP3    H225186   2.963   3.592   3.348  0.1298  0.2294 -0.6089
 8408TIP3   OH225187   7.206   2.007   3.630 -0.3869  0.4374 -0.4834
 8408TIP3    H125188   7.146   1.936   3.605  0.9877 -0.7951 -0.4495
 8408TIP3    H225189   7.282   1.996   3.572  0.5602  0.8482  0.6281
 8409TIP3   OH225190   4.469   4.197   1.731  0.6934  0.1086 -0.3694
 8409TIP3    H125191   4.402   4.177   1.665  2.1512  1.8044 -2.4724
 8409TIP3    H225192   4.419   4.217   1.810 -1.2494  0.4308 -1.6153
 8410TIP3   OH225193   2.436   6.568   1.786 -0.2584  0.0716  0.7583
 8410TIP3    H125194   2.499   6.511   1.831  0.7221  1.5336  1.2956
 8410TIP3    H225195   2.359   6.512   1.772  0.3638 -1.1504  1.9855
 8411TIP3   OH225196   5.496   6.694   1.344 -0.3173  0.2832  0.5647
 8411TIP3    H125197   5.468   6.775   1.386  0.3750  0.9387 -0.2046
 8411TIP3    H225198   5.502   6.716   1.251 -0.4509 -0.7499  0.2983
 8412TIP3   OH225199   2.350   0.932   3.388  0.0442 -0.5604  0.0304
 8412TIP3    H125200   2.372   0.914   3.480  0.4411 -0.3088 -0.0141
 8412TIP3    H225201   2.310   1.019   3.390 -0.3360 -0.7323  0.0187
 8413TIP3   OH225202   6.165   4.098   3.316  0.4478  0.0525 -0.2472
 8413TIP3    H125203   6.164   4.130   3.406 -0.3237 -0.2137 -0.1575
 8413TIP3    H225204   6.081   4.054   3.304  1.0492 -1.0270 -0.6970
 8414TIP3   OH225205   3.728   6.457   3.050 -0.3120 -0.4569 -0.7343
 8414TIP3    H125206   3.780   6.380   3.028  2.0706  0.7663  0.2400
 8414TIP3    H225207   3.731   6.462   3.145 -0.6145  0.7113 -0.7656
 8415TIP3   OH225208   5.575  -0.014   3.746 -0.0075 -0.0985 -0.0806
 8415TIP3    H125209   5.619   0.037   3.678 -0.4942 -0.6392 -0.8061
 8415TIP3    H225210   5.558   0.050   3.816 -0.9363  0.8434 -1.1197
 8416TIP3   OH225211   6.750   4.608   3.653 -0.2297 -0.4251 -0.1339
 8416TIP3    H125212   6.706   4.525   3.672  1.5368 -0.8415  2.6427
 8416TIP3    H225213   6.694   4.675   3.692 -1.0106 -0.3848 -1.2706
 8417TIP3   OH225214   3.754   6.755   2.032  0.0617 -0.4443 -0.2261
 8417TIP3    H125215   3.838   6.799   2.020 -0.8323  2.3630  2.4365
 8417TIP3    H225216   3.750   6.737   2.126 -2.0426 -1.0718 -0.3835
 8418TIP3   OH225217   4.403   4.307   2.472  0.4423  0.2633 -0.4223
 8418TIP3    H125218   4.357   4.362   2.408  0.0673 -0.2625 -0.6092
 8418TIP3    H225219   4.432   4.231   2.421  1.6828  0.6597 -0.3549
 8419TIP3   OH225220   5.288   2.404   1.774  0.3816  0.0473  0.1429
 8419TIP3    H125221   5.327   2.489   1.755  1.9887 -0.4288  1.1104
 8419TIP3    H225222   5.198   2.424   1.797  1.0564  1.6497  1.6118
 8420TIP3   OH225223   5.802   1.609   5.752  0.0458 -0.4267  0.2706
 8420TIP3    H125224   5.730   1.671   5.766  0.3690 -0.0042  0.0891
 8420TIP3    H225225   5.863   1.627   5.823 -0.1190 -0.9281  0.5455
 8421TIP3   OH225226   0.211   1.725   3.904  0.4731  0.7665 -0.0926
 8421TIP3    H125227   0.244   1.746   3.817 -0.5922  1.6523 -0.3106
 8421TIP3    H225228   0.178   1.808   3.938  0.5320  0.3605  1.0176
 8422TIP3   OH225229   5.364   2.132   5.823 -0.8449  0.5227  0.4081
 8422TIP3    H125230   5.326   2.103   5.741 -0.8171 -0.0814  0.6008
 8422TIP3    H225231   5.347   2.060   5.884 -0.5627  0.8145  0.8383
 8423TIP3   OH225232  -0.025   5.308   1.848  0.6513 -0.0778  0.8541
 8423TIP3    H125233   0.066   5.326   1.870  1.5086 -0.7604 -1.6888
 8423TIP3    H225234  -0.022   5.226   1.799 -1.0952  0.6184 -0.5644
 8424TIP3   OH225235   3.392   2.015   0.683 -0.0130 -0.1040  0.6469
 8424TIP3    H125236   3.298   2.034   0.681  0.4971  3.0484  0.3641
 8424TIP3    H225237   3.426   2.073   0.751  2.0577  1.0899 -1.2484
 8425TIP3   OH225238   6.616   4.476   0.531 -0.0957  0.1155  0.3241
 8425TIP3    H125239   6.670   4.397   0.531  0.3782  0.3568  2.6571
 8425TIP3    H225240   6.555   4.463   0.604 -1.7773  0.8197 -0.8832
 8426TIP3   OH225241   1.715   4.418   2.057  0.1039  0.5058 -0.3296
 8426TIP3    H125242   1.798   4.415   2.104  0.1824  1.1371 -0.4148
 8426TIP3    H225243   1.732   4.371   1.975 -0.0010 -0.4940  0.2084
 8427TIP3   OH225244   1.407   2.351   4.920  0.1386  0.2618  0.4070
 8427TIP3    H125245   1.363   2.301   4.987 -1.9093  2.5276  0.8996
 8427TIP3    H225246   1.353   2.341   4.842  0.1345  1.0411  0.2984
 8428TIP3   OH225247   4.509   5.755   2.050 -0.0405 -0.0215  0.3593
 8428TIP3    H125248   4.460   5.829   2.084  0.7269  0.4335  0.4963
 8428TIP3    H225249   4.548   5.786   1.969 -0.8385 -0.7142 -0.3048
 8429TIP3   OH225250   5.319   3.387   3.319  0.1419  0.4948  0.6242
 8429TIP3    H125251   5.305   3.477   3.351  0.5314  1.3469 -1.4348
 8429TIP3    H225252   5.409   3.367   3.344 -0.1564  0.3995  1.6718
 8430TIP3   OH225253   3.422   2.900   0.497 -0.3340 -0.4567  0.1452
 8430TIP3    H125254   3.479   2.841   0.547 -0.2192 -0.4079  0.0729
 8430TIP3    H225255   3.447   2.988   0.527 -1.0652 -0.4752  0.8460
 8431TIP3   OH225256   4.346   2.032   0.741 -0.2560 -0.1389  0.5468
 8431TIP3    H125257   4.403   1.977   0.688 -1.5797 -1.0728  0.0434
 8431TIP3    H225258   4.365   2.007   0.831  0.6584  0.1079  0.4307
 8432TIP3   OH225259   2.274   1.148   3.115 -0.1372 -0.2128 -0.3251
 8432TIP3    H125260   2.332   1.083   3.075 -0.2959 -0.0583 -0.8191
 8432TIP3    H225261   2.188   1.131   3.076 -0.4294 -0.4445  0.4051
 8433TIP3   OH225262   2.680   6.445   4.751  0.0467 -0.4361  0.2942
 8433TIP3    H125263   2.620   6.395   4.807  0.4541 -0.0975  1.0482
 8433TIP3    H225264   2.672   6.404   4.664 -2.7849  0.8867 -0.1463
 8434TIP3   OH225265   4.013   5.004   4.116 -0.6380 -0.1319 -0.4485
 8434TIP3    H125266   4.093   4.983   4.066  0.5449  1.4499  0.6722
 8434TIP3    H225267   4.035   4.981   4.206 -1.7756 -0.4564 -0.2410
 8435TIP3   OH225268   3.426   5.411   4.624  0.0258  0.7102 -0.4718
 8435TIP3    H125269   3.513   5.427   4.588  0.0698 -0.2035 -0.8035
 8435TIP3    H225270   3.394   5.498   4.649  0.1357  1.3674 -2.3876
 8436TIP3   OH225271   1.228   2.689   2.474  0.5189  0.1907  0.4646
 8436TIP3    H125272   1.142   2.691   2.517  0.4705  1.3235  0.3459
 8436TIP3    H225273   1.290   2.707   2.544  0.6581 -0.4870  0.5227
 8437TIP3   OH225274   1.527   4.074   2.950  0.4065 -0.5296  0.2835
 8437TIP3    H125275   1.575   4.009   2.899 -0.8411 -2.5917  1.5739
 8437TIP3    H225276   1.456   4.101   2.891  0.7839 -0.5342 -0.1818
 8438TIP3   OH225277   3.471   3.903   2.106  0.0065 -0.6791  0.0853
 8438TIP3    H125278   3.542   3.853   2.147  1.1997  0.5572 -0.4004
 8438TIP3    H225279   3.426   3.839   2.050  0.4196 -1.5959  0.7817
 8439TIP3   OH225280   6.245   4.741   1.803  0.9915  0.3196 -0.4243
 8439TIP3    H125281   6.226   4.715   1.713 -1.4047  0.0392  0.0732
 8439TIP3    H225282   6.302   4.672   1.837  1.7563  0.3285 -1.6575
 8440TIP3   OH225283   2.861   1.602   3.788  0.4255  0.5893  0.1137
 8440TIP3    H125284   2.770   1.614   3.815 -0.1067 -1.0394 -0.8299
 8440TIP3    H225285   2.912   1.644   3.857 -1.0459  2.4298  0.1587
 8441TIP3   OH225286   5.971   3.391   2.586  0.1798 -0.3130 -0.1867
 8441TIP3    H125287   5.895   3.419   2.534 -0.2146 -2.2020 -0.6937
 8441TIP3    H225288   5.958   3.432   2.671 -0.5561  0.6850 -0.7569
 8442TIP3   OH225289   6.631   3.049   3.356  0.3121  0.2863  0.3676
 8442TIP3    H125290   6.722   3.024   3.346  0.0330 -0.2746 -1.1151
 8442TIP3    H225291   6.626   3.136   3.317  0.2484  0.3709  0.5672
 8443TIP3   OH225292   5.169   0.846   4.748 -0.4291  0.0649 -0.2235
 8443TIP3    H125293   5.216   0.762   4.748 -0.1986  0.1650  1.2116
 8443TIP3    H225294   5.083   0.826   4.784  0.8034  0.9442  3.7674
 8444TIP3   OH225295   6.494   1.119   1.576 -0.1356  0.2375 -0.1544
 8444TIP3    H125296   6.548   1.089   1.650 -0.8489  2.8773  1.5732
 8444TIP3    H225297   6.435   1.045   1.559  0.6908 -0.8154  1.2606
 8445TIP3   OH225298   3.144   5.272   3.924 -0.2327  0.2015 -0.4492
 8445TIP3    H125299   3.126   5.182   3.949 -0.0496  0.5265  0.9014
 8445TIP3    H225300   3.229   5.292   3.964 -0.8587  1.3636  0.3495
 8446TIP3   OH225301   7.244   1.607   3.557  0.0425 -0.6886 -0.3735
 8446TIP3    H125302   7.219   1.523   3.518 -1.5531  0.1300 -1.1972
 8446TIP3    H225303   7.177   1.623   3.624  0.1447  0.0793 -0.4508
 8447TIP3   OH225304   2.730   6.331   2.491  0.0494 -0.2537 -0.1376
 8447TIP3    H125305   2.676   6.278   2.433 -1.1264  0.0828  0.5958
 8447TIP3    H225306   2.676   6.408   2.510  0.7276  0.0283  0.7401
 8448TIP3   OH225307   4.984   3.173   1.269  0.2481 -0.1971  0.4606
 8448TIP3    H125308   4.939   3.155   1.187  1.8535  0.0238 -0.5082
 8448TIP3    H225309   4.918   3.215   1.324 -0.8198 -0.2190 -0.7546
 8449TIP3   OH225310   1.062   6.181   3.856 -0.1530 -1.0381 -0.2677
 8449TIP3    H125311   1.154   6.174   3.830 -0.3764 -2.8112 -0.7239
 8449TIP3    H225312   1.025   6.245   3.794  0.5799 -0.9653 -0.6457
 8450TIP3   OH225313   5.293   0.556   3.379  0.0966 -0.2242  0.2290
 8450TIP3    H125314   5.300   0.494   3.306  0.2963  1.2619 -1.0620
 8450TIP3    H225315   5.382   0.565   3.412 -0.0610 -1.2334  0.9809
 8451TIP3   OH225316   2.975   2.318   2.288 -0.2426  0.0569 -0.6604
 8451TIP3    H125317   2.969   2.334   2.382 -1.9688 -0.0760 -0.7162
 8451TIP3    H225318   3.024   2.393   2.254 -0.5200  0.6452  0.2145
 8452TIP3   OH225319   2.490   5.743   2.514 -0.8473 -0.2965  0.4046
 8452TIP3    H125320   2.445   5.816   2.472 -1.3703  0.8302  2.7376
 8452TIP3    H225321   2.582   5.756   2.493 -1.0827  0.2629 -0.3093
 8453TIP3   OH225322   0.781   2.351   4.742 -0.1276 -0.2936 -0.0728
 8453TIP3    H125323   0.739   2.393   4.666  1.0593  2.4042  0.6324
 8453TIP3    H225324   0.866   2.395   4.749  1.3278 -3.0181  0.7277
 8454TIP3   OH225325   1.026   3.897   4.674  0.1110 -0.2465 -0.4457
 8454TIP3    H125326   1.041   3.924   4.583  2.6629  2.3583  0.5850
 8454TIP3    H225327   0.958   3.958   4.705  0.5073  0.0450 -0.1464
 8455TIP3   OH225328   4.628   4.358   5.425  0.0962 -0.2542  0.1410
 8455TIP3    H125329   4.575   4.283   5.453  1.7130 -1.0791  1.1169
 8455TIP3    H225330   4.670   4.389   5.505  0.0704  1.2244 -0.3863
 8456TIP3   OH225331   2.285   4.804   1.501 -0.5406 -0.1423 -0.0513
 8456TIP3    H125332   2.328   4.778   1.420 -0.2571 -0.4860  0.2076
 8456TIP3    H225333   2.334   4.880   1.532  0.5091 -1.1195  0.7542
 8457TIP3   OH225334   4.145   0.304   1.322 -0.3093  0.3069  0.2583
 8457TIP3    H125335   4.087   0.352   1.380  1.2128 -0.7298  2.8175
 8457TIP3    H225336   4.101   0.220   1.308 -0.7504  0.6167 -0.2652
 8458TIP3   OH225337   1.610   2.833   1.251 -0.1728  0.0780  0.3371
 8458TIP3    H125338   1.650   2.883   1.179 -1.2658 -0.3597 -0.6054
 8458TIP3    H225339   1.674   2.764   1.270  0.7526  1.0274  0.7509
 8459TIP3   OH225340   7.075   5.279   0.276  0.3068  0.0092 -0.0796
 8459TIP3    H125341   7.053   5.217   0.206  0.4469 -0.5923  0.4086
 8459TIP3    H225342   7.077   5.226   0.355  1.8903  0.3464  0.1336
 8460TIP3   OH225343   5.361   4.123   3.899 -0.1398  0.4719 -0.0665
 8460TIP3    H125344   5.382   4.092   3.811  0.7901  2.3368 -0.5556
 8460TIP3    H225345   5.438   4.101   3.951 -1.0106 -1.3521  0.5236
 8461TIP3   OH225346   2.214   1.799   4.820 -0.4449 -0.2885  0.5824
 8461TIP3    H125347   2.244   1.713   4.847  0.7333  0.9215  3.5414
 8461TIP3    H225348   2.268   1.821   4.744  2.2885 -0.5087  2.3320
 8462TIP3   OH225349   5.342   4.754   1.944 -0.1087  0.5130 -0.5391
 8462TIP3    H125350   5.408   4.774   1.878 -1.4070  1.4737 -1.6169
 8462TIP3    H225351   5.260   4.789   1.908 -0.9316  0.8074  1.4511
 8463TIP3   OH225352   2.861   5.607   4.838 -0.1567 -0.2482 -0.1315
 8463TIP3    H125353   2.910   5.560   4.770 -2.0349 -1.5153 -0.6999
 8463TIP3    H225354   2.850   5.542   4.907  0.4395  0.5786  0.7705
 8464TIP3   OH225355   6.949   0.332   0.979  0.4925  0.7151 -0.0677
 8464TIP3    H125356   7.010   0.393   0.937  1.5834 -1.0876 -1.2525
 8464TIP3    H225357   6.883   0.315   0.912 -0.4716  1.4542  0.6705
 8465TIP3   OH225358   1.529   4.454   3.786 -0.5045  0.4712 -0.2147
 8465TIP3    H125359   1.469   4.525   3.809 -1.4164  0.2606 -1.8157
 8465TIP3    H225360   1.487   4.411   3.711 -0.7227 -2.6723  1.5453
 8466TIP3   OH225361   5.687   1.584   0.013  0.3603  0.2793 -0.3257
 8466TIP3    H125362   5.638   1.662   0.040 -0.5436 -0.4359  0.1569
 8466TIP3    H225363   5.778   1.610   0.019  0.0848  1.1594  0.2911
 8467TIP3   OH225364   1.967   4.140   1.133  0.1342 -0.1071  0.2717
 8467TIP3    H125365   1.953   4.209   1.069  2.4482 -0.2786 -0.5222
 8467TIP3    H225366   2.030   4.176   1.196  1.1435 -1.3079  0.0200
 8468TIP3   OH225367   0.394   1.078   0.336 -0.0384  0.1630  0.2080
 8468TIP3    H125368   0.446   1.087   0.416  1.2519 -1.2730 -0.4021
 8468TIP3    H225369   0.325   1.016   0.358  1.1733 -1.3571 -0.1369
 8469TIP3   OH225370   0.300   5.597   3.952 -0.3555 -0.5358  0.0190
 8469TIP3    H125371   0.311   5.519   3.898 -0.1591 -0.2343 -0.3783
 8469TIP3    H225372   0.208   5.595   3.979 -0.6790 -0.2276 -1.0399
 8470TIP3   OH225373   3.791   4.185   1.163  0.2972 -0.3023 -0.0471
 8470TIP3    H125374   3.785   4.131   1.084 -0.1292 -0.5014  0.1180
 8470TIP3    H225375   3.862   4.146   1.213  0.6757 -0.0781 -0.4053
 8471TIP3   OH225376   2.964   3.050   1.219  0.1080  0.4086 -0.0486
 8471TIP3    H125377   3.044   3.004   1.191  0.6220  2.2499 -1.8107
 8471TIP3    H225378   2.893   2.997   1.185  0.5081 -1.1359  1.3439
 8472TIP3   OH225379   0.481   3.595   2.661  0.5342  0.4277  0.5113
 8472TIP3    H125380   0.451   3.512   2.624  1.5987  0.0550  0.4503
 8472TIP3    H225381   0.419   3.660   2.628  0.7449 -0.0753 -0.9541
 8473TIP3   OH225382   2.008   4.425   5.077 -0.0993 -0.0507 -0.1705
 8473TIP3    H125383   1.970   4.427   4.989  0.0098 -1.7941 -0.2941
 8473TIP3    H225384   1.943   4.378   5.130  0.8138 -0.9916  0.1513
 8474TIP3   OH225385   3.017   0.699   5.404  0.5857 -0.1843  0.8120
 8474TIP3    H125386   2.978   0.707   5.491  1.0847  1.3370  0.9279
 8474TIP3    H225387   2.987   0.777   5.357  2.1272  0.1661  0.3583
 8475TIP3   OH225388   3.750   3.231   1.279  0.5824 -0.6203  0.2280
 8475TIP3    H125389   3.776   3.222   1.370 -1.3146 -1.0033  0.7847
 8475TIP3    H225390   3.688   3.159   1.264  0.0024  0.0873 -1.0188
 8476TIP3   OH225391   0.855   4.787   0.484  0.4961  0.1688  0.0291
 8476TIP3    H125392   0.764   4.817   0.482  0.9044  1.4686  0.0592
 8476TIP3    H225393   0.870   4.752   0.397 -0.4240 -1.3360  0.4356
 8477TIP3   OH225394   4.977   3.293   2.094 -0.4581 -0.0394 -0.2850
 8477TIP3    H125395   4.999   3.223   2.033 -0.6952 -1.1283  0.8428
 8477TIP3    H225396   5.038   3.364   2.073  0.2394 -0.8315 -0.9868
 8478TIP3   OH225397   1.934   2.330   4.205  0.4784 -0.5811  0.5479
 8478TIP3    H125398   1.947   2.245   4.162 -0.1159 -0.6925  0.5790
 8478TIP3    H225399   1.891   2.308   4.288 -2.0574 -0.0820 -0.5455
 8479TIP3   OH225400   4.534   0.419   3.815  0.3113 -0.0160  0.6132
 8479TIP3    H125401   4.610   0.477   3.802 -0.3826  0.8280  0.2141
 8479TIP3    H225402   4.504   0.439   3.904 -1.0949  1.7161 -0.1776
 8480TIP3   OH225403   1.193   4.385   4.400 -0.3302 -0.3346  0.1056
 8480TIP3    H125404   1.240   4.304   4.379  1.2121  0.3394  0.7490
 8480TIP3    H225405   1.108   4.356   4.433  0.4449 -1.7508  0.9858
 8481TIP3   OH225406   5.485   4.413   2.409 -0.4906  0.5981 -0.1264
 8481TIP3    H125407   5.413   4.355   2.381  0.1970  0.6901 -2.2856
 8481TIP3    H225408   5.503   4.467   2.332  2.7162 -0.2690 -0.1216
 8482TIP3   OH225409   2.460   3.584   3.952  0.1342 -0.0334 -0.1165
 8482TIP3    H125410   2.467   3.570   4.046 -0.5875  1.2167  0.1486
 8482TIP3    H225411   2.520   3.520   3.913  1.7628  0.5900  1.2583
 8483TIP3   OH225412   6.341   4.526   4.976  0.0497  0.1720 -0.3628
 8483TIP3    H125413   6.342   4.621   4.991  0.1624  0.1750 -0.3879
 8483TIP3    H225414   6.336   4.518   4.880 -0.3719  0.1539 -0.3420
 8484TIP3   OH225415   5.627   3.917   1.106  0.6519  0.0781  0.0740
 8484TIP3    H125416   5.641   3.839   1.159  1.4861  0.0099 -0.2203
 8484TIP3    H225417   5.711   3.963   1.110  0.2721  0.7894 -0.0229
 8485TIP3   OH225418   5.254   0.766   0.449  0.4665 -0.0345  0.1755
 8485TIP3    H125419   5.192   0.716   0.396  0.1259  1.9289 -1.3917
 8485TIP3    H225420   5.340   0.728   0.426  0.2259  0.1062 -1.0250
 8486TIP3   OH225421   2.567   6.700   5.544  0.2416  0.0630  0.3461
 8486TIP3    H125422   2.482   6.743   5.548 -1.0786 -2.4144  3.5244
 8486TIP3    H225423   2.554   6.627   5.483  0.0727 -0.2299  0.7223
 8487TIP3   OH225424   2.175   3.112   1.983  0.3276  0.1256 -0.3913
 8487TIP3    H125425   2.111   3.156   2.039  0.0872 -0.2112 -0.3970
 8487TIP3    H225426   2.217   3.182   1.933  1.3326  0.5780  1.0009
 8488TIP3   OH225427   4.960   3.040   3.932  0.0006  1.0939  0.0338
 8488TIP3    H125428   5.011   2.962   3.948  0.2679  1.2131 -0.2307
 8488TIP3    H225429   4.890   3.037   3.998 -0.3348  0.3389 -0.3452
 8489TIP3   OH225430   3.423   5.638   5.286  0.0012  0.1721  0.1470
 8489TIP3    H125431   3.441   5.548   5.313  1.8566  0.6226  0.4973
 8489TIP3    H225432   3.363   5.629   5.212  2.2954 -1.5115 -1.6573
 8490TIP3   OH225433   3.336   4.978   4.813 -0.1169 -0.3026 -0.2970
 8490TIP3    H125434   3.269   5.032   4.772 -1.0528 -1.6307 -0.5939
 8490TIP3    H225435   3.416   5.000   4.766 -0.3839  1.0913 -0.1391
 8491TIP3   OH225436   4.398   5.985   0.823  0.1382 -0.5521  0.2277
 8491TIP3    H125437   4.419   5.892   0.834  0.2848 -0.4734  0.6582
 8491TIP3    H225438   4.483   6.029   0.822  0.0472 -0.3272  1.0529
 8492TIP3   OH225439   6.624   1.856   0.593 -0.1340 -0.0387  0.0567
 8492TIP3    H125440   6.709   1.852   0.637 -0.3829 -1.8904  0.4573
 8492TIP3    H225441   6.645   1.853   0.499  0.2922  1.4850  0.0764
 8493TIP3   OH225442   6.369   2.451   0.725 -0.7813  0.5710 -0.0537
 8493TIP3    H125443   6.372   2.457   0.821 -0.7799  1.1362 -0.0859
 8493TIP3    H225444   6.276   2.455   0.704 -0.8750 -0.8339 -0.0094
 8494TIP3   OH225445   1.938   6.337   0.553 -0.2112  0.6341 -0.0016
 8494TIP3    H125446   1.878   6.307   0.485 -0.0463 -0.6137  0.3605
 8494TIP3    H225447   2.002   6.265   0.560  0.0209  0.9444  1.1586
 8495TIP3   OH225448   5.579   2.645   3.274  0.1624  0.7790 -0.1007
 8495TIP3    H125449   5.502   2.637   3.218  0.7005  1.6128 -0.9841
 8495TIP3    H225450   5.627   2.721   3.239  1.0650  0.6491  0.8104
 8496TIP3   OH225451   1.330   1.057   5.340  0.4690  0.1362 -0.1132
 8496TIP3    H125452   1.241   1.056   5.377 -0.1822 -0.4313 -1.6155
 8496TIP3    H225453   1.374   0.983   5.383  0.5457  0.9891  1.3391
 8497TIP3   OH225454   6.501   6.590   4.511  0.2201  0.1862  0.1283
 8497TIP3    H125455   6.444   6.665   4.489 -0.2436  0.1829  1.2669
 8497TIP3    H225456   6.572   6.596   4.448 -0.3298  1.0089 -0.4446
 8498TIP3   OH225457   3.587   4.869   0.576  0.2325 -0.0413  0.3519
 8498TIP3    H125458   3.580   4.790   0.630  0.3654 -0.6795 -0.5252
 8498TIP3    H225459   3.564   4.941   0.634  0.1638 -0.7246  1.1899
 8499TIP3   OH225460   3.398   6.121   2.123 -0.0899 -0.1059 -0.3603
 8499TIP3    H125461   3.385   6.212   2.096 -0.9958 -0.8758 -2.7952
 8499TIP3    H225462   3.493   6.113   2.132 -0.0573  1.3882  1.3231
 8500TIP3   OH225463   4.399   3.771   3.234 -0.3344 -0.3909 -0.8449
 8500TIP3    H125464   4.425   3.847   3.182 -0.9232  0.7369  0.4480
 8500TIP3    H225465   4.303   3.771   3.230 -0.4316  0.1241  0.7254
 8501TIP3   OH225466   4.173   1.589   2.685  0.3478  0.1876 -0.2497
 8501TIP3    H125467   4.107   1.642   2.641  0.1228  0.8911  0.8823
 8501TIP3    H225468   4.227   1.653   2.732  1.4241 -0.4288 -0.6123
 8502TIP3   OH225469   0.399   5.069   5.683 -0.3947  0.0886 -0.0068
 8502TIP3    H125470   0.394   4.974   5.691 -0.3530 -0.0352 -1.2290
 8502TIP3    H225471   0.312   5.101   5.705 -0.1508 -0.1413  1.3521
 8503TIP3   OH225472   3.417   6.711   0.926 -0.1754 -0.6351 -0.7151
 8503TIP3    H125473   3.451   6.721   1.014  0.2419 -1.5132 -0.7627
 8503TIP3    H225474   3.387   6.798   0.901 -1.4897 -0.6188  0.7629
 8504TIP3   OH225475   4.420   5.946   0.438 -0.2730  0.3809 -0.4195
 8504TIP3    H125476   4.373   5.910   0.513  2.1926 -1.7439  0.2731
 8504TIP3    H225477   4.363   5.929   0.363 -1.5783  0.0151  0.6202
 8505TIP3   OH225478   1.473   1.397   3.971 -0.0338 -0.7513 -0.2550
 8505TIP3    H125479   1.480   1.488   3.999  2.0408 -1.1387  0.6779
 8505TIP3    H225480   1.379   1.380   3.968 -0.4499  1.2421  0.0840
 8506TIP3   OH225481   1.601   5.183   2.530  0.2992  0.1423  0.0490
 8506TIP3    H125482   1.614   5.276   2.515  0.6499  0.2369  0.9249
 8506TIP3    H225483   1.522   5.161   2.480  0.0693  0.9521  0.0569
 8507TIP3   OH225484   6.659   4.801   5.428 -0.0695  0.1472 -0.5463
 8507TIP3    H125485   6.607   4.855   5.488  2.8915  1.3978  1.1006
 8507TIP3    H225486   6.662   4.852   5.347  0.2777  1.1109  0.0465
 8508TIP3   OH225487   1.518   0.062   5.199  0.2304 -0.9447  0.2735
 8508TIP3    H125488   1.458   0.016   5.141 -0.3651 -0.4041  0.4546
 8508TIP3    H225489   1.574  -0.007   5.235  0.5090 -1.3029 -0.8141
 8509TIP3   OH225490   5.541   4.777   0.449 -0.0296 -0.2962  0.2596
 8509TIP3    H125491   5.518   4.685   0.464  0.6203 -0.4690  0.2374
 8509TIP3    H225492   5.591   4.776   0.368 -1.7845  0.3611 -0.8822
 8510TIP3   OH225493   4.969   0.328   2.334  0.5342  0.2719  0.4709
 8510TIP3    H125494   4.984   0.284   2.418  0.0495 -1.5355 -0.3380
 8510TIP3    H225495   5.002   0.266   2.269 -0.5443  0.9459 -0.7601
 8511TIP3   OH225496   2.174   6.452   4.666 -0.0225 -0.1717  0.0556
 8511TIP3    H125497   2.211   6.379   4.716  0.4130  1.3191  2.0244
 8511TIP3    H225498   2.239   6.469   4.597  0.6065 -0.6492  0.5208
 8512TIP3   OH225499   2.066   2.633   2.582  0.2353 -0.0113 -0.3215
 8512TIP3    H125500   1.973   2.608   2.589  0.5197 -1.0638 -0.1998
 8512TIP3    H225501   2.064   2.729   2.583 -0.8032 -0.0177  0.3543
 8513TIP3   OH225502   5.104   1.262   0.325 -0.6808  0.0693 -0.5435
 8513TIP3    H125503   5.112   1.198   0.396  1.1258 -0.6447 -1.3423
 8513TIP3    H225504   5.177   1.322   0.339 -1.1381  0.7405 -1.0093
 8514TIP3   OH225505   4.706   4.315   2.467 -0.2274 -0.1284  0.2432
 8514TIP3    H125506   4.615   4.323   2.494 -0.1835 -1.1473  0.7525
 8514TIP3    H225507   4.754   4.371   2.527 -0.5237  0.5656 -0.1481
 8515TIP3   OH225508   1.707   5.537   0.228 -0.0847 -0.0761 -0.5594
 8515TIP3    H125509   1.621   5.496   0.217 -0.7738  0.8942  0.8862
 8515TIP3    H225510   1.713   5.599   0.155 -0.5568 -0.2288 -0.7324
 8516TIP3   OH225511   3.205   3.992   4.557  0.0851 -0.0637  0.6064
 8516TIP3    H125512   3.260   3.999   4.635  0.0648 -0.5492  0.6682
 8516TIP3    H225513   3.237   3.914   4.512 -0.4557 -0.2712  0.5679
 8517TIP3   OH225514   4.191   3.651   5.856 -0.3000  0.7232  0.2993
 8517TIP3    H125515   4.182   3.578   5.795  0.4584  0.3348  0.6254
 8517TIP3    H225516   4.164   3.615   5.941 -2.4794  1.5876  0.0265
 8518TIP3   OH225517   4.965   2.400   3.353  0.2888 -0.0107 -0.1889
 8518TIP3    H125518   4.931   2.425   3.439  1.0581 -0.1888  0.1721
 8518TIP3    H225519   4.888   2.404   3.295 -0.2365  0.1000  0.5006
 8519TIP3   OH225520   0.296   3.193   1.601 -0.0166 -0.1457 -0.4027
 8519TIP3    H125521   0.237   3.229   1.667 -0.1811 -0.8308 -0.1696
 8519TIP3    H225522   0.345   3.269   1.569  0.6856  0.0905  1.1270
 8520TIP3   OH225523   4.773   2.190   5.330  0.5021  0.0709 -0.0287
 8520TIP3    H125524   4.712   2.198   5.257 -0.2682  1.9013  0.7395
 8520TIP3    H225525   4.737   2.120   5.384 -0.1450  0.1857 -0.3011
 8521TIP3   OH225526   0.852   4.972   1.145  0.0767 -0.0605 -0.1667
 8521TIP3    H125527   0.917   4.921   1.097 -1.3416 -0.7955 -1.3679
 8521TIP3    H225528   0.785   4.909   1.171 -0.7440  0.8538  0.0201
 8522TIP3   OH225529   6.160   3.483   4.624  0.2396 -0.4212 -0.0225
 8522TIP3    H125530   6.117   3.557   4.668  0.0422  1.5462 -3.2020
 8522TIP3    H225531   6.088   3.426   4.596  0.0867  0.0197 -0.5542
 8523TIP3   OH225532   2.142   5.214   5.155  0.3883  0.0695 -0.2788
 8523TIP3    H125533   2.149   5.309   5.167 -0.2531 -0.0385  1.2446
 8523TIP3    H225534   2.127   5.202   5.061 -1.9484  1.6523 -0.1910
 8524TIP3   OH225535   3.013   1.699   4.131 -0.2672  0.7020 -0.4031
 8524TIP3    H125536   3.081   1.730   4.071 -0.3402 -1.2281 -1.5660
 8524TIP3    H225537   2.988   1.777   4.181  2.9784  1.4419  0.3067
 8525TIP3   OH225538   1.967   3.602   5.374  0.1326 -0.5083  0.0946
 8525TIP3    H125539   1.963   3.674   5.312  0.8251 -0.5262  0.0255
 8525TIP3    H225540   1.907   3.536   5.338  1.6778 -1.1756 -1.4204
 8526TIP3   OH225541   3.316   0.176   3.561 -0.1315  0.0598 -0.5352
 8526TIP3    H125542   3.241   0.227   3.530  0.6513  0.2092 -2.3138
 8526TIP3    H225543   3.328   0.203   3.652 -2.4239 -0.2291 -0.0755
 8527TIP3   OH225544   1.506   1.499   3.564 -0.2926  0.4872 -0.2483
 8527TIP3    H125545   1.428   1.511   3.510 -1.1958 -0.9059  0.7052
 8527TIP3    H225546   1.496   1.563   3.635 -1.0954 -0.3789  0.4333
 8528TIP3   OH225547   3.906   4.739   3.227  0.1672  0.0107 -0.2008
 8528TIP3    H125548   3.844   4.786   3.282  0.8071  0.3413  0.2510
 8528TIP3    H225549   3.938   4.667   3.282 -1.1855 -1.2957 -1.0535
 8529TIP3   OH225550   5.316   5.510   4.687 -0.0343 -0.7068 -0.1915
 8529TIP3    H125551   5.238   5.560   4.708  0.8984  0.7054  0.0157
 8529TIP3    H225552   5.336   5.462   4.767 -1.6788 -2.5125 -0.7914
 8530TIP3   OH225553   0.179   4.015   2.057  0.6099  0.3337 -0.3487
 8530TIP3    H125554   0.127   4.043   1.983  0.1975  1.4100  0.3292
 8530TIP3    H225555   0.169   4.084   2.122  1.6252 -0.1860  0.4006
 8531TIP3   OH225556   6.104   1.187   0.558 -0.4448 -0.2512 -0.0696
 8531TIP3    H125557   6.179   1.143   0.519 -0.1630  0.6295 -0.5438
 8531TIP3    H225558   6.030   1.127   0.545 -0.7638  0.6656 -3.5107
 8532TIP3   OH225559   4.146   3.812   2.849  0.3257  0.3985  0.4482
 8532TIP3    H125560   4.122   3.737   2.795  0.4212 -0.6851  1.8565
 8532TIP3    H225561   4.126   3.888   2.794  0.0918 -0.6320 -0.9606
 8533TIP3   OH225562   4.510   2.001   1.335  0.1968 -0.1099 -0.6955
 8533TIP3    H125563   4.457   1.990   1.257 -1.4272 -0.3483  0.3990
 8533TIP3    H225564   4.600   1.999   1.303 -0.4242  1.7251 -2.8003
 8534TIP3   OH225565   1.361   2.189   5.152  0.3541 -0.6048 -0.2345
 8534TIP3    H125566   1.449   2.155   5.144  0.6090 -0.0026 -0.0797
 8534TIP3    H225567   1.352   2.211   5.245  0.5733  0.6826 -0.4879
 8535TIP3   OH225568   3.491   1.943   3.235 -0.0741 -0.6819 -0.1146
 8535TIP3    H125569   3.419   1.994   3.271  2.2680  2.4909  0.5768
 8535TIP3    H225570   3.474   1.941   3.141 -1.1428 -0.1410  0.0501
 8536TIP3   OH225571   1.035   3.878   1.902  0.3973  0.2452  0.2173
 8536TIP3    H125572   1.126   3.903   1.887  0.4385  0.0004  0.0553
 8536TIP3    H225573   0.987   3.916   1.829  0.0316  2.2368  1.4298
 8537TIP3   OH225574   7.197   1.828   1.613 -0.2136  0.4640  0.0502
 8537TIP3    H125575   7.134   1.897   1.631  1.8854  2.9047 -1.2338
 8537TIP3    H225576   7.260   1.833   1.685  0.0801  0.0086 -0.1628
 8538TIP3   OH225577   3.455   4.610   5.513 -0.5543 -0.0881 -0.0324
 8538TIP3    H125578   3.479   4.566   5.594 -0.6550  1.1415  0.6976
 8538TIP3    H225579   3.480   4.549   5.444 -0.3955 -1.1255  0.9153
 8539TIP3   OH225580   2.335   5.829   3.172 -0.8190  0.4544 -0.7466
 8539TIP3    H125581   2.325   5.905   3.115 -1.0523  1.8966  1.1079
 8539TIP3    H225582   2.388   5.767   3.122 -1.9880  1.1477 -2.9432
 8540TIP3   OH225583   0.743   5.066   1.940 -0.4405  0.5314  0.0721
 8540TIP3    H125584   0.721   5.018   1.861 -0.6437 -0.4441  0.7044
 8540TIP3    H225585   0.826   5.109   1.920  0.7366 -1.6252  0.1184
 8541TIP3   OH225586   5.846   5.317   1.338  0.2555 -0.2099  0.3341
 8541TIP3    H125587   5.864   5.394   1.391 -0.1390  1.0886 -1.3529
 8541TIP3    H225588   5.890   5.245   1.384  0.7351  1.0171  1.8681
 8542TIP3   OH225589   4.472   2.807   4.724  0.2768  0.5808  0.2596
 8542TIP3    H125590   4.541   2.740   4.716 -0.4747 -0.2454  0.5751
 8542TIP3    H225591   4.413   2.789   4.650  0.4261  1.3296 -0.0495
 8543TIP3   OH225592   1.326   4.674   0.532 -0.2966 -0.1705 -0.3356
 8543TIP3    H125593   1.417   4.667   0.562 -1.1599 -1.0460  2.4632
 8543TIP3    H225594   1.300   4.583   0.515 -1.1412 -0.1409  0.6871
 8544TIP3   OH225595   6.503   5.878   3.245 -0.3123 -0.2541  0.4076
 8544TIP3    H125596   6.416   5.917   3.253  0.0412  0.9137 -1.1480
 8544TIP3    H225597   6.493   5.790   3.282 -2.1402 -0.1262  0.2954
 8545TIP3   OH225598   0.433   5.043   4.933 -0.5590 -0.1074  0.0262
 8545TIP3    H125599   0.378   4.974   4.896 -0.7559 -0.7755  1.4929
 8545TIP3    H225600   0.506   4.997   4.972  0.0261  0.6310 -0.1774
 8546TIP3   OH225601   1.834   1.845   0.137 -0.5310  0.1869 -0.3745
 8546TIP3    H125602   1.760   1.852   0.077 -0.7445  2.3362  0.0757
 8546TIP3    H225603   1.811   1.772   0.195 -1.6042 -0.1236 -1.1642
 8547TIP3   OH225604   5.358   6.240   1.898  0.1245  0.3266  0.1036
 8547TIP3    H125605   5.450   6.248   1.872  0.3439 -1.8456 -0.0046
 8547TIP3    H225606   5.358   6.174   1.967 -1.4017 -0.0107 -0.1805
 8548TIP3   OH225607   1.913   1.830   0.857  0.3079  0.2652  0.7418
 8548TIP3    H125608   1.947   1.799   0.940 -0.7835  1.0580  1.5156
 8548TIP3    H225609   1.850   1.898   0.880  0.6239  1.1305 -0.7772
 8549TIP3   OH225610   0.307   2.700   2.641  0.3611 -0.5199 -0.5225
 8549TIP3    H125611   0.345   2.634   2.699  1.0292 -1.4843 -2.0005
 8549TIP3    H225612   0.349   2.685   2.556 -0.5757  0.8472 -1.2729
 8550TIP3   OH225613   2.419   2.000   5.503 -0.3809  0.0178  0.0071
 8550TIP3    H125614   2.343   2.042   5.543 -0.2872  0.5937 -0.4074
 8550TIP3    H225615   2.411   1.907   5.527 -0.9582  0.1551  0.3561
 8551TIP3   OH225616   6.628   0.963   2.748 -0.3460  0.0806  0.4767
 8551TIP3    H125617   6.705   0.924   2.790  0.2170 -0.9052 -1.3474
 8551TIP3    H225618   6.582   0.889   2.708 -1.9640  0.7250  1.0704
 8552TIP3   OH225619   4.321   6.442   1.179  0.1421 -0.4871  0.2944
 8552TIP3    H125620   4.266   6.415   1.253 -1.8783  1.4587 -0.4004
 8552TIP3    H225621   4.284   6.396   1.104  0.8555 -0.8052  0.1255
 8553TIP3   OH225622   4.351   5.664   4.172  0.4420  0.3769 -0.5189
 8553TIP3    H125623   4.348   5.745   4.223  1.5427  0.7618 -1.0404
 8553TIP3    H225624   4.429   5.618   4.204  0.5758  0.1513 -1.1566
 8554TIP3   OH225625   0.283   1.322   4.043 -0.8343 -0.2588  0.4669
 8554TIP3    H125626   0.314   1.398   4.092  1.4886 -2.0766  2.0020
 8554TIP3    H225627   0.235   1.270   4.107 -2.7065 -0.0254 -0.6491
 8555TIP3   OH225628   0.546   5.974   0.044 -0.0782 -0.4353  0.3134
 8555TIP3    H125629   0.576   6.057   0.081 -1.4438  0.0536  0.3554
 8555TIP3    H225630   0.482   5.999  -0.022 -1.2551 -1.4816  1.0185
 8556TIP3   OH225631   0.546   0.377   2.877  0.7559 -0.0644 -0.5758
 8556TIP3    H125632   0.618   0.315   2.885  1.4514  0.8536  0.3681
 8556TIP3    H225633   0.524   0.376   2.784  1.9552 -0.3864 -0.8710
 8557TIP3   OH225634   0.848   0.962   0.878  0.0576 -0.4129 -0.2731
 8557TIP3    H125635   0.855   0.974   0.972  0.2515 -0.2484 -0.3069
 8557TIP3    H225636   0.924   0.907   0.856  0.5516  0.3341 -0.4674
 8558TIP3   OH225637   2.468   2.863   4.838 -0.0836  0.1925 -1.0306
 8558TIP3    H125638   2.443   2.885   4.927  0.9890  0.7905 -0.8568
 8558TIP3    H225639   2.519   2.938   4.808  2.6948 -1.4611 -0.8342
 8559TIP3   OH225640   6.392   0.120   0.052  0.8221  0.3230  0.0035
 8559TIP3    H125641   6.451   0.078  -0.012  0.4958  1.1583 -0.8725
 8559TIP3    H225642   6.419   0.212   0.052  0.2795  0.4817  0.4646
 8560TIP3   OH225643   0.678   4.153   3.725  0.3228  0.1720  0.2613
 8560TIP3    H125644   0.652   4.217   3.660 -0.2990  1.1911  1.4619
 8560TIP3    H225645   0.607   4.154   3.790  1.5877  0.2871  1.7058
 8561TIP3   OH225646   4.314   1.074   5.408 -0.0999 -0.0146  0.2535
 8561TIP3    H125647   4.309   1.141   5.476 -0.7113 -0.6570  0.8542
 8561TIP3    H225648   4.405   1.042   5.412  0.7154  1.9326 -1.1944
 8562TIP3   OH225649   3.006   4.722   0.486  0.8727  0.0122 -0.1955
 8562TIP3    H125650   2.991   4.639   0.442  1.6673 -0.4559  0.3963
 8562TIP3    H225651   2.921   4.767   0.481  1.1787  0.4077 -3.0096
 8563TIP3   OH225652   3.573   0.284   2.157  0.1975 -0.6587  0.5354
 8563TIP3    H125653   3.577   0.216   2.224 -2.2716 -1.2435  0.1805
 8563TIP3    H225654   3.613   0.244   2.079  1.2399 -0.6932  1.0748
 8564TIP3   OH225655   6.430   2.927   4.722  0.1288 -0.3430 -0.0829
 8564TIP3    H125656   6.432   2.865   4.794  0.5283 -1.1797 -0.7982
 8564TIP3    H225657   6.339   2.926   4.691  0.2211 -0.8593 -0.3372
 8565TIP3   OH225658   4.270   6.241   2.855  0.3346 -0.0294 -0.0003
 8565TIP3    H125659   4.176   6.229   2.868 -0.0538  2.0574 -0.4704
 8565TIP3    H225660   4.299   6.162   2.809 -1.6468  0.2396 -1.8536
 8566TIP3   OH225661   0.105   5.511   0.845 -0.2599  0.0511  0.1355
 8566TIP3    H125662   0.031   5.451   0.836  0.5784 -1.1041  0.6457
 8566TIP3    H225663   0.090   5.577   0.777 -1.6521 -0.2495  0.1129
 8567TIP3   OH225664   2.245   5.999   5.090  0.2657 -0.0315  0.1890
 8567TIP3    H125665   2.235   5.977   4.997 -0.4610 -0.4865  0.3618
 8567TIP3    H225666   2.334   5.972   5.112  0.5414  0.3453 -0.4437
 8568TIP3   OH225667   4.778   2.616   3.983 -0.0012  0.0986  0.2514
 8568TIP3    H125668   4.752   2.700   4.021 -0.4329 -0.5535  1.4376
 8568TIP3    H225669   4.720   2.552   4.023  0.3316 -0.7869 -0.6313
 8569TIP3   OH225670   2.704   0.206   0.911  0.0613  0.1638  0.3093
 8569TIP3    H125671   2.633   0.153   0.945  1.2288 -1.9604 -0.3753
 8569TIP3    H225672   2.782   0.151   0.921  1.1827  1.3687 -1.3003
 8570TIP3   OH225673   0.557   1.128   4.162 -0.1056  0.0755 -0.6394
 8570TIP3    H125674   0.479   1.082   4.192 -0.3665  1.6672  1.3539
 8570TIP3    H225675   0.534   1.159   4.074 -0.4927 -2.1229 -1.3785
 8571TIP3   OH225676   4.391   2.851   0.107 -0.3092  0.1742  0.0171
 8571TIP3    H125677   4.457   2.878   0.043 -0.5202  2.0114  0.5237
 8571TIP3    H225678   4.318   2.912   0.094  0.1142  1.4192  2.7314
 8572TIP3   OH225679   3.449   2.626   3.536  0.2643 -0.3804  0.4563
 8572TIP3    H125680   3.458   2.566   3.462 -0.8326  0.7148 -0.6084
 8572TIP3    H225681   3.524   2.686   3.527  0.1346 -0.2499  0.2271
 8573TIP3   OH225682   5.780   1.626   0.705 -0.3986 -0.2438  0.6874
 8573TIP3    H125683   5.842   1.560   0.736 -0.3414 -0.1621  0.7496
 8573TIP3    H225684   5.823   1.666   0.630 -0.6433 -0.6109  0.3489
 8574TIP3   OH225685   3.500   3.622   0.924  0.3478  0.2724 -0.4485
 8574TIP3    H125686   3.505   3.537   0.968  0.2899  0.5508  0.1024
 8574TIP3    H225687   3.591   3.643   0.901  0.3738  0.1099 -0.4920
 8575TIP3   OH225688   4.566   4.061   4.126 -0.2789  0.6269 -0.3338
 8575TIP3    H125689   4.496   4.049   4.063  0.7186 -0.7408 -1.2353
 8575TIP3    H225690   4.529   4.033   4.209 -0.4629 -1.3407 -1.0185
 8576TIP3   OH225691   4.922   2.137   5.787  0.3830 -0.3714  0.1873
 8576TIP3    H125692   4.996   2.158   5.845 -0.0901  0.3357  0.5453
 8576TIP3    H225693   4.961   2.134   5.700  0.9755 -0.7641  0.4540
 8577TIP3   OH225694   0.454   6.280   2.710 -0.1384 -0.4321  0.2395
 8577TIP3    H125695   0.449   6.275   2.806  0.0539  0.0455  0.2772
 8577TIP3    H225696   0.512   6.208   2.685 -1.0139 -1.2012  0.3995
 8578TIP3   OH225697   5.522   5.517   2.397  0.0281 -0.5620 -0.0790
 8578TIP3    H125698   5.610   5.533   2.363 -0.2175 -1.1200 -1.0124
 8578TIP3    H225699   5.481   5.603   2.399  1.3005  0.0868  2.5149
 8579TIP3   OH225700   1.261   3.803   1.558 -0.4327  0.5525  0.1143
 8579TIP3    H125701   1.336   3.795   1.501 -0.7073 -0.5590 -0.1166
 8579TIP3    H225702   1.187   3.773   1.505 -0.8788  0.6849  0.6515
 8580TIP3   OH225703   0.320   4.042   5.831  0.4566 -0.8658 -0.3589
 8580TIP3    H125704   0.345   4.002   5.748  2.3602 -0.6181  0.0606
 8580TIP3    H225705   0.326   4.136   5.815 -2.4712 -0.6704 -0.8725
 8581TIP3   OH225706   3.212   1.563   0.347 -0.4947 -0.2425  0.2002
 8581TIP3    H125707   3.279   1.545   0.412  0.0817  1.0054 -0.0079
 8581TIP3    H225708   3.213   1.658   0.338 -1.4225 -0.3024 -0.7268
 8582TIP3   OH225709   3.994   0.398   2.872  0.0998 -0.1068  0.2535
 8582TIP3    H125710   3.902   0.411   2.847  0.5510 -0.3030 -1.6274
 8582TIP3    H225711   4.044   0.433   2.798  1.5220 -1.8883  0.3177
 8583TIP3   OH225712   3.654   2.955   1.309 -0.0118  0.1640  0.2837
 8583TIP3    H125713   3.626   2.941   1.218  0.1707 -1.4617  0.4454
 8583TIP3    H225714   3.580   2.999   1.350 -1.3864 -1.8276  0.0813
 8584TIP3   OH225715   5.470   0.645   0.667 -0.1681 -0.1262  0.0299
 8584TIP3    H125716   5.505   0.586   0.600 -0.3071 -0.7742  0.5174
 8584TIP3    H225717   5.547   0.674   0.716 -0.1212 -0.0826 -0.0700
 8585TIP3   OH225718   6.976   1.949   1.389 -0.2002 -0.4805  0.5695
 8585TIP3    H125719   6.957   1.873   1.333 -1.4451 -0.4129  0.8692
 8585TIP3    H225720   6.968   2.024   1.330  1.5915 -0.5665  0.1353
 8586TIP3   OH225721   6.857   5.396   1.480 -0.4789  0.0339  0.6913
 8586TIP3    H125722   6.936   5.346   1.498  0.6931  2.0994  1.6656
 8586TIP3    H225723   6.856   5.464   1.548 -0.8792  2.5516 -1.6656
 8587TIP3   OH225724   4.486   3.837   3.608 -0.2823 -0.2682  0.1164
 8587TIP3    H125725   4.452   3.919   3.572  1.4722  0.8690  0.8951
 8587TIP3    H225726   4.580   3.841   3.590  0.1632 -1.0766  2.0627
 8588TIP3   OH225727   4.911   6.750   5.384  0.6030 -0.1384 -0.0448
 8588TIP3    H125728   4.866   6.749   5.299  1.8635  0.9136 -0.7590
 8588TIP3    H225729   4.880   6.831   5.426  0.7317 -0.1564  0.0834
 8589TIP3   OH225730   5.791   1.768   2.363  0.0918  0.1236  0.1361
 8589TIP3    H125731   5.866   1.791   2.418  0.8207  0.8977 -1.1218
 8589TIP3    H225732   5.812   1.805   2.278 -1.1620 -0.7390 -0.5832
 8590TIP3   OH225733   6.664   2.029   3.809 -0.3716 -0.0716  0.2212
 8590TIP3    H125734   6.758   2.037   3.823 -0.5135 -0.4518  1.5429
 8590TIP3    H225735   6.626   2.100   3.861 -0.8362 -0.0690 -0.1113
 8591TIP3   OH225736   3.549   1.758   0.290  0.2892 -0.0325  0.6024
 8591TIP3    H125737   3.533   1.691   0.225 -1.6418 -0.5177  1.4930
 8591TIP3    H225738   3.594   1.713   0.362 -0.2166 -0.1786  0.8297
 8592TIP3   OH225739   2.433   2.278   4.931 -0.1411  0.1331 -0.0027
 8592TIP3    H125740   2.430   2.307   5.023 -0.2156  2.4335 -0.6803
 8592TIP3    H225741   2.521   2.243   4.920  0.6456  1.8730  0.4214
 8593TIP3   OH225742   7.186   3.611   0.135 -0.4844  0.0365 -0.1103
 8593TIP3    H125743   7.128   3.541   0.164 -0.9416  1.0703  1.6439
 8593TIP3    H225744   7.187   3.604   0.040 -0.2330 -2.5471  0.0052
 8594TIP3   OH225745   3.863   6.384   3.287  0.2223  0.2303 -0.0873
 8594TIP3    H125746   3.830   6.305   3.331 -0.3838  0.6278  0.1898
 8594TIP3    H225747   3.832   6.456   3.341  1.1945  0.6488 -0.0656
 8595TIP3   OH225748   5.461   6.461   3.339 -0.0357 -0.1287  0.3977
 8595TIP3    H125749   5.439   6.554   3.327 -2.6282 -0.8280 -0.9502
 8595TIP3    H225750   5.394   6.428   3.399 -0.3046 -1.5046 -0.6100
 8596TIP3   OH225751   4.787   2.568   1.403  0.4041  0.1642 -0.0026
 8596TIP3    H125752   4.776   2.658   1.432 -0.2596 -0.4910  1.9060
 8596TIP3    H225753   4.745   2.565   1.317 -2.7303  0.9048  1.3725
 8597TIP3   OH225754   0.894   5.117   2.940 -0.1495  0.2052  0.4847
 8597TIP3    H125755   0.890   5.023   2.924  1.3310 -0.0506  1.4544
 8597TIP3    H225756   0.987   5.139   2.934 -0.4679  1.6109  0.3013
 8598TIP3   OH225757   5.075   0.977   5.064  0.5697  0.3553  0.5156
 8598TIP3    H125758   5.164   0.942   5.056  0.7970  1.1531 -0.8254
 8598TIP3    H225759   5.087   1.071   5.073 -0.1265  0.6886 -1.4489
 8599TIP3   OH225760   5.497   4.190   4.531 -0.4929 -0.2022  0.1868
 8599TIP3    H125761   5.519   4.216   4.441 -1.4884  0.0318 -0.0033
 8599TIP3    H225762   5.457   4.267   4.570 -1.7312 -0.8276  0.2284
 8600TIP3   OH225763   2.133   4.344   1.261  0.3460 -0.7639 -0.2714
 8600TIP3    H125764   2.197   4.409   1.291 -0.5049 -0.2618  0.5208
 8600TIP3    H225765   2.059   4.396   1.230  0.7642 -1.2997 -2.3260
 8601TIP3   OH225766   2.324   6.064   1.878 -0.0580 -0.0167  0.0269
 8601TIP3    H125767   2.324   5.970   1.860  0.4724 -0.0880  0.3596
 8601TIP3    H225768   2.373   6.102   1.805 -0.4133  0.0185 -0.1923
 8602TIP3   OH225769   2.517   4.801   0.896 -0.5242 -0.0266 -0.1075
 8602TIP3    H125770   2.425   4.785   0.875 -0.0584 -0.6932 -1.8355
 8602TIP3    H225771   2.559   4.816   0.811  0.7430  1.5607  0.7399
 8603TIP3   OH225772   6.596   1.284   2.275 -0.0221 -0.5590  0.6228
 8603TIP3    H125773   6.628   1.228   2.205  1.7710  0.4115  0.6182
 8603TIP3    H225774   6.668   1.290   2.337 -0.1571  1.6455  0.6624
 8604TIP3   OH225775   0.166   0.766   5.400 -0.2672 -0.1917  0.4514
 8604TIP3    H125776   0.172   0.816   5.319  0.1515 -0.1973  0.4810
 8604TIP3    H225777   0.200   0.825   5.467 -2.9174  0.8032  1.0573
 8605TIP3   OH225778   2.276   3.617   1.400 -0.1913 -0.2103  0.1877
 8605TIP3    H125779   2.324   3.538   1.422  0.1892  0.2516  1.0437
 8605TIP3    H225780   2.343   3.685   1.391 -0.5151  0.0356 -0.5089
 8606TIP3   OH225781   5.611   4.233   1.893  0.3943  0.1174 -0.4089
 8606TIP3    H125782   5.518   4.208   1.889  0.7149 -1.8814  2.0634
 8606TIP3    H225783   5.611   4.317   1.938 -0.2345  0.4143 -0.9421
 8607TIP3   OH225784   2.530   0.773   5.291  0.0206 -0.1355 -0.8697
 8607TIP3    H125785   2.574   0.842   5.241  0.0073  0.5086 -0.0048
 8607TIP3    H225786   2.555   0.692   5.246  0.1429  0.4086 -1.8196
 8608TIP3   OH225787   2.419   0.331   3.824  0.5740  0.2247 -0.1052
 8608TIP3    H125788   2.362   0.255   3.813  0.9364 -0.1567  0.6105
 8608TIP3    H225789   2.359   0.406   3.818  0.2268 -0.0981 -0.8973
 8609TIP3   OH225790   1.657   4.200   3.798 -0.5213 -0.4702 -0.5757
 8609TIP3    H125791   1.624   4.288   3.782 -0.0867 -0.4767 -1.5838
 8609TIP3    H225792   1.581   4.143   3.782 -1.2295 -0.2261  1.5465
 8610TIP3   OH225793   6.353   1.326   3.922  0.2976 -0.1159 -0.5171
 8610TIP3    H125794   6.334   1.327   3.828  0.7581 -1.0150 -0.6319
 8610TIP3    H225795   6.448   1.313   3.926  0.4136  0.8061  0.0715
 8611TIP3   OH225796   3.222   5.267   2.697  0.1693  0.2712 -0.3592
 8611TIP3    H125797   3.264   5.197   2.747  0.7704  1.1965  0.4613
 8611TIP3    H225798   3.292   5.303   2.643  0.3545  1.5551  0.7137
 8612TIP3   OH225799   5.390   6.346   1.183  0.5959 -0.2329 -0.9122
 8612TIP3    H125800   5.379   6.391   1.099 -0.0296  0.7972 -0.2929
 8612TIP3    H225801   5.476   6.373   1.215  0.2636  0.4539 -0.5896
 8613TIP3   OH225802   0.582   2.054   2.960  0.8107 -0.2134 -0.0385
 8613TIP3    H125803   0.631   2.127   2.995  2.3584 -1.4817  0.5464
 8613TIP3    H225804   0.505   2.047   3.016 -0.2779  1.9767 -1.1455
 8614TIP3   OH225805   6.358   1.813   1.072  0.6311  0.4771  0.2119
 8614TIP3    H125806   6.374   1.852   1.158  1.3536 -1.9518  1.2831
 8614TIP3    H225807   6.282   1.756   1.086  1.7806 -1.2505 -0.2614
 8615TIP3   OH225808   3.753   5.923  -0.002  0.4040  0.1730  0.4736
 8615TIP3    H125809   3.732   5.876   0.079 -0.9144 -0.1090 -0.0028
 8615TIP3    H225810   3.823   5.872  -0.042 -0.2784 -0.8119  0.4975
 8616TIP3   OH225811   6.840   0.822   1.931 -0.1573 -0.2683  0.1898
 8616TIP3    H125812   6.880   0.892   1.879  0.4447  0.8162  2.0552
 8616TIP3    H225813   6.912   0.762   1.950 -0.1090 -0.0309  0.7738
 8617TIP3   OH225814   1.005   3.515   3.493  0.5778 -0.3592 -0.3590
 8617TIP3    H125815   0.990   3.423   3.513 -0.3627 -0.4623 -1.4220
 8617TIP3    H225816   0.917   3.552   3.482  0.9057  0.9009  1.0030
 8618TIP3   OH225817   0.423   4.091   4.266 -0.1827 -0.1551  0.2937
 8618TIP3    H125818   0.434   4.166   4.324  1.2028 -0.5486  0.5686
 8618TIP3    H225819   0.439   4.015   4.321  1.2470 -0.5279 -0.6004
 8619TIP3   OH225820   2.200   1.371   2.780 -0.1762  0.4721  0.1188
 8619TIP3    H125821   2.189   1.359   2.685 -0.2216 -0.8775  0.2732
 8619TIP3    H225822   2.214   1.282   2.813  0.6839  1.0176  1.2724
 8620TIP3   OH225823   4.506   2.484   4.562  0.3691  0.1273 -0.3658
 8620TIP3    H125824   4.598   2.513   4.564  0.2087  0.7339 -1.3065
 8620TIP3    H225825   4.485   2.476   4.469 -0.4210 -0.3927 -0.1522
 8621TIP3   OH225826   6.276   2.766   2.591  0.2420  0.4236 -0.0846
 8621TIP3    H125827   6.229   2.791   2.670  1.7427  1.3043  0.5708
 8621TIP3    H225828   6.212   2.776   2.521 -1.5052 -1.5496  1.1016
 8622TIP3   OH225829   1.125   5.382   0.380  0.0945  0.0700 -0.0787
 8622TIP3    H125830   1.162   5.362   0.466 -1.2137  1.4387  0.8456
 8622TIP3    H225831   1.128   5.298   0.333  1.1144 -0.6346  1.1608
 8623TIP3   OH225832   6.993   4.659   1.963 -0.5396 -1.1568  0.3510
 8623TIP3    H125833   6.971   4.662   1.870 -0.6451 -0.5048  0.3889
 8623TIP3    H225834   7.020   4.749   1.983 -1.1389 -1.1380  1.1007
 8624TIP3   OH225835   3.178   5.704   2.546  0.3798  0.5463  0.1510
 8624TIP3    H125836   3.169   5.799   2.537 -2.1541  0.4461  0.7367
 8624TIP3    H225837   3.205   5.691   2.637  0.9501  0.6933  0.0078
 8625TIP3   OH225838   6.911   2.873   4.068  0.0965  0.2384 -0.3721
 8625TIP3    H125839   6.960   2.799   4.033  0.6921  0.6819 -0.4890
 8625TIP3    H225840   6.889   2.927   3.992 -1.2739 -0.3423 -0.4298
 8626TIP3   OH225841   2.413   0.507   5.704  0.0760  0.5043 -0.9728
 8626TIP3    H125842   2.327   0.475   5.675  0.4967  0.0203 -1.7448
 8626TIP3    H225843   2.442   0.565   5.633  0.3942  0.6500 -0.7263
 8627TIP3   OH225844   6.632   2.668   4.629  0.4463  0.3312 -0.0326
 8627TIP3    H125845   6.700   2.615   4.588  0.7405 -0.7016  1.7068
 8627TIP3    H225846   6.666   2.757   4.628  1.4080 -0.0299 -0.0244
 8628TIP3   OH225847   0.885   4.741   4.471 -0.3981  0.6319 -0.6877
 8628TIP3    H125848   0.911   4.727   4.561 -1.2002  0.0124 -0.5424
 8628TIP3    H225849   0.804   4.793   4.477 -1.0774 -0.3673 -0.9958
 8629TIP3   OH225850   4.578   5.561   1.454  0.6164 -0.2896  0.0173
 8629TIP3    H125851   4.577   5.473   1.493  0.1729  0.1838  1.0983
 8629TIP3    H225852   4.670   5.578   1.437  0.5690 -1.8808 -2.3801
 8630TIP3   OH225853  -0.019   1.686   3.035  0.1354 -0.1579 -0.2820
 8630TIP3    H125854  -0.053   1.680   3.124 -0.5182 -1.6423 -0.5948
 8630TIP3    H225855   0.074   1.706   3.046 -0.1852  0.9242  0.6753
 8631TIP3   OH225856   0.499   4.126   2.943 -0.3253  0.2260 -0.4481
 8631TIP3    H125857   0.457   4.113   2.858 -2.6895 -2.4500  0.9274
 8631TIP3    H225858   0.572   4.064   2.944 -0.3594  0.1855 -0.5018
 8632TIP3   OH225859   4.800   3.530   1.259 -0.0068 -0.4711 -0.4553
 8632TIP3    H125860   4.706   3.544   1.251 -0.5369 -2.5722  1.1719
 8632TIP3    H225861   4.832   3.525   1.169 -1.2591  1.1562 -1.0364
 8633TIP3   OH225862   4.550   1.794   4.649  0.0010 -0.5734 -0.0057
 8633TIP3    H125863   4.538   1.796   4.554  1.2545  0.4968 -0.1646
 8633TIP3    H225864   4.557   1.701   4.671  1.5040 -0.7652 -1.2126
 8634TIP3   OH225865   0.411   5.809   0.838  0.2174  0.3236  0.1783
 8634TIP3    H125866   0.339   5.858   0.799  1.0805 -0.0816 -2.0766
 8634TIP3    H225867   0.477   5.805   0.769  0.6988 -2.8803  0.6648
 8635TIP3   OH225868   0.215   1.690   4.458  0.3291  0.0290  0.2736
 8635TIP3    H125869   0.134   1.667   4.503  0.1611 -1.5264 -0.7457
 8635TIP3    H225870   0.205   1.782   4.434 -1.9081 -0.5593 -1.3588
 8636TIP3   OH225871   3.986   4.679   0.326 -0.3238  0.7312 -0.9621
 8636TIP3    H125872   3.915   4.693   0.389  1.0872  1.9324  0.4540
 8636TIP3    H225873   4.022   4.767   0.311  2.2282 -0.0333  0.0953
 8637TIP3   OH225874   4.723   6.331   1.205  0.3091 -0.2706 -0.2708
 8637TIP3    H125875   4.664   6.345   1.278 -0.8799 -0.5531 -1.1450
 8637TIP3    H225876   4.670   6.348   1.127  1.7865  0.9528 -1.0656
 8638TIP3   OH225877   7.191   1.062   3.810 -0.0068 -0.1748  0.2670
 8638TIP3    H125878   7.100   1.036   3.795  0.0316 -0.0967 -0.1050
 8638TIP3    H225879   7.242   0.989   3.776  0.0600 -0.4546  0.9583
 8639TIP3   OH225880   7.099   4.899   2.808 -0.1078 -0.2071  0.0753
 8639TIP3    H125881   7.058   4.872   2.726 -0.4326 -0.6934  0.3899
 8639TIP3    H225882   7.053   4.848   2.875 -0.5330  0.9126  0.6630
 8640TIP3   OH225883   4.164   5.169   5.130 -0.3242  0.9129  0.3807
 8640TIP3    H125884   4.257   5.153   5.143 -0.1819  1.1064 -0.3824
 8640TIP3    H225885   4.157   5.264   5.117 -0.5511  0.8233 -0.1756
 8641TIP3   OH225886   1.248   0.862   5.572  0.2476  0.1466 -0.0343
 8641TIP3    H125887   1.294   0.923   5.630  1.1402 -0.4295 -0.1291
 8641TIP3    H225888   1.238   0.782   5.623 -2.2213  0.7708  0.6260
 8642TIP3   OH225889   4.807   6.208   5.475 -0.0738  0.6277 -0.0979
 8642TIP3    H125890   4.796   6.129   5.526  0.7371 -0.1684 -1.1103
 8642TIP3    H225891   4.837   6.274   5.538 -1.6143  0.3948  0.9109
 8643TIP3   OH225892   4.600   1.079   0.942  0.1682  0.0252 -0.2417
 8643TIP3    H125893   4.630   1.146   0.881  0.2790  0.9599  0.8053
 8643TIP3    H225894   4.527   1.036   0.897 -1.2669  2.2079 -0.1614
 8644TIP3   OH225895   3.466   3.120   4.662  0.1345  0.3800 -0.0720
 8644TIP3    H125896   3.440   3.212   4.665 -2.1563 -0.1531  4.2807
 8644TIP3    H225897   3.384   3.071   4.667  1.3789 -1.8179  0.5947
 8645TIP3   OH225898   1.422   3.873   3.535  0.2878  0.0790 -0.3243
 8645TIP3    H125899   1.435   3.809   3.465 -1.2333 -0.2930 -0.3154
 8645TIP3    H225900   1.486   3.942   3.517  1.0725 -0.8261 -1.0883
 8646TIP3   OH225901   1.923   2.978   1.351 -0.0547 -0.2834  0.4453
 8646TIP3    H125902   1.940   2.900   1.297 -0.6856 -0.0075 -0.1587
 8646TIP3    H225903   1.847   3.019   1.311 -1.7061 -1.0297  2.5876
 8647TIP3   OH225904   3.150   1.427   0.853  0.0145 -0.3123 -0.6259
 8647TIP3    H125905   3.218   1.492   0.872  0.4604 -1.0831  0.5461
 8647TIP3    H225906   3.178   1.349   0.902 -2.2620 -0.3092  0.8025
 8648TIP3   OH225907   2.543   1.099   0.817 -0.7413 -0.7069  0.0223
 8648TIP3    H125908   2.453   1.084   0.848 -0.3690 -2.4376  0.3481
 8648TIP3    H225909   2.575   1.012   0.793 -0.0349  0.2020 -2.6075
 8649TIP3   OH225910   4.286   4.625   4.026  0.2710 -0.5004 -0.8556
 8649TIP3    H125911   4.294   4.532   4.048 -1.5727 -0.4869  0.0375
 8649TIP3    H225912   4.287   4.670   4.110 -0.5265  0.1319 -1.1720
 8650TIP3   OH225913   2.908   1.503   4.309 -0.9091  0.4506 -0.1217
 8650TIP3    H125914   2.903   1.422   4.258  0.9194  0.9485 -1.2102
 8650TIP3    H225915   2.942   1.567   4.247  1.5198  1.0817  1.7091
 8651TIP3   OH225916   0.836   4.132   3.105 -0.5169  0.2618 -0.2645
 8651TIP3    H125917   0.791   4.054   3.073  1.9615 -0.7329 -1.6785
 8651TIP3    H225918   0.855   4.114   3.197 -2.2085  0.3653  0.1267
 8652TIP3   OH225919   0.746   5.864   5.413 -0.0418 -0.1965  0.1366
 8652TIP3    H125920   0.772   5.842   5.503 -1.4648  1.4184  1.0133
 8652TIP3    H225921   0.707   5.783   5.379  0.3256 -0.7700  1.0426
 8653TIP3   OH225922   2.586   4.541   0.517  0.1416  0.0825  0.1993
 8653TIP3    H125923   2.608   4.553   0.610 -0.7724  2.2365  0.1778
 8653TIP3    H225924   2.503   4.493   0.518  0.5869 -0.7142  0.4395
 8654TIP3   OH225925   7.165   5.797   3.561 -0.4822 -0.3559  0.5638
 8654TIP3    H125926   7.165   5.881   3.606  1.6477  0.3570 -0.6380
 8654TIP3    H225927   7.240   5.750   3.598 -1.0791 -1.3404  0.5514
 8655TIP3   OH225928   2.836   3.941   4.251 -0.2186 -0.0035 -0.1576
 8655TIP3    H125929   2.804   4.025   4.284 -0.4331  0.1354 -0.6992
 8655TIP3    H225930   2.908   3.964   4.193 -1.6858  0.0101 -2.0790
 8656TIP3   OH225931   1.089   1.864   2.617  0.0449 -0.0610 -0.3878
 8656TIP3    H125932   1.074   1.927   2.688 -0.6180  0.0324 -0.6048
 8656TIP3    H225933   1.181   1.875   2.594 -0.0948  0.9359 -0.5155
 8657TIP3   OH225934   3.580   4.640   3.578 -0.0713  0.4355  0.0306
 8657TIP3    H125935   3.609   4.597   3.658  0.9601  0.4520 -0.3224
 8657TIP3    H225936   3.616   4.588   3.507  0.9489  1.6843 -0.4049
 8658TIP3   OH225937   3.504   3.661   1.345 -0.8111 -0.2602 -0.3990
 8658TIP3    H125938   3.421   3.669   1.299 -1.5303  1.3588  1.0547
 8658TIP3    H225939   3.494   3.718   1.422  1.1017 -1.1815  0.5951
 8659TIP3   OH225940   5.194   0.498   5.515  0.6243  0.2354 -0.1590
 8659TIP3    H125941   5.259   0.556   5.476 -1.8474  3.4209  0.1128
 8659TIP3    H225942   5.177   0.535   5.601 -0.4090 -1.4759  0.4232
 8660TIP3   OH225943   1.078   1.501   3.441 -0.3542  0.2088  0.0528
 8660TIP3    H125944   1.160   1.469   3.404 -1.5045 -1.3867 -1.2805
 8660TIP3    H225945   1.069   1.454   3.524  0.4501  1.0245  0.6230
 8661TIP3   OH225946   2.173   3.392   1.823  0.3329  0.1410 -0.4618
 8661TIP3    H125947   2.215   3.451   1.761  1.3272  0.1539  0.2121
 8661TIP3    H225948   2.129   3.327   1.767 -0.0862  1.0158 -1.1917
 8662TIP3   OH225949   2.337   3.210   0.457 -0.4738 -0.3998 -0.6276
 8662TIP3    H125950   2.287   3.240   0.532  0.1214  1.2678 -0.8645
 8662TIP3    H225951   2.424   3.188   0.493  0.5977  2.6621 -1.0993
 8663TIP3   OH225952   2.814   0.862   0.074  0.0123  0.0188  0.2210
 8663TIP3    H125953   2.882   0.916   0.115 -0.0278  0.7588 -0.6471
 8663TIP3    H225954   2.855   0.827  -0.005 -0.6590  0.6790 -0.4507
 8664TIP3   OH225955   3.584   0.020   5.020 -0.2819  0.1535 -0.6323
 8664TIP3    H125956   3.604  -0.066   5.058  2.1965  0.9770  0.1004
 8664TIP3    H225957   3.559   0.074   5.095  0.2946  0.6254 -0.7719
 8665TIP3   OH225958   1.940   0.994   1.140  0.3493 -0.0872  0.0833
 8665TIP3    H125959   2.021   1.029   1.177  0.8934 -1.3847  0.1941
 8665TIP3    H225960   1.961   0.976   1.048 -0.2684  0.9070 -0.2630
 8666TIP3   OH225961   5.009   2.103   1.698  0.0276 -0.5808 -0.3547
 8666TIP3    H125962   5.084   2.115   1.640  0.5103 -1.0001  0.1597
 8666TIP3    H225963   4.939   2.072   1.642  0.2244 -0.1412 -0.8512
 8667TIP3   OH225964   4.888   1.747   1.596 -0.9251  0.2907 -0.7018
 8667TIP3    H125965   4.918   1.747   1.687 -1.8799 -1.8366 -0.3335
 8667TIP3    H225966   4.955   1.796   1.549  0.3211  0.2325  0.9061
 8668TIP3   OH225967   0.709   0.452   2.007 -0.1646 -0.2303 -0.4847
 8668TIP3    H125968   0.707   0.363   2.042  2.6471  0.5088  1.9781
 8668TIP3    H225969   0.674   0.507   2.077 -1.3309  0.7320 -1.7453
 8669TIP3   OH225970   5.606   5.065   2.084 -0.0689  0.3427  0.6126
 8669TIP3    H125971   5.686   5.031   2.045 -1.0164  0.1099 -1.2653
 8669TIP3    H225972   5.613   5.044   2.177  1.3392 -1.0720  0.2283
 8670TIP3   OH225973   4.570   3.608   4.175  0.1016 -0.6497 -0.0865
 8670TIP3    H125974   4.654   3.634   4.138  0.3328 -1.0486  0.1517
 8670TIP3    H225975   4.506   3.633   4.108  0.5235 -1.4804 -0.8139
 8671TIP3   OH225976   6.976   4.186   4.968  0.1587  0.2883  0.0025
 8671TIP3    H125977   6.989   4.133   5.047  2.1016  0.1021 -0.3987
 8671TIP3    H225978   6.971   4.276   5.000 -1.8529  0.0399  0.5603
 8672TIP3   OH225979   2.451   1.779   1.629  0.3792 -0.8432  0.0715
 8672TIP3    H125980   2.407   1.860   1.654  1.1149 -0.7676  1.2091
 8672TIP3    H225981   2.412   1.713   1.687  1.4259 -0.8523  0.7934
 8673TIP3   OH225982   6.193   0.156   3.910  0.1452 -0.4684  0.5999
 8673TIP3    H125983   6.191   0.250   3.891 -0.7522 -0.5151  0.4218
 8673TIP3    H225984   6.218   0.150   4.002 -0.2255 -0.0336  0.7293
 8674TIP3   OH225985   5.811   4.161   0.661 -0.6658 -0.0231  0.0450
 8674TIP3    H125986   5.894   4.119   0.682 -1.2975 -0.5946  1.5686
 8674TIP3    H225987   5.789   4.129   0.574  0.7502  0.2326 -0.4290
 8675TIP3   OH225988   0.245   0.916   5.612 -0.2901  0.6092  0.1912
 8675TIP3    H125989   0.261   0.890   5.703 -1.2531  0.6405  0.3850
 8675TIP3    H225990   0.320   0.971   5.589  1.9036 -2.3070 -0.2570
 8676TIP3   OH225991   5.344   6.475   0.233 -0.2441  0.3888 -0.2480
 8676TIP3    H125992   5.273   6.427   0.275 -1.1604 -0.2185 -2.3431
 8676TIP3    H225993   5.350   6.557   0.283 -2.6266  0.5897 -0.1475
 8677TIP3   OH225994   5.252   4.420   4.889 -0.2286 -0.3402 -0.8952
 8677TIP3    H125995   5.203   4.435   4.970  1.4104  1.1390 -0.1380
 8677TIP3    H225996   5.286   4.331   4.898 -0.1972 -0.2491 -0.0361
 8678TIP3   OH225997   1.487   2.616   1.065 -0.5451 -0.0699  0.0783
 8678TIP3    H125998   1.414   2.673   1.039 -0.1420  0.2874 -0.2776
 8678TIP3    H225999   1.501   2.637   1.157 -1.2467 -0.5354  0.3009
 8679TIP3   OH226000   1.875   0.447   3.043  0.5846 -0.1536  0.2522
 8679TIP3    H126001   1.847   0.450   2.951 -0.3093  1.6704  0.5262
 8679TIP3    H226002   1.892   0.355   3.060  1.2308 -0.4949 -1.8742
 8680TIP3   OH226003   0.872   0.279   4.629  0.7524 -0.5232  0.8567
 8680TIP3    H126004   0.856   0.285   4.723  2.4952  0.2139  1.1257
 8680TIP3    H226005   0.939   0.344   4.611 -0.2980  0.1088 -1.1063
 8681TIP3   OH226006   2.735   5.296   5.244  0.0920 -0.1471  0.4290
 8681TIP3    H126007   2.647   5.323   5.218  0.4865 -0.8074 -1.7414
 8681TIP3    H226008   2.727   5.276   5.337 -2.1278 -0.5130  0.2054
 8682TIP3   OH226009   0.519   2.937   4.467  0.3633 -0.8138 -0.1933
 8682TIP3    H126010   0.518   2.843   4.484 -0.5667 -0.7450  0.1752
 8682TIP3    H226011   0.474   2.948   4.384  0.3235 -0.6763 -0.1547
 8683TIP3   OH226012   2.428   1.788   4.261 -0.5231  0.4810  0.3468
 8683TIP3    H126013   2.442   1.879   4.236 -0.6234  0.8270  1.4995
 8683TIP3    H226014   2.512   1.745   4.242 -0.8157  0.5562 -1.2229
 8684TIP3   OH226015   0.473   3.236   2.805  0.0477 -0.1183 -0.2007
 8684TIP3    H126016   0.513   3.264   2.887  0.4460  1.7592 -0.9877
 8684TIP3    H226017   0.394   3.290   2.798  0.5341  0.4552 -1.4964
 8685TIP3   OH226018   6.552   0.122   5.503 -0.1672 -0.2526  0.7407
 8685TIP3    H126019   6.599   0.040   5.491  0.8257  0.4034 -0.0795
 8685TIP3    H226020   6.610   0.176   5.557  1.3073  1.4677 -2.2678
 8686TIP3   OH226021   4.107   2.131   5.078 -0.0319 -0.3997  0.4240
 8686TIP3    H126022   4.047   2.069   5.037 -0.0665 -0.4911  0.6080
 8686TIP3    H226023   4.167   2.157   5.009 -1.9719  1.8592 -0.5654
 8687TIP3   OH226024   4.791   5.293   0.635  0.2958 -0.0938 -0.0129
 8687TIP3    H126025   4.818   5.338   0.716  2.0000 -0.2547 -0.4493
 8687TIP3    H226026   4.851   5.219   0.628 -0.6689 -0.8172 -0.7782
 8688TIP3   OH226027   5.889   3.998   1.134 -0.4240  0.4362 -0.0235
 8688TIP3    H126028   5.946   4.073   1.151 -0.5215  1.3205 -3.0374
 8688TIP3    H226029   5.944   3.922   1.151  0.7370  1.2353 -0.0821
 8689TIP3   OH226030   5.482   2.572   4.852  0.3856  0.0853 -0.0116
 8689TIP3    H126031   5.403   2.620   4.827  0.0920 -0.9591 -1.1928
 8689TIP3    H226032   5.554   2.622   4.813  0.0619 -0.5708 -1.5072
 8690TIP3   OH226033   4.977   3.999   5.394  0.4872  0.0405 -0.0830
 8690TIP3    H126034   4.981   3.904   5.391  2.8225  0.0649 -2.6380
 8690TIP3    H226035   5.055   4.025   5.444  0.2668  0.6131 -0.0278
 8691TIP3   OH226036   6.388   0.463   2.807 -0.1880  0.3895 -0.5392
 8691TIP3    H126037   6.295   0.480   2.825 -0.6118 -0.9165 -1.2992
 8691TIP3    H226038   6.428   0.457   2.894 -0.8244  0.9382 -0.1991
 8692TIP3   OH226039   3.608   0.179   1.662  0.2033  0.1698 -0.1576
 8692TIP3    H126040   3.526   0.203   1.619  0.4889 -1.0684 -1.4591
 8692TIP3    H226041   3.676   0.222   1.610  0.3855  2.0422  1.5135
 8693TIP3   OH226042   0.922   3.170   2.301 -0.3443 -0.0217 -0.0859
 8693TIP3    H126043   0.940   3.135   2.214 -1.6143 -0.8305 -0.0390
 8693TIP3    H226044   0.969   3.112   2.361 -1.8648 -1.2973 -0.0586
 8694TIP3   OH226045   3.292   0.526   3.969  0.1988 -0.1910  0.1754
 8694TIP3    H126046   3.365   0.465   3.983  0.0341 -0.7989 -1.3785
 8694TIP3    H226047   3.229   0.504   4.037  0.8686 -0.6012  0.6782
 8695TIP3   OH226048   0.963   5.210   1.921 -0.6353 -0.2023 -0.1655
 8695TIP3    H126049   1.016   5.268   1.975 -1.0171 -0.0246  0.0172
 8695TIP3    H226050   0.977   5.241   1.831  2.1669 -2.1659 -0.5248
 8696TIP3   OH226051   4.254   4.300   5.884  0.2429  0.3828 -0.5913
 8696TIP3    H126052   4.165   4.273   5.908 -0.3695  0.1481 -2.8412
 8696TIP3    H226053   4.284   4.232   5.823  1.5927  0.9732 -0.6286
 8697TIP3   OH226054   2.194   0.674   0.982  1.0865 -0.2011  0.7230
 8697TIP3    H126055   2.178   0.678   0.888  1.6909 -1.3153  0.5571
 8697TIP3    H226056   2.251   0.748   1.000 -0.9542  1.4760  0.6519
 8698TIP3   OH226057   5.282   5.415   3.473  0.5055  0.3245 -0.2814
 8698TIP3    H126058   5.346   5.469   3.427 -1.1140  0.7532 -2.1241
 8698TIP3    H226059   5.213   5.476   3.499  0.6449 -0.1817  1.4059
 8699TIP3   OH226060   5.594   5.048   0.088  0.1091  0.2263  0.1351
 8699TIP3    H126061   5.615   4.976   0.028 -1.1409  0.0334 -0.0814
 8699TIP3    H226062   5.649   5.121   0.059  0.5834 -0.3108 -0.3210
 8700TIP3   OH226063   6.093   4.678   5.518  0.2158  0.5380 -0.1133
 8700TIP3    H126064   6.188   4.681   5.526  0.2016  0.5295  0.0503
 8700TIP3    H226065   6.072   4.586   5.501  0.0527  0.1147  2.1315
 8701TIP3   OH226066   5.202   2.250   5.123 -0.7817  0.6764 -0.3291
 8701TIP3    H126067   5.257   2.276   5.049 -2.8256  1.0806 -1.7852
 8701TIP3    H226068   5.118   2.292   5.107 -2.2120 -1.6063  0.6685
 8702TIP3   OH226069   4.236   2.438   4.763  0.1636  0.0674  0.0258
 8702TIP3    H126070   4.268   2.408   4.678 -0.7042 -1.7028  0.2857
 8702TIP3    H226071   4.166   2.500   4.742 -1.8679 -2.2990 -0.6555
 8703TIP3   OH226072   0.739   5.512   3.805  0.0349 -0.2612  0.0191
 8703TIP3    H126073   0.815   5.504   3.748  0.5056  1.6853  0.2843
 8703TIP3    H226074   0.667   5.534   3.747  0.3702  1.0322  0.0601
 8704TIP3   OH226075   0.313   2.269   1.658  0.5561 -0.2161  0.4707
 8704TIP3    H126076   0.396   2.312   1.676  0.7784 -1.4560  2.8348
 8704TIP3    H226077   0.250   2.340   1.647  0.9072  0.8633  4.1298
 8705TIP3   OH226078   4.368   5.418   1.919 -0.1242  0.0954  0.4379
 8705TIP3    H126079   4.411   5.456   1.995 -0.8873  0.5659  0.6465
 8705TIP3    H226080   4.345   5.329   1.945 -1.4385  0.6320  1.1936
 8706TIP3   OH226081   4.310   0.925   3.223 -0.1373 -0.7629  0.6728
 8706TIP3    H126082   4.283   0.847   3.271  0.8899 -0.9905  0.8913
 8706TIP3    H226083   4.310   0.995   3.288 -1.8270 -0.3743  0.3189
 8707TIP3   OH226084   4.325   1.955   0.333  0.2962 -0.6658  0.4646
 8707TIP3    H126085   4.356   1.889   0.271 -1.5547 -1.0366 -0.1249
 8707TIP3    H226086   4.307   1.905   0.413 -0.1456 -0.7093  0.3400
 8708TIP3   OH226087   1.961   0.556   5.722  0.1324 -0.5342 -0.1939
 8708TIP3    H126088   1.937   0.504   5.798  0.0431  0.3891  0.4279
 8708TIP3    H226089   2.048   0.525   5.697  0.7541  0.0824  1.1378
 8709TIP3   OH226090   6.506   2.697   4.866  0.0001  0.1262 -0.2852
 8709TIP3    H126091   6.414   2.718   4.879  0.3777  2.8726 -1.4995
 8709TIP3    H226092   6.512   2.667   4.776  0.0614 -2.0623  0.3771
 8710TIP3   OH226093   2.750   5.607   5.497  0.0415 -0.5678  0.3040
 8710TIP3    H126094   2.655   5.610   5.499 -0.0170 -1.8878  0.6298
 8710TIP3    H226095   2.776   5.673   5.432 -1.1102 -0.5872 -0.1889
 8711TIP3   OH226096   3.401   3.450   0.557  0.0776 -0.6344  0.1808
 8711TIP3    H126097   3.443   3.500   0.487 -1.7784  0.5895 -0.1296
 8711TIP3    H226098   3.465   3.451   0.628  0.5254  1.3304 -0.1870
 8712TIP3   OH226099   4.382   3.815   0.802  0.5000  0.0728  0.4893
 8712TIP3    H126100   4.469   3.843   0.774  0.6728 -0.6122  0.3209
 8712TIP3    H226101   4.352   3.758   0.732 -0.3961  0.8765  0.1998
 8713TIP3   OH226102   3.292   3.711   1.621 -0.0449 -0.0975  0.0670
 8713TIP3    H126103   3.301   3.769   1.545  0.2824  2.4483  1.9290
 8713TIP3    H226104   3.199   3.715   1.643  0.2127  0.9481  1.0567
 8714TIP3   OH226105   6.651   6.285   0.854 -0.3668 -0.0466 -0.3505
 8714TIP3    H126106   6.729   6.231   0.843  0.7012  0.3101  3.6994
 8714TIP3    H226107   6.586   6.226   0.892 -0.8408  0.4354 -0.4012
 8715TIP3   OH226108   6.920   1.117   2.358  0.2443  0.3936  0.1202
 8715TIP3    H126109   6.877   1.197   2.388 -2.5659 -1.2696  0.9024
 8715TIP3    H226110   6.910   1.056   2.431  1.5080 -0.9780 -0.8065
 8716TIP3   OH226111   1.372   0.902   4.232  0.3334  0.0769 -0.3693
 8716TIP3    H126112   1.391   0.995   4.218  0.5686 -0.1076 -1.3095
 8716TIP3    H226113   1.327   0.900   4.317 -1.0846  1.2269 -1.0519
 8717TIP3   OH226114   5.136   2.469   2.660  0.0801 -0.3543 -0.0590
 8717TIP3    H126115   5.066   2.483   2.724  0.1692 -0.7813  0.1315
 8717TIP3    H226116   5.197   2.411   2.704  1.1587  0.9546  0.2288
 8718TIP3   OH226117   4.342   2.249   5.237  0.2961  0.0902  0.4026
 8718TIP3    H126118   4.311   2.173   5.189 -0.4849 -0.0090  1.0353
 8718TIP3    H226119   4.354   2.218   5.327  1.0851  0.4372  0.4282
 8719TIP3   OH226120   3.864   0.147   3.925 -0.6187  0.6413  0.2696
 8719TIP3    H126121   3.829   0.233   3.949 -1.4233  0.3765  0.0995
 8719TIP3    H226122   3.804   0.115   3.857  1.4795  1.2787 -2.0230
 8720TIP3   OH226123   3.749   0.628   0.564 -0.0477  0.0881 -0.7698
 8720TIP3    H126124   3.692   0.681   0.620 -0.8626 -0.1758 -1.3235
 8720TIP3    H226125   3.826   0.683   0.549 -0.5412  0.8116 -0.7065
 8721TIP3   OH226126   6.848   0.965   1.386 -0.4815 -0.1247  0.1159
 8721TIP3    H126127   6.864   1.009   1.302  1.9377  1.5303  1.3261
 8721TIP3    H226128   6.808   0.881   1.361 -0.6977  0.6677 -2.6114
 8722TIP3   OH226129   3.847   0.005   5.470  0.5673  0.3866  0.2917
 8722TIP3    H126130   3.793  -0.049   5.528  2.7846 -0.3752  1.8141
 8722TIP3    H226131   3.797   0.086   5.459 -1.5531 -0.8522  0.2943
 8723TIP3   OH226132   5.017   4.290   1.653  0.4225 -0.0099  0.1021
 8723TIP3    H126133   4.959   4.214   1.648  2.3744 -1.5387 -0.0644
 8723TIP3    H226134   5.040   4.296   1.746 -0.3293  0.9020  0.2508
 8724TIP3   OH226135   0.968   4.921   2.255 -0.4530 -0.1089  0.2273
 8724TIP3    H126136   0.973   5.004   2.303  0.9680 -0.9261  1.5755
 8724TIP3    H226137   0.964   4.854   2.323  0.6009 -1.2682 -0.8071
 8725TIP3   OH226138   3.875   3.211   2.089 -0.3328  0.1782 -0.3349
 8725TIP3    H126139   3.864   3.151   2.015 -1.2402  1.5674 -1.4017
 8725TIP3    H226140   3.790   3.256   2.095  0.5177  1.8190 -0.0402
 8726TIP3   OH226141   0.920   2.626   4.988  0.0676  0.2296  0.5847
 8726TIP3    H126142   0.828   2.637   4.966 -0.3759 -1.7166  1.2524
 8726TIP3    H226143   0.947   2.711   5.023 -1.0706  1.2404 -0.8830
 8727TIP3   OH226144   5.830   6.228   1.091  0.3952 -0.7158 -0.2380
 8727TIP3    H126145   5.813   6.212   1.184 -0.9445 -2.6061 -0.7306
 8727TIP3    H226146   5.756   6.281   1.062  1.3122  0.7101 -0.0642
 8728TIP3   OH226147   3.254   4.929   0.477 -0.5400  0.3384 -0.5185
 8728TIP3    H126148   3.203   4.911   0.556 -0.3321  0.5439 -0.3411
 8728TIP3    H226149   3.200   4.991   0.428 -0.6822  0.1900 -0.5534
 8729TIP3   OH226150   5.771   2.073   2.408 -0.3861  0.3917 -0.0244
 8729TIP3    H126151   5.840   2.014   2.438 -0.3331  0.2440 -0.4322
 8729TIP3    H226152   5.706   2.072   2.479 -0.6747 -0.6346 -0.2866
 8730TIP3   OH226153   1.501   5.345   3.431 -0.3830 -0.1986  0.3496
 8730TIP3    H126154   1.425   5.351   3.373 -0.2144 -0.6101  0.0806
 8730TIP3    H226155   1.499   5.426   3.482 -0.9229 -0.1422  0.2481
 8731TIP3   OH226156   1.922   1.857   4.479 -0.2164  0.4237  0.1286
 8731TIP3    H126157   1.916   1.893   4.390 -1.8634  1.0426  0.4491
 8731TIP3    H226158   1.871   1.918   4.533 -1.6869 -1.4639  1.0018
 8732TIP3   OH226159   7.026   3.856   3.188  0.6598 -0.3780  0.0230
 8732TIP3    H126160   7.052   3.792   3.254  0.4815 -0.5349 -0.0591
 8732TIP3    H226161   6.986   3.804   3.118  0.5091 -0.1782 -0.0407
 8733TIP3   OH226162   6.451   1.423   2.962  0.3970 -0.2454  0.2353
 8733TIP3    H126163   6.477   1.334   2.939  0.6744 -0.1099  0.0225
 8733TIP3    H226164   6.475   1.476   2.886 -0.2970 -0.0807  0.1265
 8734TIP3   OH226165   6.590   1.657   1.329  0.4397 -0.3962  0.3681
 8734TIP3    H126166   6.578   1.564   1.308 -0.4837 -0.3243  0.5196
 8734TIP3    H226167   6.523   1.675   1.395 -1.2777  1.0049 -1.5948
 8735TIP3   OH226168   6.326   4.294   5.128  0.0975 -0.0811  0.4923
 8735TIP3    H126169   6.319   4.374   5.076  0.5147  0.2216  0.9012
 8735TIP3    H226170   6.236   4.264   5.138 -0.0070 -0.0190 -0.2170
 8736TIP3   OH226171   0.620   5.788   2.490  0.1509  0.3787  0.3302
 8736TIP3    H126172   0.650   5.699   2.510  1.0035  0.5664 -0.0580
 8736TIP3    H226173   0.663   5.843   2.555  2.7336  0.9584 -1.6438
 8737TIP3   OH226174   1.411   2.071   4.791 -0.2347  0.6435 -0.1974
 8737TIP3    H126175   1.477   2.017   4.835  0.6514  2.7989  1.3829
 8737TIP3    H226176   1.456   2.106   4.714  0.5631  2.1125  0.8800
 8738TIP3   OH226177   0.519   6.720   2.446  0.2738 -0.2105  0.2966
 8738TIP3    H126178   0.538   6.666   2.523  1.7495  0.7326  0.6336
 8738TIP3    H226179   0.525   6.659   2.373 -1.5745 -1.2157  0.9152
 8739TIP3   OH226180   3.579   3.389   2.871 -0.2213 -0.2072  0.2521
 8739TIP3    H126181   3.644   3.415   2.937 -0.4827  0.6420  0.1767
 8739TIP3    H226182   3.582   3.293   2.873 -0.3841 -0.2137  1.6673
 8740TIP3   OH226183   3.752   2.343   1.021 -0.0785 -0.0353 -0.7284
 8740TIP3    H126184   3.828   2.368   1.072 -0.1654  0.7113 -0.9435
 8740TIP3    H226185   3.692   2.302   1.084  0.3120 -0.2179 -0.4762
 8741TIP3   OH226186   0.922   2.710   1.611  0.0617  0.8252 -0.5364
 8741TIP3    H126187   0.915   2.776   1.542  0.3123  1.1270 -0.2738
 8741TIP3    H226188   0.853   2.647   1.591 -0.6624  1.5489 -0.3698
 8742TIP3   OH226189   5.185   4.039   0.631  0.1165 -0.1650  0.2448
 8742TIP3    H126190   5.205   3.959   0.582  1.4357  0.1605  0.2377
 8742TIP3    H226191   5.137   4.007   0.708 -0.1030 -0.8830 -0.1740
 8743TIP3   OH226192   3.940   5.940   5.203 -0.1992  0.5600 -0.5680
 8743TIP3    H126193   3.985   5.973   5.281 -1.9640  2.5186 -0.2850
 8743TIP3    H226194   3.847   5.950   5.224 -0.7252  1.7539 -3.1456
 8744TIP3   OH226195   1.289   0.400   3.935 -0.5782 -0.7464 -0.1266
 8744TIP3    H126196   1.364   0.433   3.984  0.0203 -1.2530 -0.6692
 8744TIP3    H226197   1.213   0.445   3.972  0.1189  0.6620 -0.3550
 8745TIP3   OH226198   1.102   6.341   3.373  0.1835  0.4166 -0.3849
 8745TIP3    H126199   1.122   6.247   3.380  1.7357  0.6258 -1.4285
 8745TIP3    H226200   1.019   6.344   3.326 -0.5027 -0.4437  0.7268
 8746TIP3   OH226201   5.080   5.011   4.736  0.0934 -0.2302  1.0647
 8746TIP3    H126202   5.095   5.060   4.816  0.4298  0.8733  0.3449
 8746TIP3    H226203   5.031   5.071   4.680  1.4618 -0.2962 -0.2537
 8747TIP3   OH226204   4.911   0.275   2.978  0.2801  0.3591 -0.6604
 8747TIP3    H126205   4.965   0.198   2.966  0.7381  0.5416  0.1400
 8747TIP3    H226206   4.961   0.330   3.039 -1.0853  0.2446  0.6224
 8748TIP3   OH226207   4.928   1.498   4.465 -0.4141 -0.0291 -0.6281
 8748TIP3    H126208   5.011   1.475   4.424 -0.5474 -0.5742 -0.6003
 8748TIP3    H226209   4.877   1.416   4.464 -1.3535  0.5440 -1.6153
 8749TIP3   OH226210   5.293   6.555   4.137 -0.3241  0.1203  0.1166
 8749TIP3    H126211   5.309   6.536   4.045 -0.3540  1.0565 -0.0903
 8749TIP3    H226212   5.380   6.553   4.177 -0.5212 -2.7107  0.5796
 8750TIP3   OH226213   4.391   6.260   0.358  0.2209  0.3825 -0.2415
 8750TIP3    H126214   4.352   6.236   0.274  1.2853  1.3215 -1.0203
 8750TIP3    H226215   4.439   6.340   0.341 -0.1324  0.9937  1.4422
 8751TIP3   OH226216   3.976   4.479   3.321  0.6045 -0.4501 -0.4366
 8751TIP3    H126217   4.035   4.434   3.261  1.5383  1.0086 -0.6424
 8751TIP3    H226218   4.033   4.512   3.391 -0.1866 -0.3590  0.1807
 8752TIP3   OH226219   4.324   4.036   4.939  0.1603 -0.1593 -0.3670
 8752TIP3    H126220   4.289   3.952   4.969  1.1178 -0.8513 -1.0957
 8752TIP3    H226221   4.374   4.070   5.013 -0.6687  0.0380  0.1121
 8753TIP3   OH226222   2.604   4.059   5.786  0.1133  0.8502  0.4232
 8753TIP3    H126223   2.658   4.137   5.795  2.0402 -0.3804  0.1346
 8753TIP3    H226224   2.514   4.091   5.792  0.8582  2.9342  1.2974
 8754TIP3   OH226225   2.630   1.530   1.865 -0.2314 -0.8334 -0.0774
 8754TIP3    H126226   2.614   1.479   1.944  0.3199 -0.6650  0.1454
 8754TIP3    H226227   2.570   1.493   1.800 -0.5386 -1.1105  0.3557
 8755TIP3   OH226228   6.890   4.349   4.311  0.3785 -0.3087  0.0707
 8755TIP3    H126229   6.902   4.312   4.399  0.4278 -0.1343  0.1385
 8755TIP3    H226230   6.978   4.352   4.274  0.6627  1.4723  0.7710
 8756TIP3   OH226231   7.027   0.216   0.303  0.6022 -0.5029 -1.3022
 8756TIP3    H126232   6.989   0.243   0.219  0.1377 -0.6720 -1.1486
 8756TIP3    H226233   6.952   0.194   0.357  0.8112  0.9069 -0.3814
 8757TIP3   OH226234   0.049   2.804   1.847 -0.3432  0.3266  0.1698
 8757TIP3    H126235   0.054   2.708   1.845  0.4951  0.3535  0.5256
 8757TIP3    H226236  -0.044   2.823   1.855 -0.6760 -0.4102 -1.5725
 8758TIP3   OH226237   3.164   2.571   0.498  0.2121  0.6525  0.3544
 8758TIP3    H126238   3.148   2.657   0.536 -1.4509  0.2454  0.6829
 8758TIP3    H226239   3.097   2.562   0.430  1.3198  0.2032 -0.7244
 8759TIP3   OH226240   1.827   3.472   5.023 -0.1892 -0.4777 -0.0852
 8759TIP3    H126241   1.769   3.412   5.070  1.1299 -1.1747  0.7210
 8759TIP3    H226242   1.847   3.427   4.941  0.1333 -0.7656  0.1504
 8760TIP3   OH226243   6.730   1.205   1.464  0.3591  0.1978 -0.8507
 8760TIP3    H126244   6.639   1.197   1.492 -0.5774  2.6515 -2.7725
 8760TIP3    H226245   6.751   1.121   1.423 -1.1527 -0.2872 -0.6674
 8761TIP3   OH226246   5.279   4.910   1.022  0.5654 -0.5427 -0.1801
 8761TIP3    H126247   5.283   5.005   1.035 -0.5129 -0.6865  1.5526
 8761TIP3    H226248   5.334   4.894   0.946 -0.2946  1.6396 -1.3627
 8762TIP3   OH226249   3.140   1.536   1.623 -0.5056 -0.1876  0.0962
 8762TIP3    H126250   3.073   1.604   1.625  1.2781  1.6701  0.4495
 8762TIP3    H226251   3.126   1.490   1.541 -2.8897 -0.6491  0.6875
 8763TIP3   OH226252   6.095   4.556   1.305 -0.5526  0.1003 -0.1049
 8763TIP3    H126253   6.031   4.506   1.357 -1.7250  1.4730 -0.1599
 8763TIP3    H226254   6.138   4.613   1.369  1.1190 -1.2342  0.0374
 8764TIP3   OH226255   7.034   1.454   2.168  0.1946 -0.4834  0.0215
 8764TIP3    H126256   7.043   1.419   2.257 -0.4624  0.3018  0.4166
 8764TIP3    H226257   7.105   1.518   2.161  0.3663 -0.6866 -0.0897
 8765TIP3   OH226258   6.140   0.373   3.148  0.2447 -0.1486 -0.2062
 8765TIP3    H126259   6.203   0.445   3.144  2.3867 -1.9767 -1.5190
 8765TIP3    H226260   6.076   0.394   3.080 -0.3059  1.4294  0.7320
 8766TIP3   OH226261   1.912   4.892   3.640 -0.4775 -0.1968 -0.2957
 8766TIP3    H126262   1.894   4.985   3.653  3.5067  0.9571 -1.4920
 8766TIP3    H226263   1.885   4.851   3.722  0.1904  2.5198  1.4412
 8767TIP3   OH226264   3.875   1.479   0.594 -0.4226  0.4068 -0.0210
 8767TIP3    H126265   3.928   1.493   0.516  0.9843  1.1632  1.0320
 8767TIP3    H226266   3.921   1.525   0.664 -0.2070 -2.3772  1.8491
 8768TIP3   OH226267   0.691   4.103   1.125  0.3730  0.0709 -0.4117
 8768TIP3    H126268   0.703   4.148   1.209 -1.4761  1.4417 -0.8191
 8768TIP3    H226269   0.779   4.099   1.088  1.2125 -0.4050  1.4780
 8769TIP3   OH226270   3.114   0.905   4.388 -0.6768 -0.4609  0.2134
 8769TIP3    H126271   3.204   0.930   4.409 -0.5857 -0.5816 -0.0274
 8769TIP3    H226272   3.062   0.980   4.415 -0.5900 -0.6947  1.0653
 8770TIP3   OH226273   2.134   2.269   4.778 -0.2479  0.2836 -0.1438
 8770TIP3    H126274   2.110   2.314   4.859 -0.7722  0.8515 -0.6043
 8770TIP3    H226275   2.070   2.198   4.771  0.9147 -0.9243  0.8674
 8771TIP3   OH226276   4.032   3.828   1.390  0.7999 -0.6769  0.4405
 8771TIP3    H126277   4.061   3.810   1.479  0.2860 -1.9138  0.3681
 8771TIP3    H226278   4.012   3.743   1.352 -1.9176  0.0029  0.1371
 8772TIP3   OH226279   5.663   6.186   0.668 -0.0121  0.0973  0.1909
 8772TIP3    H126280   5.755   6.205   0.651  0.0363  1.4230  1.7074
 8772TIP3    H226281   5.616   6.222   0.593  0.5633  1.1575  0.3285
 8773TIP3   OH226282   5.602   1.746   5.288 -0.1947  0.0296 -0.3383
 8773TIP3    H126283   5.630   1.656   5.268 -0.0028 -0.2087  0.8982
 8773TIP3    H226284   5.509   1.737   5.308  0.1274 -0.1641  1.2025
 8774TIP3   OH226285   3.682   5.539   3.709 -0.4630  0.1758  0.0563
 8774TIP3    H126286   3.773   5.517   3.687 -0.7654 -2.0922  0.7789
 8774TIP3    H226287   3.681   5.547   3.804 -0.8314  1.2394 -0.0299
 8775TIP3   OH226288   0.255   6.584   5.020 -0.2075  0.4592  0.0450
 8775TIP3    H126289   0.265   6.591   4.926 -1.6161  1.2232 -0.0769
 8775TIP3    H226290   0.244   6.674   5.051  3.5269  0.5914  1.4187
 8776TIP3   OH226291   6.296   0.631   3.529  0.2874 -0.4793  0.2799
 8776TIP3    H126292   6.204   0.612   3.510  0.0623  0.3504  0.5113
 8776TIP3    H226293   6.344   0.557   3.490 -0.4504 -0.7720 -0.0929
 8777TIP3   OH226294   6.331   5.506   1.165  0.2680 -0.2100  0.3355
 8777TIP3    H126295   6.271   5.434   1.145 -0.1139 -0.5947  2.6423
 8777TIP3    H226296   6.323   5.518   1.259  1.8037  1.5687  0.2800
 8778TIP3   OH226297   0.108   5.693   1.779  0.1598  0.1202  0.0594
 8778TIP3    H126298   0.165   5.617   1.780  0.3745  0.2799  1.3492
 8778TIP3    H226299   0.128   5.737   1.696  0.1749 -1.0908 -0.6065
 8779TIP3   OH226300   5.488   3.637   1.114  0.2302  0.6773  0.7258
 8779TIP3    H126301   5.506   3.641   1.208 -0.9051 -1.7512  1.1136
 8779TIP3    H226302   5.568   3.601   1.076 -0.3090 -1.1857  1.2240
 8780TIP3   OH226303   1.163   4.941   5.180  0.5966  0.3229 -0.2226
 8780TIP3    H126304   1.214   5.017   5.210 -1.1266  1.5330 -0.2337
 8780TIP3    H226305   1.151   4.888   5.258 -0.9693  1.7509  0.5808
 8781TIP3   OH226306   7.155   2.400   5.403  0.3474  0.3336  0.3353
 8781TIP3    H126307   7.070   2.440   5.420  0.0899 -0.3265  0.6268
 8781TIP3    H226308   7.174   2.348   5.481 -0.2202 -1.6553 -0.7839
 8782TIP3   OH226309   6.078   0.195   1.913  0.3607  0.0788  0.9537
 8782TIP3    H126310   6.118   0.231   1.834 -0.1799  1.0479  1.1051
 8782TIP3    H226311   6.072   0.101   1.896 -0.8541  0.4114 -0.6708
 8783TIP3   OH226312   2.543   5.843   5.628  0.5810  0.0689 -0.2285
 8783TIP3    H126313   2.478   5.898   5.671  1.2141  1.3141 -0.7771
 8783TIP3    H226314   2.623   5.856   5.679  1.0059  0.5404 -0.9842
 8784TIP3   OH226315   0.430   5.521   4.195 -0.2073  0.2415  0.1254
 8784TIP3    H126316   0.452   5.428   4.199  0.0202  0.2664 -0.5236
 8784TIP3    H226317   0.410   5.538   4.103 -0.5027  0.7786  0.2820
 8785TIP3   OH226318   5.849   2.384   3.260  0.2157  0.1231  0.1749
 8785TIP3    H126319   5.812   2.296   3.270  1.5138 -0.3923  0.7578
 8785TIP3    H226320   5.846   2.401   3.166  2.4579 -1.7406 -0.3399
 8786TIP3   OH226321   0.159   5.992   1.385 -0.5561  0.5077  0.2617
 8786TIP3    H126322   0.108   6.067   1.353  0.8911  0.3754 -2.6313
 8786TIP3    H226323   0.250   6.024   1.386 -0.2797 -0.1042  2.7163
 8787TIP3   OH226324   6.830   3.810   1.986  0.1024  0.1132  0.2471
 8787TIP3    H126325   6.916   3.790   2.022  0.3965 -0.3415 -0.6821
 8787TIP3    H226326   6.819   3.904   2.001 -0.6849 -0.3575  3.3418
 8788TIP3   OH226327   2.759   3.829   2.867  0.3996 -0.2792  0.6923
 8788TIP3    H126328   2.798   3.871   2.790  0.0485  0.2900  0.8147
 8788TIP3    H226329   2.757   3.736   2.845  0.4290 -0.1402  0.0652
 8789TIP3   OH226330   1.537   1.447   0.102 -0.4779  0.5394  0.6429
 8789TIP3    H126331   1.604   1.416   0.042 -1.2906 -0.0305  0.0110
 8789TIP3    H226332   1.579   1.444   0.188  0.5821  1.0250  0.1597
 8790TIP3   OH226333   2.737   0.309   5.334 -0.8606  0.3366  0.2179
 8790TIP3    H126334   2.780   0.228   5.304 -0.5949  0.8588 -0.8388
 8790TIP3    H226335   2.750   0.308   5.429  1.2249  0.3138 -0.0204
 8791TIP3   OH226336   5.669   1.780   1.237 -0.3394 -0.3824 -0.0596
 8791TIP3    H126337   5.616   1.786   1.157  2.0398  0.3029 -1.6850
 8791TIP3    H226338   5.741   1.722   1.214  1.6949  1.6582  0.7798
 8792TIP3   OH226339   5.949   4.508   1.726 -0.0695 -0.3608 -0.0654
 8792TIP3    H126340   5.964   4.525   1.633  1.8367  1.3967  0.4736
 8792TIP3    H226341   5.887   4.575   1.754  0.5625  0.1102  0.2315
 8793TIP3   OH226342   2.821   1.576   1.419  0.5368  0.4501 -0.5143
 8793TIP3    H126343   2.800   1.647   1.359 -0.3106  1.0996  0.5042
 8793TIP3    H226344   2.741   1.522   1.422  0.0822  1.1396  0.9501
 8794TIP3   OH226345   3.389   0.660   2.832 -0.1219 -0.2606  0.2082
 8794TIP3    H126346   3.474   0.660   2.876  0.3688  1.1598 -0.6917
 8794TIP3    H226347   3.356   0.571   2.844  1.6956 -0.9805  0.1703
 8795TIP3   OH226348   1.487   1.235   3.732 -0.0096 -0.0192 -0.3803
 8795TIP3    H126349   1.494   1.329   3.716 -0.2220  0.1168  0.3102
 8795TIP3    H226350   1.498   1.226   3.826  0.0402 -0.6939 -0.4471
 8796TIP3   OH226351   5.935   2.861   3.585 -0.1458  0.4987  0.4709
 8796TIP3    H126352   5.858   2.883   3.534 -0.3906  0.9317  1.0129
 8796TIP3    H226353   5.925   2.768   3.605  0.0712  0.2714 -0.4524
 8797TIP3   OH226354   5.283   0.981   3.169 -0.3214 -0.0223  0.3187
 8797TIP3    H126355   5.233   0.946   3.242  0.1763  1.8365  1.6398
 8797TIP3    H226356   5.241   0.945   3.090 -1.1766 -1.6816  1.4815
 8798TIP3   OH226357   2.063   0.118   2.851 -0.7540 -0.3185  0.1947
 8798TIP3    H126358   2.124   0.044   2.850  1.4834  1.3777  0.8822
 8798TIP3    H226359   2.037   0.126   2.943 -0.1552  0.3208  0.3232
 8799TIP3   OH226360   3.898   4.470   5.385  0.3796 -0.6388  0.5414
 8799TIP3    H126361   3.893   4.387   5.432 -0.2147 -0.1018  1.4784
 8799TIP3    H226362   3.868   4.535   5.449 -0.4051  0.1303 -0.5637
 8800TIP3   OH226363   6.028   4.297   3.850 -0.6696  0.6861 -0.2676
 8800TIP3    H126364   6.012   4.297   3.944 -1.0693 -0.3644 -0.3227
 8800TIP3    H226365   6.031   4.204   3.826  3.9247  0.6738 -0.5383
 8801TIP3   OH226366   6.413   0.884   1.922  0.0479 -0.1731  0.1956
 8801TIP3    H126367   6.353   0.818   1.887 -0.5318 -0.2250  1.2281
 8801TIP3    H226368   6.360   0.932   1.986  0.1832  1.9027 -1.1485
 8802TIP3   OH226369   7.209   6.599   1.171  0.4770  0.4874  0.1680
 8802TIP3    H126370   7.260   6.546   1.233 -0.1875  0.9570  1.1361
 8802TIP3    H226371   7.142   6.640   1.224  0.5067  1.7103 -0.7001
 8803TIP3   OH226372   2.003   0.535   3.506 -0.3167  0.4229 -0.1538
 8803TIP3    H126373   2.007   0.514   3.413  1.1344  3.5539 -0.9240
 8803TIP3    H226374   1.992   0.630   3.509  3.0840  0.9429  2.7708
 8804TIP3   OH226375   1.622   4.243   1.412  0.4593  0.2898  0.0873
 8804TIP3    H126376   1.583   4.322   1.375  1.5324  1.3352  1.0972
 8804TIP3    H226377   1.675   4.207   1.342  0.2546  0.6736 -0.2724
 8805TIP3   OH226378   5.505   6.359   0.506  0.0040  0.1749 -0.7373
 8805TIP3    H126379   5.519   6.363   0.412 -0.8026 -0.2158 -0.8872
 8805TIP3    H226380   5.411   6.342   0.516 -0.4350  2.7092  0.1854
 8806TIP3   OH226381   2.197   1.878   3.371 -0.3738  0.3257 -0.2053
 8806TIP3    H126382   2.205   1.928   3.452 -0.4239  0.9457 -0.5672
 8806TIP3    H226383   2.166   1.792   3.398 -0.3323  0.5061  0.4356
 8807TIP3   OH226384   0.115   4.846   5.645  0.5879  0.0871 -0.3626
 8807TIP3    H126385   0.164   4.824   5.565 -1.0473  0.0414 -1.4021
 8807TIP3    H226386   0.033   4.883   5.613 -0.3361 -0.4239  1.3059
 8808TIP3   OH226387   5.506   4.028   5.640  0.0634 -0.1802  0.1498
 8808TIP3    H126388   5.516   4.090   5.712  1.2185  0.3774 -0.4421
 8808TIP3    H226389   5.511   3.942   5.681  1.0225  0.1252  0.7144
 8809TIP3   OH226390   0.741   1.035   5.246 -0.9440 -0.0772 -0.6761
 8809TIP3    H126391   0.775   1.111   5.199  1.2698  0.4060  1.4895
 8809TIP3    H226392   0.669   1.070   5.300 -0.0002  0.5025  0.2372
 8810TIP3   OH226393   2.659   6.275   0.621  0.1548 -0.8375  0.4580
 8810TIP3    H126394   2.624   6.333   0.553 -0.4637 -0.8131  0.7931
 8810TIP3    H226395   2.706   6.207   0.573  3.0975  1.2490  0.0696
 8811TIP3   OH226396   2.213   4.184   0.866 -0.1382  0.3827 -0.2014
 8811TIP3    H126397   2.170   4.099   0.879 -0.0460  0.4334  0.4402
 8811TIP3    H226398   2.194   4.206   0.774  1.8626 -1.4660 -1.1520
 8812TIP3   OH226399   0.626   6.511   2.591 -0.2009 -0.3729  0.2309
 8812TIP3    H126400   0.701   6.452   2.592 -1.4627 -2.1471 -1.4218
 8812TIP3    H226401   0.550   6.454   2.581 -1.6769  1.4277  0.4907
 8813TIP3   OH226402   5.432   4.505   0.468  0.0733  0.0505  0.2233
 8813TIP3    H126403   5.373   4.430   0.478  0.3635 -0.4323 -1.3708
 8813TIP3    H226404   5.421   4.531   0.377  0.3111  1.6886  0.6421
 8814TIP3   OH226405   1.720   2.352   3.551 -0.1165 -0.0997  0.4151
 8814TIP3    H126406   1.777   2.409   3.498 -0.7415 -0.8532 -1.1377
 8814TIP3    H226407   1.754   2.264   3.536 -1.6373 -0.5610 -0.5303
 8815TIP3   OH226408   0.759   1.506   3.569  0.5043  0.3099  0.1047
 8815TIP3    H126409   0.819   1.441   3.533 -0.2218 -1.0505  1.2402
 8815TIP3    H226410   0.672   1.475   3.545  0.0647 -0.0386  2.0021
 8816TIP3   OH226411   5.758   2.372   0.644 -0.1542  0.1364 -0.3981
 8816TIP3    H126412   5.759   2.468   0.644 -0.9281  0.2151  2.0317
 8816TIP3    H226413   5.816   2.348   0.717  0.2292 -1.2587 -1.1413
 8817TIP3   OH226414   7.029   3.293   0.662 -0.1481 -0.2034  0.2151
 8817TIP3    H126415   7.093   3.362   0.649 -0.5726 -0.0778 -1.5004
 8817TIP3    H226416   6.993   3.277   0.574  0.3765 -3.0170  0.4047
 8818TIP3   OH226417   0.041   2.879   0.277 -0.2511  0.0681 -0.3779
 8818TIP3    H126418  -0.015   2.947   0.316  0.1724  0.1731  0.0516
 8818TIP3    H226419   0.130   2.909   0.294  0.0110  0.9476 -2.8040
 8819TIP3   OH226420   6.912   3.883   0.771 -0.0768  0.2746  0.8298
 8819TIP3    H126421   6.841   3.919   0.718  0.5410  1.0219  0.4979
 8819TIP3    H226422   6.869   3.855   0.852 -0.3496  3.6515  2.0149
 8820TIP3   OH226423   1.907   5.556   4.112 -0.4056 -0.6434 -0.2864
 8820TIP3    H126424   1.927   5.594   4.027 -0.3212 -0.3983 -0.1579
 8820TIP3    H226425   1.903   5.631   4.171  0.8173 -0.9097  0.1793
 8821TIP3   OH226426   3.992   1.577   5.108  0.2153 -0.1886  0.0541
 8821TIP3    H126427   3.990   1.489   5.145  0.4238 -1.0284 -1.8000
 8821TIP3    H226428   3.983   1.563   5.014 -0.6435  1.8458 -0.2154
 8822TIP3   OH226429   4.960   5.076   0.699  0.0268 -0.0279  0.3364
 8822TIP3    H126430   4.983   4.985   0.678  3.7186  0.5878  1.0300
 8822TIP3    H226431   4.951   5.077   0.794  1.2666  0.5280  0.4621
 8823TIP3   OH226432   0.188   2.258   2.544 -0.4131  0.0147 -0.4348
 8823TIP3    H126433   0.196   2.164   2.532 -2.3766 -0.1616 -0.7015
 8823TIP3    H226434   0.145   2.268   2.629  0.4716  0.7136 -0.0502
 8824TIP3   OH226435   2.769   2.937   4.977  0.1525 -0.2194  0.1774
 8824TIP3    H126436   2.743   2.922   4.887 -1.3777  0.9317  0.4013
 8824TIP3    H226437   2.855   2.893   4.985  1.1497  1.1239 -2.2973
 8825TIP3   OH226438   3.415   0.842   0.888 -0.7916 -0.2803 -0.3362
 8825TIP3    H126439   3.395   0.812   0.976 -1.0006 -0.2218 -0.3646
 8825TIP3    H226440   3.337   0.821   0.837 -0.8375  0.0759 -0.4152
 8826TIP3   OH226441   5.532   3.290   3.056 -0.0160  0.3586 -0.3283
 8826TIP3    H126442   5.547   3.383   3.040  0.9810  0.6272  1.7979
 8826TIP3    H226443   5.606   3.262   3.110 -1.2734 -1.1811  0.7072
 8827TIP3   OH226444   3.222   6.284   2.401 -0.2239 -0.2158 -0.3545
 8827TIP3    H126445   3.284   6.222   2.364 -0.0269 -0.2016 -0.0523
 8827TIP3    H226446   3.187   6.239   2.479 -1.3537 -0.6459 -1.0804
 8828TIP3   OH226447   3.686   6.654   2.600 -0.3948  0.0059 -0.0513
 8828TIP3    H126448   3.741   6.643   2.523 -2.1763 -1.3353 -1.2039
 8828TIP3    H226449   3.717   6.735   2.640  3.3883 -1.3827  0.2561
 8829TIP3   OH226450   5.078   1.341   3.844  0.5370  0.3380 -0.3641
 8829TIP3    H126451   5.017   1.309   3.777  0.0893  0.7994 -0.1797
 8829TIP3    H226452   5.149   1.382   3.794  0.0824  0.9001 -0.5513
 8830TIP3   OH226453   7.093   5.484   2.504 -0.3225 -0.3043  0.3909
 8830TIP3    H126454   7.122   5.410   2.557 -2.7981 -0.7228  1.3072
 8830TIP3    H226455   7.147   5.557   2.534 -0.3580 -0.9504  2.1745
 8831TIP3   OH226456   5.300   6.415   4.909  0.0853  0.2369  0.8454
 8831TIP3    H126457   5.270   6.448   4.825  0.0457 -3.1120 -0.6422
 8831TIP3    H226458   5.395   6.409   4.900 -0.0505 -1.8451  0.2183
 8832TIP3   OH226459   3.949   5.435   2.563 -0.0287  0.3872  0.0022
 8832TIP3    H126460   3.999   5.383   2.626 -1.8014 -0.8469  0.4443
 8832TIP3    H226461   3.915   5.371   2.500 -1.3828  1.1336 -0.0583
 8833TIP3   OH226462   6.051   0.989   3.956 -0.4182 -0.4057  0.3075
 8833TIP3    H126463   5.985   1.041   3.910  0.0068 -0.7880 -0.7601
 8833TIP3    H226464   6.053   1.025   4.044  0.8011  2.3325 -0.7240
 8834TIP3   OH226465   5.873   3.201   1.584  0.6146  0.0332 -0.3289
 8834TIP3    H126466   5.911   3.287   1.570 -0.7742  0.8094  0.4468
 8834TIP3    H226467   5.892   3.152   1.504  1.9296  0.8465 -0.5377
 8835TIP3   OH226468   0.755   0.674   1.492 -0.5566  0.4532  0.0820
 8835TIP3    H126469   0.685   0.739   1.501  0.8896  1.8826  1.7975
 8835TIP3    H226470   0.836   0.725   1.498  0.6390 -1.4740  1.1837
 8836TIP3   OH226471   1.443   4.176   5.087 -0.1624 -0.4180  0.7577
 8836TIP3    H126472   1.454   4.129   5.170  1.2974  0.2325  0.9536
 8836TIP3    H226473   1.415   4.108   5.025  1.5656 -1.5001  1.1172
 8837TIP3   OH226474   5.677   1.067   5.459  0.0920 -0.2039  0.0068
 8837TIP3    H126475   5.715   1.154   5.448 -0.3644 -0.1088 -0.9361
 8837TIP3    H226476   5.582   1.082   5.459 -0.0691 -0.8572 -2.0021
 8838TIP3   OH226477   3.019   4.463   4.184 -0.0335 -0.9115 -0.1796
 8838TIP3    H126478   2.942   4.421   4.223  0.9819 -1.6743  1.0884
 8838TIP3    H226479   2.984   4.511   4.109 -1.7825 -1.0187  0.5039
 8839TIP3   OH226480   4.148   6.291   5.165 -0.0938 -0.1180  0.3457
 8839TIP3    H126481   4.129   6.359   5.230 -1.0323 -0.9849  1.0150
 8839TIP3    H226482   4.066   6.281   5.117  0.3571 -0.0437 -0.4565
 8840TIP3   OH226483   5.429   1.784   1.386  0.1067  0.2486 -0.4050
 8840TIP3    H126484   5.353   1.771   1.328  0.3360  2.1867 -1.1966
 8840TIP3    H226485   5.503   1.748   1.337 -0.0988 -0.5633 -0.1371
 8841TIP3   OH226486   1.840   1.886   3.483 -0.3671  0.3361  0.1114
 8841TIP3    H126487   1.836   1.887   3.579 -0.3076  0.3449  0.1139
 8841TIP3    H226488   1.797   1.804   3.459  0.0312  0.1081  0.1675
 8842TIP3   OH226489   0.611   5.436   1.927  0.4518  0.3394 -0.0501
 8842TIP3    H126490   0.598   5.378   1.852  0.3114  0.5962 -0.2281
 8842TIP3    H226491   0.681   5.395   1.978  1.4191  0.7835 -0.9602
 8843TIP3   OH226492   5.041   1.597   0.575 -0.4789 -0.5089 -0.0024
 8843TIP3    H126493   5.056   1.577   0.483  0.7750 -1.1120  0.3232
 8843TIP3    H226494   5.124   1.580   0.618 -0.7432  0.7627  1.0902
 8844TIP3   OH226495   3.399   5.691   1.779 -0.3595  0.1477  0.4364
 8844TIP3    H126496   3.460   5.674   1.851  0.1624  0.5057  0.0895
 8844TIP3    H226497   3.454   5.695   1.701 -0.7689  0.9062  0.1713
 8845TIP3   OH226498   5.717   3.353   4.973 -0.4494 -0.7015  0.0407
 8845TIP3    H126499   5.724   3.315   4.885  2.9348 -2.7852  1.0073
 8845TIP3    H226500   5.664   3.289   5.022  1.5602 -2.0579  0.5668
 8846TIP3   OH226501   0.898   0.182   5.151  0.2153  0.1568  0.0795
 8846TIP3    H126502   0.917   0.106   5.097 -1.0848 -2.2481  2.7918
 8846TIP3    H226503   0.984   0.223   5.165  1.0332 -1.1316 -0.9669
 8847TIP3   OH226504   0.420   4.868   2.798  0.3648 -0.2966 -0.0210
 8847TIP3    H126505   0.447   4.825   2.718  0.7751  0.4113 -0.2765
 8847TIP3    H226506   0.423   4.800   2.865 -0.6240 -1.0477 -0.7280
 8848TIP3   OH226507   3.245   3.169   5.669  0.8453 -0.3959  0.5965
 8848TIP3    H126508   3.307   3.102   5.638  0.8192 -0.5799  0.9398
 8848TIP3    H226509   3.301   3.237   5.707  0.8510 -0.4435  0.6744
 8849TIP3   OH226510   4.675   5.664   4.146  0.1496  0.8446 -0.2027
 8849TIP3    H126511   4.663   5.725   4.219  2.8569  2.0092 -0.6354
 8849TIP3    H226512   4.666   5.718   4.068 -2.1110 -0.2780 -0.8038
 8850TIP3   OH226513   4.055   3.961   3.864  0.3311 -0.0246 -0.2241
 8850TIP3    H126514   4.126   3.902   3.837 -1.3072 -2.7526  1.0309
 8850TIP3    H226515   4.001   3.972   3.786  2.1272  2.2830 -1.2654
 8851TIP3   OH226516   5.256   1.130   5.569  0.3097  0.2663 -0.3450
 8851TIP3    H126517   5.302   1.110   5.651 -0.5996  0.5371  0.2494
 8851TIP3    H226518   5.303   1.080   5.502 -0.9171 -2.6780  0.8192
 8852TIP3   OH226519   5.794   5.133   4.386 -0.5268 -0.6475 -0.2870
 8852TIP3    H126520   5.717   5.085   4.357 -0.7046  0.0439 -1.0323
 8852TIP3    H226521   5.835   5.078   4.452 -1.2959 -1.3222 -0.3664
 8853TIP3   OH226522   0.120   4.149   4.552  0.2754  0.1376 -0.1635
 8853TIP3    H126523   0.200   4.198   4.531  1.1157 -0.4501  1.4498
 8853TIP3    H226524   0.142   4.058   4.530 -0.9978  0.3069 -2.4111
 8854TIP3   OH226525   5.566   4.859   2.628 -0.4571  0.1647  0.2846
 8854TIP3    H126526   5.518   4.791   2.674 -0.1229 -0.9002 -0.8721
 8854TIP3    H226527   5.656   4.826   2.622  0.0569  1.3705  0.9486
 8855TIP3   OH226528   6.116   2.481   0.643 -0.3010 -0.1675  0.5703
 8855TIP3    H126529   6.086   2.427   0.570 -0.1852 -1.8301  1.6834
 8855TIP3    H226530   6.045   2.542   0.659  0.3094  1.2993 -1.8872
 8856TIP3   OH226531   0.580   1.764   1.187  0.2778 -0.3949 -0.3562
 8856TIP3    H126532   0.650   1.708   1.155  0.3127  0.5005 -1.9158
 8856TIP3    H226533   0.611   1.793   1.273  0.4758 -2.3073  0.2671
 8857TIP3   OH226534   4.778   2.975   1.824 -0.8122 -0.3281  0.0266
 8857TIP3    H126535   4.789   3.041   1.756  1.0574  0.1922  0.7763
 8857TIP3    H226536   4.683   2.959   1.827 -1.1706  1.3987 -1.0173
 8858TIP3   OH226537   5.635   3.750   0.827  0.0519  0.2017  0.4815
 8858TIP3    H126538   5.671   3.794   0.750  1.6924 -0.0640  1.0400
 8858TIP3    H226539   5.564   3.807   0.857 -0.3995  0.4691 -1.0163
 8859TIP3   OH226540   3.733   0.216   1.925 -0.0592 -0.4819 -0.5826
 8859TIP3    H126541   3.792   0.143   1.906 -0.6195 -0.9914 -0.4072
 8859TIP3    H226542   3.662   0.207   1.862 -0.3873 -0.3873 -0.2319
 8860TIP3   OH226543   7.098   5.593   1.893  0.2505  0.0753  0.3106
 8860TIP3    H126544   7.125   5.501   1.894  1.2991  0.3602  2.3727
 8860TIP3    H226545   7.177   5.640   1.865 -0.3781  0.3631 -1.0652
 8861TIP3   OH226546   1.597   4.169   2.519 -0.3046 -0.3891 -0.1829
 8861TIP3    H126547   1.691   4.176   2.538 -0.1925  0.3130 -0.9237
 8861TIP3    H226548   1.589   4.089   2.467  0.2530  0.7077 -2.0748
 8862TIP3   OH226549   2.652   1.007   5.174  0.4694  0.6962  0.2773
 8862TIP3    H126550   2.619   1.058   5.249 -0.0315  0.1367  0.4431
 8862TIP3    H226551   2.744   0.992   5.194  0.6825  1.7019  0.1315
 8863TIP3   OH226552   4.650   3.373   1.756 -0.6426 -0.1732 -0.1252
 8863TIP3    H126553   4.667   3.347   1.847  0.3779 -1.9598 -0.7931
 8863TIP3    H226554   4.584   3.310   1.725 -0.5130  0.0188 -0.8093
 8864TIP3   OH226555   0.958   5.596   2.007 -0.1273  0.3277  0.3183
 8864TIP3    H126556   1.034   5.586   1.950  0.5094  1.0775  1.0166
 8864TIP3    H226557   0.929   5.506   2.022 -0.9022  0.1548 -1.9284
 8865TIP3   OH226558   4.643   0.383   2.080  1.0903 -0.2564  0.0612
 8865TIP3    H126559   4.662   0.311   2.140  1.7456  0.1431  0.3372
 8865TIP3    H226560   4.552   0.407   2.098  0.3474 -2.0027 -1.0724
 8866TIP3   OH226561   0.875   6.089   4.049 -0.4389  0.4989 -0.0705
 8866TIP3    H126562   0.911   6.129   3.971 -0.7690 -0.3690 -0.6806
 8866TIP3    H226563   0.782   6.111   4.047 -1.1339 -2.1883 -1.6816
 8867TIP3   OH226564   2.262   0.399   0.772  0.0072 -0.1944  0.1382
 8867TIP3    H126565   2.330   0.360   0.828  0.0918 -0.0765  0.1177
 8867TIP3    H226566   2.185   0.405   0.828  0.0851 -0.0979  0.2363
 8868TIP3   OH226567   0.204   5.063   5.320 -0.6742 -0.1602  0.4875
 8868TIP3    H126568   0.195   5.120   5.244 -3.1084 -0.6392  0.3197
 8868TIP3    H226569   0.169   4.979   5.291  2.6619 -1.8004  0.7849
 8869TIP3   OH226570   6.331   2.403   2.689 -0.3265 -0.0452 -0.0475
 8869TIP3    H126571   6.282   2.455   2.753 -0.4566  0.4233 -0.5307
 8869TIP3    H226572   6.279   2.323   2.678 -1.0311  0.4859 -0.6205
 8870TIP3   OH226573   5.140   3.957   3.575  0.1134 -0.2564  0.2251
 8870TIP3    H126574   5.093   3.875   3.590 -0.0668 -0.8772 -2.9387
 8870TIP3    H226575   5.078   4.025   3.602 -2.0703 -1.1010 -2.1945
 8871TIP3   OH226576   0.323   2.027   1.823 -0.3864  0.4234 -0.3424
 8871TIP3    H126577   0.322   2.091   1.753  0.6634  0.4988 -0.2976
 8871TIP3    H226578   0.287   1.947   1.783 -1.8392  1.0446 -0.3540
 8872TIP3   OH226579   5.549   0.589   5.329  0.0672 -0.0896 -0.1780
 8872TIP3    H126580   5.609   0.546   5.391 -2.4449 -0.1242  2.4541
 8872TIP3    H226581   5.589   0.674   5.313  2.6791 -1.4721 -1.6153
 8873TIP3   OH226582   0.857   5.412   0.800  0.0538  0.3567  0.2486
 8873TIP3    H126583   0.804   5.332   0.796  0.7112 -0.0728 -0.0757
 8873TIP3    H226584   0.807   5.477   0.751  0.5680 -0.4862 -1.4642
 8874TIP3   OH226585   0.194   3.425   0.821 -0.0877 -0.0413  0.3415
 8874TIP3    H126586   0.131   3.450   0.888 -0.3353  0.4351 -0.0600
 8874TIP3    H226587   0.140   3.403   0.745  0.1866 -0.6287  0.3140
 8875TIP3   OH226588   2.331   1.841   0.285  0.1061 -0.3251 -0.2784
 8875TIP3    H126589   2.317   1.875   0.196 -1.2602 -1.4498 -0.5191
 8875TIP3    H226590   2.256   1.873   0.335  2.0654  2.3925  1.1895
 8876TIP3   OH226591   0.746   2.624   1.066 -0.1412 -0.7082  0.2089
 8876TIP3    H126592   0.683   2.556   1.092 -0.1684 -0.0802  1.8725
 8876TIP3    H226593   0.718   2.650   0.978 -0.4371 -2.4753 -0.2550
 8877TIP3   OH226594   0.582   1.417   1.755  0.2182  0.4188  0.5597
 8877TIP3    H126595   0.594   1.389   1.845  0.5790  0.9560  0.6845
 8877TIP3    H226596   0.599   1.339   1.702 -1.4453 -0.2970  1.0080
 8878TIP3   OH226597   2.574   5.620   0.069 -0.2214  0.5966 -0.0453
 8878TIP3    H126598   2.606   5.579   0.149  0.5335  0.4186 -0.4341
 8878TIP3    H226599   2.578   5.714   0.086 -2.6992  0.5760  1.1462
 8879TIP3   OH226600   5.745   3.487   3.979 -0.3829 -0.5755  0.1406
 8879TIP3    H126601   5.782   3.480   4.068 -1.2725 -0.8390  0.5040
 8879TIP3    H226602   5.803   3.433   3.925  0.2201 -0.3424  0.5427
 8880TIP3   OH226603   2.643   3.777   4.624  0.1369  0.1551 -0.0521
 8880TIP3    H126604   2.557   3.773   4.666  0.7772 -2.2177  1.2170
 8880TIP3    H226605   2.694   3.836   4.679 -0.0469 -0.1783  0.4778
 8881TIP3   OH226606   2.354   3.776   2.850 -0.5741  0.0817  0.4322
 8881TIP3    H126607   2.406   3.856   2.840 -0.8242  0.0603 -1.1654
 8881TIP3    H226608   2.337   3.771   2.944  0.8784  0.9912  0.7737
 8882TIP3   OH226609   1.756   5.591   0.607 -0.3498  0.3066 -0.3258
 8882TIP3    H126610   1.829   5.614   0.549  0.1854  0.1671  0.2698
 8882TIP3    H226611   1.767   5.497   0.622 -1.4347  0.0164 -1.2780
 8883TIP3   OH226612   1.153   0.296   0.444  0.2322 -0.1687  0.0120
 8883TIP3    H126613   1.118   0.231   0.504 -0.4969 -1.7460 -1.9897
 8883TIP3    H226614   1.237   0.321   0.482 -0.0596 -1.3110  1.5076
 8884TIP3   OH226615   0.340   6.568   5.483 -0.1412 -0.4439  0.1121
 8884TIP3    H126616   0.391   6.610   5.551 -0.4831 -0.6870  0.5216
 8884TIP3    H226617   0.361   6.617   5.403 -0.9910  0.8886  0.6796
 8885TIP3   OH226618   5.156   0.730   1.090  0.2577 -0.4280  0.3007
 8885TIP3    H126619   5.198   0.794   1.031 -0.6815 -0.7843 -0.7945
 8885TIP3    H226620   5.068   0.720   1.055 -0.8745  0.4872  2.7007
 8886TIP3   OH226621   0.686   5.623   0.745  0.5130  0.0548  0.2446
 8886TIP3    H126622   0.661   5.669   0.664 -0.0817  0.3860  0.6080
 8886TIP3    H226623   0.615   5.561   0.760  0.6163  0.0056  0.5264
 8887TIP3   OH226624   1.344   5.712   2.831  0.2181  0.2415 -0.3642
 8887TIP3    H126625   1.382   5.784   2.881  0.9290 -0.7559  0.5942
 8887TIP3    H226626   1.338   5.744   2.742 -1.9686  2.4458  0.4738
 8888TIP3   OH226627   3.620   0.259   4.737 -0.0870  0.1702 -0.4333
 8888TIP3    H126628   3.664   0.328   4.688  0.5372 -0.7823 -1.2505
 8888TIP3    H226629   3.660   0.178   4.707 -1.3457 -0.6263 -0.0770
 8889TIP3   OH226630   1.172   0.536   0.297 -0.6626 -0.8075 -0.6992
 8889TIP3    H126631   1.144   0.455   0.340 -1.0008 -0.3802 -0.0986
 8889TIP3    H226632   1.264   0.546   0.322 -0.8472 -0.5786 -0.0740
 8890TIP3   OH226633   4.145   6.635   0.103  0.1920 -0.5280 -0.6436
 8890TIP3    H126634   4.087   6.684   0.163 -0.4421 -1.6582 -0.2930
 8890TIP3    H226635   4.232   6.642   0.143  0.0080 -0.1586 -0.2953
 8891TIP3   OH226636   6.261   1.169   4.437 -0.0969 -0.5209  0.5638
 8891TIP3    H126637   6.322   1.103   4.404  1.2998  1.2148 -0.4515
 8891TIP3    H226638   6.286   1.181   4.529  0.2309 -0.7524  0.5068
 8892TIP3   OH226639   5.187   3.328   5.565 -0.7869  0.1853 -0.3068
 8892TIP3    H126640   5.258   3.302   5.508 -0.0991 -0.1717  0.6851
 8892TIP3    H226641   5.110   3.281   5.532  0.0094 -1.5604  0.2321
 8893TIP3   OH226642   4.305   4.789   1.872  0.5174 -0.1376 -0.4163
 8893TIP3    H126643   4.340   4.876   1.887  0.4511 -0.3496  1.1247
 8893TIP3    H226644   4.255   4.769   1.952  0.5448 -1.5812 -0.7340
 8894TIP3   OH226645   3.942   1.004   4.973 -0.4284  0.4119  0.3426
 8894TIP3    H126646   3.885   1.040   5.042 -1.2159 -0.7211  0.3023
 8894TIP3    H226647   4.022   1.056   4.980 -0.0965 -0.2657  2.7742
 8895TIP3   OH226648   2.931   3.016   5.585  0.4818  0.0854 -0.1367
 8895TIP3    H126649   2.999   2.969   5.633 -1.7813 -2.0764  1.1978
 8895TIP3    H226650   2.939   2.985   5.495  1.2700 -0.0762 -0.0183
 8896TIP3   OH226651   3.398   5.640   2.266  0.2490 -0.0108 -0.0628
 8896TIP3    H126652   3.358   5.601   2.188 -0.2309 -0.0906  0.2139
 8896TIP3    H226653   3.371   5.732   2.262 -1.1995 -0.3494  0.8611
 8897TIP3   OH226654   2.132   1.843   1.903 -0.3300 -0.1907 -0.3376
 8897TIP3    H126655   2.070   1.804   1.964  1.2596 -2.8479 -0.2755
 8897TIP3    H226656   2.176   1.768   1.862 -0.2522  1.4971 -3.6511
 8898TIP3   OH226657   0.858   1.826   2.197 -0.0413 -0.4994  0.0155
 8898TIP3    H126658   0.892   1.903   2.241  0.1647 -0.8555  0.4910
 8898TIP3    H226659   0.781   1.857   2.149 -1.1098 -0.3678  1.7471
 8899TIP3   OH226660   6.221   4.998   0.860 -0.6636 -0.1522  0.7442
 8899TIP3    H126661   6.295   4.953   0.901  1.0393  2.6770  1.0124
 8899TIP3    H226662   6.260   5.054   0.794 -2.7997  0.1354 -0.3826
 8900TIP3   OH226663   3.196   2.017   4.858  0.2212  0.1479  0.2337
 8900TIP3    H126664   3.216   1.962   4.782 -0.1682  0.6763 -0.2637
 8900TIP3    H226665   3.230   1.968   4.933  0.6302 -0.3741 -0.2814
 8901TIP3   OH226666   1.797   5.428   2.249 -0.4543 -0.0292  0.0150
 8901TIP3    H126667   1.812   5.354   2.189  0.6816 -1.0622  1.5003
 8901TIP3    H226668   1.883   5.447   2.284 -1.3047 -0.5868  2.5918
 8902TIP3   OH226669   4.520   3.835   1.656  0.2014 -0.1835  0.3514
 8902TIP3    H126670   4.589   3.824   1.591  0.6104  1.8447  0.3974
 8902TIP3    H226671   4.501   3.745   1.686  0.8716 -1.0282 -1.6170
 8903TIP3   OH226672   6.199   1.322   2.727  0.7155  1.1239  0.1781
 8903TIP3    H126673   6.186   1.282   2.641 -1.8502  1.1212  0.4863
 8903TIP3    H226674   6.207   1.248   2.787 -1.0844  1.0246  0.3567
 8904TIP3   OH226675   6.016   5.547   2.484 -1.2870 -0.2551  0.2652
 8904TIP3    H126676   6.032   5.556   2.578 -0.5412  0.9627  0.0428
 8904TIP3    H226677   5.968   5.626   2.460  2.0323  1.5701 -1.0628
 8905TIP3   OH226678   3.607   4.918   3.043  0.6303  0.1765  0.3916
 8905TIP3    H126679   3.646   5.003   3.063 -0.1301  0.6654 -0.1028
 8905TIP3    H226680   3.516   4.939   3.021  0.1047 -0.8990  1.4187
 8906TIP3   OH226681   6.499   1.463   2.087 -0.6228 -0.1315 -0.0390
 8906TIP3    H126682   6.517   1.406   2.162  0.4041  2.4204  1.8076
 8906TIP3    H226683   6.583   1.473   2.044 -0.6058  0.5988  0.1511
 8907TIP3   OH226684   1.709   0.793   3.191 -0.5132 -0.5473 -0.7311
 8907TIP3    H126685   1.791   0.800   3.143 -0.3799  1.6237 -0.2756
 8907TIP3    H226686   1.641   0.791   3.123 -0.2858  1.8232 -1.1195
 8908TIP3   OH226687   0.397   4.618   2.116  0.0421 -0.3826 -0.6778
 8908TIP3    H126688   0.453   4.653   2.046  0.3518  0.7942  0.1153
 8908TIP3    H226689   0.406   4.682   2.187 -1.2424 -0.9000 -0.0227
 8909TIP3   OH226690   6.055   4.481   3.086 -0.6599 -0.2013  0.0115
 8909TIP3    H126691   6.132   4.442   3.046 -1.0587 -0.3597 -0.6156
 8909TIP3    H226692   6.047   4.567   3.043 -0.6553 -0.0522  0.3025
 8910TIP3   OH226693   5.886   5.598   0.138 -0.2710 -0.3457 -0.2736
 8910TIP3    H126694   5.959   5.569   0.192  0.0742 -0.0322 -0.5665
 8910TIP3    H226695   5.829   5.521   0.131 -0.5826 -0.2463  0.9460
 8911TIP3   OH226696   4.775   5.472   3.654  0.5541 -0.3907 -0.0758
 8911TIP3    H126697   4.741   5.472   3.744 -0.8491 -0.2256 -0.5711
 8911TIP3    H226698   4.749   5.558   3.619  1.6514 -0.1962 -0.4434
 8912TIP3   OH226699   5.027   3.582   2.812  0.1833 -0.3330 -0.1892
 8912TIP3    H126700   5.010   3.660   2.865 -0.0288 -0.7916  0.4275
 8912TIP3    H226701   4.959   3.520   2.838  1.8954 -1.7059  1.3034
 8913TIP3   OH226702   2.177   6.359   2.229 -0.4278 -0.1648 -0.1760
 8913TIP3    H126703   2.203   6.365   2.321 -2.6948 -1.7206  0.6583
 8913TIP3    H226704   2.161   6.450   2.203  1.4341  0.4165  0.5460
 8914TIP3   OH226705   2.434   5.329   0.619 -0.3833 -0.7693 -0.9918
 8914TIP3    H126706   2.443   5.403   0.559 -3.8054  0.0941 -0.6724
 8914TIP3    H226707   2.458   5.364   0.704 -1.2823 -0.1825 -0.9641
 8915TIP3   OH226708   3.872   4.067   4.069 -0.0054  0.1351 -0.4525
 8915TIP3    H126709   3.799   4.077   4.008 -0.0168 -0.8757 -0.6235
 8915TIP3    H226710   3.944   4.033   4.016  0.5003  0.8092 -0.2190
 8916TIP3   OH226711   0.184   4.173   3.318 -0.4288  0.7804  0.0128
 8916TIP3    H126712   0.163   4.266   3.313  1.2697  1.1865 -0.2416
 8916TIP3    H226713   0.208   4.149   3.228  0.7941  0.5392  0.3826
 8917TIP3   OH226714   3.013   5.756   5.799 -0.3782  0.2838  0.0048
 8917TIP3    H126715   3.041   5.760   5.890  0.1491 -0.0956 -0.1328
 8917TIP3    H226716   3.083   5.802   5.751 -0.1202 -0.4366 -0.3183
 8918TIP3   OH226717   6.466   3.534   3.497 -0.3306 -0.0513 -0.2530
 8918TIP3    H126718   6.423   3.491   3.423  0.5446 -1.0138 -0.2202
 8918TIP3    H226719   6.560   3.526   3.478 -0.1032  2.0989 -0.3929
 8919TIP3   OH226720   3.877   0.393   0.331 -0.3197 -0.1078 -0.7296
 8919TIP3    H126721   3.888   0.398   0.425  1.0990 -1.5570 -0.7848
 8919TIP3    H226722   3.916   0.474   0.298 -0.1186  0.0469 -0.1267
 8920TIP3   OH226723   0.526   1.270   5.235  0.1081  0.2614  0.1711
 8920TIP3    H126724   0.545   1.244   5.145 -2.2951  0.2498 -0.3765
 8920TIP3    H226725   0.479   1.353   5.227 -0.7795 -0.1044  1.3652
 8921TIP3   OH226726   0.255   3.111   3.373  0.5563 -0.0304  0.1868
 8921TIP3    H126727   0.313   3.070   3.309 -1.0476 -2.4981  0.1798
 8921TIP3    H226728   0.293   3.089   3.458  1.4164  1.2705  0.1707
 8922TIP3   OH226729   0.155   4.901   0.903 -0.5869 -0.2516  0.6367
 8922TIP3    H126730   0.234   4.915   0.953  0.1271 -0.5103 -0.3848
 8922TIP3    H226731   0.178   4.925   0.813 -2.0732  1.0187  0.5541
 8923TIP3   OH226732   5.734   1.877   1.956  0.0402 -0.5568 -0.4072
 8923TIP3    H126733   5.753   1.938   1.884  0.5119 -2.1349 -1.6671
 8923TIP3    H226734   5.810   1.883   2.013  0.8637 -1.1482 -1.3992
 8924TIP3   OH226735   2.512   5.933   3.754 -0.3179  0.3311  0.0669
 8924TIP3    H126736   2.465   5.971   3.680  0.1290  0.6325 -0.0633
 8924TIP3    H226737   2.466   5.851   3.772 -1.2987  0.9320  0.3657
 8925TIP3   OH226738   5.510   0.429   5.085  0.3057  0.2186  0.0322
 8925TIP3    H126739   5.529   0.497   5.020 -2.7956  1.3633  0.1738
 8925TIP3    H226740   5.509   0.475   5.168 -0.0226 -0.3820  0.3682
 8926TIP3   OH226741   7.002   0.178   3.028  0.1127 -0.3230 -0.5932
 8926TIP3    H126742   6.935   0.112   3.045 -0.8503  0.6230 -0.5770
 8926TIP3    H226743   7.038   0.199   3.114 -1.6162  1.2288 -0.1929
 8927TIP3   OH226744   4.817   4.354   1.932  0.4263 -0.1534 -0.0231
 8927TIP3    H126745   4.804   4.449   1.932  2.8703  0.2362 -0.3909
 8927TIP3    H226746   4.772   4.324   2.012 -1.8874  1.0009 -0.7939
 8928TIP3   OH226747   3.382   4.581   1.891 -0.0624 -0.3144  0.1778
 8928TIP3    H126748   3.467   4.547   1.920 -0.2626  0.1562  1.4064
 8928TIP3    H226749   3.323   4.564   1.965 -0.9406 -0.2545 -0.4907
 8929TIP3   OH226750   4.383   3.557   2.160 -0.3418  0.1302  0.3434
 8929TIP3    H126751   4.441   3.507   2.218  0.0667  0.7516  0.4856
 8929TIP3    H226752   4.297   3.519   2.173 -0.2166  0.1193  1.2160
 8930TIP3   OH226753   0.761   1.610   1.032 -0.1318  0.1743 -0.0688
 8930TIP3    H126754   0.819   1.592   0.959  0.5473 -1.2398  0.7883
 8930TIP3    H226755   0.690   1.546   1.024  1.2525 -1.7248  1.8698
 8931TIP3   OH226756   5.562   5.592   3.532  0.0893 -0.2665 -0.0675
 8931TIP3    H126757   5.492   5.657   3.545  0.1962 -0.4005  1.2850
 8931TIP3    H226758   5.583   5.562   3.620  0.5108 -1.6614 -0.6310
 8932TIP3   OH226759   4.171   3.444   2.328 -0.0133  0.1971 -0.0050
 8932TIP3    H126760   4.083   3.474   2.349 -0.2125 -0.9740  0.8607
 8932TIP3    H226761   4.223   3.464   2.406  0.7529  1.7488 -0.8400
 8933TIP3   OH226762   1.797   4.088   0.128  1.2269 -0.1024  0.0493
 8933TIP3    H126763   1.711   4.047   0.123  1.0322  0.1792  0.9550
 8933TIP3    H226764   1.842   4.060   0.048 -0.5441  1.7057 -1.6771
 8934TIP3   OH226765   3.162   5.223   1.601  0.1460  0.3969 -0.2325
 8934TIP3    H126766   3.161   5.130   1.577 -0.4503 -0.2902  2.1066
 8934TIP3    H226767   3.069   5.247   1.603  0.1125  0.2863  1.5407
 8935TIP3   OH226768   5.666   2.722   4.698  0.3478 -0.3581 -0.1027
 8935TIP3    H126769   5.749   2.768   4.710  0.6796 -0.4350 -1.8656
 8935TIP3    H226770   5.603   2.791   4.678 -0.3173 -0.1698  2.3740
 8936TIP3   OH226771   4.655   1.611   1.688 -0.4295 -0.3181 -0.3057
 8936TIP3    H126772   4.737   1.643   1.650  0.6457 -0.1129  2.0282
 8936TIP3    H226773   4.648   1.656   1.772 -2.6098 -0.8474 -0.1362
 8937TIP3   OH226774   2.370   2.616   3.495 -0.2767  0.1160 -0.5699
 8937TIP3    H126775   2.295   2.559   3.515 -1.0027  1.3071  0.2151
 8937TIP3    H226776   2.409   2.576   3.417 -1.2501 -0.9876 -0.5319
 8938TIP3   OH226777   4.549   5.312   1.576 -0.6423  0.8447 -0.1290
 8938TIP3    H126778   4.555   5.252   1.502 -0.2700 -0.0096  0.5674
 8938TIP3    H226779   4.499   5.263   1.642  0.0341  1.1315  0.6125
 8939TIP3   OH226780   2.255   2.546   2.758 -0.7036  0.6016 -0.5139
 8939TIP3    H126781   2.319   2.616   2.745 -0.1397  0.0404 -0.7969
 8939TIP3    H226782   2.184   2.567   2.699  0.5812 -0.3988 -2.5232
 8940TIP3   OH226783   4.377   3.930   3.024  0.1395 -0.4227 -0.1485
 8940TIP3    H126784   4.298   3.896   3.066  0.3718  0.4693  1.0607
 8940TIP3    H226785   4.345   3.979   2.949 -0.5052  0.2109  0.5240
 8941TIP3   OH226786   3.365   2.713   0.022 -0.1439 -0.0073 -0.4334
 8941TIP3    H126787   3.404   2.800   0.031  1.3243 -0.5314 -1.3844
 8941TIP3    H226788   3.338   2.690   0.111 -0.5224  1.3981 -0.1640
 8942TIP3   OH226789   3.317   6.077   3.270 -0.0797 -0.2092 -0.7107
 8942TIP3    H126790   3.236   6.089   3.321  0.6642  0.3827  0.3661
 8942TIP3    H226791   3.351   5.993   3.300  0.8395  0.5645  0.4912
 8943TIP3   OH226792   1.539   2.447   3.014 -1.1432 -0.2670  0.0159
 8943TIP3    H126793   1.527   2.541   3.005 -0.7463 -0.2096  0.0691
 8943TIP3    H226794   1.495   2.424   3.096  1.9178  0.4835  2.0256
 8944TIP3   OH226795   3.041   5.139   1.898  0.8361  0.1417 -0.3492
 8944TIP3    H126796   3.059   5.045   1.888 -0.2408 -0.0110 -1.0833
 8944TIP3    H226797   2.998   5.164   1.815 -0.3676  0.9028  0.4662
 8945TIP3   OH226798   3.837   6.786   0.230 -0.5240 -0.1927 -0.1802
 8945TIP3    H126799   3.817   6.706   0.180  0.1724 -0.2762 -0.3454
 8945TIP3    H226800   3.880   6.843   0.166 -0.5956  0.1298  0.0594
 8946TIP3   OH226801   5.274   0.629   2.913  0.1935  0.1452 -0.0189
 8946TIP3    H126802   5.321   0.622   2.996 -1.6828  0.2225  1.1099
 8946TIP3    H226803   5.224   0.710   2.920  0.7941  0.7163 -1.7037
 8947TIP3   OH226804   6.873   1.600   4.365 -0.4722 -0.4420  0.2259
 8947TIP3    H126805   6.782   1.618   4.341 -0.4446 -0.8367 -0.1924
 8947TIP3    H226806   6.919   1.595   4.281 -0.3845 -1.9519  0.3466
 8948TIP3   OH226807   6.636   3.705   4.791  0.1604  0.4123 -0.0740
 8948TIP3    H126808   6.602   3.785   4.830 -0.6745  0.4366 -0.8228
 8948TIP3    H226809   6.563   3.643   4.796 -0.4310  0.8004 -2.6944
 8949TIP3   OH226810   4.782   4.420   4.703  0.1511  0.4060 -0.6079
 8949TIP3    H126811   4.773   4.479   4.628 -0.8351 -0.0027 -0.8313
 8949TIP3    H226812   4.823   4.473   4.771  3.0898  0.2229 -2.0870
 8950TIP3   OH226813   4.605   3.813   5.305 -0.4221 -0.1463 -0.2228
 8950TIP3    H126814   4.660   3.735   5.291  1.6677  0.9423  1.2977
 8950TIP3    H226815   4.606   3.857   5.220  0.7272 -0.3990 -0.3712
 8951TIP3   OH226816   6.907   2.990   3.425  0.5771 -0.0221  0.4256
 8951TIP3    H126817   6.975   3.026   3.482  0.2703 -0.7604  1.2896
 8951TIP3    H226818   6.881   2.908   3.468 -1.6093  0.7635  0.7141
 8952TIP3   OH226819   1.538   1.469   5.429  0.2777 -1.1137  0.2764
 8952TIP3    H126820   1.509   1.470   5.520 -0.9747  0.0872 -0.1048
 8952TIP3    H226821   1.458   1.459   5.378  0.6290  0.7718 -0.7577
 8953TIP3   OH226822   5.723   3.521   0.982  0.2718 -0.5195 -0.0769
 8953TIP3    H126823   5.817   3.502   0.974  0.3480 -0.0715 -0.3134
 8953TIP3    H226824   5.709   3.594   0.921 -0.2374 -0.6060 -0.0648
 8954TIP3   OH226825   5.742   3.688   4.688  0.2998 -0.4804  0.3284
 8954TIP3    H126826   5.750   3.594   4.674 -0.3795 -0.4223 -0.5522
 8954TIP3    H226827   5.654   3.699   4.725  0.3843 -0.1912  0.4442
 8955TIP3   OH226828   4.673   1.410   0.490  0.0939  0.1959 -0.4909
 8955TIP3    H126829   4.723   1.490   0.506  0.2102  0.7566 -3.1235
 8955TIP3    H226830   4.704   1.379   0.405 -1.4228 -1.5134 -0.4901
 8956TIP3   OH226831   4.193   1.291   3.726 -0.0440  0.1009 -0.1561
 8956TIP3    H126832   4.109   1.264   3.690 -0.7727 -1.2383  2.3706
 8956TIP3    H226833   4.174   1.325   3.813  1.9318  0.6139  0.1432
 8957TIP3   OH226834   4.489   1.840   2.451 -0.1892 -0.1570 -0.1118
 8957TIP3    H126835   4.514   1.858   2.360 -0.2569  1.7902  0.1977
 8957TIP3    H226836   4.479   1.745   2.455  1.3516 -0.4514 -1.7373
 8958TIP3   OH226837   1.047   4.225   0.429 -0.2665  0.0473 -0.3785
 8958TIP3    H126838   1.033   4.143   0.381 -1.0691  0.6738 -1.2419
 8958TIP3    H226839   1.013   4.207   0.517  1.4454 -1.1946  0.0972
 8959TIP3   OH226840   2.411   0.576   4.364  0.2836  0.1403  0.2528
 8959TIP3    H126841   2.338   0.575   4.426  0.7754 -0.8434  0.8390
 8959TIP3    H226842   2.380   0.523   4.290 -0.4838  1.7055 -0.5909
 8960TIP3   OH226843   5.734   2.945   4.339 -0.0442  0.1843  0.3046
 8960TIP3    H126844   5.647   2.912   4.362 -0.9517  2.2578  0.0517
 8960TIP3    H226845   5.722   2.985   4.253  1.2673  0.1758  0.1000
 8961TIP3   OH226846   6.240   5.938   4.243 -0.0093 -0.0080  0.6261
 8961TIP3    H126847   6.238   5.998   4.168 -0.4415  3.1031  2.9301
 8961TIP3    H226848   6.331   5.906   4.245  0.3835  0.9467 -0.4187
 8962TIP3   OH226849   7.023   2.629   4.021 -0.1309  0.1778  0.4930
 8962TIP3    H126850   7.089   2.599   4.084  1.6715  0.9814 -0.9340
 8962TIP3    H226851   6.955   2.562   4.024  1.7540 -1.8617  0.4680
 8963TIP3   OH226852   3.619   6.556   4.509 -0.0360 -0.4055  0.2442
 8963TIP3    H126853   3.580   6.493   4.449  0.2887 -1.9611  1.5840
 8963TIP3    H226854   3.646   6.503   4.585  0.1202  1.3705  1.4880
 8964TIP3   OH226855   1.214   4.655   3.420  0.1401 -0.3827 -0.0474
 8964TIP3    H126856   1.132   4.704   3.414  0.2532 -0.1469  0.3576
 8964TIP3    H226857   1.223   4.633   3.512 -0.4548 -2.1148 -0.3516
 8965TIP3   OH226858   2.690   2.985   1.635  0.4808  0.1359  0.0184
 8965TIP3    H126859   2.647   2.911   1.592 -0.8890  1.3119 -0.7186
 8965TIP3    H226860   2.652   2.985   1.723 -1.3944  1.3627 -0.7249
 8966TIP3   OH226861   3.178   5.260   3.323  0.2988 -0.0392  0.4384
 8966TIP3    H126862   3.236   5.203   3.374  0.2091 -0.4707  0.0678
 8966TIP3    H226863   3.185   5.346   3.365 -1.0800 -0.7470  2.2512
 8967TIP3   OH226864   1.463   2.892   0.480 -0.2152 -0.1452  0.1797
 8967TIP3    H126865   1.408   2.927   0.409  1.2237 -0.2900 -1.0687
 8967TIP3    H226866   1.447   2.798   0.478 -0.9354 -0.0380  0.7304
 8968TIP3   OH226867   5.028   4.963   2.082 -0.1108 -0.5040  0.7656
 8968TIP3    H126868   5.106   5.013   2.060 -0.5205 -0.7641 -1.5307
 8968TIP3    H226869   4.969   4.976   2.007 -1.6388 -1.5632  1.7278
 8969TIP3   OH226870   1.649   0.983   2.920 -0.0905 -0.9436 -0.7053
 8969TIP3    H126871   1.618   1.019   3.003 -0.5848  0.4705 -1.4663
 8969TIP3    H226872   1.596   0.904   2.907 -0.4982 -0.7947 -0.0155
 8970TIP3   OH226873   3.129   4.367   1.768  0.2654  0.9998  0.0778
 8970TIP3    H126874   3.137   4.410   1.854 -0.0410  1.4097 -0.0956
 8970TIP3    H226875   3.109   4.438   1.707  2.1472  0.9835 -0.6283
 8971TIP3   OH226876   6.457   4.188   0.915 -0.1484 -0.5341 -0.2189
 8971TIP3    H126877   6.457   4.271   0.962  0.0938 -0.5805 -0.1333
 8971TIP3    H226878   6.550   4.170   0.898 -0.1608 -1.0350  0.2059
 8972TIP3   OH226879   3.249   6.786   3.007 -0.2792 -0.1106  0.5133
 8972TIP3    H126880   3.331   6.741   3.023 -0.8960 -1.0946  0.9842
 8972TIP3    H226881   3.187   6.746   3.067 -0.5719  2.2848  1.9234
 8973TIP3   OH226882   6.972   1.794   0.226  0.6734  0.0614 -0.2654
 8973TIP3    H126883   6.992   1.854   0.298  1.3470  0.6304 -0.9135
 8973TIP3    H226884   6.887   1.756   0.249  0.2846  1.1947  0.1995
 8974TIP3   OH226885   6.809   2.602   0.862 -0.1808  0.3022 -0.2221
 8974TIP3    H126886   6.885   2.640   0.906 -0.0456 -0.0684 -0.1318
 8974TIP3    H226887   6.768   2.676   0.817 -0.0852  0.6121  0.1845
 8975TIP3   OH226888   3.325   1.633   2.266 -0.3172 -0.1444  0.1278
 8975TIP3    H126889   3.321   1.696   2.195  0.4086 -1.4293 -1.0873
 8975TIP3    H226890   3.382   1.563   2.235 -3.1442 -2.7733  0.2776
 8976TIP3   OH226891   1.146   3.361   5.392 -0.4125 -0.5959  0.2144
 8976TIP3    H126892   1.083   3.403   5.333  0.7432  1.5143  0.4066
 8976TIP3    H226893   1.209   3.319   5.334  1.2452  2.2375 -0.2217
 8977TIP3   OH226894   4.771   1.292   3.310 -0.0387  0.0339 -0.0421
 8977TIP3    H126895   4.703   1.338   3.360 -0.9679 -0.4241 -0.8420
 8977TIP3    H226896   4.734   1.284   3.222  0.7411 -0.9246 -0.2965
 8978TIP3   OH226897   5.186   2.598   3.265  0.3566 -0.2182  0.0786
 8978TIP3    H126898   5.156   2.687   3.246  2.3605  0.7249  1.0038
 8978TIP3    H226899   5.109   2.554   3.300 -1.2289  0.4613 -2.3277
 8979TIP3   OH226900   6.172   5.071   3.232  0.1350  0.1650 -0.5620
 8979TIP3    H126901   6.129   5.004   3.179 -1.1271 -0.6691  1.3717
 8979TIP3    H226902   6.103   5.102   3.291  1.6616  0.2822  1.2739
 8980TIP3   OH226903   6.108   4.737   4.389 -0.1149 -0.4381  0.1013
 8980TIP3    H126904   6.138   4.726   4.480  0.6083 -3.0332 -0.3541
 8980TIP3    H226905   6.052   4.661   4.373  0.5587 -0.5673 -1.9103
 8981TIP3   OH226906   1.647   0.938   5.233 -0.4543 -0.4162  0.1017
 8981TIP3    H126907   1.610   0.948   5.321  2.0763 -2.5531  1.5496
 8981TIP3    H226908   1.587   0.878   5.188 -1.5180  0.3255  0.5020
 8982TIP3   OH226909   2.635   3.545   2.878 -0.0361  0.0205 -0.0461
 8982TIP3    H126910   2.705   3.549   2.943  0.3687  0.1021 -0.4776
 8982TIP3    H226911   2.664   3.476   2.818 -0.0641  0.4216 -0.5255
 8983TIP3   OH226912   3.031   2.795   5.043 -0.0030  0.1602 -0.3441
 8983TIP3    H126913   2.997   2.717   5.087 -0.8016  1.0767  0.7207
 8983TIP3    H226914   3.051   2.856   5.114  1.7384  0.5129 -1.0834
 8984TIP3   OH226915   0.355   0.009   4.312 -0.1664  0.5828  0.0926
 8984TIP3    H126916   0.278  -0.039   4.281  0.8861 -0.9451 -0.2748
 8984TIP3    H226917   0.360   0.086   4.256 -0.2847 -0.3638 -1.2684
 8985TIP3   OH226918   6.265   1.682   0.686  0.2274  0.6197 -0.0320
 8985TIP3    H126919   6.329   1.615   0.662  0.9738  0.5550  1.8922
 8985TIP3    H226920   6.211   1.641   0.753 -0.4627  1.3791 -0.1077
 8986TIP3   OH226921   3.758   3.015   4.096  0.4891 -0.0375  0.1089
 8986TIP3    H126922   3.713   2.948   4.148 -1.9964  1.0613 -0.4738
 8986TIP3    H226923   3.772   3.086   4.158  1.4343 -0.3635  0.2785
 8987TIP3   OH226924   2.562   2.516   2.089  0.0597  0.8185  0.1530
 8987TIP3    H126925   2.582   2.450   2.155  1.7803  0.4350 -0.6781
 8987TIP3    H226926   2.640   2.518   2.034 -1.3563  1.0142 -1.9631
 8988TIP3   OH226927   5.222   5.855   2.630  0.2407 -0.0335 -0.0360
 8988TIP3    H126928   5.276   5.865   2.708  0.7982 -0.7575 -0.3175
 8988TIP3    H226929   5.216   5.943   2.593  1.1352  0.0684  0.0523
 8989TIP3   OH226930   1.246   6.243   1.657 -0.2282 -0.0101 -0.2873
 8989TIP3    H126931   1.228   6.196   1.576 -1.5086 -0.4867  0.2603
 8989TIP3    H226932   1.162   6.281   1.682 -0.6070 -2.2714  2.3413
 8990TIP3   OH226933   0.236   3.046   0.974  0.0807 -1.0604 -0.0459
 8990TIP3    H126934   0.156   3.055   1.025  0.8559  0.5246  0.9470
 8990TIP3    H226935   0.307   3.049   1.038  1.0704  0.6941 -1.1423
 8991TIP3   OH226936   6.657   6.143   3.341 -0.3077 -0.5471  0.2845
 8991TIP3    H126937   6.704   6.062   3.320  0.8870 -0.0785  0.9935
 8991TIP3    H226938   6.695   6.209   3.283  0.2066 -0.0840  1.1185
 8992TIP3   OH226939   6.429   2.425   4.951 -0.0186  0.0452 -0.5312
 8992TIP3    H126940   6.423   2.519   4.968 -0.6395 -0.1984  0.8230
 8992TIP3    H226941   6.341   2.401   4.920  0.2700 -0.0206 -1.3167
 8993TIP3   OH226942   4.903   2.756   3.310 -0.2580  0.6579  0.2726
 8993TIP3    H126943   4.847   2.690   3.351  1.1196 -0.2422  0.8010
 8993TIP3    H226944   4.845   2.804   3.251 -0.9941 -2.2388 -1.5680
 8994TIP3   OH226945   7.081   4.011   1.232  0.3054  0.1727  0.2748
 8994TIP3    H126946   6.997   3.969   1.252 -0.0552  1.0449  0.6457
 8994TIP3    H226947   7.058   4.100   1.207  0.9221 -0.2799 -2.1692
 8995TIP3   OH226948   5.822   2.197   1.436  0.3625 -0.1134  0.3322
 8995TIP3    H126949   5.791   2.112   1.470  0.6940 -0.1974  0.4245
 8995TIP3    H226950   5.917   2.193   1.445  0.6435 -0.8184 -2.1795
 8996TIP3   OH226951   0.419   2.428   0.330 -0.3006  0.6769  0.2454
 8996TIP3    H126952   0.354   2.495   0.349 -2.3673 -1.3381  0.7069
 8996TIP3    H226953   0.433   2.384   0.413 -0.7831 -0.9219 -0.4769
 8997TIP3   OH226954   6.545   6.219   1.600  0.3174 -0.2174 -0.1706
 8997TIP3    H126955   6.581   6.282   1.663  0.5711 -1.8255  1.3752
 8997TIP3    H226956   6.488   6.163   1.652  1.5005 -2.3757 -1.0870
 8998TIP3   OH226957   1.959   1.784   4.844 -0.1848 -0.1886  0.3411
 8998TIP3    H126958   1.937   1.709   4.789  1.2405  0.2281 -0.8566
 8998TIP3    H226959   2.055   1.787   4.843 -0.2120  2.0627 -0.2363
 8999TIP3   OH226960   6.536   5.924   4.236  0.0286 -0.3362 -0.0696
 8999TIP3    H126961   6.578   5.956   4.316 -1.4257  0.5016  0.3885
 8999TIP3    H226962   6.517   6.003   4.185  0.8919 -0.8579 -1.2382
 9000TIP3   OH226963   6.412   4.346   3.515 -0.9245  0.8826 -0.3389
 9000TIP3    H126964   6.350   4.293   3.465 -0.9042  1.2897 -0.7956
 9000TIP3    H226965   6.426   4.424   3.462  0.4399  0.5340 -0.5193
 9001TIP3   OH226966   3.922   5.284   3.309  0.1832  0.2760 -1.0076
 9001TIP3    H126967   3.864   5.214   3.337  0.2939  0.7020  0.3420
 9001TIP3    H226968   3.874   5.365   3.328  1.6942  0.6989  1.4834
 9002TIP3   OH226969   5.225   0.693   4.225 -0.6777  0.5622  0.3746
 9002TIP3    H126970   5.138   0.731   4.237 -1.4539 -0.7675 -0.7764
 9002TIP3    H226971   5.208   0.605   4.191  1.1037 -0.1053  1.1217
 9003TIP3   OH226972   5.326   4.227   1.096  0.1826  0.0750 -0.4098
 9003TIP3    H126973   5.381   4.247   1.020  0.0742 -0.9591 -0.7777
 9003TIP3    H226974   5.293   4.312   1.124  0.6170  0.5285 -1.2239
 9004TIP3   OH226975   4.225   2.813   3.521 -0.2659 -0.8714 -0.4286
 9004TIP3    H126976   4.296   2.860   3.565 -0.6670 -0.2820 -0.4174
 9004TIP3    H226977   4.146   2.837   3.569 -0.5654 -1.0243 -0.8393
 9005TIP3   OH226978   6.340   1.046   4.836 -0.1303 -0.1375 -0.0749
 9005TIP3    H126979   6.407   1.092   4.886  0.2929  0.4251 -1.1240
 9005TIP3    H226980   6.376   0.960   4.819  1.0716  0.6740 -1.9988
 9006TIP3   OH226981   2.694   3.323   0.766  0.5244 -0.4295  0.6738
 9006TIP3    H126982   2.728   3.411   0.750 -0.6293 -0.0285  0.3132
 9006TIP3    H226983   2.755   3.284   0.829  1.2064  0.5184  0.6103
 9007TIP3   OH226984   6.092   4.444  -0.023  0.5788 -0.3256 -0.0525
 9007TIP3    H126985   6.185   4.425  -0.007  0.4006 -1.4468 -0.3155
 9007TIP3    H226986   6.049   4.424   0.060  0.1861 -2.5391 -0.7528
 9008TIP3   OH226987   5.712   1.870   5.593  0.2554  0.0849  0.0280
 9008TIP3    H126988   5.728   1.964   5.584 -0.1991  0.0545 -1.2996
 9008TIP3    H226989   5.688   1.858   5.685  1.9399  1.0122  0.6277
 9009TIP3   OH226990   2.350   2.284   0.052 -0.0714 -0.4911  0.3836
 9009TIP3    H126991   2.392   2.366   0.028 -0.1177 -0.3050  0.9286
 9009TIP3    H226992   2.390   2.259   0.136  1.4252 -2.0888 -0.7307
 9010TIP3   OH226993   4.420   6.297   4.798  0.2376 -0.3218  0.1025
 9010TIP3    H126994   4.391   6.224   4.742  0.5052  0.3525 -0.9562
 9010TIP3    H226995   4.429   6.370   4.737 -1.1390  0.9239  1.3222
 9011TIP3   OH226996   3.906   6.293   5.446  0.3532  0.7170  0.6197
 9011TIP3    H126997   3.814   6.280   5.426  0.4219  1.8584 -0.5613
 9011TIP3    H226998   3.927   6.380   5.412  2.0889  0.1211  0.0137
 9012TIP3   OH226999   1.736   6.797   2.265  0.4267  0.5077 -0.3485
 9012TIP3    H127000   1.664   6.756   2.217  0.3971  0.6078 -0.3891
 9012TIP3    H227001   1.814   6.750   2.235  0.4480  0.7942 -0.7439
 9013TIP3   OH227002   6.405   4.836   4.521 -0.0168  0.1944  0.2359
 9013TIP3    H127003   6.387   4.749   4.484  0.3488  0.2942 -0.1840
 9013TIP3    H227004   6.463   4.818   4.596 -1.5403 -0.0950  1.3969
 9014TIP3   OH227005   6.390   2.879   3.324 -0.0396  0.2223 -0.1165
 9014TIP3    H127006   6.451   2.953   3.334 -0.3738  0.5234 -0.2862
 9014TIP3    H227007   6.438   2.815   3.272 -0.2966  0.9722 -1.3292
 9015TIP3   OH227008   4.199   6.105   2.224  0.5200 -0.2513 -0.6131
 9015TIP3    H127009   4.215   6.019   2.184  1.0433 -0.6290  0.3680
 9015TIP3    H227010   4.201   6.167   2.151 -3.2239 -1.3851 -1.9307
 9016TIP3   OH227011   2.358   0.270   0.983  0.2744 -0.0020  0.3151
 9016TIP3    H127012   2.432   0.230   1.028  0.1944  0.2791  0.7008
 9016TIP3    H227013   2.289   0.204   0.986 -0.8776  1.1653  3.5717
 9017TIP3   OH227014   1.043   0.490   2.091  0.1132 -0.1087 -0.6145
 9017TIP3    H127015   0.996   0.559   2.138  0.5521 -0.2408  0.0221
 9017TIP3    H227016   1.006   0.493   2.002  0.3549  1.1650 -0.6937
 9018TIP3   OH227017   4.751   2.453   4.335  0.1876 -0.4725 -0.5080
 9018TIP3    H127018   4.770   2.433   4.427 -2.8644  0.9126  0.5673
 9018TIP3    H227019   4.780   2.375   4.287  2.2599 -1.0606  1.5199
 9019TIP3   OH227020   4.452   5.204   5.206 -0.5889  0.3361  0.8267
 9019TIP3    H127021   4.492   5.189   5.120 -1.1108  0.7862  0.5073
 9019TIP3    H227022   4.447   5.299   5.215 -1.5846  0.2897  0.8666
 9020TIP3   OH227023   0.747   0.933   4.544  0.0977 -0.8313 -0.3634
 9020TIP3    H127024   0.722   0.848   4.509 -0.1478 -0.8582 -0.1251
 9020TIP3    H227025   0.682   0.952   4.611 -0.1107 -0.2521 -0.7241
 9021TIP3   OH227026   4.643   3.761   4.412 -0.2064  0.0643 -0.1315
 9021TIP3    H127027   4.626   3.707   4.335 -2.7060 -0.0864  0.4346
 9021TIP3    H227028   4.610   3.847   4.389 -1.8582 -0.2068  1.0216
 9022TIP3   OH227029   4.624   2.062   0.085 -0.4056 -0.4081 -0.3026
 9022TIP3    H127030   4.561   2.101   0.145  1.0537 -0.0773  1.1078
 9022TIP3    H227031   4.686   2.132   0.067  0.3195 -1.0924 -0.5465
 9023TIP3   OH227032   2.457   1.266   0.278 -0.2418 -0.2320  0.0425
 9023TIP3    H127033   2.525   1.328   0.305  0.6192 -0.4632 -1.4756
 9023TIP3    H227034   2.404   1.314   0.215 -0.1238 -0.7287 -0.4499
 9024TIP3   OH227035   1.049   3.727   0.631 -0.1174 -0.2162 -0.2665
 9024TIP3    H127036   1.135   3.686   0.634  0.0411  0.0446 -1.0010
 9024TIP3    H227037   0.994   3.664   0.585 -0.5523 -0.7658  0.9587
 9025TIP3   OH227038   0.559   1.782   5.404 -0.1578  0.5160 -0.0785
 9025TIP3    H127039   0.581   1.871   5.432  1.6966  0.5548 -1.5090
 9025TIP3    H227040   0.629   1.757   5.345 -1.5894 -1.2333 -1.1435
 9026TIP3   OH227041   5.117   0.329   0.158 -0.4082 -0.2456 -0.3847
 9026TIP3    H127042   5.025   0.347   0.181 -0.9176 -0.8047 -1.8351
 9026TIP3    H227043   5.111   0.275   0.080  1.1812 -0.4543 -0.3838
 9027TIP3   OH227044   3.443   2.737   0.935  0.1881  0.2766  0.3584
 9027TIP3    H127045   3.353   2.710   0.919 -0.0145 -0.0520  1.8986
 9027TIP3    H227046   3.493   2.656   0.938  0.4434  0.4201  0.0804
 9028TIP3   OH227047   5.504   5.977   3.726 -0.1754 -0.5569  0.2880
 9028TIP3    H127048   5.590   5.944   3.698 -0.8348 -1.4588 -0.7668
 9028TIP3    H227049   5.500   5.957   3.819  0.7535 -0.5052  0.3563
 9029TIP3   OH227050   4.380   5.636   0.181 -0.2786  0.1925  0.5303
 9029TIP3    H127051   4.328   5.716   0.189  0.7434  0.9350  0.0235
 9029TIP3    H227052   4.470   5.665   0.194  0.1749 -0.7573 -0.3397
 9030TIP3   OH227053   0.957   5.124   3.479  0.3865  0.0019  0.2729
 9030TIP3    H127054   1.003   5.146   3.561 -0.6666 -1.3106  1.2603
 9030TIP3    H227055   1.006   5.050   3.444 -0.4172 -0.8390  0.8765
 9031TIP3   OH227056   5.502   2.559   0.234  0.3386 -0.7199  0.1596
 9031TIP3    H127057   5.586   2.582   0.272 -0.4455  2.8344  0.1017
 9031TIP3    H227058   5.522   2.494   0.167  2.7606 -1.1789  1.2411
 9032TIP3   OH227059   1.259   0.751   4.031  0.1175  0.2206 -0.1958
 9032TIP3    H127060   1.293   0.801   4.105  2.5330  0.0267 -1.1092
 9032TIP3    H227061   1.252   0.815   3.960 -1.3956  0.2232 -0.0931
 9033TIP3   OH227062   2.698   2.734   5.728 -0.5181  0.1089 -0.1401
 9033TIP3    H127063   2.700   2.638   5.724  1.3193  0.1635 -1.6649
 9033TIP3    H227064   2.735   2.755   5.814 -0.0692 -0.5276 -0.1690
 9034TIP3   OH227065   1.640   1.324   2.664  0.0430  0.1157 -0.0205
 9034TIP3    H127066   1.677   1.369   2.588  0.4286  0.4734  0.3762
 9034TIP3    H227067   1.714   1.277   2.702  0.2617  1.3788  1.1749
 9035TIP3   OH227068   6.182   0.674   2.792 -0.2706 -0.0653 -0.0516
 9035TIP3    H127069   6.135   0.745   2.749 -2.1432 -1.4111 -0.3625
 9035TIP3    H227070   6.199   0.706   2.880 -0.9122  0.8352 -0.2442
 9036TIP3   OH227071   3.997   6.284   2.950  0.0530  0.3907  0.0490
 9036TIP3    H127072   3.940   6.289   2.873  0.3908 -1.0741 -0.3200
 9036TIP3    H227073   3.988   6.194   2.981  0.7368  0.6670  1.1107
 9037TIP3   OH227074   0.220   1.825   1.705  0.3614 -0.7063  0.1118
 9037TIP3    H127075   0.206   1.744   1.754  0.1380 -1.0926 -0.5763
 9037TIP3    H227076   0.269   1.797   1.627 -2.0587 -0.6491 -1.5120
 9038TIP3   OH227077   6.417   4.347   3.103 -0.2597  0.3412  0.0657
 9038TIP3    H127078   6.336   4.341   3.053 -1.7739  2.3384  2.0821
 9038TIP3    H227079   6.420   4.267   3.154 -0.4455 -0.1781 -0.7245
 9039TIP3   OH227080   3.301   3.130   5.231  0.3418 -0.4164  0.4398
 9039TIP3    H127081   3.269   3.080   5.156  0.1624 -0.8704  0.8183
 9039TIP3    H227082   3.358   3.070   5.278  1.5562  0.2913 -0.0682
 9040TIP3   OH227083   7.100   1.368   1.086  0.1597  0.6704 -0.3078
 9040TIP3    H127084   7.161   1.442   1.080 -0.2056  1.0029  0.0226
 9040TIP3    H227085   7.017   1.407   1.113 -0.4180  0.3271 -1.4952
 9041TIP3   OH227086   5.770   5.448   5.259 -0.0169 -0.1563  0.6412
 9041TIP3    H127087   5.858   5.462   5.225 -0.0223 -1.4124  0.0588
 9041TIP3    H227088   5.725   5.532   5.244 -0.1892 -0.7328 -3.0930
 9042TIP3   OH227089   4.831   2.429   5.514 -1.0424 -0.4357  0.3022
 9042TIP3    H127090   4.760   2.430   5.449 -0.9327 -2.6587  0.0909
 9042TIP3    H227091   4.792   2.388   5.591 -0.6512  0.5513  1.0420
 9043TIP3   OH227092  -0.001   3.987   5.034 -0.2798 -0.4865 -0.9337
 9043TIP3    H127093   0.075   4.031   5.072 -0.7349  1.6542 -2.3457
 9043TIP3    H227094  -0.006   4.021   4.944 -1.8461 -1.9657 -1.4626
 9044TIP3   OH227095   0.634   0.253   2.178 -0.0385  0.4001  0.2987
 9044TIP3    H127096   0.688   0.260   2.256 -1.4975  0.2353  1.3508
 9044TIP3    H227097   0.544   0.256   2.210 -0.7466  2.7691 -1.5616
 9045TIP3   OH227098   0.519   5.120   4.689  0.0604 -0.1181  0.0279
 9045TIP3    H127099   0.613   5.139   4.689  0.3490 -1.4142 -0.1125
 9045TIP3    H227100   0.494   5.125   4.781 -0.0493  1.5546 -0.0604
 9046TIP3   OH227101   3.816   3.257   5.611 -0.2463  0.5404  0.2665
 9046TIP3    H127102   3.803   3.314   5.687 -0.5922 -0.1320  0.7240
 9046TIP3    H227103   3.778   3.173   5.638  1.1699 -0.2191  0.0015
 9047TIP3   OH227104   2.565   6.179   3.901  0.1683  0.0000 -0.1126
 9047TIP3    H127105   2.555   6.100   3.847  1.6717 -0.1590 -0.1880
 9047TIP3    H227106   2.614   6.149   3.977  0.7792  0.8775 -0.1565
 9048TIP3   OH227107   5.551   0.560   3.439  0.7717 -0.0400 -0.5491
 9048TIP3    H127108   5.592   0.641   3.469 -0.4379 -0.1644  1.6760
 9048TIP3    H227109   5.588   0.491   3.495 -1.0289 -0.4036  0.2776
 9049TIP3   OH227110   2.286   3.222   5.796 -0.5906 -0.6700  0.0216
 9049TIP3    H127111   2.361   3.212   5.737  0.3383 -1.3551  1.2576
 9049TIP3    H227112   2.300   3.308   5.837  0.6839 -1.6065  1.7144
 9050TIP3   OH227113   0.422   3.692   3.441 -0.2056 -0.3190  1.2226
 9050TIP3    H127114   0.427   3.716   3.534 -0.5316 -1.0095  1.4284
 9050TIP3    H227115   0.442   3.773   3.394 -2.7592  0.8042  1.8547
 9051TIP3   OH227116   0.477   4.146   5.130 -0.0331 -0.0519  0.0133
 9051TIP3    H127117   0.550   4.189   5.174  1.3074 -1.0129 -1.1657
 9051TIP3    H227118   0.399   4.194   5.158  0.8723  0.0923  2.4651
 9052TIP3   OH227119   0.959   1.364   2.884 -0.3520 -0.2023 -0.1884
 9052TIP3    H127120   0.875   1.368   2.930 -0.8634  0.5028 -1.1370
 9052TIP3    H227121   0.987   1.455   2.878  0.3143 -0.4020 -0.1965
 9053TIP3   OH227122   6.090   4.890   5.727 -0.1723 -0.6578 -0.2218
 9053TIP3    H127123   6.059   4.802   5.705  0.1137 -0.4621 -1.5397
 9053TIP3    H227124   6.040   4.948   5.669 -1.0655  0.1547  1.3256
 9054TIP3   OH227125   3.766   0.395   2.744  0.2401  0.1671 -0.1883
 9054TIP3    H127126   3.717   0.316   2.721 -0.4094  0.3963  0.3680
 9054TIP3    H227127   3.813   0.418   2.664 -2.3766  1.2387 -1.5299
 9055TIP3   OH227128   1.897   2.522   1.674  0.4302  0.7865  0.9701
 9055TIP3    H127129   1.810   2.530   1.714 -0.8526  0.8443 -1.6618
 9055TIP3    H227130   1.887   2.457   1.605  2.9814 -0.5396  1.7019
 9056TIP3   OH227131   2.499   6.127   4.391 -0.0020  0.1834  0.5543
 9056TIP3    H127132   2.437   6.198   4.406 -0.9153 -0.7290  1.3461
 9056TIP3    H227133   2.554   6.157   4.319 -1.8720  0.7487 -0.7381
 9057TIP3   OH227134   3.702   5.190   5.011 -0.5344  0.2824  0.0305
 9057TIP3    H127135   3.743   5.258   4.959 -0.7263  0.1896 -0.2469
 9057TIP3    H227136   3.775   5.144   5.053 -0.4004  0.5848  0.1281
 9058TIP3   OH227137   5.696   3.967   0.102  0.4728 -0.2168  0.6347
 9058TIP3    H127138   5.676   4.017   0.022 -2.0150  1.0589  1.9301
 9058TIP3    H227139   5.626   3.902   0.108  1.2367 -1.0059  1.2488
 9059TIP3   OH227140   1.881   5.179   3.620  0.2153  0.2487  0.1367
 9059TIP3    H127141   1.815   5.240   3.652  0.1919  0.0161  0.5411
 9059TIP3    H227142   1.850   5.151   3.534 -1.0561 -1.0967  0.9780
 9060TIP3   OH227143   2.246   1.519   4.830  0.4957 -0.0216 -0.5310
 9060TIP3    H127144   2.189   1.489   4.759  2.2760 -3.0752 -0.8536
 9060TIP3    H227145   2.212   1.476   4.908  1.9104 -1.4263 -0.6309
 9061TIP3   OH227146   2.862   1.908   4.633  0.5944 -0.0988 -0.0997
 9061TIP3    H127147   2.820   1.834   4.678  0.5455  0.1442  0.2573
 9061TIP3    H227148   2.944   1.921   4.680  0.3600  0.4108  0.1726
 9062TIP3   OH227149   3.323   2.617   1.859  0.9223 -0.1989 -0.2829
 9062TIP3    H127150   3.356   2.568   1.934  1.6252  0.4835 -0.1320
 9062TIP3    H227151   3.382   2.693   1.852  0.9208 -0.2880 -1.5550
 9063TIP3   OH227152   3.485   3.452   0.234  0.1404 -0.3411  0.3258
 9063TIP3    H127153   3.435   3.512   0.179 -0.0101  0.3521  1.2090
 9063TIP3    H227154   3.577   3.471   0.212  0.1164  0.6113  0.9892
 9064TIP3   OH227155   4.922   1.069   4.401  0.3694  0.2756 -0.0996
 9064TIP3    H127156   4.896   1.116   4.480  1.2766  1.8723 -0.7182
 9064TIP3    H227157   4.851   1.084   4.340 -0.7197 -1.6246  0.6063
 9065TIP3   OH227158   1.344   2.832   0.921 -0.2209 -0.8059 -0.4928
 9065TIP3    H127159   1.270   2.841   0.860 -0.5065  0.8832  0.0374
 9065TIP3    H227160   1.419   2.868   0.873  0.0349 -1.5259 -0.6390
 9066TIP3   OH227161   5.286   6.794   2.371 -0.3382 -0.8702 -0.3221
 9066TIP3    H127162   5.254   6.726   2.313 -1.1422 -0.1954 -0.6844
 9066TIP3    H227163   5.244   6.875   2.340 -0.1384 -0.3635  0.6774
 9067TIP3   OH227164   3.007   5.193   1.248 -0.0968  0.2096 -0.0609
 9067TIP3    H127165   3.041   5.269   1.296  0.1286  0.0931 -0.0372
 9067TIP3    H227166   2.950   5.232   1.180  0.3284  0.4243 -0.3002
 9068TIP3   OH227167   6.550   5.320   3.217 -0.1680 -0.1379 -0.6202
 9068TIP3    H127168   6.480   5.289   3.159  0.2142 -3.2449  0.4025
 9068TIP3    H227169   6.591   5.392   3.169 -1.5648 -0.8124 -2.9847
 9069TIP3   OH227170   2.457   0.419   1.837 -0.3600 -0.4320 -0.4524
 9069TIP3    H127171   2.404   0.486   1.796  0.0638  1.4471  1.8339
 9069TIP3    H227172   2.547   0.443   1.816 -0.1125  0.7855  1.6843
 9070TIP3   OH227173   0.685   0.867   4.983  0.2923  0.1006 -0.1006
 9070TIP3    H127174   0.633   0.833   5.055  2.3945 -0.3460  1.3068
 9070TIP3    H227175   0.662   0.960   4.979 -0.7134 -0.1171  0.3457
 9071TIP3   OH227176   2.353   4.886   2.074 -0.1299  0.8623  0.0850
 9071TIP3    H127177   2.386   4.971   2.047  0.5836  0.2331 -1.0996
 9071TIP3    H227178   2.301   4.855   1.999  1.4105 -0.6767 -0.4114
 9072TIP3   OH227179   1.277   4.388   4.740 -0.2902 -0.6238  0.2954
 9072TIP3    H127180   1.333   4.341   4.679  0.6481  1.2645 -0.3857
 9072TIP3    H227181   1.191   4.348   4.730  0.0637 -0.9968 -1.5711
 9073TIP3   OH227182   2.420   2.241   3.574 -0.5078 -0.5679 -0.2863
 9073TIP3    H127183   2.403   2.226   3.481  1.3943 -0.7128 -0.6554
 9073TIP3    H227184   2.351   2.300   3.603  0.7047  2.2325 -2.6362
 9074TIP3   OH227185   1.913   1.184   3.507 -0.0386  0.1737 -0.0272
 9074TIP3    H127186   1.875   1.126   3.441 -2.4475  1.6383 -0.0533
 9074TIP3    H227187   1.866   1.162   3.588  0.8320  0.3808  0.5485
 9075TIP3   OH227188   6.511   5.709   5.339  0.2011 -0.3229  0.5711
 9075TIP3    H127189   6.479   5.642   5.400 -2.1639  0.3902  0.2032
 9075TIP3    H227190   6.604   5.718   5.361  0.2233 -2.5224  1.7333
 9076TIP3   OH227191   0.318   6.111   2.549  0.3129  0.6614 -0.2152
 9076TIP3    H127192   0.368   6.175   2.600  0.7303 -0.2871  0.5814
 9076TIP3    H227193   0.311   6.151   2.462 -0.0642  2.1142  0.4595
 9077TIP3   OH227194   0.418   4.132   2.388 -0.6240 -0.2137  0.0628
 9077TIP3    H127195   0.432   4.167   2.300 -0.9218 -1.0005 -0.3139
 9077TIP3    H227196   0.497   4.157   2.437  0.4640 -1.4275 -0.9847
 9078TIP3   OH227197   1.697   1.774   0.654  0.7746 -0.4897 -0.2704
 9078TIP3    H127198   1.776   1.800   0.701  0.5014 -0.2762  0.0750
 9078TIP3    H227199   1.692   1.680   0.665 -0.7319 -0.1848  2.4598
 9079TIP3   OH227200   7.176   3.686   4.993  0.5752 -0.0193  0.3886
 9079TIP3    H127201   7.232   3.634   5.049 -0.2519  0.3947  1.6478
 9079TIP3    H227202   7.198   3.777   5.014  1.5290  0.1824 -1.2892
 9080TIP3   OH227203   4.954   5.221   2.766  0.2746  0.0668 -0.2342
 9080TIP3    H127204   4.890   5.207   2.836  0.3338 -0.7765 -0.3374
 9080TIP3    H227205   4.908   5.195   2.686  1.3285 -2.4779 -0.1108
 9081TIP3   OH227206   4.149   3.547   5.258  0.5513  0.1472  0.2925
 9081TIP3    H127207   4.230   3.572   5.212  0.6507  1.7884  1.2691
 9081TIP3    H227208   4.178   3.532   5.348  0.3067 -2.7006 -0.0174
 9082TIP3   OH227209   2.232   2.832   1.146  0.4753  0.2647 -0.0252
 9082TIP3    H127210   2.290   2.889   1.196 -0.0124 -0.1097  1.0184
 9082TIP3    H227211   2.290   2.769   1.103  0.8213 -1.0002  2.1361
 9083TIP3   OH227212   2.935   3.106   1.610  0.5955  0.3911 -0.1695
 9083TIP3    H127213   2.956   3.110   1.703 -1.1562  1.9147  0.2214
 9083TIP3    H227214   2.846   3.071   1.607  0.5538  0.5552 -1.2664
 9084TIP3   OH227215   2.855   3.634   1.914  0.4407 -0.0097 -0.4127
 9084TIP3    H127216   2.776   3.646   1.967 -0.3874  0.2705 -1.6724
 9084TIP3    H227217   2.838   3.556   1.862  1.9465 -1.2834  0.9172
 9085TIP3   OH227218   3.445   1.288   2.933  0.4692 -0.0150  0.4013
 9085TIP3    H127219   3.417   1.312   3.021  1.6737  0.3901  0.6890
 9085TIP3    H227220   3.519   1.229   2.947 -1.0893 -2.2613 -0.3168
 9086TIP3   OH227221   5.361   5.760   3.604  0.1711 -0.2377 -0.7397
 9086TIP3    H127222   5.386   5.848   3.628 -0.8320 -0.4071  1.1441
 9086TIP3    H227223   5.302   5.771   3.529  0.6957  0.6143 -1.0303
 9087TIP3   OH227224   4.754   5.297   3.424 -0.6113  0.0193 -0.1954
 9087TIP3    H127225   4.834   5.257   3.390 -0.5794  0.6145 -0.8422
 9087TIP3    H227226   4.779   5.337   3.507 -0.7886 -1.8489  0.8267
 9088TIP3   OH227227   1.305   0.676   4.849 -0.2923  0.2665 -0.6385
 9088TIP3    H127228   1.230   0.726   4.817 -0.4273  0.4349 -0.0680
 9088TIP3    H227229   1.286   0.659   4.941  1.4259  2.3984  0.2171
 9089TIP3   OH227230   4.667   3.960   3.217 -0.1940 -0.4989  0.5167
 9089TIP3    H127231   4.716   3.940   3.297  0.0080  0.4063  0.6393
 9089TIP3    H227232   4.578   3.978   3.247 -0.0807  0.0020  0.5715
 9090TIP3   OH227233   6.138   3.147   4.072 -0.6301  0.4274  0.6401
 9090TIP3    H127234   6.136   3.053   4.093  1.2774  0.3710  0.6882
 9090TIP3    H227235   6.179   3.151   3.986  0.6771  1.2997  1.2842
 9091TIP3   OH227236   4.559   6.441   1.026  0.1616  0.3899 -0.5868
 9091TIP3    H127237   4.474   6.429   1.069  1.0012 -1.2777  0.7040
 9091TIP3    H227238   4.542   6.424   0.933 -1.0938  1.1424 -0.5239
 9092TIP3   OH227239   4.219   2.882   4.566 -0.1481  0.2243 -0.2437
 9092TIP3    H127240   4.171   2.820   4.512 -2.0239  2.3838 -1.2294
 9092TIP3    H227241   4.173   2.884   4.650  1.2303 -1.2391  0.6069
 9093TIP3   OH227242   4.850   4.846   5.204  0.1563 -0.4010 -0.0806
 9093TIP3    H127243   4.789   4.772   5.213 -0.8406  0.5181  1.2149
 9093TIP3    H227244   4.809   4.917   5.254  1.7431  0.6224 -0.1521
 9094TIP3   OH227245   5.083   3.413   2.523 -0.8690 -0.5496  0.5097
 9094TIP3    H127246   5.094   3.358   2.601 -1.2956  0.2425  1.1495
 9094TIP3    H227247   4.995   3.393   2.492 -0.4823 -1.2945 -0.1182
 9095TIP3   OH227248   2.471   6.126   1.375  0.1085  0.2232 -0.2038
 9095TIP3    H127249   2.463   6.044   1.423 -1.5072 -0.8383 -2.1060
 9095TIP3    H227250   2.557   6.122   1.333  0.4002 -0.0669  0.4136
 9096TIP3   OH227251   3.115   3.364   2.098 -0.7224 -0.1309 -0.1126
 9096TIP3    H127252   3.036   3.406   2.132 -1.7836 -1.6497 -0.6021
 9096TIP3    H227253   3.158   3.328   2.174 -0.7960  0.2242  0.0992
 9097TIP3   OH227254   0.572   1.395   5.530  0.3976  0.1929 -0.1496
 9097TIP3    H127255   0.665   1.375   5.520 -0.0063 -2.4926  0.6878
 9097TIP3    H227256   0.530   1.355   5.454 -0.1570  0.9441 -0.2547
 9098TIP3   OH227257   4.647   3.474   2.288 -0.2086  0.0960  0.0268
 9098TIP3    H127258   4.613   3.387   2.309  0.6136 -0.5153 -1.0770
 9098TIP3    H227259   4.643   3.522   2.371 -1.9198 -0.5427  0.3623
 9099TIP3   OH227260   4.461   5.817   3.364 -0.4712 -0.4080  0.2748
 9099TIP3    H127261   4.556   5.819   3.369 -0.5040  0.4319  0.9115
 9099TIP3    H227262   4.441   5.761   3.289  0.5373 -0.0993 -0.2398
 9100TIP3   OH227263   1.546   4.264   0.292 -0.5629  0.1882  0.1810
 9100TIP3    H127264   1.576   4.350   0.260 -0.4473  0.3007  0.5807
 9100TIP3    H227265   1.529   4.213   0.213  0.2885  0.2627 -0.0558
 9101TIP3   OH227266   5.786   6.052   5.659 -0.5103  0.3010  0.4855
 9101TIP3    H127267   5.853   5.993   5.694  1.1897  1.9570  0.1866
 9101TIP3    H227268   5.741   6.086   5.736 -0.4891 -0.2017  0.7262
 9102TIP3   OH227269   1.615   6.504   1.390  0.1247  1.0150  0.2209
 9102TIP3    H127270   1.576   6.421   1.416  0.3248  0.2332 -1.7819
 9102TIP3    H227271   1.603   6.561   1.466 -3.4020  0.3334  0.3708
 9103TIP3   OH227272   1.544   2.526   2.745 -0.7060  0.2521 -0.0312
 9103TIP3    H127273   1.484   2.598   2.764 -1.1520 -0.1286  0.0164
 9103TIP3    H227274   1.540   2.470   2.823 -0.2002  0.2831  0.0211
 9104TIP3   OH227275   5.402   3.264   1.850  0.0721  0.2896  0.1489
 9104TIP3    H127276   5.335   3.241   1.786  0.2299  0.6969 -0.1658
 9104TIP3    H227277   5.384   3.208   1.925 -1.1817  1.0266  0.4169
 9105TIP3   OH227278   2.544   3.133   4.793  0.6650  0.1748 -0.4412
 9105TIP3    H127279   2.586   3.140   4.707  1.9539 -0.8179  0.0668
 9105TIP3    H227280   2.611   3.164   4.854  1.3394 -2.8723  0.5460
 9106TIP3   OH227281   4.155   0.466   3.516  0.1809  0.2313  0.1321
 9106TIP3    H127282   4.162   0.561   3.519  0.9433  0.2053 -0.3187
 9106TIP3    H227283   4.165   0.438   3.607  3.0089  0.4341 -0.0295
 9107TIP3   OH227284   2.302   0.210   3.493 -0.2313 -0.1666 -0.0465
 9107TIP3    H127285   2.379   0.240   3.541  0.9592  0.7685 -2.3789
 9107TIP3    H227286   2.287   0.120   3.524  0.6368  0.2854  1.7839
 9108TIP3   OH227287   0.404   4.874   3.517 -0.7192 -0.1590  0.1005
 9108TIP3    H127288   0.343   4.816   3.564 -0.1661 -0.3584  0.5908
 9108TIP3    H227289   0.430   4.939   3.583 -0.3297 -0.1357 -0.0738
 9109TIP3   OH227290   3.224   2.818   5.799  0.2547  0.4505 -0.2436
 9109TIP3    H127291   3.208   2.886   5.864 -1.4060 -1.6860  1.7284
 9109TIP3    H227292   3.137   2.787   5.775  0.9308 -2.3912  0.5517
 9110TIP3   OH227293   0.847   5.103   4.465 -0.3085  0.0596  0.7731
 9110TIP3    H127294   0.890   5.019   4.448  0.8895  0.3461  2.2149
 9110TIP3    H227295   0.916   5.168   4.456 -1.1451  0.8923  0.0557
 9111TIP3   OH227296   0.739   6.062   2.294  0.0758  0.1605 -0.1396
 9111TIP3    H127297   0.707   6.054   2.204  0.1362 -0.8741 -0.0801
 9111TIP3    H227298   0.787   5.981   2.310 -0.8194 -0.1506  1.1681
 9112TIP3   OH227299   6.177   2.431   1.762 -0.0527 -0.0922 -0.2192
 9112TIP3    H127300   6.207   2.353   1.810 -0.0072  0.2954  0.3937
 9112TIP3    H227301   6.257   2.480   1.745 -0.0648 -0.2505 -0.7377
 9113TIP3   OH227302   4.663   2.725   4.364 -0.2705 -0.6403  0.0654
 9113TIP3    H127303   4.665   2.636   4.330  0.9426 -0.7321  0.3447
 9113TIP3    H227304   4.570   2.743   4.376 -0.6741 -1.0158 -2.1602
 9114TIP3   OH227305   0.104   3.665   3.233  0.4791  0.4551 -0.6356
 9114TIP3    H127306   0.199   3.668   3.220  0.5394  1.3640 -0.0440
 9114TIP3    H227307   0.089   3.720   3.309 -0.3172 -1.2161  0.4761
 9115TIP3   OH227308   7.048   2.818   2.773 -0.6309 -0.3669 -0.1772
 9115TIP3    H127309   7.102   2.767   2.712 -0.7253 -3.7209  2.2902
 9115TIP3    H227310   7.107   2.843   2.843 -1.0840  1.1950 -0.3020
 9116TIP3   OH227311   4.453   5.813   5.084 -0.0562 -0.1427 -0.0065
 9116TIP3    H127312   4.379   5.839   5.139  0.2623 -1.1904  0.9383
 9116TIP3    H227313   4.529   5.851   5.127 -0.0330  1.3362 -1.2308
 9117TIP3   OH227314   3.728   6.603   3.445 -0.6566  0.2425  0.2769
 9117TIP3    H127315   3.700   6.695   3.452 -0.5975  0.1770  1.8390
 9117TIP3    H227316   3.650   6.552   3.467 -0.0440  0.0092  2.1137
 9118TIP3   OH227317   5.725   5.782   0.279  0.0845 -0.0506  0.7072
 9118TIP3    H127318   5.763   5.725   0.213 -0.4380  0.0044  0.3542
 9118TIP3    H227319   5.701   5.862   0.232 -0.8763 -0.2544  0.8284
 9119TIP3   OH227320   5.696   3.351   1.187  0.8722 -0.2383 -0.7847
 9119TIP3    H127321   5.704   3.417   1.118 -0.8058 -0.7759 -1.5254
 9119TIP3    H227322   5.611   3.311   1.174  1.5966 -2.1894  0.0020
 9120TIP3   OH227323   0.162   0.980   0.050  0.0337  0.1115  0.5537
 9120TIP3    H127324   0.105   0.904   0.062  1.4805 -1.1794 -0.3608
 9120TIP3    H227325   0.116   1.052   0.095 -2.7966 -0.5609 -1.0532
 9121TIP3   OH227326   5.868   3.080   4.964  0.0972  0.2753  0.2354
 9121TIP3    H127327   5.780   3.056   4.992  0.7391 -0.8781  1.3817
 9121TIP3    H227328   5.926   3.039   5.028  1.5084  0.4331 -0.8813
 9122TIP3   OH227329   0.969   3.486   4.839  0.6899 -0.0935  0.3609
 9122TIP3    H127330   1.002   3.414   4.786  0.7262  0.2676 -0.1206
 9122TIP3    H227331   0.971   3.453   4.929  3.2008  0.1813  0.4836
 9123TIP3   OH227332   6.068   5.652   0.873 -0.1621  0.3723  0.8305
 9123TIP3    H127333   6.069   5.561   0.842 -0.2593  0.5348  0.3348
 9123TIP3    H227334   6.030   5.648   0.960 -2.0058  0.1590  0.0515
 9124TIP3   OH227335   0.320   3.052   3.656 -0.6357 -0.0223 -0.5052
 9124TIP3    H127336   0.249   3.071   3.717 -1.1303  0.5224 -1.2395
 9124TIP3    H227337   0.398   3.086   3.699 -0.8973 -0.1368  0.0675
 9125TIP3   OH227338   4.516   6.377   2.828  0.6468 -0.0878  0.0595
 9125TIP3    H127339   4.603   6.337   2.823  0.3197 -0.7535 -0.5118
 9125TIP3    H227340   4.456   6.303   2.822 -0.0363  0.5904 -3.1529
 9126TIP3   OH227341   5.124   5.910   1.736 -0.0072  0.2383  0.2901
 9126TIP3    H127342   5.188   5.890   1.804 -0.7870 -0.2435  0.9009
 9126TIP3    H227343   5.060   5.966   1.779  0.7961  2.0037 -0.7291
 9127TIP3   OH227344   6.988   4.179   2.275  0.2076 -0.2014 -0.4682
 9127TIP3    H127345   6.904   4.179   2.229  0.3897  0.1735 -0.8128
 9127TIP3    H227346   7.035   4.253   2.237 -0.6135  1.7955  2.1064
 9128TIP3   OH227347   5.231   0.643   2.324 -0.5068  0.1089  0.1122
 9128TIP3    H127348   5.176   0.721   2.323  2.5231  2.4138 -0.6884
 9128TIP3    H227349   5.255   0.632   2.416 -0.1638  0.7340  0.1016
 9129TIP3   OH227350   5.091   2.699   2.258  0.3517  0.0040 -0.6137
 9129TIP3    H127351   5.041   2.780   2.252  2.4670  1.3748 -0.8033
 9129TIP3    H227352   5.088   2.662   2.170 -0.0088  0.2404 -0.7033
 9130TIP3   OH227353   7.162   4.418   2.272  0.4393 -0.2531 -0.3377
 9130TIP3    H127354   7.181   4.390   2.362  2.6466 -0.6437 -0.8684
 9130TIP3    H227355   7.248   4.429   2.232 -0.4534  1.7899 -1.8569
 9131TIP3   OH227356   3.635   1.081   2.973  0.7273 -0.4808  0.2351
 9131TIP3    H127357   3.675   1.028   2.904  0.5779  0.4878 -0.6341
 9131TIP3    H227358   3.703   1.144   2.998 -0.0122  0.8273 -0.8722
 9132TIP3   OH227359   2.093   0.592   4.840 -0.0952 -0.1659  0.3989
 9132TIP3    H127360   2.188   0.600   4.834 -0.0145  1.2415  2.4958
 9132TIP3    H227361   2.073   0.508   4.798  2.0139 -0.3759 -0.2977
 9133TIP3   OH227362   2.842   4.919   4.221  0.0712  0.3805  0.1582
 9133TIP3    H127363   2.899   4.842   4.218 -1.2385 -0.6671  0.9052
 9133TIP3    H227364   2.843   4.946   4.313 -0.6578  0.3224  0.1896
 9134TIP3   OH227365   3.750   4.883   4.053 -0.0636  0.0462 -0.0621
 9134TIP3    H127366   3.763   4.877   3.959  0.9631 -1.8619  0.1630
 9134TIP3    H227367   3.832   4.922   4.086 -0.6803  1.3393  0.0067
 9135TIP3   OH227368   7.010   4.341   0.484  0.6196 -0.7337  0.1815
 9135TIP3    H127369   7.077   4.343   0.553  0.7361  1.4599  0.0452
 9135TIP3    H227370   7.046   4.393   0.413 -1.4517  1.0635  0.3453
 9136TIP3   OH227371   5.970   0.499   4.980  0.2366 -0.6137 -0.1951
 9136TIP3    H127372   5.906   0.480   4.911  0.0847 -0.8456  0.0087
 9136TIP3    H227373   5.983   0.594   4.975 -0.8862 -0.4150  0.4294
 9137TIP3   OH227374   2.888   2.039   1.792  0.9124  0.2179  0.1056
 9137TIP3    H127375   2.815   1.981   1.815 -0.1704  1.5106  0.0644
 9137TIP3    H227376   2.868   2.068   1.703  1.7513  0.2040 -0.0964
 9138TIP3   OH227377   1.453   0.911   2.458  0.2184  0.1116  0.1308
 9138TIP3    H127378   1.379   0.892   2.400 -0.2372 -1.4398  1.1627
 9138TIP3    H227379   1.414   0.921   2.545  1.2359 -1.4746  0.8329
 9139TIP3   OH227380   1.244   4.124   0.867  0.5833 -0.7395 -0.7792
 9139TIP3    H127381   1.213   4.165   0.948  2.0097 -0.0282 -0.5637
 9139TIP3    H227382   1.222   4.187   0.798 -2.2480 -2.1143 -1.2647
 9140TIP3   OH227383   4.283   6.126   1.896  0.1904  0.4337 -0.3571
 9140TIP3    H127384   4.218   6.068   1.937  0.0108  1.0466  0.2370
 9140TIP3    H227385   4.360   6.070   1.886  0.7978  0.6471  2.3076
 9141TIP3   OH227386   0.706   0.715   4.366  0.3230 -0.7299  0.3615
 9141TIP3    H127387   0.675   0.715   4.275 -0.9413 -1.2475  0.7643
 9141TIP3    H227388   0.630   0.742   4.417  0.8236 -1.1069  1.3315
 9142TIP3   OH227389   3.917   2.748   3.375 -0.0606  0.5155 -0.0855
 9142TIP3    H127390   3.942   2.766   3.465  1.2607 -1.1572 -0.0637
 9142TIP3    H227391   3.847   2.682   3.382 -0.4076  0.8620 -0.2710
 9143TIP3   OH227392   5.979   1.190   2.248 -0.4774 -0.7923  0.2076
 9143TIP3    H127393   5.949   1.107   2.287  0.6156 -0.5931  1.5593
 9143TIP3    H227394   6.033   1.163   2.174  1.2316 -1.4055  1.6060
 9144TIP3   OH227395   2.389   5.037   5.118  0.1062 -0.6489  0.0033
 9144TIP3    H127396   2.391   5.093   5.040  0.2129 -1.9786 -0.9897
 9144TIP3    H227397   2.398   4.948   5.083  1.3820 -1.2053  1.6341
 9145TIP3   OH227398   3.385   0.786   0.557 -0.0586 -0.0358  0.5035
 9145TIP3    H127399   3.435   0.708   0.579  1.2385  0.3645 -0.8563
 9145TIP3    H227400   3.339   0.809   0.638  0.0213 -1.8294  1.0930
 9146TIP3   OH227401   3.316   5.587   5.742  0.4859  0.2479 -0.2014
 9146TIP3    H127402   3.336   5.502   5.702 -1.0829 -0.0328 -0.4657
 9146TIP3    H227403   3.271   5.635   5.674 -0.7818  0.3778  0.6944
 9147TIP3   OH227404   7.118   1.628   3.832  0.0388 -0.3574  0.0106
 9147TIP3    H127405   7.202   1.583   3.834  1.4269  2.0393 -1.0674
 9147TIP3    H227406   7.098   1.645   3.924  1.5933  0.5217  0.2142
 9148TIP3   OH227407   3.345   4.488   3.355 -0.4347  0.5760  0.1827
 9148TIP3    H127408   3.379   4.577   3.370  0.4406  0.0720  1.3651
 9148TIP3    H227409   3.396   4.456   3.281  1.8628 -0.1936  1.9752
 9149TIP3   OH227410   5.848   0.869   5.443 -0.1359  0.1596  0.0360
 9149TIP3    H127411   5.913   0.935   5.467  0.8900 -0.2998 -1.3420
 9149TIP3    H227412   5.764   0.912   5.458  0.4987  1.4722  0.0021
 9150TIP3   OH227413   6.104   0.850   1.623  0.0378 -0.1039  0.4711
 9150TIP3    H127414   6.052   0.769   1.628 -0.0442 -0.1376 -0.6594
 9150TIP3    H227415   6.040   0.920   1.631 -0.0467 -0.1519  0.2299
 9151TIP3   OH227416   3.436   5.277   4.042 -0.4293 -0.1779 -0.1758
 9151TIP3    H127417   3.423   5.183   4.051  0.1384 -0.4401 -1.8590
 9151TIP3    H227418   3.463   5.306   4.129  0.6810 -1.7917  0.0485
 9152TIP3   OH227419   6.424   1.395   2.486 -0.6343  0.1169  0.0218
 9152TIP3    H127420   6.436   1.329   2.554  0.9785  1.0320  0.6765
 9152TIP3    H227421   6.494   1.378   2.423  0.7077  2.0072  0.9168
 9153TIP3   OH227422   1.324   4.184   4.242 -0.3596 -0.2376 -0.0586
 9153TIP3    H127423   1.361   4.224   4.163 -1.0749 -1.7606 -1.2046
 9153TIP3    H227424   1.392   4.124   4.273 -0.5895 -0.6045 -0.2652
 9154TIP3   OH227425   1.608   4.872   2.209 -0.1694  0.4959 -0.3403
 9154TIP3    H127426   1.598   4.841   2.298 -2.2560 -0.6786 -0.9170
 9154TIP3    H227427   1.658   4.803   2.165 -1.4538 -0.2446 -0.6865
 9155TIP3   OH227428   2.993   1.025   1.396 -0.2293  0.2143  0.1926
 9155TIP3    H127429   2.976   0.933   1.416 -0.9509  0.0805 -0.9589
 9155TIP3    H227430   2.912   1.056   1.357  0.5195  0.9309 -0.8181
 9156TIP3   OH227431   7.199   4.015   0.959 -0.5560  0.5872  0.6245
 9156TIP3    H127432   7.153   3.993   1.040 -0.3027  1.1988  0.9451
 9156TIP3    H227433   7.209   3.932   0.913 -0.7336  0.2421  1.2033
 9157TIP3   OH227434   4.323   0.536   5.570 -0.2698 -0.6042  0.3629
 9157TIP3    H127435   4.406   0.513   5.528 -0.8065 -0.5325 -0.7526
 9157TIP3    H227436   4.337   0.515   5.663  1.0177 -0.5172  0.2056
 9158TIP3   OH227437   0.712   5.962   3.039 -0.2372 -0.8393  0.1385
 9158TIP3    H127438   0.772   5.947   3.112 -0.7206 -0.4341  0.6387
 9158TIP3    H227439   0.759   5.933   2.961  0.3127 -1.2233  0.6099
 9159TIP3   OH227440   1.662   1.169   3.998  0.0383 -0.2095  0.1864
 9159TIP3    H127441   1.737   1.201   4.048  1.5371  0.1166 -2.0761
 9159TIP3    H227442   1.688   1.082   3.968 -0.9763 -0.5671  0.2936
 9160TIP3   OH227443   6.971   5.258   2.001 -0.1893  0.6145  0.1934
 9160TIP3    H127444   7.052   5.273   1.951 -0.3265  1.6485  0.2578
 9160TIP3    H227445   7.001   5.217   2.083  0.3599  1.6015  0.5056
 9161TIP3   OH227446   1.966   0.402   4.326  0.1072 -0.4403  0.0070
 9161TIP3    H127447   1.902   0.463   4.361  0.6494 -0.8952  1.9034
 9161TIP3    H227448   2.043   0.412   4.383  0.6313 -2.0247 -0.3628
 9162TIP3   OH227449   3.786   2.398   3.873  0.2581  0.2740  0.0335
 9162TIP3    H127450   3.751   2.340   3.940 -0.8580  1.8372  0.8764
 9162TIP3    H227451   3.708   2.430   3.827  0.7893  1.4938 -0.0585
 9163TIP3   OH227452   1.245   1.450   0.297 -0.3993 -0.1342  0.2428
 9163TIP3    H127453   1.190   1.380   0.334 -2.4959  0.6186 -1.2413
 9163TIP3    H227454   1.253   1.428   0.205  1.9077 -0.2121  0.4123
 9164TIP3   OH227455   0.774   6.776   5.139  0.1392 -0.0481  0.3026
 9164TIP3    H127456   0.849   6.717   5.131  2.6806  3.0803 -2.8761
 9164TIP3    H227457   0.795   6.832   5.213  0.0690 -0.2473  0.4730
 9165TIP3   OH227458   3.312   3.751   4.427  0.2471 -0.3614  0.8171
 9165TIP3    H127459   3.246   3.735   4.360  1.0381 -0.4025  0.0144
 9165TIP3    H227460   3.344   3.664   4.450  0.5361 -0.3006  0.6525
 9166TIP3   OH227461   2.836   1.771   1.239 -0.2277 -0.1088  0.3300
 9166TIP3    H127462   2.778   1.844   1.217  0.5796  1.0018  1.7324
 9166TIP3    H227463   2.846   1.723   1.156  0.1507  2.0182 -0.9316
 9167TIP3   OH227464   2.496   4.166   1.786  0.1210 -0.5018  0.1251
 9167TIP3    H127465   2.542   4.246   1.811 -0.8912 -0.4399  2.0376
 9167TIP3    H227466   2.564   4.100   1.779  0.8089  0.2055 -0.0307
 9168TIP3   OH227467   0.212   0.429   0.270  0.0549  0.0619  0.2451
 9168TIP3    H127468   0.162   0.489   0.326 -0.3819  0.0697 -0.1489
 9168TIP3    H227469   0.286   0.402   0.325  0.9402  1.8958  0.0290
 9169TIP3   OH227470   0.710   0.918   5.847  0.4790  0.4742  0.4988
 9169TIP3    H127471   0.713   0.878   5.934  2.9898 -0.9346 -0.1026
 9169TIP3    H227472   0.722   0.844   5.787 -0.3944  1.5100 -1.0071
 9170TIP3   OH227473   2.019   4.541   4.204  0.3589 -0.2619 -0.3265
 9170TIP3    H127474   1.969   4.599   4.262  1.5463 -0.9437  1.4788
 9170TIP3    H227475   2.104   4.533   4.246  0.8850 -1.7433 -1.5797
 9171TIP3   OH227476   5.923   1.272   3.510 -0.4856  0.0382  0.2260
 9171TIP3    H127477   5.883   1.350   3.472  1.5015  1.1837  0.3125
 9171TIP3    H227478   5.937   1.295   3.602 -0.4673 -0.6834  0.4110
 9172TIP3   OH227479   4.326   0.876   4.197  0.3281  0.7944 -0.2955
 9172TIP3    H127480   4.323   0.782   4.217  0.9539  0.8310  0.0134
 9172TIP3    H227481   4.284   0.884   4.111 -1.3919  0.4798  0.4738
 9173TIP3   OH227482   0.882   3.182   1.650 -0.3006  0.0920 -0.2372
 9173TIP3    H127483   0.929   3.178   1.566  0.6324  0.5159  0.2548
 9173TIP3    H227484   0.950   3.172   1.716 -0.7420  1.8795  0.5334
 9174TIP3   OH227485   4.836   3.664   4.095 -0.2891 -0.2709  0.1588
 9174TIP3    H127486   4.846   3.721   4.019  1.2818  0.4742  0.8931
 9174TIP3    H227487   4.880   3.583   4.071  0.7994  0.2064  0.5017
 9175TIP3   OH227488   7.086   3.446   4.942  0.3841  0.2601 -0.1422
 9175TIP3    H127489   7.119   3.536   4.945  0.0935  0.3730 -0.2318
 9175TIP3    H227490   6.990   3.456   4.937  0.2967 -0.0724  0.8013
 9176TIP3   OH227491   7.086   2.970   4.989  0.3016 -0.5590  0.8439
 9176TIP3    H127492   7.025   3.029   5.032  3.3325  2.3168  1.6001
 9176TIP3    H227493   7.122   2.917   5.060 -0.3883 -1.4093  0.5771
 9177TIP3   OH227494   3.350   1.493   3.828  0.3146 -0.3049 -0.1324
 9177TIP3    H127495   3.418   1.552   3.795 -0.4048 -0.7730 -2.6110
 9177TIP3    H227496   3.384   1.405   3.811  0.4788 -0.6297  1.6632
 9178TIP3   OH227497   0.409   5.962   5.068  0.2534  0.3663  0.0404
 9178TIP3    H127498   0.461   5.896   5.115 -1.6630 -0.8598  0.5439
 9178TIP3    H227499   0.323   5.959   5.110 -0.9855  0.5702 -2.3162
 9179TIP3   OH227500   7.026   0.622   1.898 -0.3567 -0.0075  0.8825
 9179TIP3    H127501   7.037   0.549   1.838 -0.2457  1.3228 -0.8073
 9179TIP3    H227502   7.077   0.598   1.975  0.8346 -1.0948 -0.1968
 9180TIP3   OH227503   5.288   0.674   1.644 -0.2659  0.0598 -0.4375
 9180TIP3    H127504   5.306   0.708   1.556 -2.4989 -0.7974 -1.2833
 9180TIP3    H227505   5.212   0.723   1.674  0.3553  0.2180  0.9930
 9181TIP3   OH227506   1.871   2.453   0.029 -0.0518  0.4499 -0.4307
 9181TIP3    H127507   1.819   2.386   0.074 -1.8323  0.9119 -1.7071
 9181TIP3    H227508   1.961   2.424   0.041 -0.7164 -2.0370 -0.6751
 9182TIP3   OH227509   1.308   2.924   1.202  0.4221 -0.1389 -0.5584
 9182TIP3    H127510   1.361   3.004   1.206 -0.4916  0.4766 -0.4737
 9182TIP3    H227511   1.302   2.904   1.108 -1.4552  1.3594 -0.8057
 9183TIP3   OH227512   6.528   1.082   5.207 -0.7065  0.3273  0.4847
 9183TIP3    H127513   6.506   1.015   5.142 -0.0729 -1.0290  1.6068
 9183TIP3    H227514   6.550   1.032   5.286 -0.0893  1.8713  1.3305
 9184TIP3   OH227515   1.613   0.265   3.300  0.5293  0.3938  0.5645
 9184TIP3    H127516   1.646   0.333   3.241  0.8352  0.4680  0.8204
 9184TIP3    H227517   1.542   0.307   3.347 -0.3022  0.0738 -0.3726
 9185TIP3   OH227518   6.585   6.408   0.338  0.2048  0.7457 -0.1640
 9185TIP3    H127519   6.495   6.418   0.370  1.1454  1.0833  2.7366
 9185TIP3    H227520   6.603   6.490   0.293 -1.0434  0.5083 -1.1511
 9186TIP3   OH227521   4.693   5.371   4.741  0.3989  0.1434 -0.4008
 9186TIP3    H127522   4.702   5.452   4.792 -0.8886  1.2131 -1.8018
 9186TIP3    H227523   4.639   5.315   4.796 -0.3740  0.9997 -0.2582
 9187TIP3   OH227524   1.115   4.950   3.367  0.1004 -0.3463 -0.2568
 9187TIP3    H127525   1.186   5.014   3.377  1.0635 -1.6048  1.3081
 9187TIP3    H227526   1.109   4.937   3.272  0.6452  1.1979 -0.5365
 9188TIP3   OH227527   6.777   0.039   5.760  0.2196 -0.3658 -0.5209
 9188TIP3    H127528   6.747   0.128   5.741 -0.2854 -0.3010  0.5410
 9188TIP3    H227529   6.804   0.041   5.852  0.1623 -1.3247 -0.4695
 9189TIP3   OH227530   1.160   1.536   3.923  0.1005 -0.1473 -0.2113
 9189TIP3    H127531   1.244   1.551   3.967 -0.6012  2.6061  0.3992
 9189TIP3    H227532   1.095   1.560   3.989 -1.0587  0.7017 -1.6240
 9190TIP3   OH227533   3.200   4.160   5.198  0.0907 -0.2327 -0.3662
 9190TIP3    H127534   3.142   4.210   5.142  0.7602  0.9940 -0.0160
 9190TIP3    H227535   3.175   4.184   5.287  0.5187 -0.4085 -0.1904
 9191TIP3   OH227536   0.251   1.376   3.556  0.3919 -0.3536 -0.4660
 9191TIP3    H127537   0.230   1.324   3.633 -1.4080 -0.7705 -1.1803
 9191TIP3    H227538   0.244   1.315   3.483  3.1176 -0.2245 -0.9277
 9192TIP3   OH227539   2.036   4.136   5.214  0.3497 -0.6244  0.0850
 9192TIP3    H127540   2.116   4.131   5.161  1.0466 -0.5618  1.0927
 9192TIP3    H227541   2.057   4.085   5.292 -0.2469  0.2289  0.8073
 9193TIP3   OH227542   6.077   6.706   0.588  0.2481  0.7576 -0.2722
 9193TIP3    H127543   6.027   6.787   0.596  1.3462  1.3180  1.5328
 9193TIP3    H227544   6.013   6.637   0.602 -0.2381  1.4206  0.9139
 9194TIP3   OH227545   2.617   2.417   3.702  0.2908  0.1720  0.2851
 9194TIP3    H127546   2.541   2.377   3.660 -0.4516  1.7681  0.0466
 9194TIP3    H227547   2.647   2.351   3.765 -0.1251 -1.2308 -0.9214
 9195TIP3   OH227548   0.874   1.234   5.129  0.6915 -0.2509  0.1931
 9195TIP3    H127549   0.926   1.224   5.049 -0.5239  2.2097 -0.9967
 9195TIP3    H227550   0.931   1.283   5.188  1.9849 -2.9448  1.3459
 9196TIP3   OH227551   4.135   1.399   3.972  0.3958 -0.0342  0.3240
 9196TIP3    H127552   4.138   1.492   3.995 -0.2016  0.5271 -1.6533
 9196TIP3    H227553   4.181   1.356   4.044  1.0478  1.8170  1.1056
 9197TIP3   OH227554   5.904   1.005   0.516  0.1458 -0.0736  0.4679
 9197TIP3    H127555   5.913   0.932   0.578 -0.3936 -0.2680  0.3222
 9197TIP3    H227556   5.901   0.963   0.430  1.5906  0.2391  0.2390
 9198TIP3   OH227557   3.501   5.507   2.754  0.2766  0.2121 -0.2164
 9198TIP3    H127558   3.498   5.447   2.829 -1.0187 -0.0338 -0.4365
 9198TIP3    H227559   3.509   5.449   2.678  2.9751  0.5020 -0.2572
 9199TIP3   OH227560   5.785   0.403   4.787  0.1163 -0.1725  0.1093
 9199TIP3    H127561   5.775   0.309   4.803  1.3568 -0.4860 -0.8385
 9199TIP3    H227562   5.787   0.411   4.692 -0.3729  0.8761  0.1738
 9200TIP3   OH227563   1.354   5.001   2.160 -0.1405 -0.0863  0.5801
 9200TIP3    H127564   1.297   4.986   2.085 -0.6818 -0.8821  1.1321
 9200TIP3    H227565   1.436   4.958   2.137 -1.1167 -2.6078  1.4402
 9201TIP3   OH227566   7.146   0.703   5.521  0.5076 -0.5378  0.3244
 9201TIP3    H127567   7.234   0.735   5.499 -0.7141  1.3631 -2.5461
 9201TIP3    H227568   7.098   0.710   5.438 -2.3755 -1.4329  1.8062
 9202TIP3   OH227569   4.074   3.475   1.131  0.2616  0.3951 -0.6410
 9202TIP3    H127570   4.069   3.381   1.148  0.9857  0.6658  1.4421
 9202TIP3    H227571   4.150   3.485   1.074  0.5723 -0.2355 -0.3497
 9203TIP3   OH227572   0.030   2.147   1.646  0.2864 -0.0428 -0.4748
 9203TIP3    H127573   0.106   2.198   1.618 -0.1985  0.0098 -1.7731
 9203TIP3    H227574   0.014   2.087   1.573 -0.6035 -0.4084  0.0088
 9204TIP3   OH227575   4.166   4.242   0.216  0.2817 -0.1288 -0.1775
 9204TIP3    H127576   4.224   4.183   0.265 -0.4990 -0.7210  0.0384
 9204TIP3    H227577   4.085   4.243   0.265  0.2810  1.1603 -0.1665
 9205TIP3   OH227578   4.852   0.710   1.756 -0.0561  0.4714  0.1691
 9205TIP3    H127579   4.798   0.780   1.719  1.3755  2.0228  0.8374
 9205TIP3    H227580   4.877   0.742   1.842  0.5257 -0.9645  0.5655
 9206TIP3   OH227581   2.197   6.436   1.776  0.4612 -0.0205  0.1682
 9206TIP3    H127582   2.164   6.375   1.842 -0.1422  0.8384  0.6955
 9206TIP3    H227583   2.124   6.497   1.762  1.5301  1.4696  0.7842
 9207TIP3   OH227584   2.189   3.520   3.974  0.2039  0.4435 -0.0535
 9207TIP3    H127585   2.277   3.519   3.936  1.3829  0.9520  2.4108
 9207TIP3    H227586   2.138   3.577   3.917  0.9370 -1.2022 -2.5068
 9208TIP3   OH227587   2.925   3.690   0.425  0.1567 -0.2571  0.8452
 9208TIP3    H127588   2.934   3.735   0.510 -4.9353  0.0354  1.6011
 9208TIP3    H227589   2.868   3.748   0.374 -1.1518 -2.7668 -0.7398
 9209TIP3   OH227590   4.964   6.450   0.652 -0.6306 -0.4921 -0.2108
 9209TIP3    H127591   4.964   6.471   0.746  2.1084  2.4128 -0.6925
 9209TIP3    H227592   4.965   6.535   0.609  0.0579 -1.7487 -2.8675
 9210TIP3   OH227593   2.926   3.492   1.142  0.5527 -0.4673 -0.3488
 9210TIP3    H127594   2.949   3.450   1.224 -0.1436 -0.3117 -0.0637
 9210TIP3    H227595   2.997   3.470   1.082  1.3682 -0.0831  0.4599
 9211TIP3   OH227596   2.997   5.056   0.488 -0.3533  0.4489  0.0198
 9211TIP3    H127597   2.934   5.127   0.482 -0.8561 -0.0733 -1.2388
 9211TIP3    H227598   2.948   4.983   0.526  0.3110  0.9165  1.8381
 9212TIP3   OH227599   4.291   0.428   1.079 -0.0205 -0.0032 -0.1828
 9212TIP3    H127600   4.207   0.395   1.110  0.0356 -0.5707 -0.6078
 9212TIP3    H227601   4.344   0.437   1.158 -0.1252 -0.7100 -0.0191
 9213TIP3   OH227602   0.448   0.133   0.416  0.0466  0.1903 -0.4742
 9213TIP3    H127603   0.404   0.216   0.436 -1.7445 -0.6782 -0.5492
 9213TIP3    H227604   0.507   0.154   0.344  0.5015  1.6346  0.2759
 9214TIP3   OH227605   1.244   2.841   3.988  0.0723 -0.0622 -0.6458
 9214TIP3    H127606   1.329   2.803   4.012 -1.0319 -0.6745  2.9566
 9214TIP3    H227607   1.231   2.815   3.897  2.8742 -1.5895 -0.7209
 9215TIP3   OH227608   7.140   3.612   5.537 -0.2563 -0.1692  0.5979
 9215TIP3    H127609   7.151   3.641   5.627  0.2465  1.6933 -0.0303
 9215TIP3    H227610   7.088   3.680   5.495 -0.2965 -0.8868 -0.5853
 9216TIP3   OH227611   4.892   1.367   0.711  0.3474 -0.4104  0.5440
 9216TIP3    H127612   4.916   1.441   0.655 -0.4347 -0.5585  0.0006
 9216TIP3    H227613   4.910   1.398   0.800  1.7981 -0.2498  0.2292
 9217TIP3   OH227614   4.142   3.867   5.255 -0.0417  0.1415  0.0224
 9217TIP3    H127615   4.179   3.831   5.336 -1.0997 -0.2644  0.3407
 9217TIP3    H227616   4.061   3.817   5.242 -0.2967  0.7721 -0.8435
 9218TIP3   OH227617   1.287   0.824   0.516  0.5071  0.7187 -0.1638
 9218TIP3    H127618   1.296   0.769   0.439  1.7185  0.0531  0.4324
 9218TIP3    H227619   1.352   0.893   0.504  3.5761 -1.5254  1.9885
 9219TIP3   OH227620   0.034   0.847   5.160  0.9951  0.1550 -0.4088
 9219TIP3    H127621   0.024   0.855   5.065  1.3599  0.0138 -0.4579
 9219TIP3    H227622  -0.052   0.817   5.191  0.0906  2.4674 -0.4272
 9220TIP3   OH227623   6.687   6.527   2.453  0.0510 -0.7108  0.6772
 9220TIP3    H127624   6.593   6.514   2.463 -0.0542 -0.4168  0.1004
 9220TIP3    H227625   6.714   6.574   2.532 -0.0790 -1.7672  1.3790
 9221TIP3   OH227626   5.882   1.015   4.888  0.4303  0.8446 -0.3288
 9221TIP3    H127627   5.959   1.012   4.831  0.3582 -2.7048 -0.4670
 9221TIP3    H227628   5.917   1.036   4.974  1.9231 -2.0271 -0.0986
 9222TIP3   OH227629   1.632   3.107   2.309 -0.0630 -0.3842  0.4878
 9222TIP3    H127630   1.588   3.187   2.338  0.0619 -0.5721  1.2206
 9222TIP3    H227631   1.641   3.054   2.388 -0.4737 -1.2884 -0.0513
 9223TIP3   OH227632   6.046   1.800   3.854 -0.3501  0.0358  0.1573
 9223TIP3    H127633   6.097   1.720   3.844 -0.0842  0.0940  0.9514
 9223TIP3    H227634   6.111   1.869   3.863 -0.5532  0.5700 -1.8832
 9224TIP3   OH227635   3.256   4.610   5.313  0.5808 -0.0094  0.4109
 9224TIP3    H127636   3.334   4.580   5.266  0.9592 -1.5212  1.9370
 9224TIP3    H227637   3.284   4.619   5.404 -0.8551  0.1125  0.8694
 9225TIP3   OH227638   3.660   4.118   0.486  0.1527  0.0369  0.0304
 9225TIP3    H127639   3.646   4.026   0.509 -2.2543  0.3181 -0.0612
 9225TIP3    H227640   3.719   4.152   0.554  0.2429 -1.3090  0.6461
 9226TIP3   OH227641   0.254   4.280   4.096 -0.0310  0.2708 -0.2980
 9226TIP3    H127642   0.297   4.207   4.142  1.1622  0.6175 -0.8099
 9226TIP3    H227643   0.227   4.339   4.167 -1.7501 -1.0140  0.1778
 9227TIP3   OH227644   1.054   5.342   1.259  0.0931 -0.1222 -0.1149
 9227TIP3    H127645   0.978   5.335   1.200 -0.0741 -1.6830  0.2347
 9227TIP3    H227646   1.043   5.427   1.302 -1.2384 -0.1339 -0.3776
 9228TIP3   OH227647   3.172   5.023   2.953 -0.1021 -0.6358  0.5375
 9228TIP3    H127648   3.258   5.011   2.912  0.5287 -0.0737  1.6318
 9228TIP3    H227649   3.174   5.113   2.985 -1.0567 -0.6658  0.7095
 9229TIP3   OH227650   2.577   4.775   0.363  0.4058 -0.1252  0.6799
 9229TIP3    H127651   2.601   4.752   0.273  1.1129 -0.8800  1.0359
 9229TIP3    H227652   2.584   4.692   0.410  0.4318  0.3432  1.5062
 9230TIP3   OH227653   5.839   2.807   0.038  0.4977  0.1118 -0.1387
 9230TIP3    H127654   5.902   2.740   0.065  0.2564 -0.6083 -1.2949
 9230TIP3    H227655   5.833   2.797  -0.057 -0.4828  0.9489 -0.1803
 9231TIP3   OH227656   3.014   3.510   4.651 -0.4453 -0.2540 -0.2943
 9231TIP3    H127657   3.027   3.522   4.745  1.6266  0.9851 -0.6706
 9231TIP3    H227658   2.928   3.548   4.633 -1.1996 -1.1982  1.1946
 9232TIP3   OH227659   4.623   2.695   1.738 -0.0485  0.1926 -0.0923
 9232TIP3    H127660   4.611   2.772   1.793  0.7291  0.3315 -0.1091
 9232TIP3    H227661   4.572   2.627   1.782 -0.1172  0.5179  0.3398
 9233TIP3   OH227662   3.660   6.669   3.934 -0.1124  0.1261 -0.3724
 9233TIP3    H127663   3.674   6.754   3.892 -0.8648  0.0799 -0.7190
 9233TIP3    H227664   3.736   6.659   3.992  0.1826  0.8530 -0.6189
 9234TIP3   OH227665   4.883   1.515   0.962  0.1217 -0.6721  0.4722
 9234TIP3    H127666   4.860   1.605   0.939 -0.4689 -1.2894 -1.4777
 9234TIP3    H227667   4.978   1.517   0.972  0.3697 -0.2524 -1.6655
 9235TIP3   OH227668   3.568   4.680   4.200 -0.0407  0.1035  0.2104
 9235TIP3    H127669   3.614   4.602   4.232 -2.5465 -1.1863  0.9632
 9235TIP3    H227670   3.519   4.648   4.124  0.2611  1.4080 -0.5520
 9236TIP3   OH227671   1.682   5.808   1.976  0.2276  0.2350  0.2346
 9236TIP3    H127672   1.666   5.715   1.997  0.0467  0.0746 -0.6006
 9236TIP3    H227673   1.596   5.844   1.957  0.4077  0.3240 -0.4366
 9237TIP3   OH227674   4.093   2.026   3.920  0.0370 -0.4365  0.4850
 9237TIP3    H127675   4.097   2.118   3.894  0.4268 -0.1512  1.5056
 9237TIP3    H227676   4.103   1.978   3.838  2.0303  0.4048  0.1626
 9238TIP3   OH227677   2.962   6.054   4.604 -0.0335  0.1646 -0.0848
 9238TIP3    H127678   2.938   6.095   4.521  2.2183  0.3363 -0.7087
 9238TIP3    H227679   3.001   6.125   4.655 -0.7730 -0.0957  0.8696
 9239TIP3   OH227680   6.138   6.480   5.357 -0.2110 -0.6576 -0.0359
 9239TIP3    H127681   6.205   6.480   5.426  0.5270 -0.1260 -0.7407
 9239TIP3    H227682   6.168   6.413   5.295 -0.4680 -0.5888 -0.2357
 9240TIP3   OH227683   6.373   4.317   4.086  0.1319  0.2273 -0.5015
 9240TIP3    H127684   6.457   4.300   4.128 -0.2050  0.9429  0.5098
 9240TIP3    H227685   6.378   4.272   4.002  1.2741 -0.2735 -0.1799
 9241TIP3   OH227686   6.368   5.505   0.380 -0.0796  0.4595 -0.4636
 9241TIP3    H127687   6.411   5.424   0.353  0.7882  0.5718  0.5324
 9241TIP3    H227688   6.411   5.574   0.330  1.1366  0.6055  0.7534
 9242TIP3   OH227689   4.346   6.660   2.113 -0.3133 -0.3689  0.3128
 9242TIP3    H127690   4.350   6.713   2.192  0.7853  0.9825 -0.5971
 9242TIP3    H227691   4.418   6.692   2.059 -1.6815 -0.4720 -1.7003
 9243TIP3   OH227692   4.538   5.279   4.515  0.0771 -0.4062  0.1577
 9243TIP3    H127693   4.596   5.203   4.510  2.2268  1.1421 -0.2840
 9243TIP3    H227694   4.578   5.334   4.583 -1.0908  0.5841  0.0731
 9244TIP3   OH227695   3.414   4.774   3.257 -0.0567 -0.1901 -0.2344
 9244TIP3    H127696   3.352   4.820   3.313  0.0787  1.2179 -1.1994
 9244TIP3    H227697   3.368   4.764   3.173 -0.4091 -2.6158  0.1686
 9245TIP3   OH227698   2.966   1.398   3.963  0.2973  0.1720  0.0390
 9245TIP3    H127699   2.883   1.376   3.921  0.1063  0.3339  0.3240
 9245TIP3    H227700   3.032   1.383   3.896  0.1115 -0.6432  0.0276
 9246TIP3   OH227701   0.856   0.073   5.426  0.1196  0.2444 -0.2606
 9246TIP3    H127702   0.894   0.095   5.341 -0.3326 -1.2467 -0.8930
 9246TIP3    H227703   0.931   0.053   5.482  0.4366  1.5217 -0.1927
 9247TIP3   OH227704   2.275   6.374   3.743 -0.1130 -0.5375 -0.2440
 9247TIP3    H127705   2.319   6.371   3.827 -1.3535  0.7183  0.4881
 9247TIP3    H227706   2.191   6.416   3.761  0.0197  0.7504 -2.2957
 9248TIP3   OH227707   0.086   3.041   4.681  0.0000  0.0561 -0.3705
 9248TIP3    H127708  -0.009   3.054   4.674 -0.2014 -1.7964 -1.9066
 9248TIP3    H227709   0.115   3.111   4.739 -2.3953  0.2953  0.6895
 9249TIP3   OH227710   2.194   5.136   1.515  0.3399  0.5950 -0.2549
 9249TIP3    H127711   2.164   5.056   1.473  0.9782 -0.2581  0.8589
 9249TIP3    H227712   2.277   5.112   1.557  0.2212  1.6674  0.6400
 9250TIP3   OH227713   3.384   4.211   4.473  0.2432  0.1789  0.0175
 9250TIP3    H127714   3.361   4.244   4.560  0.7855  0.6096  0.0025
 9250TIP3    H227715   3.312   4.239   4.417  0.7456  1.4453 -0.0143
 9251TIP3   OH227716   6.552   2.135   1.066 -0.7578 -0.2541 -0.1677
 9251TIP3    H127717   6.594   2.101   0.987 -1.1508 -1.0171 -0.0631
 9251TIP3    H227718   6.547   2.060   1.124  1.5316  0.7836  1.4962
 9252TIP3   OH227719   1.321   1.073   1.293  0.0080 -0.3786  0.5980
 9252TIP3    H127720   1.370   0.994   1.271 -0.9082 -0.2612 -2.3768
 9252TIP3    H227721   1.378   1.145   1.267  0.8271  0.0399  3.2720
 9253TIP3   OH227722   4.691   0.274   1.359  0.5408  0.3331 -0.1370
 9253TIP3    H127723   4.597   0.288   1.359  0.2897 -1.1100  0.4801
 9253TIP3    H227724   4.726   0.339   1.420  0.2887  2.5270 -2.1874
 9254TIP3   OH227725   4.449   2.317   1.060 -0.3946 -0.6642 -0.0058
 9254TIP3    H127726   4.358   2.297   1.040 -0.0870 -2.7812  0.5093
 9254TIP3    H227727   4.495   2.303   0.978 -0.3078 -1.1464  0.1261
 9255TIP3   OH227728   0.718   2.623   0.578 -0.6946  0.1097  0.0023
 9255TIP3    H127729   0.687   2.680   0.649 -1.1889 -0.0008 -0.1250
 9255TIP3    H227730   0.726   2.681   0.502  0.8198  0.4506  0.3892
 9256TIP3   OH227731   6.699   0.631   3.282 -0.4806 -0.2706 -0.7297
 9256TIP3    H127732   6.712   0.540   3.310 -0.2265  0.3667  1.3221
 9256TIP3    H227733   6.637   0.667   3.345  0.2429  1.2876 -0.8777
 9257TIP3   OH227734   5.025   5.179   1.645 -0.0968 -0.4634 -0.3587
 9257TIP3    H127735   4.995   5.088   1.638 -1.4322  0.0201 -1.1482
 9257TIP3    H227736   4.958   5.230   1.601  1.6542  0.7399 -1.7531
 9258TIP3   OH227737   2.907   2.119   3.533 -0.7431  0.5007  0.5882
 9258TIP3    H127738   2.854   2.184   3.487 -1.0307  0.1419  0.4071
 9258TIP3    H227739   2.843   2.054   3.563 -0.6611  1.1415  2.2014
 9259TIP3   OH227740   2.917   6.713   3.321  0.0707 -0.2029  0.1484
 9259TIP3    H127741   2.890   6.708   3.412  1.3985  0.8103  0.6163
 9259TIP3    H227742   2.881   6.795   3.289  1.7885  0.7446  0.5394
 9260TIP3   OH227743   0.433   2.764   5.780 -0.4382 -0.1632  0.3393
 9260TIP3    H127744   0.480   2.727   5.705 -3.2790  0.2141 -1.8120
 9260TIP3    H227745   0.372   2.694   5.806 -1.7564  0.8490  0.0850
 9261TIP3   OH227746   0.406   5.247   4.107 -0.6744  0.8563  0.2959
 9261TIP3    H127747   0.446   5.269   4.022  0.0998  0.8595  0.6547
 9261TIP3    H227748   0.312   5.262   4.093 -0.8213 -1.0448 -1.1745
 9262TIP3   OH227749   5.713   0.361   2.167 -0.2022 -0.2214 -0.5106
 9262TIP3    H127750   5.776   0.293   2.144  2.0931  0.5640  2.7269
 9262TIP3    H227751   5.629   0.316   2.168  0.6813 -2.0630 -2.1220
 9263TIP3   OH227752   2.404   2.749   5.459  0.2307 -0.3315 -0.2345
 9263TIP3    H127753   2.369   2.681   5.517 -0.2231 -0.4694 -0.6693
 9263TIP3    H227754   2.346   2.824   5.472 -0.9549 -0.9353 -1.8193
 9264TIP3   OH227755   3.347   5.099   3.486  0.5195  0.3521  0.6669
 9264TIP3    H127756   3.413   5.077   3.551  0.3226  2.0557  1.4863
 9264TIP3    H227757   3.303   5.016   3.467 -0.6180  0.0356  4.0609
 9265TIP3   OH227758   0.743   1.729   0.584 -0.2958 -0.0746 -0.4831
 9265TIP3    H127759   0.649   1.740   0.568 -0.6016 -0.5830  0.8262
 9265TIP3    H227760   0.748   1.655   0.645  0.6297  2.4537  2.8016
 9266TIP3   OH227761   5.054   1.722   4.905  0.2674 -0.0693 -0.3881
 9266TIP3    H127762   5.077   1.808   4.941  2.0564 -0.1776 -1.1487
 9266TIP3    H227763   5.074   1.729   4.812 -0.1501 -1.1202 -0.5710
 9267TIP3   OH227764   5.973   4.336   5.228 -0.2127 -0.1993  0.1927
 9267TIP3    H127765   5.977   4.410   5.167  1.0859 -0.2529  0.1880
 9267TIP3    H227766   5.943   4.262   5.174  0.7824 -0.2127 -0.3556
 9268TIP3   OH227767   1.837   2.984   5.894  0.1606  0.0657  0.1391
 9268TIP3    H127768   1.789   3.059   5.928  1.4390  0.2985  1.5481
 9268TIP3    H227769   1.921   3.019   5.868  0.1695 -0.6032 -0.7707
 9269TIP3   OH227770   0.972   5.536   3.187 -0.3253  0.0743 -0.4996
 9269TIP3    H127771   0.927   5.458   3.220  1.2237 -0.5607  0.2111
 9269TIP3    H227772   0.987   5.590   3.265  0.0164  0.3256 -0.7360
 9270TIP3   OH227773   0.246   1.033   4.736 -0.2953 -0.2736 -0.0931
 9270TIP3    H127774   0.276   0.981   4.811  0.5311  1.3281  0.7394
 9270TIP3    H227775   0.151   1.021   4.735 -0.2635 -0.7531  0.8890
 9271TIP3   OH227776   7.084   6.024   3.695 -0.2075  0.7757 -0.0479
 9271TIP3    H127777   7.029   5.977   3.757 -1.1956 -0.8169 -2.0129
 9271TIP3    H227778   7.024   6.077   3.644  0.3838  0.9255 -0.6048
 9272TIP3   OH227779   2.214   1.872   0.729 -0.0620 -0.5572 -0.3555
 9272TIP3    H127780   2.119   1.867   0.737 -0.1079  1.5368  1.1356
 9272TIP3    H227781   2.248   1.825   0.805  0.0158  0.5655  0.3233
 9273TIP3   OH227782   2.094   3.019   3.788 -0.1406 -0.1209 -0.5322
 9273TIP3    H127783   2.019   2.974   3.825 -0.8192 -0.4479 -2.2089
 9273TIP3    H227784   2.168   2.990   3.842 -1.0182 -0.7804  0.3616
 9274TIP3   OH227785   5.110   5.713   2.970  0.0525  0.1337  0.2330
 9274TIP3    H127786   5.108   5.758   3.055 -2.0140  0.6838 -0.0363
 9274TIP3    H227787   5.179   5.758   2.921  0.6238  0.4464  1.2847
 9275TIP3   OH227788   1.713   2.476   5.299 -0.3916  0.0070 -0.2065
 9275TIP3    H127789   1.751   2.495   5.385  1.6892 -2.0630 -0.5498
 9275TIP3    H227790   1.759   2.535   5.239 -0.7878  0.4443 -0.0784
 9276TIP3   OH227791   2.155   2.106   1.021  0.0773  0.2613 -0.1446
 9276TIP3    H127792   2.241   2.124   0.983  0.0764 -0.3790 -0.4659
 9276TIP3    H227793   2.174   2.064   1.105  0.0856  2.1393  0.8504
 9277TIP3   OH227794   1.873   2.346   1.466  0.7518  0.4970 -0.4650
 9277TIP3    H127795   1.877   2.252   1.449 -1.3281  0.5452 -1.4840
 9277TIP3    H227796   1.867   2.386   1.379  1.3165  1.5770 -0.0305
 9278TIP3   OH227797   5.520   5.312   2.062 -0.3348  0.1838  0.5162
 9278TIP3    H127798   5.541   5.219   2.068  0.6350  0.4765  1.9586
 9278TIP3    H227799   5.509   5.327   1.968  0.9378 -1.0753  0.1270
 9279TIP3   OH227800   5.365   1.019   4.802 -0.6451 -0.4105  0.2511
 9279TIP3    H127801   5.309   0.942   4.794  0.4166 -1.4352  1.9734
 9279TIP3    H227802   5.443   0.997   4.752 -0.4996 -0.3190  0.4348
 9280TIP3   OH227803   0.674   2.443   4.494  0.4633 -0.1351 -0.6266
 9280TIP3    H127804   0.766   2.422   4.478  0.1661 -0.2597 -2.4078
 9280TIP3    H227805   0.626   2.377   4.444 -0.6108 -0.2758  0.5577
 9281TIP3   OH227806   6.490   6.083   0.951 -0.0097  0.7386 -0.0254
 9281TIP3    H127807   6.407   6.131   0.954  0.1087  0.9480 -0.0664
 9281TIP3    H227808   6.464   5.991   0.949 -0.2518  0.8114 -0.3674
 9282TIP3   OH227809   3.190   3.859   0.294  0.1843  0.1006 -0.2136
 9282TIP3    H127810   3.276   3.852   0.335  0.6334  1.2923 -0.9062
 9282TIP3    H227811   3.128   3.859   0.367  0.7975 -0.2588  0.3179
 9283TIP3   OH227812   1.459   5.688   1.587 -0.3983 -0.2791 -0.4645
 9283TIP3    H127813   1.413   5.752   1.641  0.1891  0.4938 -0.8626
 9283TIP3    H227814   1.400   5.670   1.514  0.4322  1.7095 -1.6882
 9284TIP3   OH227815   3.872   0.804   1.812  0.5354 -0.1101  0.1090
 9284TIP3    H127816   3.848   0.841   1.728  1.7552 -1.2843 -0.8032
 9284TIP3    H227817   3.805   0.739   1.831  1.0434 -0.9005 -0.7132
 9285TIP3   OH227818   6.507   1.199   5.852  0.1916 -0.2043  0.7116
 9285TIP3    H127819   6.590   1.196   5.804  0.0716  0.0519  0.4896
 9285TIP3    H227820   6.462   1.118   5.828  0.2824 -0.2404  0.6638
 9286TIP3   OH227821   0.229   6.688   3.942 -0.2785  0.5458 -0.1558
 9286TIP3    H127822   0.156   6.635   3.910  0.3275 -1.2549  1.2279
 9286TIP3    H227823   0.192   6.742   4.010 -0.5268  0.4120 -0.1843
 9287TIP3   OH227824   3.289   6.244   5.158  0.6731 -0.5136 -0.6660
 9287TIP3    H127825   3.282   6.148   5.153 -0.0499 -0.8044  2.9733
 9287TIP3    H227826   3.367   6.260   5.210 -0.2239  0.7390  0.3821
 9288TIP3   OH227827   1.277   4.677   2.079 -0.1009  0.3595 -0.1634
 9288TIP3    H127828   1.242   4.721   2.156  0.1782 -2.7157  1.9075
 9288TIP3    H227829   1.367   4.655   2.104  0.3238  0.1910 -1.7772
 9289TIP3   OH227830   4.700   2.462   2.303 -0.4975 -0.1525  0.0906
 9289TIP3    H127831   4.734   2.547   2.274 -0.4937 -0.1170  0.2000
 9289TIP3    H227832   4.756   2.436   2.375 -0.5750 -0.1907  0.1373
 9290TIP3   OH227833   6.666   0.176   2.875 -0.1931 -0.1109  0.0032
 9290TIP3    H127834   6.732   0.246   2.873  1.2008 -1.3271 -2.7569
 9290TIP3    H227835   6.596   0.210   2.819 -0.2245 -0.2820 -0.0596
 9291TIP3   OH227836   1.446   1.866   1.017 -0.2548  0.6116  0.0981
 9291TIP3    H127837   1.540   1.871   1.034 -0.2941  2.9035  0.0661
 9291TIP3    H227838   1.406   1.848   1.102  0.1477  1.3699  0.4619
 9292TIP3   OH227839   0.059   0.299   5.290 -0.2534  0.6368 -0.3181
 9292TIP3    H127840   0.054   0.255   5.375 -2.4495 -0.5328 -0.9759
 9292TIP3    H227841   0.140   0.267   5.251  0.0642  0.0851  0.7689
 9293TIP3   OH227842   0.184   4.376   1.882  0.3187 -0.1364  0.7379
 9293TIP3    H127843   0.149   4.456   1.921  0.2985  0.7370 -0.9645
 9293TIP3    H227844   0.272   4.400   1.853 -0.2854 -0.1714 -1.3021
 9294TIP3   OH227845   3.560   4.895   2.153 -0.4604 -0.7344  0.2176
 9294TIP3    H127846   3.470   4.912   2.125 -0.3527 -1.1576 -0.4113
 9294TIP3    H227847   3.589   4.822   2.097  0.2229 -0.6931  0.5091
 9295TIP3   OH227848   2.808   1.227   2.195  0.1852  0.0665 -0.5343
 9295TIP3    H127849   2.749   1.159   2.227 -0.3616  1.1341  0.8169
 9295TIP3    H227850   2.895   1.197   2.221 -0.0616 -0.0983  0.1417
 9296TIP3   OH227851   2.289   2.507   4.825  0.0338 -0.3727 -0.0986
 9296TIP3    H127852   2.272   2.551   4.909  1.1428 -1.0592  0.5234
 9296TIP3    H227853   2.264   2.571   4.759 -1.1353  0.0863  0.7470
 9297TIP3   OH227854   1.543   1.169   1.603  0.1221 -0.3443  1.1457
 9297TIP3    H127855   1.504   1.090   1.640  1.7608 -1.6862  0.1987
 9297TIP3    H227856   1.599   1.136   1.532  1.0743  1.6554  0.9091
 9298TIP3   OH227857   2.388   3.967   4.487 -0.4341 -0.4211 -0.4508
 9298TIP3    H127858   2.351   3.879   4.501 -0.2256 -0.2495  1.5565
 9298TIP3    H227859   2.387   3.979   4.392 -1.6686 -2.0785 -0.7003
 9299TIP3   OH227860   6.010   4.868   3.121 -0.1072 -0.2231  0.3201
 9299TIP3    H127861   6.025   4.802   3.189  3.0608 -0.5778 -0.5382
 9299TIP3    H227862   6.027   4.822   3.039 -1.6678  0.7490 -0.5926
 9300TIP3   OH227863   3.704   5.375   5.857 -0.0921 -0.1517 -0.0463
 9300TIP3    H127864   3.735   5.457   5.819  1.4702 -1.2169 -1.1950
 9300TIP3    H227865   3.637   5.344   5.795  0.8192 -0.7461 -0.7704
 9301TIP3   OH227866   0.089   3.799   1.177  0.2288 -0.0171  0.6613
 9301TIP3    H127867   0.052   3.829   1.261 -0.1266  0.3988  0.3607
 9301TIP3    H227868   0.181   3.783   1.196  0.1806  0.2040  1.1022
 9302TIP3   OH227869   5.363   3.059   3.206  0.0453 -0.3160  0.0073
 9302TIP3    H127870   5.359   3.154   3.217  1.6740 -0.2772  0.6371
 9302TIP3    H227871   5.279   3.027   3.238 -0.3016  0.8781  0.3355
 9303TIP3   OH227872   1.713   5.084   2.011  0.5110 -0.2127  0.3104
 9303TIP3    H127873   1.764   5.065   2.090  0.0950  0.1078  0.6639
 9303TIP3    H227874   1.707   5.001   1.964 -0.8144 -0.8553  1.5435
 9304TIP3   OH227875   5.291   0.349   2.780  0.3690 -0.2580 -0.0044
 9304TIP3    H127876   5.243   0.423   2.817  1.1299 -0.8302  2.2755
 9304TIP3    H227877   5.357   0.389   2.723 -0.4320  0.7132 -0.2636
 9305TIP3   OH227878   2.705   2.629   2.701  0.0464  0.0443  0.0905
 9305TIP3    H127879   2.655   2.701   2.663  0.6443  0.8101  0.7273
 9305TIP3    H227880   2.721   2.570   2.628 -0.1270  0.7414 -0.5198
 9306TIP3   OH227881   5.106   3.108   3.549  0.2652 -1.1514  0.4352
 9306TIP3    H127882   5.133   3.039   3.610  1.2763  0.2098  1.5595
 9306TIP3    H227883   5.172   3.176   3.558 -0.6703 -0.0469 -0.7120
 9307TIP3   OH227884   1.475   1.668   2.582  0.0865  0.5488 -0.3516
 9307TIP3    H127885   1.501   1.733   2.647  0.1213 -0.5675  0.7846
 9307TIP3    H227886   1.456   1.589   2.633 -1.0565 -0.0149 -1.5803
 9308TIP3   OH227887   5.079   1.137   2.185  0.0020 -0.3760  0.2324
 9308TIP3    H127888   5.033   1.102   2.109  0.3290 -1.3465  0.4664
 9308TIP3    H227889   5.165   1.161   2.152  0.3239 -1.2840  0.3970
 9309TIP3   OH227890   4.887   4.138   4.989 -0.0228  0.4639 -0.5121
 9309TIP3    H127891   4.832   4.169   4.917 -0.9371  0.2286  0.0738
 9309TIP3    H227892   4.879   4.206   5.056  0.6152  0.5552 -0.5253
 9310TIP3   OH227893   6.007   4.769   2.200  0.2675 -0.0650  0.1664
 9310TIP3    H127894   6.024   4.677   2.182  0.5197 -0.0498  0.3276
 9310TIP3    H227895   5.964   4.802   2.121 -0.8692 -0.6030  0.5322
 9311TIP3   OH227896   4.301   6.567   5.814 -0.3810 -0.0407 -0.0286
 9311TIP3    H127897   4.208   6.573   5.792  0.0761  1.7235 -1.7195
 9311TIP3    H227898   4.332   6.657   5.815  1.5544 -0.6342 -0.6063
 9312TIP3   OH227899   6.812   5.038   2.523  0.3732  0.3058  0.1960
 9312TIP3    H127900   6.771   5.005   2.603 -0.0849 -2.1851 -0.9776
 9312TIP3    H227901   6.745   5.091   2.481 -0.1115 -0.1095  0.4372
 9313TIP3   OH227902   4.935   6.490   4.043  0.1348  0.5722  1.2437
 9313TIP3    H127903   5.016   6.439   4.045 -1.4825 -2.2238  1.7371
 9313TIP3    H227904   4.903   6.479   3.953 -0.2160  0.7189  1.3495
 9314TIP3   OH227905   2.858   1.278   3.004 -0.8480 -0.2279 -0.3430
 9314TIP3    H127906   2.772   1.283   3.045 -0.1655 -1.3235  1.3050
 9314TIP3    H227907   2.903   1.358   3.031 -0.0390 -1.3998  2.0281
 9315TIP3   OH227908   0.923   4.310   1.231 -0.0755 -0.0974 -0.0818
 9315TIP3    H127909   0.867   4.352   1.165  0.0768  0.7670  0.3174
 9315TIP3    H227910   0.862   4.269   1.292 -0.2522 -3.5798 -2.3114
 9316TIP3   OH227911   0.818   1.534   4.896 -0.5642  0.0303 -0.6227
 9316TIP3    H127912   0.846   1.462   4.839  0.7731  1.8840 -2.4612
 9316TIP3    H227913   0.730   1.556   4.866 -0.9043 -0.7070 -0.1759
 9317TIP3   OH227914   2.174   2.402   3.538  0.1313 -0.0989 -0.0511
 9317TIP3    H127915   2.081   2.418   3.556 -0.2322 -1.8007 -0.2549
 9317TIP3    H227916   2.175   2.324   3.483  1.7359 -0.6980  0.7625
 9318TIP3   OH227917   4.290   1.741   1.833 -0.5734  0.1067 -0.1744
 9318TIP3    H127918   4.259   1.679   1.766  0.3378  0.5175 -0.9899
 9318TIP3    H227919   4.385   1.740   1.824 -0.1472 -1.9304  2.9920
 9319TIP3   OH227920   0.585   3.894   3.627  0.3765  0.0013 -0.4256
 9319TIP3    H127921   0.593   3.985   3.656 -0.5235  0.8220 -2.5607
 9319TIP3    H227922   0.509   3.860   3.673  1.0816  0.0996  0.8561
 9320TIP3   OH227923   6.113   6.782   2.249 -0.2009  0.8456 -0.2893
 9320TIP3    H127924   6.085   6.690   2.239 -0.8367  1.0613 -0.6087
 9320TIP3    H227925   6.143   6.806   2.162  0.4083  0.8032 -0.0909
 9321TIP3   OH227926   5.828   5.613   3.473 -0.2628  0.2461  0.3619
 9321TIP3    H127927   5.733   5.629   3.472 -0.5862 -1.5501 -0.7483
 9321TIP3    H227928   5.861   5.663   3.397 -0.4990 -0.0917  0.0339
 9322TIP3   OH227929   2.618   4.269   1.133  0.4844  0.0028 -0.7962
 9322TIP3    H127930   2.536   4.227   1.106 -0.2279  0.7612  0.1503
 9322TIP3    H227931   2.629   4.243   1.225  2.1472 -1.3899 -1.3224
 9323TIP3   OH227932   3.672   2.617   2.696  0.3611 -0.5406 -0.0556
 9323TIP3    H127933   3.587   2.612   2.740  0.7380  5.9924  2.6146
 9323TIP3    H227934   3.651   2.616   2.603 -3.0360  2.1760  0.4801
 9324TIP3   OH227935   0.368   5.722   5.393 -0.9920  0.1127  0.2088
 9324TIP3    H127936   0.345   5.788   5.458  0.2357 -0.1996  0.9824
 9324TIP3    H227937   0.286   5.704   5.346 -2.3267 -0.8824  2.7599
 9325TIP3   OH227938   3.816   1.271   3.110 -0.1388  0.0431  0.4883
 9325TIP3    H127939   3.736   1.285   3.160  0.3741  0.5177  1.1958
 9325TIP3    H227940   3.867   1.352   3.122  1.9856 -1.4910  2.9477
 9326TIP3   OH227941   1.163   2.331   4.716 -0.9152  0.4974 -0.4769
 9326TIP3    H127942   1.123   2.255   4.758 -1.0945  1.9626  2.2045
 9326TIP3    H227943   1.104   2.404   4.736  0.0596  1.6484 -1.6034
 9327TIP3   OH227944   4.257   2.256   3.626 -0.5403 -0.0349 -0.1519
 9327TIP3    H127945   4.208   2.220   3.553 -1.1438  0.5104 -0.0276
 9327TIP3    H227946   4.284   2.343   3.597  0.4320 -0.3507 -0.2446
 9328TIP3   OH227947   1.660   4.667   2.623  0.2827 -0.5421 -0.2599
 9328TIP3    H127948   1.691   4.722   2.696 -1.2819  0.7879 -0.5381
 9328TIP3    H227949   1.603   4.603   2.664  2.5464 -2.4549  0.1417
 9329TIP3   OH227950   4.415   5.677   1.176 -0.1834 -1.0159 -0.5595
 9329TIP3    H127951   4.351   5.678   1.106 -0.0395 -1.2562 -0.6935
 9329TIP3    H227952   4.364   5.657   1.255 -0.6326  0.9268 -0.3046
 9330TIP3   OH227953   3.396   2.447   0.454 -0.6488 -0.1361 -0.2640
 9330TIP3    H127954   3.392   2.422   0.362 -1.7026 -1.1975  0.0460
 9330TIP3    H227955   3.325   2.509   0.465  0.4912  1.2699 -0.4989
 9331TIP3   OH227956   4.880   1.053   2.682 -0.2326  0.4311  0.0427
 9331TIP3    H127957   4.974   1.052   2.703  0.0860  3.4427 -0.7256
 9331TIP3    H227958   4.838   1.084   2.762 -0.8170 -2.0666  0.7973
 9332TIP3   OH227959   7.198   3.679   1.743  0.2104  0.7013  0.1639
 9332TIP3    H127960   7.188   3.757   1.688  1.0064  0.6844 -0.0161
 9332TIP3    H227961   7.240   3.614   1.686 -2.8429 -0.8198 -0.5382
 9333TIP3   OH227962   5.470   0.441   1.691 -0.0113 -0.5727 -0.4111
 9333TIP3    H127963   5.542   0.474   1.637  1.6347 -0.6129  1.6295
 9333TIP3    H227964   5.426   0.520   1.723 -0.3975 -0.5388 -0.9979
 9334TIP3   OH227965   6.954   0.653   1.103  0.4461 -0.2172  0.2460
 9334TIP3    H127966   6.874   0.637   1.053  1.6194 -1.1633 -1.4563
 9334TIP3    H227967   7.024   0.637   1.040  1.9766  1.2461  1.5016
 9335TIP3   OH227968   3.810   2.674   1.321 -0.1854 -0.2472  0.1273
 9335TIP3    H127969   3.787   2.766   1.309  1.7855  0.3395  0.5117
 9335TIP3    H227970   3.848   2.670   1.409 -1.0613 -1.6192  0.4716
 9336TIP3   OH227971   1.204   5.564   1.815  0.1434 -0.4087  0.4709
 9336TIP3    H127972   1.274   5.621   1.845  0.8351 -1.3937  0.7667
 9336TIP3    H227973   1.236   5.527   1.733 -0.7733  0.4634 -0.3230
 9337TIP3   OH227974   1.857   1.836   5.096 -0.1546  0.1719  0.5611
 9337TIP3    H127975   1.872   1.816   5.004 -0.1620 -1.5221  0.9090
 9337TIP3    H227976   1.812   1.760   5.131 -1.7548  1.5144  1.5963
 9338TIP3   OH227977   1.952   3.258   1.063  0.4977  0.5687 -0.0936
 9338TIP3    H127978   1.996   3.195   1.006 -0.9912 -0.3843 -0.2247
 9338TIP3    H227979   2.024   3.304   1.107  1.6295 -0.2863 -0.9811
 9339TIP3   OH227980   6.205   5.616   4.317 -0.4341  0.5177 -0.0185
 9339TIP3    H127981   6.121   5.636   4.277 -0.1772  0.4877 -0.5764
 9339TIP3    H227982   6.270   5.652   4.257 -0.0430  0.4850  0.3733
 9340TIP3   OH227983   0.753   1.362   0.172 -0.7247 -0.1247 -0.4965
 9340TIP3    H127984   0.791   1.392   0.090 -2.6862  1.2488 -0.9848
 9340TIP3    H227985   0.664   1.397   0.172 -0.9978 -0.5752  1.9524
 9341TIP3   OH227986   5.136   5.367   4.466  0.3955 -0.3642  0.2524
 9341TIP3    H127987   5.207   5.370   4.530  0.4301  0.2027  0.1864
 9341TIP3    H227988   5.180   5.377   4.381  0.1469  1.1099  0.2701
 9342TIP3   OH227989   5.943   1.916   1.239  0.2911 -0.4833 -0.2132
 9342TIP3    H127990   5.850   1.909   1.258 -0.1011 -1.9262 -2.2723
 9342TIP3    H227991   5.986   1.868   1.310 -0.6350 -0.9266  0.0586
 9343TIP3   OH227992   1.202   3.914   2.980 -0.1984 -0.2245 -0.6638
 9343TIP3    H127993   1.280   3.860   2.967 -0.2675 -0.6549  0.5812
 9343TIP3    H227994   1.222   3.966   3.058 -0.7281  0.4680 -0.9834
 9344TIP3   OH227995   2.653   0.504   5.902 -0.3794  0.7409  0.1780
 9344TIP3    H127996   2.562   0.493   5.931  0.2361  0.4702  2.2015
 9344TIP3    H227997   2.651   0.485   5.809 -2.2692 -0.0109  0.3220
 9345TIP3   OH227998   1.854   2.109   1.640  0.3157 -0.1911 -0.1699
 9345TIP3    H127999   1.883   2.195   1.671 -1.4497 -0.2502  1.8797
 9345TIP3    H228000   1.878   2.049   1.711  0.2088 -1.1531 -0.9296
 9346TIP3   OH228001   3.304   2.052   3.391 -0.1911 -0.1213 -0.2224
 9346TIP3    H128002   3.242   2.003   3.446  2.1729 -0.5369  2.2897
 9346TIP3    H228003   3.256   2.132   3.368 -1.8080 -0.5547  1.3569
 9347TIP3   OH228004   2.612   5.346   3.658  0.2839  0.2634  0.3637
 9347TIP3    H128005   2.699   5.306   3.650  0.7300  1.4578 -1.2098
 9347TIP3    H228006   2.626   5.424   3.710  0.0181  0.1154  0.6622
 9348TIP3   OH228007   0.745   5.250   0.411  0.0120 -0.0820  0.2957
 9348TIP3    H128008   0.677   5.230   0.475 -2.2162 -0.2658 -1.9735
 9348TIP3    H228009   0.806   5.176   0.418 -0.8182 -0.7066  1.3632
 9349TIP3   OH228010   6.019   1.789   1.502  0.5988  0.1988  0.0582
 9349TIP3    H128011   6.078   1.810   1.574  2.3445 -1.3249 -0.8289
 9349TIP3    H228012   5.938   1.759   1.544  0.8713  1.1682  1.3263
 9350TIP3   OH228013   7.120   5.184   3.501  0.4416 -0.1419  0.0441
 9350TIP3    H128014   7.108   5.102   3.549  1.5935  0.1677  0.9130
 9350TIP3    H228015   7.163   5.159   3.420 -1.4732 -0.6656 -0.8684
 9351TIP3   OH228016   0.161   3.426   0.323  0.5636  0.1575 -0.2082
 9351TIP3    H128017   0.216   3.398   0.250  0.1039  0.8604 -0.8391
 9351TIP3    H228018   0.090   3.361   0.326  1.1495 -0.4747  0.3008
 9352TIP3   OH228019   5.123   6.537   1.805  0.5115 -0.1085  0.0779
 9352TIP3    H128020   5.119   6.443   1.822  0.1139 -0.4828 -1.7784
 9352TIP3    H228021   5.193   6.569   1.861  0.9924 -1.6111  0.3837
 9353TIP3   OH228022   2.337   5.927   4.529 -0.1879 -0.3750  0.1554
 9353TIP3    H128023   2.308   5.998   4.472  1.5347 -0.3244 -0.7254
 9353TIP3    H228024   2.433   5.929   4.523 -0.0957 -3.1033 -0.3383
 9354TIP3   OH228025   1.510   1.117   3.154 -0.4613 -0.5031  0.1847
 9354TIP3    H128026   1.545   1.188   3.101  0.5041 -1.3395 -0.3398
 9354TIP3    H228027   1.532   1.140   3.244 -0.7787  0.1877  0.0905
 9355TIP3   OH228028   1.853   3.080   0.848 -0.4242 -0.0741 -0.2133
 9355TIP3    H128029   1.758   3.083   0.862 -0.2636 -0.7924  1.1619
 9355TIP3    H228030   1.862   3.061   0.755 -1.6427 -0.7819 -0.2086
 9356TIP3   OH228031   0.152   3.787   0.525 -0.6781  0.2694 -0.0793
 9356TIP3    H128032   0.084   3.741   0.574 -0.8978  0.0730 -0.5583
 9356TIP3    H228033   0.137   3.880   0.545  0.2834  0.1073  1.5455
 9357TIP3   OH228034   5.176   2.996   5.717 -0.0495 -0.1833 -0.6627
 9357TIP3    H128035   5.194   3.052   5.792 -0.3350 -0.8525 -0.0943
 9357TIP3    H228036   5.153   2.911   5.754  2.2003 -1.2583 -1.5646
 9358TIP3   OH228037   2.186   0.950   0.326  0.0026  0.4164  0.0544
 9358TIP3    H128038   2.148   0.866   0.299  2.1721 -0.9397  0.9398
 9358TIP3    H228039   2.113   1.011   0.322 -1.6610 -1.4856 -0.6971
 9359TIP3   OH228040   5.966   0.489   5.258  0.4539 -0.0808 -0.1531
 9359TIP3    H128041   5.941   0.499   5.167  0.5971 -0.1342 -0.2000
 9359TIP3    H228042   6.045   0.543   5.267  2.3998 -2.5847 -0.9137
 9360TIP3   OH228043   3.271   1.759   0.692  0.3575  0.4708  0.5805
 9360TIP3    H128044   3.336   1.824   0.666  1.1583 -0.8085 -0.7501
 9360TIP3    H228045   3.211   1.807   0.749  2.5034  1.6920  1.9629
 9361TIP3   OH228046   3.985   5.260   4.906  0.0133 -0.0485  0.3892
 9361TIP3    H128047   3.943   5.181   4.942 -2.3443 -0.3945 -2.6920
 9361TIP3    H228048   4.058   5.277   4.965  0.2094 -4.1124  1.6372
 9362TIP3   OH228049   4.588   1.957   2.671 -0.1125  0.2799 -0.2746
 9362TIP3    H128050   4.676   1.929   2.645 -0.2450 -0.2274 -0.1896
 9362TIP3    H228051   4.530   1.917   2.607 -0.3356  0.0741  0.0500
 9363TIP3   OH228052   6.734   0.282   5.623 -0.1547 -0.1177  0.1316
 9363TIP3    H128053   6.754   0.370   5.656 -1.8572  0.8726 -1.2897
 9363TIP3    H228054   6.802   0.266   5.557  0.0788  0.2075  0.2865
 9364TIP3   OH228055   2.539   4.849   0.628 -0.1181  0.0645  0.5064
 9364TIP3    H128056   2.471   4.918   0.626 -0.4014 -0.2185  0.2721
 9364TIP3    H228057   2.531   4.806   0.544  0.3904  0.0566  0.4614
 9365TIP3   OH228058   0.599   5.827   3.273  0.3442 -0.5941  0.7921
 9365TIP3    H128059   0.527   5.821   3.336 -0.7733 -1.0888 -0.4937
 9365TIP3    H228060   0.605   5.920   3.251 -1.6191 -0.8081 -0.9635
 9366TIP3   OH228061   6.433   1.685   2.423 -0.2303  0.0860 -0.4734
 9366TIP3    H128062   6.499   1.727   2.368  0.3971 -1.3283 -0.8365
 9366TIP3    H228063   6.468   1.597   2.440 -1.9490 -0.6416 -0.5296
 9367TIP3   OH228064   1.784   2.339   4.677  0.5040 -0.2953  0.6099
 9367TIP3    H128065   1.826   2.264   4.636 -1.3158  0.0476 -2.1915
 9367TIP3    H228066   1.723   2.301   4.741 -0.9388 -1.3718 -1.2911
 9368TIP3   OH228067   5.823   0.540   5.898 -0.2593  0.0535  0.3194
 9368TIP3    H128068   5.917   0.542   5.917 -0.0994  0.3913 -0.4510
 9368TIP3    H228069   5.814   0.594   5.819 -1.1202  0.1399  0.4691
 9369TIP3   OH228070   4.789   4.649   4.563  0.4436  0.2148  0.1642
 9369TIP3    H128071   4.826   4.735   4.583  1.2032  0.1604 -0.9022
 9369TIP3    H228072   4.695   4.662   4.565  0.5468  1.0220  0.2664
 9370TIP3   OH228073   0.196   4.702   3.636 -0.0906 -0.0427  0.5482
 9370TIP3    H128074   0.139   4.689   3.560  0.8519  1.0049 -0.3578
 9370TIP3    H228075   0.165   4.637   3.700 -0.8076 -1.0375 -0.7629
 9371TIP3   OH228076   4.893   3.774   4.778 -0.5136 -0.1051 -0.2287
 9371TIP3    H128077   4.863   3.803   4.865 -0.1665  0.3803 -0.2675
 9371TIP3    H228078   4.843   3.828   4.716  1.1620  1.4929 -0.2808
 9372TIP3   OH228079   5.492   4.562   0.723 -0.3519  0.8880  0.0745
 9372TIP3    H128080   5.460   4.548   0.634  0.3837  0.9422 -0.2037
 9372TIP3    H228081   5.548   4.640   0.716 -0.1812  0.8091  0.5511
 9373TIP3   OH228082   2.971   2.255   2.845 -0.0932  0.0377 -0.1072
 9373TIP3    H128083   3.040   2.216   2.899  1.4078  1.7985 -0.6380
 9373TIP3    H228084   2.948   2.336   2.891 -0.1272  0.6155 -1.0966
 9374TIP3   OH228085   2.691   6.634   2.378  0.0215  0.3514  0.1106
 9374TIP3    H128086   2.729   6.697   2.438 -0.4041  1.2810 -0.5785
 9374TIP3    H228087   2.620   6.594   2.428 -0.8601  1.7028 -0.0186
 9375TIP3   OH228088   5.170   0.819   3.384 -0.6585 -0.4465  0.2372
 9375TIP3    H128089   5.135   0.731   3.370 -2.2541  0.3752 -1.2499
 9375TIP3    H228090   5.262   0.805   3.408 -0.3814 -2.4603 -1.7460
 9376TIP3   OH228091   7.205   1.402   4.235  0.0871 -0.6371 -0.4164
 9376TIP3    H128092   7.169   1.381   4.148  0.7913  2.9697 -1.7541
 9376TIP3    H228093   7.173   1.491   4.253  2.1467 -0.2421  1.8004
 9377TIP3   OH228094   3.386   4.512   1.637  0.0727  0.1589 -0.2637
 9377TIP3    H128095   3.390   4.552   1.724 -1.5698  0.1724 -0.1602
 9377TIP3    H228096   3.475   4.480   1.621  0.7241  1.3250  0.8462
 9378TIP3   OH228097   1.672   1.942   0.420  0.2863  0.0126 -0.1781
 9378TIP3    H128098   1.693   1.913   0.332  2.1441 -1.1466  0.5933
 9378TIP3    H228099   1.702   1.871   0.477  0.2541  1.2528  1.4716
 9379TIP3   OH228100   2.983   2.075   5.033 -0.2279  0.0687 -0.1270
 9379TIP3    H128101   3.018   2.157   5.067  0.1015 -0.5243  1.0133
 9379TIP3    H228102   3.055   2.037   4.982 -0.0605  0.0534  0.1188
 9380TIP3   OH228103   0.933   3.643   2.462  0.1217 -0.2695  0.7907
 9380TIP3    H128104   0.848   3.687   2.454  0.2386 -0.0009  1.0210
 9380TIP3    H228105   0.992   3.710   2.495  0.0043 -0.9322  2.4430
 9381TIP3   OH228106   4.806   2.856   1.215 -0.3424  0.1119 -0.1352
 9381TIP3    H128107   4.894   2.839   1.249 -0.3959  0.4503  0.1743
 9381TIP3    H228108   4.803   2.808   1.132  0.1010  0.0175 -0.0998
 9382TIP3   OH228109   4.587   5.934   2.503  0.3764 -0.7022  0.0909
 9382TIP3    H128110   4.550   5.853   2.538  0.8708 -0.5232  1.0566
 9382TIP3    H228111   4.681   5.926   2.518  0.2623  0.8774  2.0110
 9383TIP3   OH228112   4.271   3.769   2.004 -0.4549  0.1259 -0.1441
 9383TIP3    H128113   4.256   3.690   1.952 -0.8590 -0.3387  0.6557
 9383TIP3    H228114   4.254   3.742   2.094  0.7145  0.7955  0.2900
 9384TIP3   OH228115   1.273   1.762   4.361 -0.7840 -0.1366  0.1896
 9384TIP3    H128116   1.234   1.679   4.334  0.0107 -0.7381  0.8412
 9384TIP3    H228117   1.235   1.780   4.447 -0.4071 -0.2042  0.3729
 9385TIP3   OH228118   1.000   6.201   3.079 -0.0967 -0.9073  0.1003
 9385TIP3    H128119   0.998   6.107   3.095 -0.5138 -1.0629 -0.8065
 9385TIP3    H228120   1.055   6.211   3.001  1.8347 -0.1751  1.4860
 9386TIP3   OH228121   2.582   3.242   5.412  0.1434 -0.2741  0.3180
 9386TIP3    H128122   2.564   3.281   5.326  0.4820 -1.8065 -0.4917
 9386TIP3    H228123   2.677   3.243   5.419  0.0801  1.4064  1.4747
 9387TIP3   OH228124   5.019   2.913   5.203  0.2830  0.3412  0.2472
 9387TIP3    H128125   5.052   2.940   5.289  0.7081  1.0260 -0.1254
 9387TIP3    H228126   5.053   2.978   5.143 -0.3758  0.1095 -0.3888
 9388TIP3   OH228127   2.338   4.210   1.100 -0.1318  0.3337 -0.1908
 9388TIP3    H128128   2.287   4.196   1.020 -0.7217  0.6738  0.1281
 9388TIP3    H228129   2.279   4.257   1.159  0.6251  0.9421  0.0953
 9389TIP3   OH228130   6.527   3.088   5.285  0.1370  0.0179 -0.1234
 9389TIP3    H128131   6.584   3.057   5.355 -1.3134 -0.4379  0.8837
 9389TIP3    H228132   6.582   3.149   5.235  1.3287  0.0196  1.1386
 9390TIP3   OH228133   4.509   2.933   1.856  0.1515 -0.3692  0.6906
 9390TIP3    H128134   4.507   2.951   1.950 -0.7783  1.3937  0.3924
 9390TIP3    H228135   4.445   2.864   1.843 -1.2033  0.7392  1.1550
 9391TIP3   OH228136   0.337   5.654   0.062  0.1489  0.1644 -0.1337
 9391TIP3    H128137   0.423   5.617   0.041  0.7077  1.4473 -0.1694
 9391TIP3    H228138   0.354   5.720   0.128 -0.7589  0.7241 -0.4328
 9392TIP3   OH228139   3.178   3.956   0.940  0.1278 -0.9085 -0.3639
 9392TIP3    H128140   3.110   3.891   0.957 -0.4789 -0.0832  0.4276
 9392TIP3    H228141   3.136   4.021   0.885  0.2927 -0.4250  0.0759
 9393TIP3   OH228142   5.315   0.169   5.051  0.5956  0.0502 -0.5208
 9393TIP3    H128143   5.363   0.250   5.036  1.8894 -0.5161  0.3973
 9393TIP3    H228144   5.230   0.198   5.084  1.1348  1.0432  0.0524
 9394TIP3   OH228145   2.402   2.376   1.054  0.1297 -0.0454  0.8391
 9394TIP3    H128146   2.314   2.352   1.080  0.2256 -0.6574  0.6071
 9394TIP3    H228147   2.452   2.379   1.136  0.5382 -2.3965  0.7245
 9395TIP3   OH228148   4.253   3.982   1.371  0.2780 -0.0737  0.6886
 9395TIP3    H128149   4.229   3.954   1.283  4.4385 -0.4001 -0.5747
 9395TIP3    H228150   4.238   3.905   1.425 -0.9271 -0.3584 -0.0199
 9396TIP3   OH228151   3.145   1.124   5.872  0.2653 -0.4994 -0.5665
 9396TIP3    H128152   3.135   1.055   5.938  0.7787 -0.2620 -0.2380
 9396TIP3    H228153   3.233   1.111   5.837  0.0435 -0.5413 -1.1218
 9397TIP3   OH228154   5.046   5.293   3.369 -0.4026  0.1513  0.0065
 9397TIP3    H128155   5.059   5.338   3.286  0.1785 -1.2882 -0.7177
 9397TIP3    H228156   5.105   5.337   3.430 -0.0056  0.4991 -0.6168
 9398TIP3   OH228157   6.918   5.603   1.661 -0.0992  0.1600 -0.2660
 9398TIP3    H128158   6.828   5.624   1.686 -0.3276  0.7949 -1.5373
 9398TIP3    H228159   6.967   5.610   1.742 -0.7356  2.5198 -0.0051
 9399TIP3   OH228160   5.765   1.260   0.445  0.3779 -0.3459  0.2928
 9399TIP3    H128161   5.696   1.276   0.510  0.3208 -0.2016  0.1974
 9399TIP3    H228162   5.818   1.190   0.483  1.1227  0.6279  1.0998
 9400TIP3   OH228163   4.113   1.662   1.569 -0.1150 -0.3384  0.0166
 9400TIP3    H128164   4.128   1.691   1.479 -1.6270 -2.8089 -1.1523
 9400TIP3    H228165   4.163   1.581   1.577  0.3174  0.0498  1.5691
 9401TIP3   OH228166   2.772   4.479   1.066  0.3760  0.2315  0.5097
 9401TIP3    H128167   2.744   4.390   1.089 -1.1870  0.8467  1.1102
 9401TIP3    H228168   2.839   4.501   1.131 -0.4702  0.1295  1.4199
 9402TIP3   OH228169   0.973   0.715   4.368 -0.3202 -0.2500 -0.2654
 9402TIP3    H128170   0.993   0.624   4.347  0.5720  0.0724 -0.8664
 9402TIP3    H228171   0.878   0.721   4.362 -0.3399 -1.0007 -0.8019
 9403TIP3   OH228172   1.881   4.352   0.101 -0.0025 -0.5582 -0.0091
 9403TIP3    H128173   1.834   4.276   0.135  0.1250 -0.1783  1.0570
 9403TIP3    H228174   1.954   4.315   0.051  1.2125 -1.1802  2.1079
 9404TIP3   OH228175   6.102   1.107   3.425 -0.6412  0.0160  0.4471
 9404TIP3    H128176   6.033   1.166   3.455 -1.1358  0.1395 -0.8748
 9404TIP3    H228177   6.099   1.113   3.330  0.7508 -0.4992  0.3425
 9405TIP3   OH228178   0.845   4.107   4.705  0.5747 -0.3115  0.1389
 9405TIP3    H128179   0.825   4.146   4.620 -0.5400  0.4810  0.7443
 9405TIP3    H228180   0.760   4.087   4.743  1.0688 -0.8738  0.9863
 9406TIP3   OH228181   6.914   1.383   4.531 -0.5839  0.3229 -0.0687
 9406TIP3    H128182   6.924   1.452   4.466 -0.5380 -0.9759 -1.4965
 9406TIP3    H228183   6.873   1.427   4.606 -0.7828  1.8357 -1.0115
 9407TIP3   OH228184   6.260   2.110   1.679  0.5079 -0.4840  0.3715
 9407TIP3    H128185   6.307   2.161   1.745  1.6919 -0.6382 -0.3318
 9407TIP3    H228186   6.328   2.065   1.630 -0.4889 -3.4932  1.4976
 9408TIP3   OH228187   3.535   5.338   0.910 -0.5743  0.1847  0.7093
 9408TIP3    H128188   3.591   5.288   0.969  0.3554  1.2434  0.7553
 9408TIP3    H228189   3.580   5.422   0.900 -0.8656  0.1488 -1.2630
 9409TIP3   OH228190   5.567   5.592   0.489 -0.0043 -0.0348  0.0755
 9409TIP3    H128191   5.580   5.612   0.396 -1.9418  0.4399 -0.1517
 9409TIP3    H228192   5.624   5.653   0.535 -0.0307  0.6581 -0.7847
 9410TIP3   OH228193   5.173   3.568   0.176 -0.3836  0.4625 -0.4971
 9410TIP3    H128194   5.254   3.529   0.209  0.4699  0.3131 -2.5993
 9410TIP3    H228195   5.193   3.661   0.164  0.3604  0.0558 -3.2157
 9411TIP3   OH228196   5.696   4.438   2.624  0.5639 -0.5720  0.0119
 9411TIP3    H128197   5.632   4.458   2.692  0.7070  0.2811 -0.0965
 9411TIP3    H228198   5.646   4.391   2.557  0.0542  0.0326 -0.0413
 9412TIP3   OH228199   0.022   2.904   3.950 -0.0569  0.3410 -0.8173
 9412TIP3    H128200  -0.016   2.987   3.919 -0.0045  0.2258 -1.1909
 9412TIP3    H228201   0.116   2.919   3.950 -0.1357  1.1033  1.4572
 9413TIP3   OH228202   3.433   0.737   1.145  0.3286  0.2068  0.0722
 9413TIP3    H128203   3.520   0.711   1.117  0.3812 -0.5709  0.8984
 9413TIP3    H228204   3.429   0.713   1.238 -1.1368 -0.7814 -0.2096
 9414TIP3   OH228205   0.544   5.327   0.145 -0.1649 -0.0288  0.2755
 9414TIP3    H128206   0.596   5.345   0.224 -1.0086  1.1973  0.5650
 9414TIP3    H228207   0.456   5.308   0.178 -0.4594  0.2179 -0.3573
 9415TIP3   OH228208   0.614   4.444   1.236 -0.2305  0.2499 -0.4151
 9415TIP3    H128209   0.537   4.500   1.247 -0.3970  0.0608 -0.5968
 9415TIP3    H228210   0.589   4.361   1.277  0.4296  0.6639  0.8753
 9416TIP3   OH228211   6.401   0.106   0.445 -0.3950 -0.0687 -0.1643
 9416TIP3    H128212   6.362   0.082   0.361 -2.8864  0.4918  0.7554
 9416TIP3    H228213   6.445   0.026   0.474 -3.3259 -1.7795  0.0052
 9417TIP3   OH228214   1.403   2.628   4.520 -0.1147  0.0696  0.2086
 9417TIP3    H128215   1.473   2.650   4.458 -0.6418  0.3194 -0.3100
 9417TIP3    H228216   1.396   2.533   4.515  0.5821 -0.0180  0.7074
 9418TIP3   OH228217   4.603   3.585   3.232  0.7245 -0.3202 -0.2132
 9418TIP3    H128218   4.667   3.619   3.169  0.0986 -1.0450 -1.2843
 9418TIP3    H228219   4.533   3.651   3.233  1.6919  0.7371  1.3633
 9419TIP3   OH228220   1.430   1.672   3.752 -0.4735  0.2265 -0.0454
 9419TIP3    H128221   1.429   1.667   3.847  1.8168  0.5941  0.0529
 9419TIP3    H228222   1.406   1.762   3.732 -1.3212  0.0485  0.1602
 9420TIP3   OH228223   6.448   3.245   3.384 -0.4076  0.7201 -0.7823
 9420TIP3    H128224   6.469   3.231   3.476 -0.3989 -2.6567 -1.1805
 9420TIP3    H228225   6.513   3.308   3.354 -0.5349  2.0609  1.4955
 9421TIP3   OH228226   6.229   6.359   0.895  0.2428 -0.3002  0.2053
 9421TIP3    H128227   6.284   6.401   0.961 -0.8125  1.9642 -0.2788
 9421TIP3    H228228   6.285   6.351   0.818 -0.1882  2.5805 -0.4963
 9422TIP3   OH228229   0.564   6.246   1.332 -0.2780  0.1048 -0.1108
 9422TIP3    H128230   0.550   6.152   1.329  0.6316 -0.0743  0.6389
 9422TIP3    H228231   0.476   6.284   1.339 -0.7916 -0.5586 -2.3476
 9423TIP3   OH228232   3.401   0.850   0.278 -0.7489 -0.1225  0.1386
 9423TIP3    H128233   3.453   0.929   0.293 -0.4746 -0.5462  1.5448
 9423TIP3    H228234   3.369   0.825   0.365 -1.4482 -1.1385 -0.3932
 9424TIP3   OH228235   2.616   5.580   1.845 -0.5007  0.2527 -0.1536
 9424TIP3    H128236   2.606   5.589   1.750  3.1078 -2.8319 -1.0721
 9424TIP3    H228237   2.692   5.635   1.866  0.4294 -1.1560  0.3346
 9425TIP3   OH228238   0.950   2.307   1.611  0.1893  0.0596 -0.4127
 9425TIP3    H128239   0.885   2.236   1.611 -1.6053  1.5778  0.7539
 9425TIP3    H228240   0.935   2.353   1.528  0.2806 -0.0108 -0.4685
 9426TIP3   OH228241   5.611   2.963   1.043 -0.3301 -0.2828 -0.2394
 9426TIP3    H128242   5.638   2.910   1.118 -1.2069 -1.3054 -0.6331
 9426TIP3    H228243   5.694   2.988   1.001  0.1497 -0.0694  0.7896
 9427TIP3   OH228244   0.306   4.701   1.747 -0.4843  0.2434  0.4434
 9427TIP3    H128245   0.252   4.622   1.747 -0.5895  0.2988 -0.5458
 9427TIP3    H228246   0.288   4.744   1.830  0.6690 -1.5178  1.6661
 9428TIP3   OH228247   0.257   5.440   1.822 -0.3353 -0.5902  0.1227
 9428TIP3    H128248   0.253   5.346   1.807 -0.2205 -0.7153  0.8383
 9428TIP3    H228249   0.342   5.467   1.789 -0.5687 -0.6463 -0.5402
 9429TIP3   OH228250   1.293   2.354   4.447  0.3454 -0.3878  0.5465
 9429TIP3    H128251   1.225   2.335   4.512  0.5214 -2.2383  0.2565
 9429TIP3    H228252   1.336   2.269   4.432  0.7379  0.1154 -1.5038
 9430TIP3   OH228253   5.954   2.541   1.867 -0.2030 -1.1911  0.5371
 9430TIP3    H128254   5.953   2.630   1.903  1.7074 -1.1006  0.4450
 9430TIP3    H228255   6.038   2.534   1.822  0.0774 -3.3494  1.2891
 9431TIP3   OH228256   0.748   5.185   3.143  0.5482 -0.2189 -0.1941
 9431TIP3    H128257   0.815   5.178   3.076 -0.3551 -0.9761 -1.0483
 9431TIP3    H228258   0.758   5.273   3.179 -0.2775  1.0269 -2.7954
 9432TIP3   OH228259   2.825   6.643   4.054  0.1419  0.3857 -0.5960
 9432TIP3    H128260   2.736   6.658   4.084  0.5374  0.3444  0.6546
 9432TIP3    H228261   2.866   6.730   4.055  0.9956  0.0513  1.9013
 9433TIP3   OH228262   6.334   4.544   3.712  0.1239  0.5189 -0.4429
 9433TIP3    H128263   6.347   4.450   3.723 -0.6692  0.4454 -0.0778
 9433TIP3    H228264   6.256   4.551   3.657  1.0375  0.9551 -1.7300
 9434TIP3   OH228265   2.126   5.232   2.326  0.1770  0.2615 -0.0672
 9434TIP3    H128266   2.055   5.199   2.381 -0.3098 -1.1184 -1.4674
 9434TIP3    H228267   2.126   5.327   2.342 -0.7303  0.0534  1.3698
 9435TIP3   OH228268   2.118   1.515   5.074 -0.0106 -0.0353  0.2626
 9435TIP3    H128269   2.182   1.584   5.062 -0.2892  0.0412 -0.8558
 9435TIP3    H228270   2.107   1.509   5.169 -0.4463  1.8799  0.3671
 9436TIP3   OH228271   1.001   2.742   3.541 -0.0495 -0.1041 -0.0153
 9436TIP3    H128272   0.958   2.784   3.615 -0.9108 -0.2430 -0.4255
 9436TIP3    H228273   0.941   2.672   3.515 -0.7230  1.1842 -2.0956
 9437TIP3   OH228274   2.536   5.640   3.053 -0.1402  0.0002 -0.0878
 9437TIP3    H128275   2.532   5.639   2.957 -0.0541  1.2435 -0.1165
 9437TIP3    H228276   2.629   5.645   3.073 -0.1987  0.5023  0.0510
 9438TIP3   OH228277   6.150   1.194   1.519  0.0345 -0.0234 -0.5204
 9438TIP3    H128278   6.148   1.100   1.501 -0.0217 -0.1103 -0.0770
 9438TIP3    H228279   6.158   1.200   1.614 -0.9757  0.4228 -0.4473
 9439TIP3   OH228280   5.958   2.913   0.510 -0.1026 -0.6996 -0.5551
 9439TIP3    H128281   6.005   2.924   0.427 -0.0238  1.7579 -0.2604
 9439TIP3    H228282   5.866   2.913   0.485 -0.0935 -3.3982 -0.9127
 9440TIP3   OH228283   4.406   0.453   2.868 -0.3635  0.7522  0.4023
 9440TIP3    H128284   4.375   0.448   2.778 -2.0318 -0.6941  1.0067
 9440TIP3    H228285   4.500   0.474   2.860 -0.9804  3.2733 -1.5422
 9441TIP3   OH228286   4.039   6.506   5.732  0.1742 -0.2727  0.1558
 9441TIP3    H128287   4.086   6.516   5.650  3.5158 -1.1324  1.7805
 9441TIP3    H228288   4.033   6.411   5.745  2.8810 -0.2626  2.3999
 9442TIP3   OH228289   1.043   5.674   2.542  0.3687  0.2902 -0.1541
 9442TIP3    H128290   1.138   5.660   2.546  0.3515 -0.0144 -0.7508
 9442TIP3    H228291   1.011   5.648   2.628  0.6806 -0.7436 -0.3402
 9443TIP3   OH228292   0.705   3.233   2.073 -0.2254 -0.3149  0.1596
 9443TIP3    H128293   0.718   3.254   2.165  1.0417 -0.8171  0.1115
 9443TIP3    H228294   0.611   3.244   2.059 -0.2459  0.9928  1.1904
 9444TIP3   OH228295   5.612   2.347   0.095 -0.0312  0.2455 -0.8776
 9444TIP3    H128296   5.648   2.274   0.046  2.2149  0.1282  0.7848
 9444TIP3    H228297   5.585   2.310   0.180 -1.4981  0.8806 -1.0209
 9445TIP3   OH228298   1.614   0.507   3.483  0.2284  0.4377 -0.0269
 9445TIP3    H128299   1.681   0.466   3.538  0.0557 -0.3436 -0.3853
 9445TIP3    H228300   1.531   0.485   3.527  0.0667 -0.4756 -0.7741
 9446TIP3   OH228301   0.515   2.820   1.920 -0.4751 -0.0257  0.2565
 9446TIP3    H128302   0.467   2.892   1.880  0.5062  0.2976 -0.3633
 9446TIP3    H228303   0.607   2.844   1.910 -0.1783 -0.4355  1.7882
 9447TIP3   OH228304   0.837   5.635   4.025  0.0190  0.1486  0.6372
 9447TIP3    H128305   0.807   5.603   3.940 -1.2507 -0.7673  1.4075
 9447TIP3    H228306   0.894   5.709   4.003  0.3007 -0.5109 -1.0369
 9448TIP3   OH228307   1.542   1.706   1.672  0.4673 -0.1199  0.1963
 9448TIP3    H128308   1.496   1.726   1.753  1.3193  1.5889  0.3031
 9448TIP3    H228309   1.568   1.791   1.637  1.3843 -0.8960 -1.1264
 9449TIP3   OH228310   6.772   1.332   2.482  0.1966  0.4450  0.3103
 9449TIP3    H128311   6.813   1.418   2.469  1.4631 -0.1629  0.1046
 9449TIP3    H228312   6.795   1.308   2.572 -0.4624  0.4647  0.4913
 9450TIP3   OH228313   1.883   6.262   1.575 -0.2226  0.1411  0.0271
 9450TIP3    H128314   1.909   6.352   1.556  1.1340 -0.0484  0.8787
 9450TIP3    H228315   1.938   6.209   1.517 -1.0741 -0.1479 -0.5290
 9451TIP3   OH228316   6.203   5.210   4.387 -0.5965 -0.0819  0.0125
 9451TIP3    H128317   6.119   5.254   4.377 -0.0643  0.6670 -1.2695
 9451TIP3    H228318   6.259   5.275   4.430 -1.1900 -1.2703  2.8504
 9452TIP3   OH228319   2.346   0.832   4.636  0.0428 -0.0970 -0.4038
 9452TIP3    H128320   2.322   0.897   4.702  0.1569 -1.0664  0.6258
 9452TIP3    H228321   2.424   0.789   4.672  0.6233 -0.0658 -1.5828
 9453TIP3   OH228322   4.036   2.489   5.437 -0.6738  0.6544 -0.7197
 9453TIP3    H128323   4.006   2.402   5.413 -1.5413  0.6805  0.1794
 9453TIP3    H228324   3.983   2.549   5.384  0.2617  0.6403 -1.6956
 9454TIP3   OH228325   0.580   1.914   5.740  0.3150 -0.5482  0.3358
 9454TIP3    H128326   0.635   1.951   5.671  0.3622  0.3934  0.8649
 9454TIP3    H228327   0.593   1.819   5.732 -0.5482 -0.5406 -1.6446
 9455TIP3   OH228328   2.065   1.319   5.391  0.4036  0.1751  0.0582
 9455TIP3    H128329   2.151   1.301   5.354  0.9055 -0.1955  1.3562
 9455TIP3    H228330   2.057   1.414   5.390  0.8775  0.2146  0.0553
 9456TIP3   OH228331   4.886   1.992   1.307 -0.1853 -0.8919  0.3980
 9456TIP3    H128332   4.930   1.951   1.233 -2.6976 -0.4848 -1.4544
 9456TIP3    H228333   4.890   2.086   1.289 -2.0919 -0.8620 -0.0647
 9457TIP3   OH228334   3.754   6.309   2.782  0.2323 -0.5758  0.1293
 9457TIP3    H128335   3.770   6.349   2.697 -1.8979  0.3415  0.1031
 9457TIP3    H228336   3.683   6.247   2.767  0.4606 -1.0807  1.0636
 9458TIP3   OH228337   0.749   0.462   1.198  0.1552 -0.1585 -0.3350
 9458TIP3    H128338   0.700   0.402   1.255  0.8239 -0.3666  0.0264
 9458TIP3    H228339   0.697   0.543   1.199  0.0274 -0.2436  0.3672
 9459TIP3   OH228340   4.536   3.927   0.449  0.2732  0.5340  0.1237
 9459TIP3    H128341   4.609   3.882   0.491  0.5700  0.9376  0.0525
 9459TIP3    H228342   4.492   3.974   0.520 -1.1313 -1.2720  0.5239
 9460TIP3   OH228343   5.275   6.724   5.593 -0.2181  0.1573 -0.0518
 9460TIP3    H128344   5.208   6.669   5.634 -0.6899  1.1302  0.5182
 9460TIP3    H228345   5.309   6.778   5.664 -0.3143  1.1479 -0.7308
 9461TIP3   OH228346   4.358   5.659   3.646  0.6388 -0.3102 -0.2167
 9461TIP3    H128347   4.349   5.733   3.707 -0.4585  0.8731 -1.7490
 9461TIP3    H228348   4.277   5.659   3.595  1.0493 -1.9680 -0.9354
 9462TIP3   OH228349   3.085   3.645   2.743  0.0764 -0.4685  0.6361
 9462TIP3    H128350   3.163   3.700   2.736 -0.6958  0.5273 -0.6872
 9462TIP3    H228351   3.055   3.636   2.652 -1.6615 -0.3420  1.1735
 9463TIP3   OH228352   2.864   5.774   5.312  0.3922 -0.4805 -0.3943
 9463TIP3    H128353   2.887   5.861   5.278  0.2824 -1.0378 -1.9713
 9463TIP3    H228354   2.944   5.722   5.303  0.6578 -0.4083  1.1638
 9464TIP3   OH228355   3.750   6.028   0.910  0.1722  0.2792 -0.1136
 9464TIP3    H128356   3.832   6.012   0.957  0.9232 -0.0397 -1.4514
 9464TIP3    H228357   3.752   5.965   0.838 -0.8410  0.8475 -0.6591
 9465TIP3   OH228358   6.834   3.796   5.745  0.3446  0.3889 -0.1630
 9465TIP3    H128359   6.873   3.731   5.804  1.1104  0.9214 -0.0793
 9465TIP3    H228360   6.744   3.764   5.732  0.7281 -0.7293 -0.1857
 9466TIP3   OH228361   3.232   3.294   2.347  0.0106  0.2242  0.3815
 9466TIP3    H128362   3.260   3.238   2.419 -0.4908 -0.3146  0.1666
 9466TIP3    H228363   3.137   3.281   2.341  0.0181  0.4004 -0.2546
 9467TIP3   OH228364   0.882   1.870   0.742 -0.5346 -0.7911 -0.6919
 9467TIP3    H128365   0.829   1.842   0.668  0.0248 -1.1354 -0.9673
 9467TIP3    H228366   0.916   1.789   0.780  0.6326 -0.5438 -1.1505
 9468TIP3   OH228367   2.881   4.278   3.407  0.5983 -0.0436  0.2032
 9468TIP3    H128368   2.839   4.263   3.492  1.5919 -2.6971  0.3136
 9468TIP3    H228369   2.817   4.247   3.343  0.0669  1.4556 -0.0264
 9469TIP3   OH228370   3.032   1.748   0.863 -0.5990  0.0427 -0.2428
 9469TIP3    H128371   2.962   1.762   0.798 -1.0189  0.3716  0.2707
 9469TIP3    H228372   3.008   1.666   0.907 -0.5425  0.0401 -0.2171
 9470TIP3   OH228373   5.538   0.428   2.654 -0.0640  0.0357 -0.1976
 9470TIP3    H128374   5.532   0.342   2.695 -0.8720  0.4937  0.6883
 9470TIP3    H228375   5.623   0.462   2.682 -0.6105  0.3479  1.1527
 9471TIP3   OH228376   3.838   5.558   1.519 -0.0618 -0.7728 -0.1257
 9471TIP3    H128377   3.926   5.557   1.555  0.1617 -1.6952 -0.6716
 9471TIP3    H228378   3.849   5.536   1.427 -0.6570  1.2012 -0.7217
 9472TIP3   OH228379   4.511   4.731   2.312 -0.6834  0.2198 -0.1593
 9472TIP3    H128380   4.505   4.707   2.219  2.9791  0.5731 -0.6417
 9472TIP3    H228381   4.504   4.826   2.313 -0.9676  0.1982 -0.0327
 9473TIP3   OH228382   1.832   2.226   5.391 -0.2520  0.1695 -0.3570
 9473TIP3    H128383   1.799   2.292   5.331  0.3767  1.4853  0.7052
 9473TIP3    H228384   1.877   2.162   5.335 -0.1286  1.0901 -1.3232
 9474TIP3   OH228385   0.060   5.188   4.350 -0.2399 -0.5568 -0.0176
 9474TIP3    H128386  -0.004   5.257   4.333  0.5342  0.0917 -0.3948
 9474TIP3    H228387   0.120   5.194   4.276  0.1878 -1.2275  0.2738
 9475TIP3   OH228388   2.104   3.903   2.783 -0.2489  0.2581 -0.2245
 9475TIP3    H128389   2.047   3.838   2.743 -1.1436 -0.2956  1.8496
 9475TIP3    H228390   2.188   3.859   2.793 -0.5026 -0.1689  0.0446
 9476TIP3   OH228391   2.946   4.915   3.553 -0.6982  0.0398 -0.3258
 9476TIP3    H128392   2.886   4.988   3.567  0.2870  0.7553  0.3528
 9476TIP3    H228393   2.901   4.858   3.490 -1.9761  0.6442  0.0100
 9477TIP3   OH228394   2.780   0.850   3.651  0.0182  0.4418 -0.3458
 9477TIP3    H128395   2.781   0.910   3.576 -2.1428  0.6201 -0.2999
 9477TIP3    H228396   2.796   0.764   3.613 -0.1362  0.6447 -0.8749
 9478TIP3   OH228397   1.212   2.791   5.122  0.2182  0.5967  0.6405
 9478TIP3    H128398   1.231   2.860   5.185  1.5926  1.3617 -0.5527
 9478TIP3    H228399   1.282   2.727   5.133 -0.0326  0.2892  0.4993
 9479TIP3   OH228400   4.768   6.064   2.163 -0.1280 -0.6162  0.1656
 9479TIP3    H128401   4.689   6.025   2.200  0.3214 -2.0910 -0.3635
 9479TIP3    H228402   4.840   6.009   2.196  0.9667  1.9205  2.3850
 9480TIP3   OH228403   0.187   1.816   2.097 -0.2008 -0.1748 -0.2171
 9480TIP3    H128404   0.245   1.742   2.080 -0.2035 -0.5551  1.3018
 9480TIP3    H228405   0.126   1.817   2.024  1.9335  0.4954 -2.1333
 9481TIP3   OH228406   0.159   1.099   3.037  0.2329 -0.0236  0.0718
 9481TIP3    H128407   0.065   1.110   3.051  0.0923  0.8144 -1.3047
 9481TIP3    H228408   0.182   1.021   3.088 -0.8561  0.7314  1.8017
 9482TIP3   OH228409   2.598   6.182   2.309 -0.0342  0.2870 -0.0917
 9482TIP3    H128410   2.645   6.111   2.264 -0.2605 -0.6178  1.0396
 9482TIP3    H228411   2.526   6.204   2.250  0.6553  0.3071 -0.9368
 9483TIP3   OH228412   1.275   0.425   4.388  0.1777  0.2847  0.0869
 9483TIP3    H128413   1.198   0.431   4.444 -0.5845  0.0100 -0.9090
 9483TIP3    H228414   1.295   0.516   4.366  1.3470  0.5185  1.9080
 9484TIP3   OH228415   3.472   2.007   2.321 -0.2108 -0.9904 -0.3838
 9484TIP3    H128416   3.493   1.925   2.277  0.7770 -0.1160 -1.5947
 9484TIP3    H228417   3.557   2.045   2.343 -0.6597 -0.9403  1.4529
 9485TIP3   OH228418   2.819   6.398   1.846 -0.1569  0.1028 -0.0767
 9485TIP3    H128419   2.830   6.328   1.782 -0.4536 -2.8586  2.8061
 9485TIP3    H228420   2.729   6.387   1.878 -0.1098  1.6308  0.6632
 9486TIP3   OH228421   1.092   1.790   3.464 -0.2391  0.2400  0.2942
 9486TIP3    H128422   1.107   1.782   3.559 -1.6204  0.4477  0.5476
 9486TIP3    H228423   1.096   1.700   3.432 -0.7392  0.0634  0.7143
 9487TIP3   OH228424   1.129   3.283   0.534 -0.3825 -0.1443  0.6392
 9487TIP3    H128425   1.203   3.256   0.587  0.5377  0.3264 -0.3597
 9487TIP3    H228426   1.056   3.291   0.595  0.8506  1.3073  2.0002
 9488TIP3   OH228427   7.097   3.343   4.571 -0.0234 -0.3760  0.0508
 9488TIP3    H128428   7.051   3.287   4.508  1.5881 -0.7872 -0.8433
 9488TIP3    H228429   7.086   3.298   4.655 -0.6600 -0.8339 -0.2704
 9489TIP3   OH228430   3.003   3.471   2.935 -1.0344  0.3974 -0.1845
 9489TIP3    H128431   3.035   3.528   2.865  0.2767  1.5680  1.2975
 9489TIP3    H228432   3.042   3.386   2.916  0.2442  0.9843 -0.2629
 9490TIP3   OH228433   0.228   5.141   1.247 -0.5600 -0.1435  0.1937
 9490TIP3    H128434   0.309   5.191   1.237  0.2364 -1.4255 -0.0428
 9490TIP3    H228435   0.178   5.158   1.167  1.2036 -2.2840 -1.5100
 9491TIP3   OH228436   3.290   1.849   2.081 -0.4504 -0.4524 -0.5479
 9491TIP3    H128437   3.244   1.833   1.998 -1.1007  0.3868 -0.3683
 9491TIP3    H228438   3.378   1.877   2.054  0.5876 -3.6696 -0.8706
 9492TIP3   OH228439   4.275   1.954   1.568 -0.2571  0.0529  0.4039
 9492TIP3    H128440   4.321   2.025   1.612  0.1824 -0.8228  1.3956
 9492TIP3    H228441   4.326   1.876   1.589 -1.3116 -0.7098  0.2045
 9493TIP3   OH228442   4.409   1.935   1.011 -0.0844 -0.5314 -0.7943
 9493TIP3    H128443   4.378   1.851   1.046  2.4175 -0.1492  2.8817
 9493TIP3    H228444   4.338   1.997   1.030 -0.3388 -1.0928  0.1885
 9494TIP3   OH228445   1.435   5.174   1.425  0.0102  0.6028 -0.2338
 9494TIP3    H128446   1.392   5.166   1.511 -2.1203  0.8893 -1.2042
 9494TIP3    H228447   1.398   5.103   1.373 -0.1546  1.5414 -1.4558
 9495TIP3   OH228448   3.550   1.722   4.674 -0.6543  0.0308  0.5432
 9495TIP3    H128449   3.543   1.815   4.654 -0.4907  0.1999  1.2498
 9495TIP3    H228450   3.636   1.697   4.640 -1.5136 -0.3517 -1.4868
 9496TIP3   OH228451   5.959   0.921   0.257 -0.6534 -0.1631  0.5768
 9496TIP3    H128452   5.993   0.963   0.178  0.9913 -0.6815  0.9647
 9496TIP3    H228453   5.868   0.899   0.236 -0.2845 -0.1798 -1.1191
 9497TIP3   OH228454   3.537   5.284   3.757 -0.2530  0.1856 -0.6622
 9497TIP3    H128455   3.516   5.306   3.848  2.9591 -0.7761  0.4606
 9497TIP3    H228456   3.578   5.364   3.723  1.8289 -0.5404 -0.0066
 9498TIP3   OH228457   3.181   1.946   1.768  1.0240  0.3954  0.1923
 9498TIP3    H128458   3.223   1.871   1.726  0.7908  0.1916  0.3204
 9498TIP3    H228459   3.088   1.922   1.773  0.9879  0.5839  0.4694
 9499TIP3   OH228460   3.985   1.433   4.364 -0.2156  0.3190 -0.1121
 9499TIP3    H128461   3.895   1.455   4.341 -0.1437  1.0357  0.2504
 9499TIP3    H228462   4.033   1.516   4.358 -0.0132  0.3808  1.7000
 9500TIP3   OH228463   5.797   6.017   4.192 -0.2376  0.1610 -0.1386
 9500TIP3    H128464   5.760   6.001   4.105  0.6465 -0.9917 -0.3329
 9500TIP3    H228465   5.838   5.934   4.216  1.3944  1.0754  0.4397
 9501TIP3   OH228466   0.463   4.531   1.533 -0.1833  0.5702  0.5988
 9501TIP3    H128467   0.545   4.572   1.559 -0.1845  1.1943 -0.3313
 9501TIP3    H228468   0.418   4.512   1.616  1.0518 -0.1360  1.1312
 9502TIP3   OH228469   2.669   5.381   4.191 -0.2478 -0.3063  0.2685
 9502TIP3    H128470   2.630   5.369   4.278 -1.9971  0.8847 -0.3062
 9502TIP3    H228471   2.754   5.421   4.209 -0.3826 -0.5140  1.4588
 9503TIP3   OH228472   5.547   6.662   1.758  0.1498  0.0247 -0.7088
 9503TIP3    H128473   5.490   6.643   1.833 -1.2979  0.2955 -1.7027
 9503TIP3    H228474   5.518   6.601   1.690  1.3114 -0.0792 -1.1285
 9504TIP3   OH228475   0.710   6.593   2.226  0.2782  0.2440 -0.6244
 9504TIP3    H128476   0.738   6.633   2.144 -1.0490 -0.7947 -1.6323
 9504TIP3    H228477   0.791   6.559   2.265  0.7386 -0.7184 -2.3328
 9505TIP3   OH228478   0.067   1.571   2.139  0.6160 -0.2295 -0.3787
 9505TIP3    H128479   0.084   1.489   2.185  0.0958 -0.3542 -0.3927
 9505TIP3    H228480   0.092   1.639   2.201 -1.2170 -0.3716  0.6056
 9506TIP3   OH228481   3.760   1.069   3.462  0.2674 -0.1940 -0.5004
 9506TIP3    H128482   3.750   1.119   3.381 -1.3784 -0.0107 -0.2185
 9506TIP3    H228483   3.671   1.061   3.496  0.9034 -0.4940  1.1646
 9507TIP3   OH228484   4.616   4.402   4.361  0.0781  0.2532  0.3524
 9507TIP3    H128485   4.609   4.315   4.400  0.8092  0.1848  0.3303
 9507TIP3    H228486   4.615   4.387   4.266 -0.4678  0.3259  0.3419
 9508TIP3   OH228487   1.292   2.408   3.916 -0.2554  0.1637 -0.5033
 9508TIP3    H128488   1.382   2.437   3.902  0.3461 -1.4438 -0.1341
 9508TIP3    H228489   1.266   2.369   3.832  0.7907 -2.8442  0.4580
 9509TIP3   OH228490   2.869   5.914   4.816 -0.2984 -0.6093 -0.3951
 9509TIP3    H128491   2.847   5.822   4.803  0.3217 -0.7699 -0.3441
 9509TIP3    H228492   2.879   5.949   4.727 -2.3938 -0.1133 -0.4672
 9510TIP3   OH228493   2.655   4.698   3.827 -0.2586  0.0477  0.1440
 9510TIP3    H128494   2.645   4.736   3.914  0.2138 -1.1062  0.7159
 9510TIP3    H228495   2.606   4.616   3.830  0.6989 -0.5539 -0.3147
 9511TIP3   OH228496   5.661   0.825   2.328 -0.1316 -0.2465 -0.5959
 9511TIP3    H128497   5.656   0.749   2.386  1.6323 -1.5178 -2.0079
 9511TIP3    H228498   5.574   0.865   2.335  0.2135  0.2957  3.6014
 9512TIP3   OH228499   6.005   3.236   4.618  0.4353  0.5863 -0.0059
 9512TIP3    H128500   5.970   3.174   4.555 -0.0652  0.5482  0.3062
 9512TIP3    H228501   6.061   3.182   4.675  1.9411  0.8311 -1.1771
 9513TIP3   OH228502   3.390   4.373   3.603  0.0570  0.2046  0.4185
 9513TIP3    H128503   3.461   4.312   3.584  1.3335  1.3449  1.3182
 9513TIP3    H228504   3.368   4.411   3.517 -1.6032 -2.2906 -0.3741
 9514TIP3   OH228505   0.921   1.847   1.106 -0.0353 -0.1915 -0.1387
 9514TIP3    H128506   1.017   1.843   1.105  0.0571  0.7253 -2.7825
 9514TIP3    H228507   0.894   1.779   1.044 -0.9723  0.8014 -0.8573
 9515TIP3   OH228508   6.410   4.323   1.296 -0.0652  0.3576 -0.3441
 9515TIP3    H128509   6.488   4.338   1.243 -0.2462  0.6347 -0.5360
 9515TIP3    H228510   6.353   4.398   1.276 -0.0486  0.5696  0.3991
 9516TIP3   OH228511   4.793   3.135   4.810 -0.2033  0.5223  0.0985
 9516TIP3    H128512   4.756   3.199   4.750 -2.0386 -0.5241  0.0224
 9516TIP3    H228513   4.854   3.084   4.756  0.2826  1.3536 -0.1526
 9517TIP3   OH228514   5.306   2.018   2.618 -0.0141 -0.1727  0.1661
 9517TIP3    H128515   5.268   2.011   2.705 -2.5970 -1.0540 -0.9286
 9517TIP3    H228516   5.231   2.029   2.560  1.5658 -0.2478 -2.0376
 9518TIP3   OH228517   0.410   4.128   1.417  0.1534 -0.1944 -0.2730
 9518TIP3    H128518   0.333   4.105   1.365 -0.5413 -0.5542  0.8916
 9518TIP3    H228519   0.484   4.096   1.364 -0.5657 -1.1684 -0.7295
 9519TIP3   OH228520   1.200   3.665   5.011 -0.6080 -0.3724 -0.0487
 9519TIP3    H128521   1.162   3.752   4.996 -2.4945 -1.0391  0.6463
 9519TIP3    H228522   1.244   3.644   4.928 -0.6584  0.9642 -0.4463
 9520TIP3   OH228523   7.078   2.150   5.101  0.4740 -0.3689  0.3280
 9520TIP3    H128524   7.150   2.167   5.041  0.9770 -2.1673  0.3429
 9520TIP3    H228525   7.120   2.116   5.180 -0.3424 -0.9241  0.5460
 9521TIP3   OH228526   0.502   3.262   5.578  0.3242 -0.0274 -0.6594
 9521TIP3    H128527   0.562   3.188   5.566 -2.2755 -2.2580 -1.1731
 9521TIP3    H228528   0.415   3.222   5.573 -1.2943  2.4558  3.0512
 9522TIP3   OH228529   2.209   5.949   1.582  0.2720 -0.2808  0.4606
 9522TIP3    H128530   2.130   5.920   1.628  0.9386 -3.5351 -0.2119
 9522TIP3    H228531   2.222   5.883   1.513  1.7111  2.0421 -1.6512
 9523TIP3   OH228532   0.784   6.570   1.326 -0.0390  0.6113  0.1616
 9523TIP3    H128533   0.760   6.517   1.250 -0.7639  0.4322  0.5030
 9523TIP3    H228534   0.870   6.537   1.352 -1.1145 -1.5362  1.3042
 9524TIP3   OH228535   5.692   3.178   0.254  0.4585  0.0573  0.4194
 9524TIP3    H128536   5.713   3.088   0.277 -1.8424 -0.4543  0.7643
 9524TIP3    H228537   5.674   3.175   0.160  0.0735  0.0804  0.4907
 9525TIP3   OH228538   4.618   6.179   0.564  0.0477 -0.2837 -0.4791
 9525TIP3    H128539   4.695   6.233   0.543 -0.7943  0.7170 -1.0439
 9525TIP3    H228540   4.631   6.156   0.656  1.6791 -1.2328 -0.8964
 9526TIP3   OH228541   4.644   5.536   3.263  0.2891 -0.1680 -0.0112
 9526TIP3    H128542   4.711   5.479   3.301  1.4638 -0.9472 -2.9574
 9526TIP3    H228543   4.563   5.487   3.270  0.6619 -0.7138  0.5546
 9527TIP3   OH228544   2.507   6.738   2.812  0.0036  0.3520  0.0402
 9527TIP3    H128545   2.577   6.695   2.763  0.2813  1.4462 -0.5560
 9527TIP3    H228546   2.518   6.708   2.902 -1.0076 -2.3315 -0.6605
 9528TIP3   OH228547   3.206   6.555   0.547 -0.2563 -0.4384  0.0850
 9528TIP3    H128548   3.223   6.649   0.556 -0.2919 -0.3657 -0.6022
 9528TIP3    H228549   3.237   6.518   0.630 -1.2260  0.3093  0.8180
 9529TIP3   OH228550   6.330   5.458   0.813  0.2753  0.2592  0.0457
 9529TIP3    H128551   6.249   5.408   0.802  1.6527 -1.5686 -3.3075
 9529TIP3    H228552   6.381   5.407   0.875  0.1472 -0.4779 -0.4350
 9530TIP3   OH228553   4.849   1.712   0.272 -0.1979 -0.0287 -0.2365
 9530TIP3    H128554   4.842   1.616   0.272 -0.6609 -0.0261  1.3094
 9530TIP3    H228555   4.934   1.730   0.312  0.4774  0.2183 -1.7086
 9531TIP3   OH228556   2.603   2.633   4.808 -0.3663  0.4944 -0.1532
 9531TIP3    H128557   2.613   2.722   4.840 -0.5132 -0.3768  2.5860
 9531TIP3    H228558   2.518   2.632   4.764 -0.5366  1.6122  0.1376
 9532TIP3   OH228559   4.018   0.962   3.476 -0.2054 -0.5700  0.2491
 9532TIP3    H128560   3.923   0.969   3.479 -0.1040  1.1604  0.8199
 9532TIP3    H228561   4.041   0.990   3.387 -0.2186 -0.9806  0.1139
 9533TIP3   OH228562   6.717   2.590   2.477  0.0295 -0.4462  0.3479
 9533TIP3    H128563   6.624   2.596   2.502 -0.4677 -0.3961 -1.3499
 9533TIP3    H228564   6.730   2.497   2.458  0.6422 -0.6345  1.6087
 9534TIP3   OH228565   6.278   5.350   5.176 -0.0232 -0.0086  0.0927
 9534TIP3    H128566   6.307   5.284   5.240 -1.9686  2.3351  3.7713
 9534TIP3    H228567   6.206   5.308   5.130 -0.2329 -1.0054  1.2721
 9535TIP3   OH228568   5.093   4.718   1.386  0.2158  0.6959  0.2216
 9535TIP3    H128569   4.999   4.698   1.393 -0.1136  2.0236 -0.0273
 9535TIP3    H228570   5.101   4.766   1.303  1.1982  0.2096  0.0204
 9536TIP3   OH228571   5.860   4.269   3.548  0.6035 -0.5661  0.4616
 9536TIP3    H128572   5.806   4.275   3.626  0.3866  1.6004  0.2076
 9536TIP3    H228573   5.812   4.319   3.482  1.3079 -1.4303 -0.7470
 9537TIP3   OH228574   3.691   4.661   3.086 -0.2264 -1.0265 -0.2875
 9537TIP3    H128575   3.652   4.739   3.048 -2.3712 -1.7695  0.2607
 9537TIP3    H228576   3.766   4.693   3.135 -0.9530  0.6687 -0.2269
 9538TIP3   OH228577   1.503   1.625   4.508 -0.5358  0.6770  0.4608
 9538TIP3    H128578   1.443   1.595   4.577  0.0804  1.0194  1.1577
 9538TIP3    H228579   1.460   1.702   4.471  0.2771  2.0427  2.1944
 9539TIP3   OH228580   4.307   2.913   3.296 -0.0172  0.7218 -0.4222
 9539TIP3    H128581   4.247   2.898   3.368  0.5775  2.6349  0.5590
 9539TIP3    H228582   4.381   2.854   3.312 -1.2357 -1.0731 -1.2095
 9540TIP3   OH228583   4.637   2.354   2.703 -0.3608  0.6867 -0.4050
 9540TIP3    H128584   4.663   2.331   2.614 -0.7013  0.0361 -0.3442
 9540TIP3    H228585   4.655   2.275   2.755 -1.6045  0.5054 -0.2033
 9541TIP3   OH228586   0.286   4.411   3.831 -0.5257  0.1225  0.1064
 9541TIP3    H128587   0.252   4.345   3.892 -0.3126  1.4029  1.6813
 9541TIP3    H228588   0.211   4.470   3.816 -0.8747 -0.7360 -1.7136
 9542TIP3   OH228589   0.263   3.908   0.837  0.6046 -0.0624  0.5328
 9542TIP3    H128590   0.195   3.840   0.840 -0.3360  0.7186 -1.3476
 9542TIP3    H228591   0.329   3.878   0.899 -0.2362 -2.2002  0.4995
 9543TIP3   OH228592   0.653   4.400   0.393  0.2588  0.1499 -0.1346
 9543TIP3    H128593   0.626   4.470   0.452  0.4521  0.1260 -0.0167
 9543TIP3    H228594   0.574   4.346   0.382  0.3150 -0.0369  0.3733
 9544TIP3   OH228595   3.839   4.712   0.037 -0.1106  0.2696  0.1435
 9544TIP3    H128596   3.802   4.627   0.060  0.7929  0.0927  0.9930
 9544TIP3    H228597   3.870   4.748   0.120 -0.7992  1.5871 -0.1508
 9545TIP3   OH228598   5.374   3.230   4.437  0.4319  0.0436  0.2058
 9545TIP3    H128599   5.313   3.177   4.490 -1.1855  1.4617 -0.1473
 9545TIP3    H228600   5.339   3.319   4.443  1.6986  0.6612 -1.1676
 9546TIP3   OH228601   6.202   3.283   4.335 -0.0046  0.1718  0.3918
 9546TIP3    H128602   6.137   3.344   4.369 -1.5241 -1.1407 -0.0221
 9546TIP3    H228603   6.166   3.254   4.251  0.7448 -1.1941  0.5187
 9547TIP3   OH228604   0.852   0.071   2.098 -0.0521  0.3490  0.4360
 9547TIP3    H128605   0.780   0.134   2.089 -0.1911 -0.0516 -1.7770
 9547TIP3    H228606   0.834   0.026   2.181 -0.7442  2.1755  1.3503
 9548TIP3   OH228607   4.555   3.481   2.795  0.2447  0.0687  0.0061
 9548TIP3    H128608   4.636   3.468   2.845  0.1895 -1.0337 -0.1624
 9548TIP3    H228609   4.566   3.566   2.753  1.4615 -0.1867 -0.2353
 9549TIP3   OH228610   0.823   4.194   2.168 -0.4141 -0.5124  0.1460
 9549TIP3    H128611   0.765   4.180   2.243  0.7311  0.7771  1.3397
 9549TIP3    H228612   0.897   4.135   2.183 -0.4862 -0.7170 -0.3082
 9550TIP3   OH228613   4.940   4.380   0.993 -0.4238  0.0304 -0.0873
 9550TIP3    H128614   4.951   4.306   1.053 -0.0468 -0.5803 -0.8762
 9550TIP3    H228615   4.930   4.339   0.907 -3.9366  0.7166 -0.1588
 9551TIP3   OH228616   6.832   2.512   4.516  0.4564  0.1793 -0.4447
 9551TIP3    H128617   6.888   2.569   4.462  1.1139 -1.2587 -1.3385
 9551TIP3    H228618   6.818   2.434   4.462 -0.5985 -0.4266  0.6634
 9552TIP3   OH228619   2.944   1.455   0.301 -0.3697 -0.0702  0.6681
 9552TIP3    H128620   3.007   1.525   0.315 -1.5270  0.6058  2.9459
 9552TIP3    H228621   2.997   1.380   0.274  0.9573  1.4338 -1.1596
 9553TIP3   OH228622   6.664   3.668   0.333  0.4674 -0.0934  0.7360
 9553TIP3    H128623   6.737   3.626   0.378  0.1933  0.0889  1.3484
 9553TIP3    H228624   6.590   3.609   0.346  0.0033  0.7089  1.8630
 9554TIP3   OH228625   7.087   2.354   4.564 -0.4251  0.9623  0.0447
 9554TIP3    H128626   7.020   2.385   4.624 -0.4727 -0.8333  0.9691
 9554TIP3    H228627   7.132   2.434   4.535 -1.5867  2.0089  1.0268
 9555TIP3   OH228628   2.672   2.354   2.299  0.3288 -0.4925 -0.3854
 9555TIP3    H128629   2.607   2.324   2.363  1.3011 -0.1189  0.8020
 9555TIP3    H228630   2.726   2.277   2.281  0.1930 -0.5386 -0.6125
 9556TIP3   OH228631   2.117   1.186   0.063 -0.4599 -0.0171  0.1832
 9556TIP3    H128632   2.037   1.179   0.011 -0.4294 -0.5831  0.2156
 9556TIP3    H228633   2.170   1.111   0.038 -0.0495  0.2042  0.3625
 9557TIP3   OH228634   6.728   1.822   5.505  0.9563 -0.6123  0.5036
 9557TIP3    H128635   6.776   1.741   5.488  1.6546  0.2654 -2.2786
 9557TIP3    H228636   6.793   1.880   5.544  0.5174 -1.2623  2.2765
 9558TIP3   OH228637   4.780   1.061   3.461  0.0316  0.4390  0.4679
 9558TIP3    H128638   4.710   1.104   3.413 -0.8364 -0.1846  1.1393
 9558TIP3    H228639   4.757   0.968   3.459  1.7906 -0.0214 -0.8285
 9559TIP3   OH228640   5.786   3.230   2.843 -0.0788 -0.2039 -0.2917
 9559TIP3    H128641   5.732   3.285   2.787 -2.2228 -0.8751  1.0252
 9559TIP3    H228642   5.811   3.287   2.916 -2.8179 -0.9753  1.3984
 9560TIP3   OH228643   3.778   2.675   4.555  0.4012 -0.0393 -0.7644
 9560TIP3    H128644   3.733   2.629   4.626 -0.4563  1.7224 -0.1153
 9560TIP3    H228645   3.717   2.743   4.528  1.3548  0.3038 -2.1476
 9561TIP3   OH228646   7.151   6.208   2.110  0.2318  0.4194 -0.0471
 9561TIP3    H128647   7.092   6.132   2.113  0.6875  0.0926  1.9342
 9561TIP3    H228648   7.107   6.274   2.163  0.0714  1.4222 -1.3676
 9562TIP3   OH228649   3.683   0.607   3.841  0.3923  0.2731 -0.1227
 9562TIP3    H128650   3.696   0.542   3.910  0.3218  0.1612 -0.2134
 9562TIP3    H228651   3.680   0.691   3.886 -0.1777  0.1542  0.0650
 9563TIP3   OH228652   6.026   2.584   0.046 -0.2943  0.2629  0.5094
 9563TIP3    H128653   6.078   2.607  -0.031 -1.1807 -0.8411 -0.4586
 9563TIP3    H228654   6.072   2.509   0.084 -0.7682 -0.2616  0.0643
 9564TIP3   OH228655   3.642   5.718   1.911  0.0906 -0.4672 -0.1823
 9564TIP3    H128656   3.721   5.670   1.938  2.1690  1.1833 -2.8149
 9564TIP3    H228657   3.672   5.808   1.899 -3.0121  0.9896  1.7589
 9565TIP3   OH228658   0.625   1.060   3.767  0.1075 -0.0772 -0.2940
 9565TIP3    H128659   0.623   1.122   3.839 -1.6694 -0.7009  0.2552
 9565TIP3    H228660   0.549   1.083   3.714  1.6937  0.7444 -2.3465
 9566TIP3   OH228661   1.917   0.252   2.658  0.1042 -0.3985  0.4276
 9566TIP3    H128662   1.852   0.181   2.665  0.0609 -0.4399 -0.3083
 9566TIP3    H228663   1.989   0.224   2.715  0.0625 -1.0073  0.1871
 9567TIP3   OH228664   0.908   3.127   3.790 -0.0055  0.0339 -0.1631
 9567TIP3    H128665   0.903   3.111   3.885  0.9299 -0.7007 -0.2318
 9567TIP3    H228666   0.829   3.178   3.771 -1.1118 -1.2890  0.7208
 9568TIP3   OH228667   2.133   4.429   4.694  1.0538 -0.0687  0.3458
 9568TIP3    H128668   2.143   4.484   4.616 -0.4739  1.0060  0.8557
 9568TIP3    H228669   2.122   4.491   4.766  0.3071 -1.0528  1.1052
 9569TIP3   OH228670   0.941   5.885   1.968  0.0191  0.0764 -0.3815
 9569TIP3    H128671   0.941   5.789   1.977  1.5316  0.0581 -0.4433
 9569TIP3    H228672   0.850   5.910   1.986 -0.2605 -1.3048  0.2872
 9570TIP3   OH228673   1.131   1.208   0.793  0.0812  0.5829 -0.0638
 9570TIP3    H128674   1.134   1.147   0.866 -0.9686  1.2174  0.5331
 9570TIP3    H228675   1.214   1.254   0.796 -0.9374  2.4971  2.4479
 9571TIP3   OH228676   6.231   0.215   0.624  0.2654  0.3775  0.2354
 9571TIP3    H128677   6.151   0.211   0.572 -0.3258 -1.5480  1.2043
 9571TIP3    H228678   6.300   0.187   0.564 -0.2211 -0.5852  0.0937
 9572TIP3   OH228679   2.395   0.947   4.395  0.6828 -0.1455 -0.2338
 9572TIP3    H128680   2.454   1.009   4.438 -0.1204  0.0299  0.6263
 9572TIP3    H228681   2.390   0.873   4.455 -1.1285  0.4652  0.4323
 9573TIP3   OH228682   6.774   5.577   1.052  0.8816 -0.0189  0.2791
 9573TIP3    H128683   6.711   5.642   1.023  0.1647 -0.5255  0.6708
 9573TIP3    H228684   6.816   5.546   0.972  0.3499  0.0296 -0.0198
 9574TIP3   OH228685   4.181   2.389   3.000 -0.3828  0.3441 -0.0431
 9574TIP3    H128686   4.174   2.477   3.037 -2.3016  0.0290  0.4391
 9574TIP3    H228687   4.257   2.394   2.941  0.7296  1.7619  1.4145
 9575TIP3   OH228688   6.640   4.173   5.840 -0.3378  0.4143  0.3289
 9575TIP3    H128689   6.559   4.126   5.821  0.8435 -1.7182  0.2611
 9575TIP3    H228690   6.709   4.115   5.809  1.2501  1.8598  1.0191
 9576TIP3   OH228691   6.267   4.567   4.083 -0.3046  0.2355  0.3267
 9576TIP3    H128692   6.280   4.579   4.177 -0.6651  2.1515  0.1620
 9576TIP3    H228693   6.284   4.474   4.068 -2.2457 -0.5758  2.6131
 9577TIP3   OH228694   5.035   4.648   0.511  0.2077 -0.5081 -0.0382
 9577TIP3    H128695   5.055   4.579   0.575 -1.2398 -1.4766 -0.5624
 9577TIP3    H228696   4.997   4.600   0.436 -2.2245  0.9281  0.1648
 9578TIP3   OH228697   2.667   1.009   2.524  0.1848 -0.1262 -0.1466
 9578TIP3    H128698   2.670   1.018   2.429 -2.1086  0.6346 -0.1972
 9578TIP3    H228699   2.642   1.095   2.556  0.3172 -0.5293  1.1184
 9579TIP3   OH228700   7.168   3.948   1.627 -0.0029 -0.3669 -0.2581
 9579TIP3    H128701   7.075   3.972   1.622  0.1743  0.3609 -0.1558
 9579TIP3    H228702   7.208   4.018   1.678  0.7001 -0.3957 -0.7610
 9580TIP3   OH228703   3.524   1.451   2.262 -0.5966  0.5473 -0.2437
 9580TIP3    H128704   3.511   1.375   2.206  0.0502  1.1464 -1.2327
 9580TIP3    H228705   3.619   1.464   2.263 -0.4504 -0.2081  2.0391
 9581TIP3   OH228706   2.312   2.500   0.309 -0.0179  0.2465  0.0366
 9581TIP3    H128707   2.242   2.467   0.253 -1.1033 -0.5545  1.7678
 9581TIP3    H228708   2.374   2.541   0.249 -1.2548 -0.3043 -1.6912
 9582TIP3   OH228709   3.301   3.258   4.944  0.1352  0.7444  0.0780
 9582TIP3    H128710   3.374   3.298   4.990 -0.5844  1.6241  0.5007
 9582TIP3    H228711   3.271   3.187   5.001 -0.3820  1.4545  0.7033
 9583TIP3   OH228712   1.002   0.290   3.923  0.2079 -0.0856 -0.0802
 9583TIP3    H128713   1.036   0.224   3.984 -0.2563 -1.1272 -0.9002
 9583TIP3    H228714   0.926   0.247   3.882  0.4655  0.6080 -1.3222
 9584TIP3   OH228715   4.845   2.859   4.554 -0.4585 -0.0247  0.7412
 9584TIP3    H128716   4.772   2.805   4.525  1.0517 -1.2888 -0.9285
 9584TIP3    H228717   4.829   2.945   4.514  0.6996 -1.2585 -2.7866
 9585TIP3   OH228718   6.972   6.092   0.915 -0.1244 -0.2366 -0.1988
 9585TIP3    H128719   6.894   6.077   0.968  0.4277 -1.1942  0.3770
 9585TIP3    H228720   7.043   6.097   0.979  0.4308 -0.4946 -0.7894
 9586TIP3   OH228721   2.107   0.672   5.337  0.4020  0.4011 -0.0301
 9586TIP3    H128722   2.043   0.697   5.270  0.7098  1.6955  0.1200
 9586TIP3    H228723   2.109   0.577   5.334 -2.0946  0.2586  0.4937
 9587TIP3   OH228724   6.859   3.823   2.360  0.0211 -0.2780  0.6248
 9587TIP3    H128725   6.772   3.833   2.399  0.1714  0.3217  0.8092
 9587TIP3    H228726   6.844   3.830   2.266 -0.1852 -0.5826  0.6343
 9588TIP3   OH228727   5.056   3.642   5.878 -0.1815 -1.0537  0.5570
 9588TIP3    H128728   5.128   3.658   5.818  0.1595  0.5884  1.3484
 9588TIP3    H228729   5.098   3.637   5.964 -0.9783 -0.2934  1.0017
 9589TIP3   OH228730   6.280   3.439   0.825 -0.2869 -0.7953 -0.1644
 9589TIP3    H128731   6.230   3.369   0.782 -2.1899  0.8612 -0.8097
 9589TIP3    H228732   6.330   3.479   0.754 -0.4673 -0.4598 -0.1002
 9590TIP3   OH228733   2.835   0.749   2.542  0.3256  0.1497  0.4884
 9590TIP3    H128734   2.913   0.762   2.596  0.8625 -0.3799 -0.1461
 9590TIP3    H228735   2.817   0.835   2.504 -0.1225  0.5574  1.5671
 9591TIP3   OH228736   4.958   6.371   4.441  0.2044 -0.0784 -0.6773
 9591TIP3    H128737   5.049   6.396   4.427  0.3268 -1.0260 -1.7139
 9591TIP3    H228738   4.962   6.288   4.490 -0.1300  0.4002  0.1827
 9592TIP3   OH228739   2.935   6.252   4.399  0.6149 -0.5068  0.1907
 9592TIP3    H128740   2.995   6.196   4.349 -0.2144 -0.8677 -0.4226
 9592TIP3    H228741   2.943   6.338   4.359 -1.1509 -1.1077 -1.6292
 9593TIP3   OH228742   3.037   2.895   0.255  0.4026 -0.2614  0.3684
 9593TIP3    H128743   3.064   2.898   0.346  0.6072 -0.4562  0.3175
 9593TIP3    H228744   3.047   2.985   0.223  0.2038 -0.1680  0.5719
 9594TIP3   OH228745   6.327   6.497   1.337  0.0006 -0.1061 -0.6713
 9594TIP3    H128746   6.294   6.454   1.417  0.8052  0.9835  0.2828
 9594TIP3    H228747   6.319   6.591   1.356  2.6169  0.2050 -0.8041
 9595TIP3   OH228748   0.362   0.562   3.582 -0.0458  0.8612  0.3767
 9595TIP3    H128749   0.304   0.573   3.507  0.4516 -2.3650 -0.6120
 9595TIP3    H228750   0.450   0.574   3.547  0.1458  0.1481  0.5929
 9596TIP3   OH228751   0.675   2.934   1.104 -0.0230 -0.3317  0.0390
 9596TIP3    H128752   0.761   2.919   1.064  0.4619 -0.2266  0.9858
 9596TIP3    H228753   0.684   2.899   1.193 -0.8506  0.0025  0.2648
 9597TIP3   OH228754   2.436   4.927   0.005 -0.0818 -0.0310 -0.5900
 9597TIP3    H128755   2.468   4.950   0.092 -0.0559  1.9896 -1.0920
 9597TIP3    H228756   2.436   4.831   0.004 -1.4856 -0.1538  2.1531
 9598TIP3   OH228757   1.703   6.257   3.418  0.1336 -0.3152  0.5460
 9598TIP3    H128758   1.730   6.298   3.500 -0.7518 -0.5373  0.9564
 9598TIP3    H228759   1.785   6.234   3.375  0.6047 -0.9217  1.7290
 9599TIP3   OH228760   4.605   3.946   3.849  0.4558 -0.1302  0.3392
 9599TIP3    H128761   4.571   3.946   3.759 -0.0431  0.7776  0.5188
 9599TIP3    H228762   4.558   3.875   3.893 -1.1285  1.0171  0.5475
 9600TIP3   OH228763   3.415   4.965   2.507  0.3326  0.1074  0.0796
 9600TIP3    H128764   3.326   4.981   2.478 -0.2813 -1.7530  0.8161
 9600TIP3    H228765   3.450   4.901   2.444  1.5314  1.5150 -0.7799
 9601TIP3   OH228766   3.054   5.165   2.458 -0.2916 -0.3002  0.3678
 9601TIP3    H128767   3.110   5.196   2.530 -0.8362  0.8751  0.3207
 9601TIP3    H228768   3.023   5.246   2.417  0.8329 -0.9428 -1.8630
 9602TIP3   OH228769   3.683   3.694   3.474 -0.3846 -0.1204 -0.0580
 9602TIP3    H128770   3.673   3.737   3.389  4.1799  1.5582 -0.0165
 9602TIP3    H228771   3.619   3.738   3.530 -3.3224 -1.0684 -2.3757
 9603TIP3   OH228772   0.106   1.817   3.404  0.1209  0.3263  0.6036
 9603TIP3    H128773   0.195   1.795   3.379 -0.1161  1.4875 -1.4897
 9603TIP3    H228774   0.087   1.761   3.479  2.1637 -0.8278  0.3125
 9604TIP3   OH228775   6.987   0.249   4.025 -0.7145 -0.7262  0.1001
 9604TIP3    H128776   6.892   0.253   4.014 -0.5030 -0.0057 -1.7635
 9604TIP3    H228777   7.016   0.340   4.020  0.2897 -1.1089 -1.7736
 9605TIP3   OH228778   4.952   5.603   4.018 -0.2952 -0.2228  0.1554
 9605TIP3    H128779   4.868   5.557   4.017 -0.3173 -0.2860  1.6818
 9605TIP3    H228780   5.011   5.547   3.968 -1.2930  0.1276 -1.4630
 9606TIP3   OH228781   1.514   5.321   0.893  0.3330  0.0924  0.3539
 9606TIP3    H128782   1.604   5.297   0.916  0.0887 -0.8292  0.3709
 9606TIP3    H228783   1.462   5.243   0.913 -0.2535  0.1141 -0.9993
 9607TIP3   OH228784   7.050   1.210   0.563  0.8805  0.2712  0.0869
 9607TIP3    H128785   7.049   1.176   0.652 -1.9472 -1.6505 -0.5546
 9607TIP3    H228786   7.042   1.305   0.574  3.4092  0.3983  1.8277
 9608TIP3   OH228787   0.211   1.051   5.208 -0.4213  0.1904  0.8580
 9608TIP3    H128788   0.128   1.003   5.208 -0.5887  0.4309 -0.6209
 9608TIP3    H228789   0.186   1.141   5.186 -0.0621  0.8995  3.1749
 9609TIP3   OH228790   5.903   4.680   0.676  0.1666 -0.3671  0.0321
 9609TIP3    H128791   5.841   4.612   0.648  0.5692 -0.9808  0.6085
 9609TIP3    H228792   5.965   4.634   0.733  0.9774  0.2968 -0.2947
 9610TIP3   OH228793   5.702   1.599   2.592 -0.1259 -0.1500 -0.2641
 9610TIP3    H128794   5.723   1.637   2.507 -0.3742 -1.2883 -0.8523
 9610TIP3    H228795   5.777   1.622   2.648  0.7146 -0.6149 -1.1827
 9611TIP3   OH228796   0.377   4.929   1.056  0.3267  0.3308 -0.3274
 9611TIP3    H128797   0.443   4.859   1.063 -0.3653 -0.2092  1.3142
 9611TIP3    H228798   0.416   5.003   1.102 -0.8286 -0.5314  2.2021
 9612TIP3   OH228799   6.770   3.171   1.578 -0.5010 -0.3159 -0.4989
 9612TIP3    H128800   6.682   3.133   1.581 -0.6643  0.0362 -0.7853
 9612TIP3    H228801   6.767   3.243   1.642 -0.4750 -0.1886 -0.6412
 9613TIP3   OH228802   5.367   4.443   3.859 -0.1790  0.1010 -0.2881
 9613TIP3    H128803   5.364   4.362   3.911  1.8329  0.3408  0.2722
 9613TIP3    H228804   5.358   4.513   3.923 -0.6767  0.3495 -0.6298
 9614TIP3   OH228805   0.448   6.238   1.009 -0.5428 -0.1401 -0.2245
 9614TIP3    H128806   0.452   6.143   1.020  0.2269 -0.4259 -2.3929
 9614TIP3    H228807   0.535   6.262   0.977 -0.2952  1.5232  1.4901
 9615TIP3   OH228808   3.566   5.923   1.557  0.0883 -0.0490  0.0949
 9615TIP3    H128809   3.630   5.949   1.491  0.1825 -0.3023  0.0870
 9615TIP3    H228810   3.566   5.828   1.554  1.8812 -0.1824  2.1630
 9616TIP3   OH228811   0.384   0.389   1.087  0.0389  0.0999 -0.7945
 9616TIP3    H128812   0.412   0.407   1.176 -1.3540 -0.1949 -0.2710
 9616TIP3    H228813   0.332   0.466   1.062  1.2521  0.6377 -1.7362
 9617TIP3   OH228814   4.463   0.039   2.710 -0.1096 -0.1503  0.3888
 9617TIP3    H128815   4.546   0.072   2.745  0.0865 -0.8528  0.6077
 9617TIP3    H228816   4.399   0.108   2.731  0.0773 -0.3730  1.8002
 9618TIP3   OH228817   5.528   0.128   2.594  0.0676  0.7067 -0.1206
 9618TIP3    H128818   5.538   0.038   2.563 -2.8786 -0.7303  2.5908
 9618TIP3    H228819   5.594   0.137   2.663 -0.0754  0.3667  0.0633
 9619TIP3   OH228820   1.283   6.447   5.476  0.6382  0.0770 -0.8754
 9619TIP3    H128821   1.196   6.487   5.479 -0.1508 -1.5610  1.6822
 9619TIP3    H228822   1.283   6.394   5.397 -0.3416  0.8000 -1.3768
 9620TIP3   OH228823   0.771   2.067   4.665  0.2198 -0.2998  0.2476
 9620TIP3    H128824   0.805   2.150   4.698  1.9479 -0.3667 -1.2164
 9620TIP3    H228825   0.712   2.093   4.594  1.9187 -0.3031 -1.2257
 9621TIP3   OH228826   1.687   2.397   5.021 -0.2020  0.1566  0.3568
 9621TIP3    H128827   1.663   2.412   5.112  0.4672  2.8550  0.1675
 9621TIP3    H228828   1.605   2.401   4.972 -0.5070 -0.8465  0.7750
 9622TIP3   OH228829   4.555   3.274   4.738 -0.8090  0.5291 -0.0722
 9622TIP3    H128830   4.548   3.304   4.647  2.2670  0.1407 -0.5445
 9622TIP3    H228831   4.535   3.180   4.733 -0.8242  0.5436 -0.3103
 9623TIP3   OH228832   0.202   0.156   1.178 -0.2401 -0.1995  0.2860
 9623TIP3    H128833   0.150   0.133   1.101  0.1633 -0.5215  0.1051
 9623TIP3    H228834   0.145   0.213   1.229 -0.1192  0.9317 -0.7926
 9624TIP3   OH228835   5.781   3.824   0.619 -0.2519  0.3087  0.0020
 9624TIP3    H128836   5.856   3.822   0.678  0.0908  2.8379 -0.2211
 9624TIP3    H228837   5.817   3.855   0.536 -1.2036 -0.5224 -0.7464
 9625TIP3   OH228838   4.544   2.468   5.485 -0.0329 -0.0163  0.6792
 9625TIP3    H128839   4.556   2.466   5.390  2.2954  1.1855  0.8785
 9625TIP3    H228840   4.465   2.520   5.497  0.0209  0.4114 -0.6025
 9626TIP3   OH228841   6.248   0.270   3.615 -0.2155  0.2478 -0.3319
 9626TIP3    H128842   6.327   0.258   3.666 -0.3123  0.2517 -0.1821
 9626TIP3    H228843   6.198   0.336   3.662 -0.4438  0.0317 -0.2692
 9627TIP3   OH228844   2.382   2.842   2.377  0.1899  0.0531 -0.3123
 9627TIP3    H128845   2.344   2.855   2.291 -0.2774  0.7698 -0.0051
 9627TIP3    H228846   2.412   2.929   2.404 -0.5029  0.0197  0.6310
 9628TIP3   OH228847   1.566   0.813   2.204  0.6290 -0.9070 -0.1915
 9628TIP3    H128848   1.485   0.790   2.158  0.4139 -0.8150  0.1395
 9628TIP3    H228849   1.543   0.811   2.296  0.3968  1.3930 -0.1375
 9629TIP3   OH228850   5.029   4.161   0.309 -0.4242  0.1234 -0.2579
 9629TIP3    H128851   5.124   4.148   0.300  0.1742  3.1162  0.5227
 9629TIP3    H228852   5.000   4.089   0.365  0.8995 -2.2193 -2.3781
 9630TIP3   OH228853   7.026   6.767   1.301 -0.8582 -0.6648 -0.0343
 9630TIP3    H128854   7.018   6.847   1.353 -1.3901  0.5670 -1.9150
 9630TIP3    H228855   6.974   6.702   1.349  1.9214 -0.8479  3.1178
 9631TIP3   OH228856   0.112   5.093   3.733 -0.7857 -1.0677 -0.0765
 9631TIP3    H128857   0.093   5.072   3.641 -0.1636  0.0144 -0.4702
 9631TIP3    H228858   0.027   5.087   3.777 -1.5431  0.6096 -1.1755
 9632TIP3   OH228859   6.175   1.602   1.138  0.2998  0.4467 -0.0079
 9632TIP3    H128860   6.211   1.585   1.225  0.3772 -2.6215 -0.5406
 9632TIP3    H228861   6.081   1.582   1.146  0.3861 -0.2981 -0.7097
 9633TIP3   OH228862   3.752   2.129   2.739 -0.2762 -0.1125  0.4462
 9633TIP3    H128863   3.802   2.137   2.658 -0.0562 -0.6500  0.5243
 9633TIP3    H228864   3.814   2.152   2.808 -0.3897  0.0894  0.4816
 9634TIP3   OH228865   6.622   0.644   1.092  0.1912 -0.0331  0.4330
 9634TIP3    H128866   6.549   0.660   1.033  0.6689  0.3935 -0.0530
 9634TIP3    H228867   6.611   0.553   1.120  0.5331 -0.5877 -1.1339
 9635TIP3   OH228868   3.659   6.179   0.077 -0.2514  0.7260 -0.3828
 9635TIP3    H128869   3.691   6.099   0.034 -2.1227 -0.1330 -0.2582
 9635TIP3    H228870   3.631   6.235   0.004 -4.3757 -1.1327 -0.4942
 9636TIP3   OH228871   6.641   3.578   4.168  0.4803 -0.1772  0.3476
 9636TIP3    H128872   6.696   3.575   4.089  3.0529 -0.2233  2.0177
 9636TIP3    H228873   6.568   3.519   4.148  0.9773 -0.1128 -2.0184
 9637TIP3   OH228874   1.009   6.510   4.671  0.5447  0.2227 -0.8216
 9637TIP3    H128875   0.968   6.592   4.697 -0.6071 -0.3332 -0.8342
 9637TIP3    H228876   1.059   6.531   4.593  1.6325  1.2689  0.1214
 9638TIP3   OH228877   6.676   1.346   4.365 -0.0391 -0.1347  0.1416
 9638TIP3    H128878   6.627   1.268   4.391  0.4876  0.3343  2.7432
 9638TIP3    H228879   6.758   1.341   4.414  1.1077  0.8301 -1.5521
 9639TIP3   OH228880   0.081   3.289   4.081  0.0522  0.3101 -0.3543
 9639TIP3    H128881   0.081   3.380   4.052 -1.0444  0.0675 -1.1977
 9639TIP3    H228882   0.007   3.283   4.141  1.4745  0.4751  1.5082
 9640TIP3   OH228883   3.460   0.265   3.286 -0.5603 -0.4556  0.1882
 9640TIP3    H128884   3.445   0.349   3.243  0.8984 -1.1382 -1.8175
 9640TIP3    H228885   3.461   0.286   3.380 -0.3110  1.7491 -0.2553
 9641TIP3   OH228886   6.466   0.926   5.712 -0.0264 -0.3547 -0.1553
 9641TIP3    H128887   6.484   0.840   5.674 -0.4788 -0.3018 -0.5100
 9641TIP3    H228888   6.396   0.910   5.776 -0.2398 -0.2314 -0.3511
 9642TIP3   OH228889   4.707   0.232   3.947 -0.6801  0.0896 -0.0352
 9642TIP3    H128890   4.753   0.240   4.031 -1.7293 -2.5818  0.9013
 9642TIP3    H228891   4.640   0.300   3.950 -1.5561 -0.7713  1.9505
 9643TIP3   OH228892   5.018   0.339   2.013  0.2474  0.4596  0.3865
 9643TIP3    H128893   5.040   0.380   1.929  1.6162  0.0750  0.5371
 9643TIP3    H228894   4.957   0.400   2.054 -0.0159  0.9174 -0.6461
 9644TIP3   OH228895   1.699   0.781   3.612  0.8512  0.0498  0.4650
 9644TIP3    H128896   1.776   0.821   3.652  0.9624  0.0198  0.2801
 9644TIP3    H228897   1.679   0.706   3.668  0.1261  0.8557  1.3163
 9645TIP3   OH228898   5.512   1.401   3.668  0.2235 -0.5440 -0.1183
 9645TIP3    H128899   5.498   1.408   3.574  1.2807 -0.4720 -0.2918
 9645TIP3    H228900   5.523   1.307   3.684 -0.4268 -0.5984  0.0098
 9646TIP3   OH228901   5.068   3.378   0.025  0.2645 -0.2865 -0.1593
 9646TIP3    H128902   5.085   3.434   0.101 -0.6408  0.4658 -0.4993
 9646TIP3    H228903   5.080   3.436  -0.050  0.5953 -0.8862 -0.5820
 9647TIP3   OH228904   2.601   0.466   2.190 -0.5112  0.3646  0.2567
 9647TIP3    H128905   2.625   0.528   2.120 -1.6917  1.1219  0.5047
 9647TIP3    H228906   2.668   0.480   2.257 -1.1511  1.8936  0.6112
 9648TIP3   OH228907   4.326   0.834   2.521  0.1372 -0.2158  0.4862
 9648TIP3    H128908   4.248   0.872   2.560 -0.0562 -0.8883  0.7626
 9648TIP3    H228909   4.380   0.809   2.595  1.6650  2.2809  0.3401
 9649TIP3   OH228910   5.594   3.283   3.470  0.1279 -0.6707 -0.1478
 9649TIP3    H128911   5.604   3.325   3.555 -0.9857  1.7460 -1.1155
 9649TIP3    H228912   5.538   3.207   3.486  1.0722 -1.0682  1.4623
 9650TIP3   OH228913   1.829   0.496   2.758  0.4757 -0.2743 -0.4893
 9650TIP3    H128914   1.869   0.418   2.720 -1.5928 -0.9741 -1.4092
 9650TIP3    H228915   1.849   0.566   2.695  0.7021 -0.4968 -0.6670
 9651TIP3   OH228916   5.502   2.890   5.118  0.2381 -0.5470 -0.4787
 9651TIP3    H128917   5.596   2.875   5.118  0.1851 -0.8928 -0.7409
 9651TIP3    H228918   5.463   2.803   5.125 -0.0682 -0.5150 -1.5562
 9652TIP3   OH228919   5.312   0.926   0.662  0.3249  0.4562  0.6622
 9652TIP3    H128920   5.404   0.946   0.677  0.5816 -0.5941  0.5446
 9652TIP3    H228921   5.312   0.839   0.622 -0.7318  0.3100  0.9462
 9653TIP3   OH228922   2.314   6.389   0.252  0.1946  0.1431  0.1503
 9653TIP3    H128923   2.378   6.434   0.307  0.9950  0.0382 -0.6671
 9653TIP3    H228924   2.296   6.450   0.181 -0.7507  0.2345  0.4590
 9654TIP3   OH228925   3.707   1.214   1.246  0.4641 -0.4517 -0.0532
 9654TIP3    H128926   3.721   1.295   1.196 -0.2844 -0.1806  0.1652
 9654TIP3    H228927   3.638   1.236   1.309  1.9582 -0.5252  1.6932
 9655TIP3   OH228928   3.479   2.615   1.344 -0.6849  0.1490 -0.8639
 9655TIP3    H128929   3.530   2.683   1.300 -1.3762  1.3843  0.1651
 9655TIP3    H228930   3.472   2.646   1.435  0.6191 -2.2485  0.1477
 9656TIP3   OH228931   2.499   1.759   3.611  0.6427  0.2893 -0.1324
 9656TIP3    H128932   2.546   1.692   3.661  0.5778  1.1908  1.1883
 9656TIP3    H228933   2.453   1.711   3.543 -0.7184 -1.2508  1.7590
 9657TIP3   OH228934   3.635   1.615   0.533 -0.6808 -0.0362  0.2775
 9657TIP3    H128935   3.681   1.683   0.584  0.7956  0.8592 -2.0980
 9657TIP3    H228936   3.676   1.533   0.561  2.1087  0.6732 -1.2851
 9658TIP3   OH228937   6.933   2.258   2.456  0.2877  0.2285 -0.5956
 9658TIP3    H128938   6.962   2.171   2.483 -1.2256 -0.6188 -1.5083
 9658TIP3    H228939   7.001   2.289   2.396  0.4952 -0.6639 -0.8341
 9659TIP3   OH228940   1.737   5.227   5.010 -0.1561  0.2428  0.0301
 9659TIP3    H128941   1.792   5.305   5.003  0.2194  0.0358  0.6809
 9659TIP3    H228942   1.730   5.194   4.920 -0.3538  1.0480 -0.2556
 9660TIP3   OH228943   2.479   1.919   3.258  0.7528 -0.3917 -0.0536
 9660TIP3    H128944   2.396   1.887   3.291  1.3986  0.4785  2.7446
 9660TIP3    H228945   2.529   1.841   3.236  0.3033 -1.1078  1.3309
 9661TIP3   OH228946   4.846   2.428   4.599 -0.0667 -0.1649 -0.1478
 9661TIP3    H128947   4.940   2.411   4.591 -0.0401  0.1437 -0.5257
 9661TIP3    H228948   4.837   2.473   4.684  0.1126 -0.2861 -0.0631
 9662TIP3   OH228949   6.090   2.773   2.173  0.1934  0.6552 -0.1157
 9662TIP3    H128950   6.037   2.818   2.107 -0.1891  1.5763  0.7976
 9662TIP3    H228951   6.180   2.786   2.145  0.0307  1.0304 -0.4663
 9663TIP3   OH228952   2.093   3.571   4.985  0.5642  0.0448  0.3497
 9663TIP3    H128953   2.167   3.516   4.958  0.4300 -0.1553  0.3862
 9663TIP3    H228954   2.018   3.511   4.986  0.3316  0.3234 -0.0286
 9664TIP3   OH228955   0.221   3.129   2.041 -0.5869  0.3344 -0.2698
 9664TIP3    H128956   0.247   3.087   2.123  0.3507 -1.2045 -1.3188
 9664TIP3    H228957   0.298   3.123   1.984 -1.7596 -0.2386 -1.8771
 9665TIP3   OH228958   1.557   6.189   1.469  0.1663 -0.2855 -1.3631
 9665TIP3    H128959   1.463   6.205   1.480 -0.1935 -2.0829 -1.5618
 9665TIP3    H228960   1.580   6.235   1.388  0.0410  2.1979 -0.0972
 9666TIP3   OH228961   0.725   6.116   0.499 -0.2101 -0.1251 -0.7226
 9666TIP3    H128962   0.759   6.141   0.413  0.9899  1.6635  0.2149
 9666TIP3    H228963   0.639   6.157   0.504  0.5239  1.4871 -0.3709
 9667TIP3   OH228964   2.192   4.169   0.592  0.0052  0.6804 -0.5720
 9667TIP3    H128965   2.209   4.238   0.528 -0.2146  1.2731  0.0021
 9667TIP3    H228966   2.172   4.092   0.538 -0.9120  1.3529 -1.2261
 9668TIP3   OH228967   1.867   4.986   4.333  0.5037 -0.5837  0.3074
 9668TIP3    H128968   1.867   5.023   4.421  0.0332  0.9839 -0.3081
 9668TIP3    H228969   1.785   4.936   4.327 -1.8320  2.9350 -0.5735
 9669TIP3   OH228970   3.421   6.549   4.939 -0.4583 -0.3469  0.1499
 9669TIP3    H128971   3.419   6.453   4.932  0.8454 -0.3794 -0.0067
 9669TIP3    H228972   3.429   6.566   5.033 -1.2834 -0.3612  0.2321
 9670TIP3   OH228973   6.409   3.177   2.817 -0.0357  0.5439 -0.2950
 9670TIP3    H128974   6.348   3.218   2.878 -0.3022  0.1822 -0.3164
 9670TIP3    H228975   6.373   3.090   2.802  0.6522  0.2036 -0.0533
 9671TIP3   OH228976   0.797   2.560   3.451 -0.5647 -0.1736 -0.2797
 9671TIP3    H128977   0.751   2.476   3.448  1.2156 -1.2654  1.1130
 9671TIP3    H228978   0.730   2.625   3.430 -2.5318 -1.7423  0.8709
 9672TIP3   OH228979   5.713   1.983   0.234 -0.2876  0.1290 -0.1257
 9672TIP3    H128980   5.732   1.920   0.303  1.2234  0.8771  0.1905
 9672TIP3    H228981   5.645   2.040   0.270 -1.4404 -1.0842 -0.2983
 9673TIP3   OH228982   3.957   1.105   0.888 -0.1469 -0.0807 -0.0984
 9673TIP3    H128983   4.017   1.099   0.813  1.3120  0.0745  1.0271
 9673TIP3    H228984   3.908   1.186   0.873  1.1966  0.7464 -0.1412
 9674TIP3   OH228985   2.487   2.892   5.798  0.0520 -0.2661  0.3263
 9674TIP3    H128986   2.511   2.983   5.780 -1.2717 -0.3607 -2.4296
 9674TIP3    H228987   2.553   2.840   5.752  0.9200 -0.7945  2.0453
 9675TIP3   OH228988   6.094   5.706   3.653 -0.0514  0.1469 -0.4584
 9675TIP3    H128989   6.159   5.699   3.723  0.4396  0.6651 -0.8494
 9675TIP3    H228990   6.097   5.798   3.627 -1.0465  0.2038 -0.3904
 9676TIP3   OH228991   3.305   4.617   0.104 -0.0491  0.1723 -0.2516
 9676TIP3    H128992   3.296   4.623   0.199  0.0260 -0.6443 -0.1896
 9676TIP3    H228993   3.397   4.596   0.090 -0.1209  0.0108 -0.4868
 9677TIP3   OH228994   6.522   4.289   1.575  0.2072  0.4960 -0.1155
 9677TIP3    H128995   6.581   4.357   1.608  0.7072 -0.3478  0.8070
 9677TIP3    H228996   6.513   4.308   1.482  1.8634  0.7113 -0.2578
 9678TIP3   OH228997   1.143   6.219   2.284  0.1478  0.2708  0.2211
 9678TIP3    H128998   1.214   6.281   2.271 -0.2542  0.8436  0.7054
 9678TIP3    H228999   1.079   6.241   2.217 -0.1261  0.5703  0.5818
 9679TIP3   OH229000   0.813   3.773   4.279  0.1411 -0.1884  0.3397
 9679TIP3    H129001   0.818   3.738   4.190  0.0534  0.8183 -0.0708
 9679TIP3    H229002   0.860   3.709   4.332 -0.0346 -0.9399 -0.3821
 9680TIP3   OH229003   1.241   2.047   0.917  0.1169 -0.0211 -0.4130
 9680TIP3    H129004   1.323   2.013   0.881  0.7109  0.7954  0.1304
 9680TIP3    H229005   1.251   2.142   0.913 -1.6358  0.1403 -2.1755
 9681TIP3   OH229006   4.813   5.652   2.497  0.2221 -0.0918 -0.0045
 9681TIP3    H129007   4.879   5.591   2.530  1.1833  0.7564 -0.3069
 9681TIP3    H229008   4.838   5.737   2.535 -1.4648  0.0327  0.9427
 9682TIP3   OH229009   5.208   0.449   1.032 -0.6880 -0.2365 -0.0779
 9682TIP3    H129010   5.243   0.527   1.076 -2.7886 -0.2326  1.7997
 9682TIP3    H229011   5.186   0.478   0.944  0.3043  0.7738 -0.0076
 9683TIP3   OH229012   4.234   1.842   4.472 -0.4378  0.1834 -0.7037
 9683TIP3    H129013   4.275   1.856   4.387 -2.1562  0.5036 -1.5399
 9683TIP3    H229014   4.273   1.908   4.529  0.2526  0.4140 -1.4225
 9684TIP3   OH229015   6.788   6.363   1.760  0.1149 -0.0278  0.0084
 9684TIP3    H129016   6.848   6.387   1.688  0.4060  0.5652  0.4434
 9684TIP3    H229017   6.816   6.416   1.834 -0.3392 -0.4605  0.5039
 9685TIP3   OH229018   4.648   0.343   0.842 -0.2118  0.5379 -0.5791
 9685TIP3    H129019   4.624   0.276   0.906 -0.8206  0.5345 -0.8089
 9685TIP3    H229020   4.742   0.356   0.856 -0.1708 -0.0610 -0.2488
 9686TIP3   OH229021   0.888   1.654   5.511  0.4354  0.3149 -0.0883
 9686TIP3    H129022   0.922   1.619   5.428 -0.5683  0.1481 -0.4390
 9686TIP3    H229023   0.927   1.597   5.578  0.5461 -0.1205 -0.5131
 9687TIP3   OH229024   0.480   1.170   2.717 -0.0783  0.1442 -0.0172
 9687TIP3    H129025   0.476   1.266   2.725 -1.6735  0.1441 -0.4838
 9687TIP3    H229026   0.391   1.141   2.735  0.7250 -1.4242  1.8074
 9688TIP3   OH229027   1.938   3.335   1.432 -0.3456 -0.6275  0.0181
 9688TIP3    H129028   1.946   3.428   1.452  2.5617 -0.7393 -0.2675
 9688TIP3    H229029   1.925   3.293   1.517 -1.7190 -0.0028  0.1403
 9689TIP3   OH229030   6.276   3.150   0.045 -0.2492 -0.2585  0.1451
 9689TIP3    H129031   6.351   3.098   0.015 -0.5053 -0.0710 -0.8610
 9689TIP3    H229032   6.287   3.235   0.003 -1.7977 -0.6984 -1.2241
 9690TIP3   OH229033   3.761   3.114   0.698 -0.1881 -0.1737 -0.1374
 9690TIP3    H129034   3.695   3.091   0.632  0.3002 -0.7286 -0.4445
 9690TIP3    H229035   3.841   3.069   0.669  0.7897  1.7890 -0.6781
 9691TIP3   OH229036   5.957   3.355   3.815  0.1665  0.0806  0.0021
 9691TIP3    H129037   5.897   3.348   3.741 -2.6197 -0.9450  2.1843
 9691TIP3    H229038   6.016   3.280   3.806  0.9255  0.8521 -1.9443
 9692TIP3   OH229039   5.152   0.302   4.762 -0.3481 -0.3419 -0.3485
 9692TIP3    H129040   5.238   0.322   4.725 -0.5567 -2.0707 -1.9050
 9692TIP3    H229041   5.162   0.215   4.801 -1.0221  0.0637  0.7732
 9693TIP3   OH229042   4.088   2.532   2.553  0.1162  0.4308  0.4131
 9693TIP3    H129043   4.167   2.586   2.558 -0.4662  1.4327 -0.5967
 9693TIP3    H229044   4.119   2.448   2.520  0.7536  0.8438 -0.0683
 9694TIP3   OH229045   3.453   2.344   3.234  0.2121 -0.2857 -0.0697
 9694TIP3    H129046   3.364   2.365   3.205 -0.4948  1.0560  2.7190
 9694TIP3    H229047   3.484   2.279   3.171 -2.2359  0.1573 -1.8867
 9695TIP3   OH229048   6.371   0.333   4.067 -0.1408  0.4805  0.4601
 9695TIP3    H129049   6.326   0.418   4.061 -1.7088 -0.3588 -0.2160
 9695TIP3    H229050   6.329   0.289   4.141 -0.0058 -0.0859  0.2026
 9696TIP3   OH229051   0.369   0.062   3.835 -0.3779  0.0936 -0.0365
 9696TIP3    H129052   0.320   0.056   3.753  0.5165 -1.3580 -0.5082
 9696TIP3    H229053   0.304   0.043   3.903 -0.8653  0.0830 -0.4965
 9697TIP3   OH229054   1.669   5.899   4.076 -0.4959 -0.2304  0.4558
 9697TIP3    H129055   1.741   5.907   4.139  1.3698  1.2451 -1.7286
 9697TIP3    H229056   1.629   5.987   4.074 -1.3181 -0.5952  0.4446
 9698TIP3   OH229057   4.880   3.426   4.414 -0.6066 -0.4667  0.2780
 9698TIP3    H129058   4.927   3.508   4.432  0.3744 -0.9353 -0.0921
 9698TIP3    H229059   4.814   3.422   4.483  0.4955 -0.2406  1.4008
 9699TIP3   OH229060   2.353   0.447   5.155  0.1699 -0.2702 -0.6919
 9699TIP3    H129061   2.335   0.534   5.120 -2.9156 -0.9597 -1.0712
 9699TIP3    H229062   2.417   0.410   5.094 -1.1609  0.4613 -2.6557
 9700TIP3   OH229063   3.080   2.319   5.121  0.2697  0.6586  0.4089
 9700TIP3    H129064   3.064   2.396   5.174 -2.6026  0.4138  0.0668
 9700TIP3    H229065   3.072   2.349   5.030  1.9753  0.4577  0.1517
 9701TIP3   OH229066   4.679   0.822   4.161  0.0154  0.4753 -0.0611
 9701TIP3    H129067   4.623   0.797   4.087  0.2358 -1.0237  0.2459
 9701TIP3    H229068   4.622   0.813   4.238  0.1155  0.9026  0.0648
 9702TIP3   OH229069   0.414   0.823   0.138 -0.3140 -0.0930 -0.3699
 9702TIP3    H129070   0.322   0.851   0.133 -0.9285 -1.1891  2.6180
 9702TIP3    H229071   0.453   0.882   0.202  0.7415 -0.4722 -0.6501
 9703TIP3   OH229072   6.267   5.098   5.034  0.0301  0.1307 -0.0267
 9703TIP3    H129073   6.357   5.102   5.001 -0.0435 -0.1355 -0.2614
 9703TIP3    H229074   6.265   5.018   5.087 -0.4255 -0.5790 -1.0962
 9704TIP3   OH229075   7.213   2.817   1.148 -0.1443  0.2377 -0.0534
 9704TIP3    H129076   7.214   2.819   1.244  0.1491 -1.7832  0.0175
 9704TIP3    H229077   7.245   2.904   1.123 -1.0123  1.1222  1.6477
 9705TIP3   OH229078   1.779   2.139   2.086  1.1010 -0.8306 -0.1583
 9705TIP3    H129079   1.860   2.125   2.036 -0.0250 -0.6444 -2.1510
 9705TIP3    H229080   1.715   2.164   2.020 -0.6964 -1.3426  1.3248
 9706TIP3   OH229081   4.474   2.940   5.190 -0.1692  0.9100  0.1911
 9706TIP3    H129082   4.496   2.850   5.215 -3.1789  0.2168  0.7993
 9706TIP3    H229083   4.549   2.970   5.139  0.4374 -2.4221 -1.1423
 9707TIP3   OH229084   0.046   4.625   1.961  0.0774 -0.8132 -0.7550
 9707TIP3    H129085   0.088   4.708   1.985 -0.1446 -0.7518 -0.5733
 9707TIP3    H229086  -0.048   4.642   1.973  0.0539 -1.1976 -0.3868
 9708TIP3   OH229087   1.306   2.374   1.205 -0.3268  0.5342 -0.2733
 9708TIP3    H129088   1.304   2.345   1.296 -0.2653  0.4032 -0.3131
 9708TIP3    H229089   1.296   2.469   1.210 -2.5165  0.3452 -0.2408
 9709TIP3   OH229090   1.133   6.756   5.789 -0.4179  0.5191 -0.4023
 9709TIP3    H129091   1.220   6.723   5.768 -0.3219 -1.1470  2.1862
 9709TIP3    H229092   1.149   6.842   5.829  0.0939  0.1139  0.2845
 9710TIP3   OH229093   2.198   5.793   1.333  0.2538  0.3194  0.0954
 9710TIP3    H129094   2.108   5.825   1.334 -0.1664 -0.8295  1.3487
 9710TIP3    H229095   2.244   5.852   1.273 -1.2763  1.0495 -0.3957
 9711TIP3   OH229096   0.321   1.339   3.019  0.6269 -0.1204 -0.3484
 9711TIP3    H129097   0.283   1.252   3.033  0.5761  0.0370  0.6006
 9711TIP3    H229098   0.276   1.372   2.942 -1.9704  0.4461  1.2583
 9712TIP3   OH229099   0.141   3.061   0.705  0.0490  0.7641  0.0188
 9712TIP3    H129100   0.161   3.045   0.797  0.0619 -1.8765 -0.3700
 9712TIP3    H229101   0.219   3.104   0.671  1.4571 -1.2475  0.5387
 9713TIP3   OH229102   1.952   2.760   2.164 -0.1419 -0.3049  0.1650
 9713TIP3    H129103   1.916   2.803   2.242  0.4755 -0.1800  0.3868
 9713TIP3    H229104   1.989   2.831   2.112 -0.4081 -0.4080 -0.1658
 9714TIP3   OH229105   5.750   5.366   5.700 -0.0698  0.1459 -0.0700
 9714TIP3    H129106   5.704   5.414   5.769  2.5185 -0.1822  2.0025
 9714TIP3    H229107   5.763   5.278   5.736  0.8930 -0.1868 -1.1736
 9715TIP3   OH229108   6.341   5.407   2.292 -0.1049 -0.1595 -0.3006
 9715TIP3    H129109   6.279   5.338   2.271 -2.0890  1.1617  0.8730
 9715TIP3    H229110   6.291   5.488   2.285  1.8395  1.1042 -0.5440
 9716TIP3   OH229111   3.950   6.219   4.957  0.1744 -0.3056  0.2145
 9716TIP3    H129112   4.002   6.141   4.937  0.7275  0.1872 -0.3096
 9716TIP3    H229113   3.860   6.193   4.938  0.3121 -0.9307  0.3987
 9717TIP3   OH229114   1.749   3.878   0.615 -0.1036 -0.0561  0.0304
 9717TIP3    H129115   1.770   3.845   0.528  0.3956  1.3675 -0.4077
 9717TIP3    H229116   1.683   3.946   0.600  0.1359  0.3407  0.7407
 9718TIP3   OH229117   6.342   2.939   5.414  0.0586  0.0706 -0.0125
 9718TIP3    H129118   6.329   3.004   5.483 -0.7861  1.0128 -0.9999
 9718TIP3    H229119   6.401   2.982   5.352  2.0730 -1.3626  0.8385
 9719TIP3   OH229120   5.034   2.882   4.749 -0.0634 -0.2127 -0.6151
 9719TIP3    H129121   4.990   2.878   4.664 -0.7036  0.7944 -0.3423
 9719TIP3    H229122   4.971   2.846   4.811 -0.5210  1.1942 -0.2296
 9720TIP3   OH229123   4.501   5.236   3.980 -0.1089 -0.4305 -0.3027
 9720TIP3    H129124   4.547   5.183   3.915  0.2655  1.4893 -1.6815
 9720TIP3    H229125   4.469   5.172   4.044  2.3121 -2.0861 -0.6093
 9721TIP3   OH229126   3.916   0.266   5.691  0.8706 -0.1238  0.0091
 9721TIP3    H129127   3.999   0.240   5.651 -0.7097 -1.8118 -2.4614
 9721TIP3    H229128   3.882   0.187   5.731  0.4864  0.5895  1.1507
 9722TIP3   OH229129   3.408   0.502   0.643  0.3058  0.6352 -0.3531
 9722TIP3    H129130   3.319   0.509   0.675  0.6760 -0.5290  1.0540
 9722TIP3    H229131   3.403   0.438   0.572  0.1393 -0.1451  0.3451
 9723TIP3   OH229132   6.854   3.253   0.414  0.5659  0.3002 -0.1186
 9723TIP3    H129133   6.774   3.293   0.448 -0.2442 -1.7778  0.5858
 9723TIP3    H229134   6.824   3.198   0.341  1.6364  0.9624 -1.0885
 9724TIP3   OH229135   2.839   0.466   3.838  0.7573  0.0851  0.1237
 9724TIP3    H129136   2.757   0.443   3.882  0.7418  0.5600  0.3457
 9724TIP3    H229137   2.898   0.393   3.858  0.8267  0.4142  1.1479
 9725TIP3   OH229138   6.506   1.004   4.332  0.0499  0.0871 -0.1315
 9725TIP3    H129139   6.526   1.064   4.261  2.2526 -0.4683 -0.0409
 9725TIP3    H229140   6.501   0.918   4.290 -0.7225  0.0118  0.0938
 9726TIP3   OH229141   2.893   6.020   5.226  0.5388 -0.1446 -0.4021
 9726TIP3    H129142   2.983   6.031   5.258  0.4167 -1.9159  0.6793
 9726TIP3    H229143   2.898   6.043   5.133  2.4559 -1.5642 -0.7244
 9727TIP3   OH229144   2.974   3.232   2.305 -0.5112 -0.5398 -0.1306
 9727TIP3    H129145   2.906   3.196   2.361 -0.4721  0.3073  0.4874
 9727TIP3    H229146   2.969   3.182   2.224 -0.4067 -1.9496  0.7160
 9728TIP3   OH229147   3.284   4.887   2.110  0.5679  0.7547 -0.3031
 9728TIP3    H129148   3.234   4.913   2.188  0.6057  0.7140 -0.2656
 9728TIP3    H229149   3.217   4.874   2.042  0.4891  0.2836 -0.1394
 9729TIP3   OH229150   5.753   5.691   1.051  0.5155 -0.0847  0.1468
 9729TIP3    H129151   5.837   5.668   1.091  0.5729 -0.2987 -0.0950
 9729TIP3    H229152   5.696   5.616   1.071 -0.1157  0.7777  1.7615
 9730TIP3   OH229153   4.952   1.661   2.504 -0.4466 -0.0288 -0.2692
 9730TIP3    H129154   5.011   1.596   2.543  1.2682  0.1139 -2.4093
 9730TIP3    H229155   4.877   1.611   2.473  0.7049 -1.0239 -1.6057
 9731TIP3   OH229156   1.088   4.518   1.301  0.1796  0.7305  0.6861
 9731TIP3    H129157   1.040   4.441   1.330  0.4702  0.0346 -0.6012
 9731TIP3    H229158   1.021   4.581   1.274 -0.0471  0.2108  0.0083
 9732TIP3   OH229159   0.337   1.323   4.628  0.4308  0.3712  0.1491
 9732TIP3    H129160   0.297   1.237   4.645  1.1618 -0.3336 -1.4871
 9732TIP3    H229161   0.275   1.366   4.569  1.9430 -0.7346 -2.4168
 9733TIP3   OH229162   3.542   1.429   4.773  0.2758 -0.2432  0.3936
 9733TIP3    H129163   3.528   1.488   4.699 -1.7553 -1.0072  0.1084
 9733TIP3    H229164   3.563   1.345   4.732 -1.4237 -0.8129  0.6032
 9734TIP3   OH229165   1.110   6.234   1.339  0.3002 -0.1514 -0.1154
 9734TIP3    H129166   1.034   6.291   1.342  0.3500  0.0283 -1.6746
 9734TIP3    H229167   1.085   6.162   1.281  1.1606 -0.3052 -0.3191
 9735TIP3   OH229168   4.881   3.912   0.340 -0.0335  0.5870  0.2439
 9735TIP3    H129169   4.861   3.959   0.259 -2.9932  0.4331  0.7762
 9735TIP3    H229170   4.906   3.824   0.311  1.2365  1.1813 -0.5595
 9736TIP3   OH229171   2.026   3.795   4.823  0.4486  0.0941  0.4555
 9736TIP3    H129172   2.051   3.717   4.873 -1.0283 -0.9939 -0.4175
 9736TIP3    H229173   1.931   3.801   4.833  0.3162  0.7396 -0.9342
 9737TIP3   OH229174   0.554   1.932   3.677  0.0888  0.5253 -0.1608
 9737TIP3    H129175   0.565   1.934   3.772 -2.1826 -1.1348  0.2085
 9737TIP3    H229176   0.630   1.884   3.645 -0.1653 -0.7303  1.0473
 9738TIP3   OH229177   6.483   4.774   0.403  0.5373 -0.1908 -0.2571
 9738TIP3    H129178   6.526   4.774   0.488  0.3190 -0.7246 -0.1427
 9738TIP3    H229179   6.399   4.818   0.418  0.6154 -0.0438 -0.2559
 9739TIP3   OH229180   4.549   2.105   4.389  0.0352 -0.3932 -0.3957
 9739TIP3    H129181   4.498   2.157   4.328 -0.7817 -2.1888 -1.3207
 9739TIP3    H229182   4.607   2.052   4.334 -0.6898 -2.0217  0.3480
 9740TIP3   OH229183   3.283   0.626   5.126  0.2602 -0.4070  0.1659
 9740TIP3    H129184   3.300   0.626   5.220  0.7670  0.3202  0.0780
 9740TIP3    H229185   3.264   0.534   5.105 -1.5170 -0.3502  1.2562
 9741TIP3   OH229186   1.359   1.624   4.095  0.5003  0.3607 -0.5940
 9741TIP3    H129187   1.422   1.580   4.153  0.0408  0.5018  0.0224
 9741TIP3    H229188   1.314   1.687   4.152 -3.0004 -2.4160  0.0312
 9742TIP3   OH229189   0.325   4.905   4.239 -0.2092  0.2496  0.4440
 9742TIP3    H129190   0.333   4.899   4.144  0.5047 -0.9328  0.5600
 9742TIP3    H229191   0.391   4.968   4.265 -0.4262  0.5999  0.1614
 9743TIP3   OH229192   2.079   5.420   3.610  0.2363 -0.0877  0.5643
 9743TIP3    H129193   2.015   5.461   3.552 -0.1675 -0.2029  0.9247
 9743TIP3    H229194   2.094   5.333   3.572  0.8026  0.2453  0.0170
 9744TIP3   OH229195   6.137   4.463   3.374 -0.0883  0.2935 -0.0254
 9744TIP3    H129196   6.099   4.423   3.296 -0.9869 -0.0285  0.5523
 9744TIP3    H229197   6.198   4.528   3.341 -1.1525  0.8278 -0.9960
 9745TIP3   OH229198   6.542   1.727   0.907 -0.5518  0.0119 -0.0691
 9745TIP3    H129199   6.506   1.773   0.831  0.2343 -1.3807 -1.3408
 9745TIP3    H229200   6.476   1.737   0.975 -0.9885  1.8612 -0.7074
 9746TIP3   OH229201   3.514   0.362   4.002  0.3711  0.4741  0.3997
 9746TIP3    H129202   3.603   0.396   4.013 -0.6708  3.3593  0.8095
 9746TIP3    H229203   3.481   0.351   4.091  0.0155  0.3246  0.2511
 9747TIP3   OH229204   2.627   5.671   5.027  0.4404  0.6095 -0.1981
 9747TIP3    H129205   2.678   5.739   4.983  0.9896  0.4838  0.2387
 9747TIP3    H229206   2.685   5.639   5.096 -0.3127  0.6155  0.4431
 9748TIP3   OH229207   4.967   3.428   1.752 -0.3235  0.6452 -0.1667
 9748TIP3    H129208   4.888   3.482   1.759  0.4604  1.6326  1.8965
 9748TIP3    H229209   4.993   3.435   1.661 -2.2420  0.8398 -0.7339
 9749TIP3   OH229210   4.923   6.718   4.187 -0.0116  0.6150  0.0909
 9749TIP3    H129211   4.870   6.772   4.128  0.4273  0.9936  0.0400
 9749TIP3    H229212   4.921   6.631   4.148  2.0572  1.2902 -1.7277
   7.22460   6.81142   5.89885   0.00000   0.00000  -2.40821   0.00000  -2.40821  -3.40570
