Title
19927
    1ASP      N    1   5.425   4.746   1.499  0.1842  0.3135  0.9001
    1ASP    HT1    2   5.477   4.707   1.417 -2.5880  1.0539 -1.4025
    1ASP    HT2    3   5.326   4.718   1.487  0.8303 -2.6297  1.8150
    1ASP    HT3    4   5.454   4.698   1.586  0.8513  0.4321  0.7479
    1ASP     CA    5   5.435   4.892   1.507 -0.0864  0.3557  0.1374
    1ASP     HA    6   5.379   4.922   1.595 -1.6699 -1.4891 -0.1675
    1ASP     CB    7   5.586   4.921   1.518 -0.5772 -0.4526 -0.2195
    1ASP    HB1    8   5.631   4.881   1.424  1.8432  2.1557 -0.2885
    1ASP    HB2    9   5.633   4.870   1.605  0.7360  1.3969  0.2089
    1ASP     CG   10   5.613   5.069   1.523  0.1002  0.2796  0.0176
    1ASP    OD1   11   5.720   5.109   1.473 -0.2518 -0.4119 -0.3217
    1ASP    OD2   12   5.539   5.133   1.592 -0.0778 -0.0935 -0.2936
    1ASP      C   13   5.367   4.965   1.392 -0.0779 -0.7556 -0.2317
    1ASP      O   14   5.281   5.047   1.414  0.1945  0.2923 -0.5409
    2ALA      N   15   5.406   4.938   1.266  0.4800 -0.5068  0.0421
    2ALA     HN   16   5.480   4.872   1.252 -0.3466 -1.6457  0.8982
    2ALA     CA   17   5.359   5.008   1.149  0.2861 -0.0085  0.1674
    2ALA     HA   18   5.252   5.007   1.156  0.2443 -1.1102 -0.3581
    2ALA     CB   19   5.397   5.154   1.137 -0.1386  0.1474 -0.8680
    2ALA    HB1   20   5.361   5.183   1.036  0.0999 -1.0740 -1.3276
    2ALA    HB2   21   5.506   5.173   1.140 -0.1397  0.3758 -1.9191
    2ALA    HB3   22   5.355   5.212   1.222  0.1643  0.8236 -1.1723
    2ALA      C   23   5.398   4.931   1.023 -0.5648  0.4585  0.5726
    2ALA      O   24   5.495   4.858   1.011 -0.2720  0.0564 -0.4840
    3ASP      N   25   5.317   4.958   0.912  0.5843  0.1093 -0.0924
    3ASP     HN   26   5.241   5.021   0.922  0.6621  0.2962 -0.6202
    3ASP     CA   27   5.328   4.892   0.782  0.1145  0.2803  0.5285
    3ASP     HA   28   5.249   4.936   0.723 -0.4996 -0.3447  0.8634
    3ASP     CB   29   5.463   4.925   0.711 -0.5128 -0.1136  0.3114
    3ASP    HB1   30   5.477   4.878   0.611  3.3682 -0.1933  0.7481
    3ASP    HB2   31   5.546   4.878   0.766 -2.0536 -1.8567  1.2618
    3ASP     CG   32   5.487   5.075   0.692 -0.2817  0.6331 -0.2865
    3ASP    OD1   33   5.391   5.140   0.642  0.3602 -0.0825 -0.2356
    3ASP    OD2   34   5.601   5.120   0.703  0.2354  0.1921 -0.2683
    3ASP      C   35   5.291   4.748   0.790 -0.1415  0.2333 -0.4121
    3ASP      O   36   5.199   4.712   0.858 -0.4658  0.3161 -0.2841
    4GLY      N   37   5.360   4.659   0.719  0.9672 -0.2009  0.2504
    4GLY     HN   38   5.438   4.695   0.669  0.3365 -0.0373 -0.6199
    4GLY     CA   39   5.325   4.516   0.715 -0.1331  0.2032  0.2805
    4GLY    HA1   40   5.403   4.470   0.657  0.1160 -0.7674  1.3576
    4GLY    HA2   41   5.227   4.510   0.669 -0.5130 -0.9207  1.2103
    4GLY      C   42   5.325   4.437   0.842 -0.3514  0.0323  0.6925
    4GLY      O   43   5.367   4.491   0.940 -0.4042  0.0649 -0.0757
    5PRO      N   44   5.280   4.306   0.842 -0.3756 -0.7007  0.2578
    5PRO     CD   45   5.243   4.240   0.723  0.1538 -0.1216 -0.0515
    5PRO    HD1   46   5.319   4.243   0.641 -1.1704  3.1694 -1.3441
    5PRO    HD2   47   5.152   4.289   0.683  0.3126 -0.3209 -0.6681
    5PRO     CA   48   5.263   4.225   0.966  0.5179 -0.2958  0.1549
    5PRO     HA   49   5.220   4.281   1.047  1.4046 -0.0114  0.4360
    5PRO     CB   50   5.164   4.131   0.910  0.5669 -0.2183 -0.2771
    5PRO    HB1   51   5.063   4.176   0.906 -0.0856 -1.5910 -0.1306
    5PRO    HB2   52   5.149   4.045   0.979 -2.6578  0.7413  0.3629
    5PRO     CG   53   5.200   4.098   0.768  0.1168  0.6945  0.0432
    5PRO    HG1   54   5.284   4.027   0.753  1.2066  2.0820 -0.6924
    5PRO    HG2   55   5.117   4.065   0.702  2.3201 -1.9705 -1.5982
    5PRO      C   56   5.398   4.169   1.004 -0.2188 -0.2551  0.1438
    5PRO      O   57   5.412   4.045   0.996  0.2292 -0.2893  0.2048
    6GLY      N   58   5.488   4.254   1.055  0.4414  0.1083  0.7956
    6GLY     HN   59   5.469   4.351   1.067  0.9389  0.3415 -0.1729
    6GLY     CA   60   5.611   4.203   1.114  0.1624 -0.2615  0.3425
    6GLY    HA1   61   5.671   4.288   1.142  1.1250 -0.6879 -0.3780
    6GLY    HA2   62   5.663   4.144   1.040  0.1168  1.8816 -1.5162
    6GLY      C   63   5.602   4.117   1.240 -0.2722  0.4166  0.1909
    6GLY      O   64   5.495   4.091   1.287  0.3063 -0.4654  0.2562
    7ASP      N   65   5.724   4.087   1.290 -0.1895  0.4410 -0.2877
    7ASP     HN   66   5.809   4.113   1.245  0.1994 -0.2011  0.0745
    7ASP     CA   67   5.746   4.024   1.417  0.3778  0.2169  0.3126
    7ASP     HA   68   5.685   3.935   1.417  0.5298  0.1138  0.0526
    7ASP     CB   69   5.895   3.986   1.410 -0.0312  0.1878 -0.8481
    7ASP    HB1   70   5.938   3.949   1.506  0.1181  0.1406 -0.9334
    7ASP    HB2   71   5.961   4.071   1.385  1.7944 -1.0320 -0.3877
    7ASP     CG   72   5.905   3.882   1.305 -0.1618 -0.8317  0.0696
    7ASP    OD1   73   5.862   3.767   1.334  0.2343 -0.1390 -0.1743
    7ASP    OD2   74   5.977   3.909   1.203  0.1480 -0.0732  0.0831
    7ASP      C   75   5.707   4.117   1.528 -0.0483  0.5410 -0.3240
    7ASP      O   76   5.704   4.237   1.510 -0.0063 -0.2065 -0.7431
    8PRO      N   77   5.661   4.066   1.638 -0.2246  1.2396  0.2760
    8PRO     CD   78   5.688   3.921   1.681 -0.0696 -0.0054 -0.0500
    8PRO    HD1   79   5.795   3.912   1.709  0.2583  0.8273 -0.9487
    8PRO    HD2   80   5.662   3.852   1.599  2.7402 -0.5173 -0.5907
    8PRO     CA   81   5.623   4.149   1.755 -0.3500 -0.0161  0.8449
    8PRO     HA   82   5.525   4.193   1.735  0.5256  2.0482  0.7965
    8PRO     CB   83   5.612   4.046   1.867  0.5635  0.0666 -0.2132
    8PRO    HB1   84   5.539   4.079   1.943  1.1004  2.3741 -0.6402
    8PRO    HB2   85   5.707   4.043   1.924  0.4540 -1.3046 -0.0684
    8PRO     CG   86   5.600   3.905   1.803 -0.0791 -0.2229 -0.6307
    8PRO    HG1   87   5.638   3.828   1.873 -1.1320  0.2920  0.5459
    8PRO    HG2   88   5.495   3.876   1.781 -1.0978  1.1978  1.9025
    8PRO      C   89   5.712   4.265   1.790  0.2184 -0.1702 -0.6434
    8PRO      O   90   5.834   4.258   1.784 -0.6344  0.1058 -0.0111
    9ASP      N   91   5.650   4.371   1.843  0.2038  0.2281  0.4227
    9ASP     HN   92   5.554   4.373   1.871  0.4667 -0.0399  1.3963
    9ASP     CA   93   5.713   4.500   1.879 -0.0659  0.0141  0.4855
    9ASP     HA   94   5.768   4.535   1.793 -2.6094 -0.5772 -1.5143
    9ASP     CB   95   5.610   4.605   1.920  0.2563 -0.4298 -0.0676
    9ASP    HB1   96   5.661   4.690   1.970  0.8988  0.1300 -1.6405
    9ASP    HB2   97   5.542   4.562   1.997  0.2602  0.7408  0.6035
    9ASP     CG   98   5.541   4.655   1.800 -0.2917  0.6886 -0.2388
    9ASP    OD1   99   5.574   4.610   1.686 -0.3249 -0.0937  0.6226
    9ASP    OD2  100   5.458   4.750   1.813  0.3270  0.5745  0.1977
    9ASP      C  101   5.802   4.482   1.996 -0.0743 -0.2400  0.0091
    9ASP      O  102   5.787   4.392   2.078 -0.5651  0.0037 -0.1486
   10ALA      N  103   5.910   4.558   2.005 -0.2602  0.1563 -0.7053
   10ALA     HN  104   5.926   4.630   1.937  1.4734  1.0982  0.6238
   10ALA     CA  105   6.023   4.541   2.097 -0.1352 -1.2213  0.2883
   10ALA     HA  106   6.073   4.450   2.067  3.0157  0.9294 -1.6479
   10ALA     CB  107   6.127   4.646   2.064 -0.2964 -0.6373  0.6430
   10ALA    HB1  108   6.149   4.663   1.956 -0.7625 -1.2916  0.4407
   10ALA    HB2  109   6.228   4.632   2.107 -0.0168 -1.6989 -0.3148
   10ALA    HB3  110   6.089   4.744   2.100 -1.3413 -1.2509  1.2455
   10ALA      C  111   5.988   4.537   2.245  0.0260  0.6219  0.8467
   10ALA      O  112   5.886   4.587   2.294 -0.2843 -0.7791  0.0642
   11GLY      N  113   6.073   4.460   2.316  0.0587 -0.8959  0.2015
   11GLY     HN  114   6.154   4.421   2.274  0.5620  0.2491  0.0693
   11GLY     CA  115   6.077   4.431   2.461 -0.4206  0.5279 -0.3923
   11GLY    HA1  116   6.140   4.345   2.478 -0.4152  0.1188 -2.2973
   11GLY    HA2  117   5.974   4.418   2.488 -1.0815 -0.5573 -3.0732
   11GLY      C  118   6.137   4.548   2.536 -0.0600  0.3850 -0.2072
   11GLY    OT1  119   6.233   4.615   2.488 -0.5142 -0.2204 -0.0181
   11GLY    OT2  120   6.081   4.579   2.644  0.6645  0.1969  0.1362
   12SOD    SOD  121   0.563   4.161   3.132  0.3695 -0.0172 -0.6990
   13SOD    SOD  122   1.491   5.349   2.666  0.4518 -0.0893 -0.0050
   14SOD    SOD  123   3.108   3.966   2.182  0.0074 -0.5331 -0.0151
   15SOD    SOD  124   5.069   5.129   1.455 -0.7373 -0.1827 -0.4332
   16SOD    SOD  125   0.388   3.377   0.222 -0.2457 -0.2654  0.5383
   17SOD    SOD  126   0.278   3.049   1.128 -0.4332  0.7977  0.0427
   18SOD    SOD  127   4.413   3.282   4.725  0.0642  0.0714  0.2038
   19SOD    SOD  128   6.307   4.965   0.829  0.2155 -0.3876  0.3168
   20SOD    SOD  129   1.991   5.458   0.565 -0.4462  0.0846 -0.0638
   21SOD    SOD  130   2.070   3.719   2.993 -0.4046  0.0487 -0.5650
   22SOD    SOD  131   4.100   1.572   4.271  0.1684  0.0444 -0.3565
   23SOD    SOD  132   5.649   5.046   3.603  0.2106 -0.3265  0.2143
   24SOD    SOD  133   6.309   5.153   0.025 -0.1136 -0.3673 -0.5153
   25SOD    SOD  134   4.243   2.316   0.249 -0.0365  0.1947  0.3591
   26SOD    SOD  135   2.242   2.651   1.747  0.1795 -0.2972 -0.3600
   27SOD    SOD  136   5.731   2.266   1.673  0.4883  0.2077  0.4107
   28SOD    SOD  137   2.167   1.747   0.738  0.2502  0.4172  0.1974
   29SOD    SOD  138   4.903   1.224   0.137 -0.4213  0.1502 -0.2748
   30SOD    SOD  139   1.193   2.497   3.808  0.1565 -0.2732 -0.0087
   31SOD    SOD  140   3.907   5.536   1.431 -0.2109 -0.1441 -0.1925
   32SOD    SOD  141   4.319   1.156   2.200 -0.4741  0.2487  0.1198
   33SOD    SOD  142   0.722   4.365   1.811 -0.2482 -0.4731  0.5129
   34CLA    CLA  143   2.081   3.242   1.601 -0.4890 -0.0781  0.4199
   35CLA    CLA  144   0.988   2.163   3.153 -0.3666 -0.3266  0.4707
   36CLA    CLA  145   3.614   3.721   4.517 -0.0237  0.5727 -0.4366
   37CLA    CLA  146   4.383   4.787   1.909  0.2659 -0.1720  0.0351
   38CLA    CLA  147   2.307   1.810   3.162 -0.1699 -0.4269  0.1451
   39CLA    CLA  148   2.069   4.123   4.263  0.3054 -0.2359 -0.2019
   40CLA    CLA  149   2.949   1.895   4.065 -0.3535 -0.0228 -0.2592
   41CLA    CLA  150   6.053   1.881   0.777 -0.2165  0.0410 -0.0652
   42CLA    CLA  151   1.828   0.860   2.090  0.2179 -0.2067 -0.6701
   43CLA    CLA  152   5.524   1.941   3.062  0.1036 -0.3068  0.1839
   44CLA    CLA  153   4.818   4.309   4.754  0.3143  0.5429 -0.1680
   45CLA    CLA  154   5.974   5.899   0.143 -0.2620  0.0774  0.0233
   46CLA    CLA  155   4.969   0.667   4.847  0.3512  0.0764 -0.3754
   47CLA    CLA  156   2.881   0.577   2.652  0.1095 -0.0446  0.4079
   48CLA    CLA  157   3.685   4.987   4.934  0.3109  0.2161  0.3874
   49CLA    CLA  158   2.489   2.087   1.287 -0.3838 -0.2864 -0.2104
   50CLA    CLA  159   1.539   5.379   0.723  0.1503 -0.0544  0.3218
   51CLA    CLA  160   0.081   5.573   4.220 -0.4866 -0.0584 -0.3674
   52TIP3   OH2  161   4.354   2.567   3.027 -0.7822 -0.0072  0.4186
   52TIP3    H1  162   4.309   2.482   3.028  0.0826 -0.4794  0.2660
   52TIP3    H2  163   4.437   2.550   3.071 -0.7809  0.8704  0.7624
   53TIP3   OH2  164   2.717   1.848   0.708  0.5814 -0.6512 -0.3805
   53TIP3    H1  165   2.681   1.934   0.687 -0.7737 -0.0863  3.4273
   53TIP3    H2  166   2.650   1.786   0.678  0.2199 -0.1857 -0.5476
   54TIP3   OH2  167   3.086   3.535   5.181  0.7322  0.2480  0.4128
   54TIP3    H1  168   3.088   3.461   5.242  1.0677 -0.3493 -0.3028
   54TIP3    H2  169   3.151   3.512   5.114  1.5594  1.6455  0.6899
   55TIP3   OH2  170   4.476   2.753   4.675  0.4252 -0.6875 -0.1745
   55TIP3    H1  171   4.399   2.760   4.732  0.9299  0.1812  0.4172
   55TIP3    H2  172   4.441   2.722   4.592 -0.2656 -2.5608  0.7496
   56TIP3   OH2  173   3.712   0.125   3.467 -0.4240  0.0977 -0.2818
   56TIP3    H1  174   3.695   0.208   3.511 -0.7146  0.1218 -0.4404
   56TIP3    H2  175   3.642   0.117   3.403 -0.2214 -0.1241 -0.4758
   57TIP3   OH2  176   5.678   5.526   0.533 -0.3605 -0.1733  0.3994
   57TIP3    H1  177   5.602   5.468   0.546  1.5396 -2.7811  0.5957
   57TIP3    H2  178   5.643   5.601   0.484 -2.8577 -1.7518 -0.4015
   58TIP3   OH2  179   1.734   0.411   3.897 -0.2040 -0.0123 -0.5173
   58TIP3    H1  180   1.722   0.408   3.992 -1.7055  0.2658 -0.6628
   58TIP3    H2  181   1.676   0.342   3.863  1.5792 -1.2586 -1.1643
   59TIP3   OH2  182   2.586   3.290   3.644  0.2943 -0.2703 -0.3711
   59TIP3    H1  183   2.523   3.339   3.698  1.3002  1.6712 -0.8837
   59TIP3    H2  184   2.609   3.214   3.698 -1.0328 -0.0081  0.6268
   60TIP3   OH2  185   4.435   4.424   0.113  0.3274 -0.1066 -0.3731
   60TIP3    H1  186   4.415   4.397   0.023 -1.8057  1.7612 -0.5468
   60TIP3    H2  187   4.488   4.503   0.103 -0.2624  0.3409 -0.0125
   61TIP3   OH2  188   1.644   2.459   1.872 -0.0088 -0.0577 -0.2359
   61TIP3    H1  189   1.684   2.541   1.842  1.0395  0.3746  2.1205
   61TIP3    H2  190   1.552   2.467   1.847  0.2545  1.4507 -0.8215
   62TIP3   OH2  191   3.924   1.140   3.896 -0.7065 -0.2256 -0.2413
   62TIP3    H1  192   3.991   1.073   3.880 -0.6487  0.0658 -1.3019
   62TIP3    H2  193   3.911   1.139   3.991  0.3923 -0.6751 -0.0836
   63TIP3   OH2  194   5.690   2.488   2.159  0.0422  0.3026 -0.0803
   63TIP3    H1  195   5.661   2.421   2.220 -0.3475 -0.2553 -0.8496
   63TIP3    H2  196   5.673   2.450   2.072  1.0273  0.8712 -0.5413
   64TIP3   OH2  197   2.455   2.657   3.613  0.3381 -0.1472  0.1975
   64TIP3    H1  198   2.476   2.656   3.520 -3.1214  2.9994 -0.8341
   64TIP3    H2  199   2.385   2.592   3.623 -0.1475  0.4011  0.3602
   65TIP3   OH2  200   4.976   0.757   2.237 -0.6938  0.5005  0.5650
   65TIP3    H1  201   5.069   0.782   2.235 -0.9590  1.4846 -0.4614
   65TIP3    H2  202   4.936   0.819   2.297 -0.7660  0.3226  0.7023
   66TIP3   OH2  203   2.367   4.035   1.646  0.4405 -0.2509  0.2372
   66TIP3    H1  204   2.296   3.989   1.602  1.0130 -0.2928 -0.6814
   66TIP3    H2  205   2.393   3.977   1.718  0.4975 -0.9018 -0.3001
   67TIP3   OH2  206   4.075   3.758   0.118 -0.6514 -0.4745  0.2128
   67TIP3    H1  207   4.153   3.772   0.171 -0.5310 -0.8951  0.1459
   67TIP3    H2  208   4.096   3.795   0.033 -0.4220 -0.8460  0.1091
   68TIP3   OH2  209   2.628   0.546   2.833  0.2097 -0.3596  0.0776
   68TIP3    H1  210   2.620   0.454   2.857 -0.2686 -0.6128 -1.0161
   68TIP3    H2  211   2.700   0.548   2.770  0.1789  0.0065  0.0493
   69TIP3   OH2  212   1.835   2.351   4.327  0.2466  0.0603  0.1854
   69TIP3    H1  213   1.872   2.426   4.375 -1.1645  1.3639 -0.6727
   69TIP3    H2  214   1.892   2.341   4.251 -0.2702  1.1212 -0.3675
   70TIP3   OH2  215   4.049   2.544   4.427  0.4692  0.1061  0.1017
   70TIP3    H1  216   3.986   2.588   4.484 -1.4254 -1.9216 -0.2748
   70TIP3    H2  217   4.029   2.577   4.339  1.2810  0.9142  0.2125
   71TIP3   OH2  218   5.246   2.026   4.836  0.2538  0.6686 -0.2426
   71TIP3    H1  219   5.190   2.055   4.765  1.3374 -1.0213 -1.8738
   71TIP3    H2  220   5.229   1.932   4.843  1.1939  0.5520  0.7857
   72TIP3   OH2  221   1.165   3.022   0.391  0.0769  0.0577 -0.6909
   72TIP3    H1  222   1.116   3.015   0.473 -0.7907 -0.2732 -1.2185
   72TIP3    H2  223   1.111   3.078   0.335  0.9511  0.7845 -0.8351
   73TIP3   OH2  224   4.685   4.829   4.787  0.3191 -0.1732 -0.0571
   73TIP3    H1  225   4.770   4.790   4.769  0.1982 -0.4772  0.0289
   73TIP3    H2  226   4.705   4.916   4.821  0.5443  0.7604 -2.4329
   74TIP3   OH2  227   4.520   1.783   1.001  0.1776  0.0089  0.2257
   74TIP3    H1  228   4.542   1.865   0.956 -1.2868  0.2708 -0.0651
   74TIP3    H2  229   4.425   1.783   1.005  0.2055 -1.0696  1.4076
   75TIP3   OH2  230   2.925   2.396   1.204  0.1959  0.0142  0.3517
   75TIP3    H1  231   2.880   2.333   1.148 -0.4557  0.1103  0.7532
   75TIP3    H2  232   2.911   2.480   1.161 -0.2177  0.0749  0.6022
   76TIP3   OH2  233   0.142   3.638   5.087  0.5086 -0.7012 -0.1715
   76TIP3    H1  234   0.173   3.559   5.132  0.9075 -0.2421  0.3702
   76TIP3    H2  235   0.126   3.609   4.997 -1.9319 -2.0537  0.6063
   77TIP3   OH2  236   0.081   4.452   2.564  0.1104  0.2623  0.0383
   77TIP3    H1  237   0.135   4.531   2.566  0.3637  0.1173 -0.6196
   77TIP3    H2  238  -0.008   4.483   2.576  0.2360  0.6162  0.0716
   78TIP3   OH2  239   0.752   5.986   0.805 -0.1880 -0.0428 -0.4156
   78TIP3    H1  240   0.786   5.908   0.849 -0.9250 -1.2241 -1.8453
   78TIP3    H2  241   0.762   6.056   0.870 -0.3174 -1.4857  1.2572
   79TIP3   OH2  242   4.208   3.075   1.325 -0.4718 -0.4962  0.9486
   79TIP3    H1  243   4.169   2.988   1.332 -1.4009 -0.1811  0.0183
   79TIP3    H2  244   4.270   3.067   1.253 -0.2565 -0.4978  1.1361
   80TIP3   OH2  245   3.977   0.851   4.626 -0.2231  0.0349 -0.3412
   80TIP3    H1  246   3.965   0.756   4.619  1.3311 -0.0785 -2.4422
   80TIP3    H2  247   4.069   0.861   4.652 -0.7578  0.9834  1.3084
   81TIP3   OH2  248   1.405   1.523   4.290  0.3654  0.2208  0.5138
   81TIP3    H1  249   1.462   1.468   4.236  0.2606  0.6634 -0.0633
   81TIP3    H2  250   1.399   1.605   4.241 -1.4912 -0.1229  0.1106
   82TIP3   OH2  251   1.978   4.360   2.403 -0.4835  0.1174  0.1386
   82TIP3    H1  252   2.050   4.304   2.372 -1.3621 -0.1059 -1.6249
   82TIP3    H2  253   2.022   4.439   2.435  0.6301 -0.5967  0.4595
   83TIP3   OH2  254   0.337   4.315   2.660  0.2362 -0.0289 -0.5819
   83TIP3    H1  255   0.258   4.353   2.622  0.3189 -0.4018 -1.1460
   83TIP3    H2  256   0.390   4.390   2.686  0.9156  0.3128 -2.7452
   84TIP3   OH2  257   6.087   5.255   0.851 -0.4887 -0.4222 -0.4408
   84TIP3    H1  258   6.023   5.288   0.788 -1.2444 -0.2554  0.3941
   84TIP3    H2  259   6.034   5.217   0.921  0.3327 -0.3643  0.2186
   85TIP3   OH2  260   0.799   5.894   2.747  0.6903 -0.3346 -0.2078
   85TIP3    H1  261   0.721   5.857   2.707 -0.6068  0.5754  1.3633
   85TIP3    H2  262   0.796   5.864   2.838  0.4563  2.1700  0.6977
   86TIP3   OH2  263   1.118   4.023   1.939 -0.0980 -0.1248 -0.0018
   86TIP3    H1  264   1.121   4.119   1.944  1.7072 -0.1910  0.8671
   86TIP3    H2  265   1.122   4.004   1.845  2.9830  0.6568 -0.1351
   87TIP3   OH2  266   1.691   5.582   1.052  0.0887 -0.1180  0.5070
   87TIP3    H1  267   1.627   5.627   1.107  0.9202  0.0801  1.3356
   87TIP3    H2  268   1.652   5.496   1.036  0.2179 -0.5174  2.1778
   88TIP3   OH2  269   2.262   1.607   2.169  0.7181  0.0577  0.9908
   88TIP3    H1  270   2.258   1.699   2.193 -0.2705  0.4532 -0.5823
   88TIP3    H2  271   2.195   1.565   2.223  0.0567  0.5452  0.5534
   89TIP3   OH2  272   1.740   5.314   4.238 -0.2840 -0.7420 -0.0395
   89TIP3    H1  273   1.813   5.285   4.184  0.1970  1.0632 -0.4310
   89TIP3    H2  274   1.697   5.382   4.186 -0.6625  0.0631  1.2702
   90TIP3   OH2  275   0.679   3.384   3.787  0.6675  0.1378  0.7616
   90TIP3    H1  276   0.611   3.318   3.803 -0.6337  1.7732  2.2260
   90TIP3    H2  277   0.753   3.356   3.842  0.6775 -0.8591  0.2643
   91TIP3   OH2  278   5.439   4.263   3.380  0.0029  1.2443  0.4910
   91TIP3    H1  279   5.459   4.304   3.296 -1.3096  1.2612  0.1620
   91TIP3    H2  280   5.522   4.225   3.409 -0.0668 -1.3224 -2.2020
   92TIP3   OH2  281   2.404   4.650   2.050 -0.5296 -0.6146  0.2345
   92TIP3    H1  282   2.497   4.649   2.074  0.3263  0.9010 -2.6095
   92TIP3    H2  283   2.403   4.625   1.957 -3.0357 -1.0331  0.3116
   93TIP3   OH2  284   2.624   5.501   0.310  0.0729  0.7032  0.1423
   93TIP3    H1  285   2.695   5.561   0.334 -0.0228  1.3073 -0.9883
   93TIP3    H2  286   2.665   5.438   0.251 -0.1878  0.6659  0.0007
   94TIP3   OH2  287   5.778   1.666   3.586  1.2571 -1.0257 -0.1193
   94TIP3    H1  288   5.809   1.584   3.624 -0.4493 -2.6409 -1.9234
   94TIP3    H2  289   5.833   1.679   3.509  0.0077 -1.8870 -1.2185
   95TIP3   OH2  290   0.559   4.383   3.267  0.6340 -0.1308  0.1795
   95TIP3    H1  291   0.589   4.470   3.243  0.0221 -0.1010 -0.5070
   95TIP3    H2  292   0.463   4.391   3.270  0.6500  0.0222  3.2284
   96TIP3   OH2  293   4.936   4.358   0.456  0.1013  0.3727  0.1212
   96TIP3    H1  294   4.959   4.449   0.476  1.9258 -0.1768  0.7233
   96TIP3    H2  295   5.018   4.319   0.425 -1.0958 -0.5680 -2.1211
   97TIP3   OH2  296   0.761   3.158   0.004 -0.1353  0.5184  0.2981
   97TIP3    H1  297   0.720   3.166   0.090  0.0749  0.4482  0.4054
   97TIP3    H2  298   0.820   3.233  -0.001  0.5542  0.0082  0.6019
   98TIP3   OH2  299   5.207   5.830   4.989  0.4389  0.3567 -0.3805
   98TIP3    H1  300   5.188   5.909   4.938 -0.2156 -1.8688 -3.9512
   98TIP3    H2  301   5.125   5.808   5.033  0.8706  2.0301  1.4017
   99TIP3   OH2  302   3.954   4.259   0.655  0.4089 -0.0123  0.0605
   99TIP3    H1  303   3.896   4.219   0.590  2.8963 -0.8565 -1.8169
   99TIP3    H2  304   3.940   4.208   0.734 -0.9140 -0.6059 -0.5293
  100TIP3   OH2  305   3.805   2.665   2.588 -0.1161 -0.1444  0.5107
  100TIP3    H1  306   3.818   2.583   2.539  0.3726 -1.0602  2.1238
  100TIP3    H2  307   3.721   2.698   2.556  0.5400 -0.2648 -1.5285
  101TIP3   OH2  308   4.111   0.926   0.549  0.0388  0.7024  0.5409
  101TIP3    H1  309   4.057   0.871   0.607 -0.5036  0.9954  0.3219
  101TIP3    H2  310   4.188   0.873   0.532 -0.3435  0.1246  0.5758
  102TIP3   OH2  311   0.019   0.831   3.728  0.2641  0.2879  0.0601
  102TIP3    H1  312  -0.015   0.866   3.645 -0.2357  1.1087  0.5901
  102TIP3    H2  313   0.029   0.738   3.712  0.2574  0.4448 -0.9563
  103TIP3   OH2  314   1.704   5.106   3.780  0.1699  0.4777 -0.0668
  103TIP3    H1  315   1.752   5.186   3.803 -0.1372  0.2555  1.4123
  103TIP3    H2  316   1.658   5.081   3.860 -0.0085 -0.9989 -0.5966
  104TIP3   OH2  317   3.130   0.095   1.612  0.3506 -0.2630  0.0589
  104TIP3    H1  318   3.155   0.184   1.636  1.4815 -0.3632 -0.6743
  104TIP3    H2  319   3.136   0.044   1.693  3.1798 -0.4095 -0.1394
  105TIP3   OH2  320   0.949   4.835   1.871 -0.1753 -0.5372 -0.4702
  105TIP3    H1  321   1.040   4.815   1.850  0.4777  0.0501  1.5178
  105TIP3    H2  322   0.942   4.930   1.857 -0.0945 -0.3651  0.5759
  106TIP3   OH2  323   0.584   3.457   0.165 -0.1967  0.2856  0.4466
  106TIP3    H1  324   0.656   3.448   0.227  0.5328  0.9614 -0.2822
  106TIP3    H2  325   0.626   3.482   0.082 -1.3408  1.5726  0.2276
  107TIP3   OH2  326   5.945   1.660   3.960 -0.8888 -0.0701  0.4461
  107TIP3    H1  327   5.890   1.693   4.031 -0.1792  1.0856  0.4833
  107TIP3    H2  328   5.938   1.565   3.966 -4.1242 -0.0294 -0.4880
  108TIP3   OH2  329   5.127   5.652   1.718 -0.3002  0.4916 -0.0988
  108TIP3    H1  330   5.151   5.744   1.730 -0.1919  0.4661 -0.1234
  108TIP3    H2  331   5.165   5.627   1.634  1.8495 -0.2938  1.0444
  109TIP3   OH2  332   1.944   1.064   3.458  0.2888  0.0900 -0.1232
  109TIP3    H1  333   1.855   1.093   3.476 -0.0379  0.5835 -2.2025
  109TIP3    H2  334   1.976   1.028   3.541 -1.9130 -0.2839  0.6127
  110TIP3   OH2  335   0.590   2.509   2.924 -0.2341 -0.2576 -0.3173
  110TIP3    H1  336   0.584   2.415   2.910 -0.0999 -0.1679 -1.0205
  110TIP3    H2  337   0.673   2.535   2.884  0.6941 -0.1220  1.5692
  111TIP3   OH2  338   3.398   5.476   0.915  0.3247 -0.2282  0.0521
  111TIP3    H1  339   3.489   5.503   0.922  0.9421 -2.4588  1.9202
  111TIP3    H2  340   3.401   5.380   0.910 -1.9213 -0.6744  3.4813
  112TIP3   OH2  341   3.883   2.218   3.062  0.1739  0.0138 -0.0277
  112TIP3    H1  342   3.825   2.147   3.035  0.6075 -0.1519 -0.5417
  112TIP3    H2  343   3.854   2.294   3.011 -1.1602  0.5782  1.4959
  113TIP3   OH2  344   1.130   3.026   1.476 -0.0089 -0.5528 -0.5623
  113TIP3    H1  345   1.213   3.071   1.459  0.1207 -0.4097  0.3768
  113TIP3    H2  346   1.088   3.079   1.544 -0.2153 -1.4077 -0.0102
  114TIP3   OH2  347   5.670   5.120   2.680 -0.1100 -0.5359  0.1183
  114TIP3    H1  348   5.687   5.056   2.612 -2.0156  0.4567 -1.3784
  114TIP3    H2  349   5.577   5.109   2.701 -0.5086  1.6786 -0.2047
  115TIP3   OH2  350   2.956   1.491   2.252 -0.6339  0.1881 -0.1265
  115TIP3    H1  351   2.902   1.560   2.213 -0.4393 -0.1931 -1.1180
  115TIP3    H2  352   2.917   1.475   2.337 -1.6691  0.3945 -0.5442
  116TIP3   OH2  353   3.145   1.275   3.325 -0.1376 -0.1063  0.1352
  116TIP3    H1  354   3.113   1.316   3.244 -1.4560  2.9781  2.0328
  116TIP3    H2  355   3.067   1.270   3.381  0.4773 -3.2934  0.8634
  117TIP3   OH2  356   1.595   4.800   2.542 -0.1005  0.1133 -0.0645
  117TIP3    H1  357   1.640   4.725   2.581  1.4184 -0.1794 -2.2320
  117TIP3    H2  358   1.528   4.823   2.606  0.9874 -1.5342  1.7801
  118TIP3   OH2  359   0.014   0.944   3.474  0.0767 -0.5432 -0.2404
  118TIP3    H1  360   0.010   1.021   3.417  0.1708  1.2101  1.9794
  118TIP3    H2  361   0.075   0.885   3.430 -0.8415  0.1174 -2.5668
  119TIP3   OH2  362   3.542   1.584   4.292  0.0921 -0.8566 -0.4617
  119TIP3    H1  363   3.554   1.528   4.214 -0.6762 -0.0365 -1.1857
  119TIP3    H2  364   3.448   1.598   4.297 -0.1161 -2.5502  1.8387
  120TIP3   OH2  365   3.401   3.602   4.718 -0.2985  0.6141  1.0515
  120TIP3    H1  366   3.469   3.537   4.738 -1.4458 -1.3193 -0.9314
  120TIP3    H2  367   3.436   3.652   4.645 -0.9469 -0.3507  0.0610
  121TIP3   OH2  368   3.588   2.747   2.211 -0.1662  0.2822  0.2668
  121TIP3    H1  369   3.678   2.734   2.242 -0.0879 -1.5419 -0.5543
  121TIP3    H2  370   3.598   2.803   2.133  0.1168  1.0471  0.8422
  122TIP3   OH2  371   0.656   1.752   1.352  1.0288 -0.1820  0.9127
  122TIP3    H1  372   0.573   1.783   1.388  0.3440  1.8643 -2.0995
  122TIP3    H2  373   0.722   1.811   1.389  0.6436  0.4889  0.5449
  123TIP3   OH2  374   3.604   4.641   3.680 -0.0681 -0.4432 -0.0832
  123TIP3    H1  375   3.661   4.621   3.605 -2.2165 -2.1008 -1.4170
  123TIP3    H2  376   3.639   4.587   3.751 -1.2994 -3.4568 -1.5735
  124TIP3   OH2  377   0.094   2.475   3.083  0.0084 -0.3387  0.5604
  124TIP3    H1  378   0.042   2.473   3.164 -0.7814 -2.5761  0.0783
  124TIP3    H2  379   0.029   2.469   3.013  0.7887 -0.6409 -0.1519
  125TIP3   OH2  380   4.910   5.372   0.576  0.3938  0.6414  0.0212
  125TIP3    H1  381   4.878   5.283   0.590  0.6869  0.7077  1.2826
  125TIP3    H2  382   4.831   5.424   0.565  0.1911  0.3281 -0.0423
  126TIP3   OH2  383   4.069   0.541   0.993  0.0400 -0.0776  0.5516
  126TIP3    H1  384   4.147   0.525   0.940 -0.3195 -2.2199  0.5681
  126TIP3    H2  385   4.079   0.484   1.069 -1.9939 -1.2305  0.0302
  127TIP3   OH2  386   4.079   3.174   2.430  0.1986  0.2639  0.0036
  127TIP3    H1  387   4.103   3.082   2.440 -2.5521 -0.5494 -0.1429
  127TIP3    H2  388   4.072   3.188   2.336 -1.6506 -0.0908  0.0488
  128TIP3   OH2  389   3.018   3.513   4.696  0.4656  0.4506 -0.8231
  128TIP3    H1  390   2.954   3.546   4.634 -1.3874 -0.8388  0.2969
  128TIP3    H2  391   2.978   3.526   4.782  1.5590 -0.6866 -0.0906
  129TIP3   OH2  392   0.430   0.110   4.195 -0.4766 -0.9340  0.5858
  129TIP3    H1  393   0.354   0.067   4.156 -0.7676 -1.1995  1.4356
  129TIP3    H2  394   0.423   0.093   4.289  0.2448 -0.3509  0.7601
  130TIP3   OH2  395   4.072   1.911   1.681 -0.0704 -0.3713 -0.7363
  130TIP3    H1  396   4.148   1.859   1.656  0.6368  0.1377  0.3067
  130TIP3    H2  397   4.069   1.906   1.776 -2.3693 -1.8019 -0.8110
  131TIP3   OH2  398   1.605   3.813   1.313 -0.0045 -0.6307 -0.0268
  131TIP3    H1  399   1.609   3.887   1.254  1.6100  0.2250  1.0711
  131TIP3    H2  400   1.519   3.820   1.355 -0.5986 -0.4580 -1.2297
  132TIP3   OH2  401   0.858   3.951   1.990 -0.1132  0.1016  0.4007
  132TIP3    H1  402   0.939   3.974   1.946 -0.2468 -0.0903  0.0582
  132TIP3    H2  403   0.848   4.020   2.057 -0.4380  0.9855 -0.5294
  133TIP3   OH2  404   2.893   1.356   2.543 -0.0185 -0.3902 -0.5956
  133TIP3    H1  405   2.811   1.323   2.579 -0.2258  0.6504 -0.0505
  133TIP3    H2  406   2.937   1.279   2.508 -0.5110 -1.2088  0.5248
  134TIP3   OH2  407   3.405   5.538   4.304  0.3250  0.4075 -0.0173
  134TIP3    H1  408   3.350   5.563   4.378 -0.5386  2.8793 -1.3554
  134TIP3    H2  409   3.461   5.615   4.289  1.4014 -0.5496 -1.1043
  135TIP3   OH2  410   5.041   3.016   4.928  0.3676  0.6709 -0.0564
  135TIP3    H1  411   5.053   3.064   4.845 -0.0562 -0.3574 -0.7294
  135TIP3    H2  412   5.127   2.981   4.948  0.4830  0.9654 -0.0295
  136TIP3   OH2  413   0.700   0.652   0.080  0.5878  0.4214  0.6498
  136TIP3    H1  414   0.626   0.593   0.089 -0.3725  1.6011  0.6867
  136TIP3    H2  415   0.777   0.594   0.078 -0.3743 -0.8820 -0.3575
  137TIP3   OH2  416   2.181   4.930   1.116 -0.0997 -0.5538  0.4211
  137TIP3    H1  417   2.159   4.964   1.202 -0.6548  0.1978 -0.0060
  137TIP3    H2  418   2.123   4.976   1.056 -0.5200 -1.8881 -0.2464
  138TIP3   OH2  419   0.476   3.315   0.451 -0.7996 -0.3640  0.1015
  138TIP3    H1  420   0.431   3.398   0.466 -1.9138 -1.0391  0.6213
  138TIP3    H2  421   0.481   3.275   0.537  2.2337  0.3427  0.3586
  139TIP3   OH2  422   5.131   3.224   1.672 -0.0149  0.3964 -0.5674
  139TIP3    H1  423   5.039   3.197   1.676  0.5909 -1.7127  2.5417
  139TIP3    H2  424   5.172   3.161   1.613 -0.3137  0.5960 -0.9972
  140TIP3   OH2  425   2.601   2.194   2.810  0.2492  0.1349 -0.0836
  140TIP3    H1  426   2.674   2.248   2.840  1.4637 -2.1850  1.5022
  140TIP3    H2  427   2.570   2.150   2.890  0.2875 -2.5364 -1.4378
  141TIP3   OH2  428   5.373   5.514   2.131 -0.1161 -0.0429  0.6864
  141TIP3    H1  429   5.353   5.420   2.134  0.7916 -0.2207  2.2480
  141TIP3    H2  430   5.381   5.533   2.037  1.4078 -1.9408  0.3582
  142TIP3   OH2  431   2.952   5.876   4.492  0.1055 -0.1466  0.2897
  142TIP3    H1  432   3.004   5.815   4.543 -0.0919  0.5490  1.3564
  142TIP3    H2  433   2.959   5.844   4.402  1.4399 -0.7054  0.5683
  143TIP3   OH2  434   2.191   5.339   0.619 -0.8179  0.0505  0.1675
  143TIP3    H1  435   2.237   5.342   0.703 -0.9626 -1.4422  0.3274
  143TIP3    H2  436   2.163   5.248   0.611  0.4175 -0.1910 -2.1643
  144TIP3   OH2  437   0.902   1.967   2.085  0.4806  0.0088  0.2267
  144TIP3    H1  438   0.854   1.963   2.168  3.8128  1.2824  2.4102
  144TIP3    H2  439   0.894   2.059   2.058  0.0374 -0.2365 -0.5040
  145TIP3   OH2  440   2.696   4.566   3.777  0.1487 -0.3725  0.1162
  145TIP3    H1  441   2.697   4.647   3.726 -2.1742 -0.3378  0.0132
  145TIP3    H2  442   2.665   4.593   3.864 -0.6171 -1.1302  0.0887
  146TIP3   OH2  443   5.669   0.587   0.578 -0.0756  0.5694  0.1519
  146TIP3    H1  444   5.613   0.651   0.535 -0.0558  1.3899  1.3019
  146TIP3    H2  445   5.661   0.607   0.671  1.6691  0.3240  0.3827
  147TIP3   OH2  446   0.094   5.868   1.952  0.0507  0.8917 -0.5338
  147TIP3    H1  447   0.103   5.892   1.860  0.6142  0.8197 -0.4993
  147TIP3    H2  448  -0.001   5.860   1.966 -0.0077  0.2299 -1.2847
  148TIP3   OH2  449   4.017   5.020   1.918 -0.2207 -0.5663 -0.3341
  148TIP3    H1  450   4.032   5.076   1.842 -0.3890 -0.0953 -0.0270
  148TIP3    H2  451   4.101   5.017   1.963 -0.7593  1.4535  0.9730
  149TIP3   OH2  452   5.756   0.102   1.610  0.2424 -0.8397  0.4011
  149TIP3    H1  453   5.846   0.121   1.636  0.3216  2.3943 -1.6677
  149TIP3    H2  454   5.762   0.072   1.520 -0.6674 -3.0670  1.0060
  150TIP3   OH2  455   3.035   2.278   4.370  0.2318 -0.1738 -0.4165
  150TIP3    H1  456   3.072   2.191   4.380 -0.0635 -0.5134 -1.9966
  150TIP3    H2  457   3.100   2.336   4.410  1.0548 -1.0093 -0.4906
  151TIP3   OH2  458   0.690   1.078   0.070 -0.2365 -0.4166  0.2029
  151TIP3    H1  459   0.752   1.095   0.141 -2.2534 -3.8122  3.1510
  151TIP3    H2  460   0.621   1.144   0.081  0.7403  0.7356 -0.3915
  152TIP3   OH2  461   3.546   0.833   1.087 -0.7101  0.4525 -0.0426
  152TIP3    H1  462   3.566   0.739   1.092 -0.5561  0.4610 -0.4272
  152TIP3    H2  463   3.470   0.838   1.028 -1.8722  0.4229  1.3831
  153TIP3   OH2  464   4.653   4.405   3.438  0.1458  0.1548  0.1321
  153TIP3    H1  465   4.697   4.333   3.394 -3.1542 -1.2234 -1.1717
  153TIP3    H2  466   4.699   4.414   3.522  3.1214 -0.7690 -1.2722
  154TIP3   OH2  467   0.075   2.957   4.545 -0.1419 -0.1748  0.0904
  154TIP3    H1  468   0.031   2.997   4.470 -0.3740  1.5065  1.0813
  154TIP3    H2  469   0.099   3.030   4.601  2.0338 -1.2113  0.6168
  155TIP3   OH2  470   0.998   4.977   4.968 -0.0562  0.6317  0.2265
  155TIP3    H1  471   0.994   5.006   4.877  1.3630 -0.3603 -0.1882
  155TIP3    H2  472   1.051   5.043   5.012  0.8431  0.1363 -0.0987
  156TIP3   OH2  473   3.374   4.875   4.333  0.1591  0.1926 -0.3385
  156TIP3    H1  474   3.430   4.951   4.317 -1.5690  1.7335  0.4673
  156TIP3    H2  475   3.392   4.815   4.261  0.0602  2.3101 -2.2139
  157TIP3   OH2  476   5.961   0.904   4.225  0.7176 -0.2747  0.0144
  157TIP3    H1  477   6.045   0.874   4.192  0.6962  1.1149 -1.3791
  157TIP3    H2  478   5.978   0.992   4.259 -0.1823  0.0407 -0.3266
  158TIP3   OH2  479   1.982   1.617   1.634  0.6770  0.4781 -0.3563
  158TIP3    H1  480   2.011   1.615   1.725  0.8586  0.3695 -0.4165
  158TIP3    H2  481   2.063   1.616   1.583  0.5667 -1.1192 -0.5535
  159TIP3   OH2  482   5.026   3.511   1.149  0.0636  0.6249  0.0683
  159TIP3    H1  483   5.111   3.553   1.136  1.0051 -1.2409 -0.0197
  159TIP3    H2  484   4.998   3.487   1.061  1.2961 -2.1898  0.3602
  160TIP3   OH2  485   0.495   3.458   2.417 -0.4164 -0.2034  0.5235
  160TIP3    H1  486   0.523   3.375   2.457  1.6476 -0.0046 -0.3701
  160TIP3    H2  487   0.517   3.525   2.482  0.4140 -0.1317  0.1810
  161TIP3   OH2  488   0.551   5.054   2.314  0.7731  0.5219  0.5358
  161TIP3    H1  489   0.646   5.048   2.301  0.6330  0.1670 -0.4098
  161TIP3    H2  490   0.541   5.084   2.405  1.7578 -1.2575  1.2854
  162TIP3   OH2  491   2.991   3.544   4.131 -0.3419  0.2017 -0.5031
  162TIP3    H1  492   3.000   3.460   4.176  0.1497  0.2338 -0.5325
  162TIP3    H2  493   2.958   3.604   4.198  2.4423  0.7821  0.4657
  163TIP3   OH2  494   0.297   0.800   3.652  0.7219  0.4359  0.7654
  163TIP3    H1  495   0.226   0.851   3.692  2.7327  4.1912  0.0101
  163TIP3    H2  496   0.271   0.792   3.560 -0.4841 -1.8308  1.2134
  164TIP3   OH2  497   5.266   3.805   0.950 -0.2541 -0.6160  0.3131
  164TIP3    H1  498   5.320   3.884   0.964  0.1069 -1.1150  1.9194
  164TIP3    H2  499   5.181   3.828   0.987 -0.7204 -0.3634 -0.8703
  165TIP3   OH2  500   4.614   2.366   2.224 -0.0451 -0.3396  0.3496
  165TIP3    H1  501   4.599   2.450   2.179  0.4587  0.3232  1.3779
  165TIP3    H2  502   4.653   2.391   2.308  1.9931 -1.6816 -0.1158
  166TIP3   OH2  503   2.190   1.504   0.889  0.7242 -0.1909  0.1227
  166TIP3    H1  504   2.184   1.520   0.984  0.0379  0.7231 -0.0531
  166TIP3    H2  505   2.268   1.451   0.879  0.2239 -1.2102  1.3117
  167TIP3   OH2  506   1.492   3.372   1.496 -0.2966  0.1447  0.3129
  167TIP3    H1  507   1.503   3.425   1.417  0.5255 -0.7737 -0.2191
  167TIP3    H2  508   1.559   3.404   1.556 -0.2746  0.1976  0.2597
  168TIP3   OH2  509   3.574   1.909   2.466 -0.1734  0.0297  0.5504
  168TIP3    H1  510   3.611   1.997   2.468 -1.0013  0.3925  2.8908
  168TIP3    H2  511   3.518   1.909   2.388 -0.6395  1.7974  0.8385
  169TIP3   OH2  512   2.619   2.515   2.791 -0.6228 -0.6001 -0.1826
  169TIP3    H1  513   2.693   2.576   2.795 -0.6517 -0.5393 -0.5520
  169TIP3    H2  514   2.604   2.490   2.882  0.2655 -1.1160 -0.1647
  170TIP3   OH2  515   5.290   4.674   3.443  0.0401  0.2485 -0.1002
  170TIP3    H1  516   5.380   4.694   3.467 -0.2613  1.0430  0.4052
  170TIP3    H2  517   5.238   4.703   3.517 -0.7298  0.8425 -0.8468
  171TIP3   OH2  518   4.900   5.779   0.861 -0.0270  0.5138  0.0187
  171TIP3    H1  519   4.911   5.701   0.914  2.0051  0.9469  0.2944
  171TIP3    H2  520   4.950   5.762   0.781  0.7729  1.6574  0.2496
  172TIP3   OH2  521   2.647   5.132   2.437 -0.4372  0.4850  0.1744
  172TIP3    H1  522   2.645   5.165   2.526 -1.0452  0.2426  0.2588
  172TIP3    H2  523   2.730   5.085   2.430 -0.4897  0.3162  0.6792
  173TIP3   OH2  524   1.111   3.192   4.735  0.1085  0.6585 -0.3567
  173TIP3    H1  525   1.137   3.281   4.760 -0.2024  0.4929  0.5925
  173TIP3    H2  526   1.081   3.152   4.817  2.5332 -1.1453 -0.2530
  174TIP3   OH2  527   1.427   1.499   3.221  0.0530 -0.2931 -0.1745
  174TIP3    H1  528   1.433   1.412   3.182 -0.2979 -0.6546  0.5600
  174TIP3    H2  529   1.338   1.528   3.202  0.4015  0.2266 -1.0640
  175TIP3   OH2  530   1.045   1.735   4.615  0.2364  0.7552 -0.4373
  175TIP3    H1  531   1.136   1.761   4.600  0.3782  0.1622 -0.6461
  175TIP3    H2  532   1.051   1.649   4.655 -0.2536 -0.1342 -2.1820
  176TIP3   OH2  533   1.195   5.455   1.226  0.4113  0.3201  0.2094
  176TIP3    H1  534   1.164   5.543   1.248  0.1771  0.6438 -1.3295
  176TIP3    H2  535   1.154   5.398   1.292 -1.1035  1.1105 -0.0190
  177TIP3   OH2  536   4.449   3.111   2.246  0.0014  0.7140  0.1351
  177TIP3    H1  537   4.371   3.066   2.213  0.6413 -0.3833  0.0870
  177TIP3    H2  538   4.482   3.159   2.170  0.4684 -0.3926 -0.3913
  178TIP3   OH2  539   1.285   3.432   5.124 -0.5652 -0.1785 -0.2530
  178TIP3    H1  540   1.238   3.504   5.166  0.2484 -0.1916  0.7091
  178TIP3    H2  541   1.330   3.472   5.050 -0.4490  0.2307  0.0376
  179TIP3   OH2  542   1.079   3.651   0.300 -0.1520 -0.6210 -0.2168
  179TIP3    H1  543   1.138   3.578   0.317  0.1783 -0.2963  0.0183
  179TIP3    H2  544   1.034   3.666   0.383  0.4903  0.0798  0.0181
  180TIP3   OH2  545   2.921   3.558   4.949 -0.2273  0.0607  0.0115
  180TIP3    H1  546   2.958   3.555   5.037 -0.6779  0.2244  0.2075
  180TIP3    H2  547   2.826   3.566   4.962 -0.3590 -0.5901 -0.4828
  181TIP3   OH2  548   3.849   2.430   2.886  0.1521  0.4581 -0.0562
  181TIP3    H1  549   3.809   2.494   2.945  1.9367  1.1602  0.4628
  181TIP3    H2  550   3.777   2.401   2.830 -0.6152  3.5614 -0.9064
  182TIP3   OH2  551   4.585   3.225   1.262  0.1457 -0.0786  0.1120
  182TIP3    H1  552   4.574   3.156   1.196 -0.9547  0.8467 -0.7040
  182TIP3    H2  553   4.679   3.244   1.261  0.1356 -0.0031 -1.2848
  183TIP3   OH2  554   4.267   0.502   0.787 -0.6586 -0.1466  0.4304
  183TIP3    H1  555   4.315   0.486   0.706 -0.5021 -0.5563  0.5986
  183TIP3    H2  556   4.266   0.597   0.796 -2.1972  0.0077 -0.9518
  184TIP3   OH2  557   1.065   5.934   0.990 -0.0513 -0.4201 -0.3971
  184TIP3    H1  558   1.039   5.960   1.079 -1.2282  1.6213 -1.2713
  184TIP3    H2  559   1.151   5.893   1.001 -0.2636 -0.4024  1.6951
  185TIP3   OH2  560   4.568   0.427   1.666 -0.4402 -0.6103  0.3762
  185TIP3    H1  561   4.617   0.359   1.619 -0.1471 -1.0581  1.3033
  185TIP3    H2  562   4.476   0.403   1.653 -0.5927  1.2369 -2.8925
  186TIP3   OH2  563   4.338   2.962   0.295 -0.6969 -0.6595  0.5235
  186TIP3    H1  564   4.433   2.972   0.298 -0.7541  0.2257 -0.0802
  186TIP3    H2  565   4.315   2.917   0.376  0.0078  1.1060  1.7580
  187TIP3   OH2  566   6.063   1.899   3.193  0.1974 -0.4094  0.1413
  187TIP3    H1  567   6.004   1.953   3.140 -0.8986 -1.8901 -0.2029
  187TIP3    H2  568   6.010   1.873   3.269  1.0930 -0.0280  0.9217
  188TIP3   OH2  569   4.771   5.858   3.026  0.0512 -0.0670 -0.2751
  188TIP3    H1  570   4.808   5.943   3.047 -0.1070 -0.5622  2.4420
  188TIP3    H2  571   4.709   5.875   2.955  2.1322  1.5172 -1.8300
  189TIP3   OH2  572   2.501   2.573   0.186 -0.4870  0.2845 -0.2510
  189TIP3    H1  573   2.546   2.653   0.213 -0.8161  0.2883  0.3074
  189TIP3    H2  574   2.557   2.502   0.216 -1.4226  0.2597  1.5616
  190TIP3   OH2  575   1.508   4.843   1.814 -0.1341  0.2436  0.1291
  190TIP3    H1  576   1.473   4.907   1.876 -0.7319 -2.3089  2.5962
  190TIP3    H2  577   1.586   4.809   1.856  0.4266 -0.3594 -1.3459
  191TIP3   OH2  578   3.748   2.785   2.814  0.3077  0.3363 -0.2925
  191TIP3    H1  579   3.773   2.741   2.732 -1.6719 -0.0313 -0.7655
  191TIP3    H2  580   3.719   2.714   2.871 -2.8196  0.8528 -1.0246
  192TIP3   OH2  581   4.192   3.292   4.627 -0.6320 -0.1102  0.8319
  192TIP3    H1  582   4.131   3.310   4.556 -0.5795 -2.7967 -0.0066
  192TIP3    H2  583   4.138   3.297   4.706 -2.0335 -2.4512  0.1098
  193TIP3   OH2  584   5.136   2.625   4.055 -0.0966  0.3212  0.4235
  193TIP3    H1  585   5.205   2.597   3.995 -0.3304  1.5123 -0.4418
  193TIP3    H2  586   5.182   2.671   4.126  0.0769  0.1936  0.3929
  194TIP3   OH2  587   2.568   0.298   2.564 -0.3324  0.4917 -0.2929
  194TIP3    H1  588   2.486   0.284   2.612  0.4040  1.4561  1.3174
  194TIP3    H2  589   2.637   0.287   2.629  1.1015 -2.8563 -2.0902
  195TIP3   OH2  590   6.128   3.730   4.749 -0.1048 -0.0712 -0.0569
  195TIP3    H1  591   6.158   3.711   4.660 -0.7799  0.5052 -0.4192
  195TIP3    H2  592   6.067   3.803   4.739  0.1192  0.2695  0.9321
  196TIP3   OH2  593   0.780   1.284   1.289 -0.0365  0.2324  0.1812
  196TIP3    H1  594   0.865   1.294   1.247 -0.1455 -0.2730 -0.1751
  196TIP3    H2  595   0.733   1.221   1.233 -0.6452  0.5159  0.3648
  197TIP3   OH2  596   5.646   0.416   1.121 -0.5192 -0.3098 -0.0758
  197TIP3    H1  597   5.550   0.424   1.125 -0.4012  1.3748 -0.0386
  197TIP3    H2  598   5.668   0.433   1.030 -0.2314 -0.6475 -0.0727
  198TIP3   OH2  599   1.237   3.680   3.063  0.5781  0.3191 -0.2400
  198TIP3    H1  600   1.267   3.591   3.080 -0.3988 -0.5027 -2.4147
  198TIP3    H2  601   1.266   3.730   3.139  1.8629 -1.6717  0.6700
  199TIP3   OH2  602   6.111   2.662   0.511 -0.1572  0.1399 -0.0966
  199TIP3    H1  603   6.057   2.669   0.432 -0.7793 -0.9322  0.2033
  199TIP3    H2  604   6.063   2.601   0.567  0.0625  1.2162  1.3058
  200TIP3   OH2  605   0.375   0.616   1.503  0.2618  0.5596 -0.1284
  200TIP3    H1  606   0.289   0.623   1.461 -0.1605 -0.0360  0.6271
  200TIP3    H2  607   0.368   0.541   1.561  0.6144  1.8029  1.5790
  201TIP3   OH2  608   1.750   1.981   3.571  0.9330  0.3650  0.8144
  201TIP3    H1  609   1.784   1.916   3.510  0.0130  1.3551 -0.8370
  201TIP3    H2  610   1.733   1.933   3.651  1.1490 -1.2301 -0.0645
  202TIP3   OH2  611   1.670   5.828   2.304  0.3028  0.2005  0.6873
  202TIP3    H1  612   1.605   5.814   2.373  2.5788 -3.0636  2.4678
  202TIP3    H2  613   1.751   5.849   2.351  2.0719 -2.6835 -0.7750
  203TIP3   OH2  614   1.144   1.448   4.366  0.0170  0.3524  0.4850
  203TIP3    H1  615   1.237   1.468   4.364 -0.2396  1.5912 -0.9635
  203TIP3    H2  616   1.110   1.481   4.283 -1.6308 -0.5481  0.7418
  204TIP3   OH2  617   1.909   3.340   2.711 -0.0491 -0.5439 -0.4475
  204TIP3    H1  618   1.913   3.318   2.617 -2.3056  0.1824 -0.7702
  204TIP3    H2  619   1.824   3.307   2.739 -0.2247  0.9683  0.8828
  205TIP3   OH2  620   3.215   0.367   1.277 -0.3753  0.4555 -0.4335
  205TIP3    H1  621   3.273   0.443   1.269 -0.1988  0.4524  0.5996
  205TIP3    H2  622   3.144   0.385   1.216 -0.7488  1.8417  0.3513
  206TIP3   OH2  623   3.891   1.250   2.886  0.8175 -0.2016 -0.0032
  206TIP3    H1  624   3.928   1.317   2.829 -0.3963 -1.5017 -2.4621
  206TIP3    H2  625   3.878   1.174   2.829  0.2754 -1.8852  2.2121
  207TIP3   OH2  626   4.083   2.452   4.719 -0.5103  0.1650  0.0157
  207TIP3    H1  627   3.989   2.444   4.706 -0.6565  0.1680  0.9867
  207TIP3    H2  628   4.097   2.545   4.736 -0.3220  0.1751 -0.1903
  208TIP3   OH2  629   1.605   3.072   4.423  0.6897 -0.0163 -0.1364
  208TIP3    H1  630   1.531   3.045   4.476 -0.4237  0.0588 -1.5805
  208TIP3    H2  631   1.676   3.012   4.448 -0.0505 -0.5279  0.7928
  209TIP3   OH2  632   4.074   1.939   1.962 -0.1129  0.2313 -0.3267
  209TIP3    H1  633   3.986   1.912   1.988 -0.1541  1.2741  0.6707
  209TIP3    H2  634   4.080   2.031   1.989  1.1468  0.2819 -0.7294
  210TIP3   OH2  635   3.523   5.140   2.273 -0.0640  0.2357 -0.1807
  210TIP3    H1  636   3.528   5.073   2.204 -1.0634  1.8309 -1.8842
  210TIP3    H2  637   3.523   5.223   2.226  1.6376  1.5244  1.8943
  211TIP3   OH2  638   0.223   2.537   5.025 -0.9197  0.2221 -0.0233
  211TIP3    H1  639   0.256   2.546   5.115 -0.0274 -2.2798 -0.0029
  211TIP3    H2  640   0.143   2.588   5.024  0.2423  2.2323  1.5022
  212TIP3   OH2  641   0.316   4.536   0.607  0.1415  0.4006  0.2644
  212TIP3    H1  642   0.253   4.574   0.545  1.1612  1.2638 -0.2733
  212TIP3    H2  643   0.302   4.584   0.688  0.8293  1.3562 -0.1656
  213TIP3   OH2  644   3.551   3.373   2.102 -0.1658  0.3450 -0.2378
  213TIP3    H1  645   3.586   3.371   2.013 -4.3317 -0.6489 -2.0675
  213TIP3    H2  646   3.544   3.281   2.128 -1.1297  0.5031  0.1199
  214TIP3   OH2  647   1.372   4.843   0.887 -0.2936 -0.1554 -0.7847
  214TIP3    H1  648   1.372   4.911   0.820  0.0454 -0.8571 -1.5153
  214TIP3    H2  649   1.459   4.803   0.881 -0.1715 -0.0676  0.2438
  215TIP3   OH2  650   0.408   2.089   4.377 -0.2235 -0.0477  0.0363
  215TIP3    H1  651   0.316   2.105   4.400  0.0142  1.1947  0.2334
  215TIP3    H2  652   0.454   2.094   4.461 -0.1778 -2.7212  0.2595
  216TIP3   OH2  653   2.730   4.459   4.308  0.2681 -0.3042 -0.1675
  216TIP3    H1  654   2.792   4.500   4.368  2.1620 -1.0177 -1.5563
  216TIP3    H2  655   2.767   4.372   4.291 -0.1590 -0.1000 -2.3972
  217TIP3   OH2  656   0.177   3.792   3.567  0.3214  0.1875  0.0995
  217TIP3    H1  657   0.211   3.771   3.654 -0.3629  0.8859  0.5433
  217TIP3    H2  658   0.142   3.881   3.576  3.9754  2.0710 -1.9313
  218TIP3   OH2  659   0.044   1.503   2.328 -0.3161  0.1269 -0.9855
  218TIP3    H1  660  -0.028   1.561   2.301 -0.9893  0.0039  0.4702
  218TIP3    H2  661   0.000   1.428   2.368  0.6103 -0.4669 -1.0605
  219TIP3   OH2  662   2.022   2.433   3.251  0.1523 -0.7158 -0.3439
  219TIP3    H1  663   2.074   2.410   3.174  0.8365 -0.0244 -0.0965
  219TIP3    H2  664   2.085   2.436   3.323  0.0649  1.5986 -0.3045
  220TIP3   OH2  665   5.410   4.568   2.746  0.1328  0.6765  0.3378
  220TIP3    H1  666   5.367   4.587   2.663  0.0750 -0.7487  0.0214
  220TIP3    H2  667   5.361   4.494   2.782  0.9700  0.4364  1.0130
  221TIP3   OH2  668   2.375   4.291   4.789 -0.1115 -0.1160 -0.1202
  221TIP3    H1  669   2.361   4.209   4.741  1.2059 -0.5846  0.2432
  221TIP3    H2  670   2.466   4.286   4.819 -0.1393  1.2905  0.2879
  222TIP3   OH2  671   5.862   3.441   0.644  0.3710  0.0378 -0.3349
  222TIP3    H1  672   5.956   3.457   0.653  0.2180  1.0520 -0.4022
  222TIP3    H2  673   5.821   3.512   0.693 -0.3776 -1.5023  1.3900
  223TIP3   OH2  674   3.219   4.905   2.065  0.0680  0.1697 -0.2915
  223TIP3    H1  675   3.306   4.875   2.037  0.1090  1.0168 -1.1297
  223TIP3    H2  676   3.181   4.945   1.987 -0.6938  0.6757  0.3167
  224TIP3   OH2  677   1.335   1.134   4.464  0.0487 -0.2521 -0.5260
  224TIP3    H1  678   1.281   1.056   4.471  0.4772 -0.4637  0.7857
  224TIP3    H2  679   1.330   1.174   4.551  1.7811 -0.1610 -0.4260
  225TIP3   OH2  680   2.111   2.377   0.251  0.0117  0.1029  0.3428
  225TIP3    H1  681   2.127   2.464   0.287 -2.0605  0.0854  1.4826
  225TIP3    H2  682   2.155   2.318   0.312  0.0810  0.2875  0.4750
  226TIP3   OH2  683   0.625   0.092   3.151  0.3713 -0.0576  0.3055
  226TIP3    H1  684   0.694   0.154   3.127  0.1680  0.2919  0.6228
  226TIP3    H2  685   0.608   0.109   3.243  0.8574 -1.1242  0.6133
  227TIP3   OH2  686   0.318   5.470   4.604  0.2576 -0.3710 -0.3993
  227TIP3    H1  687   0.293   5.546   4.551  0.5710 -2.2592 -3.4738
  227TIP3    H2  688   0.239   5.449   4.654  0.1975  1.9645  0.6561
  228TIP3   OH2  689   1.799   2.648   3.223  0.2479 -0.5480 -0.3028
  228TIP3    H1  690   1.716   2.600   3.225  0.1713 -0.6025 -2.5747
  228TIP3    H2  691   1.866   2.581   3.238 -0.0471 -0.4939  1.6152
  229TIP3   OH2  692   3.304   2.837   5.015 -0.5332 -0.0104 -0.0854
  229TIP3    H1  693   3.240   2.871   4.952 -0.1069  0.3218 -0.3533
  229TIP3    H2  694   3.267   2.754   5.044  0.9982 -2.2449 -3.7386
  230TIP3   OH2  695   3.688   0.430   1.256 -0.5497  0.2860  0.8386
  230TIP3    H1  696   3.676   0.437   1.161 -0.3678  1.3220  0.8821
  230TIP3    H2  697   3.646   0.508   1.292  1.6718  1.3449  1.3704
  231TIP3   OH2  698   1.769   4.133   3.121 -0.1261  0.2856 -0.0097
  231TIP3    H1  699   1.835   4.168   3.062 -0.1948 -1.5778 -1.2709
  231TIP3    H2  700   1.687   4.173   3.091 -0.2289 -0.9694 -1.5223
  232TIP3   OH2  701   2.848   4.222   3.517 -0.1277  0.2931  0.0880
  232TIP3    H1  702   2.866   4.308   3.555  1.3207  1.4925 -3.0107
  232TIP3    H2  703   2.934   4.180   3.514 -0.2894  0.0344 -1.2960
  233TIP3   OH2  704   4.491   0.143   3.770 -0.2245 -0.4583 -0.3572
  233TIP3    H1  705   4.539   0.156   3.852  0.7769 -0.3424 -0.9415
  233TIP3    H2  706   4.462   0.231   3.746  0.2668 -0.3532 -0.5834
  234TIP3   OH2  707   1.238   4.959   1.100  0.0893  0.3368  0.0353
  234TIP3    H1  708   1.177   4.902   1.147  0.5617  1.0905  1.6711
  234TIP3    H2  709   1.293   4.900   1.049 -1.4337 -0.4168 -0.8087
  235TIP3   OH2  710   3.653   4.713   2.161 -0.1384 -0.0123  0.1529
  235TIP3    H1  711   3.672   4.798   2.200  1.4378  0.3450 -1.2643
  235TIP3    H2  712   3.599   4.733   2.084 -0.7126 -0.4146  0.4415
  236TIP3   OH2  713   0.158   3.123   1.867 -0.0462 -0.2709 -0.2284
  236TIP3    H1  714   0.088   3.188   1.853 -0.7679 -0.9891  0.0042
  236TIP3    H2  715   0.150   3.098   1.958  3.0990  2.5788  1.0569
  237TIP3   OH2  716   6.169   1.711   0.057 -0.1906  0.3729  0.8159
  237TIP3    H1  717   6.201   1.801   0.049  0.2025  0.2297  0.7521
  237TIP3    H2  718   6.247   1.657   0.050 -0.2534  0.0782  2.1453
  238TIP3   OH2  719   1.629   3.448   4.837  0.2456 -0.4871 -0.3125
  238TIP3    H1  720   1.693   3.397   4.887  1.0327  0.0335 -0.7591
  238TIP3    H2  721   1.637   3.537   4.872  1.6233  0.1499 -2.0522
  239TIP3   OH2  722   1.434   0.756   1.099 -0.1477  0.2422  0.1789
  239TIP3    H1  723   1.504   0.693   1.086 -0.9136 -0.0806 -3.2808
  239TIP3    H2  724   1.356   0.702   1.114 -0.5723  0.3386 -1.4967
  240TIP3   OH2  725   0.691   4.413   5.180 -0.0419 -0.3023  0.0692
  240TIP3    H1  726   0.692   4.394   5.086 -1.1713 -0.2846  0.0413
  240TIP3    H2  727   0.710   4.507   5.185  2.3646 -0.7124  0.0288
  241TIP3   OH2  728   4.658   4.704   3.278  0.6000  0.0890  0.4991
  241TIP3    H1  729   4.690   4.769   3.340 -0.0858 -2.1661  3.4203
  241TIP3    H2  730   4.713   4.627   3.292 -1.6989 -1.6113  0.8106
  242TIP3   OH2  731   5.215   0.494   4.363 -0.0431 -0.5645 -0.5682
  242TIP3    H1  732   5.123   0.478   4.344 -0.3199 -0.9147  0.9595
  242TIP3    H2  733   5.247   0.411   4.400 -0.0031  0.5136  2.0046
  243TIP3   OH2  734   4.929   2.048   1.777 -0.7410  0.0432  0.1375
  243TIP3    H1  735   4.938   2.082   1.865  0.4310 -2.2126  0.9805
  243TIP3    H2  736   4.911   2.125   1.722  1.7184  1.9742  1.8413
  244TIP3   OH2  737   5.386   5.519   4.130  0.2348 -0.1529 -0.4483
  244TIP3    H1  738   5.394   5.461   4.205 -0.3316  1.4116  0.8853
  244TIP3    H2  739   5.457   5.583   4.142 -0.3718  0.5980 -0.7730
  245TIP3   OH2  740   0.742   3.680   3.431  0.0569  0.3247 -0.1241
  245TIP3    H1  741   0.773   3.595   3.400  0.4391  0.3745  0.1135
  245TIP3    H2  742   0.817   3.739   3.418  0.2539  0.3279  0.9630
  246TIP3   OH2  743   2.593   0.219   4.604  0.5407 -0.1405 -0.2194
  246TIP3    H1  744   2.683   0.186   4.602  0.4471 -0.3759 -0.6142
  246TIP3    H2  745   2.573   0.239   4.513 -0.0314 -0.6973 -0.2227
  247TIP3   OH2  746   5.390   2.326   2.201 -0.9515  0.1345 -0.2359
  247TIP3    H1  747   5.418   2.310   2.111 -1.3314  1.5789 -0.6448
  247TIP3    H2  748   5.393   2.240   2.243  0.5403 -0.3493 -1.2410
  248TIP3   OH2  749   0.297   0.017   4.792 -0.4306  0.1419 -0.5243
  248TIP3    H1  750   0.259   0.012   4.880 -0.5638 -2.7548 -0.6675
  248TIP3    H2  751   0.377   0.069   4.804 -0.9265  0.5993  1.0977
  249TIP3   OH2  752   5.344   0.332   4.975 -0.5821 -0.4210 -0.0514
  249TIP3    H1  753   5.386   0.306   5.057 -0.5661 -2.5212 -0.6762
  249TIP3    H2  754   5.379   0.419   4.957  0.6620 -0.5937  1.3370
  250TIP3   OH2  755   4.743   2.012   2.034 -0.1256  0.6234 -0.3309
  250TIP3    H1  756   4.670   2.071   2.053  0.1887  0.2192  2.4663
  250TIP3    H2  757   4.820   2.060   2.063  0.1930 -0.8284  1.4032
  251TIP3   OH2  758   0.112   1.613   4.072  0.6372 -0.0985  0.5892
  251TIP3    H1  759   0.046   1.550   4.100  1.7154 -1.0868  0.9883
  251TIP3    H2  760   0.195   1.564   4.074  1.6984  1.6318  2.0458
  252TIP3   OH2  761   5.224   5.295   1.553 -0.1370 -0.5733 -0.1257
  252TIP3    H1  762   5.301   5.332   1.510 -0.8005 -0.8235 -1.5786
  252TIP3    H2  763   5.260   5.232   1.616  0.8582 -0.6907 -0.7806
  253TIP3   OH2  764   0.489   5.699   1.089 -0.6577  0.0162 -0.1979
  253TIP3    H1  765   0.394   5.706   1.073 -0.7809  0.5896  0.6952
  253TIP3    H2  766   0.514   5.615   1.051 -1.7290 -0.6338  0.5009
  254TIP3   OH2  767   2.123   5.674   0.607  0.3706 -0.1708  0.1597
  254TIP3    H1  768   2.197   5.719   0.566  0.5865 -0.0149  0.7076
  254TIP3    H2  769   2.109   5.722   0.689 -1.7890  1.2175 -0.9438
  255TIP3   OH2  770   3.925   3.566   0.764  0.3385  0.1364  0.2981
  255TIP3    H1  771   3.915   3.482   0.718  1.5023 -0.4039  0.9828
  255TIP3    H2  772   3.888   3.550   0.851  2.0360 -0.1955  0.9869
  256TIP3   OH2  773   0.386   3.469   1.210 -0.0761  0.4965  0.4680
  256TIP3    H1  774   0.425   3.385   1.234  1.0487  0.5491 -1.0159
  256TIP3    H2  775   0.458   3.532   1.217 -0.4872  1.0344 -0.0229
  257TIP3   OH2  776   1.114   1.061   3.546 -0.3414  0.6673 -0.2659
  257TIP3    H1  777   1.140   1.106   3.627  2.3227  1.0775 -1.2476
  257TIP3    H2  778   1.033   1.015   3.569  0.1778  0.9875  2.5638
  258TIP3   OH2  779   2.751   3.296   4.855  0.4356 -0.5486  0.2457
  258TIP3    H1  780   2.735   3.302   4.950  0.4977  0.9068  0.1815
  258TIP3    H2  781   2.754   3.387   4.826  1.0550 -0.9782 -1.0596
  259TIP3   OH2  782   3.840   5.066   0.675  0.5031  0.0665 -0.1414
  259TIP3    H1  783   3.755   5.048   0.635  0.1200  0.9052  0.2817
  259TIP3    H2  784   3.827   5.146   0.725  1.3490 -0.2092  0.5425
  260TIP3   OH2  785   6.158   5.864   1.927  0.0498  0.2562  0.3464
  260TIP3    H1  786   6.095   5.794   1.941 -1.4955  1.0515 -1.9602
  260TIP3    H2  787   6.116   5.942   1.965  0.3691  0.4929  0.2217
  261TIP3   OH2  788   1.011   2.443   2.145  0.1749 -0.0727  0.5869
  261TIP3    H1  789   0.959   2.401   2.214  0.3340 -2.9871 -0.9215
  261TIP3    H2  790   0.948   2.491   2.092 -0.4007 -0.4106  0.9603
  262TIP3   OH2  791   3.642   0.032   2.450 -0.1798  0.0325  0.3588
  262TIP3    H1  792   3.645  -0.015   2.533 -0.2734  0.5992  0.6856
  262TIP3    H2  793   3.722   0.085   2.450 -1.7451  2.5833  1.6236
  263TIP3   OH2  794   0.593   3.033   2.096 -0.6579 -0.1741  0.5880
  263TIP3    H1  795   0.530   3.046   2.025  0.7912 -1.0164 -0.9265
  263TIP3    H2  796   0.642   2.956   2.069  2.9587  2.0545  0.1858
  264TIP3   OH2  797   2.101   0.373   0.851 -0.4962 -0.1276  0.5323
  264TIP3    H1  798   2.174   0.323   0.887 -0.8650 -1.1532 -0.1081
  264TIP3    H2  799   2.048   0.309   0.806 -1.0535  0.8325 -0.2191
  265TIP3   OH2  800   5.972   4.900   5.105  0.6027 -0.2876 -0.1732
  265TIP3    H1  801   5.949   4.981   5.059  2.3075 -0.0231 -0.6043
  265TIP3    H2  802   5.986   4.928   5.195  0.2179 -0.2895 -0.1086
  266TIP3   OH2  803   3.092   3.205   1.380  0.5158  0.2804 -0.3506
  266TIP3    H1  804   3.053   3.176   1.462  0.0488  3.4305  0.6695
  266TIP3    H2  805   3.166   3.145   1.366 -0.1411 -1.0948  1.6821
  267TIP3   OH2  806   3.220   3.746   0.113 -0.0870  0.2459 -0.4455
  267TIP3    H1  807   3.235   3.715   0.024  0.2283  1.9529 -1.0170
  267TIP3    H2  808   3.257   3.678   0.169  0.8351 -0.2704 -1.6508
  268TIP3   OH2  809   1.718   0.512   0.575 -0.3528 -0.0142  0.9328
  268TIP3    H1  810   1.767   0.430   0.568 -1.1386 -0.3384 -1.8274
  268TIP3    H2  811   1.784   0.580   0.567 -0.1593 -0.4293 -3.6839
  269TIP3   OH2  812   4.426   4.656   3.971  0.9076  0.3440  0.5656
  269TIP3    H1  813   4.352   4.597   3.954  0.2676  0.9815  1.0609
  269TIP3    H2  814   4.503   4.608   3.941  0.3049 -0.3965  0.1817
  270TIP3   OH2  815   1.906   0.768   3.971  0.1885  0.4909 -0.1640
  270TIP3    H1  816   1.924   0.689   4.021  1.4774  0.0563 -1.2665
  270TIP3    H2  817   1.918   0.839   4.034  0.3451 -0.1172  0.5054
  271TIP3   OH2  818   3.275   4.240   1.881  0.3421  0.5442  0.2870
  271TIP3    H1  819   3.330   4.317   1.891 -0.7776  1.3953  0.1723
  271TIP3    H2  820   3.268   4.227   1.787  2.7025 -1.3643  0.2982
  272TIP3   OH2  821   2.717   3.330   3.106 -0.2720 -0.5620  0.5869
  272TIP3    H1  822   2.698   3.305   3.016 -1.1675  0.9351  0.3323
  272TIP3    H2  823   2.647   3.289   3.158 -0.4562 -0.4078  0.4580
  273TIP3   OH2  824   3.254   3.460   2.386  0.6621 -0.1842 -0.3766
  273TIP3    H1  825   3.295   3.482   2.302  1.1713  0.9172  0.1511
  273TIP3    H2  826   3.325   3.463   2.450  0.1273 -0.2250  0.2313
  274TIP3   OH2  827   4.388   4.936   2.337 -0.3082 -0.4166 -0.2870
  274TIP3    H1  828   4.293   4.934   2.329 -0.1871  0.1895 -2.4765
  274TIP3    H2  829   4.404   4.954   2.430 -2.3051 -0.7035  0.1522
  275TIP3   OH2  830   3.070   2.544   2.888 -0.1351  0.1769 -0.2116
  275TIP3    H1  831   3.028   2.524   2.971 -0.0619 -3.9724 -0.9884
  275TIP3    H2  832   3.160   2.512   2.898  0.2583  0.8099 -1.4889
  276TIP3   OH2  833   4.578   2.955   3.492  0.3149  0.4740 -0.0697
  276TIP3    H1  834   4.586   2.890   3.562 -0.2535 -0.5977 -0.9825
  276TIP3    H2  835   4.668   2.987   3.479  0.6491 -0.3505  0.1770
  277TIP3   OH2  836   6.296   5.020   2.501  0.0366  0.0210 -0.4118
  277TIP3    H1  837   6.248   4.961   2.444 -1.8058  0.0714  0.9914
  277TIP3    H2  838   6.269   4.995   2.590  2.5340  0.1528  0.4746
  278TIP3   OH2  839   4.919   4.663   3.017  0.0127  0.2595  0.6765
  278TIP3    H1  840   4.930   4.602   3.090 -1.0745 -1.1463 -0.2810
  278TIP3    H2  841   4.981   4.632   2.951 -1.9318 -1.1607 -0.6069
  279TIP3   OH2  842   2.293   2.683   4.699 -0.0495 -0.5455 -0.2687
  279TIP3    H1  843   2.261   2.722   4.618  1.1625  1.4240  0.1247
  279TIP3    H2  844   2.387   2.676   4.687 -0.0467 -1.8892  0.3363
  280TIP3   OH2  845   3.306   5.425   3.283  1.2003  0.4769 -0.7464
  280TIP3    H1  846   3.268   5.393   3.201  1.0918 -0.4763 -0.3372
  280TIP3    H2  847   3.241   5.488   3.316 -0.2381 -1.3644  0.0993
  281TIP3   OH2  848   4.809   1.289   3.856  0.2230  0.1079 -0.1098
  281TIP3    H1  849   4.854   1.211   3.825  0.0577 -0.1170  0.2076
  281TIP3    H2  850   4.828   1.356   3.791 -1.2724 -0.7043 -1.4503
  282TIP3   OH2  851   1.398   2.718   3.516  0.6543  0.0948 -0.0424
  282TIP3    H1  852   1.491   2.698   3.501  0.9928  0.7494  1.0214
  282TIP3    H2  853   1.393   2.813   3.506  0.2845  0.1657  0.7543
  283TIP3   OH2  854   1.358   5.816   3.960 -0.0592 -0.1047 -0.2532
  283TIP3    H1  855   1.293   5.875   3.998 -0.4294 -1.6987  1.7126
  283TIP3    H2  856   1.330   5.728   3.985  2.1694 -0.9425 -0.4156
  284TIP3   OH2  857   4.028   4.861   2.801 -0.3537  0.1470 -0.2173
  284TIP3    H1  858   4.016   4.886   2.709 -0.0222 -0.4187 -0.4198
  284TIP3    H2  859   4.108   4.906   2.828 -1.2700  1.5813  0.2780
  285TIP3   OH2  860   1.117   4.303   1.123 -0.4925  0.0279 -0.5104
  285TIP3    H1  861   1.205   4.294   1.158 -1.2452 -1.2142  1.1866
  285TIP3    H2  862   1.130   4.335   1.033  1.6387  0.2218 -0.1779
  286TIP3   OH2  863   5.216   5.828   3.132 -0.2026  0.2246  0.3510
  286TIP3    H1  864   5.250   5.893   3.071 -1.5463  0.0752 -0.6208
  286TIP3    H2  865   5.227   5.744   3.086 -0.0265 -0.0450  0.8788
  287TIP3   OH2  866   2.710   0.280   4.179 -0.3269  0.2487  0.3256
  287TIP3    H1  867   2.796   0.317   4.161  0.1032 -0.7085  0.3681
  287TIP3    H2  868   2.650   0.355   4.173  0.3072  0.6845 -1.1111
  288TIP3   OH2  869   2.996   3.380   3.677 -0.7914 -0.1625  0.1324
  288TIP3    H1  870   2.967   3.471   3.674 -0.9043 -0.1788  0.6351
  288TIP3    H2  871   2.968   3.349   3.763  0.8109 -0.1560  0.6841
  289TIP3   OH2  872   0.052   0.241   2.437  0.1450 -0.1851  0.0123
  289TIP3    H1  873   0.106   0.245   2.516 -0.3551  1.4300  0.3043
  289TIP3    H2  874  -0.024   0.190   2.463  0.6407 -0.8701  0.1478
  290TIP3   OH2  875   5.263   2.449   3.720  0.2341 -0.1228 -0.1321
  290TIP3    H1  876   5.320   2.423   3.793 -0.7716  1.3329  1.2287
  290TIP3    H2  877   5.298   2.534   3.692 -0.3839  0.0898 -0.2605
  291TIP3   OH2  878   2.808   4.892   3.426 -0.4341 -0.0707  0.2274
  291TIP3    H1  879   2.728   4.839   3.421  0.2226 -1.1767  0.9438
  291TIP3    H2  880   2.824   4.902   3.520 -0.6591  1.6231  0.1121
  292TIP3   OH2  881   2.139   4.582   0.610  0.0571  0.3426  0.0731
  292TIP3    H1  882   2.213   4.531   0.576  1.1532  1.1871  1.0867
  292TIP3    H2  883   2.146   4.667   0.565 -0.3698  0.3908  0.0958
  293TIP3   OH2  884   2.256   1.829   0.929  0.1581  0.0490 -0.1750
  293TIP3    H1  885   2.298   1.915   0.934  2.6386 -1.1358  1.9987
  293TIP3    H2  886   2.316   1.771   0.975 -1.2265 -2.9742 -1.9073
  294TIP3   OH2  887   3.752   5.532   0.931  0.2422  0.1267 -0.1794
  294TIP3    H1  888   3.688   5.576   0.987  0.5821  0.2351  0.1225
  294TIP3    H2  889   3.834   5.580   0.945  0.5580 -0.4395 -0.0403
  295TIP3   OH2  890   3.792   5.724   0.623 -0.0379 -0.3406  0.2545
  295TIP3    H1  891   3.848   5.647   0.626  3.0108  1.6062 -1.7298
  295TIP3    H2  892   3.707   5.691   0.592  1.1382 -2.8635 -0.5192
  296TIP3   OH2  893   0.819   1.963   0.067  0.1032 -0.5250 -0.0415
  296TIP3    H1  894   0.865   1.961  -0.017  0.8051  0.2583  0.3135
  296TIP3    H2  895   0.792   2.054   0.078 -1.2468 -0.9044 -0.0745
  297TIP3   OH2  896   4.634   2.563   1.428  0.4944  0.8444  0.3862
  297TIP3    H1  897   4.540   2.572   1.414  0.4742 -0.0989 -0.2062
  297TIP3    H2  898   4.653   2.620   1.503 -0.4309  1.5080  0.1307
  298TIP3   OH2  899   0.130   4.961   4.649  0.1446 -0.6803 -0.1212
  298TIP3    H1  900   0.075   4.952   4.571  0.4038  0.4976 -0.4700
  298TIP3    H2  901   0.164   5.051   4.644  0.8084 -0.8500  0.9309
  299TIP3   OH2  902   4.120   2.184   4.773  0.2965 -0.5387  0.2675
  299TIP3    H1  903   4.100   2.275   4.752 -0.6816 -0.5616  1.0745
  299TIP3    H2  904   4.214   2.184   4.790  0.5212  0.0902 -0.8456
  300TIP3   OH2  905   0.265   4.215   3.680  0.0622 -0.2000 -0.2845
  300TIP3    H1  906   0.310   4.130   3.683  0.1793 -0.1378 -0.2722
  300TIP3    H2  907   0.196   4.208   3.746 -1.3964 -1.1063 -1.8114
  301TIP3   OH2  908   3.242   2.631   0.682 -0.2208  0.1912 -0.1192
  301TIP3    H1  909   3.180   2.704   0.680 -0.4537 -0.0171 -0.7123
  301TIP3    H2  910   3.321   2.668   0.721 -0.2691  0.8168 -0.5921
  302TIP3   OH2  911   6.352   3.221   2.835  0.3086  1.0474 -0.1697
  302TIP3    H1  912   6.268   3.179   2.819 -0.2614  1.9369  0.3862
  302TIP3    H2  913   6.360   3.224   2.930  0.8620  1.1686 -0.2144
  303TIP3   OH2  914   1.478   0.064   2.446  0.0574 -0.0540  0.2026
  303TIP3    H1  915   1.475   0.115   2.366  2.3877 -0.0922  0.0187
  303TIP3    H2  916   1.409  -0.002   2.435  1.2953 -1.0551 -2.5099
  304TIP3   OH2  917   2.641   4.057   1.209  0.0521 -0.7555 -0.5573
  304TIP3    H1  918   2.611   3.981   1.158  0.0481 -1.9313  1.1271
  304TIP3    H2  919   2.572   4.072   1.273  0.2364  0.4554 -0.6211
  305TIP3   OH2  920   4.689   5.310   2.904 -0.1093  0.1829  0.3687
  305TIP3    H1  921   4.631   5.386   2.918 -1.2886  0.0810 -3.1109
  305TIP3    H2  922   4.631   5.235   2.911  0.7946 -0.4139  2.3484
  306TIP3   OH2  923   6.162   0.088   4.783  0.6199  0.4735 -0.0204
  306TIP3    H1  924   6.184   0.001   4.749 -0.7917 -0.0771  0.3869
  306TIP3    H2  925   6.100   0.071   4.853 -1.7912  1.9079 -1.6644
  307TIP3   OH2  926   0.831   2.655   3.964  0.2918  0.2034 -0.0299
  307TIP3    H1  927   0.780   2.592   3.914 -0.4083  0.7378  0.0017
  307TIP3    H2  928   0.786   2.739   3.951 -0.9227  0.0921  2.8464
  308TIP3   OH2  929   0.346   1.387   3.383  0.1662 -0.0214  0.1165
  308TIP3    H1  930   0.302   1.404   3.466  0.5281 -0.4597  0.4074
  308TIP3    H2  931   0.313   1.301   3.356  1.2388 -0.6181  0.6215
  309TIP3   OH2  932   5.263   1.342   0.037 -0.1785 -0.3457 -0.1059
  309TIP3    H1  933   5.239   1.429   0.070  0.7077 -0.4164  0.7714
  309TIP3    H2  934   5.346   1.356  -0.010  0.8960 -0.9751  1.5257
  310TIP3   OH2  935   1.854   5.506   2.427  0.2608 -0.4558  0.2787
  310TIP3    H1  936   1.900   5.506   2.511 -0.6334  1.0841  0.7985
  310TIP3    H2  937   1.767   5.470   2.447  0.2825 -0.7645 -0.1471
  311TIP3   OH2  938   3.986   4.019   3.781 -0.1280 -0.1288  0.0242
  311TIP3    H1  939   4.045   3.944   3.780 -0.7907 -0.6726  0.5865
  311TIP3    H2  940   3.898   3.981   3.782 -0.4679  0.6168  1.3123
  312TIP3   OH2  941   1.948   4.493   4.606 -0.3882 -0.3706  0.2664
  312TIP3    H1  942   2.037   4.477   4.637 -0.9706 -0.7892  1.8272
  312TIP3    H2  943   1.941   4.588   4.600 -0.0957 -0.2959  0.9913
  313TIP3   OH2  944   3.969   4.598   0.531 -0.4577 -0.0594 -0.1069
  313TIP3    H1  945   3.963   4.681   0.578  1.1635 -0.0204  0.1024
  313TIP3    H2  946   4.052   4.560   0.560 -0.4628 -1.0623 -1.3055
  314TIP3   OH2  947   1.019   5.125   2.411  0.3856  0.0577  0.0403
  314TIP3    H1  948   1.037   5.218   2.397  1.5375 -0.1711 -0.0677
  314TIP3    H2  949   1.105   5.086   2.426 -0.0708 -1.0217 -0.0967
  315TIP3   OH2  950   1.779   5.030   2.766 -0.2482  0.0582  0.0730
  315TIP3    H1  951   1.716   4.974   2.810 -1.2229  0.9000 -0.2040
  315TIP3    H2  952   1.837   4.970   2.720 -0.8124 -0.7427  0.3893
  316TIP3   OH2  953   2.683   2.188   3.234  0.2101 -0.6246 -0.2259
  316TIP3    H1  954   2.619   2.119   3.255 -1.9024  1.2552 -0.1597
  316TIP3    H2  955   2.737   2.194   3.312 -1.4346 -0.2819  0.9538
  317TIP3   OH2  956   3.258   5.828   5.023  0.5177 -0.2955  0.2263
  317TIP3    H1  957   3.211   5.822   4.940  0.5965 -1.3601  0.2414
  317TIP3    H2  958   3.196   5.869   5.083  0.7336  1.2091 -0.5328
  318TIP3   OH2  959   5.753   4.865   2.249  0.4208 -0.2043  0.3781
  318TIP3    H1  960   5.701   4.787   2.269 -2.8848  1.2851 -1.5274
  318TIP3    H2  961   5.832   4.831   2.206 -0.0250 -2.5232  1.2195
  319TIP3   OH2  962   6.240   0.489   0.913  0.9565 -1.0497 -0.9977
  319TIP3    H1  963   6.261   0.441   0.833 -1.1610 -0.3618 -2.0396
  319TIP3    H2  964   6.259   0.580   0.891 -1.9476 -0.5303 -1.6588
  320TIP3   OH2  965   1.208   1.618   4.025 -0.3818 -0.4344  0.8073
  320TIP3    H1  966   1.129   1.599   4.075 -3.1744  2.7892 -1.8844
  320TIP3    H2  967   1.240   1.701   4.061 -0.0774 -0.1327 -0.1193
  321TIP3   OH2  968   0.582   0.249   3.426  0.3874 -0.3041  0.0941
  321TIP3    H1  969   0.518   0.266   3.356  0.1186 -0.2022  0.3598
  321TIP3    H2  970   0.568   0.320   3.489  0.4965 -0.5011  0.3437
  322TIP3   OH2  971   2.889   2.905   4.024  0.5256  0.1014 -0.4701
  322TIP3    H1  972   2.890   2.990   4.068  0.1441 -0.8460  1.4490
  322TIP3    H2  973   2.967   2.907   3.968  0.5075  1.7153 -0.5035
  323TIP3   OH2  974   5.523   2.352   1.951  0.2450 -0.4779  0.1787
  323TIP3    H1  975   5.502   2.429   1.898  0.7603  0.4749  1.3068
  323TIP3    H2  976   5.515   2.278   1.891  0.9137  0.5776 -1.2574
  324TIP3   OH2  977   5.810   4.003   3.319  0.1367  0.0920 -0.3780
  324TIP3    H1  978   5.891   3.955   3.301  0.6733  0.6541  0.4965
  324TIP3    H2  979   5.741   3.936   3.312  0.8142 -0.7040  0.2756
  325TIP3   OH2  980   2.127   1.644   0.524  0.3601  0.1504  0.3732
  325TIP3    H1  981   2.116   1.702   0.449  0.4909  0.2341  0.4180
  325TIP3    H2  982   2.057   1.579   0.515 -0.6558  1.1198  1.0783
  326TIP3   OH2  983   4.468   2.570   3.455 -0.7222  0.4524 -0.0274
  326TIP3    H1  984   4.375   2.552   3.439 -0.5096 -0.1371 -0.6467
  326TIP3    H2  985   4.482   2.543   3.546 -1.3585  1.4129  0.3735
  327TIP3   OH2  986   1.952   2.894   3.879  0.5860 -0.9029 -0.2351
  327TIP3    H1  987   1.900   2.964   3.917 -0.3470 -1.5177 -0.3437
  327TIP3    H2  988   2.004   2.937   3.811  1.3995 -0.0099  0.9076
  328TIP3   OH2  989   5.620   2.836   3.300 -0.2609  0.0757  0.1025
  328TIP3    H1  990   5.672   2.810   3.224 -1.8726 -0.8213 -0.7428
  328TIP3    H2  991   5.628   2.762   3.360 -0.5661 -0.0867 -0.0509
  329TIP3   OH2  992   2.305   3.171   1.013  0.1950 -0.3236 -0.1284
  329TIP3    H1  993   2.274   3.085   1.041  0.0490 -0.3319 -0.3149
  329TIP3    H2  994   2.381   3.154   0.958 -0.6532 -0.4080 -1.2931
  330TIP3   OH2  995   1.594   0.502   0.315 -0.6780  0.3034 -0.2182
  330TIP3    H1  996   1.626   0.412   0.305 -0.3945  0.4446 -0.6081
  330TIP3    H2  997   1.603   0.520   0.409  0.1190  0.2390 -0.2758
  331TIP3   OH2  998   4.645   4.260   4.032  0.1512 -0.9549  0.3463
  331TIP3    H1  999   4.627   4.338   3.980  2.3178 -0.2333  0.5883
  331TIP3    H2 1000   4.561   4.213   4.036 -1.3977  1.6864  0.7806
  332TIP3   OH2 1001   3.748   5.912   2.112 -0.2460 -0.1059  0.3620
  332TIP3    H1 1002   3.686   5.979   2.138 -2.3347 -2.5419  2.0794
  332TIP3    H2 1003   3.719   5.885   2.025 -1.6824 -1.2376  1.1595
  333TIP3   OH2 1004   1.823   5.043   4.116 -0.2115  0.0038  0.2964
  333TIP3    H1 1005   1.913   5.014   4.134 -0.4790 -0.9525  0.1381
  333TIP3    H2 1006   1.791   4.981   4.051 -0.4550  1.3065 -0.8502
  334TIP3   OH2 1007   0.404   0.576   5.002  0.2691  0.8285 -0.6544
  334TIP3    H1 1008   0.357   0.657   4.980 -0.2739  0.7394  0.1425
  334TIP3    H2 1009   0.470   0.603   5.065 -1.6191  0.3000  1.7133
  335TIP3   OH2 1010   2.192   3.659   3.401 -0.4883 -0.6098 -0.0660
  335TIP3    H1 1011   2.166   3.633   3.313 -0.0791  0.4113 -0.5029
  335TIP3    H2 1012   2.270   3.607   3.420  0.0257 -0.0887 -0.7215
  336TIP3   OH2 1013   3.227   4.378   4.537  0.5837  0.2274  0.2264
  336TIP3    H1 1014   3.187   4.378   4.451 -1.3759  0.6185  1.0883
  336TIP3    H2 1015   3.161   4.340   4.595  1.3842  1.0402  1.7479
  337TIP3   OH2 1016   6.123   4.979   2.822  0.1633 -0.2075 -0.1245
  337TIP3    H1 1017   6.167   5.009   2.901  1.6221  0.6871 -1.2236
  337TIP3    H2 1018   6.164   4.894   2.803  1.4668  0.6009 -1.1175
  338TIP3   OH2 1019   2.393   3.187   3.062  0.3259  0.8144 -0.6046
  338TIP3    H1 1020   2.398   3.281   3.077 -0.6131  1.0072 -1.3654
  338TIP3    H2 1021   2.299   3.167   3.070  0.5897 -0.1683  0.1744
  339TIP3   OH2 1022   5.183   4.221   0.363  0.2691 -0.0385  0.3603
  339TIP3    H1 1023   5.247   4.156   0.391 -0.4558 -0.6357  0.6544
  339TIP3    H2 1024   5.220   4.258   0.283 -0.3166 -2.3762 -1.0679
  340TIP3   OH2 1025   1.195   5.317   4.124  0.1065  0.0115  0.3037
  340TIP3    H1 1026   1.113   5.283   4.162 -0.7041 -0.4444 -1.7252
  340TIP3    H2 1027   1.211   5.261   4.048  1.0884  1.5177 -0.6529
  341TIP3   OH2 1028   4.061   2.479   1.227  0.2665  0.2499 -0.1020
  341TIP3    H1 1029   4.068   2.427   1.306  0.7781  1.8521  0.9468
  341TIP3    H2 1030   3.989   2.540   1.244  1.7150  2.0107  0.0151
  342TIP3   OH2 1031   2.250   0.122   2.182 -0.2785  0.3926  0.4441
  342TIP3    H1 1032   2.328   0.139   2.235  0.3334  1.3565 -0.7234
  342TIP3    H2 1033   2.225   0.032   2.205 -0.0326  0.7508  2.3299
  343TIP3   OH2 1034   3.720   2.243   4.911  0.2331  0.0797 -0.7260
  343TIP3    H1 1035   3.702   2.151   4.929  1.4217 -0.4470 -2.0603
  343TIP3    H2 1036   3.679   2.290   4.983 -2.2914 -1.3165 -1.1587
  344TIP3   OH2 1037   0.408   2.007   0.072 -0.9379  0.3447  0.2569
  344TIP3    H1 1038   0.443   2.011   0.161  1.0153  0.8387 -0.4902
  344TIP3    H2 1039   0.434   2.089   0.032  2.4022 -1.6685 -2.1931
  345TIP3   OH2 1040   5.508   0.316   2.929 -0.6310  0.1515  0.1861
  345TIP3    H1 1041   5.435   0.275   2.976  0.6547 -0.8571  1.3795
  345TIP3    H2 1042   5.472   0.333   2.842 -1.8965 -1.6101  0.2832
  346TIP3   OH2 1043   2.264   3.484   1.607  0.0299  0.3094 -0.9371
  346TIP3    H1 1044   2.198   3.415   1.619  0.0642  0.6100  1.3034
  346TIP3    H2 1045   2.228   3.560   1.652  1.8564  0.5058  0.2709
  347TIP3   OH2 1046   5.231   4.153   2.389  0.4076 -0.1861 -0.4603
  347TIP3    H1 1047   5.156   4.115   2.342  0.3220 -1.0937  0.3817
  347TIP3    H2 1048   5.248   4.236   2.344 -0.5454 -0.3822 -1.2133
  348TIP3   OH2 1049   2.348   4.100   3.002 -0.2561  0.2461 -0.1582
  348TIP3    H1 1050   2.430   4.080   2.957 -0.4625  0.1389 -0.4960
  348TIP3    H2 1051   2.371   4.102   3.095  0.0207 -0.3231 -0.2061
  349TIP3   OH2 1052   3.882   2.898   1.119 -0.2720  0.2305  0.0317
  349TIP3    H1 1053   3.821   2.918   1.048  1.0371  1.3269 -0.8483
  349TIP3    H2 1054   3.855   2.955   1.190  0.0597  1.1877 -0.5755
  350TIP3   OH2 1055   2.364   4.277   0.269 -0.6165  0.0422  0.4446
  350TIP3    H1 1056   2.432   4.209   0.275  1.5514  1.8635 -1.5039
  350TIP3    H2 1057   2.326   4.266   0.182  0.1175  1.5654 -0.1074
  351TIP3   OH2 1058   5.602   1.019   2.697  0.3306  0.2673  0.2679
  351TIP3    H1 1059   5.638   0.985   2.779 -0.6642 -0.6021  0.3623
  351TIP3    H2 1060   5.590   0.941   2.642  1.9457  0.9321 -1.1273
  352TIP3   OH2 1061   3.297   5.126   1.426  0.0102  0.2810  0.1990
  352TIP3    H1 1062   3.208   5.125   1.461 -0.9083 -0.6769 -1.9778
  352TIP3    H2 1063   3.329   5.214   1.444 -0.8395  0.2385  2.2082
  353TIP3   OH2 1064   5.125   0.433   1.060  0.1570  0.1623  0.2283
  353TIP3    H1 1065   5.051   0.424   1.000  1.2438 -0.9657 -1.0238
  353TIP3    H2 1066   5.093   0.399   1.144 -0.7337 -0.3261 -0.2962
  354TIP3   OH2 1067   3.270   0.272   5.016  0.6202  0.0353  0.3107
  354TIP3    H1 1068   3.225   0.349   4.980 -0.5463 -0.7945 -0.0483
  354TIP3    H2 1069   3.339   0.309   5.071 -0.2900  1.3566  0.6229
  355TIP3   OH2 1070   3.619   2.015   4.353 -0.8298 -0.2058 -0.3523
  355TIP3    H1 1071   3.639   2.077   4.283  0.8641 -1.1162 -0.7319
  355TIP3    H2 1072   3.614   2.068   4.432  2.8454  0.2747 -0.2799
  356TIP3   OH2 1073   3.883   5.212   2.193 -0.7642 -0.1249 -0.2162
  356TIP3    H1 1074   3.890   5.219   2.288 -1.3230  0.5831 -0.2128
  356TIP3    H2 1075   3.963   5.253   2.160  0.1586 -1.7405 -0.0387
  357TIP3   OH2 1076   1.559   3.572   3.568  0.4469 -0.7395 -0.0028
  357TIP3    H1 1077   1.514   3.657   3.565  0.1499 -0.9340 -1.9450
  357TIP3    H2 1078   1.597   3.570   3.656 -1.4084  0.4221  0.9237
  358TIP3   OH2 1079   4.919   4.167   3.632  0.4374 -0.0459  0.2552
  358TIP3    H1 1080   4.911   4.180   3.727 -0.5198 -2.5758  0.5884
  358TIP3    H2 1081   4.873   4.241   3.594 -0.1787  0.4131  1.7921
  359TIP3   OH2 1082   3.905  -0.000   0.938 -0.0516 -0.3622  0.3558
  359TIP3    H1 1083   3.945   0.086   0.945  0.8768 -0.6561 -0.9667
  359TIP3    H2 1084   3.835   0.000   1.004  1.1463  0.7015  1.6910
  360TIP3   OH2 1085   0.020   2.198   3.597  0.1123  0.6973 -0.3396
  360TIP3    H1 1086  -0.065   2.162   3.569 -0.2078  1.8211 -0.8631
  360TIP3    H2 1087   0.082   2.126   3.582 -0.6837 -0.0157 -0.3027
  361TIP3   OH2 1088   3.620   0.667   4.528  0.5384 -0.0211  0.2100
  361TIP3    H1 1089   3.702   0.636   4.488 -0.1757 -1.4062 -0.2466
  361TIP3    H2 1090   3.633   0.761   4.538  1.7077 -0.0189 -0.9987
  362TIP3   OH2 1091   4.055   5.608   4.715 -0.1326  0.0948 -0.1736
  362TIP3    H1 1092   4.002   5.551   4.659  1.3268 -1.9706  0.3992
  362TIP3    H2 1093   4.048   5.568   4.802 -0.3347  1.7772  0.6183
  363TIP3   OH2 1094   1.260   5.221   4.751  0.0300  0.6902  0.4861
  363TIP3    H1 1095   1.244   5.274   4.829 -1.5515  1.7851 -0.5166
  363TIP3    H2 1096   1.178   5.173   4.737  0.4644  0.1292 -0.2182
  364TIP3   OH2 1097   4.197   3.630   3.310  0.1427 -0.3974  0.0053
  364TIP3    H1 1098   4.210   3.572   3.234  0.6324 -0.0295 -0.1962
  364TIP3    H2 1099   4.285   3.647   3.343  0.1838  1.5939 -0.9720
  365TIP3   OH2 1100   0.759   2.509   1.773 -0.3167 -0.7007 -0.1193
  365TIP3    H1 1101   0.832   2.464   1.814  1.7342  0.0575 -2.6352
  365TIP3    H2 1102   0.772   2.495   1.679 -1.2004  2.5586 -0.8780
  366TIP3   OH2 1103   3.770   4.908   0.983 -0.0971 -0.0679 -0.2339
  366TIP3    H1 1104   3.694   4.869   1.026 -0.1337  0.1157 -0.1293
  366TIP3    H2 1105   3.840   4.845   0.997 -0.4401 -0.6512 -1.0934
  367TIP3   OH2 1106   4.481   3.337   4.047  0.2111 -0.0672  0.3133
  367TIP3    H1 1107   4.489   3.261   4.104  0.0588  1.1915  2.0766
  367TIP3    H2 1108   4.454   3.408   4.105  0.4547  1.3675 -1.2613
  368TIP3   OH2 1109   0.788   3.031   3.340 -0.2371 -0.8633 -0.7477
  368TIP3    H1 1110   0.710   3.072   3.304  1.6246  3.0110 -0.8558
  368TIP3    H2 1111   0.768   3.015   3.432 -1.3540 -0.5017 -0.9231
  369TIP3   OH2 1112   4.699   2.326   1.158 -0.0331 -0.1330 -0.0279
  369TIP3    H1 1113   4.674   2.415   1.186  0.0967 -0.2964  0.6223
  369TIP3    H2 1114   4.728   2.337   1.067  0.9702  0.6618  0.3740
  370TIP3   OH2 1115   4.585   3.772   2.242 -0.1893 -0.0661  0.1595
  370TIP3    H1 1116   4.496   3.781   2.277 -0.3744  1.4757 -0.6300
  370TIP3    H2 1117   4.590   3.837   2.172  1.6562  0.0978  0.3885
  371TIP3   OH2 1118   6.348   1.183   4.053 -0.4674  0.2009 -0.2951
  371TIP3    H1 1119   6.342   1.187   3.958 -0.9225 -0.3626 -0.2920
  371TIP3    H2 1120   6.262   1.212   4.083 -1.3865 -2.4550 -0.1250
  372TIP3   OH2 1121   5.210   1.473   3.494 -0.0988 -0.0149 -0.1104
  372TIP3    H1 1122   5.273   1.501   3.561 -0.6073  0.7343  0.0720
  372TIP3    H2 1123   5.218   1.538   3.425  0.3874 -0.7612 -0.7765
  373TIP3   OH2 1124   3.568   3.317   0.840  0.3686  0.1954  0.1035
  373TIP3    H1 1125   3.496   3.378   0.826  0.4184  0.5891  1.4201
  373TIP3    H2 1126   3.634   3.368   0.886  0.6245 -0.6988  0.7622
  374TIP3   OH2 1127   2.030   0.789   5.034 -0.5020  0.0820  0.1961
  374TIP3    H1 1128   1.962   0.842   4.992 -0.6823 -0.2789  0.0311
  374TIP3    H2 1129   2.072   0.743   4.962 -0.9202 -0.6691  0.4178
  375TIP3   OH2 1130   0.047   5.702   0.441  0.2229 -0.9092 -0.0554
  375TIP3    H1 1131   0.068   5.610   0.459  0.6297 -0.6938  0.6220
  375TIP3    H2 1132   0.007   5.734   0.522  1.8518  0.0219  0.4325
  376TIP3   OH2 1133   6.235   2.253   3.834 -0.2308 -0.2306 -0.0748
  376TIP3    H1 1134   6.291   2.212   3.768  0.6554  1.4627 -0.4309
  376TIP3    H2 1135   6.260   2.211   3.916  0.4364 -0.6142 -0.4644
  377TIP3   OH2 1136   1.616   1.222   1.550  0.4636 -0.1359 -0.1908
  377TIP3    H1 1137   1.683   1.180   1.497  1.5630 -0.7712  1.6133
  377TIP3    H2 1138   1.666   1.274   1.614 -0.8092  0.7285  0.1342
  378TIP3   OH2 1139   3.031   3.229   0.528  0.4162  0.2138 -0.1187
  378TIP3    H1 1140   2.989   3.143   0.529 -0.3592  0.5640 -0.7961
  378TIP3    H2 1141   3.092   3.225   0.455 -2.4064  1.4420 -2.7730
  379TIP3   OH2 1142   3.210   2.437   4.499 -0.1115  0.1840 -0.6635
  379TIP3    H1 1143   3.205   2.504   4.431 -1.4278  0.2302 -0.5561
  379TIP3    H2 1144   3.298   2.444   4.535  0.0991  1.1577 -1.3566
  380TIP3   OH2 1145   2.944   4.100   1.758  0.2514  0.0360 -0.2576
  380TIP3    H1 1146   2.996   4.178   1.736  1.1558 -0.6726 -0.7253
  380TIP3    H2 1147   2.853   4.126   1.744  0.4575  1.3099  0.5637
  381TIP3   OH2 1148   0.151   3.530   3.450  0.3552 -0.2506 -0.1404
  381TIP3    H1 1149   0.241   3.499   3.456  0.0751 -0.8105  1.6243
  381TIP3    H2 1150   0.157   3.624   3.467  0.5874 -0.2981  0.0316
  382TIP3   OH2 1151   4.957   1.767   5.184 -0.1040 -0.0541 -0.2282
  382TIP3    H1 1152   5.011   1.825   5.237 -0.4471 -0.8762  1.0494
  382TIP3    H2 1153   5.015   1.738   5.113  0.2566  1.3110 -0.5245
  383TIP3   OH2 1154   5.840   2.696   1.424 -0.2986 -0.5058 -0.1387
  383TIP3    H1 1155   5.835   2.782   1.382  2.2221 -0.0465  0.3263
  383TIP3    H2 1156   5.829   2.634   1.352  0.8659  0.2549 -1.0175
  384TIP3   OH2 1157   3.693   1.091   1.115 -0.5111  1.0156 -0.3649
  384TIP3    H1 1158   3.670   0.998   1.124  1.0631  0.7519  1.4838
  384TIP3    H2 1159   3.611   1.137   1.127 -1.4235 -0.1290 -1.8400
  385TIP3   OH2 1160   5.945   5.382   0.053 -0.1722  0.8288 -0.3319
  385TIP3    H1 1161   5.857   5.405   0.023 -1.2207 -0.3657  1.6150
  385TIP3    H2 1162   5.931   5.309   0.114  2.2380  0.1973 -0.4373
  386TIP3   OH2 1163   5.442   5.639   0.349 -0.0439 -0.4349  0.0721
  386TIP3    H1 1164   5.433   5.703   0.420 -0.6930  1.6602 -1.7586
  386TIP3    H2 1165   5.381   5.669   0.282  0.8795 -2.0243 -1.5733
  387TIP3   OH2 1166   0.063   1.607   1.072  0.1605 -0.0800 -0.0905
  387TIP3    H1 1167   0.123   1.571   1.007 -0.2355 -0.3400 -0.3217
  387TIP3    H2 1168   0.118   1.657   1.131  0.2266  2.8006 -2.3797
  388TIP3   OH2 1169   2.189   4.854   2.095 -0.0285 -0.1941 -0.2649
  388TIP3    H1 1170   2.255   4.791   2.066  0.8672  0.1311  0.9584
  388TIP3    H2 1171   2.236   4.936   2.104 -0.6342  0.0894  0.4465
  389TIP3   OH2 1172   3.982   4.317   1.558  0.4540  0.3277  0.6786
  389TIP3    H1 1173   3.918   4.384   1.582 -1.0502 -0.7831 -0.0844
  389TIP3    H2 1174   4.008   4.339   1.468  0.0637 -0.0186  0.4775
  390TIP3   OH2 1175   1.540   3.532   2.595  0.2899 -0.4642 -0.1414
  390TIP3    H1 1176   1.612   3.586   2.628 -0.8439  0.5352  0.7931
  390TIP3    H2 1177   1.578   3.484   2.521  1.0164  2.7775 -2.0963
  391TIP3   OH2 1178   5.657   0.320   1.721 -0.1771 -0.2471 -0.2548
  391TIP3    H1 1179   5.587   0.283   1.775  0.6115  0.0430  1.0040
  391TIP3    H2 1180   5.706   0.243   1.691  0.6259 -0.3487  1.2064
  392TIP3   OH2 1181   3.503   5.872   2.594  0.4571 -0.0933 -0.2461
  392TIP3    H1 1182   3.557   5.849   2.670  0.4984  2.1640  0.4907
  392TIP3    H2 1183   3.523   5.964   2.578 -3.5577  1.1005  0.4316
  393TIP3   OH2 1184   0.150   1.952   2.802  0.1402  0.5808  0.2725
  393TIP3    H1 1185   0.212   2.007   2.850  1.7973 -1.4079  0.5439
  393TIP3    H2 1186   0.125   1.884   2.864 -0.8815  0.2920 -0.4294
  394TIP3   OH2 1187   4.653   0.431   2.602  1.1551 -0.2164  0.2470
  394TIP3    H1 1188   4.729   0.460   2.652  0.8707 -0.9168  1.0928
  394TIP3    H2 1189   4.580   0.479   2.639  1.3416  1.6427 -1.5741
  395TIP3   OH2 1190   5.228   4.488   3.211 -0.0122  0.1098  0.0198
  395TIP3    H1 1191   5.272   4.528   3.286  0.0423  2.2624 -1.1020
  395TIP3    H2 1192   5.259   4.538   3.135 -0.5683 -1.5783 -1.3870
  396TIP3   OH2 1193   2.309   0.172   1.906  0.6467  0.2134 -0.0695
  396TIP3    H1 1194   2.281   0.147   1.994 -0.0061  2.7173  0.5340
  396TIP3    H2 1195   2.256   0.250   1.886  1.6402  0.4045 -2.1922
  397TIP3   OH2 1196   2.944   5.832   1.599 -0.2667  0.4306  0.1080
  397TIP3    H1 1197   3.022   5.841   1.545 -0.1655  1.2015  0.3669
  397TIP3    H2 1198   2.875   5.809   1.538  0.4303 -1.7019  0.0623
  398TIP3   OH2 1199   2.201   4.433   4.654 -0.3607  0.0312 -0.2011
  398TIP3    H1 1200   2.255   4.430   4.575  1.0968  0.6229  0.7192
  398TIP3    H2 1201   2.252   4.384   4.719 -0.8214  0.7830  0.7550
  399TIP3   OH2 1202   0.812   5.345   2.494 -0.3999  0.0843 -0.6647
  399TIP3    H1 1203   0.745   5.360   2.427 -0.2909 -1.7642 -1.2315
  399TIP3    H2 1204   0.806   5.251   2.513  0.4786  0.3316  0.9522
  400TIP3   OH2 1205   3.771   3.152   2.359  0.2279  0.1217 -0.1658
  400TIP3    H1 1206   3.731   3.185   2.439  1.6824  0.9026  0.2820
  400TIP3    H2 1207   3.809   3.067   2.384 -0.4956 -0.2761 -0.3986
  401TIP3   OH2 1208   3.061   0.939   2.106  0.1146  1.2994 -0.5402
  401TIP3    H1 1209   3.071   1.027   2.142 -2.8397  1.2654  0.5519
  401TIP3    H2 1210   2.967   0.928   2.094  0.5680 -0.7672 -3.1800
  402TIP3   OH2 1211   1.311   5.125   1.597  0.9587 -0.2072  0.6309
  402TIP3    H1 1212   1.325   5.116   1.691 -2.2946 -3.7917  1.0558
  402TIP3    H2 1213   1.278   5.039   1.570  3.6794 -0.0694 -4.2931
  403TIP3   OH2 1214   5.400   4.702   4.353  0.4662  0.2974  0.2642
  403TIP3    H1 1215   5.334   4.680   4.418 -0.2702 -0.0037 -0.5623
  403TIP3    H2 1216   5.470   4.746   4.403  0.2196 -0.4937  1.3379
  404TIP3   OH2 1217   0.758   1.006   1.032  0.1090 -0.2981  0.0043
  404TIP3    H1 1218   0.765   0.948   1.108 -0.0882 -2.8270 -1.7639
  404TIP3    H2 1219   0.846   1.038   1.017  0.4122 -0.8922  0.4903
  405TIP3   OH2 1220   5.951   4.727   1.762  0.1616  0.0246  0.2210
  405TIP3    H1 1221   5.997   4.688   1.688 -1.8285 -0.4075 -0.8687
  405TIP3    H2 1222   6.008   4.797   1.792  2.6599 -2.0507  0.5908
  406TIP3   OH2 1223   1.438   5.068   3.613 -0.3020 -0.1192  0.2826
  406TIP3    H1 1224   1.426   4.985   3.660 -0.5723 -0.4144 -0.2923
  406TIP3    H2 1225   1.533   5.079   3.607 -0.2577  0.2842  1.5074
  407TIP3   OH2 1226   5.714   3.079   4.844 -0.1534  0.1940  0.0416
  407TIP3    H1 1227   5.787   3.141   4.839 -0.6538  0.9397  1.5782
  407TIP3    H2 1228   5.686   3.082   4.935  0.4261 -3.0487  0.4609
  408TIP3   OH2 1229   2.262   5.313   0.087 -0.0463  0.1900  0.4323
  408TIP3    H1 1230   2.300   5.397   0.110 -1.8608  0.7717  1.5861
  408TIP3    H2 1231   2.169   5.322   0.110 -0.2450 -2.1948  0.8243
  409TIP3   OH2 1232   6.063   0.201   2.812  0.7511 -0.2067  0.5006
  409TIP3    H1 1233   6.016   0.149   2.877 -0.2132 -0.3045 -0.2422
  409TIP3    H2 1234   5.994   0.248   2.765  1.4972  0.5627  0.1512
  410TIP3   OH2 1235   0.439   5.945   3.472 -0.5787 -0.3984 -0.4793
  410TIP3    H1 1236   0.359   5.953   3.523 -0.5665 -0.6419 -0.4178
  410TIP3    H2 1237   0.429   5.863   3.424 -1.4061  0.7185 -2.3333
  411TIP3   OH2 1238   4.070   2.958   0.188  0.5080 -0.2922 -0.1303
  411TIP3    H1 1239   4.148   2.951   0.133  0.2715 -1.5126 -0.3323
  411TIP3    H2 1240   4.091   3.028   0.250  1.2460  0.2835 -0.9994
  412TIP3   OH2 1241   1.929   4.764   0.229 -0.1394  0.3260  0.4106
  412TIP3    H1 1242   1.991   4.698   0.260 -1.9945 -0.5245  2.5850
  412TIP3    H2 1243   1.876   4.719   0.164  1.6623  1.1809 -1.7920
  413TIP3   OH2 1244   2.011   2.694   4.780  0.0994  0.2952 -0.6948
  413TIP3    H1 1245   2.054   2.775   4.753 -0.4843  0.2589 -1.8081
  413TIP3    H2 1246   2.074   2.625   4.759  0.0862  0.3644 -0.9782
  414TIP3   OH2 1247   3.188   5.076   3.151  0.8322  1.1021 -0.4918
  414TIP3    H1 1248   3.108   5.024   3.146 -0.7691  3.1742  1.2874
  414TIP3    H2 1249   3.258   5.012   3.164 -0.8126 -0.6911  0.0486
  415TIP3   OH2 1250   6.027   3.920   4.597  0.0025  0.3368 -0.4998
  415TIP3    H1 1251   6.099   3.981   4.582  0.7384 -0.4550 -0.2785
  415TIP3    H2 1252   6.035   3.856   4.526  0.3327 -0.4960  0.2661
  416TIP3   OH2 1253   4.831   1.889   4.734 -0.1493 -0.0388  0.0913
  416TIP3    H1 1254   4.799   1.912   4.647 -0.3227  0.4588  0.2773
  416TIP3    H2 1255   4.901   1.826   4.719  0.5059  0.8039 -0.4622
  417TIP3   OH2 1256   4.893   1.655   2.913  0.6113 -0.2042 -0.5610
  417TIP3    H1 1257   4.803   1.634   2.935  1.0325 -1.2702  0.2655
  417TIP3    H2 1258   4.910   1.610   2.830  0.4253 -0.0870 -0.6627
  418TIP3   OH2 1259   3.740   3.782   0.497  0.1870  0.7110 -0.1988
  418TIP3    H1 1260   3.653   3.775   0.535  0.0959  0.7269 -0.4023
  418TIP3    H2 1261   3.727   3.829   0.415  0.4978  1.3855  0.1290
  419TIP3   OH2 1262   5.010   0.622   0.281  0.3585 -0.3846  0.3458
  419TIP3    H1 1263   5.000   0.552   0.345  2.1493 -1.2074 -0.2347
  419TIP3    H2 1264   5.071   0.588   0.217  0.5347  1.3656 -0.4709
  420TIP3   OH2 1265   1.126   3.066   1.914 -0.4972  0.0266 -0.2549
  420TIP3    H1 1266   1.068   3.037   1.985 -0.4205 -0.5407 -0.4159
  420TIP3    H2 1267   1.212   3.031   1.937 -0.5752 -0.5906 -0.8735
  421TIP3   OH2 1268   1.178   4.658   0.799  0.2894 -0.2923  1.0398
  421TIP3    H1 1269   1.203   4.746   0.827  1.4131 -0.3947  0.4073
  421TIP3    H2 1270   1.146   4.669   0.709  0.2785 -0.5105  1.0150
  422TIP3   OH2 1271   4.384   0.584   1.158  0.1144 -0.0281  0.1238
  422TIP3    H1 1272   4.384   0.488   1.161  1.4309 -0.0780 -0.5069
  422TIP3    H2 1273   4.387   0.610   1.250  1.4921 -0.6551  0.2923
  423TIP3   OH2 1274   2.549   5.739   2.942  0.1884 -0.2376  0.9701
  423TIP3    H1 1275   2.577   5.648   2.945 -0.7046 -0.5064  1.2061
  423TIP3    H2 1276   2.455   5.736   2.930  0.1682  0.6602  0.7910
  424TIP3   OH2 1277   3.693   5.700   4.575 -0.0830  0.5992  0.0679
  424TIP3    H1 1278   3.780   5.735   4.555 -0.5572  1.4503 -0.5811
  424TIP3    H2 1279   3.632   5.762   4.534 -0.9752 -0.6433 -0.5426
  425TIP3   OH2 1280   5.699   0.664   0.130  0.1785  1.0097  0.1753
  425TIP3    H1 1281   5.654   0.649   0.213  1.5150  1.2758  0.9645
  425TIP3    H2 1282   5.630   0.699   0.072 -0.7726  0.8017  1.1426
  426TIP3   OH2 1283   2.026   0.279   2.115 -0.0275 -0.0448 -0.0557
  426TIP3    H1 1284   2.109   0.232   2.119 -0.9706 -1.9902 -1.7097
  426TIP3    H2 1285   2.030   0.328   2.033  0.0343  1.0291  0.5649
  427TIP3   OH2 1286   4.470   4.593   2.782  0.2395 -0.0187  0.3904
  427TIP3    H1 1287   4.565   4.596   2.794  0.3073 -1.3270  0.2876
  427TIP3    H2 1288   4.435   4.592   2.871  0.3308  0.1450  0.4285
  428TIP3   OH2 1289   2.556   0.738   3.220  0.6347  0.0368 -0.2296
  428TIP3    H1 1290   2.582   0.770   3.307  2.0694  0.0564 -0.6289
  428TIP3    H2 1291   2.619   0.779   3.160 -0.9936  0.8798 -1.4264
  429TIP3   OH2 1292   2.261   5.488   1.719  0.4346 -0.3160  0.1878
  429TIP3    H1 1293   2.187   5.546   1.701  1.2695  0.5949 -0.3631
  429TIP3    H2 1294   2.256   5.472   1.813 -0.5672 -0.4225  0.1311
  430TIP3   OH2 1295   0.032   1.030   0.052  0.2123 -0.0872  0.9392
  430TIP3    H1 1296   0.003   0.992   0.135 -0.5347 -0.2643  0.5997
  430TIP3    H2 1297   0.110   1.081   0.076  1.4422 -2.0675  1.3364
  431TIP3   OH2 1298   1.948   0.489   2.809  0.1004  0.3732  0.3606
  431TIP3    H1 1299   1.957   0.425   2.738  2.5029  0.8762  0.1147
  431TIP3    H2 1300   1.868   0.537   2.789 -0.0047 -0.4066 -1.2413
  432TIP3   OH2 1301   0.655   3.921   3.107 -0.4644 -0.3499  0.2195
  432TIP3    H1 1302   0.735   3.887   3.067  1.0660  1.6920  1.3182
  432TIP3    H2 1303   0.589   3.855   3.089  0.8122 -0.9710 -2.9957
  433TIP3   OH2 1304   2.377   3.959   2.348 -0.1141 -0.0052 -0.0642
  433TIP3    H1 1305   2.457   3.906   2.347  0.8067  1.3165  0.6450
  433TIP3    H2 1306   2.390   4.023   2.279  0.4333  1.5725  1.4367
  434TIP3   OH2 1307   3.002   3.672   3.710 -0.2392  0.2560 -0.2047
  434TIP3    H1 1308   3.007   3.705   3.620  1.5898 -0.2820 -0.3288
  434TIP3    H2 1309   2.922   3.712   3.745 -1.2416  0.1536 -2.1755
  435TIP3   OH2 1310   4.155   2.981   4.519 -0.7179  0.0568 -0.1041
  435TIP3    H1 1311   4.211   3.013   4.589 -1.9728 -0.6748  1.2766
  435TIP3    H2 1312   4.066   2.987   4.554 -1.4138 -0.0052 -1.7632
  436TIP3   OH2 1313   1.074   4.282   3.082  0.0134  0.1923 -0.3667
  436TIP3    H1 1314   1.154   4.230   3.070  1.5884  2.2085  0.7020
  436TIP3    H2 1315   1.097   4.369   3.049 -0.5380  1.7326  2.8776
  437TIP3   OH2 1316   3.761   3.996   3.228 -1.1904 -0.3850 -0.6747
  437TIP3    H1 1317   3.754   3.945   3.308 -0.7306 -0.5044 -0.7042
  437TIP3    H2 1318   3.671   4.018   3.205 -1.2765  0.4358  0.3738
  438TIP3   OH2 1319   5.354   1.865   0.666  0.1514 -0.0088 -0.2246
  438TIP3    H1 1320   5.401   1.866   0.749 -2.0394  0.4817  1.1169
  438TIP3    H2 1321   5.340   1.958   0.645  1.0193 -0.1182 -1.3795
  439TIP3   OH2 1322   5.055   4.049   2.783 -0.0804 -0.2425 -0.2123
  439TIP3    H1 1323   5.113   4.035   2.708 -1.8530 -1.6579 -1.4246
  439TIP3    H2 1324   5.109   4.030   2.860  2.0511  2.1610 -0.9884
  440TIP3   OH2 1325   4.795   2.780   1.302  0.4528 -0.2783 -0.2125
  440TIP3    H1 1326   4.709   2.808   1.270  0.0613 -2.8260 -1.5985
  440TIP3    H2 1327   4.791   2.797   1.396 -0.8596  1.3022 -0.4969
  441TIP3   OH2 1328   3.141   4.484   2.422 -0.1537 -0.1134 -0.3032
  441TIP3    H1 1329   3.184   4.568   2.406 -0.7975 -0.0167 -1.7741
  441TIP3    H2 1330   3.203   4.419   2.390  0.3846 -0.2270  0.9227
  442TIP3   OH2 1331   1.233   1.593   2.489  0.1822  0.3730  0.3306
  442TIP3    H1 1332   1.219   1.683   2.461  0.6383  0.9621  1.8827
  442TIP3    H2 1333   1.322   1.592   2.524  0.1141 -0.6265  0.5114
  443TIP3   OH2 1334   1.213   5.347   3.521 -0.7578 -0.2759 -0.0198
  443TIP3    H1 1335   1.130   5.393   3.524 -1.0681 -0.5468 -2.3655
  443TIP3    H2 1336   1.195   5.267   3.472  0.9157 -0.2137 -0.8294
  444TIP3   OH2 1337   5.211   1.534   3.011 -0.0736  0.1330  0.1415
  444TIP3    H1 1338   5.214   1.629   3.000 -1.2374  0.3563  1.4276
  444TIP3    H2 1339   5.147   1.504   2.947  1.6711 -0.0814 -1.6208
  445TIP3   OH2 1340   5.441   1.090   1.706 -1.0045 -0.3295  0.5347
  445TIP3    H1 1341   5.465   1.177   1.675  1.7599 -1.7779 -1.9047
  445TIP3    H2 1342   5.352   1.076   1.673 -0.5599  0.6682 -1.2097
  446TIP3   OH2 1343   3.262   0.424   0.399 -0.4689 -0.1962  0.3284
  446TIP3    H1 1344   3.180   0.445   0.443 -0.6719  2.2072 -1.0594
  446TIP3    H2 1345   3.298   0.509   0.374  1.9876 -1.2468  0.0484
  447TIP3   OH2 1346   3.473   4.020   3.977 -0.2135  0.2591 -0.0210
  447TIP3    H1 1347   3.450   4.063   4.059  0.6100 -0.4504  0.6053
  447TIP3    H2 1348   3.435   3.932   3.985  0.9226 -0.2291  0.1489
  448TIP3   OH2 1349   1.761   5.502   1.359  0.1057  0.3454  0.3991
  448TIP3    H1 1350   1.796   5.568   1.420  1.2474  1.0874 -0.9817
  448TIP3    H2 1351   1.705   5.553   1.299 -0.8586 -0.3407  0.6980
  449TIP3   OH2 1352   1.152   3.577   2.702 -0.2997 -0.8223 -0.1917
  449TIP3    H1 1353   1.135   3.555   2.610 -1.3105 -0.5584 -0.0856
  449TIP3    H2 1354   1.146   3.672   2.705 -3.1386 -0.9204  0.6124
  450TIP3   OH2 1355   4.123   1.348   4.247  0.5744 -0.0706 -0.5998
  450TIP3    H1 1356   4.134   1.284   4.317  0.1444 -0.6011 -1.0042
  450TIP3    H2 1357   4.087   1.297   4.174 -0.2944  0.7326 -0.7459
  451TIP3   OH2 1358   3.129   5.177   3.655  0.0308 -0.6652  0.2468
  451TIP3    H1 1359   3.120   5.086   3.682  0.4995 -0.7756  0.0359
  451TIP3    H2 1360   3.220   5.200   3.678 -0.2034 -0.1263  0.6822
  452TIP3   OH2 1361   3.987   5.655   4.031  0.0512  0.1591 -0.4510
  452TIP3    H1 1362   4.040   5.670   4.109  1.0022  0.5232 -1.1389
  452TIP3    H2 1363   3.928   5.731   4.026 -0.7960 -0.4133  0.5023
  453TIP3   OH2 1364   1.615   1.801   0.719 -0.1236 -0.0700  0.4117
  453TIP3    H1 1365   1.549   1.752   0.768  1.8244 -1.4164  1.8644
  453TIP3    H2 1366   1.573   1.822   0.636 -2.7494  0.1727  1.7115
  454TIP3   OH2 1367   5.586   5.277   2.904 -0.2509 -0.5498 -0.5808
  454TIP3    H1 1368   5.528   5.209   2.870 -1.0577 -1.2174  1.9322
  454TIP3    H2 1369   5.672   5.255   2.869 -0.5497 -2.7143 -0.0885
  455TIP3   OH2 1370   3.383   1.643   3.045 -0.0132 -0.3200  0.7491
  455TIP3    H1 1371   3.322   1.697   2.994 -0.6212 -1.6052  0.0788
  455TIP3    H2 1372   3.419   1.703   3.110 -1.0762  0.7651  0.3722
  456TIP3   OH2 1373   1.417   3.086   4.209 -0.5188 -0.2770 -0.7253
  456TIP3    H1 1374   1.464   3.107   4.129 -0.0043 -0.5455 -0.4980
  456TIP3    H2 1375   1.485   3.077   4.276 -0.7877 -1.7565 -0.6157
  457TIP3   OH2 1376   4.331   5.662   1.073 -0.5308  0.3437 -0.1789
  457TIP3    H1 1377   4.368   5.674   1.161 -0.1281  1.5677 -0.4959
  457TIP3    H2 1378   4.313   5.751   1.042 -1.4389 -0.1151 -1.0209
  458TIP3   OH2 1379   2.317   0.619   1.322  0.1187  0.3018 -0.0720
  458TIP3    H1 1380   2.269   0.562   1.382  0.7049  1.9052  1.9926
  458TIP3    H2 1381   2.279   0.598   1.236 -2.9480  0.1196  1.1788
  459TIP3   OH2 1382   3.278   2.776   2.543  0.2797 -0.0143  0.2799
  459TIP3    H1 1383   3.301   2.869   2.545 -0.0726  0.0812  0.0054
  459TIP3    H2 1384   3.185   2.775   2.523  0.0656 -0.4017  1.2717
  460TIP3   OH2 1385   6.268   5.280   1.230 -0.0550  0.0681 -0.1973
  460TIP3    H1 1386   6.294   5.252   1.318 -0.6972 -0.2642 -0.1102
  460TIP3    H2 1387   6.286   5.374   1.229  0.0191  0.0631  0.2687
  461TIP3   OH2 1388   3.228   2.770   1.951 -0.6738  0.1454  0.0652
  461TIP3    H1 1389   3.165   2.761   1.879 -0.9743  1.4803  0.1462
  461TIP3    H2 1390   3.291   2.700   1.935 -0.0477  1.1261 -2.2028
  462TIP3   OH2 1391   5.356   0.913   2.463 -0.0280 -0.0199  0.0024
  462TIP3    H1 1392   5.447   0.888   2.444 -0.0549  0.9819 -1.6180
  462TIP3    H2 1393   5.320   0.939   2.378 -2.1382 -1.2961  0.4505
  463TIP3   OH2 1394   2.750   2.290   1.407 -0.1895 -0.1292 -0.6699
  463TIP3    H1 1395   2.791   2.327   1.329  1.8492 -2.0676 -0.6247
  463TIP3    H2 1396   2.661   2.268   1.380 -0.0820  0.8489 -1.9014
  464TIP3   OH2 1397   2.284   2.185   5.022 -0.1062 -0.2027 -0.1552
  464TIP3    H1 1398   2.347   2.240   4.976  0.8089 -1.2219 -0.1782
  464TIP3    H2 1399   2.211   2.243   5.042  0.8538  1.0308 -0.0932
  465TIP3   OH2 1400   2.913   2.410   3.515 -0.0519  0.2574 -0.2922
  465TIP3    H1 1401   2.877   2.322   3.506 -1.6047  0.8333  0.1012
  465TIP3    H2 1402   2.869   2.462   3.449  2.0056  0.4637 -1.6132
  466TIP3   OH2 1403   4.118   3.183   2.908  0.0249  0.0808  0.1620
  466TIP3    H1 1404   4.180   3.181   2.835 -0.1890  1.5299 -0.0886
  466TIP3    H2 1405   4.072   3.099   2.903  0.2030  0.0479 -1.1960
  467TIP3   OH2 1406   2.086   4.463   0.866 -0.1333  0.5164 -0.1766
  467TIP3    H1 1407   2.021   4.485   0.932 -0.8095 -0.9683 -0.3094
  467TIP3    H2 1408   2.064   4.517   0.790 -2.2113 -1.0714 -0.7738
  468TIP3   OH2 1409   2.035   5.614   3.661 -0.4348 -0.0713 -0.1315
  468TIP3    H1 1410   2.070   5.602   3.750 -2.3041 -1.0405  0.5287
  468TIP3    H2 1411   2.094   5.564   3.605 -0.0119 -0.5922  0.7579
  469TIP3   OH2 1412   3.048   5.466   0.111  0.1635 -0.4024  0.0385
  469TIP3    H1 1413   2.997   5.389   0.084 -1.0877  1.2441 -2.7210
  469TIP3    H2 1414   2.983   5.527   0.147  0.7567  0.3090 -0.0733
  470TIP3   OH2 1415   0.217   3.137   4.708 -0.2102 -0.1242  0.2389
  470TIP3    H1 1416   0.209   3.110   4.799  1.6888 -0.1253  0.4580
  470TIP3    H2 1417   0.307   3.112   4.684 -1.0669 -1.3671 -2.0509
  471TIP3   OH2 1418   5.434   4.867   2.225  0.1825  0.1589  0.0821
  471TIP3    H1 1419   5.480   4.920   2.161  0.6906  0.0707  0.3655
  471TIP3    H2 1420   5.471   4.779   2.214 -0.8409 -0.1988 -0.5692
  472TIP3   OH2 1421   3.405   5.197   3.723 -0.0997  0.3889  0.0926
  472TIP3    H1 1422   3.460   5.132   3.679 -0.9009  0.7616 -1.5351
  472TIP3    H2 1423   3.459   5.229   3.795  0.3336 -2.0366  0.9213
  473TIP3   OH2 1424   3.428   5.697   0.585  0.7484 -0.6593 -0.6091
  473TIP3    H1 1425   3.349   5.662   0.628  0.2520  1.3861  0.2790
  473TIP3    H2 1426   3.401   5.715   0.495 -0.5034  1.9198  0.1936
  474TIP3   OH2 1427   3.330   2.537   0.450 -0.3051 -0.4603 -0.2235
  474TIP3    H1 1428   3.416   2.578   0.448 -0.2730 -0.5485 -1.0590
  474TIP3    H2 1429   3.291   2.565   0.533  0.7347 -0.8466  0.4060
  475TIP3   OH2 1430   3.705   2.276   0.652  0.0730  0.6100  0.1495
  475TIP3    H1 1431   3.638   2.310   0.711 -0.1454  2.2066 -0.9626
  475TIP3    H2 1432   3.659   2.209   0.600 -0.1121  0.2644  0.7462
  476TIP3   OH2 1433   3.829   2.371   3.697 -0.3556 -0.2713  0.0754
  476TIP3    H1 1434   3.854   2.437   3.632  1.0048  0.0815  0.9127
  476TIP3    H2 1435   3.884   2.391   3.773 -1.0351 -1.4293  0.8933
  477TIP3   OH2 1436   1.010   0.838   4.878 -0.0862  0.7111 -0.0446
  477TIP3    H1 1437   1.085   0.892   4.903 -0.7352  1.3884  0.5006
  477TIP3    H2 1438   0.981   0.875   4.795  2.0983 -1.5686 -1.9693
  478TIP3   OH2 1439   4.098   2.064   3.166 -0.3642 -0.5014 -0.3447
  478TIP3    H1 1440   4.042   2.113   3.106 -0.5258 -1.1473 -0.7358
  478TIP3    H2 1441   4.086   2.107   3.250 -0.8384 -0.1456 -0.5869
  479TIP3   OH2 1442   3.529   5.506   4.685  0.2588  0.5731  0.8048
  479TIP3    H1 1443   3.578   5.562   4.625  1.3652 -0.0783  1.0735
  479TIP3    H2 1444   3.576   5.422   4.683 -1.3248 -0.3522  0.4315
  480TIP3   OH2 1445   2.983   5.284   2.395 -0.4857  0.4191 -0.1288
  480TIP3    H1 1446   3.018   5.373   2.387  0.3891  0.3983  2.4485
  480TIP3    H2 1447   3.010   5.240   2.314 -0.3106  2.2712 -1.1223
  481TIP3   OH2 1448   0.483   2.882   1.676 -0.3281 -0.4851  0.2780
  481TIP3    H1 1449   0.391   2.881   1.650  0.3992 -2.7248 -2.7696
  481TIP3    H2 1450   0.532   2.895   1.595  2.1010  0.5943  1.7909
  482TIP3   OH2 1451   5.229   1.837   3.008 -0.1453  0.5445 -0.4527
  482TIP3    H1 1452   5.187   1.921   2.994 -0.8118  0.3135  0.0913
  482TIP3    H2 1453   5.321   1.858   3.025 -0.5926  1.2847  1.1925
  483TIP3   OH2 1454   5.182   4.032   1.261 -0.0251  0.1277 -0.5019
  483TIP3    H1 1455   5.165   3.940   1.281  0.4199 -0.0001 -0.6930
  483TIP3    H2 1456   5.277   4.040   1.262 -0.0001  0.2886 -1.7308
  484TIP3   OH2 1457   4.481   1.506   4.643  0.3682  0.1255 -0.0743
  484TIP3    H1 1458   4.535   1.473   4.571  1.3875 -0.3804  0.8911
  484TIP3    H2 1459   4.421   1.434   4.662 -0.1770  0.4120 -0.6657
  485TIP3   OH2 1460   5.373   0.834   2.954  0.3713 -0.0050 -0.3625
  485TIP3    H1 1461   5.354   0.814   3.045  0.2630 -1.0640 -0.5981
  485TIP3    H2 1462   5.442   0.772   2.930  1.1429  0.9558 -0.7194
  486TIP3   OH2 1463   2.210   5.826   2.634 -0.6411 -0.3787  0.2745
  486TIP3    H1 1464   2.205   5.873   2.718  0.8057 -0.5067  0.4484
  486TIP3    H2 1465   2.300   5.839   2.604 -0.8607 -1.1643 -0.7876
  487TIP3   OH2 1466   0.631   0.049   3.955 -0.0686 -0.3774 -0.0507
  487TIP3    H1 1467   0.716   0.058   3.999  0.8494 -1.4989 -1.4687
  487TIP3    H2 1468   0.611  -0.044   3.962 -1.0991 -0.1503  0.1113
  488TIP3   OH2 1469   3.943   4.763   4.494 -0.3310 -0.2385  0.3043
  488TIP3    H1 1470   4.027   4.776   4.537 -0.3438  1.1452 -0.0439
  488TIP3    H2 1471   3.889   4.837   4.523 -1.4475 -1.1076  0.5372
  489TIP3   OH2 1472   3.981   1.469   2.120  0.2466 -1.1630 -0.0485
  489TIP3    H1 1473   3.908   1.520   2.086  0.2954 -1.6330 -0.8925
  489TIP3    H2 1474   3.968   1.381   2.083  0.4948 -1.6048  0.8850
  490TIP3   OH2 1475   4.245   4.417   1.430 -0.5242  0.7175 -0.2558
  490TIP3    H1 1476   4.299   4.448   1.503  2.5693 -0.0552 -2.0070
  490TIP3    H2 1477   4.234   4.495   1.374  0.5752  0.4535 -0.8698
  491TIP3   OH2 1478   2.020   4.306   0.300  0.3207 -0.1739  0.2588
  491TIP3    H1 1479   2.048   4.247   0.231  0.1434  1.3648 -1.2062
  491TIP3    H2 1480   1.966   4.252   0.358  0.2590 -1.4522 -0.9454
  492TIP3   OH2 1481   6.202   0.300   4.044  0.0655  0.3552  0.2019
  492TIP3    H1 1482   6.201   0.231   4.111  0.7460  0.6844  0.5534
  492TIP3    H2 1483   6.119   0.347   4.057  0.7951  1.2792  1.7253
  493TIP3   OH2 1484   0.117   5.452   4.770 -0.0992 -0.1459  0.5241
  493TIP3    H1 1485   0.072   5.533   4.746  0.2005 -0.1989 -0.2513
  493TIP3    H2 1486   0.128   5.457   4.865 -0.4575  0.5251  0.5331
  494TIP3   OH2 1487   5.333   1.243   4.260 -0.4089  0.2842 -0.2482
  494TIP3    H1 1488   5.416   1.203   4.235 -1.3736 -1.1396 -1.3159
  494TIP3    H2 1489   5.280   1.171   4.294 -2.3833  0.4549 -2.6988
  495TIP3   OH2 1490   4.595   1.115   3.240  0.3214 -0.1060 -0.2851
  495TIP3    H1 1491   4.686   1.096   3.219  0.4931  0.9518 -0.5827
  495TIP3    H2 1492   4.591   1.113   3.335  0.9706  1.0800 -0.2076
  496TIP3   OH2 1493   1.765   1.043   2.466 -0.7411 -0.4799  0.2753
  496TIP3    H1 1494   1.858   1.041   2.443 -1.1686 -0.6303 -1.5660
  496TIP3    H2 1495   1.752   0.963   2.519  0.3914  0.1818  1.6215
  497TIP3   OH2 1496   0.488   4.603   4.802  0.0073 -0.2382 -0.5906
  497TIP3    H1 1497   0.466   4.634   4.890  1.3774 -1.1675  0.1172
  497TIP3    H2 1498   0.442   4.662   4.743 -2.1412 -0.4844  0.7545
  498TIP3   OH2 1499   0.830   4.010   2.875 -0.3572  0.0809 -0.1719
  498TIP3    H1 1500   0.785   3.944   2.823  0.3966 -0.7318  0.2006
  498TIP3    H2 1501   0.866   4.071   2.810 -0.4651 -0.2458 -0.5404
  499TIP3   OH2 1502   2.051   5.333   1.059  0.5536  0.1219  0.2574
  499TIP3    H1 1503   1.981   5.304   1.118  0.2790  0.6595  0.2014
  499TIP3    H2 1504   2.105   5.391   1.113  0.6261  0.1636  0.1401
  500TIP3   OH2 1505   6.256   0.370   1.163  0.4120 -0.5645 -0.6150
  500TIP3    H1 1506   6.275   0.404   1.075  1.3284 -0.1840 -0.2848
  500TIP3    H2 1507   6.339   0.379   1.210 -0.0447 -0.8598  0.2625
  501TIP3   OH2 1508   4.881   4.909   0.639 -0.4253  0.1558  0.7067
  501TIP3    H1 1509   4.879   5.003   0.659  1.3947  0.3348  0.2239
  501TIP3    H2 1510   4.959   4.898   0.586  1.0019 -2.0625  3.0487
  502TIP3   OH2 1511   1.455   3.331   2.091  0.2932 -0.5602  0.1071
  502TIP3    H1 1512   1.421   3.268   2.027 -2.1619  0.8293 -0.1104
  502TIP3    H2 1513   1.548   3.339   2.070 -0.2415 -0.7550 -2.8067
  503TIP3   OH2 1514   3.652   4.360   0.925 -0.0212  0.2240 -0.0363
  503TIP3    H1 1515   3.739   4.383   0.890 -0.2346  0.4475 -0.4295
  503TIP3    H2 1516   3.595   4.359   0.848 -0.3729  0.0887  0.2224
  504TIP3   OH2 1517   3.693   5.020   2.452  0.0496  0.1077 -0.0429
  504TIP3    H1 1518   3.631   4.968   2.504 -1.2184  1.1349 -0.4581
  504TIP3    H2 1519   3.637   5.077   2.399  1.3718  1.0323 -0.4875
  505TIP3   OH2 1520   0.455   2.627   4.813 -0.6992 -0.4355  1.0738
  505TIP3    H1 1521   0.446   2.690   4.885 -1.3323  0.0823  0.5571
  505TIP3    H2 1522   0.366   2.617   4.779 -0.1552  0.9378 -0.9574
  506TIP3   OH2 1523   5.346   3.737   4.861  0.1059  0.3015 -0.2171
  506TIP3    H1 1524   5.367   3.678   4.789 -0.6460  0.5440 -0.6406
  506TIP3    H2 1525   5.277   3.793   4.827 -0.1066  0.5632  0.6213
  507TIP3   OH2 1526   2.522   2.887   2.026  0.5698  0.6709  0.0363
  507TIP3    H1 1527   2.601   2.837   2.047  0.5613  1.2724  1.6073
  507TIP3    H2 1528   2.467   2.879   2.103 -0.3140  1.4116 -0.4996
  508TIP3   OH2 1529   3.793   2.440   4.720  0.1840 -0.1493  0.0240
  508TIP3    H1 1530   3.772   2.372   4.784  0.0341 -1.8643 -1.7578
  508TIP3    H2 1531   3.743   2.516   4.749 -0.6114 -1.1464  1.4137
  509TIP3   OH2 1532   1.400   3.785   0.327  0.1709 -0.0576 -0.1365
  509TIP3    H1 1533   1.368   3.873   0.348  0.4860  0.4270 -1.5898
  509TIP3    H2 1534   1.323   3.729   0.337 -0.2172  0.4969  0.0495
  510TIP3   OH2 1535   5.353   0.217   3.846  0.2289  0.3577 -0.2030
  510TIP3    H1 1536   5.298   0.143   3.871  0.2364  0.8850  1.4897
  510TIP3    H2 1537   5.428   0.212   3.906  0.1154  1.8466  0.0904
  511TIP3   OH2 1538   4.767   1.832   0.418  0.7567  0.1398  0.1791
  511TIP3    H1 1539   4.779   1.926   0.435  0.5853  0.2843 -0.4477
  511TIP3    H2 1540   4.761   1.792   0.505  0.2494  0.7871  0.4573
  512TIP3   OH2 1541   1.696   2.479   3.961  1.0415 -0.0372  0.8048
  512TIP3    H1 1542   1.645   2.557   3.979  0.8254  0.0338 -0.1093
  512TIP3    H2 1543   1.637   2.406   3.981  0.2898  0.0431 -1.0158
  513TIP3   OH2 1544   4.766   4.061   2.709  0.5313 -0.4017 -0.5749
  513TIP3    H1 1545   4.750   4.155   2.699  0.0233 -0.2830  1.1018
  513TIP3    H2 1546   4.853   4.055   2.748 -0.1532 -0.4965  1.0369
  514TIP3   OH2 1547   0.737   4.429   1.240  0.3066  0.6781  0.5584
  514TIP3    H1 1548   0.721   4.394   1.152  0.4463  2.9850 -0.4851
  514TIP3    H2 1549   0.830   4.450   1.241  0.2714  0.8236  1.1778
  515TIP3   OH2 1550   6.008   0.947   2.265 -1.0065 -0.1677  0.1593
  515TIP3    H1 1551   5.976   0.873   2.316  2.2529 -0.3368  2.2344
  515TIP3    H2 1552   6.034   0.910   2.181 -2.7105 -0.6276 -0.2039
  516TIP3   OH2 1553   5.810   3.084   3.730 -0.3520  0.2715  0.1046
  516TIP3    H1 1554   5.861   3.156   3.694  0.6805 -0.3413  0.2957
  516TIP3    H2 1555   5.723   3.095   3.692 -0.4287  2.0306  0.6864
  517TIP3   OH2 1556   5.467   2.782   1.492 -0.1390 -0.3043  0.1263
  517TIP3    H1 1557   5.515   2.713   1.445 -0.0697  0.7903 -1.5029
  517TIP3    H2 1558   5.520   2.800   1.570  0.7183 -0.9275 -0.3022
  518TIP3   OH2 1559   4.614   1.933   4.312 -0.3459 -0.4999 -0.1322
  518TIP3    H1 1560   4.602   2.015   4.359 -2.1440 -0.9564  0.2722
  518TIP3    H2 1561   4.685   1.888   4.358 -1.1442 -0.3319  1.3039
  519TIP3   OH2 1562   6.297   5.250   5.203  0.0045  0.2096  0.1099
  519TIP3    H1 1563   6.313   5.190   5.130 -1.2375  1.3675 -1.1824
  519TIP3    H2 1564   6.204   5.272   5.196 -0.0763  0.5983  1.8789
  520TIP3   OH2 1565   5.996   5.076   1.466 -0.3463 -0.4473 -0.1889
  520TIP3    H1 1566   5.900   5.075   1.471 -0.3199 -0.8579  0.3468
  520TIP3    H2 1567   6.023   5.124   1.544 -0.0778 -1.7305  0.5433
  521TIP3   OH2 1568   1.230   3.940   3.851 -0.1470  0.0354 -0.0615
  521TIP3    H1 1569   1.163   3.983   3.904  0.2982  0.6329  0.0269
  521TIP3    H2 1570   1.312   3.959   3.896  0.0853 -0.7096 -0.1563
  522TIP3   OH2 1571   4.096   4.715   4.805  0.5161 -0.0138  0.0210
  522TIP3    H1 1572   4.053   4.630   4.797  0.5026 -0.0934  0.8699
  522TIP3    H2 1573   4.074   4.761   4.724  1.7355 -1.3589 -1.1314
  523TIP3   OH2 1574   5.475   1.847   0.923  0.0641  0.7103  0.1429
  523TIP3    H1 1575   5.487   1.756   0.949 -0.5649  0.8671  0.9992
  523TIP3    H2 1576   5.564   1.881   0.917  0.2679  0.6793  2.1742
  524TIP3   OH2 1577   3.470   0.352   0.195 -0.4551  0.0983  0.1086
  524TIP3    H1 1578   3.447   0.435   0.236 -1.0471  0.0590 -0.1389
  524TIP3    H2 1579   3.387   0.317   0.163 -0.1817 -0.4885  0.0234
  525TIP3   OH2 1580   3.367   3.944   1.174 -0.1653 -0.0359 -0.3707
  525TIP3    H1 1581   3.295   3.998   1.207  0.0128  0.1507 -0.2855
  525TIP3    H2 1582   3.424   4.005   1.129 -0.6320 -0.3617 -1.4294
  526TIP3   OH2 1583   3.992   0.054   2.837  0.0854 -0.1342 -0.0182
  526TIP3    H1 1584   4.007   0.078   2.928  0.7118 -1.3211  0.2111
  526TIP3    H2 1585   4.022  -0.037   2.830 -1.7029 -0.7081 -0.9426
  527TIP3   OH2 1586   5.798   0.901   3.687 -0.2769 -0.0098 -0.0317
  527TIP3    H1 1587   5.861   0.842   3.644  0.6295  0.6949  0.2912
  527TIP3    H2 1588   5.713   0.859   3.674  0.2179 -0.8238 -0.7698
  528TIP3   OH2 1589   0.534   0.377   2.385 -0.2685  0.5575 -0.1246
  528TIP3    H1 1590   0.440   0.386   2.397 -0.0509 -0.2043  2.8220
  528TIP3    H2 1591   0.572   0.404   2.468  1.8716 -2.5139  0.0481
  529TIP3   OH2 1592   5.473   5.171   4.917 -0.2259  0.1994  0.2447
  529TIP3    H1 1593   5.472   5.258   4.876  2.1069  0.4997  0.6582
  529TIP3    H2 1594   5.382   5.143   4.918 -0.8082  1.8595 -1.5641
  530TIP3   OH2 1595   2.280   4.701   4.506  0.4102 -0.6511  0.1221
  530TIP3    H1 1596   2.369   4.736   4.498  0.5940 -1.4124 -1.7735
  530TIP3    H2 1597   2.283   4.646   4.585  1.1075  0.6974  1.0735
  531TIP3   OH2 1598   1.159   1.512   1.241  0.3184  0.0631 -0.2204
  531TIP3    H1 1599   1.119   1.589   1.282  2.2869  0.4719  1.0974
  531TIP3    H2 1600   1.231   1.489   1.300  0.3601 -2.2389 -1.0767
  532TIP3   OH2 1601   2.919   3.232   1.168 -0.1682 -0.4271 -0.3943
  532TIP3    H1 1602   2.989   3.247   1.232 -1.0094  0.7045  0.2911
  532TIP3    H2 1603   2.964   3.231   1.083  0.7117  0.0591  0.0497
  533TIP3   OH2 1604   3.084   4.803   0.385 -0.3191 -0.2171 -0.0458
  533TIP3    H1 1605   2.991   4.799   0.360 -0.3519  1.8291 -0.3766
  533TIP3    H2 1606   3.130   4.820   0.304  0.4910 -1.9931 -0.0173
  534TIP3   OH2 1607   2.703   1.239   0.043  0.2346 -0.3553 -0.1995
  534TIP3    H1 1608   2.709   1.224   0.137 -0.7793 -1.7845 -0.3396
  534TIP3    H2 1609   2.699   1.334   0.034  0.7260 -0.1888  1.1664
  535TIP3   OH2 1610   5.756   1.989   3.487  0.3825 -0.5986  0.3441
  535TIP3    H1 1611   5.771   1.894   3.485 -0.4184 -0.7320 -1.0119
  535TIP3    H2 1612   5.837   2.027   3.454  0.2527 -0.9119 -0.3776
  536TIP3   OH2 1613   5.011   5.636   2.108  0.2967 -0.2586  0.3125
  536TIP3    H1 1614   4.975   5.674   2.188  2.3901  0.8381  0.8065
  536TIP3    H2 1615   5.064   5.705   2.070 -1.8008 -0.2172 -2.9264
  537TIP3   OH2 1616   2.323   4.739   2.844  0.3254 -0.1253  0.1984
  537TIP3    H1 1617   2.229   4.735   2.828  0.4104  0.9536 -0.6963
  537TIP3    H2 1618   2.362   4.755   2.758  1.3313 -0.5752  0.5530
  538TIP3   OH2 1619   6.231   0.756   0.825  0.0060 -0.1594  0.0053
  538TIP3    H1 1620   6.151   0.752   0.773 -0.3637  0.2575  0.5337
  538TIP3    H2 1621   6.250   0.849   0.834  0.7557 -0.2641 -0.4145
  539TIP3   OH2 1622   2.884   0.045   3.944  0.0008  0.3742 -1.0007
  539TIP3    H1 1623   2.923   0.126   3.976  0.5663 -0.2766 -0.0017
  539TIP3    H2 1624   2.846   0.069   3.859 -2.7839  2.5346  0.6679
  540TIP3   OH2 1625   4.971   4.541   3.275 -0.1725 -0.1408 -0.2116
  540TIP3    H1 1626   5.062   4.512   3.270 -0.4600 -1.3100  0.8322
  540TIP3    H2 1627   4.967   4.595   3.354 -0.2331  0.5453 -0.6744
  541TIP3   OH2 1628   0.256   0.764   0.305 -0.1270  0.2388  0.2861
  541TIP3    H1 1629   0.300   0.697   0.357 -3.2639 -2.3099 -0.0037
  541TIP3    H2 1630   0.175   0.783   0.353 -1.0849  0.9910 -1.4984
  542TIP3   OH2 1631   1.616   5.797   2.800 -0.1647  0.4461  0.0668
  542TIP3    H1 1632   1.700   5.806   2.755  0.1237 -1.0647  0.2511
  542TIP3    H2 1633   1.639   5.789   2.893 -0.4803 -0.1987  0.0978
  543TIP3   OH2 1634   4.312   2.810   0.893  0.1111  0.3439  1.3420
  543TIP3    H1 1635   4.240   2.753   0.921  0.4713 -1.1054 -0.4773
  543TIP3    H2 1636   4.269   2.892   0.869 -1.0815 -0.6528 -0.1805
  544TIP3   OH2 1637   3.080   0.413   2.257  0.0364  0.1729 -0.2574
  544TIP3    H1 1638   3.072   0.493   2.308 -1.0739 -0.1805  0.1666
  544TIP3    H2 1639   3.008   0.416   2.194  0.8099  0.1437 -1.1715
  545TIP3   OH2 1640   3.475   1.603   0.903  0.1062  0.7911  0.3338
  545TIP3    H1 1641   3.381   1.607   0.887 -0.0550 -1.1590  0.5115
  545TIP3    H2 1642   3.489   1.656   0.981 -0.4264  3.1303 -1.0652
  546TIP3   OH2 1643   2.219   2.883   0.767  0.2119 -0.0221 -0.3949
  546TIP3    H1 1644   2.241   2.972   0.739  2.6176 -0.5329 -0.3187
  546TIP3    H2 1645   2.285   2.861   0.833 -2.1530 -0.7817  1.9100
  547TIP3   OH2 1646   1.324   3.408   3.152  0.4475  0.2557 -0.6609
  547TIP3    H1 1647   1.393   3.413   3.218 -0.9118  0.6594  0.8014
  547TIP3    H2 1648   1.356   3.346   3.087  1.5563 -0.6966  0.7473
  548TIP3   OH2 1649   5.477   1.868   4.611 -0.2277  0.4536  0.0721
  548TIP3    H1 1650   5.488   1.963   4.616 -0.0347  0.5002 -1.1311
  548TIP3    H2 1651   5.435   1.845   4.694  1.6721  1.3065  1.3472
  549TIP3   OH2 1652   2.530   5.229   1.505 -0.4100  0.5992  0.3223
  549TIP3    H1 1653   2.524   5.244   1.410  2.1830 -1.2208 -0.2404
  549TIP3    H2 1654   2.481   5.148   1.519  0.6407 -0.0630  0.2196
  550TIP3   OH2 1655   4.596   1.564   1.246  0.1307  0.2661  0.1149
  550TIP3    H1 1656   4.573   1.647   1.287 -1.2128  0.7613 -1.5709
  550TIP3    H2 1657   4.689   1.573   1.225 -0.4366  2.2439 -1.9439
  551TIP3   OH2 1658   5.353   3.385   3.931  0.1357  0.1269  0.4222
  551TIP3    H1 1659   5.307   3.454   3.980 -2.6203 -0.7430 -0.7445
  551TIP3    H2 1660   5.360   3.419   3.842  0.7296 -0.2597  0.3154
  552TIP3   OH2 1661   3.452   2.226   5.039  0.2335 -0.4797 -0.5161
  552TIP3    H1 1662   3.387   2.223   4.969  1.7907 -2.1269 -1.9728
  552TIP3    H2 1663   3.470   2.319   5.051 -1.8162 -0.0350 -0.5781
  553TIP3   OH2 1664   1.730   1.523   2.960  0.0734 -0.3497  0.0023
  553TIP3    H1 1665   1.819   1.559   2.958 -0.6561  1.5435  0.0703
  553TIP3    H2 1666   1.678   1.588   3.008 -1.6124 -0.8087 -1.1132
  554TIP3   OH2 1667   5.965   0.623   2.162  0.4799 -0.0848  0.2417
  554TIP3    H1 1668   5.913   0.544   2.177 -0.1832  0.1576 -0.7132
  554TIP3    H2 1669   6.019   0.602   2.086  0.5023  0.2781  0.1566
  555TIP3   OH2 1670   2.692   1.177   0.300  0.3858 -0.4993  0.1399
  555TIP3    H1 1671   2.689   1.082   0.309  0.9398 -0.4203  1.2524
  555TIP3    H2 1672   2.620   1.210   0.353  1.1659 -0.2275  1.0526
  556TIP3   OH2 1673   4.636   5.745   0.635  0.4593 -0.6142  0.6473
  556TIP3    H1 1674   4.559   5.787   0.675  0.5920 -0.6084  0.8988
  556TIP3    H2 1675   4.709   5.801   0.658  0.6911 -1.1573  1.2820
  557TIP3   OH2 1676   4.243   5.924   0.957  0.2276 -0.7410 -0.0902
  557TIP3    H1 1677   4.178   5.991   0.933 -0.5348 -1.0770  0.9493
  557TIP3    H2 1678   4.288   5.961   1.032  2.0695 -0.0184 -1.4882
  558TIP3   OH2 1679   1.767   0.903   1.641  0.0660 -0.2436  0.0657
  558TIP3    H1 1680   1.732   0.970   1.699  1.2996  1.0030 -0.5608
  558TIP3    H2 1681   1.828   0.854   1.695  0.7580  0.5273  0.0040
  559TIP3   OH2 1682   2.366   5.401   2.926 -0.1103  0.0402 -0.0366
  559TIP3    H1 1683   2.426   5.361   2.989 -1.1625  0.0230  0.9920
  559TIP3    H2 1684   2.279   5.378   2.958 -0.7852  2.7906  0.3977
  560TIP3   OH2 1685   4.185   4.377   3.400  0.0750 -0.3292 -0.0525
  560TIP3    H1 1686   4.223   4.294   3.371 -0.5997 -0.6107 -0.1422
  560TIP3    H2 1687   4.103   4.385   3.351  0.0033  0.2556  0.1578
  561TIP3   OH2 1688   2.522   4.368   4.133  0.2436 -0.0966 -0.4813
  561TIP3    H1 1689   2.543   4.449   4.088  1.2342 -0.0165  0.0941
  561TIP3    H2 1690   2.599   4.349   4.186  0.7324 -2.3198 -1.8638
  562TIP3   OH2 1691   1.667   0.930   1.039  0.2758 -0.2227 -0.2322
  562TIP3    H1 1692   1.610   0.853   1.046 -2.2775  1.7030  2.6910
  562TIP3    H2 1693   1.723   0.925   1.116  1.4061 -0.0357 -1.0156
  563TIP3   OH2 1694   2.223   1.926   2.491  0.5959 -0.4180  0.3092
  563TIP3    H1 1695   2.263   1.845   2.460 -2.4557 -1.5891 -0.8741
  563TIP3    H2 1696   2.173   1.901   2.568 -2.0741 -0.2159 -1.2440
  564TIP3   OH2 1697   4.918   5.160   2.251  0.0498  0.4702 -0.1178
  564TIP3    H1 1698   4.917   5.079   2.200  0.1939  1.5691 -1.9650
  564TIP3    H2 1699   5.011   5.178   2.264  0.0189  0.4428  0.1542
  565TIP3   OH2 1700   2.874   5.058   4.824  0.4002 -0.3016  0.1588
  565TIP3    H1 1701   2.969   5.050   4.816  0.4804  1.3961 -1.3553
  565TIP3    H2 1702   2.839   4.981   4.779  1.0535 -0.5197  0.0199
  566TIP3   OH2 1703   0.416   0.461   4.759 -0.2080 -0.1302  0.1181
  566TIP3    H1 1704   0.403   0.513   4.680  1.7152  0.2913  0.0419
  566TIP3    H2 1705   0.385   0.518   4.830 -0.8045 -0.0393 -0.2078
  567TIP3   OH2 1706   4.567   5.947   2.063  0.1345 -0.4332 -0.0201
  567TIP3    H1 1707   4.650   5.984   2.034  0.9265 -1.8159  0.4249
  567TIP3    H2 1708   4.509   6.023   2.070  0.6108  0.2863 -2.6878
  568TIP3   OH2 1709   5.188   3.379   4.847 -0.1794 -0.1885  0.6044
  568TIP3    H1 1710   5.254   3.440   4.814  0.1947 -0.5922  0.5820
  568TIP3    H2 1711   5.239   3.302   4.874 -0.6757 -0.6242  0.3100
  569TIP3   OH2 1712   3.902   0.986   2.765 -0.0199  0.2834 -0.4441
  569TIP3    H1 1713   3.902   0.892   2.785 -0.6760  0.4823  0.5018
  569TIP3    H2 1714   3.860   0.992   2.679 -1.1966 -0.1763  0.0802
  570TIP3   OH2 1715   1.655   0.269   4.652  0.2063 -0.2503  0.2976
  570TIP3    H1 1716   1.696   0.355   4.657  1.6644 -0.6657 -2.5179
  570TIP3    H2 1717   1.579   0.283   4.594 -0.5766 -0.5520  1.2278
  571TIP3   OH2 1718   3.718   2.616   3.039 -0.3932  0.0975 -0.2345
  571TIP3    H1 1719   3.801   2.651   3.072 -0.4746 -0.2699  0.3824
  571TIP3    H2 1720   3.653   2.650   3.101 -0.6050 -0.2344 -0.2738
  572TIP3   OH2 1721   4.662   5.929   3.292 -0.3086 -0.8630  0.2186
  572TIP3    H1 1722   4.623   6.014   3.272 -0.4512 -1.1474 -0.7815
  572TIP3    H2 1723   4.708   5.904   3.212 -0.2716 -1.7251  0.4940
  573TIP3   OH2 1724   3.183   2.980   1.103 -0.0428  0.2917 -0.3924
  573TIP3    H1 1725   3.180   3.064   1.056 -0.9659  0.0571 -0.7798
  573TIP3    H2 1726   3.228   3.000   1.185 -0.9143  1.3449 -0.1467
  574TIP3   OH2 1727   0.094   4.647   4.057 -0.2445  0.2746  0.3905
  574TIP3    H1 1728   0.123   4.587   3.988  1.3901 -0.2964  1.5344
  574TIP3    H2 1729   0.098   4.734   4.016 -1.6428 -0.2523 -0.9589
  575TIP3   OH2 1730   5.387   0.053   2.706 -0.3585  0.0519 -0.6861
  575TIP3    H1 1731   5.438   0.048   2.625  0.9681 -0.4503  0.1454
  575TIP3    H2 1732   5.343   0.138   2.701  1.8778  1.2768 -0.7090
  576TIP3   OH2 1733   1.252   5.165   1.931 -0.2364 -0.0601 -0.5076
  576TIP3    H1 1734   1.309   5.112   1.986 -1.3603 -1.3270 -0.5115
  576TIP3    H2 1735   1.204   5.221   1.992 -0.8114 -0.8105 -0.2503
  577TIP3   OH2 1736   4.884   5.680   0.349 -0.1858  0.2705 -0.1324
  577TIP3    H1 1737   4.908   5.588   0.339  0.5707  0.2911  1.1557
  577TIP3    H2 1738   4.887   5.716   0.261 -0.7306 -0.9845 -0.6887
  578TIP3   OH2 1739   0.762   3.732   1.023 -0.0429  0.0581 -0.6382
  578TIP3    H1 1740   0.701   3.745   0.950  0.8813 -1.2465 -1.6899
  578TIP3    H2 1741   0.777   3.820   1.058 -3.3704  0.3633  0.4303
  579TIP3   OH2 1742   2.598   5.937   1.635  0.0062  0.1019  0.1837
  579TIP3    H1 1743   2.650   5.881   1.577 -0.8548 -0.2603 -0.2597
  579TIP3    H2 1744   2.524   5.882   1.661 -1.3047  1.2555 -0.9339
  580TIP3   OH2 1745   0.242   1.943   3.213  0.1888 -0.0706  0.1231
  580TIP3    H1 1746   0.245   1.922   3.306  1.1481  0.4244  0.2127
  580TIP3    H2 1747   0.155   1.914   3.185 -0.2746  0.1632  1.2581
  581TIP3   OH2 1748   5.776   4.284   5.035  0.1023  0.0130  0.0730
  581TIP3    H1 1749   5.715   4.216   5.063 -1.1526  1.0869  0.0726
  581TIP3    H2 1750   5.851   4.275   5.094 -0.9807  0.0050  1.5021
  582TIP3   OH2 1751   3.590   5.938   4.469  0.2702  0.1158 -0.9416
  582TIP3    H1 1752   3.582   6.020   4.517  0.7272 -0.2273 -0.2707
  582TIP3    H2 1753   3.499   5.909   4.457  0.1484 -0.6600  1.2678
  583TIP3   OH2 1754   5.716   4.801   2.839 -0.5448  0.1593  0.2190
  583TIP3    H1 1755   5.803   4.763   2.843 -0.3693  0.5510  0.1926
  583TIP3    H2 1756   5.715   4.866   2.910 -1.2726 -0.7870  1.0925
  584TIP3   OH2 1757   5.837   1.998   3.068 -0.2492  0.6579  0.3160
  584TIP3    H1 1758   5.861   1.996   2.975  0.8365 -0.4301  0.5865
  584TIP3    H2 1759   5.745   1.970   3.070 -0.3454  0.9017 -0.4462
  585TIP3   OH2 1760   5.874   5.786   4.822  0.3999 -0.2141  0.3663
  585TIP3    H1 1761   5.911   5.871   4.798 -0.0790  0.7934  2.9017
  585TIP3    H2 1762   5.803   5.772   4.760 -0.1738  1.7530  0.5161
  586TIP3   OH2 1763   1.312   4.768   3.623 -0.0496  0.1004 -0.3031
  586TIP3    H1 1764   1.289   4.737   3.711  0.4791 -0.3599 -0.3213
  586TIP3    H2 1765   1.227   4.784   3.581 -0.3943  3.5842  1.3756
  587TIP3   OH2 1766   4.729   3.628   3.671  0.5310 -0.2291  0.0162
  587TIP3    H1 1767   4.681   3.618   3.753  2.9737  0.3947  1.6197
  587TIP3    H2 1768   4.802   3.686   3.692  0.5748  0.9707 -2.9384
  588TIP3   OH2 1769   0.410   2.647   2.141  0.2752 -0.0420  0.6513
  588TIP3    H1 1770   0.436   2.570   2.090  1.7846  0.5016  0.5520
  588TIP3    H2 1771   0.420   2.720   2.080 -0.3316  0.3294  0.9951
  589TIP3   OH2 1772   3.342   4.347   2.281  0.2851  0.5391 -0.6819
  589TIP3    H1 1773   3.367   4.303   2.200  1.0271 -0.5280  0.0955
  589TIP3    H2 1774   3.380   4.293   2.350 -0.0517  1.6027  0.3708
  590TIP3   OH2 1775   0.040   0.680   1.988  0.7676 -0.2445  0.1271
  590TIP3    H1 1776   0.091   0.712   1.913  0.2869  0.3372  0.0401
  590TIP3    H2 1777   0.088   0.713   2.064  0.7003  0.0389  0.0507
  591TIP3   OH2 1778   3.411   0.590   3.175 -0.0386  0.0169  0.5692
  591TIP3    H1 1779   3.464   0.653   3.127  1.3677 -1.2456  0.3793
  591TIP3    H2 1780   3.322   0.604   3.143  0.6557  0.0789 -1.4870
  592TIP3   OH2 1781   1.573   0.241   3.782 -0.3060 -0.4150  0.1849
  592TIP3    H1 1782   1.481   0.252   3.759 -0.1333 -0.4526 -0.5612
  592TIP3    H2 1783   1.593   0.151   3.755 -0.2315 -0.6391  0.9801
  593TIP3   OH2 1784   0.984   0.807   0.984 -0.6922  0.6241  0.0003
  593TIP3    H1 1785   0.996   0.886   1.036 -0.0155  0.8681 -0.5062
  593TIP3    H2 1786   1.005   0.834   0.894 -0.1685 -0.1910 -0.1325
  594TIP3   OH2 1787   0.674   4.117   4.410  0.2441  0.2880 -0.1552
  594TIP3    H1 1788   0.619   4.042   4.385 -0.1051  0.1989  0.8310
  594TIP3    H2 1789   0.700   4.156   4.327  1.7745 -1.8789 -0.7752
  595TIP3   OH2 1790   5.243   3.703   3.734 -0.0739  0.4904 -0.4205
  595TIP3    H1 1791   5.164   3.649   3.739  0.0248  0.4588  1.9064
  595TIP3    H2 1792   5.309   3.647   3.695  0.1877 -1.4028  2.4478
  596TIP3   OH2 1793   6.226   5.448   3.150 -0.8569  0.3328 -0.0701
  596TIP3    H1 1794   6.236   5.410   3.238  1.9302  0.6633 -0.1486
  596TIP3    H2 1795   6.174   5.385   3.102 -1.1549 -0.5922  1.4121
  597TIP3   OH2 1796   1.405   1.043   1.576 -0.1172 -0.2019  0.0086
  597TIP3    H1 1797   1.396   0.993   1.496 -0.4923  2.0365 -1.4332
  597TIP3    H2 1798   1.470   1.110   1.556 -0.7291  0.8512  1.3161
  598TIP3   OH2 1799   5.752   4.320   0.821  0.0987 -0.4136  0.0638
  598TIP3    H1 1800   5.808   4.334   0.897  0.1531 -0.7345  0.0856
  598TIP3    H2 1801   5.797   4.365   0.749 -0.5080  0.8285  0.4425
  599TIP3   OH2 1802   3.995   3.361   4.809 -0.6539 -0.3776  0.1183
  599TIP3    H1 1803   4.022   3.389   4.897  0.2633  0.5579 -0.4376
  599TIP3    H2 1804   3.984   3.443   4.761 -0.6191 -0.9034 -0.7899
  600TIP3   OH2 1805   5.193   3.525   2.603 -0.1185  0.1370  0.1626
  600TIP3    H1 1806   5.199   3.469   2.526 -1.1881 -1.7233  1.3538
  600TIP3    H2 1807   5.241   3.478   2.671 -0.7665  0.8157  1.1234
  601TIP3   OH2 1808   2.256   1.638   2.916 -0.2218 -0.1559 -0.0426
  601TIP3    H1 1809   2.242   1.681   3.000  1.3996 -0.3420  0.3594
  601TIP3    H2 1810   2.349   1.654   2.896 -0.3006 -1.0650 -1.2454
  602TIP3   OH2 1811   3.829   2.289   3.320 -0.5513  0.0226 -0.2076
  602TIP3    H1 1812   3.845   2.269   3.227 -1.5913  1.0888 -0.6347
  602TIP3    H2 1813   3.735   2.303   3.326 -0.3444  1.0992  0.7824
  603TIP3   OH2 1814   0.359   4.828   4.217 -0.1929 -0.2596  0.0354
  603TIP3    H1 1815   0.379   4.921   4.228 -0.9980  0.0287 -0.8301
  603TIP3    H2 1816   0.348   4.796   4.307  1.9699  0.0222  0.4576
  604TIP3   OH2 1817   0.296   3.774   4.480 -0.2025  0.2438 -0.4022
  604TIP3    H1 1818   0.381   3.778   4.523 -1.0346  0.4039  1.3350
  604TIP3    H2 1819   0.311   3.724   4.400  1.3083 -0.6534  0.4024
  605TIP3   OH2 1820   4.092   0.058   1.740 -0.4875 -0.7813 -0.3911
  605TIP3    H1 1821   4.028   0.116   1.781 -0.0988  0.3299 -1.3168
  605TIP3    H2 1822   4.111   0.099   1.656  0.7403 -1.5930 -0.5307
  606TIP3   OH2 1823   5.821   3.695   0.810  0.2666  0.2352 -0.1543
  606TIP3    H1 1824   5.814   3.768   0.749 -0.3028 -0.8575 -1.4402
  606TIP3    H2 1825   5.904   3.710   0.856 -0.4304  2.3524  0.5390
  607TIP3   OH2 1826   4.848   2.939   2.374 -0.1199 -0.0989 -0.0278
  607TIP3    H1 1827   4.865   2.920   2.466 -1.2606 -0.3339  0.1499
  607TIP3    H2 1828   4.868   3.033   2.365 -1.0018  0.1779  0.7242
  608TIP3   OH2 1829   3.472   2.710   4.098 -0.1495 -0.1395 -0.4531
  608TIP3    H1 1830   3.553   2.730   4.050 -0.3218 -0.3338 -0.8353
  608TIP3    H2 1831   3.404   2.709   4.030 -0.1560 -1.9219 -0.4622
  609TIP3   OH2 1832   2.967   2.511   1.484 -0.2579  0.3172  0.3896
  609TIP3    H1 1833   2.932   2.469   1.405  1.6277 -0.5502 -0.0336
  609TIP3    H2 1834   2.959   2.604   1.467 -0.4009  0.1360 -0.5905
  610TIP3   OH2 1835   1.429   2.939   2.962 -0.8199  0.2711  0.3802
  610TIP3    H1 1836   1.471   2.874   2.905 -2.1104 -0.4558  0.2313
  610TIP3    H2 1837   1.451   2.909   3.051 -1.3862 -0.3680  0.3130
  611TIP3   OH2 1838   1.359   4.853   2.740 -0.3893  0.4071  0.2981
  611TIP3    H1 1839   1.295   4.921   2.759 -0.7935 -0.2988  1.5871
  611TIP3    H2 1840   1.419   4.854   2.815  0.8597  0.7552 -0.6773
  612TIP3   OH2 1841   4.986   0.958   2.599 -0.0620 -0.4270 -0.3298
  612TIP3    H1 1842   5.043   0.962   2.676  1.4371  1.2128 -1.4483
  612TIP3    H2 1843   4.969   0.864   2.587 -1.0091 -0.7212  2.3851
  613TIP3   OH2 1844   3.070   2.044   1.565 -0.7717  0.4485 -0.0795
  613TIP3    H1 1845   3.157   2.015   1.538  0.8447  2.7222  2.1610
  613TIP3    H2 1846   3.058   2.128   1.521 -0.2608  1.7757  2.1374
  614TIP3   OH2 1847   1.162   2.709   4.267 -0.1014  0.0062  0.1898
  614TIP3    H1 1848   1.202   2.711   4.180 -1.9890  0.6735 -0.7102
  614TIP3    H2 1849   1.187   2.623   4.302  1.2600 -0.0029 -0.6898
  615TIP3   OH2 1850   1.380   1.451   2.199  0.3951 -0.8052  0.0605
  615TIP3    H1 1851   1.289   1.423   2.188  0.2318 -0.4772  0.5514
  615TIP3    H2 1852   1.377   1.546   2.189  0.5826 -0.7285  0.7087
  616TIP3   OH2 1853   1.743   5.691   0.284  0.7924  0.5988  0.0025
  616TIP3    H1 1854   1.670   5.694   0.222  0.5375 -2.2120  0.0706
  616TIP3    H2 1855   1.707   5.729   0.364 -0.5582 -0.5350 -0.0332
  617TIP3   OH2 1856   2.858   3.414   2.661 -0.3376  0.7388  0.2108
  617TIP3    H1 1857   2.916   3.426   2.736 -0.7620  0.1251  0.6464
  617TIP3    H2 1858   2.915   3.380   2.592 -0.4199 -1.4279  1.1179
  618TIP3   OH2 1859   1.827   4.891   4.897 -0.0105 -0.1483 -0.5419
  618TIP3    H1 1860   1.857   4.951   4.965 -0.8350 -0.9528  0.5586
  618TIP3    H2 1861   1.819   4.946   4.819  0.0053  1.0096  0.2498
  619TIP3   OH2 1862   4.280   0.101   2.783  0.3662  0.0961 -0.6704
  619TIP3    H1 1863   4.184   0.101   2.791  0.3029 -0.9185 -1.2423
  619TIP3    H2 1864   4.297   0.133   2.695  0.5423  0.1185 -0.6291
  620TIP3   OH2 1865   4.102   3.791   1.055 -0.4370  0.2580 -0.2882
  620TIP3    H1 1866   4.048   3.793   0.975 -0.6449 -0.8761 -0.1865
  620TIP3    H2 1867   4.191   3.773   1.023 -0.1815  1.6113 -0.4080
  621TIP3   OH2 1868   3.514   3.803   2.105 -0.6938  0.0296  0.0023
  621TIP3    H1 1869   3.500   3.719   2.149  1.0050 -0.2385  0.0838
  621TIP3    H2 1870   3.497   3.868   2.173  1.4735 -0.3683  0.9963
  622TIP3   OH2 1871   3.535   4.564   0.521  0.2271  0.3639 -0.4247
  622TIP3    H1 1872   3.461   4.623   0.505 -0.2577 -0.0707  0.2106
  622TIP3    H2 1873   3.549   4.520   0.436  1.2853  2.1398 -1.2255
  623TIP3   OH2 1874   4.427   2.784   2.665 -0.0298 -0.9127 -0.0521
  623TIP3    H1 1875   4.388   2.852   2.720  0.1614 -0.4519 -0.4702
  623TIP3    H2 1876   4.452   2.830   2.585  1.1066 -1.2426  0.0851
  624TIP3   OH2 1877   2.335   2.408   3.647  0.0925  0.1746  0.1017
  624TIP3    H1 1878   2.277   2.342   3.685  0.2231 -0.6147 -1.0416
  624TIP3    H2 1879   2.419   2.364   3.638  0.0851  0.3576 -1.0325
  625TIP3   OH2 1880   6.064   5.126   3.806 -0.1073 -0.1055  0.4771
  625TIP3    H1 1881   6.102   5.210   3.830 -0.9374  0.2428  0.5965
  625TIP3    H2 1882   6.110   5.062   3.862 -2.4347  0.7384  3.6610
  626TIP3   OH2 1883   2.259   3.793   1.171 -0.2944 -0.2256  0.0884
  626TIP3    H1 1884   2.329   3.772   1.232  0.3338 -0.1981 -0.6122
  626TIP3    H2 1885   2.226   3.707   1.143 -1.4237 -0.2540  1.3793
  627TIP3   OH2 1886   1.298   5.448   2.307 -0.1366  0.3824 -0.2514
  627TIP3    H1 1887   1.205   5.429   2.316 -0.4069  1.5541 -0.4064
  627TIP3    H2 1888   1.311   5.530   2.354  1.3124 -0.9458  1.8338
  628TIP3   OH2 1889   3.198   5.879   4.130  0.5055  0.3770  0.3045
  628TIP3    H1 1890   3.185   5.974   4.126  1.3860  0.4957  0.0887
  628TIP3    H2 1891   3.292   5.867   4.118  0.1325 -0.6695 -2.1958
  629TIP3   OH2 1892   4.454   3.914   1.929  0.2449  0.6892 -0.0269
  629TIP3    H1 1893   4.530   3.950   1.882 -0.5925  1.3769 -0.8722
  629TIP3    H2 1894   4.453   3.962   2.012  2.0555 -0.9105  1.0375
  630TIP3   OH2 1895   4.243   3.091   5.094 -0.6014  0.1528 -0.2489
  630TIP3    H1 1896   4.294   3.016   5.064  0.1642  0.8345 -0.6833
  630TIP3    H2 1897   4.299   3.167   5.078 -0.0867  0.5881  2.9285
  631TIP3   OH2 1898   5.161   5.619   2.952  0.3032  0.3915  0.6450
  631TIP3    H1 1899   5.236   5.604   2.895  0.6338  1.6341  0.7280
  631TIP3    H2 1900   5.086   5.623   2.892  0.7882  2.8839  0.0917
  632TIP3   OH2 1901   6.144   0.591   4.742 -0.3278  0.3729 -0.1032
  632TIP3    H1 1902   6.169   0.501   4.762 -0.5583 -0.1502 -2.0134
  632TIP3    H2 1903   6.199   0.644   4.801 -0.5769 -0.9906  1.4255
  633TIP3   OH2 1904   3.535   5.509   0.008  0.2272  0.0109 -0.0673
  633TIP3    H1 1905   3.462   5.459   0.043 -0.5047  0.8931 -0.2985
  633TIP3    H2 1906   3.602   5.505   0.077 -0.9735  1.2604  1.2505
  634TIP3   OH2 1907   0.082   1.451   4.384  0.0925 -0.3647 -0.0200
  634TIP3    H1 1908   0.167   1.493   4.398 -0.3262  0.9214 -1.0824
  634TIP3    H2 1909   0.103   1.369   4.339  0.8191 -0.4542  0.4652
  635TIP3   OH2 1910   6.293   2.040   1.244 -0.1294  0.1584  0.0853
  635TIP3    H1 1911   6.293   1.976   1.172  0.7622  1.4580 -1.1141
  635TIP3    H2 1912   6.380   2.079   1.242 -0.3449  0.7482  1.4069
  636TIP3   OH2 1913   0.946   1.201   4.279 -0.3186 -0.0182 -0.0926
  636TIP3    H1 1914   0.958   1.291   4.246 -0.5538 -0.2529 -0.8403
  636TIP3    H2 1915   0.959   1.208   4.374  1.5755  0.4760 -0.3498
  637TIP3   OH2 1916   3.833   5.763   1.662 -0.0063 -0.4224  0.0345
  637TIP3    H1 1917   3.805   5.726   1.745  1.1671  1.2862  1.2611
  637TIP3    H2 1918   3.928   5.750   1.659  0.2537  1.2202 -0.0846
  638TIP3   OH2 1919   5.028   2.899   4.031 -0.5319  0.0333 -0.4468
  638TIP3    H1 1920   5.077   2.817   4.030  0.1079  0.3475 -2.7582
  638TIP3    H2 1921   5.066   2.948   4.104  0.0569 -1.1726  0.0897
  639TIP3   OH2 1922   2.982   1.906   1.054 -0.2865 -0.4515 -0.4838
  639TIP3    H1 1923   2.968   1.838   0.987 -0.2511 -0.4765 -0.4663
  639TIP3    H2 1924   2.897   1.917   1.096 -0.4574 -0.0019 -0.9420
  640TIP3   OH2 1925   5.275   2.205   3.077  0.1182  0.1108  0.0890
  640TIP3    H1 1926   5.318   2.125   3.107 -0.9690 -0.2300  0.8084
  640TIP3    H2 1927   5.341   2.250   3.025  0.9168 -1.0040  0.1010
  641TIP3   OH2 1928   3.622   5.692   4.279  0.4092 -0.0976 -0.5087
  641TIP3    H1 1929   3.677   5.632   4.228 -0.3322 -0.8103 -0.4906
  641TIP3    H2 1930   3.684   5.738   4.337  1.0389 -0.5369 -0.8199
  642TIP3   OH2 1931   0.721   0.328   0.235  0.0590 -0.0394 -0.1514
  642TIP3    H1 1932   0.629   0.303   0.240 -0.0427  0.2978 -0.3042
  642TIP3    H2 1933   0.755   0.279   0.160 -0.3832  1.0136 -1.0719
  643TIP3   OH2 1934   4.116   0.379   1.269 -0.2848 -0.2388 -0.6537
  643TIP3    H1 1935   4.067   0.398   1.349  2.1915  0.0477  0.8917
  643TIP3    H2 1936   4.191   0.328   1.299 -0.0299 -1.3640 -3.0237
  644TIP3   OH2 1937   4.623   1.137   3.969  0.1704  0.2318 -0.1688
  644TIP3    H1 1938   4.563   1.135   3.894  1.8687  1.0864 -1.6196
  644TIP3    H2 1939   4.695   1.193   3.941  1.3940 -0.2914  1.7245
  645TIP3   OH2 1940   2.731   1.162   4.539 -1.0609 -0.0925 -0.0853
  645TIP3    H1 1941   2.682   1.240   4.511 -1.3038 -0.6638 -1.2809
  645TIP3    H2 1942   2.683   1.088   4.502 -0.2450 -0.7600  0.1566
  646TIP3   OH2 1943   3.706   3.575   3.060  0.0468  0.3628 -0.0650
  646TIP3    H1 1944   3.780   3.530   3.100  0.6152  0.4198 -1.0063
  646TIP3    H2 1945   3.687   3.523   2.982  0.6989  1.6937 -1.1546
  647TIP3   OH2 1946   0.071   0.319   1.511 -0.3285 -0.0092  0.5551
  647TIP3    H1 1947   0.092   0.269   1.590 -0.2743  1.5441  1.5635
  647TIP3    H2 1948  -0.014   0.358   1.530 -0.7224 -0.3096 -0.5282
  648TIP3   OH2 1949   4.572   4.391   1.590 -0.0717 -0.5947 -0.1626
  648TIP3    H1 1950   4.509   4.462   1.600 -0.2314 -0.7146 -0.3047
  648TIP3    H2 1951   4.570   4.345   1.674  1.1476  0.4615  0.4827
  649TIP3   OH2 1952   4.745   2.316   3.903  0.1656 -0.5256 -0.7671
  649TIP3    H1 1953   4.775   2.266   3.827  3.1179  1.2043 -0.8628
  649TIP3    H2 1954   4.764   2.407   3.881 -5.2058  0.9399 -0.6825
  650TIP3   OH2 1955   3.071   2.333   3.898 -0.0546 -0.5427  0.3965
  650TIP3    H1 1956   3.158   2.356   3.930 -0.4670  1.9844 -0.1173
  650TIP3    H2 1957   3.015   2.340   3.976  0.0156 -1.2648  0.5261
  651TIP3   OH2 1958   1.246   0.975   4.841  0.6411  0.1784  0.4548
  651TIP3    H1 1959   1.271   1.049   4.786  1.9068  0.4640  1.3472
  651TIP3    H2 1960   1.330   0.936   4.866  0.0517 -0.5530  1.3200
  652TIP3   OH2 1961   2.978   0.645   1.613  0.0948  0.1530 -0.3288
  652TIP3    H1 1962   3.034   0.692   1.675 -0.6228  2.0958 -1.0647
  652TIP3    H2 1963   2.908   0.707   1.592 -1.7884 -1.8193 -0.2148
  653TIP3   OH2 1964   2.404   0.532   0.875 -0.2255 -0.2959  0.0052
  653TIP3    H1 1965   2.497   0.537   0.900 -0.3884 -0.9813  0.7948
  653TIP3    H2 1966   2.399   0.457   0.817 -0.3803 -0.6165  0.4285
  654TIP3   OH2 1967   4.007   1.787   4.258  0.0254 -0.0826 -0.2361
  654TIP3    H1 1968   3.933   1.774   4.318  0.1460 -0.1570 -0.0991
  654TIP3    H2 1969   4.031   1.879   4.269 -1.1722  0.4199 -1.6066
  655TIP3   OH2 1970   1.843   2.070   1.427 -0.5680 -0.1410  0.6657
  655TIP3    H1 1971   1.825   2.028   1.342 -0.3332  0.2129  0.4364
  655TIP3    H2 1972   1.936   2.053   1.443 -0.8178 -0.9497  1.2736
  656TIP3   OH2 1973   1.434   0.097   1.211 -0.3368  0.0628 -0.1593
  656TIP3    H1 1974   1.511   0.149   1.190 -0.7138  0.7876  0.2302
  656TIP3    H2 1975   1.365   0.130   1.154 -0.9008  0.8472  0.9547
  657TIP3   OH2 1976   3.652   4.137   4.945 -0.1645  0.4520 -0.1000
  657TIP3    H1 1977   3.619   4.055   4.982 -0.5184  0.3907 -0.5474
  657TIP3    H2 1978   3.741   4.144   4.981 -0.0866 -0.1874 -0.1477
  658TIP3   OH2 1979   6.125   0.682   4.099  0.9143 -0.1003  0.3970
  658TIP3    H1 1980   6.162   0.629   4.028  2.2101  1.8015 -0.4195
  658TIP3    H2 1981   6.166   0.768   4.089 -0.2663  0.7579  2.3542
  659TIP3   OH2 1982   1.777   3.207   1.247 -0.0628  0.0219 -0.4920
  659TIP3    H1 1983   1.686   3.185   1.226  0.2549 -2.1607  0.1615
  659TIP3    H2 1984   1.821   3.209   1.162 -0.1616 -1.9302 -0.6434
  660TIP3   OH2 1985   3.360   4.793   1.037 -0.2753  0.1635  0.3029
  660TIP3    H1 1986   3.355   4.778   0.942  0.4137  1.5514  0.0185
  660TIP3    H2 1987   3.271   4.781   1.068 -0.7659  0.9535 -0.7370
  661TIP3   OH2 1988   4.083   3.258   0.932 -0.0065  0.0628  0.2791
  661TIP3    H1 1989   4.172   3.263   0.967  0.9937 -1.0232 -1.8473
  661TIP3    H2 1990   4.030   3.314   0.989  1.6953 -0.5580  2.5964
  662TIP3   OH2 1991   4.711   2.874   1.894 -0.2514 -0.2359  0.3198
  662TIP3    H1 1992   4.691   2.914   1.979 -1.2163  2.4361 -1.0761
  662TIP3    H2 1993   4.805   2.860   1.896 -0.4697 -2.1092  2.5275
  663TIP3   OH2 1994   4.020   0.706   1.203 -0.0134  0.3286  0.5786
  663TIP3    H1 1995   4.040   0.643   1.134  1.1491 -0.8455  1.9408
  663TIP3    H2 1996   4.010   0.789   1.157 -0.5337 -0.6346 -1.1372
  664TIP3   OH2 1997   0.128   1.683   0.123  0.3118 -0.4259  0.3555
  664TIP3    H1 1998   0.224   1.684   0.119  0.3048  0.5844  0.3176
  664TIP3    H2 1999   0.107   1.709   0.212  0.0685 -0.2494  0.2498
  665TIP3   OH2 2000   3.717   5.930   0.992 -0.0041  0.3780 -0.2947
  665TIP3    H1 2001   3.622   5.937   1.001  0.0022 -0.7453  1.0381
  665TIP3    H2 2002   3.748   6.020   0.989 -1.1640  0.7666 -1.6131
  666TIP3   OH2 2003   5.260   5.761   3.665  0.7260 -0.3191 -0.4269
  666TIP3    H1 2004   5.201   5.772   3.590 -0.4522 -3.4140 -0.0922
  666TIP3    H2 2005   5.272   5.850   3.699 -2.7761  0.6316 -1.2731
  667TIP3   OH2 2006   3.203   5.991   2.056  0.4671 -0.0656 -0.2402
  667TIP3    H1 2007   3.146   5.949   2.120  0.6470  0.5710  0.3409
  667TIP3    H2 2008   3.144   6.019   1.986  0.0908  0.4385  0.2772
  668TIP3   OH2 2009   6.279   0.113   5.135  0.0802 -0.8533  0.2810
  668TIP3    H1 2010   6.199   0.162   5.114 -0.1408 -1.4620 -0.3242
  668TIP3    H2 2011   6.295   0.133   5.227  0.0362  0.4032  0.0352
  669TIP3   OH2 2012   4.529   3.678   0.721  0.0036 -0.0833  0.0023
  669TIP3    H1 2013   4.457   3.707   0.665 -0.1934  1.1042  0.8430
  669TIP3    H2 2014   4.499   3.695   0.810 -0.2578 -3.2123  0.6142
  670TIP3   OH2 2015   1.089   0.155   0.083 -0.2750  0.0681 -0.4358
  670TIP3    H1 2016   1.126   0.156   0.171  1.1687  1.1666 -1.0083
  670TIP3    H2 2017   1.151   0.205   0.030  0.2202 -2.6510 -2.6501
  671TIP3   OH2 2018   4.347   4.999   3.150 -0.0749  0.3262  0.2502
  671TIP3    H1 2019   4.410   5.049   3.201 -0.2309 -0.6873  1.4618
  671TIP3    H2 2020   4.375   4.908   3.158 -2.3069 -0.3177  1.8327
  672TIP3   OH2 2021   2.498   5.656   4.106 -0.0179  0.0146 -0.1149
  672TIP3    H1 2022   2.499   5.746   4.138  1.1099 -0.3393  0.8908
  672TIP3    H2 2023   2.526   5.662   4.014  0.3708  0.6494  0.0459
  673TIP3   OH2 2024   4.241   5.606   0.731  0.3398  0.1859  0.1047
  673TIP3    H1 2025   4.205   5.519   0.719 -0.8649  0.3761  1.9279
  673TIP3    H2 2026   4.175   5.665   0.695 -0.9912  0.5012  2.8195
  674TIP3   OH2 2027   4.699   4.086   2.374 -0.4364 -0.0570  0.2579
  674TIP3    H1 2028   4.753   4.102   2.296 -0.3168 -1.5856  0.0075
  674TIP3    H2 2029   4.716   4.161   2.430 -0.8505  1.3149 -1.3509
  675TIP3   OH2 2030   6.062   2.115   3.460 -0.3371  0.3552  0.0811
  675TIP3    H1 2031   6.088   2.168   3.384 -2.1009 -1.3263 -1.8364
  675TIP3    H2 2032   6.045   2.179   3.529  1.7468  1.9306 -0.7334
  676TIP3   OH2 2033   2.243   1.591   1.141  0.1634  0.2987  0.2067
  676TIP3    H1 2034   2.245   1.520   1.205  0.2843  0.3341  0.2427
  676TIP3    H2 2035   2.315   1.649   1.167 -0.8357  1.2144  1.0763
  677TIP3   OH2 2036   5.462   1.163   3.636 -0.0438 -0.5308  0.3336
  677TIP3    H1 2037   5.498   1.083   3.597  0.6076 -1.1284  2.0263
  677TIP3    H2 2038   5.486   1.157   3.729  1.5031  2.4451  0.2429
  678TIP3   OH2 2039   0.069   1.306   1.283  0.2978 -0.2409  0.5137
  678TIP3    H1 2040  -0.001   1.355   1.240 -0.4316 -0.9203  0.8893
  678TIP3    H2 2041   0.025   1.259   1.354  0.5029 -3.0917 -1.0916
  679TIP3   OH2 2042   5.421   3.986   4.084  0.1443  0.3950  0.2916
  679TIP3    H1 2043   5.489   3.966   4.019  0.1192 -3.0548  1.1260
  679TIP3    H2 2044   5.353   3.920   4.069 -0.6697  0.5880  2.6575
  680TIP3   OH2 2045   2.299   3.086   1.725 -0.3227  0.5846 -0.7219
  680TIP3    H1 2046   2.244   3.008   1.718 -0.7916  0.7880  0.4548
  680TIP3    H2 2047   2.246   3.156   1.687  0.6109  0.1460 -3.0114
  681TIP3   OH2 2048   2.929   3.941   2.031 -0.2362  0.1095 -0.0017
  681TIP3    H1 2049   2.867   4.011   2.012  0.2650  0.9725  1.4017
  681TIP3    H2 2050   2.879   3.860   2.018 -1.2955  0.7613 -0.0612
  682TIP3   OH2 2051   4.634   0.810   0.888  0.1593  0.3115 -0.6536
  682TIP3    H1 2052   4.662   0.783   0.975  0.0852  2.1756 -0.0087
  682TIP3    H2 2053   4.707   0.789   0.831 -0.5944 -2.9213 -0.5931
  683TIP3   OH2 2054   5.541   2.842   1.807 -0.0614 -0.5010  0.5237
  683TIP3    H1 2055   5.632   2.834   1.777  0.4105  1.2211  1.3612
  683TIP3    H2 2056   5.544   2.816   1.899 -0.2670  0.2300  0.7419
  684TIP3   OH2 2057   1.560   4.041   4.874 -0.0813  0.3794  0.0230
  684TIP3    H1 2058   1.532   3.990   4.798  0.8993  0.5373 -0.4531
  684TIP3    H2 2059   1.641   4.083   4.847 -0.1784  1.1481  0.8608
  685TIP3   OH2 2060   0.612   4.710   1.955  0.2298 -0.2608 -0.1207
  685TIP3    H1 2061   0.691   4.731   2.005 -0.7145  3.4896  0.0861
  685TIP3    H2 2062   0.624   4.756   1.872 -2.2779  1.7163  0.4938
  686TIP3   OH2 2063   1.844   3.405   1.023 -0.0593  1.0819  0.1840
  686TIP3    H1 2064   1.893   3.468   1.076  0.2876  0.5443  0.5088
  686TIP3    H2 2065   1.910   3.364   0.968  0.2672 -1.1471  2.0884
  687TIP3   OH2 2066   5.203   1.731   0.462  0.2995  0.3621 -0.6124
  687TIP3    H1 2067   5.275   1.699   0.408  0.9376  1.0510 -0.1784
  687TIP3    H2 2068   5.244   1.758   0.544 -0.7445 -1.4387  0.5904
  688TIP3   OH2 2069   1.837   1.793   1.997  0.2214  0.6718  0.4039
  688TIP3    H1 2070   1.770   1.766   2.060  0.0370  1.0926  0.3924
  688TIP3    H2 2071   1.857   1.884   2.022 -0.6622  1.2335 -0.8337
  689TIP3   OH2 2072   3.044   3.554   2.831 -0.4781  0.0946 -0.2941
  689TIP3    H1 2073   3.019   3.636   2.875 -0.8002 -0.0613 -0.1865
  689TIP3    H2 2074   3.063   3.580   2.741 -0.0745  0.3731 -0.1337
  690TIP3   OH2 2075   2.601   0.579   2.125 -0.0941 -0.3030 -0.6796
  690TIP3    H1 2076   2.537   0.521   2.084 -0.9982  0.3037 -0.1588
  690TIP3    H2 2077   2.593   0.563   2.219  0.7693 -0.4665 -0.6248
  691TIP3   OH2 2078   0.981   4.919   3.810  0.3455 -0.2289  0.7987
  691TIP3    H1 2079   1.026   4.865   3.875 -0.3602 -0.2556  1.2703
  691TIP3    H2 2080   0.898   4.874   3.794  1.0512 -0.9682 -1.1426
  692TIP3   OH2 2081   4.765   0.845   2.956  0.1112  0.1044  0.3783
  692TIP3    H1 2082   4.839   0.901   2.933 -0.3793  0.9879  0.8991
  692TIP3    H2 2083   4.766   0.842   3.052 -1.1724  1.0403  0.4456
  693TIP3   OH2 2084   3.398   0.008   4.800  0.1830 -0.4080 -0.1030
  693TIP3    H1 2085   3.312  -0.033   4.812  0.7897 -1.2146  1.9816
  693TIP3    H2 2086   3.380   0.102   4.804 -0.7022 -0.5496 -0.5112
  694TIP3   OH2 2087   6.176   3.368   4.829  0.4096 -0.1496 -0.5748
  694TIP3    H1 2088   6.149   3.362   4.737 -1.7010  0.7906 -0.0819
  694TIP3    H2 2089   6.239   3.439   4.831  0.6523 -0.3342 -1.3320
  695TIP3   OH2 2090   0.405   3.626   4.825 -0.0809  0.2472 -0.0167
  695TIP3    H1 2091   0.408   3.617   4.920  3.2948 -0.4621 -0.0618
  695TIP3    H2 2092   0.356   3.549   4.795 -0.4952  0.0659  1.0807
  696TIP3   OH2 2093   3.293   3.475   1.593  0.0767 -0.0035  0.1782
  696TIP3    H1 2094   3.290   3.429   1.677  0.7973  2.0877  1.4369
  696TIP3    H2 2095   3.202   3.488   1.570 -0.1343 -0.5903  0.6502
  697TIP3   OH2 2096   4.612   2.909   4.490  0.4500  0.1923 -0.2696
  697TIP3    H1 2097   4.550   2.849   4.531  0.1652  0.1532 -0.7501
  697TIP3    H2 2098   4.593   2.903   4.396 -1.0234  2.6314 -0.1929
  698TIP3   OH2 2099   2.417   2.341   3.262 -0.1440 -0.1600  0.0024
  698TIP3    H1 2100   2.492   2.290   3.232  0.6774  1.8979 -1.7427
  698TIP3    H2 2101   2.418   2.333   3.357  1.7990 -0.8589 -0.0424
  699TIP3   OH2 2102   5.876   0.725   2.414  0.2724 -0.4688  0.2919
  699TIP3    H1 2103   5.898   0.682   2.332  0.2065 -0.6519  0.3703
  699TIP3    H2 2104   5.850   0.654   2.473 -1.4616 -0.1964 -0.0835
  700TIP3   OH2 2105   4.768   4.410   3.690 -0.5017 -0.0303 -0.0082
  700TIP3    H1 2106   4.694   4.404   3.750  0.6395 -2.2063  1.3049
  700TIP3    H2 2107   4.844   4.421   3.747  0.5560 -1.5576 -1.0439
  701TIP3   OH2 2108   2.362   5.854   1.398  0.2746 -0.3065 -0.3202
  701TIP3    H1 2109   2.281   5.829   1.355  0.3548 -0.2967 -0.4786
  701TIP3    H2 2110   2.430   5.839   1.332  0.2946  0.5545 -0.5028
  702TIP3   OH2 2111   3.426   3.088   0.420 -0.0342  0.2736 -0.0214
  702TIP3    H1 2112   3.367   3.137   0.362  0.3388 -1.0556 -1.6313
  702TIP3    H2 2113   3.369   3.023   0.462 -0.3837  1.5071  1.5057
  703TIP3   OH2 2114   3.713   0.218   0.154  0.3936  0.6451  0.3721
  703TIP3    H1 2115   3.640   0.280   0.151 -0.8445 -0.6536  1.6559
  703TIP3    H2 2116   3.712   0.185   0.244  1.7686 -0.3570  0.0463
  704TIP3   OH2 2117   5.045   0.257   0.537 -0.0014 -0.0219  0.2967
  704TIP3    H1 2118   5.104   0.331   0.521  0.7302 -0.6163  0.1951
  704TIP3    H2 2119   5.101   0.180   0.531 -1.1732 -0.8055 -2.2077
  705TIP3   OH2 2120   5.208   2.616   3.092  0.3389  0.0174 -0.1386
  705TIP3    H1 2121   5.248   2.703   3.101  0.9572 -0.2938  0.2281
  705TIP3    H2 2122   5.282   2.558   3.076 -0.0710 -0.4492 -0.3404
  706TIP3   OH2 2123   3.755   3.038   1.326  0.0395 -0.2675  0.1417
  706TIP3    H1 2124   3.820   3.099   1.362 -0.3090  0.4222 -0.3733
  706TIP3    H2 2125   3.729   2.984   1.401  0.1430  0.4040  0.6718
  707TIP3   OH2 2126   3.486   1.371   1.745 -0.2045 -0.1809  0.5238
  707TIP3    H1 2127   3.399   1.353   1.781 -0.6106  0.8521  0.1021
  707TIP3    H2 2128   3.512   1.454   1.785  0.9699 -0.8940  1.3031
  708TIP3   OH2 2129   1.490   0.934   3.186 -0.3566 -0.0497 -0.1960
  708TIP3    H1 2130   1.460   0.922   3.096 -2.1129  0.4189  0.2850
  708TIP3    H2 2131   1.419   0.899   3.239  0.3918  0.2401  1.0225
  709TIP3   OH2 2132   2.620   1.925   4.517 -0.3982  0.4088 -0.2432
  709TIP3    H1 2133   2.577   1.871   4.584 -0.3004 -0.6832 -1.0302
  709TIP3    H2 2134   2.673   1.863   4.467  1.9013  1.6492  0.5089
  710TIP3   OH2 2135   0.711   4.284   0.275  0.3266  0.1748  0.1386
  710TIP3    H1 2136   0.616   4.297   0.278  0.2465 -0.4763  0.5598
  710TIP3    H2 2137   0.744   4.341   0.344  0.1568 -0.2552  0.5850
  711TIP3   OH2 2138   4.904   4.016   0.371  0.0758  0.1967 -0.8390
  711TIP3    H1 2139   4.922   4.086   0.309 -0.8923 -1.0024 -2.5540
  711TIP3    H2 2140   4.827   3.971   0.336 -0.3322 -0.7286  1.0850
  712TIP3   OH2 2141   4.686   5.466   2.419  0.3313  0.2082 -0.4159
  712TIP3    H1 2142   4.618   5.509   2.471 -0.7915 -0.6180 -1.1509
  712TIP3    H2 2143   4.691   5.377   2.455  1.1723  0.3181 -0.2431
  713TIP3   OH2 2144   0.484   3.351   3.012  0.1069  0.6175 -0.1475
  713TIP3    H1 2145   0.548   3.401   3.063  2.2792 -1.9773 -0.0921
  713TIP3    H2 2146   0.416   3.328   3.075  1.1161  0.1584  0.8161
  714TIP3   OH2 2147   1.827   4.760   1.660 -0.0658  0.0249  0.3693
  714TIP3    H1 2148   1.816   4.822   1.588  2.2104 -1.2623 -1.2051
  714TIP3    H2 2149   1.828   4.815   1.738 -2.0646  1.5296 -0.5692
  715TIP3   OH2 2150   0.265   4.493   4.253 -0.4449 -0.5304 -0.3165
  715TIP3    H1 2151   0.230   4.574   4.290  0.5617  0.3108 -1.1323
  715TIP3    H2 2152   0.232   4.492   4.163  1.6216  0.3417 -1.1424
  716TIP3   OH2 2153   5.319   4.806   3.709 -0.3669  0.1191 -0.2838
  716TIP3    H1 2154   5.324   4.740   3.779  0.2634  1.3163  0.8393
  716TIP3    H2 2155   5.242   4.859   3.732 -1.1725 -0.5026 -1.4587
  717TIP3   OH2 2156   4.571   2.277   0.552 -0.1896 -0.0976 -0.5637
  717TIP3    H1 2157   4.655   2.320   0.565  1.0779 -1.9197 -2.1652
  717TIP3    H2 2158   4.509   2.328   0.604  2.3709 -0.3729  3.0898
  718TIP3   OH2 2159   5.938   4.876   4.383 -0.0412 -0.5096 -0.0441
  718TIP3    H1 2160   5.912   4.921   4.464  0.4757  1.6188 -0.9917
  718TIP3    H2 2161   5.876   4.907   4.317 -0.4715 -2.2395 -0.4995
  719TIP3   OH2 2162   6.008   4.722   4.888  0.0470  0.0020 -0.1006
  719TIP3    H1 2163   5.977   4.779   4.958 -1.2787  0.1006 -0.7495
  719TIP3    H2 2164   5.928   4.687   4.848  0.7585 -2.9836  0.8039
  720TIP3   OH2 2165   4.339   3.248   0.016  0.3516  0.0133  0.1236
  720TIP3    H1 2166   4.375   3.299  -0.056 -1.2601  3.2086  1.4254
  720TIP3    H2 2167   4.364   3.295   0.095  0.1591 -2.1391  1.5662
  721TIP3   OH2 2168   4.601   5.423   4.992  0.3250 -0.2442 -0.0941
  721TIP3    H1 2169   4.540   5.352   4.976 -0.6813  0.5861 -0.0192
  721TIP3    H2 2170   4.663   5.387   5.055 -1.1308 -0.5431  1.2202
  722TIP3   OH2 2171   0.579   4.030   0.174 -0.2498  0.4949  0.3517
  722TIP3    H1 2172   0.544   3.950   0.134 -2.0917  0.2676  2.2213
  722TIP3    H2 2173   0.663   4.003   0.212 -0.4933 -0.3414  0.3142
  723TIP3   OH2 2174   6.200   3.480   4.554 -0.1571 -0.2381  0.3042
  723TIP3    H1 2175   6.285   3.519   4.533 -0.3952  0.3862  0.4757
  723TIP3    H2 2176   6.136   3.549   4.533 -0.5079 -0.1569  1.5625
  724TIP3   OH2 2177   5.045   4.605   0.513  0.4395  0.5129  0.0132
  724TIP3    H1 2178   5.050   4.637   0.424 -0.6937  0.9636  0.0964
  724TIP3    H2 2179   5.068   4.680   0.568  0.2216  0.4985  0.1270
  725TIP3   OH2 2180   4.203   0.814   3.589  0.6254 -0.3464 -0.0290
  725TIP3    H1 2181   4.177   0.896   3.632 -2.0315 -1.1536  0.0754
  725TIP3    H2 2182   4.257   0.842   3.515  0.0643  1.4859  0.1947
  726TIP3   OH2 2183   0.636   0.885   1.890 -0.6520 -0.3729 -0.1131
  726TIP3    H1 2184   0.638   0.868   1.984 -0.8899  0.5739  0.0816
  726TIP3    H2 2185   0.672   0.806   1.850 -0.0954 -0.5990  0.8015
  727TIP3   OH2 2186   4.130   3.839   5.146 -0.1220  0.5220  0.1436
  727TIP3    H1 2187   4.133   3.763   5.204  1.6027  0.0116 -0.5386
  727TIP3    H2 2188   4.164   3.911   5.200  0.8491  0.1917  0.0016
  728TIP3   OH2 2189   0.329   5.499   0.348 -0.8731  0.5910  0.2609
  728TIP3    H1 2190   0.277   5.566   0.393 -2.0695  1.4282 -2.1782
  728TIP3    H2 2191   0.319   5.421   0.401 -2.4399  1.4361  1.2870
  729TIP3   OH2 2192   5.862   1.397   5.025  0.0794 -0.2359  0.0138
  729TIP3    H1 2193   5.831   1.353   5.105  0.0921  0.3653  0.3551
  729TIP3    H2 2194   5.797   1.375   4.959 -0.7207  0.4323  0.5498
  730TIP3   OH2 2195   3.843   2.606   1.703  0.2536 -0.0814  0.7772
  730TIP3    H1 2196   3.870   2.515   1.689  2.3416  0.5684  0.2014
  730TIP3    H2 2197   3.777   2.602   1.772 -0.5461 -2.1323 -0.0349
  731TIP3   OH2 2198   1.200   4.182   4.894 -0.7798  0.7223  0.2489
  731TIP3    H1 2199   1.118   4.147   4.859 -1.7610  0.6922  2.4473
  731TIP3    H2 2200   1.177   4.270   4.926  0.1016  0.8133  0.6575
  732TIP3   OH2 2201   1.767   2.428   5.085  0.4118 -0.1003 -0.4582
  732TIP3    H1 2202   1.800   2.493   5.147 -0.1176  0.0253 -0.3029
  732TIP3    H2 2203   1.765   2.474   5.001 -0.4593  0.2612 -0.2530
  733TIP3   OH2 2204   5.981   2.136   3.789  0.0926  0.5186 -0.1956
  733TIP3    H1 2205   6.037   2.161   3.862  1.4934  0.2081 -1.1117
  733TIP3    H2 2206   5.997   2.203   3.722 -1.5412  1.0786 -0.0737
  734TIP3   OH2 2207   0.633   0.835   2.184  0.2663  0.1247  0.1011
  734TIP3    H1 2208   0.666   0.781   2.255  0.1737 -0.1344 -0.0537
  734TIP3    H2 2209   0.581   0.903   2.228 -0.2212 -0.3355  0.2536
  735TIP3   OH2 2210   5.233   1.187   0.498  0.7852  0.3737  0.2772
  735TIP3    H1 2211   5.327   1.203   0.507  0.4238  2.3045  1.1283
  735TIP3    H2 2212   5.221   1.167   0.405  2.1526 -1.0632  0.3611
  736TIP3   OH2 2213   6.208   4.909   0.425  0.1553  0.1368  0.1126
  736TIP3    H1 2214   6.130   4.920   0.480 -0.6875 -0.5203 -0.9053
  736TIP3    H2 2215   6.173   4.891   0.338  1.4627  0.6089 -0.5348
  737TIP3   OH2 2216   3.304   3.544   2.961  0.1205 -0.0703  0.0387
  737TIP3    H1 2217   3.357   3.523   2.884  0.5756  1.4607 -0.0909
  737TIP3    H2 2218   3.347   3.620   3.000 -0.2706 -0.6607  1.6625
  738TIP3   OH2 2219   4.864   5.128   0.831  0.4376 -0.2312 -0.3214
  738TIP3    H1 2220   4.824   5.207   0.867  0.5504 -0.3765  0.1420
  738TIP3    H2 2221   4.791   5.071   0.809  0.3134  0.4205 -1.6746
  739TIP3   OH2 2222   5.809   3.195   0.789 -0.2869  0.1376  0.4982
  739TIP3    H1 2223   5.829   3.288   0.776 -1.2936  0.4042  0.7987
  739TIP3    H2 2224   5.714   3.189   0.777 -0.1412 -0.9831 -0.2704
  740TIP3   OH2 2225   5.349   5.619   1.548  0.0893  0.1341  0.1791
  740TIP3    H1 2226   5.417   5.552   1.554  0.6766  0.8647  2.5866
  740TIP3    H2 2227   5.359   5.655   1.459  3.1707  0.4947  0.5581
  741TIP3   OH2 2228   1.371   3.263   0.166 -0.1014 -0.6612  0.0196
  741TIP3    H1 2229   1.416   3.329   0.112 -0.2340 -1.1035 -0.6440
  741TIP3    H2 2230   1.334   3.313   0.239 -0.4792  0.0635 -0.6500
  742TIP3   OH2 2231   5.600   0.440   1.431 -0.2211  0.3218  0.4920
  742TIP3    H1 2232   5.667   0.379   1.399 -0.4727  0.2939  0.0229
  742TIP3    H2 2233   5.540   0.452   1.358 -0.7163  0.3760  0.9008
  743TIP3   OH2 2234   4.801   2.084   3.152  0.1233  0.5489  0.3707
  743TIP3    H1 2235   4.739   2.012   3.144 -2.2508  2.3713  0.9785
  743TIP3    H2 2236   4.781   2.141   3.077 -0.3837  2.1176  1.6266
  744TIP3   OH2 2237   1.596   5.515   2.805  0.3416 -0.0787  0.2492
  744TIP3    H1 2238   1.581   5.502   2.898 -1.7870 -2.1405 -0.2854
  744TIP3    H2 2239   1.603   5.610   2.794  1.3726  0.1615  2.5560
  745TIP3   OH2 2240   1.896   5.834   3.608 -0.1414 -0.3859 -0.2208
  745TIP3    H1 2241   1.894   5.850   3.514 -0.2574 -0.8345 -0.2952
  745TIP3    H2 2242   1.916   5.741   3.617 -4.1204 -1.3835  0.0972
  746TIP3   OH2 2243   4.731   0.127   1.013  0.3687 -0.0744 -0.0832
  746TIP3    H1 2244   4.763   0.148   1.101 -0.3663  1.5960 -0.1716
  746TIP3    H2 2245   4.717   0.212   0.972  0.1537 -0.8227 -1.6341
  747TIP3   OH2 2246   5.441   3.106   1.740 -0.7975  0.4187 -0.1898
  747TIP3    H1 2247   5.475   3.029   1.786 -1.8279  0.2192  0.2577
  747TIP3    H2 2248   5.378   3.071   1.678 -0.3142  0.7982 -0.9056
  748TIP3   OH2 2249   1.471   3.870   5.092  0.1097 -0.0519  0.3110
  748TIP3    H1 2250   1.462   3.911   5.177  0.2619 -0.1525  0.3759
  748TIP3    H2 2251   1.473   3.943   5.030  0.3777  0.0401  0.4260
  749TIP3   OH2 2252   2.943   0.629   4.172 -0.2425  0.7904 -0.0295
  749TIP3    H1 2253   2.977   0.583   4.095 -0.2220  0.5533  0.1205
  749TIP3    H2 2254   3.014   0.626   4.235  0.0189  1.6461 -0.2668
  750TIP3   OH2 2255   1.781   0.316   1.922  0.4049  0.3056  0.7350
  750TIP3    H1 2256   1.696   0.353   1.945  0.5958  0.2764  1.5059
  750TIP3    H2 2257   1.814   0.374   1.853 -0.2570  0.2875  0.3998
  751TIP3   OH2 2258   3.049   0.344   2.869  0.0380 -0.1639 -0.3887
  751TIP3    H1 2259   3.049   0.365   2.775 -0.1244 -0.4349 -0.4492
  751TIP3    H2 2260   3.082   0.424   2.911  0.5187 -0.1936 -0.7085
  752TIP3   OH2 2261   3.005   5.519   2.984 -0.1658 -0.0530 -0.1577
  752TIP3    H1 2262   2.961   5.521   2.900  0.0829 -1.6424 -0.3672
  752TIP3    H2 2263   2.974   5.438   3.025  0.3552  0.2704  0.9168
  753TIP3   OH2 2264   1.227   4.825   1.767  0.0069  0.6435  0.3033
  753TIP3    H1 2265   1.231   4.855   1.676 -0.7942 -1.7130 -0.5930
  753TIP3    H2 2266   1.315   4.792   1.785 -0.3277 -0.6807 -0.3431
  754TIP3   OH2 2267   4.532   2.201   2.673  0.2370  0.0804 -0.4134
  754TIP3    H1 2268   4.568   2.118   2.640  1.3348  1.0823 -1.9215
  754TIP3    H2 2269   4.438   2.195   2.657  0.1691 -1.2092  0.3323
  755TIP3   OH2 2270   3.207   5.704   0.044  0.0242  0.1902 -0.4786
  755TIP3    H1 2271   3.219   5.727  -0.048 -1.0127  0.6194 -0.5250
  755TIP3    H2 2272   3.159   5.622   0.043  0.1336  0.1229 -0.3192
  756TIP3   OH2 2273   3.363   4.232   2.525 -0.0967  0.2439  0.4028
  756TIP3    H1 2274   3.278   4.196   2.549  1.8076 -5.6635 -0.1326
  756TIP3    H2 2275   3.410   4.239   2.608 -0.0173  0.2648  0.3562
  757TIP3   OH2 2276   3.900   2.469   0.660  0.3087 -0.1924  0.0797
  757TIP3    H1 2277   3.852   2.388   0.677 -1.0847  0.8745  1.5702
  757TIP3    H2 2278   3.906   2.474   0.565 -0.4549 -1.5419 -0.0648
  758TIP3   OH2 2279   6.009   3.560   3.653  0.5404 -0.2909  0.5639
  758TIP3    H1 2280   5.986   3.577   3.562  1.3533  2.5933  0.7888
  758TIP3    H2 2281   6.081   3.621   3.671 -0.4208  0.1450  3.4516
  759TIP3   OH2 2282   5.403   0.697   0.049 -0.2691  0.1674 -0.0543
  759TIP3    H1 2283   5.322   0.659   0.016  1.1580 -2.0660 -1.2364
  759TIP3    H2 2284   5.422   0.648   0.129  0.6288 -0.3363 -0.5640
  760TIP3   OH2 2285   3.045   1.192   3.046  0.1611 -0.0691  0.2400
  760TIP3    H1 2286   3.035   1.151   2.960  0.6617 -0.5702  0.4130
  760TIP3    H2 2287   3.089   1.275   3.029 -0.0771  0.0034 -0.0264
  761TIP3   OH2 2288   4.976   5.120   0.325 -0.9639  0.2450 -0.2571
  761TIP3    H1 2289   4.966   5.211   0.297 -2.4406  0.4756  0.8499
  761TIP3    H2 2290   5.036   5.124   0.399  0.8805 -0.0328 -1.6704
  762TIP3   OH2 2291   1.174   1.545   3.146 -0.2205  0.1047 -0.2997
  762TIP3    H1 2292   1.144   1.467   3.100  0.1115 -0.1040 -0.1664
  762TIP3    H2 2293   1.094   1.585   3.180 -0.6975  1.2290 -2.5236
  763TIP3   OH2 2294   5.050   3.255   0.758  0.2240 -0.0749  0.4439
  763TIP3    H1 2295   5.048   3.330   0.818  1.3309  1.1768 -0.9904
  763TIP3    H2 2296   5.011   3.289   0.677  2.2919 -0.5014 -0.7779
  764TIP3   OH2 2297   0.717   3.424   1.906 -0.0855 -0.3507  0.2052
  764TIP3    H1 2298   0.804   3.385   1.910 -0.9044 -2.3874 -0.6988
  764TIP3    H2 2299   0.700   3.454   1.996  1.3351 -0.3344  0.4919
  765TIP3   OH2 2300   2.406   5.592   1.253 -0.2214  0.1038  0.1964
  765TIP3    H1 2301   2.336   5.547   1.205 -0.3814  0.0161  0.5085
  765TIP3    H2 2302   2.415   5.541   1.334  0.2215  0.0993  0.1451
  766TIP3   OH2 2303   2.644   1.564   1.375  0.0387  0.0546 -0.1687
  766TIP3    H1 2304   2.649   1.595   1.465 -0.9792 -0.2036 -0.0079
  766TIP3    H2 2305   2.725   1.594   1.334  1.2537 -1.1749  1.2373
  767TIP3   OH2 2306   5.441   5.916   0.970  0.3480  0.4678 -0.1671
  767TIP3    H1 2307   5.467   6.007   0.983 -0.0575  0.8434 -1.8124
  767TIP3    H2 2308   5.349   5.920   0.945 -0.6166 -0.6507  2.7439
  768TIP3   OH2 2309   5.390   2.713   2.440  0.1599 -0.0202  0.0849
  768TIP3    H1 2310   5.474   2.684   2.474 -0.2219  0.2793  1.3215
  768TIP3    H2 2311   5.400   2.807   2.427  0.4390 -0.1899 -1.0965
  769TIP3   OH2 2312   5.843   3.679   0.306 -0.4816  0.3501 -0.3320
  769TIP3    H1 2313   5.852   3.733   0.228  1.8838  0.0770 -0.3344
  769TIP3    H2 2314   5.900   3.720   0.371 -0.3257 -0.8943  0.3649
  770TIP3   OH2 2315   3.011   1.210   4.585 -0.7710  0.3109 -0.0336
  770TIP3    H1 2316   2.920   1.199   4.557 -1.6039 -1.7910  3.0320
  770TIP3    H2 2317   3.055   1.130   4.558 -0.1477  0.7754 -0.4068
  771TIP3   OH2 2318   2.419   1.178   0.112 -0.8247 -0.1489  0.0018
  771TIP3    H1 2319   2.511   1.192   0.092 -0.5348 -0.5488  0.9910
  771TIP3    H2 2320   2.372   1.206   0.033  0.1141  0.3816 -0.3785
  772TIP3   OH2 2321   5.400   2.602   4.006 -0.3545 -0.7503 -0.2256
  772TIP3    H1 2322   5.447   2.648   3.936  0.6865 -0.4889  0.6353
  772TIP3    H2 2323   5.403   2.510   3.981 -1.9123 -0.4813 -1.6400
  773TIP3   OH2 2324   3.598   3.623   1.654  0.5799  0.4927  0.5328
  773TIP3    H1 2325   3.518   3.624   1.601  2.1091  0.9035 -1.9337
  773TIP3    H2 2326   3.581   3.685   1.725 -1.3350  0.4478  0.1532
  774TIP3   OH2 2327   5.576   2.420   0.586  0.3941  0.4168 -0.0574
  774TIP3    H1 2328   5.654   2.395   0.537 -0.6956 -0.5947 -1.3417
  774TIP3    H2 2329   5.503   2.378   0.540 -0.7156 -0.5593  2.3567
  775TIP3   OH2 2330   2.286   0.933   4.311  0.2905 -0.0757 -0.0239
  775TIP3    H1 2331   2.207   0.882   4.330  1.5226 -2.9051 -1.8115
  775TIP3    H2 2332   2.255   1.002   4.252 -1.3592  1.1557  2.1237
  776TIP3   OH2 2333   1.722   2.715   1.746  0.2606  0.2479 -0.0331
  776TIP3    H1 2334   1.645   2.728   1.689 -0.2768 -0.5611  0.4982
  776TIP3    H2 2335   1.757   2.803   1.758 -1.0214  0.7284  0.3193
  777TIP3   OH2 2336   0.902   3.516   3.938  0.3839  0.3193 -0.2224
  777TIP3    H1 2337   0.932   3.606   3.954 -0.5313  0.7660 -0.9616
  777TIP3    H2 2338   0.963   3.482   3.873  0.1392  0.7448 -0.6776
  778TIP3   OH2 2339   6.372   2.966   1.539 -0.2060 -0.6316  0.2990
  778TIP3    H1 2340   6.297   2.923   1.498 -0.2909 -0.4182  0.2264
  778TIP3    H2 2341   6.380   2.925   1.625  0.3513 -1.5247 -0.1571
  779TIP3   OH2 2342   0.321   4.429   3.924  0.1193  0.3936  0.0881
  779TIP3    H1 2343   0.388   4.394   3.866  0.9743  0.4855  0.9918
  779TIP3    H2 2344   0.255   4.467   3.866  0.3213 -0.6454 -0.8358
  780TIP3   OH2 2345   4.303   3.124   3.788 -1.0619 -0.3355  0.1349
  780TIP3    H1 2346   4.328   3.095   3.700 -1.3265  0.7498 -0.3129
  780TIP3    H2 2347   4.288   3.043   3.836  0.0928 -0.9702 -0.5178
  781TIP3   OH2 2348   6.147   0.399   2.553  0.0162  0.0687 -0.0144
  781TIP3    H1 2349   6.111   0.461   2.616  2.4036  0.3412  1.1849
  781TIP3    H2 2350   6.133   0.313   2.594  0.7950  0.1873  0.5353
  782TIP3   OH2 2351   4.975   1.083   0.735  0.3496  0.1332 -0.8807
  782TIP3    H1 2352   4.964   1.176   0.717 -1.6853  0.4218  1.2998
  782TIP3    H2 2353   5.069   1.068   0.731  0.8508  2.5959  0.0667
  783TIP3   OH2 2354   0.190   5.217   4.625 -0.0457 -0.2552  0.5055
  783TIP3    H1 2355   0.161   5.230   4.534  1.1507 -0.9808 -0.0021
  783TIP3    H2 2356   0.154   5.292   4.673 -2.4906 -0.9400 -0.1296
  784TIP3   OH2 2357   3.111   0.785   2.768 -0.2741  0.0338 -0.4322
  784TIP3    H1 2358   3.024   0.822   2.755 -0.9877 -0.9898  1.1185
  784TIP3    H2 2359   3.119   0.716   2.702  0.4728  1.8590 -2.3442
  785TIP3   OH2 2360   4.883   4.461   0.698 -0.1606  0.3455  0.1753
  785TIP3    H1 2361   4.848   4.388   0.749  1.4431  0.5037  1.5727
  785TIP3    H2 2362   4.916   4.421   0.618 -0.5284 -0.2612  0.3221
  786TIP3   OH2 2363   4.485   3.950   4.991 -0.5699 -0.0998  0.1566
  786TIP3    H1 2364   4.500   3.910   5.077 -0.0532 -0.5731 -0.1525
  786TIP3    H2 2365   4.566   3.997   4.972  0.1621 -1.7254 -1.0047
  787TIP3   OH2 2366   1.474   5.777   0.206  0.4668  0.0792  0.3863
  787TIP3    H1 2367   1.466   5.851   0.267 -1.4161  0.0348  0.2723
  787TIP3    H2 2368   1.477   5.817   0.120  0.7982  0.0716  0.3956
  788TIP3   OH2 2369   1.054   0.893   3.796  0.0376  0.1441  0.8480
  788TIP3    H1 2370   1.113   0.968   3.811 -0.6310  0.6662  0.9020
  788TIP3    H2 2371   0.974   0.915   3.843 -0.3831 -0.3365  0.3762
  789TIP3   OH2 2372   2.068   2.556   2.064  0.2136 -0.2886 -0.3390
  789TIP3    H1 2373   1.999   2.611   2.026 -0.7743 -0.2575  1.4055
  789TIP3    H2 2374   2.149   2.603   2.046 -0.5546  1.5546  0.6795
  790TIP3   OH2 2375   3.605   5.451   2.593 -0.3413  0.0153 -0.9130
  790TIP3    H1 2376   3.547   5.386   2.632  0.4945 -0.7503 -0.9082
  790TIP3    H2 2377   3.687   5.404   2.580  0.7626  1.4496  0.4726
  791TIP3   OH2 2378   0.071   1.484   2.977  0.6297 -0.1653 -0.0667
  791TIP3    H1 2379   0.111   1.430   3.045  1.2127  1.1614  0.6697
  791TIP3    H2 2380   0.021   1.422   2.924  3.0921 -1.8082 -0.6254
  792TIP3   OH2 2381   1.881   2.722   4.070  0.2540 -0.0556  0.0519
  792TIP3    H1 2382   1.930   2.785   4.017  1.3534 -0.4792  0.5419
  792TIP3    H2 2383   1.790   2.749   4.060  0.4337 -0.0808 -1.9993
  793TIP3   OH2 2384   1.150   1.344   1.874  0.1815 -0.4444  0.2091
  793TIP3    H1 2385   1.161   1.434   1.843 -1.7562 -0.5534 -1.0210
  793TIP3    H2 2386   1.237   1.305   1.868  0.7448  0.8894 -0.8125
  794TIP3   OH2 2387   1.928   0.435   2.311 -0.1121 -0.2134  0.2474
  794TIP3    H1 2388   1.854   0.493   2.293 -0.4898 -0.7623  0.0021
  794TIP3    H2 2389   1.945   0.391   2.227 -0.9678 -1.7495  0.8227
  795TIP3   OH2 2390   1.933   3.568   0.056 -0.0837  0.0063 -0.3184
  795TIP3    H1 2391   1.963   3.571   0.147 -1.2426  0.8331  0.0498
  795TIP3    H2 2392   1.928   3.659   0.029  1.3535 -0.2647 -1.6073
  796TIP3   OH2 2393   5.980   3.894   0.434 -0.0112  0.0241 -0.4482
  796TIP3    H1 2394   6.037   3.968   0.416  0.2952 -0.0090  0.3333
  796TIP3    H2 2395   5.938   3.915   0.518 -1.7416  0.3939 -1.3651
  797TIP3   OH2 2396   3.177   5.575   0.668 -0.2469  0.4056 -0.0671
  797TIP3    H1 2397   3.147   5.578   0.759 -2.7907 -1.8906 -0.6827
  797TIP3    H2 2398   3.200   5.483   0.654  1.1926  0.9479 -1.4598
  798TIP3   OH2 2399   3.468   0.600   0.338  0.0495  0.0252  0.7218
  798TIP3    H1 2400   3.508   0.607   0.425  0.4757  0.5865  0.4915
  798TIP3    H2 2401   3.514   0.666   0.285 -0.9052  0.4087  0.3385
  799TIP3   OH2 2402   3.999   2.064   2.586  0.2155  0.2997  0.1809
  799TIP3    H1 2403   3.965   2.074   2.498 -0.5602 -1.6457  0.2115
  799TIP3    H2 2404   3.936   2.109   2.642  0.2414  0.7710 -0.1656
  800TIP3   OH2 2405   1.229   4.736   3.240 -0.1407  0.1339  0.3436
  800TIP3    H1 2406   1.297   4.803   3.247 -0.8783  1.0343 -0.8407
  800TIP3    H2 2407   1.146   4.784   3.246 -0.6861 -0.7426  0.0278
  801TIP3   OH2 2408   2.525   1.990   3.015  0.3126 -0.9184 -0.3922
  801TIP3    H1 2409   2.537   1.903   2.975  0.1053 -1.4075  0.5678
  801TIP3    H2 2410   2.470   1.973   3.091 -0.6927  0.2378 -0.8253
  802TIP3   OH2 2411   2.555   0.740   1.297 -0.3193  0.0017 -0.2644
  802TIP3    H1 2412   2.587   0.653   1.272 -0.8416 -0.1443 -0.4312
  802TIP3    H2 2413   2.469   0.724   1.336  0.0560  0.3336  0.7279
  803TIP3   OH2 2414   1.743   2.226   0.424 -0.2753 -0.3301 -0.5321
  803TIP3    H1 2415   1.694   2.154   0.384 -1.6331  0.5349 -0.4802
  803TIP3    H2 2416   1.702   2.305   0.390 -0.4582  0.4255  1.3086
  804TIP3   OH2 2417   3.261   3.090   0.069  0.2231  0.1291 -0.2063
  804TIP3    H1 2418   3.311   3.039   0.005  0.0875 -0.3457  0.0582
  804TIP3    H2 2419   3.173   3.095   0.033  0.0157 -0.5824  0.1787
  805TIP3   OH2 2420   4.077   4.700   1.306 -0.4132 -0.0638 -0.4267
  805TIP3    H1 2421   4.035   4.762   1.366  1.2301 -0.8443  1.6999
  805TIP3    H2 2422   4.008   4.640   1.280 -0.9904 -0.4682  1.8109
  806TIP3   OH2 2423   5.441   1.704   2.189 -0.0581 -0.1521  0.6235
  806TIP3    H1 2424   5.351   1.736   2.185 -1.1282 -2.8414  1.2100
  806TIP3    H2 2425   5.457   1.667   2.103  0.4205  0.0960  0.6035
  807TIP3   OH2 2426   5.003   1.675   4.920  0.1965 -0.6051  0.5276
  807TIP3    H1 2427   4.924   1.628   4.948  0.3704 -1.1295  0.1590
  807TIP3    H2 2428   5.038   1.622   4.848  1.0925 -0.5804  0.9367
  808TIP3   OH2 2429   3.304   3.157   3.746  0.6359  1.0240  0.1481
  808TIP3    H1 2430   3.384   3.113   3.717  0.6589 -0.0641  1.7977
  808TIP3    H2 2431   3.332   3.210   3.821 -0.3546 -0.2057  1.4278
  809TIP3   OH2 2432   2.542   5.397   3.842  0.0345 -0.5644 -0.1413
  809TIP3    H1 2433   2.516   5.306   3.828 -0.0429 -0.4425 -0.8544
  809TIP3    H2 2434   2.460   5.446   3.845  0.0631 -0.5591  0.5663
  810TIP3   OH2 2435   2.726   0.144   3.342  0.1636  0.4164 -0.1164
  810TIP3    H1 2436   2.792   0.157   3.410  0.0279  0.7072 -0.0392
  810TIP3    H2 2437   2.662   0.085   3.382  0.9974 -0.8722 -0.6159
  811TIP3   OH2 2438   4.794   2.576   0.302 -0.1799 -0.4402  0.1689
  811TIP3    H1 2439   4.703   2.584   0.271 -0.3500  1.6086  1.0484
  811TIP3    H2 2440   4.788   2.520   0.379 -1.0069  1.0617  1.2449
  812TIP3   OH2 2441   5.786   1.342   0.564  0.0419 -0.7578 -0.4691
  812TIP3    H1 2442   5.828   1.274   0.618 -0.1652 -0.3109  0.2630
  812TIP3    H2 2443   5.850   1.361   0.495  0.1824 -1.5551 -0.5711
  813TIP3   OH2 2444   5.422   3.406   4.408 -0.2429 -0.2389 -0.0935
  813TIP3    H1 2445   5.370   3.337   4.367  0.1109 -0.7523  0.3014
  813TIP3    H2 2446   5.496   3.420   4.348 -1.6583  1.6711 -1.5066
  814TIP3   OH2 2447   1.753   1.889   1.213 -0.0514  0.0460 -0.3769
  814TIP3    H1 2448   1.675   1.872   1.265  1.3351  2.4598  2.8501
  814TIP3    H2 2449   1.822   1.837   1.255  0.4422 -1.0904 -2.4151
  815TIP3   OH2 2450   0.357   3.638   2.074  0.2961 -0.2779  0.4928
  815TIP3    H1 2451   0.350   3.574   2.003  0.9310  0.1554  0.0340
  815TIP3    H2 2452   0.317   3.594   2.149  2.3094 -1.9604  0.6904
  816TIP3   OH2 2453   5.957   1.708   2.788  0.2666  0.5310 -0.4640
  816TIP3    H1 2454   5.983   1.638   2.848 -0.7467 -0.8427 -1.5568
  816TIP3    H2 2455   5.878   1.744   2.827  1.0215  1.3918  0.3195
  817TIP3   OH2 2456   3.489   5.257   0.670 -0.3163  0.2697 -0.2562
  817TIP3    H1 2457   3.569   5.293   0.709  0.2709 -0.1146 -1.0846
  817TIP3    H2 2458   3.514   5.233   0.581 -1.1675 -0.5213 -0.2978
  818TIP3   OH2 2459   1.459   5.007   5.031  0.3417  0.4352 -0.3690
  818TIP3    H1 2460   1.522   5.070   4.996  1.7409 -1.1710 -0.8987
  818TIP3    H2 2461   1.457   4.937   4.966 -1.9991  0.3810 -0.3397
  819TIP3   OH2 2462   1.824   4.295   3.580  0.2045  0.0892  0.5543
  819TIP3    H1 2463   1.877   4.220   3.606 -0.0481 -0.4385 -0.4049
  819TIP3    H2 2464   1.795   4.334   3.663  0.7121 -0.6020  1.0651
  820TIP3   OH2 2465   6.306   1.396   1.609  0.4236  0.0871  0.1054
  820TIP3    H1 2466   6.381   1.352   1.650  0.8215  0.3420 -0.3465
  820TIP3    H2 2467   6.305   1.483   1.649  0.2201  0.0040  0.2857
  821TIP3   OH2 2468   1.106   1.130   0.071  0.1721  0.0289  0.4056
  821TIP3    H1 2469   1.087   1.086   0.155 -1.3669  1.1180  0.6781
  821TIP3    H2 2470   1.096   1.061   0.006 -1.2541 -0.2917  0.9114
  822TIP3   OH2 2471   5.895   2.211   0.260  0.3038 -0.5448 -0.2084
  822TIP3    H1 2472   5.977   2.255   0.239  0.7467 -1.0928  0.3319
  822TIP3    H2 2473   5.841   2.223   0.182  0.4716  0.7883 -0.1371
  823TIP3   OH2 2474   2.717   4.460   2.550  0.1329  0.2571 -0.4327
  823TIP3    H1 2475   2.807   4.463   2.585 -0.3679  3.7104  0.9367
  823TIP3    H2 2476   2.667   4.417   2.620  0.3476  0.3648 -0.2082
  824TIP3   OH2 2477   3.928   2.712   3.211 -0.3787  0.1423 -0.3697
  824TIP3    H1 2478   3.884   2.782   3.260 -0.3652  0.8710 -1.3677
  824TIP3    H2 2479   3.960   2.652   3.279 -1.0801  0.6842  0.4707
  825TIP3   OH2 2480   4.481   5.565   3.866 -0.6088 -0.7495 -0.1811
  825TIP3    H1 2481   4.422   5.633   3.897  1.1418  0.8091 -0.1291
  825TIP3    H2 2482   4.509   5.595   3.779 -0.2626 -1.6907 -0.4080
  826TIP3   OH2 2483   0.813   2.458   4.414 -0.0536  0.2870  0.2307
  826TIP3    H1 2484   0.727   2.463   4.371 -1.1926 -1.6550  2.0799
  826TIP3    H2 2485   0.875   2.455   4.341 -1.6600  0.1552 -1.2154
  827TIP3   OH2 2486   3.084   4.608   3.110 -0.4920 -0.4108 -0.0619
  827TIP3    H1 2487   3.015   4.641   3.167 -0.1855 -0.0621  0.1125
  827TIP3    H2 2488   3.042   4.540   3.057 -0.8347 -0.5755  0.4163
  828TIP3   OH2 2489   5.191   2.790   1.022 -0.2567 -0.0163 -0.1530
  828TIP3    H1 2490   5.115   2.768   1.077  0.3060  2.0079  1.5966
  828TIP3    H2 2491   5.256   2.825   1.084  0.8538  1.3376 -1.9700
  829TIP3   OH2 2492   3.838   3.693   5.105  0.0344  0.2752 -0.2005
  829TIP3    H1 2493   3.919   3.733   5.075 -0.6458  2.0353  0.1998
  829TIP3    H2 2494   3.857   3.599   5.107  1.8456  0.5935 -0.7079
  830TIP3   OH2 2495   2.221   3.565   3.963  0.3341  0.3949  0.5358
  830TIP3    H1 2496   2.158   3.614   4.016  1.6390 -0.4524  3.0182
  830TIP3    H2 2497   2.278   3.632   3.926  0.0309  0.9788  1.0981
  831TIP3   OH2 2498   2.958   0.095   3.535  0.2228  0.3539 -0.2562
  831TIP3    H1 2499   2.907   0.070   3.612 -0.5929  0.5418 -0.7253
  831TIP3    H2 2500   3.019   0.022   3.522 -0.9565 -0.6106 -0.5816
  832TIP3   OH2 2501   2.598   0.059   1.275 -0.1613  0.3296 -0.3021
  832TIP3    H1 2502   2.658   0.110   1.220  0.6912 -1.0322 -0.6903
  832TIP3    H2 2503   2.607   0.098   1.362  2.1144 -0.4609 -0.1140
  833TIP3   OH2 2504   1.262   2.280   1.750 -0.1579  0.1122 -0.2142
  833TIP3    H1 2505   1.356   2.265   1.742 -0.3094 -1.3821  0.5178
  833TIP3    H2 2506   1.234   2.307   1.662  0.7733 -0.4720 -0.7059
  834TIP3   OH2 2507   5.515   2.784   3.858  0.3231  0.7817 -0.8141
  834TIP3    H1 2508   5.499   2.878   3.864 -0.7489  0.5781 -0.2478
  834TIP3    H2 2509   5.482   2.760   3.772  0.0067  0.8187 -0.7046
  835TIP3   OH2 2510   0.772   3.799   4.659 -0.8029  0.1095  0.0522
  835TIP3    H1 2511   0.696   3.741   4.665 -0.5099 -0.2283  0.5414
  835TIP3    H2 2512   0.797   3.815   4.750 -0.1605  0.0504 -0.1124
  836TIP3   OH2 2513   0.952   1.837   3.846  0.3102  0.1418 -0.0695
  836TIP3    H1 2514   0.998   1.832   3.762 -0.3809  0.5638 -0.4893
  836TIP3    H2 2515   0.871   1.884   3.825 -0.3307 -0.6346  0.6384
  837TIP3   OH2 2516   4.563   1.955   2.530 -0.0630 -0.1283  0.1254
  837TIP3    H1 2517   4.651   1.965   2.493 -0.8122 -1.7001 -2.3453
  837TIP3    H2 2518   4.506   2.002   2.469 -0.9392  1.4613  2.0626
  838TIP3   OH2 2519   4.949   0.551   4.506  0.1071 -0.1664 -0.2680
  838TIP3    H1 2520   4.993   0.623   4.462  0.5991 -0.0268  0.4419
  838TIP3    H2 2521   4.951   0.574   4.598 -1.7995  0.0324 -0.2411
  839TIP3   OH2 2522   5.244   1.511   4.968 -0.1730 -0.1437  0.2600
  839TIP3    H1 2523   5.243   1.461   4.887 -0.0267  0.2177  0.0289
  839TIP3    H2 2524   5.282   1.452   5.033  1.9586  0.3364 -0.4746
  840TIP3   OH2 2525   0.902   2.810   4.183 -0.1225 -0.4323 -0.0823
  840TIP3    H1 2526   0.972   2.778   4.240 -1.9218 -2.5272  1.0913
  840TIP3    H2 2527   0.885   2.738   4.123 -0.6144  0.4528 -1.0434
  841TIP3   OH2 2528   1.314   2.630   1.245  0.2954  0.1388  0.7499
  841TIP3    H1 2529   1.275   2.624   1.333 -0.8106 -2.5579  0.1440
  841TIP3    H2 2530   1.264   2.570   1.192  2.1179  0.3519 -1.3507
  842TIP3   OH2 2531   4.975   0.247   3.474  1.1070  0.4502  0.2439
  842TIP3    H1 2532   5.019   0.205   3.548 -2.6650 -2.8549  0.9663
  842TIP3    H2 2533   4.897   0.288   3.512  0.6431  1.3421 -1.5466
  843TIP3   OH2 2534   1.031   4.764   3.588 -0.1880 -0.5599  0.5740
  843TIP3    H1 2535   1.017   4.836   3.650 -1.4140 -0.3493  0.0823
  843TIP3    H2 2536   0.955   4.707   3.600 -0.2320 -0.7282 -0.4268
  844TIP3   OH2 2537   4.195   5.715   5.138  0.4938  0.3159  0.2737
  844TIP3    H1 2538   4.248   5.644   5.173  3.4951  2.4927  0.4891
  844TIP3    H2 2539   4.158   5.758   5.215 -0.2997 -0.2128  0.2037
  845TIP3   OH2 2540   4.432   2.781   1.784  0.0082 -0.0665 -0.3580
  845TIP3    H1 2541   4.509   2.749   1.830 -0.4376  0.1495  0.5482
  845TIP3    H2 2542   4.421   2.720   1.710  0.2601 -0.8868  0.2694
  846TIP3   OH2 2543   2.967   1.746   4.529 -0.4219  0.2427  0.0603
  846TIP3    H1 2544   2.980   1.651   4.525 -1.2263  0.1751 -1.3222
  846TIP3    H2 2545   2.935   1.761   4.618  3.5669 -0.2213  1.8018
  847TIP3   OH2 2546   4.225   4.893   0.646 -0.4513  0.4924 -0.1831
  847TIP3    H1 2547   4.253   4.880   0.555  1.4761 -2.4053  0.6651
  847TIP3    H2 2548   4.132   4.869   0.647  0.0216 -1.5990 -1.0891
  848TIP3   OH2 2549   5.974   1.013   3.857  0.2645 -0.5860 -0.4551
  848TIP3    H1 2550   5.916   1.012   3.933 -0.2600  0.7242 -0.8066
  848TIP3    H2 2551   5.918   0.987   3.784  0.8350 -2.1119 -0.3677
  849TIP3   OH2 2552   5.701   5.670   2.104 -0.0025  1.0308 -0.0503
  849TIP3    H1 2553   5.685   5.643   2.195  0.1908  0.3712 -0.2096
  849TIP3    H2 2554   5.645   5.747   2.092 -0.6857  0.6130  0.3662
  850TIP3   OH2 2555   5.249   2.600   4.534 -0.3194 -0.0104  0.3912
  850TIP3    H1 2556   5.329   2.605   4.586 -0.4568 -2.2427  0.9124
  850TIP3    H2 2557   5.178   2.620   4.595 -0.3270 -0.5189  0.5526
  851TIP3   OH2 2558   1.246   0.872   2.296 -0.1533  0.4442  0.5544
  851TIP3    H1 2559   1.230   0.879   2.201  1.2534 -0.1235  0.2570
  851TIP3    H2 2560   1.275   0.959   2.322 -0.0539  0.4694  0.3605
  852TIP3   OH2 2561   1.331   1.886   3.739  0.1398 -0.2791  0.3665
  852TIP3    H1 2562   1.373   1.824   3.800 -2.2779 -2.0996  0.3261
  852TIP3    H2 2563   1.238   1.864   3.743 -0.3377  0.8200 -2.5741
  853TIP3   OH2 2564   3.295   5.507   2.627  0.2199 -0.2029  0.1145
  853TIP3    H1 2565   3.316   5.575   2.690  0.2651  0.9409 -1.1029
  853TIP3    H2 2566   3.284   5.428   2.680 -1.9334  1.1375  1.8123
  854TIP3   OH2 2567   3.071   5.465   1.753  0.2571  0.2092 -0.1311
  854TIP3    H1 2568   3.068   5.460   1.657 -0.4768  0.2036 -0.1169
  854TIP3    H2 2569   3.048   5.556   1.773 -1.9722 -0.3323  0.0938
  855TIP3   OH2 2570   6.280   0.587   2.376  0.4022  0.3445 -0.1340
  855TIP3    H1 2571   6.209   0.531   2.407  0.4300  0.0025 -0.6694
  855TIP3    H2 2572   6.239   0.671   2.359 -0.3107 -0.3670 -2.2647
  856TIP3   OH2 2573   3.279   1.703   4.606 -0.2473 -0.4206  0.6104
  856TIP3    H1 2574   3.268   1.674   4.516  1.4750 -0.1297  0.2694
  856TIP3    H2 2575   3.369   1.735   4.610 -0.5193  0.2441  2.2531
  857TIP3   OH2 2576   0.882   4.535   1.798 -0.5092 -0.1250  0.4433
  857TIP3    H1 2577   0.896   4.630   1.805  2.6362 -0.5116  0.6591
  857TIP3    H2 2578   0.952   4.505   1.741 -1.7860 -2.3048 -0.0770
  858TIP3   OH2 2579   0.184   5.803   4.684 -0.0243  0.5083  0.4465
  858TIP3    H1 2580   0.219   5.759   4.606  0.2299 -0.7586  1.2537
  858TIP3    H2 2581   0.231   5.886   4.687  2.1249 -0.6456  0.8512
  859TIP3   OH2 2582   2.074   4.938   4.401  0.4081  0.6913  0.1341
  859TIP3    H1 2583   2.142   4.875   4.424 -0.4041 -0.0325  0.6204
  859TIP3    H2 2584   2.068   4.934   4.306 -0.8277 -1.2888  0.2447
  860TIP3   OH2 2585   4.111   0.815   2.552  0.0617  0.2902  0.0029
  860TIP3    H1 2586   4.146   0.778   2.633  1.1504 -0.0707 -0.5998
  860TIP3    H2 2587   4.114   0.742   2.490 -1.0683  0.4725 -0.2876
  861TIP3   OH2 2588   5.979   2.522   1.926 -0.5705  1.0818 -0.0442
  861TIP3    H1 2589   6.024   2.539   1.843  1.3253  1.1153  0.9202
  861TIP3    H2 2590   6.049   2.494   1.985 -1.5433  2.7573  2.0337
  862TIP3   OH2 2591   3.633   2.062   1.816  0.0101  1.0534 -0.0826
  862TIP3    H1 2592   3.697   2.047   1.747 -0.0905  1.4037 -0.2530
  862TIP3    H2 2593   3.559   2.005   1.793  0.2253  0.7050  0.0744
  863TIP3   OH2 2594   0.009   4.946   0.080  0.3653 -0.5111 -0.1277
  863TIP3    H1 2595  -0.031   4.905   0.156  1.5873 -1.7381 -0.1034
  863TIP3    H2 2596   0.070   4.880   0.046 -0.3428 -0.1202 -2.3486
  864TIP3   OH2 2597   2.143   1.464   3.436  0.2149 -0.0834  0.4444
  864TIP3    H1 2598   2.074   1.430   3.493  0.8235  0.9422  1.8595
  864TIP3    H2 2599   2.166   1.391   3.379 -1.5402 -0.6554  0.4092
  865TIP3   OH2 2600   0.040   3.891   2.662 -0.2151 -0.7847  0.1716
  865TIP3    H1 2601  -0.047   3.853   2.663  0.0450 -1.3813  0.9687
  865TIP3    H2 2602   0.025   3.985   2.652 -0.8547 -1.0832 -2.2853
  866TIP3   OH2 2603   1.615   5.170   1.495 -0.0233 -0.4260  0.1112
  866TIP3    H1 2604   1.567   5.237   1.447 -0.6578 -1.9533 -1.5127
  866TIP3    H2 2605   1.669   5.219   1.557 -0.8032  1.5424 -0.6745
  867TIP3   OH2 2606   3.980   0.163   4.389 -0.2077  0.5996  0.3189
  867TIP3    H1 2607   4.036   0.096   4.350 -1.0677 -1.0969  1.8046
  867TIP3    H2 2608   3.960   0.224   4.318  2.1765  0.3750 -0.6203
  868TIP3   OH2 2609   0.702   1.500   4.285  0.0817  0.1093  0.3258
  868TIP3    H1 2610   0.642   1.570   4.310 -0.3441 -0.2557  0.3490
  868TIP3    H2 2611   0.779   1.513   4.340 -1.3485 -1.4844  2.9069
  869TIP3   OH2 2612   2.587   1.359   4.378  0.4014  0.7849 -0.0199
  869TIP3    H1 2613   2.499   1.363   4.415  0.3711  1.3741 -0.1444
  869TIP3    H2 2614   2.635   1.430   4.421  1.1607 -0.2566  0.8963
  870TIP3   OH2 2615   4.317   5.111   0.159  1.0648  0.3741  0.1123
  870TIP3    H1 2616   4.271   5.158   0.090  0.1314 -0.0283  0.4484
  870TIP3    H2 2617   4.398   5.160   0.172  0.7579  1.0590 -0.5261
  871TIP3   OH2 2618   0.302   1.584   3.779  0.7394 -0.0551  0.0133
  871TIP3    H1 2619   0.280   1.520   3.711  1.6110 -0.0682 -0.2658
  871TIP3    H2 2620   0.260   1.551   3.858  0.4016 -0.4751 -0.3386
  872TIP3   OH2 2621   4.814   4.673   4.467 -0.0544 -0.2486  0.3913
  872TIP3    H1 2622   4.838   4.652   4.557 -1.7449 -0.2384  0.8645
  872TIP3    H2 2623   4.807   4.769   4.465 -2.5033 -0.3613  0.9557
  873TIP3   OH2 2624   3.342   3.142   4.479  0.0084  0.0240 -0.6094
  873TIP3    H1 2625   3.295   3.069   4.438  0.2956  0.0159 -0.9283
  873TIP3    H2 2626   3.272   3.201   4.509 -0.2318 -0.5165 -0.0892
  874TIP3   OH2 2627   5.879   2.707   4.051 -0.0140 -0.1033 -0.6787
  874TIP3    H1 2628   5.884   2.611   4.049 -2.6214 -0.3194 -0.5515
  874TIP3    H2 2629   5.954   2.736   4.000  1.2645 -2.1896 -0.0930
  875TIP3   OH2 2630   2.604   1.422   2.022  0.5979  0.4333  0.0802
  875TIP3    H1 2631   2.549   1.475   2.080  1.7918  0.3420  1.3564
  875TIP3    H2 2632   2.626   1.344   2.073  2.3603  0.7260 -0.1405
  876TIP3   OH2 2633   1.181   0.193   3.217  0.1679  0.1707 -0.0041
  876TIP3    H1 2634   1.097   0.151   3.237  0.9831 -0.8564  1.3965
  876TIP3    H2 2635   1.161   0.252   3.145 -1.7725 -0.0270  0.3177
  877TIP3   OH2 2636   2.755   1.832   3.331 -0.2913  0.1661 -0.0299
  877TIP3    H1 2637   2.669   1.805   3.301 -0.5980  0.9996  0.0744
  877TIP3    H2 2638   2.741   1.866   3.419 -0.3100  2.4541 -0.8250
  878TIP3   OH2 2639   5.346   5.171   1.780 -1.0717 -0.3756  0.0818
  878TIP3    H1 2640   5.310   5.086   1.804  0.6126 -1.0727  0.2979
  878TIP3    H2 2641   5.424   5.150   1.729 -0.2647  1.0300  0.6765
  879TIP3   OH2 2642   2.691   1.869   2.453  0.1270 -0.4059 -0.5709
  879TIP3    H1 2643   2.633   1.888   2.527 -0.8536 -2.9298 -0.5549
  879TIP3    H2 2644   2.668   1.934   2.386 -2.3800 -0.9297 -0.3311
  880TIP3   OH2 2645   1.991   4.043   5.025 -0.5013  0.0699  0.1573
  880TIP3    H1 2646   2.049   4.035   5.100 -0.8943  0.6801  0.5335
  880TIP3    H2 2647   2.004   4.133   4.994 -0.4601 -0.1243 -0.4061
  881TIP3   OH2 2648   3.451   4.630   3.352  0.0780 -0.1127  0.3821
  881TIP3    H1 2649   3.381   4.567   3.336 -0.8255  0.5451  1.5741
  881TIP3    H2 2650   3.529   4.576   3.364 -0.5965 -0.9858  0.9573
  882TIP3   OH2 2651   0.090   5.908   4.175 -0.1078 -0.0971  0.0989
  882TIP3    H1 2652   0.159   5.900   4.109  0.5931 -2.5960  1.0207
  882TIP3    H2 2653   0.086   5.822   4.216 -3.8567 -0.0830  0.0825
  883TIP3   OH2 2654   1.181   5.958   2.731 -0.1451 -0.2876 -0.4007
  883TIP3    H1 2655   1.124   6.014   2.678  0.1443  0.2188 -0.1863
  883TIP3    H2 2656   1.149   5.869   2.715 -1.6323  0.0612  0.4893
  884TIP3   OH2 2657   5.105   2.756   0.510  0.3508  0.0786 -0.0876
  884TIP3    H1 2658   5.175   2.721   0.455 -0.2120 -1.7451  0.2569
  884TIP3    H2 2659   5.127   2.848   0.523  2.1022 -0.1985 -0.8534
  885TIP3   OH2 2660   1.650   2.694   3.444  0.0944  0.6626  0.2257
  885TIP3    H1 2661   1.717   2.625   3.438  0.7654  1.1912  1.3855
  885TIP3    H2 2662   1.655   2.738   3.359 -0.2401 -0.5989 -0.4828
  886TIP3   OH2 2663   0.344   0.659   2.171  0.3545  0.1766  0.1529
  886TIP3    H1 2664   0.313   0.599   2.239 -2.0060  2.5019  1.3392
  886TIP3    H2 2665   0.434   0.681   2.198 -0.0389 -0.0496  1.7468
  887TIP3   OH2 2666   3.611   3.535   0.342  0.1073  0.0935  0.5217
  887TIP3    H1 2667   3.633   3.471   0.409  0.1667 -2.5557 -1.8484
  887TIP3    H2 2668   3.695   3.570   0.312  0.5137 -2.1530 -1.2213
  888TIP3   OH2 2669   5.583   2.146   0.729  0.0937 -0.3017  0.1438
  888TIP3    H1 2670   5.627   2.181   0.652 -1.2492  2.5109  0.5249
  888TIP3    H2 2671   5.491   2.138   0.702 -0.0192 -1.4490  0.8035
  889TIP3   OH2 2672   5.775   1.421   4.585 -0.2974 -0.6151  0.4054
  889TIP3    H1 2673   5.748   1.479   4.515 -2.5602 -0.0926  1.6016
  889TIP3    H2 2674   5.838   1.472   4.636  0.4656 -0.5730 -0.5625
  890TIP3   OH2 2675   3.280   2.686   3.088 -0.5070 -0.7909  0.4142
  890TIP3    H1 2676   3.277   2.746   3.014 -0.2239 -3.9421 -2.3953
  890TIP3    H2 2677   3.188   2.673   3.111 -0.5673  0.6657  1.0755
  891TIP3   OH2 2678   4.369   5.868   2.491  0.2512 -0.2363 -0.5386
  891TIP3    H1 2679   4.448   5.857   2.438  0.5001  0.3387 -0.2932
  891TIP3    H2 2680   4.297   5.853   2.430  0.5394  0.0333 -0.9517
  892TIP3   OH2 2681   4.914   2.836   2.614 -0.4261 -0.0717  0.3384
  892TIP3    H1 2682   4.962   2.754   2.614  0.4765  0.4077 -1.0431
  892TIP3    H2 2683   4.840   2.821   2.672  0.4105 -1.4304  1.1137
  893TIP3   OH2 2684   2.584   2.528   1.879  0.0684 -0.6570 -0.5212
  893TIP3    H1 2685   2.620   2.583   1.949 -1.8239  2.0159 -1.4966
  893TIP3    H2 2686   2.593   2.438   1.913  1.4832  0.3375  2.0456
  894TIP3   OH2 2687   1.383   2.436   2.306  0.0941 -0.1002  0.0904
  894TIP3    H1 2688   1.443   2.487   2.360  0.3822  0.1684 -0.4794
  894TIP3    H2 2689   1.378   2.351   2.351  2.8619 -1.0473 -1.1108
  895TIP3   OH2 2690   5.413   2.880   0.889 -0.7172 -0.1809  0.0180
  895TIP3    H1 2691   5.318   2.874   0.894 -0.5719 -2.4454  3.4836
  895TIP3    H2 2692   5.444   2.790   0.898  1.8132  0.4923 -0.9375
  896TIP3   OH2 2693   0.261   0.544   1.072  0.2134  0.0612  0.1264
  896TIP3    H1 2694   0.201   0.615   1.093 -0.6006 -0.8740  1.0843
  896TIP3    H2 2695   0.254   0.484   1.146  0.0940 -1.5252 -1.1250
  897TIP3   OH2 2696   4.272   0.614   0.316  0.5934 -0.4117  0.1964
  897TIP3    H1 2697   4.178   0.612   0.299  0.1936  1.6730  1.7813
  897TIP3    H2 2698   4.304   0.530   0.283 -1.8316 -1.2513 -0.2169
  898TIP3   OH2 2699   5.099   1.493   0.905 -0.3539  0.2498  0.2534
  898TIP3    H1 2700   5.110   1.452   0.820  3.4246 -0.5658  0.9777
  898TIP3    H2 2701   5.006   1.482   0.925 -1.3149  0.2135 -3.5445
  899TIP3   OH2 2702   1.249   3.157   3.851  0.1132 -0.0455 -0.3574
  899TIP3    H1 2703   1.219   3.149   3.942  1.0316 -0.3610 -0.0715
  899TIP3    H2 2704   1.243   3.251   3.832 -3.5102 -0.2781 -1.2050
  900TIP3   OH2 2705   2.355   1.538   4.849  0.0653  0.4428  0.4925
  900TIP3    H1 2706   2.426   1.524   4.911 -0.6497 -0.2485  1.1703
  900TIP3    H2 2707   2.327   1.450   4.825 -1.1076  0.7090  0.8618
  901TIP3   OH2 2708   4.462   2.295   0.159  0.1294  0.5350  0.4120
  901TIP3    H1 2709   4.526   2.256   0.100 -1.1033  0.2765 -0.7833
  901TIP3    H2 2710   4.478   2.390   0.153  2.2809  0.3957  2.3554
  902TIP3   OH2 2711   0.219   3.061   3.747 -0.0750 -0.1370 -0.0808
  902TIP3    H1 2712   0.274   3.021   3.679 -0.4974  0.9612 -1.1013
  902TIP3    H2 2713   0.221   3.154   3.727 -0.5806  0.1550  1.1714
  903TIP3   OH2 2714   4.916   0.632   1.472 -0.7518 -0.4152  0.5142
  903TIP3    H1 2715   4.834   0.647   1.520  0.6245 -0.6248  3.1105
  903TIP3    H2 2716   4.977   0.696   1.508  0.3341 -0.4085 -1.2183
  904TIP3   OH2 2717   2.717   4.007   0.854  0.6155 -0.1210 -0.3619
  904TIP3    H1 2718   2.646   4.067   0.874  0.6661  0.3603 -1.5169
  904TIP3    H2 2719   2.674   3.927   0.825  0.5499 -0.5381  0.8481
  905TIP3   OH2 2720   1.737   0.147   5.037 -0.5564  0.2977  0.1256
  905TIP3    H1 2721   1.704   0.105   4.958 -0.1072 -0.4069  0.3110
  905TIP3    H2 2722   1.829   0.120   5.043 -0.2887  1.1899  0.3247
  906TIP3   OH2 2723   1.834   3.158   2.983 -0.0746  0.1677  0.4466
  906TIP3    H1 2724   1.827   3.217   3.058  1.8427  0.8391  0.1408
  906TIP3    H2 2725   1.759   3.182   2.928 -1.7382 -0.5806  2.2361
  907TIP3   OH2 2726   1.238   4.114   3.352  0.1177 -0.9051  0.2872
  907TIP3    H1 2727   1.216   4.096   3.444  0.2532 -1.2323  0.2570
  907TIP3    H2 2728   1.328   4.148   3.356 -0.1653 -0.1492  0.3516
  908TIP3   OH2 2729   6.253   1.302   2.853  0.2115 -0.1224 -0.0622
  908TIP3    H1 2730   6.185   1.247   2.891 -1.8162  1.4505 -1.2529
  908TIP3    H2 2731   6.294   1.247   2.786  0.4384 -1.2182  0.9458
  909TIP3   OH2 2732   1.781   4.004   4.348 -0.6648 -0.2567  0.6375
  909TIP3    H1 2733   1.817   3.929   4.396 -0.1058  0.2451  1.0241
  909TIP3    H2 2734   1.858   4.051   4.316 -1.0263 -0.6073 -0.8190
  910TIP3   OH2 2735   0.100   0.458   3.907 -0.0552  0.2133 -0.0398
  910TIP3    H1 2736   0.157   0.516   3.956 -0.4547  0.9431 -0.4087
  910TIP3    H2 2737   0.055   0.406   3.973 -0.1816  0.7973  0.3402
  911TIP3   OH2 2738   4.789   0.612   5.087  0.0235 -0.0506  0.2827
  911TIP3    H1 2739   4.854   0.617   5.018  0.3200  2.1439  0.6259
  911TIP3    H2 2740   4.705   0.611   5.041  0.2284 -2.7620 -0.1553
  912TIP3   OH2 2741   0.347   3.662   3.290 -0.3097  0.4098 -0.6369
  912TIP3    H1 2742   0.261   3.702   3.283 -1.4371 -2.0958 -2.2172
  912TIP3    H2 2743   0.393   3.689   3.210 -1.5829 -2.3193 -2.4471
  913TIP3   OH2 2744   1.385   5.089   4.113  0.6109  0.1151  1.1146
  913TIP3    H1 2745   1.446   5.126   4.177 -1.2936  1.6698  2.1474
  913TIP3    H2 2746   1.311   5.059   4.165 -0.8967  1.2016 -0.2776
  914TIP3   OH2 2747   1.052   2.717   1.000 -0.0779  0.2615  0.0418
  914TIP3    H1 2748   1.077   2.778   1.070  1.0749 -0.9189  0.6946
  914TIP3    H2 2749   0.969   2.680   1.029  0.3804 -0.2039  0.8155
  915TIP3   OH2 2750   1.137   4.082   2.232 -0.1579 -0.1796 -0.3600
  915TIP3    H1 2751   1.108   4.139   2.161 -0.0648  1.0875  0.5744
  915TIP3    H2 2752   1.212   4.035   2.197 -1.2611 -1.0132 -1.7055
  916TIP3   OH2 2753   2.011   2.177   3.511  0.2758 -0.2315  0.4528
  916TIP3    H1 2754   1.932   2.202   3.463 -0.1720 -0.6352  0.9582
  916TIP3    H2 2755   2.041   2.097   3.467 -0.3151 -0.7816  1.0212
  917TIP3   OH2 2756   4.536   2.469   4.507 -0.1779 -0.5771 -0.1484
  917TIP3    H1 2757   4.619   2.429   4.479 -0.9250 -2.1139 -0.2828
  917TIP3    H2 2758   4.546   2.478   4.602  0.5766  0.3439 -0.2970
  918TIP3   OH2 2759   4.238   5.086   4.131  0.2558 -0.0226 -0.1738
  918TIP3    H1 2760   4.210   5.003   4.091  0.5524  0.3170 -1.1244
  918TIP3    H2 2761   4.200   5.085   4.218 -2.5761  0.3043 -1.2887
  919TIP3   OH2 2762   6.217   3.345   2.606  0.0967 -0.2328 -0.1101
  919TIP3    H1 2763   6.262   3.343   2.522  1.2457  0.7421  0.4392
  919TIP3    H2 2764   6.181   3.257   2.617  1.3366 -0.8603 -0.8753
  920TIP3   OH2 2765   4.265   2.298   0.469  0.4809 -0.7038 -0.4535
  920TIP3    H1 2766   4.194   2.267   0.526  0.1366 -0.7685 -0.9181
  920TIP3    H2 2767   4.322   2.347   0.528 -0.3290 -0.0349 -0.2068
  921TIP3   OH2 2768   3.520   1.226   1.402 -0.3455  0.6636  0.3093
  921TIP3    H1 2769   3.522   1.181   1.486 -0.9485 -1.1693 -0.5953
  921TIP3    H2 2770   3.596   1.284   1.404  0.4153 -0.3162  1.6024
  922TIP3   OH2 2771   1.039   5.442   2.341  0.1862  0.0743 -0.3954
  922TIP3    H1 2772   0.953   5.446   2.382 -0.3540 -0.3722 -1.4651
  922TIP3    H2 2773   1.058   5.533   2.317  0.7248  0.4274  1.2202
  923TIP3   OH2 2774   0.111   2.929   2.516 -0.0121 -0.1408 -0.0323
  923TIP3    H1 2775   0.019   2.911   2.534 -0.0288 -1.7940 -1.4853
  923TIP3    H2 2776   0.133   2.871   2.442  2.3194 -0.1727  0.5993
  924TIP3   OH2 2777   1.609   2.441   3.226 -0.3557  0.1005 -0.4791
  924TIP3    H1 2778   1.622   2.465   3.134 -0.5130 -1.2689 -0.8832
  924TIP3    H2 2779   1.514   2.444   3.239 -0.5758 -2.2745 -1.1440
  925TIP3   OH2 2780   5.918   2.735   1.102 -0.1059  0.0950  0.5247
  925TIP3    H1 2781   5.876   2.651   1.081 -0.1307  0.1223  0.4639
  925TIP3    H2 2782   5.860   2.801   1.063  1.0119  0.0476 -1.3592
  926TIP3   OH2 2783   0.558   4.774   2.460 -0.5275 -0.2246  0.7913
  926TIP3    H1 2784   0.500   4.835   2.414 -0.6019  1.1650  2.6264
  926TIP3    H2 2785   0.589   4.715   2.392 -1.5905  0.9675 -0.8040
  927TIP3   OH2 2786   5.799   2.299   1.905  0.0863  0.3037 -0.5336
  927TIP3    H1 2787   5.774   2.236   1.972  0.4853 -0.2913 -0.9311
  927TIP3    H2 2788   5.866   2.353   1.947  0.7843 -0.4610 -0.6326
  928TIP3   OH2 2789   2.640   0.721   0.519  0.0466 -0.0911 -0.6074
  928TIP3    H1 2790   2.693   0.645   0.498  2.3322  1.9382 -2.7843
  928TIP3    H2 2791   2.692   0.770   0.583 -1.7237 -0.5683  1.3430
  929TIP3   OH2 2792   1.616   5.057   3.122  0.4222 -0.2779  0.0884
  929TIP3    H1 2793   1.705   5.083   3.143  0.4790  0.4104 -0.9403
  929TIP3    H2 2794   1.564   5.136   3.137 -0.5333 -1.3524  3.3947
  930TIP3   OH2 2795   2.063   4.197   3.094  0.2011  0.4149 -0.4421
  930TIP3    H1 2796   2.025   4.226   3.176  0.7698 -2.1752  0.8372
  930TIP3    H2 2797   2.151   4.235   3.094 -0.2961  1.6160 -0.6006
  931TIP3   OH2 2798   6.091   5.482   1.967 -0.4310 -0.3841  0.4320
  931TIP3    H1 2799   5.998   5.489   1.949  0.0087 -0.1660 -2.0476
  931TIP3    H2 2800   6.111   5.558   2.023 -1.5439  0.1299  0.1400
  932TIP3   OH2 2801   0.296   2.838   4.653 -0.0668  0.6313 -0.4765
  932TIP3    H1 2802   0.227   2.874   4.597  0.5896  2.4129 -0.2052
  932TIP3    H2 2803   0.367   2.903   4.648  1.0831 -0.5248  0.2610
  933TIP3   OH2 2804   1.287   1.875   2.424 -0.2551 -0.1042 -0.0909
  933TIP3    H1 2805   1.321   1.864   2.335 -0.0913  1.6486 -0.2710
  933TIP3    H2 2806   1.364   1.891   2.478 -0.4636  0.1341  0.1379
  934TIP3   OH2 2807   2.899   3.874   4.799 -0.0522  0.0434 -0.8024
  934TIP3    H1 2808   2.908   3.850   4.892 -1.1837  1.4890 -0.2791
  934TIP3    H2 2809   2.961   3.947   4.788  1.0769 -1.0011 -1.5583
  935TIP3   OH2 2810   5.244   4.907   1.855  0.6071 -0.5677 -0.2724
  935TIP3    H1 2811   5.185   4.861   1.915 -0.0352 -0.2359 -0.6386
  935TIP3    H2 2812   5.328   4.862   1.864  0.3243 -0.9781  0.3364
  936TIP3   OH2 2813   2.226   2.523   0.061  0.0063  0.3147 -0.1095
  936TIP3    H1 2814   2.174   2.452   0.098 -1.0895  0.1956 -1.8132
  936TIP3    H2 2815   2.315   2.507   0.094 -0.2447 -1.7756 -0.3384
  937TIP3   OH2 2816   4.726   5.096   3.948 -0.4431 -0.6697  0.3951
  937TIP3    H1 2817   4.663   5.034   3.910  0.4009 -0.6992 -1.0303
  937TIP3    H2 2818   4.694   5.182   3.922 -0.9616 -0.5499  1.3704
  938TIP3   OH2 2819   5.793   4.546   4.866 -0.0143 -0.1931  0.6136
  938TIP3    H1 2820   5.828   4.459   4.884 -1.7285 -0.7905  1.3210
  938TIP3    H2 2821   5.724   4.559   4.932 -0.4696  1.2866 -0.0892
  939TIP3   OH2 2822   3.024   5.395   1.465 -0.0870  0.5849 -0.1737
  939TIP3    H1 2823   2.936   5.399   1.427 -0.0941  1.2853 -0.1002
  939TIP3    H2 2824   3.082   5.422   1.394  0.0483  0.3576 -0.1512
  940TIP3   OH2 2825   0.407   3.024   1.889 -0.3034  0.0197  0.1109
  940TIP3    H1 2826   0.318   3.059   1.896 -0.0943  0.3907  1.1027
  940TIP3    H2 2827   0.399   2.950   1.829 -1.1212  0.5764 -0.4972
  941TIP3   OH2 2828   5.135   0.232   4.868 -0.2320 -0.1116  0.1519
  941TIP3    H1 2829   5.206   0.272   4.919 -0.1064 -0.4801  0.2684
  941TIP3    H2 2830   5.134   0.141   4.897 -1.0007 -0.0233  0.4312
  942TIP3   OH2 2831   0.438   4.310   0.293 -0.2952 -0.2844  0.0794
  942TIP3    H1 2832   0.413   4.358   0.214 -0.7924 -0.0306  0.3916
  942TIP3    H2 2833   0.412   4.219   0.275 -3.4879  0.3015  1.2310
  943TIP3   OH2 2834   2.955   2.647   0.709 -0.0696 -0.0338 -0.0379
  943TIP3    H1 2835   2.923   2.736   0.695  0.1840  0.4162  1.9506
  943TIP3    H2 2836   2.888   2.591   0.670 -0.9575  0.9902 -0.0278
  944TIP3   OH2 2837   4.473   0.530   3.210 -0.1952  0.0246  0.4606
  944TIP3    H1 2838   4.548   0.472   3.196  0.3911  0.7066  0.7337
  944TIP3    H2 2839   4.406   0.498   3.149  0.2850 -0.6478  0.2836
  945TIP3   OH2 2840   4.020   1.586   1.244 -0.1238 -0.3055 -0.1159
  945TIP3    H1 2841   4.113   1.575   1.225 -0.2993 -1.5654 -0.2938
  945TIP3    H2 2842   4.002   1.677   1.221  0.5557 -0.6620 -2.3177
  946TIP3   OH2 2843   5.985   1.956   4.200 -0.1265  0.2659  0.0514
  946TIP3    H1 2844   5.892   1.978   4.200 -0.6072 -1.6095 -0.3674
  946TIP3    H2 2845   5.995   1.892   4.270  0.8649  0.4473  0.0941
  947TIP3   OH2 2846   5.952   4.775   3.834  0.1343 -0.4560  0.9676
  947TIP3    H1 2847   5.895   4.805   3.904  0.1854  0.4058  0.6588
  947TIP3    H2 2848   6.016   4.719   3.878  0.2356  0.1622  1.6369
  948TIP3   OH2 2849   3.177   4.473   4.945  0.0431  0.1766  0.7482
  948TIP3    H1 2850   3.117   4.441   5.012 -1.4450 -0.8958 -1.0184
  948TIP3    H2 2851   3.239   4.402   4.932 -0.6856 -0.3105 -0.1634
  949TIP3   OH2 2852   5.130   4.024   4.420 -0.1319 -0.4998  0.6177
  949TIP3    H1 2853   5.056   4.065   4.464 -0.2021 -2.5689  2.5884
  949TIP3    H2 2854   5.110   4.034   4.326 -1.0757  2.0916  1.0239
  950TIP3   OH2 2855   3.447   5.385   2.128  0.4284  0.0473 -0.1970
  950TIP3    H1 2856   3.426   5.437   2.205  2.3835  0.5309  0.0722
  950TIP3    H2 2857   3.376   5.401   2.067 -0.0005  1.4667  0.6399
  951TIP3   OH2 2858   1.740   0.032   4.744 -0.1595  0.8829  0.0029
  951TIP3    H1 2859   1.729   0.125   4.725 -1.0212  0.8130  0.1089
  951TIP3    H2 2860   1.832   0.014   4.725 -0.5627  1.1701 -2.5883
  952TIP3   OH2 2861   0.972   1.320   0.382  0.0532 -0.4694 -0.3982
  952TIP3    H1 2862   1.037   1.267   0.428 -0.5408 -0.9086 -0.0555
  952TIP3    H2 2863   1.010   1.408   0.380  3.0164 -1.4921 -4.4731
  953TIP3   OH2 2864   2.000   3.091   4.318 -0.1992 -0.4910 -0.4376
  953TIP3    H1 2865   1.946   3.079   4.239  1.0752 -2.0763 -1.1305
  953TIP3    H2 2866   2.080   3.134   4.286  0.1490 -0.7685  0.0556
  954TIP3   OH2 2867   1.263   5.901   2.387 -1.0395 -0.0144 -0.0195
  954TIP3    H1 2868   1.296   5.932   2.303 -1.3588  0.8901  0.1763
  954TIP3    H2 2869   1.286   5.969   2.449 -2.5716  0.2984  0.2534
  955TIP3   OH2 2870   5.183   0.886   1.357 -0.1121 -0.0063 -0.6774
  955TIP3    H1 2871   5.107   0.882   1.415  0.6767 -0.4705  0.3483
  955TIP3    H2 2872   5.239   0.814   1.387  1.1692  0.9219 -0.8002
  956TIP3   OH2 2873   0.808   3.753   0.038 -0.1820 -0.2949 -0.2179
  956TIP3    H1 2874   0.769   3.754   0.125  0.3791  1.6944  0.0603
  956TIP3    H2 2875   0.735   3.774  -0.021 -0.0433  1.0782  0.0688
  957TIP3   OH2 2876   3.732   1.389   1.401  0.1248 -0.4405  0.4770
  957TIP3    H1 2877   3.809   1.422   1.446 -0.2262  0.2954  0.5542
  957TIP3    H2 2878   3.721   1.449   1.326  0.0371 -0.9624  0.0650
  958TIP3   OH2 2879   4.191   3.326   1.250 -0.0405 -0.9439 -0.0098
  958TIP3    H1 2880   4.249   3.384   1.300 -0.3619 -1.3655  0.8774
  958TIP3    H2 2881   4.207   3.239   1.286 -0.8484 -1.1443 -0.1032
  959TIP3   OH2 2882   2.139   4.350   2.084  0.0466  0.1074  0.2039
  959TIP3    H1 2883   2.098   4.407   2.149 -1.6103 -1.5849  0.7047
  959TIP3    H2 2884   2.123   4.394   2.001 -2.2560 -0.1331  0.4534
  960TIP3   OH2 2885   4.507   0.156   4.904  0.3349  0.1451 -0.4117
  960TIP3    H1 2886   4.565   0.092   4.945 -0.8943  0.1893  1.4987
  960TIP3    H2 2887   4.429   0.106   4.882 -1.3116  1.1542  2.5676
  961TIP3   OH2 2888   2.547   0.988   4.411  0.2147  0.7952 -0.4436
  961TIP3    H1 2889   2.452   0.991   4.404  0.1055  0.0173  0.5945
  961TIP3    H2 2890   2.578   1.007   4.322 -0.9009  1.0501 -0.7888
  962TIP3   OH2 2891   0.077   2.862   2.963 -0.3629 -0.1255  0.2789
  962TIP3    H1 2892   0.034   2.901   3.039 -0.5217  1.1324 -0.4301
  962TIP3    H2 2893   0.006   2.846   2.901  0.0245  1.0838 -0.5239
  963TIP3   OH2 2894   2.238   5.663   1.013 -0.4477  0.3003 -0.1039
  963TIP3    H1 2895   2.283   5.728   0.959 -0.2317 -0.2648 -0.6179
  963TIP3    H2 2896   2.150   5.657   0.975  0.1593 -1.1724 -1.3549
  964TIP3   OH2 2897   1.589   4.269   2.987 -0.5154 -0.1983  0.6107
  964TIP3    H1 2898   1.577   4.312   2.902 -0.0369  0.1731  0.7286
  964TIP3    H2 2899   1.500   4.257   3.020 -0.6925 -0.1117  0.1714
  965TIP3   OH2 2900   0.016   3.779   1.756 -0.3055 -0.4092  0.1105
  965TIP3    H1 2901   0.073   3.820   1.821 -0.6988  0.2346  0.0538
  965TIP3    H2 2902  -0.056   3.841   1.744 -0.7354 -0.9613 -0.2294
  966TIP3   OH2 2903   4.964   4.495   3.896 -0.7710  0.0112 -0.1800
  966TIP3    H1 2904   5.016   4.566   3.934 -1.7890  0.6373  0.0742
  966TIP3    H2 2905   5.001   4.415   3.935 -0.9971  0.5520  1.2048
  967TIP3   OH2 2906   3.595   5.014   3.610 -0.4445 -0.7846 -0.0083
  967TIP3    H1 2907   3.650   4.937   3.624 -0.2790 -0.6802 -0.0830
  967TIP3    H2 2908   3.654   5.079   3.572 -0.9788 -1.1941 -1.6300
  968TIP3   OH2 2909   3.752   2.521   0.921  0.0085 -0.0023  0.4977
  968TIP3    H1 2910   3.789   2.549   0.837  0.5001  0.5134  0.8743
  968TIP3    H2 2911   3.814   2.456   0.953  0.3065  0.4568  0.8708
  969TIP3   OH2 2912   4.674   5.157   1.148  0.3556  0.1583 -0.0677
  969TIP3    H1 2913   4.660   5.088   1.083 -1.8473  0.0149  0.4809
  969TIP3    H2 2914   4.685   5.110   1.231  1.4697  0.3988 -0.0674
  970TIP3   OH2 2915   1.851   1.206   4.178 -0.4923  0.1311  0.0085
  970TIP3    H1 2916   1.861   1.249   4.093  1.6306 -1.5647 -0.7199
  970TIP3    H2 2917   1.761   1.223   4.204 -0.7923  1.8578 -1.9226
  971TIP3   OH2 2918   0.951   5.628   0.065 -0.1470 -0.0009  0.2131
  971TIP3    H1 2919   0.962   5.611   0.159  1.4473 -0.1147  0.0377
  971TIP3    H2 2920   0.861   5.601   0.047  0.5761 -3.5752  1.0005
  972TIP3   OH2 2921   5.121   2.168   4.638 -0.3903 -0.0142 -0.4615
  972TIP3    H1 2922   5.185   2.224   4.682 -0.4630  0.8439 -1.4031
  972TIP3    H2 2923   5.051   2.228   4.612 -1.5449 -0.9082  0.4405
  973TIP3   OH2 2924   2.237   1.319   2.142 -0.1677  0.9184  0.0207
  973TIP3    H1 2925   2.151   1.299   2.105 -0.4473  0.1393  1.0510
  973TIP3    H2 2926   2.221   1.389   2.205  0.1618  1.6069 -0.6408
  974TIP3   OH2 2927   4.574   2.109   3.995 -0.4474 -0.0339  0.3722
  974TIP3    H1 2928   4.624   2.183   3.960 -0.3876 -0.2758 -0.0531
  974TIP3    H2 2929   4.566   2.128   4.089  0.2075  0.1432  0.3957
  975TIP3   OH2 2930   0.300   4.408   0.059  0.2487 -0.6676 -0.3157
  975TIP3    H1 2931   0.296   4.452  -0.026  0.6961  2.6431  1.2286
  975TIP3    H2 2932   0.354   4.331   0.043  1.5505  0.6164 -2.7596
  976TIP3   OH2 2933   6.225   4.151   3.920  0.0602  0.5161 -0.1895
  976TIP3    H1 2934   6.253   4.126   4.008  0.0289 -0.3499 -0.4229
  976TIP3    H2 2935   6.305   4.183   3.877  0.6892 -1.6412 -0.7455
  977TIP3   OH2 2936   3.896   1.874   3.550  0.6766  0.3182 -0.1005
  977TIP3    H1 2937   3.825   1.810   3.545  0.1234  0.9698 -1.2824
  977TIP3    H2 2938   3.968   1.828   3.592 -0.2287 -0.5720  0.5196
  978TIP3   OH2 2939   1.154   3.372   2.487  0.3630 -0.1445 -0.1263
  978TIP3    H1 2940   1.124   3.306   2.550 -1.2423 -0.4342 -1.1320
  978TIP3    H2 2941   1.237   3.338   2.455  1.3931  0.1727  2.0181
  979TIP3   OH2 2942   0.152   3.535   3.864 -0.2536  0.0669 -0.2220
  979TIP3    H1 2943   0.118   3.542   3.953 -0.2832  0.1563 -0.2403
  979TIP3    H2 2944   0.106   3.459   3.827 -1.2030  0.8012 -0.5840
  980TIP3   OH2 2945   3.724   1.264   4.961  0.4691  0.3575 -0.1771
  980TIP3    H1 2946   3.733   1.207   4.884 -1.3698  1.7498 -1.5380
  980TIP3    H2 2947   3.634   1.296   4.955  1.3480  3.1893  0.6265
  981TIP3   OH2 2948   3.013   5.333   4.482 -0.3060 -0.1185  0.0092
  981TIP3    H1 2949   3.066   5.355   4.559 -0.9636  0.1609  0.3974
  981TIP3    H2 2950   3.010   5.237   4.482  1.9010 -0.2427 -1.2178
  982TIP3   OH2 2951   2.685   1.088   2.915  0.3130 -0.4633 -0.3614
  982TIP3    H1 2952   2.682   1.004   2.868 -2.8631 -0.1135 -0.9952
  982TIP3    H2 2953   2.632   1.073   2.994 -0.6935  1.0349 -0.7123
  983TIP3   OH2 2954   1.628   2.588   0.373 -0.8838 -0.0502 -0.1671
  983TIP3    H1 2955   1.534   2.587   0.352 -1.4929  2.1420  1.9959
  983TIP3    H2 2956   1.664   2.656   0.317 -0.9791  0.4316  0.3510
  984TIP3   OH2 2957   2.558   1.315   0.881 -0.3141  0.0245 -0.0990
  984TIP3    H1 2958   2.472   1.307   0.923 -0.4740 -1.1583 -0.5899
  984TIP3    H2 2959   2.614   1.352   0.949 -0.7936 -0.9288  0.8622
  985TIP3   OH2 2960   0.510   5.049   1.755 -0.0180  0.7883  0.1851
  985TIP3    H1 2961   0.538   4.958   1.768 -0.8183  0.7764  2.0494
  985TIP3    H2 2962   0.589   5.093   1.724  0.3619 -0.5392 -0.8384
  986TIP3   OH2 2963   5.292   4.269   4.863  0.1269 -0.2176  0.2316
  986TIP3    H1 2964   5.202   4.238   4.872 -0.0490  0.1241 -0.3099
  986TIP3    H2 2965   5.308   4.320   4.943 -0.2381 -0.0821  0.2159
  987TIP3   OH2 2966   1.636   0.317   4.146  0.3086  0.1883 -0.4532
  987TIP3    H1 2967   1.669   0.227   4.137 -1.2741 -0.5866  0.8892
  987TIP3    H2 2968   1.554   0.307   4.196 -0.5223  2.2615 -1.3015
  988TIP3   OH2 2969   1.489   1.833   0.475 -0.3024  0.2635  0.3653
  988TIP3    H1 2970   1.406   1.848   0.431 -0.7392  0.4776  1.2341
  988TIP3    H2 2971   1.522   1.751   0.438 -3.2157 -2.5213  3.2802
  989TIP3   OH2 2972   2.675   3.893   4.415  0.0027 -0.1763  0.3523
  989TIP3    H1 2973   2.669   3.913   4.508  0.3255  2.0875 -0.0650
  989TIP3    H2 2974   2.587   3.863   4.392 -0.7032  1.3402  0.9639
  990TIP3   OH2 2975   3.756   5.083   3.310 -0.0698  0.0357  0.4745
  990TIP3    H1 2976   3.672   5.128   3.302 -0.2847 -0.3601  0.5053
  990TIP3    H2 2977   3.759   5.024   3.235 -0.3465 -0.8195  1.1269
  991TIP3   OH2 2978   1.345   3.625   0.663 -0.0920  0.4687 -0.1159
  991TIP3    H1 2979   1.340   3.530   0.652  0.8435  0.3191  0.5908
  991TIP3    H2 2980   1.439   3.644   0.659 -0.3563  1.5823 -1.8716
  992TIP3   OH2 2981   3.700   3.789   4.790 -0.0437  0.0205  0.3379
  992TIP3    H1 2982   3.680   3.769   4.699  0.7243 -0.1130  0.1957
  992TIP3    H2 2983   3.642   3.731   4.841  0.7135 -1.1168 -0.0641
  993TIP3   OH2 2984   4.380   1.610   3.738  0.3432 -1.1155 -0.6030
  993TIP3    H1 2985   4.419   1.604   3.825  0.6117 -0.6436 -0.6855
  993TIP3    H2 2986   4.440   1.666   3.689 -0.3739 -0.4703 -0.7663
  994TIP3   OH2 2987   0.665   0.874   3.148 -0.0991 -0.9769 -0.2246
  994TIP3    H1 2988   0.598   0.891   3.214 -0.0791  0.3716 -0.5134
  994TIP3    H2 2989   0.748   0.892   3.192 -0.1217  0.6885 -0.7917
  995TIP3   OH2 2990   2.958   2.644   4.149  0.2508 -0.5080  0.6940
  995TIP3    H1 2991   2.920   2.730   4.166 -1.3956 -1.5495  2.7498
  995TIP3    H2 2992   2.983   2.646   4.056 -0.6884  1.8137  0.4389
  996TIP3   OH2 2993   0.834   2.851   2.828  0.2381  0.0259  0.5970
  996TIP3    H1 2994   0.911   2.903   2.805 -0.9162  1.0129 -1.2596
  996TIP3    H2 2995   0.830   2.784   2.760 -0.6341  0.0889  0.5846
  997TIP3   OH2 2996   1.136   1.297   1.465  0.1491  0.0746  0.3983
  997TIP3    H1 2997   1.135   1.250   1.549  1.0287 -1.9054 -0.6454
  997TIP3    H2 2998   1.044   1.302   1.439  0.0932 -2.3087 -0.0733
  998TIP3   OH2 2999   5.348   3.154   0.184 -0.3023  0.0908 -1.1724
  998TIP3    H1 3000   5.389   3.122   0.264 -1.3254  0.6421 -0.4072
  998TIP3    H2 3001   5.410   3.218   0.150  0.1880 -0.2234 -0.8803
  999TIP3   OH2 3002   4.155   1.337   4.936  0.0372  0.1740 -0.1727
  999TIP3    H1 3003   4.097   1.380   4.872 -1.7437 -3.0786 -0.9963
  999TIP3    H2 3004   4.095   1.294   4.997  1.5844 -1.7881  0.0569
 1000TIP3   OH2 3005   0.902   0.622   4.770 -0.3168  0.3705 -0.3221
 1000TIP3    H1 3006   0.935   0.693   4.826 -1.2209 -0.9759  2.0757
 1000TIP3    H2 3007   0.977   0.597   4.717  1.5868 -0.2670  2.4713
 1001TIP3   OH2 3008   0.290   0.599   4.200 -0.8890 -0.3220  0.2993
 1001TIP3    H1 3009   0.365   0.543   4.184  0.4303  0.7192  2.4145
 1001TIP3    H2 3010   0.307   0.678   4.149 -1.3281 -0.6700 -0.4064
 1002TIP3   OH2 3011   0.374   4.892   0.576  0.4363  0.2240 -0.0884
 1002TIP3    H1 3012   0.383   4.982   0.544 -1.3192 -0.3739 -2.5346
 1002TIP3    H2 3013   0.406   4.837   0.505  0.1056 -1.1274  0.7695
 1003TIP3   OH2 3014   3.472   3.774   4.234 -0.4091 -0.4489  0.3839
 1003TIP3    H1 3015   3.532   3.769   4.308  0.6425 -1.9315 -0.4989
 1003TIP3    H2 3016   3.439   3.864   4.235  4.6696  1.8196 -1.1411
 1004TIP3   OH2 3017   5.026   5.334   3.591 -0.1469  0.4289 -0.0218
 1004TIP3    H1 3018   4.952   5.395   3.598 -0.8066 -0.3638  0.1022
 1004TIP3    H2 3019   4.989   5.257   3.549  0.7140  0.1644 -0.3122
 1005TIP3   OH2 3020   3.465   5.363   1.347 -0.6458 -0.5746  0.2093
 1005TIP3    H1 3021   3.497   5.434   1.291 -1.0564  0.9701  1.8301
 1005TIP3    H2 3022   3.372   5.355   1.326 -0.0912 -2.4857 -1.8236
 1006TIP3   OH2 3023   5.914   4.416   1.104 -0.0251 -0.4173  0.5161
 1006TIP3    H1 3024   5.897   4.436   1.196 -1.1176 -1.7284  0.6416
 1006TIP3    H2 3025   5.924   4.321   1.102  0.5387 -0.3474 -0.6409
 1007TIP3   OH2 3026   4.996   3.540   0.125  0.0743  0.1551  0.2287
 1007TIP3    H1 3027   4.938   3.603   0.083 -1.5428 -1.1731  0.3620
 1007TIP3    H2 3028   4.993   3.562   0.218 -0.7437 -0.2829  0.3173
 1008TIP3   OH2 3029   4.058   4.266   2.158 -0.1028 -0.2102  0.1367
 1008TIP3    H1 3030   4.009   4.185   2.160  1.1560 -1.0022  0.2257
 1008TIP3    H2 3031   4.045   4.300   2.069 -2.0670  0.4385  0.6364
 1009TIP3   OH2 3032   3.863   5.769   3.041 -0.2293  0.1905  0.3841
 1009TIP3    H1 3033   3.870   5.703   2.972  1.7907  0.4863  0.2299
 1009TIP3    H2 3034   3.892   5.724   3.121  2.6965  1.1617  0.0096
 1010TIP3   OH2 3035   4.323   3.989   4.786 -0.2471  0.6360  0.4769
 1010TIP3    H1 3036   4.375   4.019   4.712 -0.3543  1.7550  0.8427
 1010TIP3    H2 3037   4.383   3.994   4.861 -0.8787  2.0429  0.9200
 1011TIP3   OH2 3038   4.725   1.471   0.539 -0.8865 -0.1937 -0.0832
 1011TIP3    H1 3039   4.697   1.380   0.542  0.8597 -0.7722  0.3668
 1011TIP3    H2 3040   4.719   1.496   0.447  0.2699 -1.3594 -0.5009
 1012TIP3   OH2 3041   2.076   2.321   3.739 -0.4423  0.1554 -0.4039
 1012TIP3    H1 3042   1.988   2.313   3.776 -0.5724  0.1791 -0.7061
 1012TIP3    H2 3043   2.074   2.268   3.660 -0.4205  0.8037 -0.8434
 1013TIP3   OH2 3044   4.349   0.095   2.157 -0.8335  0.3214  0.3572
 1013TIP3    H1 3045   4.327   0.080   2.065 -0.8640  0.2340  0.3787
 1013TIP3    H2 3046   4.264   0.099   2.202 -0.7933 -0.9689  0.5898
 1014TIP3   OH2 3047   2.054   3.883   2.362 -0.0053 -0.2571 -0.1841
 1014TIP3    H1 3048   2.133   3.933   2.385  0.4233 -1.2579  0.6315
 1014TIP3    H2 3049   1.997   3.946   2.319 -0.4137  1.5382  2.7319
 1015TIP3   OH2 3050   1.542   5.279   3.375 -0.2326  0.0601  0.2230
 1015TIP3    H1 3051   1.552   5.341   3.447  1.1730 -0.3853  0.4438
 1015TIP3    H2 3052   1.603   5.208   3.396 -2.5882 -1.9835  0.5657
 1016TIP3   OH2 3053   2.745   1.466   3.092  0.3374 -0.0690  0.2118
 1016TIP3    H1 3054   2.695   1.387   3.112  2.2979 -1.4294 -0.0418
 1016TIP3    H2 3055   2.688   1.538   3.119 -1.7502 -1.5213 -0.0933
 1017TIP3   OH2 3056   0.691   5.134   1.977 -0.4522 -0.4614  0.4611
 1017TIP3    H1 3057   0.683   5.039   1.987 -1.6287 -0.2700  1.7639
 1017TIP3    H2 3058   0.603   5.167   1.997 -0.4930  0.8045 -1.5870
 1018TIP3   OH2 3059   4.541   4.334   2.901 -0.0301  0.5610 -0.0493
 1018TIP3    H1 3060   4.598   4.318   2.976  0.7279  0.0045 -0.7237
 1018TIP3    H2 3061   4.485   4.407   2.928 -0.5213 -0.3342  1.4588
 1019TIP3   OH2 3062   2.682   5.413   2.011  0.1797  0.2785 -0.0188
 1019TIP3    H1 3063   2.657   5.504   1.996 -1.9672 -0.4428 -1.2008
 1019TIP3    H2 3064   2.643   5.365   1.938  2.5794 -1.4226 -0.3070
 1020TIP3   OH2 3065   6.125   2.615   1.310  0.6318  0.1836  0.0301
 1020TIP3    H1 3066   6.051   2.639   1.255  2.1117 -0.0086 -2.1848
 1020TIP3    H2 3067   6.091   2.547   1.368 -0.9674  0.2456 -0.7924
 1021TIP3   OH2 3068   0.474   3.731   3.060  0.1702  0.9522  0.0848
 1021TIP3    H1 3069   0.544   3.677   3.023  0.6840  2.2576 -0.9603
 1021TIP3    H2 3070   0.416   3.750   2.986  0.3771  2.3603  0.2385
 1022TIP3   OH2 3071   6.351   4.654   1.172 -0.3234 -0.3239  0.2101
 1022TIP3    H1 3072   6.311   4.740   1.158  3.0962  1.5313  0.7222
 1022TIP3    H2 3073   6.333   4.606   1.091 -0.6549  1.6109 -0.9239
 1023TIP3   OH2 3074   2.771   4.069   2.537 -0.6303 -0.2626 -0.3211
 1023TIP3    H1 3075   2.689   4.022   2.518 -2.4255  1.8535  1.5808
 1023TIP3    H2 3076   2.762   4.097   2.628  1.2221  1.9387 -0.7280
 1024TIP3   OH2 3077   4.160   1.580   0.575  0.3354 -0.2836  0.2480
 1024TIP3    H1 3078   4.108   1.537   0.643  1.0910 -0.2590  0.8547
 1024TIP3    H2 3079   4.222   1.514   0.546 -0.5520 -0.5842 -1.0859
 1025TIP3   OH2 3080   3.953   2.968   2.030  0.4229 -0.8189 -0.2818
 1025TIP3    H1 3081   4.016   2.904   2.063  1.8898  0.4455 -0.5139
 1025TIP3    H2 3082   3.967   2.969   1.935 -2.0365 -2.6176 -0.7801
 1026TIP3   OH2 3083   0.925   1.165   3.996 -0.0105 -0.3625  0.2117
 1026TIP3    H1 3084   0.868   1.241   4.005  1.7847  1.2671 -1.1496
 1026TIP3    H2 3085   0.938   1.134   4.085 -2.5101 -0.4857  0.6108
 1027TIP3   OH2 3086   1.127   4.134   0.226  0.0801  0.3947 -0.2493
 1027TIP3    H1 3087   1.046   4.097   0.190  0.5501  0.9988 -2.0062
 1027TIP3    H2 3088   1.162   4.064   0.282  0.1921 -1.2979 -2.3058
 1028TIP3   OH2 3089   2.818   3.464   0.170  0.3580 -0.0366  0.1921
 1028TIP3    H1 3090   2.766   3.387   0.146  0.4148  0.0934 -0.3640
 1028TIP3    H2 3091   2.908   3.441   0.147  0.4118  0.0933  0.2730
 1029TIP3   OH2 3092   0.847   4.826   1.404 -0.1696 -0.0429  0.4674
 1029TIP3    H1 3093   0.806   4.903   1.444 -0.9900 -0.4991  0.5184
 1029TIP3    H2 3094   0.774   4.771   1.378  0.3905 -0.4263 -0.3413
 1030TIP3   OH2 3095   0.800   4.137   3.679 -0.0253  0.3733 -0.2251
 1030TIP3    H1 3096   0.813   4.043   3.690  4.6251  0.9447  1.2102
 1030TIP3    H2 3097   0.811   4.152   3.585  2.3227 -0.2891 -0.1109
 1031TIP3   OH2 3098   5.167   2.187   3.625  0.3677 -0.1414 -0.3676
 1031TIP3    H1 3099   5.198   2.273   3.652  0.4781 -0.6777  1.2941
 1031TIP3    H2 3100   5.238   2.127   3.645 -0.0374 -0.7517 -0.6973
 1032TIP3   OH2 3101   5.569   5.037   4.672 -0.0094  0.3137  0.2960
 1032TIP3    H1 3102   5.573   5.051   4.766  0.0998 -1.2408  0.5428
 1032TIP3    H2 3103   5.484   4.996   4.657  0.6233 -0.9204 -0.0462
 1033TIP3   OH2 3104   4.270   2.539   0.211 -0.5024  0.4180 -0.2582
 1033TIP3    H1 3105   4.199   2.603   0.210 -1.7368 -0.8063  2.3338
 1033TIP3    H2 3106   4.347   2.589   0.238 -1.1409  1.0918  0.3500
 1034TIP3   OH2 3107   1.789   5.757   4.897  0.4452  0.2045  0.3433
 1034TIP3    H1 3108   1.815   5.695   4.830 -0.9349  0.2047 -0.2296
 1034TIP3    H2 3109   1.870   5.779   4.943  1.1294 -1.1241 -0.1870
 1035TIP3   OH2 3110   6.120   5.835   1.461 -0.5147 -0.1705 -0.1667
 1035TIP3    H1 3111   6.167   5.901   1.512  0.6231 -0.6348 -0.5758
 1035TIP3    H2 3112   6.108   5.874   1.375 -1.9009  0.3783  0.2519
 1036TIP3   OH2 3113   0.048   4.713   3.289 -0.7743  0.5738 -0.4260
 1036TIP3    H1 3114   0.059   4.645   3.223 -3.0035  0.6231 -0.9221
 1036TIP3    H2 3115   0.043   4.666   3.372 -0.1267  0.3401 -0.5110
 1037TIP3   OH2 3116   6.126   3.512   0.629 -0.5917 -0.5786 -0.5408
 1037TIP3    H1 3117   6.155   3.600   0.606 -1.1008  0.0004  0.9148
 1037TIP3    H2 3118   6.205   3.458   0.624 -0.0504  0.1900 -0.3989
 1038TIP3   OH2 3119   2.549   1.703   0.541 -0.0950 -0.2745  0.4199
 1038TIP3    H1 3120   2.556   1.627   0.484 -1.1456  0.0634 -0.1942
 1038TIP3    H2 3121   2.528   1.776   0.482 -0.0725  0.3042  1.1064
 1039TIP3   OH2 3122   2.000   3.756   1.051  0.0902 -0.5445  0.0367
 1039TIP3    H1 3123   2.074   3.809   1.082 -0.1808  0.4136 -0.8834
 1039TIP3    H2 3124   2.014   3.670   1.091  0.9161  0.0177  1.0338
 1040TIP3   OH2 3125   3.604   0.441   4.898  0.1678 -0.4314  0.3933
 1040TIP3    H1 3126   3.547   0.443   4.975  0.0715 -0.6366  0.3296
 1040TIP3    H2 3127   3.632   0.350   4.893 -1.7592 -1.0161 -1.2094
 1041TIP3   OH2 3128   1.433   5.806   1.476 -0.1663 -0.1892  0.7489
 1041TIP3    H1 3129   1.457   5.897   1.458  2.3395 -1.2073 -1.7418
 1041TIP3    H2 3130   1.340   5.811   1.500 -0.2365  2.9458  0.3555
 1042TIP3   OH2 3131   2.974   4.626   4.793  0.0697  0.4387  0.8618
 1042TIP3    H1 3132   3.023   4.551   4.826 -1.1459 -0.7782 -0.0074
 1042TIP3    H2 3133   2.933   4.594   4.713 -0.8113  1.9160  0.7020
 1043TIP3   OH2 3134   0.104   5.544   0.017  0.0081 -0.5341 -0.3030
 1043TIP3    H1 3135   0.031   5.484  -0.001 -0.4298  0.2604 -1.2134
 1043TIP3    H2 3136   0.069   5.606   0.081 -0.2911  0.1639 -1.1338
 1044TIP3   OH2 3137   2.734   5.734   3.570  0.2190  0.1551 -0.1316
 1044TIP3    H1 3138   2.713   5.641   3.582 -0.1610  0.3588  0.8939
 1044TIP3    H2 3139   2.703   5.755   3.482 -0.0747 -0.5867 -0.2121
 1045TIP3   OH2 3140   5.873   5.073   4.136  0.0588 -0.7889  0.0019
 1045TIP3    H1 3141   5.854   5.002   4.075  0.5811 -0.1286 -0.9637
 1045TIP3    H2 3142   5.815   5.144   4.110  0.3166 -0.4834  0.2431
 1046TIP3   OH2 3143   3.318   1.791   0.427 -0.2167  0.2568  0.4964
 1046TIP3    H1 3144   3.273   1.811   0.508 -0.9203  1.1461 -0.0903
 1046TIP3    H2 3145   3.295   1.864   0.368  1.0106  0.1049 -0.2015
 1047TIP3   OH2 3146   1.985   4.071   0.682 -0.0640 -0.4564  0.9523
 1047TIP3    H1 3147   1.967   3.981   0.710 -3.1984  0.3014  1.7514
 1047TIP3    H2 3148   1.990   4.121   0.763  0.2644  0.3186  0.4654
 1048TIP3   OH2 3149   4.000   0.400   0.494 -0.2211 -0.1418  0.1385
 1048TIP3    H1 3150   4.084   0.362   0.468 -1.3287 -1.8874 -1.0493
 1048TIP3    H2 3151   3.953   0.415   0.412 -1.5314 -0.2794  0.8288
 1049TIP3   OH2 3152   1.581   2.565   1.132  0.3824 -0.4581  0.3031
 1049TIP3    H1 3153   1.504   2.596   1.178 -0.2433  0.2118 -1.1270
 1049TIP3    H2 3154   1.556   2.479   1.098 -0.1623  0.2263 -1.0963
 1050TIP3   OH2 3155   1.786   0.672   2.361  0.2818 -0.3199  0.5709
 1050TIP3    H1 3156   1.862   0.711   2.405 -0.4395 -0.0762  1.6140
 1050TIP3    H2 3157   1.793   0.703   2.270  1.5631 -0.5108  0.5853
 1051TIP3   OH2 3158   2.708   4.817   5.149  0.3907  0.0163  0.0357
 1051TIP3    H1 3159   2.775   4.854   5.206 -0.2270 -1.2159  1.6526
 1051TIP3    H2 3160   2.628   4.863   5.173  0.2208 -0.1377 -0.2307
 1052TIP3   OH2 3161   0.160   4.248   1.229 -0.0726  1.0168  0.3480
 1052TIP3    H1 3162   0.086   4.260   1.170 -0.8516 -0.0997  1.0570
 1052TIP3    H2 3163   0.228   4.209   1.174 -1.6258 -2.3831  0.6044
 1053TIP3   OH2 3164   5.629   0.608   5.167 -0.2456 -0.1245 -0.0486
 1053TIP3    H1 3165   5.670   0.694   5.158 -1.1211  0.2538 -0.5638
 1053TIP3    H2 3166   5.582   0.595   5.084 -0.4318 -0.9321  0.1747
 1054TIP3   OH2 3167   4.420   2.045   0.623  0.2565 -0.0270  0.1394
 1054TIP3    H1 3168   4.454   2.120   0.575 -0.5182 -0.0272 -0.4390
 1054TIP3    H2 3169   4.327   2.066   0.637 -0.1054 -1.1225 -0.5308
 1055TIP3   OH2 3170   0.649   0.573   2.841 -0.3860 -0.1850 -0.0420
 1055TIP3    H1 3171   0.673   0.586   2.933  1.0439  0.5227 -0.4847
 1055TIP3    H2 3172   0.683   0.650   2.796 -0.7934 -0.6660 -1.2155
 1056TIP3   OH2 3173   2.938   3.993   1.197 -0.2031 -0.1097 -0.2562
 1056TIP3    H1 3174   2.985   4.040   1.128  1.1338  0.2553  0.8544
 1056TIP3    H2 3175   2.846   4.015   1.182  0.3620  3.1332  0.3353
 1057TIP3   OH2 3176   6.207   4.582   4.195  0.3832  0.4847 -0.1018
 1057TIP3    H1 3177   6.158   4.553   4.118  0.1706  3.2236 -1.0899
 1057TIP3    H2 3178   6.298   4.587   4.166  0.4440  0.6218  0.1041
 1058TIP3   OH2 3179   3.487   4.121   2.084 -0.0371  0.5235 -0.1570
 1058TIP3    H1 3180   3.567   4.095   2.130 -0.3175 -2.1932 -1.0299
 1058TIP3    H2 3181   3.519   4.163   2.004  0.5952 -1.1500 -0.8343
 1059TIP3   OH2 3182   0.184   5.093   2.733 -0.8318 -0.3285 -0.3150
 1059TIP3    H1 3183   0.111   5.153   2.744 -2.5764 -2.3976  0.2095
 1059TIP3    H2 3184   0.176   5.062   2.643  1.1666  1.4674 -1.2094
 1060TIP3   OH2 3185   5.018   0.678   3.876 -0.1344 -0.5358  0.4735
 1060TIP3    H1 3186   4.931   0.709   3.902 -1.0527 -2.4600 -0.1756
 1060TIP3    H2 3187   5.005   0.637   3.791  1.7256  0.4549 -0.3462
 1061TIP3   OH2 3188   4.257   1.183   3.341 -0.5135 -0.2661  0.6740
 1061TIP3    H1 3189   4.221   1.247   3.280  1.4660 -0.3415 -0.6632
 1061TIP3    H2 3190   4.304   1.235   3.406  1.0382 -0.2933 -0.3747
 1062TIP3   OH2 3191   5.422   4.451   0.330 -0.4648 -0.0730 -0.1571
 1062TIP3    H1 3192   5.421   4.452   0.235 -2.2588 -0.2241 -0.1828
 1062TIP3    H2 3193   5.513   4.433   0.354  0.1234  0.5362 -1.8165
 1063TIP3   OH2 3194   1.537   4.083   1.197 -0.3829 -0.5291  0.4858
 1063TIP3    H1 3195   1.483   4.107   1.273 -0.6166 -1.2980  0.5730
 1063TIP3    H2 3196   1.473   4.066   1.128 -0.2192 -0.7930  0.3998
 1064TIP3   OH2 3197   0.259   4.105   0.826  0.1672 -0.1022  0.1695
 1064TIP3    H1 3198   0.287   4.155   0.749  0.3681 -1.2807 -0.5583
 1064TIP3    H2 3199   0.164   4.102   0.819  0.0011  1.6699  1.2043
 1065TIP3   OH2 3200   0.595   5.453   3.260 -0.0389  0.0304 -0.1447
 1065TIP3    H1 3201   0.503   5.451   3.234 -0.3214  0.4692  0.7841
 1065TIP3    H2 3202   0.640   5.405   3.191 -0.9238  0.0671 -0.7682
 1066TIP3   OH2 3203   1.788   4.378   2.169 -0.2751  0.2680 -0.1754
 1066TIP3    H1 3204   1.723   4.311   2.194 -0.7969  1.1384  0.8884
 1066TIP3    H2 3205   1.843   4.387   2.247 -0.1288  0.9708 -0.3600
 1067TIP3   OH2 3206   4.713   5.711   2.046  0.7415 -0.3828 -0.2267
 1067TIP3    H1 3207   4.762   5.701   2.127 -2.4827 -1.7903  1.7592
 1067TIP3    H2 3208   4.652   5.783   2.063 -0.5371 -1.2242 -1.0399
 1068TIP3   OH2 3209   4.909   2.310   4.156  0.1488 -0.1970 -0.0083
 1068TIP3    H1 3210   4.852   2.301   4.080 -0.2583 -2.8222  0.5148
 1068TIP3    H2 3211   4.995   2.329   4.120 -0.7158  2.4806 -0.8759
 1069TIP3   OH2 3212   4.480   1.275   4.951 -0.3059  0.4422 -0.0538
 1069TIP3    H1 3213   4.512   1.362   4.975 -1.6209  0.4902  1.6544
 1069TIP3    H2 3214   4.560   1.226   4.929  0.4310  2.1567 -1.4516
 1070TIP3   OH2 3215   3.407   5.515   2.986  0.2089  0.0512 -0.0359
 1070TIP3    H1 3216   3.397   5.548   2.896 -0.8505  1.0294  0.4116
 1070TIP3    H2 3217   3.355   5.435   2.988  0.5949 -0.2164 -0.4007
 1071TIP3   OH2 3218   0.737   1.462   2.159  0.4653  0.0485 -0.1342
 1071TIP3    H1 3219   0.784   1.542   2.181  0.6716 -0.1590  0.2017
 1071TIP3    H2 3220   0.700   1.478   2.073 -0.3771  0.9083  0.3659
 1072TIP3   OH2 3221   0.241   1.062   4.002  0.6707  0.0364 -0.1991
 1072TIP3    H1 3222   0.169   1.119   4.031  0.6169 -1.0200  1.9672
 1072TIP3    H2 3223   0.305   1.066   4.074  1.1928 -1.6744 -0.5322
 1073TIP3   OH2 3224   1.086   2.151   0.256 -0.1300  0.0592  0.2896
 1073TIP3    H1 3225   1.097   2.214   0.185 -2.6025 -1.3807 -1.5039
 1073TIP3    H2 3226   1.112   2.067   0.218  0.8557 -0.4153  1.9017
 1074TIP3   OH2 3227   5.189   2.145   2.735 -0.1845  0.0963 -0.4339
 1074TIP3    H1 3228   5.264   2.088   2.754  0.4645  1.0589 -0.0511
 1074TIP3    H2 3229   5.120   2.113   2.792  0.1129 -0.4194 -0.3515
 1075TIP3   OH2 3230   0.037   4.547   4.764  0.1700 -0.2383 -0.1676
 1075TIP3    H1 3231   0.043   4.630   4.811  0.0460 -0.3541  0.0535
 1075TIP3    H2 3232  -0.050   4.548   4.724  0.1874 -0.2410 -0.2066
 1076TIP3   OH2 3233   2.842   4.518   4.572 -0.9190 -0.3448  0.2335
 1076TIP3    H1 3234   2.749   4.496   4.578 -0.8395 -1.3891 -1.6597
 1076TIP3    H2 3235   2.888   4.436   4.593 -0.5813 -1.5393 -4.2178
 1077TIP3   OH2 3236   2.902   2.784   1.419 -0.0196 -0.0028  0.1043
 1077TIP3    H1 3237   2.912   2.866   1.466 -1.8568  0.2574  0.1290
 1077TIP3    H2 3238   2.893   2.810   1.327 -1.3500 -0.0876  0.1941
 1078TIP3   OH2 3239   5.264   1.672   3.294 -0.1990  0.2920  0.5751
 1078TIP3    H1 3240   5.235   1.743   3.352 -0.4150  1.9106 -1.4089
 1078TIP3    H2 3241   5.192   1.663   3.231  0.2270 -1.1176  0.2603
 1079TIP3   OH2 3242   5.649   1.416   1.543  0.8682  0.1230  0.4422
 1079TIP3    H1 3243   5.671   1.332   1.584 -0.3406 -0.4141  0.0729
 1079TIP3    H2 3244   5.553   1.413   1.536  0.7427  1.8765  1.1192
 1080TIP3   OH2 3245   5.775   5.300   0.238 -0.5298  0.0810 -0.2064
 1080TIP3    H1 3246   5.733   5.374   0.193 -0.0627 -0.8689 -2.3088
 1080TIP3    H2 3247   5.746   5.309   0.329 -2.1609  1.6623 -0.8050
 1081TIP3   OH2 3248   5.012   2.686   1.452 -0.2802  0.1896 -0.0540
 1081TIP3    H1 3249   4.978   2.774   1.469  0.4760  0.4633  0.0821
 1081TIP3    H2 3250   5.087   2.699   1.393 -0.4803 -0.4091 -0.4555
 1082TIP3   OH2 3251   4.915   5.394   3.141 -0.3128  0.0688  0.2511
 1082TIP3    H1 3252   4.896   5.454   3.213  0.0167 -1.7930  1.9875
 1082TIP3    H2 3253   4.838   5.399   3.085 -0.0002  2.5779 -0.0683
 1083TIP3   OH2 3254   2.993   2.667   3.865 -0.0613  0.9117 -0.5193
 1083TIP3    H1 3255   2.933   2.706   3.803  0.9288  2.0007 -0.8208
 1083TIP3    H2 3256   3.041   2.601   3.814 -0.9100  0.0898 -0.2940
 1084TIP3   OH2 3257   4.738   0.853   0.091 -0.8848 -0.1475 -0.2203
 1084TIP3    H1 3258   4.742   0.922   0.025  0.0900  0.3115  0.2932
 1084TIP3    H2 3259   4.744   0.771   0.042  2.6499  0.2043 -0.5693
 1085TIP3   OH2 3260   6.189   0.233   2.231 -0.2775 -0.2400  0.0206
 1085TIP3    H1 3261   6.180   0.175   2.307 -0.8456  2.2682  2.0138
 1085TIP3    H2 3262   6.260   0.292   2.255 -1.2003  1.2929 -0.8979
 1086TIP3   OH2 3263   1.005   4.342   0.714 -0.4752 -0.0778 -0.7533
 1086TIP3    H1 3264   0.995   4.251   0.742 -0.5754  0.2180  0.1952
 1086TIP3    H2 3265   1.024   4.336   0.620 -0.7789 -1.0608 -0.7659
 1087TIP3   OH2 3266   2.993   3.594   1.773 -0.7914 -0.1950 -0.0279
 1087TIP3    H1 3267   3.019   3.682   1.746  0.3637 -0.0524  1.3844
 1087TIP3    H2 3268   3.015   3.538   1.699  0.6671  0.4054 -0.0805
 1088TIP3   OH2 3269   0.860   4.235   5.010 -0.5900 -0.2058 -0.0898
 1088TIP3    H1 3270   0.864   4.307   4.948  2.2434 -0.8712 -0.8195
 1088TIP3    H2 3271   0.934   4.250   5.069 -0.6202 -1.9004  0.4300
 1089TIP3   OH2 3272   0.761   1.479   0.148 -0.1379  0.0458 -0.1283
 1089TIP3    H1 3273   0.721   1.414   0.205 -0.7582  0.6673  0.1625
 1089TIP3    H2 3274   0.792   1.547   0.208 -2.5264  1.6575 -0.5958
 1090TIP3   OH2 3275   6.229   5.946   4.734  0.1559  0.2763  0.0683
 1090TIP3    H1 3276   6.308   5.997   4.748 -0.3641  1.3742 -0.8701
 1090TIP3    H2 3277   6.251   5.858   4.765  1.7909  0.5171 -0.3508
 1091TIP3   OH2 3278   4.031   2.689   0.168 -0.2247 -0.1700 -0.2512
 1091TIP3    H1 3279   4.049   2.778   0.200  0.0383  0.1311 -1.1842
 1091TIP3    H2 3280   3.991   2.703   0.082 -1.8984 -0.9306  0.3816
 1092TIP3   OH2 3281   0.555   2.144   2.463  0.1475  0.4247  0.0257
 1092TIP3    H1 3282   0.561   2.064   2.515 -1.5237  0.3549  0.1487
 1092TIP3    H2 3283   0.568   2.215   2.526  1.4555  0.2884 -0.0556
 1093TIP3   OH2 3284   5.539   4.790   4.018 -0.6496  1.3225 -0.6830
 1093TIP3    H1 3285   5.459   4.767   3.970  0.1321 -1.2398 -0.9300
 1093TIP3    H2 3286   5.538   4.732   4.094  0.5407  1.8892 -0.2176
 1094TIP3   OH2 3287   1.865   2.936   1.881  0.4613 -0.8315 -0.1191
 1094TIP3    H1 3288   1.808   2.974   1.814  1.1069 -1.3290 -0.9814
 1094TIP3    H2 3289   1.880   3.007   1.943 -1.1771 -0.7253  0.1975
 1095TIP3   OH2 3290   2.840   3.701   4.586 -0.3065 -0.2635 -0.0288
 1095TIP3    H1 3291   2.750   3.675   4.601 -0.5047  0.7307  0.5739
 1095TIP3    H2 3292   2.858   3.768   4.652 -0.1269  1.8144 -2.0668
 1096TIP3   OH2 3293   2.710   0.135   2.080  0.4085 -0.1814  0.3591
 1096TIP3    H1 3294   2.729   0.088   2.161 -1.0626 -1.5707 -0.0508
 1096TIP3    H2 3295   2.768   0.096   2.015 -0.6597 -1.3307  0.0667
 1097TIP3   OH2 3296   2.040   1.149   5.191  0.3377  0.0843  0.7670
 1097TIP3    H1 3297   2.046   1.220   5.128 -0.7738  0.5852  1.2003
 1097TIP3    H2 3298   2.098   1.081   5.157 -1.5100 -0.3547 -1.7117
 1098TIP3   OH2 3299   0.765   3.860   3.717 -0.4481 -0.1277  0.6154
 1098TIP3    H1 3300   0.847   3.812   3.710  0.0931  0.8275  0.1723
 1098TIP3    H2 3301   0.705   3.813   3.659 -0.0012 -0.4022  0.3659
 1099TIP3   OH2 3302   1.697   1.183   3.519  0.2495  0.3280  0.1582
 1099TIP3    H1 3303   1.673   1.269   3.484 -0.1366  0.8859  1.7210
 1099TIP3    H2 3304   1.618   1.154   3.565  0.3361 -0.9429 -0.4669
 1100TIP3   OH2 3305   3.103   5.127   2.169 -0.5281 -0.1763  0.4912
 1100TIP3    H1 3306   3.154   5.048   2.150 -1.7540 -0.9281  0.1956
 1100TIP3    H2 3307   3.052   5.143   2.090 -0.1946  1.0220  0.4936
 1101TIP3   OH2 3308   0.819   4.465   2.934 -0.5517  0.2538 -0.0287
 1101TIP3    H1 3309   0.744   4.503   2.888 -0.6416 -0.3266 -0.3627
 1101TIP3    H2 3310   0.781   4.394   2.987 -0.5446  1.2717  1.4013
 1102TIP3   OH2 3311   2.751   2.352   0.184 -0.6336 -0.5723  0.6030
 1102TIP3    H1 3312   2.760   2.332   0.091 -1.5359 -0.5725  0.5075
 1102TIP3    H2 3313   2.841   2.366   0.215 -0.3692 -0.1065 -0.3701
 1103TIP3   OH2 3314   0.048   2.902   0.734  0.1843 -0.0276  0.1016
 1103TIP3    H1 3315   0.141   2.890   0.753  0.0127 -1.1931  0.2330
 1103TIP3    H2 3316   0.021   2.820   0.693 -0.7363  0.3971 -0.1680
 1104TIP3   OH2 3317   6.316   4.338   5.007 -0.0516  0.3059  0.2114
 1104TIP3    H1 3318   6.239   4.377   5.048 -1.4329 -0.2461 -1.7207
 1104TIP3    H2 3319   6.288   4.319   4.918  1.6933 -1.7854  0.0467
 1105TIP3   OH2 3320   6.016   3.564   1.247 -0.8171 -0.2275  0.1546
 1105TIP3    H1 3321   6.089   3.581   1.306 -0.6573 -1.1936  0.2533
 1105TIP3    H2 3322   5.952   3.632   1.267  0.1668  0.8024 -0.1340
 1106TIP3   OH2 3323   5.199   3.526   0.587 -0.0214 -0.6974  0.2448
 1106TIP3    H1 3324   5.246   3.593   0.636 -1.5718  1.1436 -0.6445
 1106TIP3    H2 3325   5.117   3.514   0.635 -0.2767 -1.0377 -0.2689
 1107TIP3   OH2 3326   0.793   3.061   3.656  0.0724 -0.3210 -0.1979
 1107TIP3    H1 3327   0.864   3.036   3.715  0.6968 -0.4356 -0.9712
 1107TIP3    H2 3328   0.716   3.069   3.712  0.9541  1.1025  0.8954
 1108TIP3   OH2 3329   1.664   0.846   2.644  0.3412 -0.4029 -0.3398
 1108TIP3    H1 3330   1.688   0.758   2.670 -1.3087 -1.0068 -0.7469
 1108TIP3    H2 3331   1.599   0.834   2.575  0.3928  1.1306 -0.6905
 1109TIP3   OH2 3332   3.519   1.115   1.977 -0.0683  0.6184  0.3291
 1109TIP3    H1 3333   3.609   1.109   2.011 -0.8452 -0.4964  2.3747
 1109TIP3    H2 3334   3.489   1.025   1.975 -0.5497  0.7819 -2.2062
 1110TIP3   OH2 3335   4.353   4.734   3.221 -0.4328  0.1702  0.1214
 1110TIP3    H1 3336   4.446   4.712   3.228 -0.4969 -0.6090 -1.1025
 1110TIP3    H2 3337   4.309   4.672   3.279 -0.3344 -0.8266 -0.8296
 1111TIP3   OH2 3338   3.004   3.090   4.540  0.0038  0.4678  0.4013
 1111TIP3    H1 3339   2.909   3.096   4.533  0.0745 -0.1917 -2.0172
 1111TIP3    H2 3340   3.023   2.996   4.538  0.7509  0.6159 -0.0450
 1112TIP3   OH2 3341   3.743   4.946   0.062 -0.6669 -0.2897 -0.2105
 1112TIP3    H1 3342   3.803   4.880   0.028 -0.4506 -0.0354 -0.3182
 1112TIP3    H2 3343   3.778   5.030   0.032 -0.1437 -0.0069  1.0908
 1113TIP3   OH2 3344   3.641   0.908   1.457 -0.1901  0.5342 -0.4901
 1113TIP3    H1 3345   3.729   0.945   1.463  0.2049 -0.4149 -0.1557
 1113TIP3    H2 3346   3.589   0.958   1.521  0.7487 -0.5946  1.2401
 1114TIP3   OH2 3347   5.673   3.528   4.352 -0.3297  0.1082 -0.3433
 1114TIP3    H1 3348   5.679   3.445   4.399 -0.1274 -0.0830 -0.7025
 1114TIP3    H2 3349   5.664   3.594   4.421 -2.1049 -0.3481 -0.1032
 1115TIP3   OH2 3350   0.914   4.496   4.455  0.0331 -0.0953  0.7634
 1115TIP3    H1 3351   0.963   4.530   4.530 -0.5185  1.3692  0.4925
 1115TIP3    H2 3352   0.822   4.499   4.482 -0.1613  0.3016  0.1073
 1116TIP3   OH2 3353   5.334   0.223   3.123  0.4056  0.4056  0.8811
 1116TIP3    H1 3354   5.240   0.211   3.141  0.1647  0.1496 -0.4718
 1116TIP3    H2 3355   5.368   0.134   3.113 -0.0338  0.5038 -2.5033
 1117TIP3   OH2 3356   6.023   5.435   1.387 -0.1864  0.0346  0.3893
 1117TIP3    H1 3357   6.043   5.455   1.478 -0.6099  0.2848  0.4324
 1117TIP3    H2 3358   5.931   5.408   1.388 -0.2979  0.3747 -0.0075
 1118TIP3   OH2 3359   5.550   0.978   3.846  0.2244 -0.2212 -0.0470
 1118TIP3    H1 3360   5.518   0.929   3.923 -1.3846  3.0504  1.5797
 1118TIP3    H2 3361   5.645   0.979   3.857  0.2559 -2.1847  0.2989
 1119TIP3   OH2 3362   3.872   3.855   2.460  0.6235 -0.3033  0.6692
 1119TIP3    H1 3363   3.857   3.783   2.400  0.4833  0.1907  0.1031
 1119TIP3    H2 3364   3.806   3.843   2.529 -0.9091  0.5422 -0.5939
 1120TIP3   OH2 3365   5.878   1.294   1.321 -0.0580  0.1371  0.1646
 1120TIP3    H1 3366   5.914   1.323   1.406 -0.6289  1.9796 -0.1742
 1120TIP3    H2 3367   5.856   1.202   1.335  2.5871 -0.4459  1.0974
 1121TIP3   OH2 3368   3.595   5.649   2.418 -0.8027  0.0108 -0.2202
 1121TIP3    H1 3369   3.600   5.577   2.481  3.7049  1.4501  1.4804
 1121TIP3    H2 3370   3.557   5.722   2.467  0.0812  0.3566 -0.0369
 1122TIP3   OH2 3371   1.459   3.821   3.516  0.3163 -0.1675  0.1131
 1122TIP3    H1 3372   1.399   3.891   3.540 -0.1836 -0.0371 -1.3846
 1122TIP3    H2 3373   1.539   3.867   3.489 -0.7994  0.1176 -3.2220
 1123TIP3   OH2 3374   2.447   1.772   1.268  1.0372 -0.5425  0.2600
 1123TIP3    H1 3375   2.520   1.711   1.279  2.4466  0.6063 -2.0588
 1123TIP3    H2 3376   2.487   1.859   1.281 -0.0375  0.0713 -0.4239
 1124TIP3   OH2 3377   0.186   0.389   1.279  0.0134  0.0448  0.6037
 1124TIP3    H1 3378   0.131   0.382   1.358 -0.4909 -1.1370  0.1699
 1124TIP3    H2 3379   0.233   0.306   1.276 -0.9374 -0.4764 -1.0244
 1125TIP3   OH2 3380   0.958   5.327   3.178 -0.1787 -0.0435 -0.4368
 1125TIP3    H1 3381   0.958   5.285   3.092 -0.4249  0.1511 -0.5321
 1125TIP3    H2 3382   0.970   5.420   3.159  1.9047 -0.2029 -0.1676
 1126TIP3   OH2 3383   1.903   2.840   3.513 -0.2685 -0.1867  0.3298
 1126TIP3    H1 3384   1.959   2.772   3.550 -0.3071  0.3196  1.3620
 1126TIP3    H2 3385   1.814   2.810   3.532 -0.2751  0.5149  1.5180
 1127TIP3   OH2 3386   5.593   2.104   3.985 -0.7512 -0.2127  0.3966
 1127TIP3    H1 3387   5.632   2.079   3.901  1.2042 -0.1605  1.2353
 1127TIP3    H2 3388   5.549   2.024   4.015 -1.1498 -0.3404 -0.4939
 1128TIP3   OH2 3389   3.086   1.040   4.903  0.0351 -0.0390  0.4108
 1128TIP3    H1 3390   3.026   0.976   4.864  1.4124 -1.0126 -0.1973
 1128TIP3    H2 3391   3.133   1.077   4.828  1.5275 -0.6927  0.9901
 1129TIP3   OH2 3392   1.223   3.424   4.789  0.6580 -0.0922 -0.9456
 1129TIP3    H1 3393   1.159   3.495   4.796  1.2851  0.4759 -0.8677
 1129TIP3    H2 3394   1.308   3.468   4.792  1.0558 -0.8437 -0.9680
 1130TIP3   OH2 3395   3.359   1.620   1.282  0.3959 -0.2843  0.5122
 1130TIP3    H1 3396   3.420   1.663   1.222  0.6965  0.7091  1.4806
 1130TIP3    H2 3397   3.413   1.557   1.330  0.7791  0.8159  1.5903
 1131TIP3   OH2 3398   1.593   3.162   3.545  0.3167  0.0603  0.2913
 1131TIP3    H1 3399   1.521   3.127   3.492  1.1928 -1.5950  0.1141
 1131TIP3    H2 3400   1.671   3.149   3.492  0.8156  1.5336  0.6152
 1132TIP3   OH2 3401   0.109   2.516   1.489 -0.1838  0.0288 -0.2501
 1132TIP3    H1 3402   0.075   2.511   1.399 -2.3195 -1.5187  0.5608
 1132TIP3    H2 3403   0.040   2.477   1.543  1.3183  0.3181  2.0121
 1133TIP3   OH2 3404   0.426   4.954   4.891 -0.2940 -0.1252 -0.0805
 1133TIP3    H1 3405   0.505   4.994   4.927  0.1908 -0.5986 -0.5915
 1133TIP3    H2 3406   0.370   5.028   4.866 -0.6591  0.2207  1.6317
 1134TIP3   OH2 3407   3.322   2.728   4.684 -0.1965  0.0087 -0.0547
 1134TIP3    H1 3408   3.261   2.791   4.724  1.1493  1.2906  0.0496
 1134TIP3    H2 3409   3.274   2.695   4.607 -1.4627  0.1022  0.6595
 1135TIP3   OH2 3410   5.767   4.654   1.542  0.2375 -0.9663 -0.2672
 1135TIP3    H1 3411   5.688   4.635   1.592  0.1869  1.0547  0.5183
 1135TIP3    H2 3412   5.824   4.701   1.603  1.3982 -1.0053 -1.2782
 1136TIP3   OH2 3413   4.567   4.540   0.436  0.3506 -0.3332 -0.1125
 1136TIP3    H1 3414   4.594   4.450   0.454  0.0762 -0.2902  0.5478
 1136TIP3    H2 3415   4.629   4.595   0.483 -0.3727 -0.2158  0.7278
 1137TIP3   OH2 3416   3.321   2.727   3.767  0.2708 -0.7734  0.7224
 1137TIP3    H1 3417   3.385   2.664   3.798  0.2285 -2.1880 -1.8226
 1137TIP3    H2 3418   3.252   2.674   3.727  0.0321  0.8255 -1.1533
 1138TIP3   OH2 3419   3.691   2.711   0.109 -0.1291  0.0820 -0.2781
 1138TIP3    H1 3420   3.710   2.720   0.015  1.3976 -1.3844 -0.1585
 1138TIP3    H2 3421   3.731   2.787   0.150  0.1617  0.1644 -0.7110
 1139TIP3   OH2 3422   0.263   2.754   0.230 -0.7122  0.5684 -0.5020
 1139TIP3    H1 3423   0.177   2.747   0.273 -1.0480  1.6711 -0.9579
 1139TIP3    H2 3424   0.249   2.717   0.143 -0.7586  0.8500 -0.6151
 1140TIP3   OH2 3425   2.139   1.534   3.840  0.4184 -0.4344 -0.3129
 1140TIP3    H1 3426   2.158   1.468   3.773  0.8955 -1.6350  0.9567
 1140TIP3    H2 3427   2.199   1.514   3.911  0.2505  1.1127  0.3049
 1141TIP3   OH2 3428   0.292   1.583   4.654  0.7106 -0.8753  0.3570
 1141TIP3    H1 3429   0.276   1.555   4.744  0.3738  0.5148  0.7675
 1141TIP3    H2 3430   0.350   1.659   4.663 -0.5311  0.2219 -0.4682
 1142TIP3   OH2 3431   1.163   2.355   1.506  0.0354  0.1275 -0.3159
 1142TIP3    H1 3432   1.200   2.444   1.509 -0.0530  0.2736 -2.1068
 1142TIP3    H2 3433   1.121   2.350   1.420 -2.1713 -0.8202  0.7544
 1143TIP3   OH2 3434   4.883   5.285   1.826 -0.1863  0.0162 -0.1860
 1143TIP3    H1 3435   4.965   5.263   1.869 -0.7570 -0.0006  0.9519
 1143TIP3    H2 3436   4.867   5.376   1.850 -0.7055 -0.1092 -0.0256
 1144TIP3   OH2 3437   3.605   0.552   1.035 -0.5630  0.1424  0.1577
 1144TIP3    H1 3438   3.524   0.529   0.989 -0.8304  1.0603  0.1465
 1144TIP3    H2 3439   3.669   0.566   0.965 -0.0652 -1.6782  0.1998
 1145TIP3   OH2 3440   0.981   4.779   2.477 -0.1025  0.5781  0.2444
 1145TIP3    H1 3441   1.073   4.758   2.494 -0.6703 -2.0143  0.4713
 1145TIP3    H2 3442   0.941   4.785   2.564 -0.6675 -1.1155  0.1385
 1146TIP3   OH2 3443   2.145   2.521   1.309  0.6295 -0.5870 -0.1549
 1146TIP3    H1 3444   2.058   2.493   1.337  1.0135 -1.2721  0.3687
 1146TIP3    H2 3445   2.192   2.440   1.291 -0.0511 -0.2559 -4.3926
 1147TIP3   OH2 3446   5.498   2.862   0.204 -0.2259  0.7892  0.6328
 1147TIP3    H1 3447   5.406   2.889   0.198  0.0555  1.4271 -1.6777
 1147TIP3    H2 3448   5.541   2.932   0.253 -0.8322  0.8241  1.1300
 1148TIP3   OH2 3449   2.142   4.113   3.961 -0.6484  0.6260 -0.0972
 1148TIP3    H1 3450   2.131   4.152   4.048  0.0547  0.8398 -0.0950
 1148TIP3    H2 3451   2.237   4.100   3.952 -0.5804  1.7201 -1.3061
 1149TIP3   OH2 3452   0.446   4.945   3.251  0.1093  0.1489  0.0531
 1149TIP3    H1 3453   0.417   5.033   3.226  0.3237  0.5859  1.3068
 1149TIP3    H2 3454   0.369   4.905   3.292  0.5277  0.4162  1.1287
 1150TIP3   OH2 3455   2.561   1.936   2.161  0.2696  0.3112 -0.2819
 1150TIP3    H1 3456   2.617   2.008   2.131  1.3159  0.5576  2.0518
 1150TIP3    H2 3457   2.486   1.979   2.202  0.6679  0.0847  0.7028
 1151TIP3   OH2 3458   5.459   0.543   3.562 -0.1390 -0.2446 -0.0397
 1151TIP3    H1 3459   5.501   0.461   3.534 -0.8046 -0.9081  0.8926
 1151TIP3    H2 3460   5.377   0.516   3.603 -0.2794  0.8807  0.4508
 1152TIP3   OH2 3461   3.440   0.206   4.031  0.5133  0.5256  0.3405
 1152TIP3    H1 3462   3.399   0.252   3.957  2.0694  2.7720  0.7766
 1152TIP3    H2 3463   3.450   0.274   4.098  1.9165 -0.7470  1.4732
 1153TIP3   OH2 3464   4.751   3.790   1.671  0.2539  0.0883  0.4120
 1153TIP3    H1 3465   4.667   3.827   1.643  0.2067  1.1402  1.8116
 1153TIP3    H2 3466   4.810   3.865   1.677  1.4723 -0.7117 -1.0345
 1154TIP3   OH2 3467   2.068   2.389   2.426 -0.0037  0.4871  0.1959
 1154TIP3    H1 3468   2.067   2.293   2.418 -0.9104  0.5300 -0.4266
 1154TIP3    H2 3469   1.998   2.418   2.368 -1.0235  1.4242  1.8183
 1155TIP3   OH2 3470   5.585   5.928   2.073  0.1823  0.1751 -0.2517
 1155TIP3    H1 3471   5.654   5.995   2.073  1.4692 -1.0848  1.4164
 1155TIP3    H2 3472   5.550   5.929   2.162 -0.0913 -1.0602 -0.3318
 1156TIP3   OH2 3473   1.728   1.265   2.638  0.0913 -0.1957  0.1135
 1156TIP3    H1 3474   1.738   1.191   2.577  0.7575 -0.2134  0.2339
 1156TIP3    H2 3475   1.818   1.287   2.663 -0.1913 -0.4554  1.4065
 1157TIP3   OH2 3476   1.613   3.337   4.461 -0.0263 -0.4851 -0.3216
 1157TIP3    H1 3477   1.562   3.378   4.392  0.4322 -2.1166 -1.7070
 1157TIP3    H2 3478   1.627   3.247   4.430  1.1738 -0.9311  1.3730
 1158TIP3   OH2 3479   5.259   1.042   4.478 -1.0707  0.4067  0.1602
 1158TIP3    H1 3480   5.339   1.075   4.520  1.6443 -3.3647 -1.4383
 1158TIP3    H2 3481   5.227   0.975   4.537 -0.5117 -0.9807 -1.0330
 1159TIP3   OH2 3482   5.638   4.862   0.323  0.6890  0.3132 -0.1844
 1159TIP3    H1 3483   5.612   4.954   0.318  1.4333  0.7097  2.2063
 1159TIP3    H2 3484   5.556   4.814   0.333  0.4311  0.9330  0.7748
 1160TIP3   OH2 3485   0.546   1.003   1.424  0.2751  0.3020 -0.3158
 1160TIP3    H1 3486   0.583   0.945   1.357 -1.1547  0.1160 -0.9688
 1160TIP3    H2 3487   0.489   1.062   1.375 -2.5049 -1.1914  0.9234
 1161TIP3   OH2 3488   2.792   2.086   2.144 -0.0075  0.0333 -0.1796
 1161TIP3    H1 3489   2.838   2.128   2.217  0.5081 -0.2695 -0.3219
 1161TIP3    H2 3490   2.833   2.124   2.066  0.2777 -0.5360 -0.3092
 1162TIP3   OH2 3491   4.188   4.475   0.250  0.0299 -0.1440  0.3712
 1162TIP3    H1 3492   4.157   4.406   0.309 -1.2667 -0.1174 -0.2416
 1162TIP3    H2 3493   4.250   4.431   0.191 -0.6215 -0.7455  0.1266
 1163TIP3   OH2 3494   1.720   3.438   2.025  0.0611  0.0803 -0.0421
 1163TIP3    H1 3495   1.742   3.531   2.016  0.1162 -0.0061 -0.8346
 1163TIP3    H2 3496   1.781   3.393   1.968  0.2400 -0.4780  0.5844
 1164TIP3   OH2 3497   3.886   0.188   0.675  0.1082  0.4246 -0.3345
 1164TIP3    H1 3498   3.931   0.254   0.621  3.2870 -1.2001  0.0934
 1164TIP3    H2 3499   3.863   0.119   0.613  3.0631 -1.0874  0.0822
 1165TIP3   OH2 3500   2.563   4.088   1.944 -0.4187 -0.2106  0.8144
 1165TIP3    H1 3501   2.484   4.122   1.986 -1.4837 -2.2977  0.6319
 1165TIP3    H2 3502   2.540   3.999   1.917  0.2198  0.8312 -4.0637
 1166TIP3   OH2 3503   3.391   3.526   0.863 -0.2020  0.2089  0.9660
 1166TIP3    H1 3504   3.435   3.519   0.948 -0.6736  0.3374  1.2238
 1166TIP3    H2 3505   3.348   3.612   0.865  0.8718  0.8055  0.0681
 1167TIP3   OH2 3506   6.115   2.926   2.082  0.3896  0.0614  0.2925
 1167TIP3    H1 3507   6.069   3.008   2.062 -2.2693 -0.6485  2.8015
 1167TIP3    H2 3508   6.172   2.949   2.155  2.2150  0.3346 -1.1449
 1168TIP3   OH2 3509   1.336   5.250   2.505 -0.2665  0.5233 -0.3173
 1168TIP3    H1 3510   1.336   5.298   2.423  1.6133  0.0936 -0.6142
 1168TIP3    H2 3511   1.326   5.158   2.480 -1.6113  0.5262  0.0994
 1169TIP3   OH2 3512   2.142   3.636   2.308  0.4316 -0.3643 -0.4385
 1169TIP3    H1 3513   2.109   3.725   2.293  0.8104 -0.1345  0.0671
 1169TIP3    H2 3514   2.237   3.647   2.316  0.4445 -0.7630 -0.0131
 1170TIP3   OH2 3515   0.900   2.926   1.211 -0.0461  0.9675  0.9434
 1170TIP3    H1 3516   0.988   2.931   1.249  0.2438 -1.2924  0.6881
 1170TIP3    H2 3517   0.854   2.863   1.265  0.1876 -1.9220 -1.9516
 1171TIP3   OH2 3518   5.747   3.970   2.466  0.1043 -0.5365 -0.2739
 1171TIP3    H1 3519   5.840   3.953   2.476  0.6491  2.1211  0.0120
 1171TIP3    H2 3520   5.715   3.985   2.555 -0.4277 -0.7118 -0.4304
 1172TIP3   OH2 3521   1.711   3.898   1.697 -0.0751  0.0580 -0.0950
 1172TIP3    H1 3522   1.721   3.991   1.677  2.6032 -0.2641 -0.6536
 1172TIP3    H2 3523   1.727   3.853   1.614  1.2010 -0.9629  0.6611
 1173TIP3   OH2 3524   4.039   5.766   2.546  0.0227  0.0289  0.0973
 1173TIP3    H1 3525   4.023   5.803   2.633 -0.9952  1.6882 -0.7498
 1173TIP3    H2 3526   3.956   5.776   2.500  0.5756 -0.7416 -1.1137
 1174TIP3   OH2 3527   6.167   0.087   2.479  0.0277 -0.5806  0.4365
 1174TIP3    H1 3528   6.182   0.009   2.533 -0.7113 -0.2535  1.1291
 1174TIP3    H2 3529   6.072   0.097   2.478  0.1263  0.4585  0.5702
 1175TIP3   OH2 3530   4.810   3.100   5.084 -0.5623  0.2902 -0.1941
 1175TIP3    H1 3531   4.874   3.107   5.013  1.1798  0.7043  1.3492
 1175TIP3    H2 3532   4.797   3.190   5.114 -1.1575  0.1009  0.1354
 1176TIP3   OH2 3533   1.193   3.525   1.909 -0.0554  0.2952 -0.4859
 1176TIP3    H1 3534   1.207   3.516   2.003 -2.3105 -0.8740 -0.1922
 1176TIP3    H2 3535   1.200   3.619   1.893  1.1439  0.4436  0.6706
 1177TIP3   OH2 3536   6.308   4.917   2.135 -0.0379  0.1697  0.1396
 1177TIP3    H1 3537   6.356   5.000   2.133  1.2932 -0.5758  0.1021
 1177TIP3    H2 3538   6.251   4.924   2.212  1.6054  0.2933  1.3926
 1178TIP3   OH2 3539   4.643   4.983   3.384 -0.4589 -0.3091 -0.5303
 1178TIP3    H1 3540   4.549   5.001   3.398 -0.1401  1.3818 -0.3274
 1178TIP3    H2 3541   4.659   5.010   3.293 -0.2151 -0.8649 -0.6562
 1179TIP3   OH2 3542   4.101   3.203   3.325  0.5661 -0.1793  0.0363
 1179TIP3    H1 3543   4.143   3.147   3.260  0.2634 -0.0296 -0.2937
 1179TIP3    H2 3544   4.008   3.181   3.320  0.4246  0.4434 -0.1923
 1180TIP3   OH2 3545   5.923   2.608   2.278  0.2569  0.0246  0.4398
 1180TIP3    H1 3546   5.841   2.568   2.248  0.5424 -0.9948  0.9756
 1180TIP3    H2 3547   5.896   2.689   2.321 -0.2350  1.0749 -1.7281
 1181TIP3   OH2 3548   0.972   3.408   4.434  0.1927 -0.3176  0.5305
 1181TIP3    H1 3549   0.921   3.479   4.394 -0.7965 -0.8535  0.8224
 1181TIP3    H2 3550   0.976   3.341   4.366 -0.1100 -0.5697  0.7608
 1182TIP3   OH2 3551   3.652   3.076   5.111 -0.8178  0.4293 -0.2847
 1182TIP3    H1 3552   3.716   3.036   5.171 -1.8696 -1.2837 -0.2293
 1182TIP3    H2 3553   3.702   3.139   5.060  0.4900  0.5917  1.1371
 1183TIP3   OH2 3554   4.801   4.216   1.495 -0.7237 -0.1008 -0.4587
 1183TIP3    H1 3555   4.744   4.292   1.490  0.5441  0.8506 -1.1491
 1183TIP3    H2 3556   4.746   4.142   1.469 -2.2478  0.3849  1.1674
 1184TIP3   OH2 3557   4.899   4.068   1.204 -0.4587 -0.4206  0.1266
 1184TIP3    H1 3558   4.871   4.159   1.197 -0.2620 -0.3647  0.0774
 1184TIP3    H2 3559   4.983   4.072   1.250 -0.9362 -0.6567  1.0521
 1185TIP3   OH2 3560   4.905   1.387   0.299  0.0492  0.4113 -0.0014
 1185TIP3    H1 3561   4.975   1.423   0.354  0.5869  0.3042 -0.6038
 1185TIP3    H2 3562   4.846   1.460   0.285  0.0424  0.5082  0.5036
 1186TIP3   OH2 3563   5.988   3.166   1.394  0.0224  0.4499  0.0116
 1186TIP3    H1 3564   6.071   3.174   1.346  0.0438  0.5042  0.0570
 1186TIP3    H2 3565   5.926   3.220   1.343 -0.1566 -0.1412 -0.4053
 1187TIP3   OH2 3566   5.451   3.801   0.121  0.0045  0.0869 -0.8133
 1187TIP3    H1 3567   5.433   3.707   0.123 -0.9976  0.2723 -0.2679
 1187TIP3    H2 3568   5.381   3.837   0.065 -1.4340  0.8419  1.3339
 1188TIP3   OH2 3569   3.612   4.974   0.533 -0.0835 -0.5593  0.1207
 1188TIP3    H1 3570   3.522   4.963   0.502  0.0787 -0.4178 -0.4109
 1188TIP3    H2 3571   3.662   4.992   0.454  0.9612 -3.6071 -0.0319
 1189TIP3   OH2 3572   3.681   0.937   3.191 -0.3279 -0.8658 -0.1680
 1189TIP3    H1 3573   3.618   1.009   3.188  0.9862  0.4491  1.3677
 1189TIP3    H2 3574   3.701   0.927   3.285  1.1269 -1.7771 -0.5467
 1190TIP3   OH2 3575   4.691   2.538   3.301 -0.0854 -0.3530  0.2333
 1190TIP3    H1 3576   4.637   2.482   3.246 -0.0944 -0.2894  0.1773
 1190TIP3    H2 3577   4.629   2.587   3.355 -0.2765  1.7767 -1.7494
 1191TIP3   OH2 3578   5.465   3.560   1.950 -0.5752  0.4636  0.2368
 1191TIP3    H1 3579   5.444   3.491   1.887  1.6475 -1.0583  1.0339
 1191TIP3    H2 3580   5.542   3.604   1.914 -0.2920  0.6886  1.0789
 1192TIP3   OH2 3581   5.624   5.421   1.121  0.3549  0.0484 -0.5799
 1192TIP3    H1 3582   5.566   5.497   1.123  0.4818  0.1431 -0.5298
 1192TIP3    H2 3583   5.620   5.391   1.030 -0.5098 -0.5146 -0.3708
 1193TIP3   OH2 3584   4.421   1.531   3.235 -0.1239  0.7177  0.5663
 1193TIP3    H1 3585   4.445   1.451   3.281 -0.8686 -0.7575 -1.4574
 1193TIP3    H2 3586   4.326   1.535   3.242 -0.1279  1.1954  0.2894
 1194TIP3   OH2 3587   4.505   4.071   4.591  0.1357  0.0521 -0.1330
 1194TIP3    H1 3588   4.547   4.093   4.507  0.9646 -0.6314  0.0775
 1194TIP3    H2 3589   4.526   4.145   4.648 -0.4106  0.5104 -0.5177
 1195TIP3   OH2 3590   0.267   3.014   4.953 -0.5457  0.3197 -0.6240
 1195TIP3    H1 3591   0.194   2.987   5.008 -0.3233  0.3607 -0.3019
 1195TIP3    H2 3592   0.332   2.944   4.964  0.9495  1.8996  1.9397
 1196TIP3   OH2 3593   1.386   4.983   2.066  0.2392  0.8664  0.5873
 1196TIP3    H1 3594   1.330   4.932   2.124  0.4045 -0.2097 -0.1539
 1196TIP3    H2 3595   1.469   4.990   2.113  0.8843 -1.3243 -0.0756
 1197TIP3   OH2 3596   5.613   5.495   1.894 -0.0424  0.0302 -0.1733
 1197TIP3    H1 3597   5.618   5.572   1.951 -0.3383 -0.1806  0.1378
 1197TIP3    H2 3598   5.519   5.483   1.879  0.0520  1.1501 -2.1557
 1198TIP3   OH2 3599   3.239   0.621   1.592  0.0378 -0.0202  0.2040
 1198TIP3    H1 3600   3.284   0.650   1.512 -0.3230 -1.0149 -0.3868
 1198TIP3    H2 3601   3.146   0.636   1.573 -0.4026 -3.3500 -1.0079
 1199TIP3   OH2 3602   0.521   3.268   1.349 -0.2719 -0.2865 -0.1165
 1199TIP3    H1 3603   0.483   3.185   1.378 -2.7357  0.5844 -0.6292
 1199TIP3    H2 3604   0.550   3.310   1.430 -1.6105 -0.4591  0.4793
 1200TIP3   OH2 3605   0.342   4.276   0.612 -0.0579 -0.3474  0.7083
 1200TIP3    H1 3606   0.304   4.236   0.534 -0.3525 -0.8980  1.1285
 1200TIP3    H2 3607   0.328   4.369   0.601 -0.2462 -0.4365  0.1818
 1201TIP3   OH2 3608   4.502   5.520   0.932 -0.4193  0.2335  0.0112
 1201TIP3    H1 3609   4.455   5.583   0.987 -0.0172 -0.1558  0.8145
 1201TIP3    H2 3610   4.442   5.502   0.859 -0.2554  2.0612 -0.6052
 1202TIP3   OH2 3611   0.445   3.966   3.696 -0.5310  0.1048 -0.1780
 1202TIP3    H1 3612   0.420   3.905   3.766  0.3623 -0.7514 -0.5733
 1202TIP3    H2 3613   0.537   3.985   3.712 -0.7199  1.1199 -0.2476
 1203TIP3   OH2 3614   0.730   3.626   3.041  0.7943 -0.0348  0.0771
 1203TIP3    H1 3615   0.805   3.658   3.091  1.1385  2.2257 -1.7137
 1203TIP3    H2 3616   0.769   3.591   2.961 -0.0227  1.9502 -1.2640
 1204TIP3   OH2 3617   6.251   5.038   3.090  0.3211  0.5326  0.7842
 1204TIP3    H1 3618   6.289   5.109   3.141  0.8511 -0.9633  2.5766
 1204TIP3    H2 3619   6.162   5.028   3.124  0.3410  0.1648  0.7326
 1205TIP3   OH2 3620   1.768   5.232   1.754  0.2555 -0.2298  0.0016
 1205TIP3    H1 3621   1.782   5.324   1.775  0.7918 -0.5954  1.3753
 1205TIP3    H2 3622   1.676   5.216   1.776 -0.0474  0.1456 -0.9557
 1206TIP3   OH2 3623   3.664   3.838   0.908 -0.9213  0.1984 -0.4704
 1206TIP3    H1 3624   3.609   3.915   0.892  0.0127  0.9596 -0.0670
 1206TIP3    H2 3625   3.609   3.764   0.880 -1.8437  0.9942 -0.8347
 1207TIP3   OH2 3626   4.777   2.566   2.948  0.4352 -0.2843 -0.3372
 1207TIP3    H1 3627   4.871   2.581   2.941  0.8630 -1.7591  1.2978
 1207TIP3    H2 3628   4.769   2.499   3.016 -1.8285  0.0292 -0.2194
 1208TIP3   OH2 3629   1.374   1.244   1.786 -0.0491 -0.4937 -0.1543
 1208TIP3    H1 3630   1.399   1.171   1.730 -0.7908 -0.3625 -0.6632
 1208TIP3    H2 3631   1.457   1.285   1.810  0.2308  0.9962 -3.1954
 1209TIP3   OH2 3632   1.849   4.753   0.861 -0.5041 -0.6231 -0.5866
 1209TIP3    H1 3633   1.910   4.748   0.936 -0.4808  0.7583 -0.4824
 1209TIP3    H2 3634   1.902   4.790   0.790 -0.9810 -0.2716 -0.7639
 1210TIP3   OH2 3635   1.199   2.175   4.127 -0.6180 -0.5283 -0.3580
 1210TIP3    H1 3636   1.214   2.082   4.110 -1.3933 -0.7644  0.1937
 1210TIP3    H2 3637   1.225   2.188   4.218 -2.6836 -0.7341  0.3062
 1211TIP3   OH2 3638   0.696   0.212   4.204  0.0069 -0.2473 -0.1337
 1211TIP3    H1 3639   0.673   0.298   4.240  2.1027 -0.2263  1.3722
 1211TIP3    H2 3640   0.613   0.168   4.191 -1.0568  1.4926  0.4179
 1212TIP3   OH2 3641   5.084   3.767   4.495 -0.1963  0.8527  0.1782
 1212TIP3    H1 3642   5.153   3.718   4.450 -1.0859 -0.5722  0.2979
 1212TIP3    H2 3643   5.107   3.859   4.480  3.0881  0.5341  2.2670
 1213TIP3   OH2 3644   2.802   3.697   2.687  0.0717  0.1227  0.1900
 1213TIP3    H1 3645   2.786   3.638   2.760 -1.5125  0.5922  0.2458
 1213TIP3    H2 3646   2.720   3.744   2.674  1.3762  2.6489  0.4050
 1214TIP3   OH2 3647   0.396   5.562   1.667  0.0167 -0.0515  0.1904
 1214TIP3    H1 3648   0.464   5.512   1.622  0.0626 -0.7433  0.9894
 1214TIP3    H2 3649   0.341   5.496   1.709  0.3555  0.5571  1.6616
 1215TIP3   OH2 3650   1.556   3.730   3.908  0.2093 -0.4123  0.1119
 1215TIP3    H1 3651   1.598   3.816   3.904 -1.0769  0.3437  1.9554
 1215TIP3    H2 3652   1.628   3.670   3.929  0.9567  0.3177 -0.2647
 1216TIP3   OH2 3653   2.992   2.797   1.154 -0.2697 -0.0299  0.1970
 1216TIP3    H1 3654   3.039   2.724   1.113 -0.7586  0.4965 -1.3861
 1216TIP3    H2 3655   3.049   2.873   1.140  0.0850 -0.0330  1.5462
 1217TIP3   OH2 3656   6.011   0.080   1.779  0.5178  0.6623 -0.5035
 1217TIP3    H1 3657   6.006  -0.004   1.825  0.5956  0.1026 -1.4960
 1217TIP3    H2 3658   6.015   0.145   1.849 -0.0605 -0.1225  0.2839
 1218TIP3   OH2 3659   1.577   2.410   4.348 -0.8132  0.0424  0.2930
 1218TIP3    H1 3660   1.579   2.505   4.355 -2.3127  0.1011  0.2590
 1218TIP3    H2 3661   1.669   2.384   4.348 -0.3832  1.4718  0.4680
 1219TIP3   OH2 3662   4.363   4.473   1.925 -0.3181 -0.0276 -0.4052
 1219TIP3    H1 3663   4.395   4.562   1.941  0.7175 -0.5912  0.8491
 1219TIP3    H2 3664   4.319   4.448   2.007  0.1146 -0.9507 -0.4380
 1220TIP3   OH2 3665   1.664   5.809   3.173 -0.0766  0.1731  0.4074
 1220TIP3    H1 3666   1.653   5.880   3.110  0.1413 -0.6684 -0.6014
 1220TIP3    H2 3667   1.576   5.776   3.188 -0.1603  0.5484  0.7613
 1221TIP3   OH2 3668   4.565   3.216   1.531  0.5770 -0.5538  0.4537
 1221TIP3    H1 3669   4.560   3.179   1.443 -1.5539 -0.5334  0.5164
 1221TIP3    H2 3670   4.575   3.311   1.517 -0.0198 -0.5208  0.2066
 1222TIP3   OH2 3671   0.946   1.168   0.824 -0.3607  0.4486 -0.3928
 1222TIP3    H1 3672   1.041   1.164   0.810 -0.3471 -0.0051 -0.1986
 1222TIP3    H2 3673   0.930   1.257   0.855  0.1562  0.1884  0.6675
 1223TIP3   OH2 3674   5.895   5.984   1.607  0.1089  0.1190  0.4161
 1223TIP3    H1 3675   5.955   6.030   1.547  1.8071 -0.7665  1.3514
 1223TIP3    H2 3676   5.879   5.900   1.566 -1.2262  0.6642 -0.2357
 1224TIP3   OH2 3677   2.611   1.441   1.667  0.3042  0.8370 -0.5832
 1224TIP3    H1 3678   2.601   1.511   1.731  2.7740 -1.0884  2.1252
 1224TIP3    H2 3679   2.704   1.421   1.667 -0.1217 -1.5563 -2.2936
 1225TIP3   OH2 3680   3.493   2.071   1.195  0.4564 -0.3926  0.1909
 1225TIP3    H1 3681   3.452   2.120   1.267 -0.6912 -0.1019 -0.6261
 1225TIP3    H2 3682   3.535   2.138   1.142  0.2065 -0.4540 -0.0900
 1226TIP3   OH2 3683   0.884   0.299   3.994 -0.3404 -0.0658  0.2770
 1226TIP3    H1 3684   0.833   0.377   3.971  0.2387  0.2201 -0.0436
 1226TIP3    H2 3685   0.832   0.256   4.062  0.1111  1.4293  1.6276
 1227TIP3   OH2 3686   2.740   2.797   4.742  0.3101 -0.1281 -0.1077
 1227TIP3    H1 3687   2.697   2.882   4.758  1.4475  0.7620 -1.4501
 1227TIP3    H2 3688   2.683   2.755   4.677  0.1635 -0.0336 -0.0432
 1228TIP3   OH2 3689   0.825   3.602   1.356 -0.2703 -0.1181 -0.1847
 1228TIP3    H1 3690   0.861   3.514   1.364 -0.6046 -0.1051  1.9718
 1228TIP3    H2 3691   0.875   3.655   1.418 -1.3842  0.7673  0.0006
 1229TIP3   OH2 3692   1.857   1.346   1.645  0.2643 -0.0515 -0.4221
 1229TIP3    H1 3693   1.864   1.413   1.577  1.7613 -0.8110 -1.0592
 1229TIP3    H2 3694   1.933   1.362   1.701  0.5954 -1.1589 -0.5399
 1230TIP3   OH2 3695   4.503   0.252   0.830  0.3899  0.0486 -0.3248
 1230TIP3    H1 3696   4.574   0.217   0.776 -0.3730 -0.7825 -0.8059
 1230TIP3    H2 3697   4.544   0.268   0.915  0.9354 -1.3575 -0.2962
 1231TIP3   OH2 3698   6.268   5.465   3.428 -0.4652  0.1425 -0.3575
 1231TIP3    H1 3699   6.358   5.436   3.413 -0.4286  0.0470  0.0385
 1231TIP3    H2 3700   6.277   5.557   3.452 -0.4149 -0.0431  0.3463
 1232TIP3   OH2 3701   5.129   3.934   4.752  0.5021  0.2423 -0.6658
 1232TIP3    H1 3702   5.048   3.885   4.738  1.3911 -1.4041 -0.3929
 1232TIP3    H2 3703   5.157   3.962   4.665 -0.5220  1.1356 -0.7202
 1233TIP3   OH2 3704   4.204   4.782   4.547  0.5815  0.7350 -0.6290
 1233TIP3    H1 3705   4.265   4.787   4.474  1.9872 -0.0984  0.4328
 1233TIP3    H2 3706   4.259   4.796   4.625 -0.3809 -1.0526  0.4348
 1234TIP3   OH2 3707   3.362   5.190   0.917  0.2525 -0.1374 -0.2656
 1234TIP3    H1 3708   3.367   5.148   0.831  0.2197  0.8773 -0.7746
 1234TIP3    H2 3709   3.444   5.167   0.960  0.1524 -0.8738 -0.4529
 1235TIP3   OH2 3710   4.527   3.908   0.494 -0.7536  0.2647  0.4332
 1235TIP3    H1 3711   4.452   3.923   0.551 -1.0994 -0.9675  0.3296
 1235TIP3    H2 3712   4.496   3.932   0.407 -0.8350  0.3124  0.4749
 1236TIP3   OH2 3713   2.719   5.431   0.572 -0.5344  0.2007 -0.4588
 1236TIP3    H1 3714   2.664   5.423   0.494 -0.4354 -1.0111 -0.4271
 1236TIP3    H2 3715   2.805   5.400   0.544  0.4832  3.0831 -0.8026
 1237TIP3   OH2 3716   1.138   1.552   0.704  0.4925  0.0694  0.2320
 1237TIP3    H1 3717   1.145   1.475   0.761  3.0039 -0.4506 -0.6516
 1237TIP3    H2 3718   1.146   1.627   0.763 -1.6278 -0.2711  1.0606
 1238TIP3   OH2 3719   6.301   0.890   2.280 -0.2516  0.3137  0.3595
 1238TIP3    H1 3720   6.226   0.945   2.303 -0.2401  0.0401  1.0786
 1238TIP3    H2 3721   6.347   0.940   2.212 -1.0916  0.4706 -0.1051
 1239TIP3   OH2 3722   6.349   4.316   1.564 -0.1155  0.2012 -0.2880
 1239TIP3    H1 3723   6.338   4.371   1.486 -0.6339 -0.7766 -0.9164
 1239TIP3    H2 3724   6.299   4.362   1.632  2.7076  2.6480  0.3494
 1240TIP3   OH2 3725   3.476   0.825   2.013 -0.9513  0.1390 -0.2027
 1240TIP3    H1 3726   3.507   0.794   2.098 -1.1378  0.8031  0.1119
 1240TIP3    H2 3727   3.398   0.772   1.995 -1.0194  0.1228  0.1297
 1241TIP3   OH2 3728   5.486   0.200   3.596  0.5967  0.1744 -0.2219
 1241TIP3    H1 3729   5.566   0.184   3.646 -0.6571 -2.1337  1.2341
 1241TIP3    H2 3730   5.427   0.243   3.658 -0.5053 -1.4720 -0.0516
 1242TIP3   OH2 3731   3.585   5.273   0.408  0.1081 -0.1594  0.2138
 1242TIP3    H1 3732   3.676   5.260   0.381  0.1072  0.0208  0.1238
 1242TIP3    H2 3733   3.533   5.230   0.340  0.0465  1.5437 -0.8920
 1243TIP3   OH2 3734   4.450   3.813   3.163 -0.2026  0.0446  0.3107
 1243TIP3    H1 3735   4.460   3.833   3.256 -0.1740 -0.3321  0.3906
 1243TIP3    H2 3736   4.533   3.838   3.123 -0.2563  0.3136  0.3688
 1244TIP3   OH2 3737   1.849   2.452   2.271  0.0435 -0.4305 -0.7426
 1244TIP3    H1 3738   1.872   2.538   2.234  1.1323 -1.5391 -2.7928
 1244TIP3    H2 3739   1.763   2.466   2.311 -0.0143  1.5127 -1.4258
 1245TIP3   OH2 3740   5.276   5.784   2.626  0.6611 -0.0132 -0.0353
 1245TIP3    H1 3741   5.221   5.750   2.556  1.4435 -0.3716 -0.4956
 1245TIP3    H2 3742   5.320   5.707   2.662  1.3849  0.3370 -0.1497
 1246TIP3   OH2 3743   2.845   0.197   1.273 -0.2882 -0.1800  0.0689
 1246TIP3    H1 3744   2.871   0.114   1.313  0.8222 -0.8197 -1.8644
 1246TIP3    H2 3745   2.910   0.261   1.304  0.6463 -0.6969 -0.7710
 1247TIP3   OH2 3746   5.723   3.701   2.365 -0.3055  0.2692  0.6487
 1247TIP3    H1 3747   5.732   3.794   2.346  1.9208  0.2867  1.4962
 1247TIP3    H2 3748   5.798   3.660   2.322 -2.0528 -1.4313 -1.0433
 1248TIP3   OH2 3749   4.490   2.040   1.276  0.4315 -0.1070  0.1588
 1248TIP3    H1 3750   4.542   2.103   1.326 -0.7134  1.5660 -0.6566
 1248TIP3    H2 3751   4.479   2.081   1.190 -0.8976 -1.1176 -0.1948
 1249TIP3   OH2 3752   0.673   3.137   0.269 -0.1928  0.4196 -0.3739
 1249TIP3    H1 3753   0.643   3.201   0.334  0.8211 -1.1056  1.7285
 1249TIP3    H2 3754   0.611   3.065   0.275  0.4446 -0.1401 -0.4182
 1250TIP3   OH2 3755   5.922   3.825   3.906 -0.2672  0.1340 -0.2275
 1250TIP3    H1 3756   5.920   3.816   4.001  0.7430 -0.2699 -0.2316
 1250TIP3    H2 3757   5.989   3.763   3.877 -0.0602  0.7578 -1.1413
 1251TIP3   OH2 3758   4.633   1.573   4.336 -0.2620  0.6027  0.0998
 1251TIP3    H1 3759   4.676   1.644   4.288  0.9272  0.2184  0.5573
 1251TIP3    H2 3760   4.600   1.514   4.268 -2.1288  2.0367 -0.3195
 1252TIP3   OH2 3761   0.938   5.683   1.524  0.5831  0.2077 -0.5495
 1252TIP3    H1 3762   0.926   5.589   1.535 -1.9419  0.0633 -3.2885
 1252TIP3    H2 3763   0.889   5.723   1.595  0.5870 -0.5128 -0.1335
 1253TIP3   OH2 3764   1.830   5.036   1.345  0.6153 -0.6514 -0.0885
 1253TIP3    H1 3765   1.807   5.115   1.296  4.2349  1.7786  1.7510
 1253TIP3    H2 3766   1.770   5.036   1.420 -0.1775 -0.3436 -0.7120
 1254TIP3   OH2 3767   5.498   3.138   1.283 -0.4213 -0.0082  0.4218
 1254TIP3    H1 3768   5.523   3.215   1.334 -0.5983  0.1824  0.2265
 1254TIP3    H2 3769   5.580   3.108   1.244 -0.3946  0.2498  0.2750
 1255TIP3   OH2 3770   3.622   0.418   0.730  0.9107  0.2832 -0.0215
 1255TIP3    H1 3771   3.645   0.357   0.800 -0.0142  0.5575  0.5406
 1255TIP3    H2 3772   3.570   0.367   0.669 -1.5194  0.8929  1.4047
 1256TIP3   OH2 3773   0.114   3.318   3.660  0.3459 -0.3856 -0.3712
 1256TIP3    H1 3774   0.125   3.382   3.590  2.3339 -0.5720 -0.2969
 1256TIP3    H2 3775   0.032   3.342   3.702  1.1648  2.3793 -0.1290
 1257TIP3   OH2 3776   5.138   4.756   2.415 -0.4136 -0.0374 -0.3202
 1257TIP3    H1 3777   5.143   4.837   2.366 -1.5733  1.3813  1.7209
 1257TIP3    H2 3778   5.212   4.759   2.476 -0.4039 -0.5616 -0.2970
 1258TIP3   OH2 3779   0.065   5.425   0.404  0.0549  0.3173  0.4507
 1258TIP3    H1 3780  -0.030   5.421   0.392 -0.0835  1.5828  0.9757
 1258TIP3    H2 3781   0.085   5.352   0.462 -0.5547 -0.1129  0.1347
 1259TIP3   OH2 3782   3.100   0.027   5.134 -0.2667 -0.2154  0.2410
 1259TIP3    H1 3783   3.133  -0.017   5.212 -2.2650 -0.0261  1.2659
 1259TIP3    H2 3784   3.107   0.120   5.154 -1.5349 -0.1735  0.5670
 1260TIP3   OH2 3785   2.817   4.089   3.792 -0.2004  0.7659  0.3364
 1260TIP3    H1 3786   2.805   4.143   3.870 -1.2960  1.2998 -0.1823
 1260TIP3    H2 3787   2.806   4.149   3.719 -1.3660 -0.1331 -0.2588
 1261TIP3   OH2 3788   3.621   1.696   3.964  0.2021  0.7724 -0.4374
 1261TIP3    H1 3789   3.597   1.614   4.008 -0.6406  0.9104 -0.6328
 1261TIP3    H2 3790   3.702   1.675   3.918  1.5605  0.8221  1.7703
 1262TIP3   OH2 3791   2.292   3.450   2.517 -0.3826 -0.0021 -0.1911
 1262TIP3    H1 3792   2.275   3.404   2.599 -0.7467 -3.0047 -1.7687
 1262TIP3    H2 3793   2.386   3.467   2.518 -0.2907 -0.4884  0.6364
 1263TIP3   OH2 3794   0.929   1.350   2.805 -0.4623 -0.4671 -0.0653
 1263TIP3    H1 3795   0.884   1.342   2.721 -0.8957 -0.5985  0.1785
 1263TIP3    H2 3796   0.859   1.353   2.870 -0.1207 -0.7730  0.3245
 1264TIP3   OH2 3797   1.919   4.459   3.982  0.3252  0.0731  0.2453
 1264TIP3    H1 3798   1.938   4.504   3.900  0.3500 -0.2478  0.0749
 1264TIP3    H2 3799   1.914   4.529   4.047  0.2974  0.3274 -0.0307
 1265TIP3   OH2 3800   0.610   3.872   2.771  0.0754 -0.5262 -0.5046
 1265TIP3    H1 3801   0.576   3.791   2.732  0.6703 -1.3083  0.5680
 1265TIP3    H2 3802   0.533   3.916   2.806 -0.5722  0.4666 -2.9443
 1266TIP3   OH2 3803   0.349   3.311   4.964 -0.5539  0.1000 -0.6483
 1266TIP3    H1 3804   0.325   3.222   4.937 -0.9396 -0.3528  1.0075
 1266TIP3    H2 3805   0.304   3.322   5.048  2.1087  0.6007  0.8249
 1267TIP3   OH2 3806   1.400   0.306   3.327  0.0022  0.0894  0.0206
 1267TIP3    H1 3807   1.332   0.272   3.269  1.3055  0.4442 -1.8002
 1267TIP3    H2 3808   1.455   0.231   3.348  1.1167  0.4191 -1.5191
 1268TIP3   OH2 3809   5.524   4.776   3.040  0.1924  0.1213  0.3209
 1268TIP3    H1 3810   5.562   4.797   2.955  1.2142 -2.8629 -0.0720
 1268TIP3    H2 3811   5.575   4.827   3.103  2.3574 -0.8187 -0.5603
 1269TIP3   OH2 3812   2.395   0.352   3.427  0.5979 -0.0363  0.4268
 1269TIP3    H1 3813   2.443   0.277   3.463  0.0888 -1.4758 -1.7246
 1269TIP3    H2 3814   2.315   0.314   3.392  0.1926  1.5767 -0.4509
 1270TIP3   OH2 3815   5.613   1.276   2.093  0.1346  0.9760 -0.2063
 1270TIP3    H1 3816   5.702   1.257   2.120  0.0440 -1.4064 -1.2250
 1270TIP3    H2 3817   5.577   1.190   2.068 -2.4305  1.8459  0.1419
 1271TIP3   OH2 3818   4.724   5.462   1.153 -0.4913  0.8153 -0.2856
 1271TIP3    H1 3819   4.644   5.440   1.200 -0.3687 -0.5532 -0.6451
 1271TIP3    H2 3820   4.758   5.377   1.124  2.0843  1.1561  1.4320
 1272TIP3   OH2 3821   1.849   5.522   4.719  0.1071  0.6375  0.3137
 1272TIP3    H1 3822   1.942   5.501   4.732  0.8014  3.0147 -0.2182
 1272TIP3    H2 3823   1.839   5.527   4.624 -0.2654  1.5063  0.3893
 1273TIP3   OH2 3824   2.805   1.623   1.987  0.3302  0.7991  0.1631
 1273TIP3    H1 3825   2.723   1.574   1.992 -0.1193  1.6919  2.5293
 1273TIP3    H2 3826   2.789   1.688   1.918 -0.1508 -0.3937 -0.8808
 1274TIP3   OH2 3827   5.430   3.481   3.653 -0.0555  0.0849  0.1528
 1274TIP3    H1 3828   5.416   3.508   3.563  0.7251  0.5262  0.1554
 1274TIP3    H2 3829   5.525   3.474   3.662 -0.1377 -0.3128  0.8357
 1275TIP3   OH2 3830   0.464   4.367   2.130 -0.0536  0.7141  0.2948
 1275TIP3    H1 3831   0.370   4.370   2.142 -0.2639 -1.7151 -0.3217
 1275TIP3    H2 3832   0.478   4.400   2.041 -0.2894  1.2213  0.4430
 1276TIP3   OH2 3833   3.341   0.888   1.417  0.2284 -0.1535 -0.7118
 1276TIP3    H1 3834   3.348   0.834   1.339  1.1239 -2.8899  1.1289
 1276TIP3    H2 3835   3.416   0.863   1.472 -0.8003  1.0268  1.3939
 1277TIP3   OH2 3836   0.107   0.207   3.157  0.1209 -0.2006  0.3478
 1277TIP3    H1 3837   0.101   0.294   3.119 -1.1265  1.2350  3.4934
 1277TIP3    H2 3838   0.016   0.178   3.166  0.3439 -0.5191  1.9766
 1278TIP3   OH2 3839   1.576   4.887   2.926 -0.0239 -0.4242 -0.4092
 1278TIP3    H1 3840   1.577   4.940   3.006 -0.9921 -1.5179  0.3629
 1278TIP3    H2 3841   1.616   4.804   2.953  1.4022 -0.1448 -1.5754
 1279TIP3   OH2 3842   2.840   4.185   1.390  0.0035  0.1303  0.5383
 1279TIP3    H1 3843   2.772   4.226   1.444 -0.7352 -1.2007  0.6473
 1279TIP3    H2 3844   2.792   4.136   1.323  0.7184 -2.7814  2.0066
 1280TIP3   OH2 3845   4.089   1.089   1.151  0.2964 -0.0204  0.3947
 1280TIP3    H1 3846   4.154   1.022   1.127  1.2099  1.2453 -0.8582
 1280TIP3    H2 3847   4.042   1.107   1.070 -0.6490  0.1088  0.9651
 1281TIP3   OH2 3848   4.846   5.370   4.173  0.1860  0.7880  0.0110
 1281TIP3    H1 3849   4.873   5.370   4.081 -0.6300  1.9049 -0.2596
 1281TIP3    H2 3850   4.753   5.395   4.170  0.4272  1.9275  1.2021
 1282TIP3   OH2 3851   1.515   4.672   3.491 -0.0365  0.4036 -0.0428
 1282TIP3    H1 3852   1.432   4.708   3.524 -0.6499 -1.6300  0.7534
 1282TIP3    H2 3853   1.562   4.646   3.570  0.6528  0.0028 -0.5790
 1283TIP3   OH2 3854   6.135   0.348   1.603  0.1540 -0.1651  0.3401
 1283TIP3    H1 3855   6.113   0.260   1.633 -0.8875 -0.2686 -0.6824
 1283TIP3    H2 3856   6.053   0.384   1.572  0.8320  0.6493 -0.5564
 1284TIP3   OH2 3857   4.431   2.038   0.280 -0.5283 -0.5333 -0.0324
 1284TIP3    H1 3858   4.513   1.991   0.296 -0.7992 -1.4757 -1.2690
 1284TIP3    H2 3859   4.459   2.126   0.256  0.1393 -0.8765 -0.5708
 1285TIP3   OH2 3860   1.921   0.028   1.697 -0.0426 -0.1170  0.4630
 1285TIP3    H1 3861   1.832  -0.005   1.684  0.6223 -1.6544 -0.3846
 1285TIP3    H2 3862   1.955  -0.022   1.771  0.5385 -0.4302 -0.0088
 1286TIP3   OH2 3863   4.387   5.340   1.670  0.1247 -0.1663 -0.3776
 1286TIP3    H1 3864   4.385   5.396   1.592 -1.7746  0.1706 -0.1295
 1286TIP3    H2 3865   4.399   5.400   1.743  1.4592 -0.4439 -0.3370
 1287TIP3   OH2 3866   3.260   4.664   0.555 -0.5725 -0.0727  0.3271
 1287TIP3    H1 3867   3.227   4.575   0.567 -1.1089  0.0672 -0.0629
 1287TIP3    H2 3868   3.195   4.706   0.499 -0.2625  0.5310  0.4139
 1288TIP3   OH2 3869   5.903   0.396   2.336 -0.2033 -0.2911 -0.2978
 1288TIP3    H1 3870   5.950   0.397   2.419 -1.7609  1.1715  0.6254
 1288TIP3    H2 3871   5.961   0.348   2.276  0.9184 -1.4322  1.6148
 1289TIP3   OH2 3872   2.029   0.733   2.486 -0.4830  0.8733 -0.1920
 1289TIP3    H1 3873   2.054   0.755   2.576 -1.5892  1.9333 -0.1254
 1289TIP3    H2 3874   2.104   0.683   2.452 -0.7861 -1.1948  1.8971
 1290TIP3   OH2 3875   2.016   4.497   1.868 -0.6884 -0.1509 -0.3899
 1290TIP3    H1 3876   2.064   4.527   1.790  0.7612 -0.0224  0.5162
 1290TIP3    H2 3877   1.960   4.427   1.836 -1.5631  1.1654 -1.9026
 1291TIP3   OH2 3878   3.821   5.619   1.895 -0.4172  0.4450 -0.0389
 1291TIP3    H1 3879   3.892   5.604   1.958 -0.2686 -0.6871 -0.4578
 1291TIP3    H2 3880   3.764   5.543   1.905  0.9386 -1.1300 -3.0262
 1292TIP3   OH2 3881   2.917   5.498   3.362 -0.1043  0.0809 -0.1521
 1292TIP3    H1 3882   2.921   5.404   3.343 -0.5083 -0.3309  1.6188
 1292TIP3    H2 3883   2.840   5.529   3.314  0.6253 -0.2435 -1.5990
 1293TIP3   OH2 3884   1.631   1.165   3.054  0.1548  0.0668  0.2411
 1293TIP3    H1 3885   1.633   1.077   3.018 -1.2340 -0.5465  1.5402
 1293TIP3    H2 3886   1.614   1.221   2.978  1.6174 -0.6857 -0.6883
 1294TIP3   OH2 3887   2.243   2.959   1.195 -0.3340  0.0220 -0.1287
 1294TIP3    H1 3888   2.338   2.958   1.209 -0.3323 -0.3259 -0.1625
 1294TIP3    H2 3889   2.207   2.919   1.274 -0.3621 -1.3377 -0.8002
 1295TIP3   OH2 3890   4.757   1.334   4.851 -0.5702  0.0770  0.4365
 1295TIP3    H1 3891   4.796   1.393   4.915 -0.9281  0.0136  0.7121
 1295TIP3    H2 3892   4.762   1.382   4.768  0.2601 -0.0063  0.4313
 1296TIP3   OH2 3893   5.241   4.540   1.991 -0.5707 -0.2720  0.6490
 1296TIP3    H1 3894   5.304   4.481   1.950  0.9617 -0.2402  2.8321
 1296TIP3    H2 3895   5.206   4.592   1.918  1.2372 -0.9343 -0.7443
 1297TIP3   OH2 3896   2.180   2.100   1.507  0.5087 -0.3840 -0.1368
 1297TIP3    H1 3897   2.190   2.170   1.442  1.9879  0.2345  0.6864
 1297TIP3    H2 3898   2.268   2.092   1.546 -0.5322  0.0484  2.5221
 1298TIP3   OH2 3899   0.749   1.156   0.635  0.1825 -0.1016  0.2485
 1298TIP3    H1 3900   0.817   1.170   0.701  1.6544 -0.2212 -1.1620
 1298TIP3    H2 3901   0.796   1.115   0.561 -2.0499 -3.5967  0.5306
 1299TIP3   OH2 3902   5.066   5.967   4.308 -0.2326  0.4658  0.0138
 1299TIP3    H1 3903   5.109   5.933   4.229  0.3069  1.0269  0.0593
 1299TIP3    H2 3904   5.022   6.047   4.277  0.4701  1.0124  0.3942
 1300TIP3   OH2 3905   2.350   2.086   3.547 -0.9162  0.5176 -0.0327
 1300TIP3    H1 3906   2.332   2.065   3.638  0.1171  0.0320  0.0701
 1300TIP3    H2 3907   2.286   2.035   3.497 -0.9221  0.1268  0.3793
 1301TIP3   OH2 3908   1.339   3.525   2.236  0.7005 -0.3019  0.4892
 1301TIP3    H1 3909   1.320   3.492   2.324 -0.0604 -0.3139  0.3271
 1301TIP3    H2 3910   1.373   3.450   2.188 -0.2040 -0.6361  0.3711
 1302TIP3   OH2 3911   1.406   5.539   5.106 -0.3440  0.1221  0.1238
 1302TIP3    H1 3912   1.470   5.572   5.043  0.0353  1.0817  0.9711
 1302TIP3    H2 3913   1.338   5.606   5.109 -2.0875 -1.4358 -1.6579
 1303TIP3   OH2 3914   5.704   5.856   4.139  0.1709 -0.0396  0.4102
 1303TIP3    H1 3915   5.648   5.893   4.070  0.0618  0.2423  0.6481
 1303TIP3    H2 3916   5.659   5.775   4.164 -0.5390  0.5656  1.1252
 1304TIP3   OH2 3917   4.938   3.980   1.694 -0.4743  0.8494  0.3541
 1304TIP3    H1 3918   4.994   3.903   1.693 -2.9152 -1.0715 -1.1959
 1304TIP3    H2 3919   4.990   4.049   1.652  0.2327 -1.2609 -2.4679
 1305TIP3   OH2 3920   5.907   2.881   0.477 -0.6165 -0.0724 -0.7875
 1305TIP3    H1 3921   5.880   2.793   0.505  3.3970 -1.0382  0.6907
 1305TIP3    H2 3922   5.930   2.926   0.558  0.5285  1.1956 -1.7661
 1306TIP3   OH2 3923   1.711   0.237   0.162 -0.0078  0.0534  0.2124
 1306TIP3    H1 3924   1.699   0.143   0.147 -0.3573  0.3955 -1.9130
 1306TIP3    H2 3925   1.797   0.256   0.124  1.0474  0.2583  2.5306
 1307TIP3   OH2 3926   1.174   4.338   2.453  0.0517 -0.0409  0.1372
 1307TIP3    H1 3927   1.157   4.278   2.380  0.6070 -1.1823  0.9118
 1307TIP3    H2 3928   1.109   4.407   2.443  0.1768 -0.1359 -1.4797
 1308TIP3   OH2 3929   1.780   0.490   3.079  0.0055  0.0799  0.7062
 1308TIP3    H1 3930   1.862   0.503   3.032 -0.0966  0.4718  0.6347
 1308TIP3    H2 3931   1.717   0.546   3.034 -0.7478 -1.5386 -0.3490
 1309TIP3   OH2 3932   5.803   5.345   1.978 -0.0083 -0.6506  0.1414
 1309TIP3    H1 3933   5.810   5.289   1.901  3.1023  1.1833 -1.0976
 1309TIP3    H2 3934   5.733   5.407   1.957  0.6037 -0.3682 -1.1365
 1310TIP3   OH2 3935   4.522   2.849   4.243  0.1980 -0.0791  0.1591
 1310TIP3    H1 3936   4.587   2.845   4.173 -2.8218  0.6299 -2.9605
 1310TIP3    H2 3937   4.481   2.763   4.243 -1.0517  0.5014 -0.2606
 1311TIP3   OH2 3938   1.689   0.053   4.167  0.2769  0.0700  0.6090
 1311TIP3    H1 3939   1.735  -0.030   4.182 -0.8280 -0.8699 -0.9170
 1311TIP3    H2 3940   1.596   0.031   4.177 -0.2217  0.4697 -2.2887
 1312TIP3   OH2 3941   0.294   1.802   4.239  0.2255  0.3765 -0.2326
 1312TIP3    H1 3942   0.317   1.871   4.177  0.1547 -0.3753 -1.1233
 1312TIP3    H2 3943   0.213   1.764   4.203  0.2733 -0.1780  0.2332
 1313TIP3   OH2 3944   1.888   2.158   0.043  0.1799  0.0681  0.2232
 1313TIP3    H1 3945   1.854   2.070   0.029 -1.0958  0.4434  0.8079
 1313TIP3    H2 3946   1.941   2.152   0.122  2.1945 -0.6860 -1.0970
 1314TIP3   OH2 3947   5.911   3.685   4.204  0.1793 -0.4590  0.3121
 1314TIP3    H1 3948   5.876   3.774   4.212  1.1421 -0.1867  2.0458
 1314TIP3    H2 3949   5.843   3.629   4.241 -0.8975 -0.6339 -1.7477
 1315TIP3   OH2 3950   0.704   0.351   1.661 -0.2426 -0.0578  0.1399
 1315TIP3    H1 3951   0.654   0.269   1.653 -2.3515  1.1304  0.4487
 1315TIP3    H2 3952   0.651   0.406   1.718  1.4101  1.3487  0.4024
 1316TIP3   OH2 3953   1.078   2.528   4.012 -0.0718  0.1701 -0.2512
 1316TIP3    H1 3954   1.036   2.456   4.059 -0.8907 -0.4002 -1.8166
 1316TIP3    H2 3955   1.011   2.596   4.008  0.2371  0.4978 -0.0111
 1317TIP3   OH2 3956   4.675   2.949   2.149 -0.0543  0.0834 -0.2021
 1317TIP3    H1 3957   4.591   2.977   2.187 -0.6646 -0.4225 -1.1396
 1317TIP3    H2 3958   4.736   2.951   2.222 -1.0570 -0.2692  0.6720
 1318TIP3   OH2 3959   3.495   4.071   3.704 -0.1098  0.0860 -0.3611
 1318TIP3    H1 3960   3.406   4.100   3.685 -0.2894 -0.3412 -0.1963
 1318TIP3    H2 3961   3.494   4.048   3.797  0.2531  0.3605 -0.2856
 1319TIP3   OH2 3962   1.347   2.850   2.024 -0.5470 -0.0967  0.2351
 1319TIP3    H1 3963   1.341   2.883   2.113  0.8389  0.2266  0.2158
 1319TIP3    H2 3964   1.301   2.765   2.027 -0.5890 -0.0475  1.2164
 1320TIP3   OH2 3965   4.770   0.974   2.067  0.0092 -0.2321 -0.4879
 1320TIP3    H1 3966   4.847   0.943   2.114 -0.4259  0.0685  0.4258
 1320TIP3    H2 3967   4.719   1.022   2.132 -0.6575  0.0866 -1.2319
 1321TIP3   OH2 3968   0.139   1.793   2.581 -0.2065 -0.0232 -0.2185
 1321TIP3    H1 3969   0.046   1.772   2.580  0.0182 -1.8706  2.9875
 1321TIP3    H2 3970   0.151   1.846   2.660  1.4050  0.5606 -0.8124
 1322TIP3   OH2 3971   0.571   3.729   0.377  0.1150 -0.3329 -0.1897
 1322TIP3    H1 3972   0.647   3.722   0.434  0.6688  1.5432 -0.6269
 1322TIP3    H2 3973   0.534   3.815   0.396 -1.4769 -0.8923 -0.5321
 1323TIP3   OH2 3974   1.491   1.724   3.899 -0.5500 -0.0153 -0.2635
 1323TIP3    H1 3975   1.530   1.699   3.982  1.1865  0.2852 -0.9465
 1323TIP3    H2 3976   1.479   1.641   3.852  2.7270  0.0408 -1.4624
 1324TIP3   OH2 3977   0.994   1.275   4.838  0.4702  0.1151 -0.0086
 1324TIP3    H1 3978   1.034   1.267   4.925  1.6740 -1.9145 -0.6835
 1324TIP3    H2 3979   0.917   1.218   4.843  1.5616 -1.5207 -0.7584
 1325TIP3   OH2 3980   2.217   4.628   4.990 -0.2113 -0.5529 -0.6779
 1325TIP3    H1 3981   2.307   4.605   4.966 -0.2141 -2.3034  0.8254
 1325TIP3    H2 3982   2.220   4.646   5.084 -1.2976  0.1579 -0.7568
 1326TIP3   OH2 3983   6.335   3.317   1.788 -0.2974  0.0035  0.5499
 1326TIP3    H1 3984   6.377   3.384   1.735 -0.7727 -0.9192 -1.0438
 1326TIP3    H2 3985   6.242   3.322   1.764 -0.0329 -2.9039 -1.6405
 1327TIP3   OH2 3986   1.099   0.662   1.658  0.6636  0.2219 -0.4332
 1327TIP3    H1 3987   1.107   0.755   1.679  1.7840  0.2977 -1.1236
 1327TIP3    H2 3988   1.085   0.620   1.743 -2.6033  1.2339 -0.3362
 1328TIP3   OH2 3989   2.636   3.846   3.093  0.0453  1.0838  0.7372
 1328TIP3    H1 3990   2.585   3.778   3.137  0.9307 -1.2576 -1.5714
 1328TIP3    H2 3991   2.576   3.883   3.029  0.2746  0.6562  0.2683
 1329TIP3   OH2 3992   2.983   2.807   4.597 -0.4595 -0.1789 -0.0647
 1329TIP3    H1 3993   2.978   2.722   4.552  1.1163  0.4086 -1.4687
 1329TIP3    H2 3994   2.899   2.816   4.641 -0.4967 -2.6702  0.5115
 1330TIP3   OH2 3995   6.152   5.671   2.174 -0.3897  0.2344 -0.2417
 1330TIP3    H1 3996   6.119   5.599   2.227  0.2487  0.8026  0.9738
 1330TIP3    H2 3997   6.083   5.738   2.179 -0.2349  0.3746  0.0782
 1331TIP3   OH2 3998   4.328   4.570   4.719 -0.7474  0.3920 -0.0133
 1331TIP3    H1 3999   4.373   4.539   4.798 -2.3161 -1.0251  0.3745
 1331TIP3    H2 4000   4.264   4.633   4.751  1.2130  2.8499 -0.6230
 1332TIP3   OH2 4001   1.774   4.842   3.933 -0.5522 -0.1339  0.2632
 1332TIP3    H1 4002   1.681   4.831   3.916 -0.3242 -0.1115 -1.1196
 1332TIP3    H2 4003   1.817   4.795   3.861  0.4942  0.3836  0.5343
 1333TIP3   OH2 4004   4.587   5.444   4.205 -0.2151 -0.2590  0.8788
 1333TIP3    H1 4005   4.578   5.349   4.192  0.3772 -0.1089 -0.9343
 1333TIP3    H2 4006   4.514   5.482   4.157  0.2523  0.2294  0.5323
 1334TIP3   OH2 4007   5.115   1.443   0.440  0.1366 -0.0632 -0.4660
 1334TIP3    H1 4008   5.183   1.507   0.458 -1.2329  1.4198 -0.3735
 1334TIP3    H2 4009   5.152   1.360   0.471  1.0947  1.0258  1.5262
 1335TIP3   OH2 4010   5.535   5.461   3.086  0.6831  0.4296  0.6228
 1335TIP3    H1 4011   5.571   5.383   3.044 -1.9994 -0.3824 -0.4271
 1335TIP3    H2 4012   5.556   5.532   3.026  0.6360 -0.0071  0.0748
 1336TIP3   OH2 4013   4.502   1.733   3.458 -0.0786  0.4347  0.0371
 1336TIP3    H1 4014   4.435   1.800   3.441 -0.0321  0.4867  0.0558
 1336TIP3    H2 4015   4.500   1.676   3.381 -1.1504 -0.4214  0.6798
 1337TIP3   OH2 4016   1.792   5.562   1.801 -0.3525 -0.1678 -0.3683
 1337TIP3    H1 4017   1.825   5.642   1.842 -0.7434 -0.6527  0.9498
 1337TIP3    H2 4018   1.714   5.589   1.753 -0.8037  0.1740  0.5247
 1338TIP3   OH2 4019   0.200   0.335   0.890 -0.1842  0.0340  0.2244
 1338TIP3    H1 4020   0.213   0.381   0.807 -1.3491  0.6378  0.3502
 1338TIP3    H2 4021   0.231   0.396   0.957  0.0685 -0.1558  0.2831
 1339TIP3   OH2 4022   0.823   2.974   2.470  0.0413  0.0979 -0.1510
 1339TIP3    H1 4023   0.842   2.882   2.451 -0.4186 -0.1634  0.6094
 1339TIP3    H2 4024   0.743   2.993   2.421 -0.1599 -0.0667  0.1092
 1340TIP3   OH2 4025   3.811   2.340   4.453  0.6542  0.4109  0.2745
 1340TIP3    H1 4026   3.891   2.386   4.429 -0.0547  0.5554 -2.0688
 1340TIP3    H2 4027   3.799   2.358   4.546  2.7056  1.3322  0.3999
 1341TIP3   OH2 4028   2.315   2.778   1.002 -0.0546 -0.2936 -0.1807
 1341TIP3    H1 4029   2.385   2.746   1.059 -0.3122 -1.1725 -0.3415
 1341TIP3    H2 4030   2.266   2.839   1.057  1.3830  1.0822 -0.3615
 1342TIP3   OH2 4031   2.193   4.458   1.214  0.2997 -0.0922  0.1840
 1342TIP3    H1 4032   2.287   4.473   1.212  0.6177 -1.7868 -1.8522
 1342TIP3    H2 4033   2.181   4.386   1.276  0.6448 -1.2538 -1.0580
 1343TIP3   OH2 4034   5.368   3.364   1.679 -0.0242 -0.1863 -0.2532
 1343TIP3    H1 4035   5.416   3.283   1.691  1.2534  0.6313  0.3199
 1343TIP3    H2 4036   5.278   3.336   1.662  0.7561 -1.7671 -2.0501
 1344TIP3   OH2 4037   3.683   5.224   1.252  0.2697 -0.2047 -0.1285
 1344TIP3    H1 4038   3.596   5.220   1.290  0.1523 -2.6183 -0.5082
 1344TIP3    H2 4039   3.740   5.181   1.317  0.9289  0.0826 -0.5035
 1345TIP3   OH2 4040   2.317   1.029   3.619 -0.1264  0.3115 -0.9706
 1345TIP3    H1 4041   2.258   0.960   3.589 -0.9793  1.2715 -1.5650
 1345TIP3    H2 4042   2.379   1.040   3.547 -0.4798  0.7133 -1.2141
 1346TIP3   OH2 4043   5.088   3.747   1.716  0.0956  0.4349  0.2585
 1346TIP3    H1 4044   5.169   3.699   1.733  1.1360  2.3987  1.1221
 1346TIP3    H2 4045   5.040   3.691   1.654  2.7861 -0.1145 -1.5188
 1347TIP3   OH2 4046   4.909   5.252   1.555  0.1505  0.2324 -0.2026
 1347TIP3    H1 4047   4.846   5.318   1.528  1.4120  1.3562 -0.5258
 1347TIP3    H2 4048   4.887   5.233   1.646 -0.9603  0.2075 -0.4655
 1348TIP3   OH2 4049   0.491   1.695   4.399 -0.2442  0.3405 -0.3716
 1348TIP3    H1 4050   0.554   1.761   4.368 -0.7085  0.4160 -1.1849
 1348TIP3    H2 4051   0.411   1.714   4.350 -0.4062 -0.7896 -0.5684
 1349TIP3   OH2 4052   0.654   1.004   2.871  0.4718  0.3364 -0.2837
 1349TIP3    H1 4053   0.728   1.063   2.891 -0.8859  1.8170  0.6161
 1349TIP3    H2 4054   0.640   0.955   2.952  0.1000  0.5021 -0.2447
 1350TIP3   OH2 4055   5.942   3.278   4.276 -0.0252  0.0939 -0.2642
 1350TIP3    H1 4056   5.890   3.199   4.263 -0.7070  0.8157 -2.3517
 1350TIP3    H2 4057   5.908   3.317   4.356 -0.0302 -1.4222  0.5087
 1351TIP3   OH2 4058   0.204   0.794   2.465  0.1013  0.0870  0.0193
 1351TIP3    H1 4059   0.172   0.726   2.524  1.1291  0.1159  0.6328
 1351TIP3    H2 4060   0.143   0.792   2.391 -1.2335  0.0594  1.0644
 1352TIP3   OH2 4061   1.203   4.404   0.889 -0.1839 -0.0918 -0.5732
 1352TIP3    H1 4062   1.141   4.364   0.827 -0.4454 -0.6556  0.0332
 1352TIP3    H2 4063   1.214   4.493   0.857  0.3683 -0.6216 -1.9352
 1353TIP3   OH2 4064   4.089   5.634   2.913 -0.6459 -0.1739 -0.3251
 1353TIP3    H1 4065   4.067   5.550   2.954 -1.2721  1.8613  4.0927
 1353TIP3    H2 4066   4.183   5.629   2.898 -0.1694 -0.8775  2.3235
 1354TIP3   OH2 4067   0.703   0.429   4.920 -0.3660 -0.2134 -0.0767
 1354TIP3    H1 4068   0.779   0.449   4.866  0.0462 -1.7078 -0.0866
 1354TIP3    H2 4069   0.641   0.499   4.900  0.5475  0.3782 -0.9519
 1355TIP3   OH2 4070   4.832   0.216   3.085  0.5737 -0.1388  0.5887
 1355TIP3    H1 4071   4.924   0.233   3.062  1.0758  0.0132  2.5150
 1355TIP3    H2 4072   4.782   0.266   3.021  1.8614  0.7647  0.2334
 1356TIP3   OH2 4073   2.641   2.126   4.719  0.0733 -0.6147 -0.2421
 1356TIP3    H1 4074   2.621   2.057   4.656 -1.1819 -0.6270  0.1344
 1356TIP3    H2 4075   2.675   2.080   4.796  0.7599 -0.6683 -0.5668
 1357TIP3   OH2 4076   4.993   2.070   2.889  0.2424  0.4423 -0.2175
 1357TIP3    H1 4077   4.996   2.151   2.941  0.5051 -0.4610  1.2099
 1357TIP3    H2 4078   4.933   2.013   2.937  1.8803 -1.0798  0.1013
 1358TIP3   OH2 4079   5.933   0.974   3.391 -0.1554  0.0674  0.1950
 1358TIP3    H1 4080   5.865   0.907   3.382  0.5742 -0.6176 -0.3661
 1358TIP3    H2 4081   5.979   0.950   3.472  2.3254 -2.2835 -1.6747
 1359TIP3   OH2 4082   4.959   0.845   0.446 -0.3552 -0.1383  0.2432
 1359TIP3    H1 4083   4.977   0.787   0.372 -0.5378  0.2469 -0.1050
 1359TIP3    H2 4084   4.968   0.789   0.523 -2.4987 -1.1272 -0.1536
 1360TIP3   OH2 4085   1.253   2.947   0.863  0.4004 -0.3786  0.3030
 1360TIP3    H1 4086   1.218   2.934   0.951 -1.2616  0.8036 -0.1419
 1360TIP3    H2 4087   1.307   2.869   0.847 -2.4731 -2.6667  0.8544
 1361TIP3   OH2 4088   0.056   0.453   2.166  0.2291 -0.2805  0.7577
 1361TIP3    H1 4089   0.042   0.489   2.078 -0.1627 -2.9381 -0.3657
 1361TIP3    H2 4090  -0.009   0.499   2.220  0.5256  1.4676 -0.2706
 1362TIP3   OH2 4091   4.878   2.850   0.748  0.1164  1.3666 -0.6576
 1362TIP3    H1 4092   4.957   2.885   0.788  2.1561 -4.1830  0.9675
 1362TIP3    H2 4093   4.889   2.868   0.654  3.3800  0.7933 -0.4914
 1363TIP3   OH2 4094   3.207   3.147   2.884  0.0036 -0.0391  0.0772
 1363TIP3    H1 4095   3.136   3.209   2.899 -0.7808 -0.9315  0.1824
 1363TIP3    H2 4096   3.256   3.145   2.966  0.3511  0.8151 -0.1016
 1364TIP3   OH2 4097   1.940   3.848   2.849 -0.2728 -0.2416  0.5411
 1364TIP3    H1 4098   1.869   3.841   2.913  0.8734 -1.2440  1.7698
 1364TIP3    H2 4099   1.963   3.941   2.849 -1.2063  0.0024  0.5236
 1365TIP3   OH2 4100   6.308   3.064   0.555 -0.0145 -0.1184  0.2409
 1365TIP3    H1 4101   6.336   3.017   0.634 -0.3878 -1.0314 -0.1515
 1365TIP3    H2 4102   6.341   3.010   0.482  0.8422  1.0222 -0.2419
 1366TIP3   OH2 4103   5.696   3.673   3.849  0.2418 -0.1814  0.4375
 1366TIP3    H1 4104   5.777   3.717   3.876  0.2969  0.6437 -0.9384
 1366TIP3    H2 4105   5.646   3.663   3.929  1.9997 -1.3621  1.4533
 1367TIP3   OH2 4106   2.927   4.322   0.846  0.2359  0.5618 -0.1447
 1367TIP3    H1 4107   3.006   4.320   0.900 -0.0823 -0.5576  0.3113
 1367TIP3    H2 4108   2.914   4.231   0.819 -1.3195  0.5762  0.4470
 1368TIP3   OH2 4109   2.639   3.468   4.105 -0.2682 -0.0674 -0.4556
 1368TIP3    H1 4110   2.628   3.498   4.014 -1.1192 -0.3770 -0.4665
 1368TIP3    H2 4111   2.649   3.549   4.155  0.2185  0.1062 -0.8246
 1369TIP3   OH2 4112   1.918   0.080   3.349 -0.1815 -0.4572 -0.1299
 1369TIP3    H1 4113   1.873   0.108   3.428 -0.9209  0.3164 -0.8044
 1369TIP3    H2 4114   2.009   0.109   3.361 -0.4816  0.4230  0.0720
 1370TIP3   OH2 4115   0.759   2.561   0.594 -0.3672  0.6571  0.1987
 1370TIP3    H1 4116   0.802   2.510   0.662  0.2793  0.9020 -0.0173
 1370TIP3    H2 4117   0.727   2.495   0.532  0.6247  0.4975 -0.1735
 1371TIP3   OH2 4118   2.853   4.477   1.577  0.6083  0.1168  0.3148
 1371TIP3    H1 4119   2.930   4.422   1.560  0.4009 -0.5254  1.3617
 1371TIP3    H2 4120   2.828   4.455   1.667 -0.6539  0.5032  0.0678
 1372TIP3   OH2 4121   1.993   0.839   4.458 -0.7492  0.1426 -0.6824
 1372TIP3    H1 4122   1.906   0.848   4.417 -1.2114  0.5631  0.3483
 1372TIP3    H2 4123   2.024   0.929   4.466 -1.6159  0.2745  1.8280
 1373TIP3   OH2 4124   2.451   4.941   3.482  0.1661  0.0690 -0.0814
 1373TIP3    H1 4125   2.468   4.875   3.548 -0.3043  1.6030  1.6637
 1373TIP3    H2 4126   2.365   4.919   3.447  0.6411 -1.0500 -0.5971
 1374TIP3   OH2 4127   5.892   5.014   2.463 -0.2483 -0.2421  0.0352
 1374TIP3    H1 4128   5.847   5.006   2.379 -1.4835 -1.0174  0.7372
 1374TIP3    H2 4129   5.887   4.926   2.500  0.0045  0.1691  1.0598
 1375TIP3   OH2 4130   3.064   4.903   2.620  0.3327  0.0054 -0.3015
 1375TIP3    H1 4131   3.084   4.950   2.539  3.3793 -2.6337 -1.2843
 1375TIP3    H2 4132   2.991   4.846   2.597 -0.7975  1.3351 -0.2083
 1376TIP3   OH2 4133   1.087   1.667   1.454 -0.2337 -0.0372 -0.4420
 1376TIP3    H1 4134   1.023   1.601   1.481 -1.0135  0.4549 -1.0374
 1376TIP3    H2 4135   1.072   1.741   1.513 -1.5729  0.8297 -1.7732
 1377TIP3   OH2 4136   2.602   3.216   4.210 -0.0331  0.1652  0.8536
 1377TIP3    H1 4137   2.512   3.187   4.191 -0.0524  0.4499  0.4914
 1377TIP3    H2 4138   2.609   3.301   4.167  0.6118 -0.1446  0.3236
 1378TIP3   OH2 4139   4.398   2.878   4.967 -0.0726  0.0215 -0.3296
 1378TIP3    H1 4140   4.359   2.798   5.002 -1.0084  1.7544  3.0019
 1378TIP3    H2 4141   4.492   2.860   4.964 -0.4039 -1.7713 -1.4788
 1379TIP3   OH2 4142   5.007   2.572   0.695  0.2557  0.2455 -0.2048
 1379TIP3    H1 4143   4.938   2.626   0.734  2.2940  1.8005  1.5040
 1379TIP3    H2 4144   5.055   2.632   0.638  0.6866 -0.5956 -0.7521
 1380TIP3   OH2 4145   1.583   1.335   2.860 -0.3226  0.0077 -0.6201
 1380TIP3    H1 4146   1.627   1.310   2.779  1.0855  2.1492 -0.6040
 1380TIP3    H2 4147   1.640   1.402   2.898 -1.5570 -0.0847  1.5456
 1381TIP3   OH2 4148   1.555   5.772   3.566 -0.1053 -0.1340  0.5383
 1381TIP3    H1 4149   1.504   5.715   3.509 -0.0623 -1.5961  1.8953
 1381TIP3    H2 4150   1.629   5.800   3.512 -0.4540 -0.8841 -0.3422
 1382TIP3   OH2 4151   2.452   1.381   3.810 -0.4258  0.0492  0.3433
 1382TIP3    H1 4152   2.407   1.441   3.869  0.2351  0.8658  0.0365
 1382TIP3    H2 4153   2.397   1.302   3.809 -0.0858 -0.2813  2.5774
 1383TIP3   OH2 4154   5.577   4.956   2.448  0.1983  0.0838 -0.1645
 1383TIP3    H1 4155   5.498   4.901   2.447  0.7233 -0.6891  0.1747
 1383TIP3    H2 4156   5.635   4.916   2.384  0.5163  0.3581 -0.0493
 1384TIP3   OH2 4157   1.413   5.496   1.503 -0.2535  0.1067 -0.4606
 1384TIP3    H1 4158   1.475   5.567   1.486 -0.9501  0.4874 -1.4305
 1384TIP3    H2 4159   1.417   5.441   1.425  0.2830 -0.9443  0.2803
 1385TIP3   OH2 4160   2.342   5.752   2.227 -0.5132 -0.1900  0.0081
 1385TIP3    H1 4161   2.308   5.730   2.140 -1.2522 -0.0799  0.2666
 1385TIP3    H2 4162   2.291   5.698   2.287 -0.2130 -0.0371  0.4059
 1386TIP3   OH2 4163   3.055   2.424   0.533  0.1000 -0.1024  1.3024
 1386TIP3    H1 4164   3.049   2.481   0.609 -0.4803 -0.7818  1.7837
 1386TIP3    H2 4165   3.149   2.417   0.515  0.1540  1.8376  0.5631
 1387TIP3   OH2 4166   2.317   0.835   4.736 -0.1024  0.2349 -0.6158
 1387TIP3    H1 4167   2.280   0.833   4.648 -0.1609 -0.0245 -0.5866
 1387TIP3    H2 4168   2.367   0.753   4.743  0.4711  0.5784 -0.6551
 1388TIP3   OH2 4169   0.989   5.088   1.816  0.2883 -0.3729 -0.2789
 1388TIP3    H1 4170   0.948   5.149   1.878  1.9621  0.3227  0.1928
 1388TIP3    H2 4171   1.083   5.104   1.824  0.6109 -0.7399 -2.5156
 1389TIP3   OH2 4172   2.215   2.267   1.270  0.3912  0.6746  0.0125
 1389TIP3    H1 4173   2.173   2.227   1.193 -0.0410 -2.3813  1.6701
 1389TIP3    H2 4174   2.305   2.235   1.267  0.2665  0.1920  0.9206
 1390TIP3   OH2 4175   5.519   3.267   3.129 -0.1420 -0.4409  0.1285
 1390TIP3    H1 4176   5.496   3.221   3.049 -1.8410 -0.5610  0.6552
 1390TIP3    H2 4177   5.495   3.206   3.200 -0.2287  0.3222  0.7682
 1391TIP3   OH2 4178   5.160   1.494   4.215 -0.0613  0.1370 -0.1961
 1391TIP3    H1 4179   5.127   1.404   4.223 -1.5339  0.5574 -1.0875
 1391TIP3    H2 4180   5.170   1.507   4.121  0.9594  0.6515 -0.0307
 1392TIP3   OH2 4181   3.474   5.512   3.500  0.0964  0.1443 -0.1364
 1392TIP3    H1 4182   3.429   5.487   3.420 -0.2087 -0.2287  0.1499
 1392TIP3    H2 4183   3.408   5.556   3.553  0.2656  0.2899 -0.0441
 1393TIP3   OH2 4184   4.770   5.110   4.804 -0.0940  0.7157 -0.1440
 1393TIP3    H1 4185   4.810   5.192   4.775 -0.9745  0.7838 -1.2146
 1393TIP3    H2 4186   4.695   5.097   4.746 -1.3371  0.3140  1.4525
 1394TIP3   OH2 4187   3.667   5.259   4.689 -0.4611 -0.3497  0.6343
 1394TIP3    H1 4188   3.709   5.241   4.605 -2.9151  0.6171 -0.8871
 1394TIP3    H2 4189   3.663   5.173   4.732  1.4930 -0.7318  0.1691
 1395TIP3   OH2 4190   3.034   1.914   5.036  1.0236 -0.1630  0.1413
 1395TIP3    H1 4191   3.079   1.900   4.952 -0.0285 -0.1026 -0.4569
 1395TIP3    H2 4192   3.044   2.007   5.053 -0.0646  0.1440 -0.7293
 1396TIP3   OH2 4193   5.144   5.540   3.234 -0.3667  1.0934  0.3288
 1396TIP3    H1 4194   5.117   5.597   3.162 -0.5759  1.5882  0.7900
 1396TIP3    H2 4195   5.088   5.463   3.226  1.1081  0.1283 -1.3550
 1397TIP3   OH2 4196   4.121   1.408   0.275 -0.2023  0.2431 -0.1991
 1397TIP3    H1 4197   4.190   1.342   0.265 -0.3191 -0.1619  1.3964
 1397TIP3    H2 4198   4.070   1.378   0.350 -0.5891  1.8780  0.2307
 1398TIP3   OH2 4199   3.222   1.153   2.253  0.4751  0.8047  0.0201
 1398TIP3    H1 4200   3.235   1.193   2.166  0.2732 -1.1463 -0.9555
 1398TIP3    H2 4201   3.289   1.193   2.308  0.2787  2.4674 -0.8738
 1399TIP3   OH2 4202   0.440   0.700   3.965  0.6692 -0.1065  0.4442
 1399TIP3    H1 4203   0.439   0.634   3.895  2.7901  0.4557 -0.1667
 1399TIP3    H2 4204   0.357   0.747   3.954  0.0343 -1.3517 -0.3839
 1400TIP3   OH2 4205   4.824   0.018   3.681  0.0757  0.0829 -0.1710
 1400TIP3    H1 4206   4.784   0.103   3.662 -1.5426 -0.7452 -0.6838
 1400TIP3    H2 4207   4.869  -0.006   3.600 -1.3537 -0.5166 -0.8265
 1401TIP3   OH2 4208   1.535   3.454   4.192  0.0144 -0.7367 -0.1161
 1401TIP3    H1 4209   1.542   3.550   4.188 -0.6542 -0.6509  0.7914
 1401TIP3    H2 4210   1.459   3.437   4.246  0.3707 -1.7980  0.0713
 1402TIP3   OH2 4211   1.756   3.179   5.064 -0.1022 -0.5429  0.1639
 1402TIP3    H1 4212   1.764   3.132   4.981 -0.3272 -0.2257 -0.0397
 1402TIP3    H2 4213   1.664   3.203   5.069  0.2354  0.9578 -0.3417
 1403TIP3   OH2 4214   3.150   0.985   4.458 -0.2725  0.1792  0.2618
 1403TIP3    H1 4215   3.217   0.917   4.469  1.5367  1.7166 -0.6356
 1403TIP3    H2 4216   3.091   0.949   4.391  0.3292 -0.7364  0.1912
 1404TIP3   OH2 4217   1.167   3.953   3.563  0.2245 -0.4545  0.5489
 1404TIP3    H1 4218   1.150   4.042   3.594  4.2936  0.8424 -0.3185
 1404TIP3    H2 4219   1.177   3.901   3.642 -1.6687 -0.0988  1.0746
 1405TIP3   OH2 4220   1.483   0.838   4.852  0.0321 -0.0149  0.3162
 1405TIP3    H1 4221   1.551   0.814   4.916  1.5473  0.1698 -1.1390
 1405TIP3    H2 4222   1.480   0.764   4.792 -1.4369 -0.2172  0.5952
 1406TIP3   OH2 4223   5.783   5.643   4.584 -0.4547  0.2811 -0.1090
 1406TIP3    H1 4224   5.817   5.725   4.548  1.2446 -1.0199 -1.6622
 1406TIP3    H2 4225   5.801   5.577   4.517  0.9127 -1.9182  2.1976
 1407TIP3   OH2 4226   4.187   4.248   4.822 -0.2019 -0.1833 -0.3967
 1407TIP3    H1 4227   4.277   4.276   4.836  0.0719 -0.4440 -1.4968
 1407TIP3    H2 4228   4.190   4.152   4.828 -0.0737 -0.3134 -1.9535
 1408TIP3   OH2 4229   4.901   2.197   0.250 -0.4453  0.1142  0.0535
 1408TIP3    H1 4230   4.881   2.262   0.317 -0.7056  0.5325 -0.4248
 1408TIP3    H2 4231   4.938   2.124   0.298 -0.7829  0.3441  0.6758
 1409TIP3   OH2 4232   5.556   1.670   4.980  0.0516 -1.1389  0.5041
 1409TIP3    H1 4233   5.513   1.589   5.007 -2.1705  0.1305  1.0230
 1409TIP3    H2 4234   5.489   1.715   4.928  0.3085  1.4302  2.2427
 1410TIP3   OH2 4235   4.010   3.719   3.458  0.0677  0.6482  0.6646
 1410TIP3    H1 4236   4.033   3.748   3.546  1.3162 -0.6061  0.7969
 1410TIP3    H2 4237   4.094   3.715   3.412 -0.3907 -0.1095 -0.1304
 1411TIP3   OH2 4238   5.412   2.351   3.399 -0.1690  0.6387 -0.5217
 1411TIP3    H1 4239   5.479   2.394   3.452 -0.8903 -0.8023  1.7061
 1411TIP3    H2 4240   5.437   2.259   3.397 -1.6249  0.2045 -0.3177
 1412TIP3   OH2 4241   3.684   3.018   3.651  0.0309 -0.5327 -0.0769
 1412TIP3    H1 4242   3.768   3.037   3.610 -0.0280  0.6683  0.3046
 1412TIP3    H2 4243   3.622   3.077   3.607 -0.1956  0.1327  1.0932
 1413TIP3   OH2 4244   5.000   2.510   3.577  0.0676  0.4941 -0.4134
 1413TIP3    H1 4245   5.079   2.509   3.632  1.5072  0.4172 -2.3994
 1413TIP3    H2 4246   4.951   2.586   3.609  1.1871  0.8733  0.5107
 1414TIP3   OH2 4247   0.790   0.819   4.169 -0.8944  0.6320 -0.5195
 1414TIP3    H1 4248   0.826   0.795   4.255  0.0163 -1.3512 -1.3953
 1414TIP3    H2 4249   0.737   0.897   4.187 -1.4936 -0.2415  2.0103
 1415TIP3   OH2 4250   3.864   3.408   2.297 -0.3440 -0.1247  0.2541
 1415TIP3    H1 4251   3.831   3.323   2.327  0.0045 -0.1462  0.5866
 1415TIP3    H2 4252   3.958   3.394   2.286 -0.3398  0.1226 -0.0340
 1416TIP3   OH2 4253   2.902   4.057   3.066  0.1782  0.2481 -0.5724
 1416TIP3    H1 4254   2.964   4.129   3.061 -0.8018  1.0597 -1.4856
 1416TIP3    H2 4255   2.821   4.098   3.097 -0.0167 -0.7248  0.2622
 1417TIP3   OH2 4256   5.939   2.645   0.315 -0.1860 -0.5024  0.1599
 1417TIP3    H1 4257   5.868   2.699   0.279 -0.6182 -1.3695 -0.3126
 1417TIP3    H2 4258   5.965   2.588   0.243 -0.9979 -2.2104  1.1426
 1418TIP3   OH2 4259   1.798   3.025   2.303  0.5494 -0.5692  0.0957
 1418TIP3    H1 4260   1.828   3.054   2.217  3.3304 -3.2526 -0.0204
 1418TIP3    H2 4261   1.709   2.993   2.287  0.1083  1.1769 -1.2034
 1419TIP3   OH2 4262   5.812   1.879   0.573 -0.3721 -0.2459  0.1603
 1419TIP3    H1 4263   5.887   1.873   0.632  0.1769  1.6787 -0.2730
 1419TIP3    H2 4264   5.850   1.899   0.488 -1.2953 -0.9985 -0.4559
 1420TIP3   OH2 4265   0.811   3.409   4.161 -0.1295 -0.6947 -0.4890
 1420TIP3    H1 4266   0.873   3.336   4.167 -1.1993 -1.5680  0.3307
 1420TIP3    H2 4267   0.838   3.457   4.083  0.7447 -1.8275 -0.9101
 1421TIP3   OH2 4268  -0.002   4.292   4.560  0.2689 -0.1466 -0.0854
 1421TIP3    H1 4269  -0.050   4.356   4.611 -0.1660 -0.0462 -0.6205
 1421TIP3    H2 4270   0.090   4.306   4.584  0.0211 -0.5309  1.1465
 1422TIP3   OH2 4271   4.276   2.071   2.582  0.2223 -0.0857 -0.2501
 1422TIP3    H1 4272   4.300   2.004   2.517  1.1908 -0.7165  0.7132
 1422TIP3    H2 4273   4.182   2.063   2.592 -0.0091  0.3011 -1.8632
 1423TIP3   OH2 4274   0.288   1.387   1.121 -0.0726 -0.2560  0.0352
 1423TIP3    H1 4275   0.349   1.456   1.148  1.1171 -0.8220 -1.1281
 1423TIP3    H2 4276   0.226   1.381   1.194 -0.7803  2.6610 -0.2050
 1424TIP3   OH2 4277   0.188   0.078   4.065 -0.1134 -0.0242 -0.1139
 1424TIP3    H1 4278   0.193   0.157   4.119 -2.1338  0.5032 -0.6111
 1424TIP3    H2 4279   0.210   0.108   3.977 -0.2990 -0.1287 -0.1967
 1425TIP3   OH2 4280   4.404   5.265   3.686 -0.0545  0.2934 -0.1967
 1425TIP3    H1 4281   4.363   5.306   3.609  0.7189  4.9695  1.5268
 1425TIP3    H2 4282   4.353   5.297   3.760  1.5056 -0.9219  1.4807
 1426TIP3   OH2 4283   1.964   2.909   1.122  0.1055  0.2873 -0.1893
 1426TIP3    H1 4284   1.945   2.853   1.047  0.8474  0.9197 -0.8760
 1426TIP3    H2 4285   2.056   2.933   1.111  0.7274 -0.8980  1.8025
 1427TIP3   OH2 4286   3.800   1.590   0.589  0.3559  0.2310  0.2188
 1427TIP3    H1 4287   3.774   1.498   0.590  0.6249  0.0959 -1.7495
 1427TIP3    H2 4288   3.834   1.605   0.501  0.4246  2.1942  0.5265
 1428TIP3   OH2 4289   5.442   0.837   4.049 -0.7782  0.0420  0.1633
 1428TIP3    H1 4290   5.377   0.771   4.023 -0.5233 -0.1874  0.1084
 1428TIP3    H2 4291   5.452   0.824   4.143 -0.8007  0.0689  0.1696
 1429TIP3   OH2 4292   5.103   1.700   1.578  0.1058 -0.2485 -0.4518
 1429TIP3    H1 4293   5.143   1.621   1.614  0.0460 -0.4663 -0.8531
 1429TIP3    H2 4294   5.088   1.679   1.486 -0.2019  0.1176 -0.4868
 1430TIP3   OH2 4295   2.082   2.050   0.293  0.7550  0.4342 -0.4212
 1430TIP3    H1 4296   2.074   1.955   0.302  2.1310  0.4148  1.3433
 1430TIP3    H2 4297   2.018   2.085   0.355  0.6256  0.6268 -0.6685
 1431TIP3   OH2 4298   3.162   1.716   2.561 -0.3230 -0.9633  0.5300
 1431TIP3    H1 4299   3.098   1.786   2.553 -1.2021 -1.8045 -0.0010
 1431TIP3    H2 4300   3.200   1.727   2.648 -1.0082 -0.3042  0.7478
 1432TIP3   OH2 4301   3.299   5.752   2.801  0.2049 -0.0976 -0.1247
 1432TIP3    H1 4302   3.309   5.822   2.736 -1.9927  1.0844  0.6867
 1432TIP3    H2 4303   3.204   5.745   2.813  0.4568 -2.0260  1.1349
 1433TIP3   OH2 4304   1.465   5.492   1.794  0.2885 -0.0219 -1.1226
 1433TIP3    H1 4305   1.454   5.523   1.704  1.2666  0.9727 -0.9136
 1433TIP3    H2 4306   1.402   5.543   1.845  2.1224  1.9847 -0.7254
 1434TIP3   OH2 4307   5.495   1.037   1.964  0.6087 -0.6599  0.3565
 1434TIP3    H1 4308   5.580   1.002   1.935  0.9511  1.3353 -1.2402
 1434TIP3    H2 4309   5.450   1.060   1.883 -2.2653 -3.1915  1.0317
 1435TIP3   OH2 4310   2.982   4.391   2.654  0.4028  0.1393 -0.5330
 1435TIP3    H1 4311   3.012   4.300   2.646 -0.4098 -0.3374  1.3794
 1435TIP3    H2 4312   3.032   4.438   2.587  1.5916 -1.5261 -0.8898
 1436TIP3   OH2 4313   3.771   3.813   3.462  0.0138  0.1501 -0.1079
 1436TIP3    H1 4314   3.860   3.783   3.441  0.4417  0.8056  0.7043
 1436TIP3    H2 4315   3.765   3.805   3.557 -1.7623 -2.4311 -0.3434
 1437TIP3   OH2 4316   4.309   5.167   4.512 -0.1499  0.1310  0.0148
 1437TIP3    H1 4317   4.331   5.203   4.598 -2.8370 -2.9518  2.2670
 1437TIP3    H2 4318   4.376   5.101   4.496 -0.3945 -0.2502  0.5004
 1438TIP3   OH2 4319   5.451   0.745   0.479  0.0804  0.2875  0.1242
 1438TIP3    H1 4320   5.389   0.768   0.549 -1.4542  1.4486 -1.5353
 1438TIP3    H2 4321   5.491   0.829   0.455  2.0956 -0.3892  0.9023
 1439TIP3   OH2 4322   2.359   5.907   4.115  0.0153  0.1154  0.0186
 1439TIP3    H1 4323   2.273   5.903   4.074  0.6728 -1.4636 -1.3196
 1439TIP3    H2 4324   2.403   5.981   4.072 -0.2299  0.1356 -0.1975
 1440TIP3   OH2 4325   3.191   2.236   1.055  0.5115 -0.0445  0.1691
 1440TIP3    H1 4326   3.235   2.191   0.983 -0.1135 -0.2146 -0.1078
 1440TIP3    H2 4327   3.256   2.298   1.088  2.0260 -2.2397  1.6378
 1441TIP3   OH2 4328   1.542   5.325   2.205 -0.9262  0.4458 -0.0530
 1441TIP3    H1 4329   1.467   5.383   2.213 -0.7477  0.7414 -0.4447
 1441TIP3    H2 4330   1.608   5.378   2.160  1.1862  1.7892  4.1168
 1442TIP3   OH2 4331   2.993   1.937   3.244  0.5112 -0.2529 -0.6275
 1442TIP3    H1 4332   3.073   1.889   3.268  0.2992 -0.2736  0.0715
 1442TIP3    H2 4333   2.922   1.884   3.280  0.1414 -0.4731 -1.6439
 1443TIP3   OH2 4334   2.645   2.860   2.380 -0.2452  0.0139  0.9658
 1443TIP3    H1 4335   2.555   2.831   2.367  0.6093 -1.8020 -1.8795
 1443TIP3    H2 4336   2.691   2.783   2.414  0.2609  0.9505  2.5021
 1444TIP3   OH2 4337   0.030   3.564   4.821  0.3864 -0.3679  0.5135
 1444TIP3    H1 4338   0.119   3.534   4.797  0.5199 -0.2142  0.8186
 1444TIP3    H2 4339   0.017   3.644   4.770  0.6350 -0.0920  0.8790
 1445TIP3   OH2 4340   5.654   2.363   3.793 -1.0964  0.4892 -0.4546
 1445TIP3    H1 4341   5.660   2.275   3.756 -0.1597  0.5103 -0.3866
 1445TIP3    H2 4342   5.574   2.361   3.846 -0.0530 -0.9799  1.1911
 1446TIP3   OH2 4343   3.967   1.559   1.792  0.0598  0.0773 -0.2582
 1446TIP3    H1 4344   3.924   1.566   1.707 -0.8227 -1.3699  0.0442
 1446TIP3    H2 4345   4.053   1.600   1.779  0.7832 -1.9108 -2.4269
 1447TIP3   OH2 4346   1.980   3.439   2.260  0.1865  0.0164 -0.6979
 1447TIP3    H1 4347   2.024   3.513   2.301 -0.8219  0.2908 -0.0680
 1447TIP3    H2 4348   1.946   3.474   2.178  1.3419 -0.2686 -1.3201
 1448TIP3   OH2 4349   4.455   3.406   0.729  0.5367  0.3146 -0.1117
 1448TIP3    H1 4350   4.365   3.435   0.713  0.8666  0.8800 -1.0010
 1448TIP3    H2 4351   4.498   3.483   0.767  0.5024 -0.1428  0.9002
 1449TIP3   OH2 4352   3.134   3.323   4.519  1.0670  0.4140  0.1202
 1449TIP3    H1 4353   3.120   3.378   4.596  0.4599  1.7096 -0.8727
 1449TIP3    H2 4354   3.067   3.254   4.527 -0.1992  1.5651 -0.1189
 1450TIP3   OH2 4355   4.594   3.755   3.479  0.1148  0.0964 -0.1270
 1450TIP3    H1 4356   4.680   3.796   3.487 -0.3520  0.7364  2.5211
 1450TIP3    H2 4357   4.597   3.680   3.539 -0.5134 -1.1824 -1.6139
 1451TIP3   OH2 4358   5.721   5.925   0.875 -0.0511  0.1055  0.0583
 1451TIP3    H1 4359   5.753   5.835   0.881  1.3385  0.6464  1.4945
 1451TIP3    H2 4360   5.633   5.921   0.914 -0.6462 -0.8774 -1.2934
 1452TIP3   OH2 4361   1.920   2.846   0.534  0.2470 -0.2268  0.0239
 1452TIP3    H1 4362   1.912   2.751   0.534  1.0542 -0.3438 -1.6345
 1452TIP3    H2 4363   2.014   2.862   0.527  0.0253  0.5460 -3.3836
 1453TIP3   OH2 4364   0.974   3.380   0.053 -0.2694  0.1235 -0.8057
 1453TIP3    H1 4365   1.011   3.448  -0.004  0.2249 -0.3144 -1.0142
 1453TIP3    H2 4366   1.033   3.306   0.044  0.9820  0.6884  1.8256
 1454TIP3   OH2 4367   2.253   5.041   4.932  0.1142  0.1764  0.0269
 1454TIP3    H1 4368   2.251   4.991   5.014  4.9612 -0.2970  0.1219
 1454TIP3    H2 4369   2.203   4.987   4.870 -1.1539 -0.9404  1.9251
 1455TIP3   OH2 4370   4.035   4.761   3.409  0.4338 -0.0577 -0.1965
 1455TIP3    H1 4371   4.102   4.693   3.415 -1.9477 -2.5533  0.3827
 1455TIP3    H2 4372   4.020   4.771   3.315  1.1487  0.0578 -0.3073
 1456TIP3   OH2 4373   0.423   0.755   4.637 -0.1701 -0.1683  0.7574
 1456TIP3    H1 4374   0.350   0.744   4.697  0.4232 -0.9910  1.3604
 1456TIP3    H2 4375   0.499   0.721   4.685  0.3652 -0.5931 -0.3447
 1457TIP3   OH2 4376   3.713   4.145   0.501 -0.0047 -0.5533  0.5163
 1457TIP3    H1 4377   3.708   4.195   0.420  2.2640 -1.2998 -0.1721
 1457TIP3    H2 4378   3.668   4.063   0.481  1.0659 -0.9822 -0.2335
 1458TIP3   OH2 4379   2.121   4.575   0.278 -0.0399  0.1248  0.3076
 1458TIP3    H1 4380   2.102   4.486   0.306  2.5076 -1.0525 -1.3095
 1458TIP3    H2 4381   2.209   4.593   0.313 -0.2557  1.8068  0.1002
 1459TIP3   OH2 4382   5.093   0.745   3.101  0.5154 -0.3998  0.5079
 1459TIP3    H1 4383   5.157   0.720   3.168  0.4338 -0.6403  0.4971
 1459TIP3    H2 4384   5.008   0.736   3.144  0.3660 -2.0117 -0.0621
 1460TIP3   OH2 4385   4.265   1.101   4.016  0.2373  0.0618 -0.3211
 1460TIP3    H1 4386   4.296   1.082   4.104 -0.5574  1.2543  0.2535
 1460TIP3    H2 4387   4.274   1.196   4.008 -0.4214  0.0601 -1.2482
 1461TIP3   OH2 4388   1.009   4.110   2.691 -0.0255 -0.3703  0.3299
 1461TIP3    H1 4389   1.049   4.196   2.693 -2.8172  1.0756 -0.2510
 1461TIP3    H2 4390   0.994   4.093   2.598 -0.5582 -0.9336  0.5125
 1462TIP3   OH2 4391   1.953   3.590   1.805  0.1686 -0.5127  0.0246
 1462TIP3    H1 4392   1.915   3.661   1.856  1.5295  1.5764 -1.7065
 1462TIP3    H2 4393   2.037   3.624   1.775  0.6688 -2.7041 -1.2965
 1463TIP3   OH2 4394   5.292   4.638   3.008 -0.2872 -0.2683 -0.3592
 1463TIP3    H1 4395   5.372   4.689   3.013 -1.6003  1.8925 -0.2667
 1463TIP3    H2 4396   5.279   4.622   2.915  1.0616 -2.1008 -0.2929
 1464TIP3   OH2 4397   4.426   3.556   4.210 -0.1890  0.7341  0.0241
 1464TIP3    H1 4398   4.472   3.553   4.294  1.2595 -1.1081 -0.7524
 1464TIP3    H2 4399   4.440   3.645   4.177  0.9385  0.8705  0.8434
 1465TIP3   OH2 4400   2.423   0.324   0.680  0.0537 -0.1430  0.0265
 1465TIP3    H1 4401   2.418   0.229   0.690  0.1905 -0.1475  0.0447
 1465TIP3    H2 4402   2.516   0.344   0.679  0.0823 -0.2186 -2.0375
 1466TIP3   OH2 4403   3.592   0.659   0.586 -0.1408  0.4567  0.3325
 1466TIP3    H1 4404   3.616   0.581   0.636  1.0474  0.1793 -0.6327
 1466TIP3    H2 4405   3.662   0.722   0.603  0.7234  0.0807 -1.5354
 1467TIP3   OH2 4406   2.237   2.261   3.987  0.1244 -0.1808 -0.3292
 1467TIP3    H1 4407   2.191   2.262   3.903 -1.4075 -1.4864  0.4389
 1467TIP3    H2 4408   2.320   2.217   3.968 -0.3367 -0.7511 -1.1046
 1468TIP3   OH2 4409   3.993   1.254   2.494  0.1580  0.0680 -0.2558
 1468TIP3    H1 4410   3.903   1.238   2.523 -0.2275  0.9147 -0.9454
 1468TIP3    H2 4411   3.997   1.213   2.408 -0.5610  2.6924 -1.6406
 1469TIP3   OH2 4412   4.115   3.824   4.836 -0.1444 -0.7033  0.2864
 1469TIP3    H1 4413   4.200   3.865   4.827  0.2287 -1.4996  0.0414
 1469TIP3    H2 4414   4.093   3.834   4.929 -0.0820  0.0668  0.2177
 1470TIP3   OH2 4415   3.189   1.679   0.114  0.0243  0.6557 -0.1034
 1470TIP3    H1 4416   3.237   1.694   0.032 -1.7535  3.1436 -0.8150
 1470TIP3    H2 4417   3.104   1.645   0.086  0.0533 -0.2840  0.8756
 1471TIP3   OH2 4418   5.790   1.049   2.006 -0.2454  0.6242  0.1940
 1471TIP3    H1 4419   5.816   0.975   2.061 -2.0939  1.2261  2.0188
 1471TIP3    H2 4420   5.852   1.048   1.932  2.0760 -0.5186  2.0235
 1472TIP3   OH2 4421   3.784   4.131   1.361  0.4544  0.2071 -0.1969
 1472TIP3    H1 4422   3.720   4.193   1.396  1.2593  0.4840  0.8109
 1472TIP3    H2 4423   3.731   4.063   1.318 -0.5058  0.4839  0.5274
 1473TIP3   OH2 4424   2.905   3.692   3.201 -0.0433 -0.2979  0.4483
 1473TIP3    H1 4425   2.816   3.728   3.196  0.4894  1.3480  1.9935
 1473TIP3    H2 4426   2.949   3.726   3.124 -0.0013  1.1617  1.0886
 1474TIP3   OH2 4427   1.099   0.502   3.269 -0.4466  0.3152  0.2673
 1474TIP3    H1 4428   1.159   0.458   3.209 -1.0659  0.2628 -0.3149
 1474TIP3    H2 4429   1.053   0.566   3.216  0.5366  1.8140  1.1359
 1475TIP3   OH2 4430   3.898   0.417   3.525 -0.3616  0.4699 -0.7361
 1475TIP3    H1 4431   3.912   0.359   3.450 -1.6766  0.2146 -0.8021
 1475TIP3    H2 4432   3.922   0.504   3.492  2.9326 -0.1351 -0.2352
 1476TIP3   OH2 4433   2.892   0.637   2.329 -0.0146 -0.4139  0.6214
 1476TIP3    H1 4434   2.814   0.586   2.312  0.6707 -1.3532  0.2181
 1476TIP3    H2 4435   2.897   0.642   2.424 -1.6851  1.4533  0.6734
 1477TIP3   OH2 4436   2.655   2.760   0.386  0.0757  0.4524  0.0713
 1477TIP3    H1 4437   2.615   2.841   0.418 -0.6026  0.5456 -0.9634
 1477TIP3    H2 4438   2.749   2.772   0.400 -0.0776  1.1322  0.5539
 1478TIP3   OH2 4439   4.028   4.060   0.258 -0.2421 -0.2101  0.1442
 1478TIP3    H1 4440   4.059   4.065   0.168 -0.1819  0.3581  0.1918
 1478TIP3    H2 4441   3.939   4.025   0.251 -0.4521  0.3785 -0.1868
 1479TIP3   OH2 4442   3.490   0.007   1.707 -0.7515 -0.2264 -0.6567
 1479TIP3    H1 4443   3.546   0.025   1.782 -1.2816  0.6304 -0.4495
 1479TIP3    H2 4444   3.408  -0.026   1.745 -0.8888 -0.1453 -0.8767
 1480TIP3   OH2 4445   5.817   1.709   4.968  1.0245 -0.2204 -0.2367
 1480TIP3    H1 4446   5.722   1.696   4.975  0.5524  1.3583 -2.4936
 1480TIP3    H2 4447   5.855   1.631   5.007 -1.1956 -0.9361  0.6680
 1481TIP3   OH2 4448   3.239   5.029   3.878 -0.3450 -0.3197  0.3037
 1481TIP3    H1 4449   3.214   5.063   3.964  1.6258 -1.5355  1.4361
 1481TIP3    H2 4450   3.284   5.102   3.836  1.5574 -0.6334  1.6660
 1482TIP3   OH2 4451   2.014   1.135   4.436 -0.4038 -0.1251  0.1802
 1482TIP3    H1 4452   2.008   1.155   4.343  0.9433 -0.5755 -0.0262
 1482TIP3    H2 4453   1.937   1.178   4.475 -0.2201  1.2855 -0.9230
 1483TIP3   OH2 4454   1.278   4.612   3.861 -0.0095  0.1133  0.3830
 1483TIP3    H1 4455   1.208   4.624   3.926 -0.6200 -1.5608  0.0869
 1483TIP3    H2 4456   1.357   4.600   3.913 -0.0135  1.4173  0.7359
 1484TIP3   OH2 4457   3.314   2.278   4.008 -0.0128 -1.0189  0.1093
 1484TIP3    H1 4458   3.278   2.190   4.018  0.1477 -1.2119 -0.8686
 1484TIP3    H2 4459   3.390   2.267   3.951  0.6079 -0.3774  0.7821
 1485TIP3   OH2 4460   5.194   5.460   2.577  0.5032 -0.1580  0.5633
 1485TIP3    H1 4461   5.279   5.491   2.610  0.8432 -0.2649 -0.1844
 1485TIP3    H2 4462   5.130   5.493   2.640  0.7079  3.0168 -0.6947
 1486TIP3   OH2 4463   3.954   0.196   3.358  0.0304 -0.0349  0.5435
 1486TIP3    H1 4464   4.018   0.179   3.428 -0.3697 -0.1337  0.8848
 1486TIP3    H2 4465   3.872   0.161   3.391  0.2263 -1.8761 -0.7754
 1487TIP3   OH2 4466   5.446   2.152   4.656  0.1549  0.0425  0.3002
 1487TIP3    H1 4467   5.461   2.237   4.615  0.8152 -0.6823 -1.0105
 1487TIP3    H2 4468   5.378   2.169   4.721  2.4543  2.2552  2.3795
 1488TIP3   OH2 4469   2.929   0.291   2.536 -0.1665  0.6997  0.3415
 1488TIP3    H1 4470   2.926   0.380   2.571 -0.8920  1.1756 -0.8758
 1488TIP3    H2 4471   2.966   0.301   2.448  0.1529 -0.2597  0.3561
 1489TIP3   OH2 4472   2.627   0.798   3.756 -0.1096 -0.0590  0.5984
 1489TIP3    H1 4473   2.587   0.712   3.766  0.4527 -0.3392  0.4292
 1489TIP3    H2 4474   2.696   0.800   3.822 -0.1325  0.2719  0.6139
 1490TIP3   OH2 4475   0.237   3.894   1.916  0.4467 -0.3499  0.0892
 1490TIP3    H1 4476   0.253   3.804   1.944 -0.0605 -0.9272 -1.3546
 1490TIP3    H2 4477   0.308   3.944   1.956  0.8481 -1.4136  0.7699
 1491TIP3   OH2 4478   2.849   3.696   4.312  0.3026 -0.1632 -0.4220
 1491TIP3    H1 4479   2.834   3.706   4.406  2.6825  0.2528 -0.0313
 1491TIP3    H2 4480   2.812   3.775   4.273 -2.2201 -1.0876 -0.1121
 1492TIP3   OH2 4481   1.084   0.963   0.294 -0.0019 -0.4603 -0.1848
 1492TIP3    H1 4482   1.135   0.951   0.374 -0.0869 -1.2839 -0.2396
 1492TIP3    H2 4483   1.112   0.890   0.238 -1.2588 -0.9517 -0.1958
 1493TIP3   OH2 4484   2.448   3.962   3.566  0.2951 -0.3625  0.1034
 1493TIP3    H1 4485   2.533   3.981   3.527 -0.4848 -0.4758 -1.7442
 1493TIP3    H2 4486   2.450   3.867   3.581  0.3207 -0.4473 -0.4092
 1494TIP3   OH2 4487   3.887   2.598   0.379 -0.6027  0.0247 -0.1067
 1494TIP3    H1 4488   3.812   2.549   0.347 -0.3670  0.5445 -1.5270
 1494TIP3    H2 4489   3.938   2.618   0.301  1.1310 -0.4869  0.8397
 1495TIP3   OH2 4490   1.888   3.843   0.115 -0.5655  0.4332 -0.4993
 1495TIP3    H1 4491   1.832   3.866   0.040 -1.0793 -1.6963 -0.8422
 1495TIP3    H2 4492   1.827   3.825   0.186 -0.2086  0.0502 -0.2863
 1496TIP3   OH2 4493   5.230   2.731   1.329 -0.4590  0.5863  0.4717
 1496TIP3    H1 4494   5.265   2.809   1.288  0.0246  0.5025  0.7187
 1496TIP3    H2 4495   5.298   2.703   1.391 -0.4635 -0.2285  0.1311
 1497TIP3   OH2 4496   4.310   0.240   0.203 -0.0670  0.5484  0.0323
 1497TIP3    H1 4497   4.215   0.235   0.193  0.0905 -3.0917 -0.8716
 1497TIP3    H2 4498   4.327   0.210   0.292  0.2837  1.3365  0.2448
 1498TIP3   OH2 4499   3.971   0.623   3.149 -0.9259  0.1318  0.3340
 1498TIP3    H1 4500   3.990   0.666   3.232  0.5004  0.5182 -0.1714
 1498TIP3    H2 4501   4.010   0.536   3.158 -0.8346  0.1477  0.1002
 1499TIP3   OH2 4502   0.629   1.276   0.322  0.0767 -1.0168 -0.3600
 1499TIP3    H1 4503   0.703   1.218   0.337  1.1606  0.5237  0.4764
 1499TIP3    H2 4504   0.556   1.233   0.367  0.2470 -2.8490 -1.6840
 1500TIP3   OH2 4505   1.577   5.940   1.899 -0.7326  0.6782 -0.3841
 1500TIP3    H1 4506   1.611   6.016   1.946 -0.6327  0.8688 -0.7624
 1500TIP3    H2 4507   1.580   5.869   1.963  2.5439  0.1040 -1.0196
 1501TIP3   OH2 4508   6.299   4.634   5.065 -0.0360 -0.3218  0.2858
 1501TIP3    H1 4509   6.248   4.701   5.019 -2.9754 -1.0105  2.2011
 1501TIP3    H2 4510   6.237   4.561   5.077  1.8593 -1.8201  1.5954
 1502TIP3   OH2 4511   5.265   4.361   4.097  0.0247  0.3230 -0.2082
 1502TIP3    H1 4512   5.222   4.402   4.172 -0.1476  0.0946 -0.1794
 1502TIP3    H2 4513   5.342   4.318   4.135 -0.5683 -0.5886 -0.0031
 1503TIP3   OH2 4514   3.023   2.565   1.818  0.0907 -0.0271  0.5825
 1503TIP3    H1 4515   3.008   2.610   1.734  0.3695 -0.6204  0.2102
 1503TIP3    H2 4516   3.093   2.502   1.799  0.7691  0.4337  1.4781
 1504TIP3   OH2 4517   1.534   0.735   2.123  0.1551  0.3680 -0.4838
 1504TIP3    H1 4518   1.602   0.795   2.095  0.2841  0.3205 -0.2697
 1504TIP3    H2 4519   1.479   0.723   2.045  0.6094  0.1029 -0.7688
 1505TIP3   OH2 4520   3.280   4.440   2.957 -0.5738 -0.1613 -0.3314
 1505TIP3    H1 4521   3.332   4.452   2.877 -1.3866  0.0163 -0.8406
 1505TIP3    H2 4522   3.303   4.517   3.010  0.7159 -0.7739  0.0497
 1506TIP3   OH2 4523   5.432   2.644   0.646  0.1811 -0.1347 -0.2190
 1506TIP3    H1 4524   5.501   2.580   0.625 -0.4604 -1.9182  2.5317
 1506TIP3    H2 4525   5.366   2.632   0.578 -0.0677 -2.7206  0.3890
 1507TIP3   OH2 4526   0.582   1.166   1.670 -0.2377 -0.2974  0.1431
 1507TIP3    H1 4527   0.521   1.202   1.605  0.0843  1.9742  0.9854
 1507TIP3    H2 4528   0.565   1.072   1.670 -2.2446  0.0008 -1.1434
 1508TIP3   OH2 4529   5.296   2.141   0.675  0.0298 -0.4493  0.4927
 1508TIP3    H1 4530   5.247   2.202   0.730  0.6003  0.0327  0.4815
 1508TIP3    H2 4531   5.242   2.130   0.597  0.4588  1.0164 -0.0585
 1509TIP3   OH2 4532   2.756   1.864   1.887  0.1045  0.0632  0.5314
 1509TIP3    H1 4533   2.816   1.936   1.868  1.8115 -1.3040  0.4624
 1509TIP3    H2 4534   2.670   1.905   1.889  1.0924  2.2770  1.4924
 1510TIP3   OH2 4535   0.079   4.957   0.611  0.9260 -0.1532  0.2651
 1510TIP3    H1 4536  -0.001   4.936   0.563  0.4649 -1.2807  1.4568
 1510TIP3    H2 4537   0.135   4.881   0.598  1.0443 -0.1942  0.9715
 1511TIP3   OH2 4538   0.753   1.908   2.314 -0.7561  0.2761 -0.0713
 1511TIP3    H1 4539   0.665   1.886   2.283 -0.4881 -0.6143 -0.2152
 1511TIP3    H2 4540   0.738   1.977   2.379 -1.6444 -0.4392  0.5214
 1512TIP3   OH2 4541   3.292   3.199   3.156 -0.1024 -0.0840  0.0448
 1512TIP3    H1 4542   3.363   3.259   3.135  0.1779 -0.6736 -0.7431
 1512TIP3    H2 4543   3.224   3.255   3.192  0.7868  0.4850  0.8990
 1513TIP3   OH2 4544   0.635   3.702   4.053  0.3671 -0.4244 -0.3436
 1513TIP3    H1 4545   0.699   3.650   4.102  0.4861 -0.2505 -0.3104
 1513TIP3    H2 4546   0.652   3.680   3.961 -0.1638 -1.0998 -0.2861
 1514TIP3   OH2 4547   6.154   3.698   0.242 -0.1237 -0.2885  0.2334
 1514TIP3    H1 4548   6.125   3.744   0.321 -0.5216 -0.2672  0.0796
 1514TIP3    H2 4549   6.171   3.609   0.272 -2.0858 -0.8013  0.0184
 1515TIP3   OH2 4550   5.288   0.077   1.255 -0.4073 -0.3591  0.2415
 1515TIP3    H1 4551   5.315   0.143   1.319 -1.0977  1.2996 -1.0826
 1515TIP3    H2 4552   5.263   0.001   1.307 -1.0958  0.9725  1.9531
 1516TIP3   OH2 4553   1.326   4.491   0.408  0.5605  0.2744 -0.2904
 1516TIP3    H1 4554   1.413   4.452   0.404  0.3950 -0.7499  2.8530
 1516TIP3    H2 4555   1.331   4.555   0.479 -1.1974  0.2372 -0.0730
 1517TIP3   OH2 4556   4.536   4.364   0.749  0.0418 -0.5968 -0.4306
 1517TIP3    H1 4557   4.513   4.455   0.730 -0.5039 -0.4655  0.8031
 1517TIP3    H2 4558   4.494   4.314   0.679 -0.5804 -0.0012 -0.4943
 1518TIP3   OH2 4559   5.090   2.258   3.965 -0.8589  0.1068 -0.1763
 1518TIP3    H1 4560   5.137   2.176   3.978 -1.0539  0.2154  1.2992
 1518TIP3    H2 4561   5.047   2.247   3.880 -0.4091 -1.0809 -0.2685
 1519TIP3   OH2 4562   5.570   0.142   2.478  0.1764 -0.1902  0.5645
 1519TIP3    H1 4563   5.586   0.236   2.467  0.2654 -0.2257  0.3777
 1519TIP3    H2 4564   5.566   0.108   2.388  0.0681 -0.3514  0.6309
 1520TIP3   OH2 4565   4.494   0.042   2.955  0.0114 -0.5677  0.2669
 1520TIP3    H1 4566   4.433   0.091   2.899  0.8402 -0.4393 -0.5415
 1520TIP3    H2 4567   4.579   0.053   2.913  0.2320 -2.7166  0.0340
 1521TIP3   OH2 4568   2.007   1.140   3.863  0.2833  0.4312  0.3991
 1521TIP3    H1 4569   2.083   1.115   3.916  1.7489 -0.8455 -2.1120
 1521TIP3    H2 4570   1.974   1.057   3.827 -1.0687  1.1729 -0.1631
 1522TIP3   OH2 4571   3.025   3.448   1.521  0.3633  0.3979 -0.4074
 1522TIP3    H1 4572   2.931   3.464   1.511  0.0274  0.3231  2.1057
 1522TIP3    H2 4573   3.042   3.370   1.469 -0.9799  0.3561 -0.8187
 1523TIP3   OH2 4574   4.000   3.096   4.199  0.4225 -0.0475 -0.1913
 1523TIP3    H1 4575   4.017   3.187   4.220  2.4948 -0.1997 -0.9296
 1523TIP3    H2 4576   3.955   3.099   4.114 -0.5520  0.2919  0.3217
 1524TIP3   OH2 4577   1.120   5.354   2.068  0.0766 -0.2001 -0.0618
 1524TIP3    H1 4578   1.102   5.387   2.156 -0.6322  0.7150 -0.5415
 1524TIP3    H2 4579   1.042   5.376   2.017  1.0841  0.6331 -1.2963
 1525TIP3   OH2 4580   0.382   2.929   2.488  0.3773  0.2028  0.1990
 1525TIP3    H1 4581   0.386   2.834   2.500 -1.5313  0.0616  0.0888
 1525TIP3    H2 4582   0.301   2.955   2.531  0.2922  1.6295 -0.7436
 1526TIP3   OH2 4583   1.067   4.790   1.229  0.3714 -0.1495  0.5131
 1526TIP3    H1 4584   1.057   4.695   1.219 -2.1196  0.1927 -1.0052
 1526TIP3    H2 4585   0.999   4.814   1.293  0.5269  0.6953  0.3690
 1527TIP3   OH2 4586   0.007   5.165   0.948 -0.7965  0.1677  0.1669
 1527TIP3    H1 4587   0.068   5.237   0.935 -0.3316 -0.4618 -1.3874
 1527TIP3    H2 4588  -0.028   5.179   1.036 -1.2712  2.6928 -0.3447
 1528TIP3   OH2 4589   0.864   4.302   2.426  0.4762  1.1008 -0.5297
 1528TIP3    H1 4590   0.897   4.229   2.479 -0.8020  1.6761  1.1542
 1528TIP3    H2 4591   0.795   4.264   2.372  0.5895  0.8482 -0.4990
 1529TIP3   OH2 4592   0.756   1.368   5.008 -0.0246  0.2715  0.0437
 1529TIP3    H1 4593   0.766   1.450   4.961 -1.6741  0.5432  0.1014
 1529TIP3    H2 4594   0.754   1.301   4.939 -2.0235  0.6298 -0.3063
 1530TIP3   OH2 4595   2.855   1.190   3.224  0.5433  0.4747  0.0789
 1530TIP3    H1 4596   2.770   1.201   3.181  0.7942  0.0948 -0.5377
 1530TIP3    H2 4597   2.919   1.209   3.155  0.9625  1.3144  0.6891
 1531TIP3   OH2 4598   5.734   5.502   5.066 -0.0041  0.0899  0.4846
 1531TIP3    H1 4599   5.732   5.523   4.973  0.3343  0.1729  0.4915
 1531TIP3    H2 4600   5.826   5.514   5.091 -0.1801  0.5502  0.9345
 1532TIP3   OH2 4601   2.612   3.814   1.631  0.7912  0.6004  0.0652
 1532TIP3    H1 4602   2.605   3.784   1.540  0.1182  0.9880 -0.0123
 1532TIP3    H2 4603   2.622   3.909   1.624  0.8482  0.6185  0.3949
 1533TIP3   OH2 4604   3.029   4.784   2.280  0.6347 -0.3819 -0.6467
 1533TIP3    H1 4605   3.106   4.764   2.333 -0.0987 -1.3961  0.0901
 1533TIP3    H2 4606   3.063   4.831   2.204  1.7482  0.9509  0.6168
 1534TIP3   OH2 4607   5.717   3.273   2.503 -0.3978 -0.0145  0.0735
 1534TIP3    H1 4608   5.624   3.290   2.487  0.0966  2.2331 -0.8460
 1534TIP3    H2 4609   5.745   3.346   2.558  0.6195 -1.2587  1.2908
 1535TIP3   OH2 4610   6.082   2.214   3.029 -0.0230 -0.2243  0.3496
 1535TIP3    H1 4611   6.116   2.271   2.960  1.4272 -0.2419  1.0163
 1535TIP3    H2 4612   6.056   2.134   2.983  0.1979  0.0569 -0.2769
 1536TIP3   OH2 4613   5.992   3.429   0.116  0.0809 -0.1047 -0.2229
 1536TIP3    H1 4614   5.976   3.335   0.124 -2.7886  0.4109  1.4017
 1536TIP3    H2 4615   5.988   3.462   0.206 -1.5822  1.8724 -0.9225
 1537TIP3   OH2 4616   1.484   0.009   2.777 -0.4498 -0.2957 -0.1597
 1537TIP3    H1 4617   1.438   0.040   2.855 -1.6126 -2.5472  0.1174
 1537TIP3    H2 4618   1.415  -0.007   2.713  0.5685  2.8859 -2.2866
 1538TIP3   OH2 4619   0.524   1.235   3.744 -0.4760 -0.0843  0.1050
 1538TIP3    H1 4620   0.459   1.270   3.805 -0.0955 -0.9247  1.0384
 1538TIP3    H2 4621   0.602   1.288   3.760 -0.8483  0.7561 -0.8298
 1539TIP3   OH2 4622   2.352   1.139   2.652  0.3967  0.2949 -0.0559
 1539TIP3    H1 4623   2.387   1.083   2.721  0.5378  0.0649 -0.3132
 1539TIP3    H2 4624   2.333   1.079   2.580 -1.3698  0.2562  0.3736
 1540TIP3   OH2 4625   2.624   5.482   1.475 -0.1839 -0.1561 -0.4360
 1540TIP3    H1 4626   2.602   5.393   1.502  0.4035  0.0156  0.6568
 1540TIP3    H2 4627   2.690   5.470   1.407  0.0918 -0.5576 -0.1036
 1541TIP3   OH2 4628   4.244   4.350   2.796 -0.1978  0.3242  0.1951
 1541TIP3    H1 4629   4.273   4.441   2.807  0.3024  0.0737  1.0021
 1541TIP3    H2 4630   4.315   4.308   2.747  0.6358 -0.1687  1.7522
 1542TIP3   OH2 4631   4.729   3.201   0.211  0.0109  0.1329  0.4681
 1542TIP3    H1 4632   4.657   3.179   0.271  1.8079 -0.1681  2.6495
 1542TIP3    H2 4633   4.720   3.295   0.196 -1.2239 -0.0225  0.1310
 1543TIP3   OH2 4634   4.689   4.126   4.975 -0.1959  0.6354  0.2206
 1543TIP3    H1 4635   4.726   4.173   4.900  0.7729 -0.5829 -0.0898
 1543TIP3    H2 4636   4.745   4.153   5.049  1.7521 -1.5659 -0.3295
 1544TIP3   OH2 4637   0.338   4.801   3.659 -0.3535 -0.5933  0.8748
 1544TIP3    H1 4638   0.346   4.851   3.741  0.6759 -0.5626  0.7653
 1544TIP3    H2 4639   0.335   4.710   3.687  1.9206 -0.7157  0.8825
 1545TIP3   OH2 4640   0.958   0.621   4.051 -0.2319 -0.6185 -0.1822
 1545TIP3    H1 4641   0.869   0.655   4.041 -0.4325 -1.5077 -1.7659
 1545TIP3    H2 4642   1.007   0.660   3.978 -0.1119 -2.4880 -1.1627
 1546TIP3   OH2 4643   1.872   4.175   4.034  0.0458  0.1704  0.2326
 1546TIP3    H1 4644   1.913   4.257   4.005 -0.7060  1.2860  2.1015
 1546TIP3    H2 4645   1.934   4.139   4.098 -0.9417  0.8906  1.6566
 1547TIP3   OH2 4646   1.528   0.603   2.977  0.0581 -0.2919  0.9423
 1547TIP3    H1 4647   1.513   0.575   3.067  0.4874  0.6430  1.3135
 1547TIP3    H2 4648   1.473   0.680   2.965  1.0526  0.4248  0.8646
 1548TIP3   OH2 4649   3.188   2.351   1.764 -0.3849 -0.0859  0.1547
 1548TIP3    H1 4650   3.280   2.326   1.768 -0.3998 -0.3957 -1.0098
 1548TIP3    H2 4651   3.148   2.284   1.708 -2.1692 -2.3936  3.8409
 1549TIP3   OH2 4652   0.269   4.200   4.612  0.1599 -0.7024 -0.2242
 1549TIP3    H1 4653   0.312   4.266   4.666 -0.5229 -0.6453  0.2642
 1549TIP3    H2 4654   0.305   4.213   4.524 -1.4109  1.7047 -0.6336
 1550TIP3   OH2 4655   2.362   3.115   2.367 -0.5764  0.0122  0.0086
 1550TIP3    H1 4656   2.318   3.031   2.360 -1.6138  0.5522 -0.2119
 1550TIP3    H2 4657   2.292   3.180   2.357  0.0540  0.9027  1.1147
 1551TIP3   OH2 4658   2.337   1.544   3.632 -0.3290  0.0315  0.0141
 1551TIP3    H1 4659   2.368   1.461   3.668 -0.0318  0.0140 -0.2819
 1551TIP3    H2 4660   2.276   1.520   3.563  0.1273  0.0538 -0.3995
 1552TIP3   OH2 4661   2.809   2.648   5.013  0.4518 -0.4126  0.1666
 1552TIP3    H1 4662   2.791   2.560   4.980 -2.0735  0.2127 -0.3110
 1552TIP3    H2 4663   2.797   2.705   4.937 -1.1539  0.6341  1.1547
 1553TIP3   OH2 4664   3.148   0.912   5.137 -0.2686 -0.1635  0.0136
 1553TIP3    H1 4665   3.127   0.820   5.122  2.2446 -0.3782 -3.6305
 1553TIP3    H2 4666   3.128   0.955   5.054  3.2780  1.4780 -0.1692
 1554TIP3   OH2 4667   5.248   3.803   3.995 -0.0745 -0.0646 -0.2035
 1554TIP3    H1 4668   5.239   3.728   4.055  1.4023 -0.3864 -0.3578
 1554TIP3    H2 4669   5.269   3.764   3.911  0.7770  0.5282 -0.2692
 1555TIP3   OH2 4670   1.472   1.472   1.175 -0.0253 -0.0601  0.0437
 1555TIP3    H1 4671   1.439   1.471   1.265 -0.4231 -0.4032 -0.1037
 1555TIP3    H2 4672   1.560   1.511   1.182  0.0709 -0.3738  0.6216
 1556TIP3   OH2 4673   0.821   2.079   4.442 -0.6145 -0.1069  0.1976
 1556TIP3    H1 4674   0.767   2.106   4.517 -1.0085  2.4666 -0.9136
 1556TIP3    H2 4675   0.911   2.092   4.471 -0.7196 -0.3781  0.6566
 1557TIP3   OH2 4676   3.231   3.067   2.557  0.2223  0.3975  0.0950
 1557TIP3    H1 4677   3.293   3.138   2.539 -0.4998  0.7335 -1.1779
 1557TIP3    H2 4678   3.175   3.100   2.627  1.1054  0.3092  0.8597
 1558TIP3   OH2 4679   5.939   4.096   3.785 -0.6155 -0.2754  0.3576
 1558TIP3    H1 4680   5.920   4.015   3.832  0.4933  0.1053  1.5139
 1558TIP3    H2 4681   6.020   4.129   3.825 -1.5393  1.8973  0.6002
 1559TIP3   OH2 4682   4.049   0.122   2.239  0.2696 -0.7591 -0.0384
 1559TIP3    H1 4683   4.117   0.174   2.282  0.7771 -1.1207 -0.3761
 1559TIP3    H2 4684   3.981   0.185   2.215  0.6342 -0.3384  0.0258
 1560TIP3   OH2 4685   2.408   1.024   3.113 -0.2081 -0.7580 -0.1722
 1560TIP3    H1 4686   2.389   0.940   3.071  0.4011 -0.1155 -1.8303
 1560TIP3    H2 4687   2.343   1.084   3.077  0.2130 -0.2269 -0.0614
 1561TIP3   OH2 4688   1.971   5.520   0.355 -0.0244  0.1549 -0.3466
 1561TIP3    H1 4689   1.893   5.576   0.347  0.4039  0.9146  0.6253
 1561TIP3    H2 4690   1.966   5.461   0.279 -1.2563  0.5480 -0.5883
 1562TIP3   OH2 4691   3.388   0.899   4.136 -0.2378  0.2804  0.1651
 1562TIP3    H1 4692   3.432   0.976   4.171 -0.4562  0.1845  0.6474
 1562TIP3    H2 4693   3.315   0.883   4.195  1.2424 -1.8119  1.5966
 1563TIP3   OH2 4694   6.314   5.183   1.474  0.2448  0.5451  0.6237
 1563TIP3    H1 4695   6.373   5.257   1.492 -1.4218  1.7232  1.5542
 1563TIP3    H2 4696   6.241   5.196   1.534 -0.8044 -1.0647 -0.2456
 1564TIP3   OH2 4697   6.057   1.142   0.703 -0.0810  0.1102 -0.3561
 1564TIP3    H1 4698   6.122   1.096   0.757  0.4974  1.8041  0.4825
 1564TIP3    H2 4699   6.057   1.232   0.737 -4.0256 -0.1208  0.8045
 1565TIP3   OH2 4700   0.577   3.263   4.084  0.2156  0.0118  0.1878
 1565TIP3    H1 4701   0.641   3.316   4.131  2.8233 -0.8397 -2.0582
 1565TIP3    H2 4702   0.493   3.303   4.102  1.6308  2.6006  1.5542
 1566TIP3   OH2 4703   4.101   2.318   1.449  0.2178 -0.0376  0.3444
 1566TIP3    H1 4704   4.029   2.261   1.422 -0.6655  1.2866 -0.2033
 1566TIP3    H2 4705   4.143   2.271   1.521  0.1147 -1.7986 -0.6873
 1567TIP3   OH2 4706   5.952   0.070   3.306  0.2277  0.5858 -0.0651
 1567TIP3    H1 4707   5.931  -0.013   3.348  0.4479 -1.0342 -2.9262
 1567TIP3    H2 4708   5.882   0.083   3.242  1.9179  0.8370 -1.9560
 1568TIP3   OH2 4709   4.094   2.863   2.820 -0.1216  0.3508 -0.1123
 1568TIP3    H1 4710   4.117   2.834   2.908  0.6634  0.2973 -0.3301
 1568TIP3    H2 4711   4.064   2.784   2.775 -0.2908  0.3346  0.0271
 1569TIP3   OH2 4712   0.881   3.081   5.130  0.1568 -0.0226  0.4393
 1569TIP3    H1 4713   0.827   3.152   5.096  1.0952  0.2224 -0.5982
 1569TIP3    H2 4714   0.838   3.001   5.099 -0.0541  0.1408  0.3092
 1570TIP3   OH2 4715   4.535   5.797   4.479  0.3688  0.0939 -0.6552
 1570TIP3    H1 4716   4.600   5.738   4.441  0.9553 -1.0984  1.9439
 1570TIP3    H2 4717   4.570   5.885   4.464  1.7183 -0.4497 -0.8083
 1571TIP3   OH2 4718   5.037   2.078   0.977 -0.3307  0.8143  0.1096
 1571TIP3    H1 4719   5.045   2.110   1.067 -0.4141 -0.4643  0.6008
 1571TIP3    H2 4720   5.127   2.064   0.948 -0.1899  3.1395 -0.7750
 1572TIP3   OH2 4721   4.421   5.910   0.139 -0.1278 -0.3687 -0.1970
 1572TIP3    H1 4722   4.367   5.964   0.081  1.7321  0.5362 -1.2022
 1572TIP3    H2 4723   4.459   5.844   0.081 -0.6506 -1.4071  0.6158
 1573TIP3   OH2 4724   4.128   3.402   1.697 -0.2891 -0.5533 -0.0885
 1573TIP3    H1 4725   4.174   3.349   1.632  0.5366  0.2827 -0.2130
 1573TIP3    H2 4726   4.037   3.405   1.666 -0.9114 -3.6480  1.0535
 1574TIP3   OH2 4727   1.803   4.210   0.500  0.2158  0.4222 -0.0824
 1574TIP3    H1 4728   1.826   4.295   0.537 -2.3627  0.7289  1.0213
 1574TIP3    H2 4729   1.833   4.147   0.565  2.4386  0.3814 -1.0564
 1575TIP3   OH2 4730   4.674   1.757   1.673 -0.2149  0.0881  0.3746
 1575TIP3    H1 4731   4.670   1.669   1.634  1.6977 -0.2272  0.7785
 1575TIP3    H2 4732   4.729   1.746   1.751  0.4432  1.7358  0.1821
 1576TIP3   OH2 4733   3.445   4.458   4.340 -0.0393 -0.0926 -0.3197
 1576TIP3    H1 4734   3.540   4.448   4.340 -0.0762 -0.8561 -1.9059
 1576TIP3    H2 4735   3.419   4.444   4.431  1.3261 -0.2117  0.0739
 1577TIP3   OH2 4736   4.827   2.319   0.741 -0.0995 -0.7418 -0.2780
 1577TIP3    H1 4737   4.874   2.378   0.801  3.2071 -0.8171 -2.4953
 1577TIP3    H2 4738   4.805   2.243   0.795  0.4700  0.1965  1.3841
 1578TIP3   OH2 4739   3.938   5.859   4.589 -0.1717 -0.0284  0.4426
 1578TIP3    H1 4740   3.939   5.949   4.621 -0.5386  0.0876  0.1386
 1578TIP3    H2 4741   4.009   5.816   4.636 -0.0256  0.4073  0.6260
 1579TIP3   OH2 4742   6.118   4.512   3.933 -0.5123 -0.3083  0.2823
 1579TIP3    H1 4743   6.047   4.474   3.881  0.3953  0.5956 -1.7369
 1579TIP3    H2 4744   6.198   4.486   3.887  0.2443  2.1882  0.0486
 1580TIP3   OH2 4745   4.205   4.811   4.082 -0.3054  0.4496 -0.1411
 1580TIP3    H1 4746   4.138   4.742   4.087 -0.6201  0.8292  1.6338
 1580TIP3    H2 4747   4.278   4.770   4.036 -1.3902 -0.2902 -1.2661
 1581TIP3   OH2 4748   5.265   0.155   0.977 -0.6381 -0.1695  0.1212
 1581TIP3    H1 4749   5.280   0.164   1.071 -0.2569  1.5015 -0.0744
 1581TIP3    H2 4750   5.259   0.245   0.945  2.0002 -0.5803 -1.8807
 1582TIP3   OH2 4751   4.493   3.220   5.181 -0.3890 -0.0118  0.1685
 1582TIP3    H1 4752   4.506   3.132   5.218 -1.1004  0.2774  1.1673
 1582TIP3    H2 4753   4.577   3.241   5.140 -0.2295 -1.1843 -0.1598
 1583TIP3   OH2 4754   4.966   2.640   1.736  0.6176 -0.0300 -0.0152
 1583TIP3    H1 4755   5.018   2.654   1.657 -0.9986  0.5587 -1.0162
 1583TIP3    H2 4756   4.995   2.709   1.796  0.3900  0.8545 -0.8948
 1584TIP3   OH2 4757   5.203   2.159   4.360  0.0755 -0.0212 -0.0499
 1584TIP3    H1 4758   5.156   2.164   4.443  0.0021  0.8786 -0.1333
 1584TIP3    H2 4759   5.228   2.249   4.341  1.2376 -0.3857 -0.3521
 1585TIP3   OH2 4760   3.930   5.510   0.704 -0.1851 -0.5461 -0.2311
 1585TIP3    H1 4761   3.849   5.496   0.753  0.3303  1.0713  1.1919
 1585TIP3    H2 4762   3.984   5.433   0.725  0.0723  0.1624  1.9246
 1586TIP3   OH2 4763   2.992   5.280   4.208 -0.2731 -0.5714  0.0207
 1586TIP3    H1 4764   2.992   5.305   4.301 -2.2003 -1.8345  0.4232
 1586TIP3    H2 4765   3.050   5.205   4.204 -3.2702 -3.1838  1.1398
 1587TIP3   OH2 4766   2.883   1.816   4.778  0.0636 -0.6358 -0.2866
 1587TIP3    H1 4767   2.838   1.739   4.814  0.4881 -0.3418  0.9220
 1587TIP3    H2 4768   2.841   1.890   4.822  0.1495 -0.2216 -0.9045
 1588TIP3   OH2 4769   6.171   2.174   2.095 -0.2051 -0.0618  0.5268
 1588TIP3    H1 4770   6.145   2.263   2.118 -0.5714 -0.2706  0.9343
 1588TIP3    H2 4771   6.248   2.157   2.150  0.4332  0.3316 -0.2258
 1589TIP3   OH2 4772   3.026   2.482   2.143  0.7119 -0.3251 -0.6493
 1589TIP3    H1 4773   2.991   2.463   2.056 -0.8522 -0.5063 -0.0135
 1589TIP3    H2 4774   2.985   2.565   2.168 -0.3085 -1.1644  0.6175
 1590TIP3   OH2 4775   0.350   0.625   2.939 -0.3782 -0.1858  0.5501
 1590TIP3    H1 4776   0.395   0.623   2.854  0.8017 -0.5871  1.1536
 1590TIP3    H2 4777   0.312   0.712   2.944 -1.1267 -0.4167 -0.7128
 1591TIP3   OH2 4778   2.306   2.424   1.705  0.2448  0.2703  0.2329
 1591TIP3    H1 4779   2.258   2.376   1.773  2.0951  0.8869  2.1069
 1591TIP3    H2 4780   2.364   2.358   1.666 -0.6601 -0.0354 -0.6274
 1592TIP3   OH2 4781   0.491   5.089   1.100  0.9847 -0.2351 -0.3005
 1592TIP3    H1 4782   0.412   5.136   1.126  0.0723 -3.2586  3.0943
 1592TIP3    H2 4783   0.471   5.055   1.012 -0.9174  0.1964 -0.0806
 1593TIP3   OH2 4784   3.035   4.813   0.879 -0.3689 -0.3044  0.2751
 1593TIP3    H1 4785   2.978   4.747   0.839  0.1645  0.1376 -1.2559
 1593TIP3    H2 4786   3.117   4.806   0.831  0.4374  0.0219  1.5379
 1594TIP3   OH2 4787   5.070   4.978   1.640  0.0157 -0.0184  0.0193
 1594TIP3    H1 4788   5.109   4.972   1.727  2.2233 -0.7239 -0.9536
 1594TIP3    H2 4789   5.080   4.891   1.603 -3.2086 -0.4801 -0.1029
 1595TIP3   OH2 4790   4.182   4.485   4.396 -0.3517 -0.1646 -0.1772
 1595TIP3    H1 4791   4.217   4.532   4.472 -0.7040  1.7925 -1.1419
 1595TIP3    H2 4792   4.091   4.466   4.420 -0.0799 -0.7934  0.3973
 1596TIP3   OH2 4793   3.531   1.050   4.915  0.4372 -0.3362 -0.2391
 1596TIP3    H1 4794   3.515   1.013   4.828 -0.5526 -1.2818  0.3296
 1596TIP3    H2 4795   3.537   0.974   4.973  0.3650  0.3172  0.6443
 1597TIP3   OH2 4796   3.879   0.661   2.082 -0.0240 -0.1641 -0.0648
 1597TIP3    H1 4797   3.812   0.704   2.134  0.2323 -1.3614  1.3089
 1597TIP3    H2 4798   3.844   0.660   1.993 -2.0893 -1.2428  0.7046
 1598TIP3   OH2 4799   0.190   2.612   1.059 -0.4160  0.1480  0.4037
 1598TIP3    H1 4800   0.143   2.556   1.121 -0.8580  0.0044 -0.0528
 1598TIP3    H2 4801   0.177   2.570   0.974 -0.1855  0.5777  0.1538
 1599TIP3   OH2 4802   5.078   4.795   2.725  0.5504 -0.2036  0.1437
 1599TIP3    H1 4803   5.089   4.776   2.632 -0.0857 -1.2647  0.2690
 1599TIP3    H2 4804   5.049   4.712   2.763 -0.2147  0.4884  1.1162
 1600TIP3   OH2 4805   6.273   3.769   3.205 -0.7771 -0.1471 -0.3820
 1600TIP3    H1 4806   6.298   3.788   3.115 -0.1647 -1.4198 -0.5042
 1600TIP3    H2 4807   6.273   3.673   3.210 -0.8574 -0.0936  0.9563
 1601TIP3   OH2 4808   0.505   5.965   1.012  0.0986  0.6615 -0.1667
 1601TIP3    H1 4809   0.468   6.005   1.091  0.5618 -0.1089  0.4548
 1601TIP3    H2 4810   0.507   5.871   1.032 -0.8964  0.3193 -1.5637
 1602TIP3   OH2 4811   2.408   5.722   1.669 -0.4405  0.4605  0.4864
 1602TIP3    H1 4812   2.377   5.770   1.592 -2.2467  0.8518  1.4151
 1602TIP3    H2 4813   2.354   5.643   1.671  2.3810 -1.6870 -0.9245
 1603TIP3   OH2 4814   0.381   4.072   2.529 -0.1231  0.1959 -0.1325
 1603TIP3    H1 4815   0.409   4.161   2.551 -1.7986  0.7123  0.0192
 1603TIP3    H2 4816   0.371   4.028   2.613 -3.0156  1.0765  0.0827
 1604TIP3   OH2 4817   1.945   4.702   2.378 -0.7466  0.3922 -0.5538
 1604TIP3    H1 4818   1.864   4.744   2.350 -0.4865  0.6717 -0.8917
 1604TIP3    H2 4819   1.997   4.692   2.298 -0.7101 -0.3754 -0.4445
 1605TIP3   OH2 4820   5.994   1.225   2.295  0.1350 -0.2607 -0.2603
 1605TIP3    H1 4821   6.005   1.130   2.301  0.6784 -0.1580  0.4905
 1605TIP3    H2 4822   6.083   1.259   2.284 -0.1290  0.1130 -1.4888
 1606TIP3   OH2 4823   3.609   3.712   3.282 -0.9223  0.3653 -0.1677
 1606TIP3    H1 4824   3.665   3.652   3.233 -0.5248 -1.5910  2.4739
 1606TIP3    H2 4825   3.668   3.755   3.344 -1.9430 -0.1506  1.2137
 1607TIP3   OH2 4826   3.207   2.088   3.428 -0.1108  0.1981 -0.2552
 1607TIP3    H1 4827   3.194   2.142   3.506 -0.9189  0.2052 -0.3834
 1607TIP3    H2 4828   3.217   1.999   3.461 -2.1351 -0.0504 -0.2097
 1608TIP3   OH2 4829   1.620   1.681   4.143  0.1258  0.4396 -0.3283
 1608TIP3    H1 4830   1.626   1.770   4.175  0.0654  0.4516 -0.3507
 1608TIP3    H2 4831   1.703   1.640   4.169 -0.2989  0.1755  0.6639
 1609TIP3   OH2 4832   6.208   4.400   1.794 -0.0682  0.2492 -0.3341
 1609TIP3    H1 4833   6.180   4.329   1.852 -0.4035  0.5923 -0.0695
 1609TIP3    H2 4834   6.130   4.420   1.742  0.1042  0.2402 -0.5971
 1610TIP3   OH2 4835   4.583   2.768   3.679  0.4226 -0.0505  0.2111
 1610TIP3    H1 4836   4.579   2.764   3.774 -1.5423 -1.8436  0.1371
 1610TIP3    H2 4837   4.492   2.758   3.651  1.0724 -0.6907 -1.8521
 1611TIP3   OH2 4838   0.130   4.560   3.776  0.4276 -0.1493 -0.3653
 1611TIP3    H1 4839   0.075   4.484   3.762  0.9146 -0.2660 -1.7161
 1611TIP3    H2 4840   0.123   4.611   3.696  1.2029  0.5300 -0.0236
 1612TIP3   OH2 4841   4.216   5.356   0.411  0.1183 -1.0339 -0.3157
 1612TIP3    H1 4842   4.292   5.319   0.455  0.8789 -1.1200 -1.6354
 1612TIP3    H2 4843   4.141   5.322   0.459  0.9012 -1.4587  0.6251
 1613TIP3   OH2 4844   2.581   5.783   1.210  0.3586  0.3977 -0.1520
 1613TIP3    H1 4845   2.529   5.705   1.226  1.5968 -0.7798 -1.6168
 1613TIP3    H2 4846   2.582   5.793   1.115  2.4876  0.5708 -0.1601
 1614TIP3   OH2 4847   2.849   0.202   4.429  0.0789 -0.1562  0.1508
 1614TIP3    H1 4848   2.940   0.174   4.416 -0.1485 -0.9687  0.2599
 1614TIP3    H2 4849   2.816   0.216   4.340  0.2601 -0.0372  0.1024
 1615TIP3   OH2 4850   1.926   5.949   3.854  0.1667  0.0704  0.2510
 1615TIP3    H1 4851   1.875   5.884   3.807  2.2552 -2.1901  0.8579
 1615TIP3    H2 4852   2.017   5.919   3.846  1.1306  2.3457  1.4929
 1616TIP3   OH2 4853   1.677   4.134   0.281 -0.0104  0.1584 -0.1782
 1616TIP3    H1 4854   1.723   4.167   0.358 -0.6167 -0.5640  0.5176
 1616TIP3    H2 4855   1.691   4.040   0.284  0.5873  0.1905 -1.3900
 1617TIP3   OH2 4856   1.218   0.312   0.392 -0.2073 -0.0256  0.1804
 1617TIP3    H1 4857   1.149   0.334   0.330 -1.6987 -0.2654  1.6783
 1617TIP3    H2 4858   1.209   0.217   0.406  0.3754 -0.0454  0.4628
 1618TIP3   OH2 4859   2.718   4.088   2.787 -0.0359 -0.4173  0.0705
 1618TIP3    H1 4860   2.696   4.116   2.876  0.5495 -0.3651  0.2022
 1618TIP3    H2 4861   2.651   4.130   2.732 -1.2124 -1.5275  0.5999
 1619TIP3   OH2 4862   6.164   5.312   4.833 -0.0778  0.2355 -0.3190
 1619TIP3    H1 4863   6.110   5.391   4.830 -1.1411 -0.3826  1.1638
 1619TIP3    H2 4864   6.234   5.334   4.895 -1.6226 -0.6274  1.8846
 1620TIP3   OH2 4865   2.671   2.431   4.021  0.0362 -0.2163 -0.0257
 1620TIP3    H1 4866   2.695   2.444   4.113  0.4722 -1.2725  0.0322
 1620TIP3    H2 4867   2.750   2.392   3.982 -0.1468  0.2343 -0.8450
 1621TIP3   OH2 4868   1.577   2.776   2.572  0.7694 -0.2349 -0.6387
 1621TIP3    H1 4869   1.611   2.764   2.661  2.2488 -0.0265 -1.1451
 1621TIP3    H2 4870   1.585   2.870   2.556  0.9929 -0.3394 -1.1654
 1622TIP3   OH2 4871   4.628   5.352   1.392  0.4382 -0.1364  0.1146
 1622TIP3    H1 4872   4.671   5.267   1.396 -0.4513 -0.5575  1.0106
 1622TIP3    H2 4873   4.631   5.385   1.482 -0.0916  0.3433 -0.0373
 1623TIP3   OH2 4874   5.845   2.365   3.102 -0.2962 -0.0651 -0.0382
 1623TIP3    H1 4875   5.918   2.304   3.110 -0.3863 -0.3459 -1.1347
 1623TIP3    H2 4876   5.776   2.314   3.059 -0.5366  0.6643 -0.5488
 1624TIP3   OH2 4877   1.551   0.908   0.664  0.1530  0.1595  0.0262
 1624TIP3    H1 4878   1.514   0.937   0.748 -3.0422  1.5247 -1.6647
 1624TIP3    H2 4879   1.567   0.989   0.616  2.2614 -0.5931 -0.6392
 1625TIP3   OH2 4880   3.238   1.004   0.943 -0.5195  0.2740  0.0002
 1625TIP3    H1 4881   3.247   1.057   1.022 -0.9744  0.7686 -0.2641
 1625TIP3    H2 4882   3.148   1.021   0.913 -1.0270 -1.4273  0.4546
 1626TIP3   OH2 4883   4.361   5.910   3.013  0.5386 -0.0437 -0.2705
 1626TIP3    H1 4884   4.304   5.980   3.045  1.0214  1.1513 -1.8566
 1626TIP3    H2 4885   4.395   5.867   3.092  0.9515  2.1267  0.8066
 1627TIP3   OH2 4886   5.219   4.896   3.229 -0.7353  0.2534 -0.5749
 1627TIP3    H1 4887   5.127   4.913   3.245 -0.7265 -0.5828  0.4705
 1627TIP3    H2 4888   5.241   4.824   3.288  0.4635  0.1031 -1.1664
 1628TIP3   OH2 4889   0.002   5.077   4.979  0.4625 -0.0731  0.0874
 1628TIP3    H1 4890  -0.067   5.028   4.934  0.0187  1.5662 -1.0915
 1628TIP3    H2 4891   0.082   5.055   4.931  0.3365  0.0050 -0.1588
 1629TIP3   OH2 4892   0.928   0.442   5.127 -0.9047 -0.1315 -0.1505
 1629TIP3    H1 4893   0.843   0.467   5.091 -0.9226 -1.1049 -0.8180
 1629TIP3    H2 4894   0.987   0.513   5.099 -1.5046  0.6064  0.4135
 1630TIP3   OH2 4895   5.891   5.134   2.857 -0.2631 -0.0312 -0.2086
 1630TIP3    H1 4896   5.972   5.090   2.831  0.1134  0.1739  0.5722
 1630TIP3    H2 4897   5.828   5.110   2.790  0.6870  0.5761 -1.3535
 1631TIP3   OH2 4898   0.574   0.495   4.111 -0.0272  0.1743  0.5567
 1631TIP3    H1 4899   0.580   0.578   4.063  2.6270 -0.6757 -0.8126
 1631TIP3    H2 4900   0.521   0.439   4.055 -0.7752  0.5671  0.8701
 1632TIP3   OH2 4901   0.548   1.898   3.155 -0.2799  0.1138 -0.3016
 1632TIP3    H1 4902   0.464   1.938   3.177  0.1782  1.1350 -0.3473
 1632TIP3    H2 4903   0.563   1.834   3.224 -0.3916  0.9871  0.5486
 1633TIP3   OH2 4904   2.225   5.422   3.246 -0.2450  0.5418 -0.1332
 1633TIP3    H1 4905   2.186   5.383   3.167  0.3724 -1.2404  0.3805
 1633TIP3    H2 4906   2.319   5.413   3.232 -0.1209  0.7054  0.5784
 1634TIP3   OH2 4907   2.168   3.905   3.078  0.3832  0.0156  0.3835
 1634TIP3    H1 4908   2.129   3.937   3.160 -0.5899  0.0067 -0.0590
 1634TIP3    H2 4909   2.219   3.979   3.046 -0.5514  0.6056  0.1904
 1635TIP3   OH2 4910   2.656   1.547   4.566  0.6338 -0.0647  0.4612
 1635TIP3    H1 4911   2.705   1.570   4.645  1.2976  1.2544 -0.3051
 1635TIP3    H2 4912   2.570   1.587   4.578  0.5312 -0.3712  0.7664
 1636TIP3   OH2 4913   1.448   1.596   2.665  0.0788  0.2304  0.0960
 1636TIP3    H1 4914   1.529   1.557   2.700 -0.8816 -0.4159  1.6854
 1636TIP3    H2 4915   1.415   1.650   2.736 -1.5129 -0.4714 -0.0640
 1637TIP3   OH2 4916   4.545   2.206   2.017  0.0940 -0.1131 -0.2877
 1637TIP3    H1 4917   4.582   2.247   2.095 -1.4689 -0.1392  0.5162
 1637TIP3    H2 4918   4.522   2.280   1.960  0.8323 -0.0741 -0.5430
 1638TIP3   OH2 4919   5.558   3.921   0.775  0.8083  0.8019 -0.5290
 1638TIP3    H1 4920   5.560   4.015   0.791 -0.4537  0.5572  1.4236
 1638TIP3    H2 4921   5.568   3.882   0.862 -2.0768 -0.7917 -0.7858
 1639TIP3   OH2 4922   0.689   5.363   4.956  0.2221 -0.2376 -0.1276
 1639TIP3    H1 4923   0.736   5.446   4.952  0.4439 -0.3479  0.1522
 1639TIP3    H2 4924   0.646   5.355   4.871  0.9704 -0.2915 -0.5109
 1640TIP3   OH2 4925   3.986   1.121   0.336  0.1129 -0.4559  0.3330
 1640TIP3    H1 4926   4.075   1.151   0.317 -0.9543  2.3464 -0.7295
 1640TIP3    H2 4927   3.973   1.141   0.429  0.6160 -0.9899  0.5210
 1641TIP3   OH2 4928   5.177   4.277   2.899 -0.2957 -0.4080 -0.4003
 1641TIP3    H1 4929   5.124   4.198   2.896  0.1599 -0.8019  1.0712
 1641TIP3    H2 4930   5.251   4.255   2.956 -0.2263  1.0986  0.1576
 1642TIP3   OH2 4931   3.683   5.369   5.000 -0.3159 -0.8593 -0.2529
 1642TIP3    H1 4932   3.732   5.317   4.935 -0.5643 -4.1456  1.9202
 1642TIP3    H2 4933   3.591   5.347   4.983 -0.4075 -1.4140  0.8611
 1643TIP3   OH2 4934   3.830   3.509   4.450  0.3793  0.0774 -0.3498
 1643TIP3    H1 4935   3.758   3.569   4.432  2.7442  3.2538 -0.2525
 1643TIP3    H2 4936   3.816   3.481   4.540  0.3475  2.5000  0.4939
 1644TIP3   OH2 4937   6.185   2.452   4.083 -0.8235  1.0431  0.2726
 1644TIP3    H1 4938   6.195   2.362   4.114 -0.6469  0.5931 -1.0184
 1644TIP3    H2 4939   6.226   2.506   4.151 -1.3895  0.2013  1.3090
 1645TIP3   OH2 4940   5.999   2.955   0.011  0.4641 -0.0557  1.0614
 1645TIP3    H1 4941   5.942   2.881  -0.008  0.3110  0.2415  0.3451
 1645TIP3    H2 4942   6.086   2.917   0.021  0.6097 -0.2086 -0.5483
 1646TIP3   OH2 4943   2.279   4.430   3.309  0.3110 -0.0824 -0.0503
 1646TIP3    H1 4944   2.253   4.422   3.400  0.0006  2.0732  0.1024
 1646TIP3    H2 4945   2.232   4.508   3.277  0.8968 -0.4162 -1.8639
 1647TIP3   OH2 4946   6.152   2.549   3.620  0.2964 -0.1889 -0.1497
 1647TIP3    H1 4947   6.113   2.555   3.708  1.0792 -0.2114  0.2110
 1647TIP3    H2 4948   6.246   2.555   3.636  0.4942 -1.0749 -0.9126
 1648TIP3   OH2 4949   2.268   5.288   3.983  0.0063  0.0788 -0.2476
 1648TIP3    H1 4950   2.304   5.370   3.951  1.0628 -0.4989 -0.5974
 1648TIP3    H2 4951   2.268   5.231   3.907  1.7450 -1.0488  0.5197
 1649TIP3   OH2 4952   2.574   0.289   4.967  0.5141 -0.3970 -0.1759
 1649TIP3    H1 4953   2.658   0.301   5.013  0.8214 -2.1989 -0.2169
 1649TIP3    H2 4954   2.572   0.196   4.945 -0.9036 -0.1073 -1.3683
 1650TIP3   OH2 4955   2.073   0.868   0.445  0.0513  0.7031  0.3429
 1650TIP3    H1 4956   2.069   0.772   0.452  0.5914  0.3622 -2.8641
 1650TIP3    H2 4957   1.995   0.898   0.491 -0.2253 -1.2475  1.2700
 1651TIP3   OH2 4958   2.084   3.040   3.648  0.3286  0.5407  0.6510
 1651TIP3    H1 4959   2.174   3.022   3.621  0.2841  0.8372  0.3116
 1651TIP3    H2 4960   2.030   3.004   3.578  0.2001  0.9057  0.5630
 1652TIP3   OH2 4961   1.510   5.976   3.766  0.8649 -0.2707 -0.1160
 1652TIP3    H1 4962   1.473   5.910   3.824 -0.4549  0.1439 -0.4383
 1652TIP3    H2 4963   1.532   5.928   3.686  1.3520 -0.5814  0.1987
 1653TIP3   OH2 4964   5.721   3.061   2.055 -0.7536  0.2641 -0.5794
 1653TIP3    H1 4965   5.633   3.032   2.030  0.3704 -2.0866 -2.1718
 1653TIP3    H2 4966   5.774   3.047   1.976  1.0296  1.9061  0.2342
 1654TIP3   OH2 4967   3.983   3.753   1.797  0.3699  0.5756 -0.8232
 1654TIP3    H1 4968   3.963   3.682   1.858 -0.8154  0.5170 -1.2463
 1654TIP3    H2 4969   4.062   3.794   1.832 -0.5477  0.8592  1.0346
 1655TIP3   OH2 4970   6.043   3.233   2.944 -0.4054  0.1489 -0.2187
 1655TIP3    H1 4971   6.047   3.142   2.972  1.3226  0.8628  2.1819
 1655TIP3    H2 4972   5.963   3.267   2.984  0.6148  0.4396  1.7119
 1656TIP3   OH2 4973   4.168   1.041   3.737 -0.3097  0.0667  0.5278
 1656TIP3    H1 4974   4.241   1.002   3.784 -0.9518 -0.4525  1.1230
 1656TIP3    H2 4975   4.157   1.127   3.777 -0.6086 -0.2221  1.0761
 1657TIP3   OH2 4976   1.314   3.624   3.976 -0.0745 -0.4858 -0.0499
 1657TIP3    H1 4977   1.396   3.665   3.947 -0.0159  0.1393  0.9495
 1657TIP3    H2 4978   1.289   3.673   4.055 -0.0606 -2.2920  1.1401
 1658TIP3   OH2 4979   2.904   2.739   0.282  0.2988 -0.0449 -0.4816
 1658TIP3    H1 4980   2.879   2.772   0.196  2.3458 -0.4831 -1.2965
 1658TIP3    H2 4981   2.964   2.667   0.263  0.6490 -0.2603  1.3152
 1659TIP3   OH2 4982   0.477   0.505   0.089 -0.6730 -0.2775 -0.1245
 1659TIP3    H1 4983   0.439   0.588   0.060 -2.0965 -1.4425 -1.7888
 1659TIP3    H2 4984   0.409   0.465   0.144  0.2812 -0.0532  1.2552
 1660TIP3   OH2 4985   5.687   1.518   4.333 -0.6974  0.0700  0.0208
 1660TIP3    H1 4986   5.721   1.580   4.268  1.9135 -2.1183 -0.8970
 1660TIP3    H2 4987   5.592   1.522   4.323 -0.4823  1.9249 -1.8938
 1661TIP3   OH2 4988   3.618   4.471   1.162  0.8157  0.5608 -0.2224
 1661TIP3    H1 4989   3.616   4.423   1.079  0.0254  0.0998  0.0553
 1661TIP3    H2 4990   3.544   4.437   1.212  1.8463  0.1351  1.0790
 1662TIP3   OH2 4991   1.543   2.160   1.882  0.3138  0.2390 -0.0093
 1662TIP3    H1 4992   1.570   2.124   1.798 -0.5972  0.0381 -0.2188
 1662TIP3    H2 4993   1.571   2.252   1.879 -0.1074  0.3452 -0.7014
 1663TIP3   OH2 4994   3.736   1.674   0.864 -0.2806  0.1816 -0.3254
 1663TIP3    H1 4995   3.757   1.704   0.775 -1.1248  1.0621 -0.2352
 1663TIP3    H2 4996   3.654   1.626   0.855 -0.7294  0.8611  0.0815
 1664TIP3   OH2 4997   1.169   0.658   3.810 -0.8834 -0.3432  0.0544
 1664TIP3    H1 4998   1.119   0.739   3.815  0.9879  0.8306  0.4375
 1664TIP3    H2 4999   1.172   0.636   3.717  1.0194  1.6473 -0.4234
 1665TIP3   OH2 5000   5.162   4.021   3.050  0.1262 -0.5137 -0.1700
 1665TIP3    H1 5001   5.190   4.094   3.106  1.6822 -1.1596 -0.0452
 1665TIP3    H2 5002   5.201   3.944   3.091 -1.6262 -1.4675 -0.2030
 1666TIP3   OH2 5003   1.778   0.216   3.553 -0.1861  0.3812 -0.6234
 1666TIP3    H1 5004   1.788   0.235   3.646 -0.8595  0.3223 -0.5368
 1666TIP3    H2 5005   1.766   0.302   3.513 -0.6828  0.3432 -0.5560
 1667TIP3   OH2 5006   1.199   1.333   2.625 -0.1196 -0.1003 -0.0503
 1667TIP3    H1 5007   1.163   1.322   2.713  1.2150 -0.2070  0.5174
 1667TIP3    H2 5008   1.244   1.418   2.629  0.9501 -0.6385 -0.2479
 1668TIP3   OH2 5009   6.045   5.221   2.600 -0.7527  0.4812  0.4682
 1668TIP3    H1 5010   5.999   5.160   2.542  2.1619  0.8205 -2.5078
 1668TIP3    H2 5011   6.091   5.165   2.663 -0.5180 -0.2369 -0.3260
 1669TIP3   OH2 5012   2.769   1.686   0.220 -0.5451  0.0059 -0.2393
 1669TIP3    H1 5013   2.839   1.745   0.192  0.4770 -1.6059 -1.2551
 1669TIP3    H2 5014   2.798   1.655   0.306 -0.2091 -0.3124 -0.4611
 1670TIP3   OH2 5015   0.086   5.322   4.414 -0.5905  0.6540 -0.4214
 1670TIP3    H1 5016   0.072   5.411   4.380  0.9763  0.8142 -0.7080
 1670TIP3    H2 5017   0.081   5.266   4.337 -3.3599  0.2215 -0.0241
 1671TIP3   OH2 5018   0.470   1.955   5.102 -0.3398  0.0943 -0.3332
 1671TIP3    H1 5019   0.511   1.870   5.088 -0.2040  0.0290  0.3886
 1671TIP3    H2 5020   0.377   1.935   5.114 -0.4540  0.1502 -1.0910
 1672TIP3   OH2 5021   5.180   3.411   2.349 -0.2324 -0.4011  0.1178
 1672TIP3    H1 5022   5.100   3.407   2.297 -1.0348  0.6907  1.2153
 1672TIP3    H2 5023   5.238   3.468   2.299 -1.1724  1.0295  0.5635
 1673TIP3   OH2 5024   3.644   2.685   4.745 -0.0986 -0.2162 -0.1454
 1673TIP3    H1 5025   3.556   2.695   4.708  1.1603  3.5100 -2.7681
 1673TIP3    H2 5026   3.649   2.750   4.815  0.7149  0.0276 -0.4173
 1674TIP3   OH2 5027   2.722   5.755   1.447  0.0907 -0.0179 -0.4087
 1674TIP3    H1 5028   2.684   5.794   1.368 -1.9735 -2.0081 -0.4832
 1674TIP3    H2 5029   2.674   5.673   1.460  3.6214 -2.1962  0.2122
 1675TIP3   OH2 5030   6.362   0.212   1.806 -0.1514  0.1586  0.2113
 1675TIP3    H1 5031   6.278   0.259   1.812  0.0588  0.4607  0.9208
 1675TIP3    H2 5032   6.345   0.128   1.848  0.1748  0.6340  1.3450
 1676TIP3   OH2 5033   1.300   2.794   4.048  0.7917 -0.1177  0.4059
 1676TIP3    H1 5034   1.245   2.870   4.067  0.5207 -0.6682  2.0033
 1676TIP3    H2 5035   1.274   2.767   3.960 -1.1527 -0.0455  0.9032
 1677TIP3   OH2 5036   4.963   2.656   1.119  0.0034  0.0303 -0.2424
 1677TIP3    H1 5037   4.938   2.700   1.200  0.6799  0.2550 -0.1430
 1677TIP3    H2 5038   4.883   2.616   1.087 -0.4549  0.6694  0.0870
 1678TIP3   OH2 5039   4.400   4.181   3.362  0.2574  0.5631  0.1712
 1678TIP3    H1 5040   4.492   4.154   3.360  0.1168 -0.0889  1.6030
 1678TIP3    H2 5041   4.360   4.136   3.288  0.9732  0.4188 -0.1390
 1679TIP3   OH2 5042   2.508   2.938   1.254  0.0305 -0.2074 -0.3170
 1679TIP3    H1 5043   2.587   2.923   1.201  0.2917 -0.0070  0.0075
 1679TIP3    H2 5044   2.537   2.922   1.344 -0.0099  0.9572 -0.0782
 1680TIP3   OH2 5045   3.864   5.941   4.985 -0.4041  0.1287  0.2793
 1680TIP3    H1 5046   3.843   5.964   5.075  0.2695  0.0795  0.4550
 1680TIP3    H2 5047   3.823   5.856   4.972 -0.1455 -0.0643  0.6844
 1681TIP3   OH2 5048   2.043   2.234   1.061  0.0499  0.1929 -0.3197
 1681TIP3    H1 5049   1.980   2.162   1.060  0.3846 -0.0993 -1.0610
 1681TIP3    H2 5050   1.995   2.307   1.100 -0.9820  0.1655 -1.4550
 1682TIP3   OH2 5051   0.957   2.906   4.712 -0.1714  0.0306 -0.0375
 1682TIP3    H1 5052   0.947   2.827   4.658 -0.0862  1.5260 -2.3827
 1682TIP3    H2 5053   1.002   2.969   4.655 -1.8093  2.3823  1.1037
 1683TIP3   OH2 5054   2.486   3.473   1.448 -0.4699 -0.0596 -0.2635
 1683TIP3    H1 5055   2.414   3.484   1.510  1.0051  1.4581  1.2991
 1683TIP3    H2 5056   2.488   3.379   1.429 -0.5934 -0.7117  2.5582
 1684TIP3   OH2 5057   5.718   4.232   3.689  0.9421 -0.0639  0.1217
 1684TIP3    H1 5058   5.796   4.176   3.688  0.0215 -1.4233 -1.8979
 1684TIP3    H2 5059   5.694   4.242   3.597  0.3038  2.6642  0.4829
 1685TIP3   OH2 5060   3.015   3.849   1.649 -0.2397  0.1142 -0.5116
 1685TIP3    H1 5061   2.997   3.935   1.689 -0.3810 -0.1461 -0.0102
 1685TIP3    H2 5062   3.095   3.864   1.598 -0.4719  0.6407 -0.7308
 1686TIP3   OH2 5063   0.527   1.114   4.710 -0.4383  0.0929 -0.1137
 1686TIP3    H1 5064   0.490   1.027   4.695 -2.0599  0.3962  1.6995
 1686TIP3    H2 5065   0.460   1.159   4.761  0.9958  1.9274  0.2255
 1687TIP3   OH2 5066   4.194   0.476   4.830 -0.2585  0.6963  0.1385
 1687TIP3    H1 5067   4.103   0.445   4.838 -0.1255  0.0398 -0.7261
 1687TIP3    H2 5068   4.226   0.435   4.750  0.4916  1.7329 -0.1092
 1688TIP3   OH2 5069   1.017   5.421   2.646  0.1498 -0.0946  0.1235
 1688TIP3    H1 5070   1.019   5.333   2.684 -0.4580 -0.0816  0.1858
 1688TIP3    H2 5071   0.945   5.419   2.583 -0.1728  0.4894  0.4631
 1689TIP3   OH2 5072   4.740   0.902   4.916  0.0198  0.0519  0.3296
 1689TIP3    H1 5073   4.680   0.831   4.940  0.0873  0.7591  2.9283
 1689TIP3    H2 5074   4.819   0.858   4.886  0.5313 -1.1215  3.0862
 1690TIP3   OH2 5075   3.675   0.048   3.023  0.3816  0.1634  0.1752
 1690TIP3    H1 5076   3.634   0.089   3.099  0.2762 -0.5105  0.4888
 1690TIP3    H2 5077   3.607   0.050   2.955  0.3100  0.3263  0.2510
 1691TIP3   OH2 5078   2.999   2.418   0.257 -0.7478  0.0751 -0.1970
 1691TIP3    H1 5079   3.007   2.419   0.352 -1.4758 -0.6629 -0.1081
 1691TIP3    H2 5080   3.049   2.494   0.227 -2.0776  1.4546  0.9065
 1692TIP3   OH2 5081   1.374   1.611   5.114  0.0810  0.4009  0.0967
 1692TIP3    H1 5082   1.374   1.525   5.155  0.6298  1.0924  1.6286
 1692TIP3    H2 5083   1.346   1.671   5.183 -2.2721  1.2597 -1.4639
 1693TIP3   OH2 5084   5.150   0.031   3.915 -0.2517  0.0623  0.2623
 1693TIP3    H1 5085   5.140  -0.033   3.844 -2.2738  1.7370 -1.0589
 1693TIP3    H2 5086   5.090   0.002   3.983 -1.3309  0.5977 -0.4263
 1694TIP3   OH2 5087   2.872   1.166   0.852 -0.0580  0.0270  0.3970
 1694TIP3    H1 5088   2.797   1.114   0.882  1.7914 -2.3619  1.2054
 1694TIP3    H2 5089   2.888   1.134   0.763  0.1940  0.3130  0.3390
 1695TIP3   OH2 5090   5.668   5.175   2.168 -0.0597 -0.0033 -0.0556
 1695TIP3    H1 5091   5.734   5.234   2.132 -0.6283  0.2330 -0.7340
 1695TIP3    H2 5092   5.669   5.099   2.109  0.6113 -0.6568  0.7648
 1696TIP3   OH2 5093   5.316   1.085   3.994  0.4907  0.5968  0.2800
 1696TIP3    H1 5094   5.273   1.059   4.076  1.1516  0.7733  0.6945
 1696TIP3    H2 5095   5.403   1.044   3.999  0.3004  0.0692 -0.6403
 1697TIP3   OH2 5096   2.041   5.342   4.127  0.1243  0.6624  0.6317
 1697TIP3    H1 5097   2.055   5.433   4.154  2.2352  0.4186  0.5390
 1697TIP3    H2 5098   2.122   5.319   4.080  0.4241 -1.8096  2.2000
 1698TIP3   OH2 5099   1.031   4.294   1.996 -0.0159 -0.2980  0.2066
 1698TIP3    H1 5100   1.104   4.349   1.968  0.7314 -0.4341  1.7901
 1698TIP3    H2 5101   0.955   4.352   1.994 -0.4270 -0.7306 -3.7413
 1699TIP3   OH2 5102   3.790   1.319   0.905 -0.1993 -0.2452  0.0738
 1699TIP3    H1 5103   3.694   1.326   0.902 -0.1085  0.8222 -0.8880
 1699TIP3    H2 5104   3.809   1.289   0.994 -1.4560 -1.0507  0.0915
 1700TIP3   OH2 5105   1.209   5.111   5.102  0.3256  0.3637  0.1664
 1700TIP3    H1 5106   1.281   5.059   5.068 -0.1936 -0.3160  0.0727
 1700TIP3    H2 5107   1.238   5.201   5.093  1.0380  0.1096 -0.1500
 1701TIP3   OH2 5108   2.592   1.880   0.959 -0.1039  0.1746  0.3482
 1701TIP3    H1 5109   2.517   1.939   0.951 -1.4499 -1.6288 -1.6808
 1701TIP3    H2 5110   2.653   1.908   0.891 -0.8632 -0.8524 -0.7957
 1702TIP3   OH2 5111   2.106   5.208   3.429  0.0178 -0.2857 -0.2106
 1702TIP3    H1 5112   2.133   5.265   3.501  1.5687  1.1391 -1.8184
 1702TIP3    H2 5113   2.166   5.229   3.357 -2.6568 -0.1460 -2.6166
 1703TIP3   OH2 5114   5.752   0.776   2.093 -0.3253 -0.7832 -0.7079
 1703TIP3    H1 5115   5.829   0.719   2.092  0.2067 -0.0916 -0.2177
 1703TIP3    H2 5116   5.706   0.757   2.012 -0.5582 -2.4461 -0.2191
 1704TIP3   OH2 5117   4.775   4.797   1.132 -0.8636  0.5416 -0.0643
 1704TIP3    H1 5118   4.818   4.722   1.090 -2.0189 -0.4820  0.5283
 1704TIP3    H2 5119   4.846   4.859   1.149  0.2531 -0.7399  0.1090
 1705TIP3   OH2 5120   4.557   5.711   5.014 -0.4342  0.0024  0.3679
 1705TIP3    H1 5121   4.538   5.723   4.921  0.4502  0.0100  0.1822
 1705TIP3    H2 5122   4.563   5.616   5.025  0.4292  0.0357  0.2134
 1706TIP3   OH2 5123   0.275   5.504   3.695  0.3040  0.0835 -0.1779
 1706TIP3    H1 5124   0.207   5.463   3.748 -0.9219  0.8989 -1.0501
 1706TIP3    H2 5125   0.286   5.591   3.733 -2.0652  1.4727 -2.3536
 1707TIP3   OH2 5126   6.002   3.795   0.977 -0.1163  0.0829 -0.4053
 1707TIP3    H1 5127   6.055   3.724   1.011 -1.8687 -0.9054  0.3858
 1707TIP3    H2 5128   5.990   3.854   1.051  0.6195  0.7810 -0.8290
 1708TIP3   OH2 5129   3.531   0.849   5.110 -0.7615  0.0367 -0.6661
 1708TIP3    H1 5130   3.474   0.848   5.187  2.5848  1.8927  2.1232
 1708TIP3    H2 5131   3.593   0.779   5.125 -0.3242  0.1264 -1.9440
 1709TIP3   OH2 5132   2.766   4.209   2.039 -0.5125  0.3626 -0.5930
 1709TIP3    H1 5133   2.747   4.221   2.132  2.0629  0.5257 -0.0094
 1709TIP3    H2 5134   2.692   4.159   2.006 -0.3622 -1.9293  2.1316
 1710TIP3   OH2 5135   6.046   2.532   3.861 -0.2293 -0.2998 -0.2036
 1710TIP3    H1 5136   5.962   2.492   3.883  0.0790 -2.1173 -1.9873
 1710TIP3    H2 5137   6.104   2.508   3.933 -0.5415 -1.5790 -0.3471
 1711TIP3   OH2 5138   3.636   4.581   2.914 -0.0862  0.2834  0.1886
 1711TIP3    H1 5139   3.572   4.604   2.847  2.0476  2.3973 -1.2906
 1711TIP3    H2 5140   3.686   4.510   2.876  0.0195  0.3046  0.2880
 1712TIP3   OH2 5141   3.946   3.584   0.474  0.8086 -0.0126  0.0640
 1712TIP3    H1 5142   3.920   3.648   0.541 -1.2333 -0.8287  0.1497
 1712TIP3    H2 5143   3.905   3.615   0.394  1.6133 -0.0720 -0.3711
 1713TIP3   OH2 5144   1.572   1.513   0.140 -0.7534  0.3181 -0.2966
 1713TIP3    H1 5145   1.551   1.530   0.048  0.8631 -0.1168 -0.7837
 1713TIP3    H2 5146   1.490   1.526   0.186 -1.8885 -0.5644 -1.9529
 1714TIP3   OH2 5147   0.763   5.812   1.694  0.7350 -0.0563 -0.8590
 1714TIP3    H1 5148   0.675   5.779   1.678  0.2267  1.3682 -1.0729
 1714TIP3    H2 5149   0.754   5.873   1.767  1.5676  0.0409 -0.8225
 1715TIP3   OH2 5150   2.100   1.414   5.077  0.1914  0.1861  0.0113
 1715TIP3    H1 5151   2.122   1.505   5.093  1.6011 -0.1336  0.1007
 1715TIP3    H2 5152   2.154   1.390   5.001  3.1894 -1.6600  2.4674
 1716TIP3   OH2 5153   2.540   3.317   2.266 -0.1342 -0.1882 -0.2268
 1716TIP3    H1 5154   2.560   3.341   2.175 -0.8998  1.0786 -0.0791
 1716TIP3    H2 5155   2.482   3.240   2.258  0.8201 -0.8759 -0.7566
 1717TIP3   OH2 5156   4.790   2.394   4.949  0.0708 -0.2503  0.6085
 1717TIP3    H1 5157   4.839   2.312   4.949  0.9734  0.2392 -1.0519
 1717TIP3    H2 5158   4.840   2.452   5.007  0.5277 -0.2778  0.2460
 1718TIP3   OH2 5159   0.919   0.269   4.591  0.1166 -0.1302  0.3119
 1718TIP3    H1 5160   0.966   0.306   4.666  0.9611 -0.8995  0.1791
 1718TIP3    H2 5161   0.967   0.188   4.570 -0.7736 -0.5048 -0.3542
 1719TIP3   OH2 5162   1.817   2.100   1.033  0.6448  0.1632 -0.4830
 1719TIP3    H1 5163   1.800   2.036   1.102  0.9633  1.0718  0.4746
 1719TIP3    H2 5164   1.811   2.051   0.952 -1.5393 -0.5939  0.0602
 1720TIP3   OH2 5165   2.184   0.559   1.102 -0.1570  0.0064  0.6475
 1720TIP3    H1 5166   2.231   0.526   1.026  0.3659 -1.1159  1.4343
 1720TIP3    H2 5167   2.091   0.551   1.079  0.0027  1.1106 -0.4458
 1721TIP3   OH2 5168   6.044   4.145   1.927  0.4540 -0.3654 -0.2994
 1721TIP3    H1 5169   5.966   4.193   1.896  1.2606  1.4697  0.3687
 1721TIP3    H2 5170   6.009   4.063   1.961 -1.1193  0.1238 -0.6189
 1722TIP3   OH2 5171   3.125   4.859   1.542  0.1744 -0.0689 -0.6454
 1722TIP3    H1 5172   3.032   4.843   1.525 -0.2672  0.9524  0.6925
 1722TIP3    H2 5173   3.135   4.954   1.539  0.9245 -0.0929  0.4479
 1723TIP3   OH2 5174   2.671   0.563   4.150 -0.1852 -0.3492 -0.5535
 1723TIP3    H1 5175   2.617   0.634   4.186  1.2741 -0.0218  1.0717
 1723TIP3    H2 5176   2.760   0.585   4.175  0.2887 -2.9455  0.3260
 1724TIP3   OH2 5177   4.652   4.089   3.361  0.5400  0.5394 -0.3079
 1724TIP3    H1 5178   4.743   4.098   3.331  1.8699  1.9629  3.5581
 1724TIP3    H2 5179   4.645   3.998   3.390  2.0346  1.2524  2.6545
 1725TIP3   OH2 5180   1.359   3.243   2.342 -0.2521 -0.5751 -0.0661
 1725TIP3    H1 5181   1.429   3.192   2.384 -0.7909 -0.2801  1.2257
 1725TIP3    H2 5182   1.390   3.257   2.253  0.4984 -2.0561 -0.0762
 1726TIP3   OH2 5183   0.575   4.082   1.311 -0.3088 -0.6093 -0.2473
 1726TIP3    H1 5184   0.539   4.010   1.363 -1.3622 -1.0075 -1.4628
 1726TIP3    H2 5185   0.538   4.161   1.349  1.5704 -0.5738  1.6773
 1727TIP3   OH2 5186   0.784   3.265   2.226  0.4421 -0.1330  0.1229
 1727TIP3    H1 5187   0.772   3.355   2.197  2.4765  0.3364  0.5972
 1727TIP3    H2 5188   0.700   3.222   2.208 -0.4548  1.7617 -0.3843
 1728TIP3   OH2 5189   0.207   2.663   3.285  0.1904 -0.2523  0.3703
 1728TIP3    H1 5190   0.297   2.672   3.256  0.5673 -2.2296  0.8242
 1728TIP3    H2 5191   0.161   2.626   3.210 -0.1204  0.1640  0.3513
 1729TIP3   OH2 5192   5.784   1.894   4.652  0.1780 -0.9320  0.1023
 1729TIP3    H1 5193   5.766   1.945   4.731 -1.9827  0.4260 -1.1812
 1729TIP3    H2 5194   5.699   1.860   4.625  1.0967 -2.6138 -0.8615
 1730TIP3   OH2 5195   4.346   3.665   1.896  0.4171 -0.0984 -0.3475
 1730TIP3    H1 5196   4.393   3.745   1.919 -1.6014  0.8882  0.5802
 1730TIP3    H2 5197   4.339   3.617   1.978  0.0296 -0.3518 -0.5295
 1731TIP3   OH2 5198   5.056   2.656   0.213 -0.3115 -0.2366 -0.4610
 1731TIP3    H1 5199   5.015   2.604   0.143 -1.9212  0.3198  0.0413
 1731TIP3    H2 5200   5.016   2.623   0.294  0.6378 -0.0404  0.0996
 1732TIP3   OH2 5201   6.170   4.857   4.183  0.2398 -0.5427 -0.0133
 1732TIP3    H1 5202   6.176   4.763   4.200  0.0305 -0.7950 -1.2513
 1732TIP3    H2 5203   6.098   4.887   4.238 -0.9076 -1.4570 -0.9550
 1733TIP3   OH2 5204   4.200   1.563   5.131 -0.3957  0.6549 -0.0944
 1733TIP3    H1 5205   4.219   1.534   5.042  0.0729  2.2716 -0.5506
 1733TIP3    H2 5206   4.179   1.656   5.122 -0.2193  0.8746  1.4922
 1734TIP3   OH2 5207   3.644   3.415   1.836 -0.0033  0.5960 -0.4300
 1734TIP3    H1 5208   3.614   3.491   1.787 -0.5907 -0.4907 -1.8242
 1734TIP3    H2 5209   3.666   3.350   1.770  1.1139 -0.2411  0.7064
 1735TIP3   OH2 5210   0.481   2.211   3.193 -0.1857  0.4936 -0.4938
 1735TIP3    H1 5211   0.453   2.265   3.118 -0.9633 -1.0335 -1.3525
 1735TIP3    H2 5212   0.423   2.135   3.190  1.7402 -1.0657 -0.1593
 1736TIP3   OH2 5213   0.546   3.626   5.116  0.4945  0.4412 -0.2108
 1736TIP3    H1 5214   0.625   3.648   5.067  1.5364 -1.3806  0.5584
 1736TIP3    H2 5215   0.556   3.534   5.138 -0.9301  0.6612  1.6108
 1737TIP3   OH2 5216   4.895   2.385   0.487  0.2696  0.2015  0.4699
 1737TIP3    H1 5217   4.889   2.343   0.572  1.4238 -0.2726  0.3310
 1737TIP3    H2 5218   4.964   2.451   0.496  1.9550 -1.3082 -0.6436
 1738TIP3   OH2 5219   0.828   0.181   0.023  0.4166 -0.8730  0.4969
 1738TIP3    H1 5220   0.819   0.087   0.041  0.9062 -1.1505 -0.5880
 1738TIP3    H2 5221   0.922   0.196   0.027  0.2560 -0.1211  2.0015
 1739TIP3   OH2 5222   2.149   2.565   0.949  0.3401  0.0658  0.4650
 1739TIP3    H1 5223   2.194   2.649   0.959 -0.0142  0.5332 -1.5666
 1739TIP3    H2 5224   2.135   2.536   1.039 -0.6441  2.7713  1.2937
 1740TIP3   OH2 5225   0.596   2.684   3.684 -0.4063  0.1117  0.5933
 1740TIP3    H1 5226   0.597   2.648   3.595 -0.4123  0.7389  0.3317
 1740TIP3    H2 5227   0.600   2.779   3.671 -1.0881  0.2391  1.2410
 1741TIP3   OH2 5228   5.364   0.396   2.266 -0.2779  0.5021  1.4525
 1741TIP3    H1 5229   5.343   0.480   2.225  2.0325  0.5330  0.1012
 1741TIP3    H2 5230   5.459   0.401   2.282 -0.2486 -1.4984  2.1644
 1742TIP3   OH2 5231   2.037   0.100   3.977  0.6831  0.0445 -0.0330
 1742TIP3    H1 5232   1.970   0.039   3.946 -4.1635  3.6719  2.1165
 1742TIP3    H2 5233   2.051   0.075   4.068 -0.6099  1.4514  0.5784
 1743TIP3   OH2 5234   1.855   1.939   4.611 -0.2373 -0.0522  0.3563
 1743TIP3    H1 5235   1.839   1.854   4.653 -0.1955 -0.3736 -0.2690
 1743TIP3    H2 5236   1.823   2.003   4.675  1.4363 -0.4342  1.6432
 1744TIP3   OH2 5237   4.615   5.893   2.354  0.1653 -0.4339 -0.8642
 1744TIP3    H1 5238   4.611   5.931   2.267 -0.1029 -2.6692 -1.9056
 1744TIP3    H2 5239   4.666   5.813   2.343  1.5577  0.0647  1.4007
 1745TIP3   OH2 5240   0.247   2.509   0.037  0.0040  0.2399 -0.4390
 1745TIP3    H1 5241   0.340   2.494   0.019 -0.1028 -0.1636 -0.6654
 1745TIP3    H2 5242   0.224   2.586  -0.016 -0.3227 -0.9617 -2.1397
 1746TIP3   OH2 5243   5.678   5.241   5.133  0.2445  0.0915 -0.3670
 1746TIP3    H1 5244   5.596   5.229   5.084 -0.3054  0.8169  0.3411
 1746TIP3    H2 5245   5.691   5.335   5.135 -0.7832  0.2919  2.4403
 1747TIP3   OH2 5246   4.621   3.669   3.930 -0.0282 -0.6448 -0.1339
 1747TIP3    H1 5247   4.656   3.726   4.000 -3.0407 -0.2144  1.1778
 1747TIP3    H2 5248   4.571   3.728   3.874  0.9209 -1.2906 -1.7293
 1748TIP3   OH2 5249   0.261   3.624   2.865 -0.0973  0.0531 -0.1427
 1748TIP3    H1 5250   0.180   3.627   2.917  0.9601  0.4445  1.5613
 1748TIP3    H2 5251   0.275   3.531   2.847 -0.2045 -0.1359  0.7306
 1749TIP3   OH2 5252   4.430   2.868   2.962 -0.6488 -0.2747  0.2227
 1749TIP3    H1 5253   4.433   2.773   2.952 -2.6098 -0.4170  0.6706
 1749TIP3    H2 5254   4.375   2.883   3.038 -1.9114  1.2509 -0.9177
 1750TIP3   OH2 5255   5.929   3.561   4.812  0.3898  0.3246 -0.4109
 1750TIP3    H1 5256   5.882   3.605   4.883  0.7389  0.1844 -0.0891
 1750TIP3    H2 5257   6.001   3.620   4.790  2.7230 -1.3278  2.0791
 1751TIP3   OH2 5258   4.431   2.186   4.756  0.9142  0.8974  0.9414
 1751TIP3    H1 5259   4.458   2.277   4.750  0.2978  1.0189 -0.4587
 1751TIP3    H2 5260   4.457   2.148   4.672 -1.4255  0.5429  0.3112
 1752TIP3   OH2 5261   2.042   2.008   4.444  0.8598 -0.6736 -0.2145
 1752TIP3    H1 5262   2.105   2.030   4.513 -0.6053  0.9885  0.6967
 1752TIP3    H2 5263   1.962   1.985   4.491 -0.3009  0.8928 -1.3211
 1753TIP3   OH2 5264   4.584   3.347   0.501  0.2182  0.2975  0.5706
 1753TIP3    H1 5265   4.541   3.389   0.575  0.0703 -0.9760  1.2307
 1753TIP3    H2 5266   4.676   3.369   0.511 -0.0071  1.5336  0.1565
 1754TIP3   OH2 5267   5.746   5.273   3.627 -0.0388  0.6263 -0.8560
 1754TIP3    H1 5268   5.822   5.298   3.574 -0.3644  2.8277 -0.3999
 1754TIP3    H2 5269   5.729   5.350   3.681 -0.9929 -0.7925  0.9631
 1755TIP3   OH2 5270   0.461   3.991   0.469 -0.3386 -0.6032  0.0409
 1755TIP3    H1 5271   0.379   4.040   0.462 -0.7281 -0.9259  1.8276
 1755TIP3    H2 5272   0.506   4.030   0.544  0.9720 -0.7088 -0.6560
 1756TIP3   OH2 5273   3.966   5.862   1.967 -0.1018 -0.3487 -0.2583
 1756TIP3    H1 5274   3.983   5.770   1.986  0.6941 -0.3673 -1.0227
 1756TIP3    H2 5275   3.898   5.887   2.030  2.3071 -0.4086  2.5782
 1757TIP3   OH2 5276   1.565   4.305   2.537 -0.0332  0.4039 -0.2705
 1757TIP3    H1 5277   1.561   4.259   2.453  0.4930  0.3345 -0.2565
 1757TIP3    H2 5278   1.573   4.235   2.602  0.3057  0.4952 -0.2149
 1758TIP3   OH2 5279   0.412   1.631   1.206 -0.0127  0.1296 -0.0508
 1758TIP3    H1 5280   0.471   1.655   1.277 -1.4375 -0.6302  1.4411
 1758TIP3    H2 5281   0.463   1.647   1.126  1.5534  1.1899  1.1110
 1759TIP3   OH2 5282   4.862   1.867   4.443  0.4438  0.0984  0.4339
 1759TIP3    H1 5283   4.936   1.888   4.386  1.1292  0.2328  1.3480
 1759TIP3    H2 5284   4.889   1.787   4.489 -0.2154 -0.1662  0.3608
 1760TIP3   OH2 5285   5.324   5.300   3.211 -0.3577  0.0148 -0.0285
 1760TIP3    H1 5286   5.379   5.366   3.169 -0.4897 -0.4554 -0.9569
 1760TIP3    H2 5287   5.273   5.349   3.275 -0.9308  0.9305 -1.1570
 1761TIP3   OH2 5288   1.041   2.653   0.278  0.2084 -0.2148 -0.1664
 1761TIP3    H1 5289   1.022   2.675   0.369  1.8754  1.8949 -0.2407
 1761TIP3    H2 5290   1.120   2.599   0.282 -0.1715 -0.7805 -0.3152
 1762TIP3   OH2 5291   2.939   1.847   2.122 -0.0395 -0.5192  0.4487
 1762TIP3    H1 5292   2.874   1.913   2.096  1.2840  0.6435  0.0170
 1762TIP3    H2 5293   2.905   1.765   2.085 -0.0748  0.4718 -1.8726
 1763TIP3   OH2 5294   3.052   0.888   4.222  0.3980 -0.1496 -0.6266
 1763TIP3    H1 5295   3.019   0.799   4.207 -2.2940  0.3756  1.3944
 1763TIP3    H2 5296   3.041   0.931   4.137 -1.3029 -0.9231 -0.8506
 1764TIP3   OH2 5297   0.181   1.837   3.799  0.2481 -0.0035  0.3495
 1764TIP3    H1 5298   0.217   1.749   3.805  0.8500  0.2108 -0.1220
 1764TIP3    H2 5299   0.126   1.845   3.877 -0.3679 -1.0429  0.0404
 1765TIP3   OH2 5300   4.976   5.026   5.069  0.0582  0.0655 -0.1294
 1765TIP3    H1 5301   5.067   5.000   5.056 -0.3336 -0.7864 -1.2776
 1765TIP3    H2 5302   4.939   5.033   4.981 -1.1612 -0.2492  0.3346
 1766TIP3   OH2 5303   1.541   3.191   4.744  0.1437 -0.0537  0.1087
 1766TIP3    H1 5304   1.466   3.181   4.685 -0.0817  2.1818 -0.0754
 1766TIP3    H2 5305   1.567   3.283   4.734  1.7397 -0.2990  1.5781
 1767TIP3   OH2 5306   0.472   3.487   0.727  0.1004 -0.3389 -0.3672
 1767TIP3    H1 5307   0.458   3.393   0.721  1.3044 -0.4846 -1.1706
 1767TIP3    H2 5308   0.397   3.526   0.681  0.4336 -0.9640 -1.4629
 1768TIP3   OH2 5309   6.207   1.147   3.801  0.0182 -0.5494 -0.2586
 1768TIP3    H1 5310   6.134   1.086   3.805 -0.1770 -0.2503  1.1869
 1768TIP3    H2 5311   6.185   1.207   3.729 -0.2408 -1.5785 -1.0568
 1769TIP3   OH2 5312   5.135   2.352   3.365 -0.0247 -0.4563  0.8316
 1769TIP3    H1 5313   5.229   2.337   3.353  0.2094  0.0224  1.8997
 1769TIP3    H2 5314   5.109   2.285   3.429 -0.5042 -0.8256  0.2660
 1770TIP3   OH2 5315   0.641   2.524   2.274 -0.0717 -0.0915  0.9007
 1770TIP3    H1 5316   0.704   2.564   2.214  1.0364 -3.7085 -0.6230
 1770TIP3    H2 5317   0.556   2.557   2.246  0.6724  0.3337 -0.9552
 1771TIP3   OH2 5318   0.411   1.496   2.016  0.5262  0.2630 -0.0673
 1771TIP3    H1 5319   0.460   1.426   1.971  0.8891  0.5903 -0.1884
 1771TIP3    H2 5320   0.449   1.577   1.982 -1.8532  0.6018 -2.1642
 1772TIP3   OH2 5321   1.015   2.475   1.314 -0.1618 -0.1638 -0.7596
 1772TIP3    H1 5322   0.949   2.502   1.251 -0.7763  2.1784  0.7517
 1772TIP3    H2 5323   1.014   2.544   1.381  2.2848 -1.1754  0.4508
 1773TIP3   OH2 5324   4.542   0.664   4.964 -0.4290  0.8446 -0.1502
 1773TIP3    H1 5325   4.567   0.649   4.872 -0.3328  0.1647 -0.0179
 1773TIP3    H2 5326   4.449   0.687   4.960 -0.5494  0.3172 -0.3744
 1774TIP3   OH2 5327   4.198   2.921   2.440 -0.4068 -0.0354  0.6080
 1774TIP3    H1 5328   4.145   2.843   2.425  0.8464 -0.6947 -0.5007
 1774TIP3    H2 5329   4.278   2.907   2.390 -0.5970  2.4554 -0.5447
 1775TIP3   OH2 5330   4.352   2.119   3.805 -0.1833 -0.1552  0.4570
 1775TIP3    H1 5331   4.391   2.120   3.718 -0.3408 -1.7497  0.3338
 1775TIP3    H2 5332   4.422   2.086   3.862 -0.3414  0.0663  0.7793
 1776TIP3   OH2 5333   5.332   0.844   3.335  0.1161 -0.5129 -0.6254
 1776TIP3    H1 5334   5.350   0.897   3.413 -1.8102 -0.4352 -0.1889
 1776TIP3    H2 5335   5.416   0.838   3.291  1.1380 -0.0519  1.1439
 1777TIP3   OH2 5336   5.812   2.361   0.476 -0.2587 -0.1567  0.0007
 1777TIP3    H1 5337   5.884   2.367   0.539 -0.4849 -3.5573  0.7874
 1777TIP3    H2 5338   5.846   2.305   0.407 -1.5308 -0.2508 -0.5773
 1778TIP3   OH2 5339   5.392   5.623   3.323  0.2693 -0.5205 -0.2478
 1778TIP3    H1 5340   5.454   5.608   3.251  1.1703 -1.9059  0.7522
 1778TIP3    H2 5341   5.307   5.601   3.287  0.4591  0.5203 -1.3927
 1779TIP3   OH2 5342   6.251   0.349   4.825 -0.5764  0.5521 -0.4479
 1779TIP3    H1 5343   6.217   0.274   4.776  0.0274  1.3075 -2.0913
 1779TIP3    H2 5344   6.338   0.321   4.854 -1.1797 -0.1296  0.8229
 1780TIP3   OH2 5345   3.699   4.164   4.030  0.7168  0.0732  0.3264
 1780TIP3    H1 5346   3.697   4.215   3.949 -1.0177  0.3738  0.5030
 1780TIP3    H2 5347   3.638   4.091   4.013  0.0765  0.3267  1.4401
 1781TIP3   OH2 5348   2.659   5.462   2.916 -0.3459 -0.4892 -0.2799
 1781TIP3    H1 5349   2.648   5.467   2.821  2.1227  3.8906 -0.5872
 1781TIP3    H2 5350   2.723   5.392   2.929  0.0870 -0.4487 -1.9412
 1782TIP3   OH2 5351   1.446   3.374   3.901  0.3239 -0.0248  0.3873
 1782TIP3    H1 5352   1.449   3.370   3.997  2.2204  0.4232  0.3855
 1782TIP3    H2 5353   1.417   3.464   3.882 -0.3199 -0.1978  0.5280
 1783TIP3   OH2 5354   4.155   3.807   3.688 -0.1848  0.6322 -0.3874
 1783TIP3    H1 5355   4.219   3.841   3.625 -0.2190 -1.2701 -1.5567
 1783TIP3    H2 5356   4.203   3.740   3.737 -1.1525 -0.6504 -1.1174
 1784TIP3   OH2 5357   4.811   5.699   2.307  0.0508  0.1002  0.0471
 1784TIP3    H1 5358   4.866   5.741   2.374 -0.9602  0.9689  0.3549
 1784TIP3    H2 5359   4.784   5.616   2.347 -2.5834  1.6759  1.8318
 1785TIP3   OH2 5360   4.153   3.002   1.663 -0.3022 -0.3397 -0.5812
 1785TIP3    H1 5361   4.223   3.045   1.712 -1.5313  2.4819 -1.1008
 1785TIP3    H2 5362   4.198   2.956   1.592  1.1889 -1.2113  0.8719
 1786TIP3   OH2 5363   1.326   4.247   0.608  0.2223  0.2758 -0.2796
 1786TIP3    H1 5364   1.410   4.289   0.596  1.0883 -1.5103 -0.8973
 1786TIP3    H2 5365   1.262   4.310   0.575  1.5031  0.8640 -1.7392
 1787TIP3   OH2 5366   0.328   3.191   2.250 -0.1264 -0.1318 -0.0132
 1787TIP3    H1 5367   0.271   3.188   2.327 -1.4787 -0.6163 -0.9785
 1787TIP3    H2 5368   0.351   3.283   2.240  0.9650 -0.1943  1.5653
 1788TIP3   OH2 5369   4.920   0.323   4.369  0.0349  0.5409  0.1278
 1788TIP3    H1 5370   4.979   0.268   4.420 -1.1875  0.4019  1.4500
 1788TIP3    H2 5371   4.918   0.406   4.416  1.4741  1.6275 -1.5708
 1789TIP3   OH2 5372   1.129   1.147   5.081  0.0233 -0.4898 -0.5360
 1789TIP3    H1 5373   1.160   1.100   5.004  1.6009 -0.7526  0.2253
 1789TIP3    H2 5374   1.049   1.099   5.107  0.7738 -1.8617 -0.6470
 1790TIP3   OH2 5375   2.324   3.548   2.064  0.0207 -0.1583  0.0210
 1790TIP3    H1 5376   2.289   3.485   2.126  1.1488 -1.7790 -0.9098
 1790TIP3    H2 5377   2.341   3.497   1.985  0.1414  1.5028 -1.0788
 1791TIP3   OH2 5378   3.431   0.950   4.669 -0.0746 -0.1051  0.0206
 1791TIP3    H1 5379   3.408   1.043   4.666 -0.4081 -0.1862 -2.1275
 1791TIP3    H2 5380   3.504   0.943   4.607 -0.2520 -1.3080 -0.0663
 1792TIP3   OH2 5381   6.054   3.998   2.880 -0.1062 -0.2346  0.1504
 1792TIP3    H1 5382   6.053   3.921   2.937 -1.3852 -0.1167  0.3098
 1792TIP3    H2 5383   6.116   4.057   2.922  1.0692 -1.2450 -0.0984
 1793TIP3   OH2 5384   0.903   1.805   0.977  0.3947 -0.6598 -0.5340
 1793TIP3    H1 5385   0.857   1.767   1.052  1.0903  0.4173  0.4677
 1793TIP3    H2 5386   0.994   1.811   1.005  0.6177  0.0223 -1.3700
 1794TIP3   OH2 5387   1.050   4.423   3.340 -0.3223  0.6870  0.4942
 1794TIP3    H1 5388   1.063   4.376   3.258 -0.8273 -0.3987  1.0230
 1794TIP3    H2 5389   1.133   4.468   3.355 -0.4296  1.4113 -0.9147
 1795TIP3   OH2 5390   5.110   3.262   0.131 -0.2918 -0.2150 -0.4410
 1795TIP3    H1 5391   5.075   3.351   0.133 -1.5588 -0.6731 -0.8933
 1795TIP3    H2 5392   5.204   3.273   0.143 -0.6297  1.0404  1.5944
 1796TIP3   OH2 5393   0.848   3.326   3.576 -0.5621 -0.2049  0.4424
 1796TIP3    H1 5394   0.821   3.236   3.593 -2.3673  0.3574  0.7838
 1796TIP3    H2 5395   0.788   3.379   3.628  1.2843  1.1798  1.2706
 1797TIP3   OH2 5396   4.676   4.605   2.559  0.4232 -0.1505 -1.1171
 1797TIP3    H1 5397   4.689   4.695   2.529  1.5988  0.3269  0.6479
 1797TIP3    H2 5398   4.680   4.611   2.655 -1.7674 -1.7611 -0.8289
 1798TIP3   OH2 5399   4.722   4.615   2.111  0.3884  0.9253 -0.1882
 1798TIP3    H1 5400   4.631   4.622   2.140  0.5971 -0.6806  1.0179
 1798TIP3    H2 5401   4.715   4.588   2.019 -0.3469  1.2549 -0.2367
 1799TIP3   OH2 5402   0.891   3.178   1.115  0.2435 -0.3323 -0.0522
 1799TIP3    H1 5403   0.841   3.147   1.040  0.4418 -0.4945 -0.1183
 1799TIP3    H2 5404   0.890   3.104   1.176  1.3431 -0.7442 -0.5156
 1800TIP3   OH2 5405   3.886   2.180   1.339  0.7440 -0.2152  0.8020
 1800TIP3    H1 5406   3.818   2.113   1.339  1.5994 -1.1054  0.1602
 1800TIP3    H2 5407   3.912   2.188   1.247 -1.2769  3.0658  0.3523
 1801TIP3   OH2 5408   3.952   1.309   1.902 -0.3331 -0.0719  0.3662
 1801TIP3    H1 5409   3.935   1.266   1.818 -0.1634  0.5703  0.0000
 1801TIP3    H2 5410   3.962   1.401   1.880  1.5165 -0.1276  0.8554
 1802TIP3   OH2 5411   1.402   1.851   1.818 -0.1797  0.3274 -0.6882
 1802TIP3    H1 5412   1.391   1.910   1.893 -0.3447  1.2193 -1.3960
 1802TIP3    H2 5413   1.494   1.824   1.822 -0.1143  0.5934 -0.3279
 1803TIP3   OH2 5414   3.786   2.650   4.277  0.5520  0.2063  0.2065
 1803TIP3    H1 5415   3.805   2.639   4.184  2.3933  0.2336  0.5512
 1803TIP3    H2 5416   3.691   2.636   4.283  0.3639  0.3164 -1.6720
 1804TIP3   OH2 5417   3.901   3.832   4.458 -0.2673  0.2394  0.1383
 1804TIP3    H1 5418   3.933   3.797   4.375  0.5402  1.0522  0.0830
 1804TIP3    H2 5419   3.807   3.812   4.459 -0.2053 -0.1224 -0.7838
 1805TIP3   OH2 5420   4.674   4.317   2.624  0.1517  0.3442 -0.4581
 1805TIP3    H1 5421   4.705   4.402   2.592  0.9729  0.0987 -0.3565
 1805TIP3    H2 5422   4.630   4.337   2.707  0.9179  0.6077 -0.1034
 1806TIP3   OH2 5423   2.737   5.039   3.951 -0.2808  0.2845  0.0347
 1806TIP3    H1 5424   2.807   5.101   3.931 -0.5943  0.5350 -0.3059
 1806TIP3    H2 5425   2.696   5.072   4.030 -0.1569  0.2626  0.1073
 1807TIP3   OH2 5426   4.614   3.222   4.873 -0.2727  0.7451  0.4965
 1807TIP3    H1 5427   4.638   3.135   4.841 -0.7394  0.3800  1.1253
 1807TIP3    H2 5428   4.697   3.269   4.879 -0.0328  0.4034 -0.0017
 1808TIP3   OH2 5429   3.912   1.503   2.761  0.0679 -0.0772 -0.1086
 1808TIP3    H1 5430   3.884   1.542   2.678  2.1594  3.5267  0.6497
 1808TIP3    H2 5431   3.852   1.540   2.826 -1.0936 -2.2998  0.1881
 1809TIP3   OH2 5432   5.177   4.145   1.596  0.4384  0.2671  0.3077
 1809TIP3    H1 5433   5.219   4.076   1.545  0.3552 -0.3196  1.0126
 1809TIP3    H2 5434   5.176   4.221   1.538  1.4449 -0.0369 -0.1316
 1810TIP3   OH2 5435   2.422   4.342   2.294 -0.6560  0.9661 -0.0798
 1810TIP3    H1 5436   2.504   4.391   2.299 -1.1805  1.8613 -0.0894
 1810TIP3    H2 5437   2.354   4.407   2.312 -1.2227 -0.2848  2.8565
 1811TIP3   OH2 5438   0.139   1.214   3.739  0.3818  0.2039  0.0722
 1811TIP3    H1 5439   0.179   1.155   3.803 -1.8138 -0.9756  0.4845
 1811TIP3    H2 5440   0.051   1.178   3.726  0.5162  0.7907 -3.1273
 1812TIP3   OH2 5441   0.079   2.010   0.071 -0.0285  0.1728  0.4647
 1812TIP3    H1 5442   0.173   1.991   0.066  0.2475  1.5857 -0.1716
 1812TIP3    H2 5443   0.072   2.075   0.141 -0.7216 -0.8855  1.4095
 1813TIP3   OH2 5444   0.492   0.217   4.798 -0.0984  0.1043 -0.3707
 1813TIP3    H1 5445   0.563   0.201   4.736  1.8663  0.8894  1.5492
 1813TIP3    H2 5446   0.474   0.311   4.790  0.8743  0.4273  0.8805
 1814TIP3   OH2 5447   6.113   3.115   2.704  0.1637 -0.0169 -0.7485
 1814TIP3    H1 5448   6.077   3.175   2.769  1.2830  2.7799 -2.5516
 1814TIP3    H2 5449   6.036   3.074   2.664 -0.6138 -0.0151  0.6562
 1815TIP3   OH2 5450   6.071   3.309   1.691  0.1308  0.0676 -0.2596
 1815TIP3    H1 5451   6.012   3.248   1.647  0.1909 -0.6765  0.6442
 1815TIP3    H2 5452   6.012   3.370   1.735  0.0564  0.1800 -0.5137
 1816TIP3   OH2 5453   6.154   1.332   3.601 -0.0975 -0.2691 -0.5924
 1816TIP3    H1 5454   6.115   1.419   3.613  0.1935  0.0038 -1.5669
 1816TIP3    H2 5455   6.158   1.321   3.506  1.8668 -0.4466 -0.5164
 1817TIP3   OH2 5456   5.306   2.544   0.914  0.6842 -0.0112  0.0627
 1817TIP3    H1 5457   5.344   2.561   0.828 -0.9883 -2.4581 -1.2956
 1817TIP3    H2 5458   5.243   2.616   0.927 -0.1810 -0.4364 -1.5402
 1818TIP3   OH2 5459   1.678   4.529   4.667 -0.6594 -0.8379  0.0546
 1818TIP3    H1 5460   1.624   4.501   4.594 -1.3512  0.9569 -0.1698
 1818TIP3    H2 5461   1.766   4.501   4.644 -0.8319 -0.1552 -1.5772
 1819TIP3   OH2 5462   1.465   0.580   3.274 -0.2655  0.5267 -0.3575
 1819TIP3    H1 5463   1.433   0.499   3.313  0.8243  0.3811  0.2841
 1819TIP3    H2 5464   1.424   0.649   3.326 -0.3813  0.3675 -0.2373
 1820TIP3   OH2 5465   6.187   1.972   5.063  0.1098 -0.4433 -0.0611
 1820TIP3    H1 5466   6.094   1.954   5.051  0.0561 -0.3321  0.1818
 1820TIP3    H2 5467   6.189   2.048   5.122  0.3523 -0.4208 -0.0995
 1821TIP3   OH2 5468   3.661   2.513   2.008 -0.2600  0.1767  0.0328
 1821TIP3    H1 5469   3.623   2.466   2.082  2.4652 -0.5878  1.0872
 1821TIP3    H2 5470   3.696   2.443   1.952  0.3860  0.8387 -0.4022
 1822TIP3   OH2 5471   1.599   3.171   1.732 -0.5487 -0.2629 -0.2319
 1822TIP3    H1 5472   1.634   3.260   1.722 -1.0344 -0.0590 -0.1627
 1822TIP3    H2 5473   1.658   3.116   1.681  0.1216  0.0114  0.2379
 1823TIP3   OH2 5474   2.159   0.402   1.914  0.3734  0.4103 -0.5232
 1823TIP3    H1 5475   2.183   0.486   1.952  0.7513  1.1780 -2.3646
 1823TIP3    H2 5476   2.092   0.423   1.849 -0.7792 -0.9468  0.1487
 1824TIP3   OH2 5477   1.227   4.576   2.221  0.0227  0.6279  0.5986
 1824TIP3    H1 5478   1.139   4.542   2.238 -0.1492  0.8648  0.1859
 1824TIP3    H2 5479   1.284   4.521   2.275 -0.3838  0.5264  0.9337
 1825TIP3   OH2 5480   3.907   5.287   2.811 -0.0416  0.3282 -0.1865
 1825TIP3    H1 5481   3.988   5.238   2.815  0.3169  1.0137  1.4821
 1825TIP3    H2 5482   3.838   5.221   2.819  0.3146 -0.2394 -1.4902
 1826TIP3   OH2 5483   3.576   4.351   1.465  0.0786 -0.4964 -0.0010
 1826TIP3    H1 5484   3.501   4.360   1.406  1.5788 -0.7903 -2.1058
 1826TIP3    H2 5485   3.593   4.440   1.495  1.1376  0.3070 -2.6215
 1827TIP3   OH2 5486   6.153   4.086   3.113  0.1235 -0.3200 -0.4762
 1827TIP3    H1 5487   6.092   4.014   3.126  1.1792 -1.1536  0.0174
 1827TIP3    H2 5488   6.239   4.049   3.134  0.7074  1.0476 -0.3295
 1828TIP3   OH2 5489   4.975   5.609   1.157 -0.3641  0.9143  0.3668
 1828TIP3    H1 5490   4.891   5.564   1.155  0.4937 -0.7189 -0.4505
 1828TIP3    H2 5491   4.976   5.654   1.242 -2.0969  1.0885  0.3271
 1829TIP3   OH2 5492   4.580   4.878   3.015  0.0144  0.0522 -0.4547
 1829TIP3    H1 5493   4.635   4.889   3.093 -0.5627 -1.2544  0.1781
 1829TIP3    H2 5494   4.643   4.865   2.944  0.5577  1.7121 -0.3179
 1830TIP3   OH2 5495   3.715   3.441   1.418  0.6597  0.0940 -0.0262
 1830TIP3    H1 5496   3.790   3.423   1.361 -0.5906 -0.8446 -1.4603
 1830TIP3    H2 5497   3.719   3.373   1.485  0.5388 -0.5871 -0.6957
 1831TIP3   OH2 5498   0.068   2.477   3.841  0.2777 -0.1297 -0.4790
 1831TIP3    H1 5499  -0.023   2.446   3.845  0.2403 -0.0107 -0.3743
 1831TIP3    H2 5500   0.109   2.438   3.918  0.2176  0.1159 -0.3192
 1832TIP3   OH2 5501   0.237   4.118   0.387 -0.5147  0.2182 -0.1888
 1832TIP3    H1 5502   0.176   4.045   0.399 -1.7897  1.4282  1.2740
 1832TIP3    H2 5503   0.191   4.179   0.329 -0.5835  0.9895  0.6508
 1833TIP3   OH2 5504   1.009   3.713   3.764  0.3339 -0.6788 -0.3176
 1833TIP3    H1 5505   1.044   3.634   3.724  1.4295  0.8425 -2.5229
 1833TIP3    H2 5506   1.075   3.739   3.828  1.2487 -0.1435 -1.4522
 1834TIP3   OH2 5507   4.208   3.843   1.548 -0.0365  0.3139 -0.4402
 1834TIP3    H1 5508   4.155   3.798   1.614  0.7334  0.3153  0.2007
 1834TIP3    H2 5509   4.156   3.920   1.525 -0.2155  0.4530  0.3682
 1835TIP3   OH2 5510   0.103   3.465   3.042  0.0161  0.1653 -0.0380
 1835TIP3    H1 5511   0.044   3.474   3.116 -0.7671  0.4836 -0.6815
 1835TIP3    H2 5512   0.190   3.454   3.081 -0.5953 -1.5576  0.9616
 1836TIP3   OH2 5513   3.649   3.855   1.872  0.6531  0.1804  0.0186
 1836TIP3    H1 5514   3.584   3.857   1.943  0.3707  0.0935 -0.2370
 1836TIP3    H2 5515   3.703   3.779   1.891 -0.4423 -0.8306 -0.7565
 1837TIP3   OH2 5516   6.150   0.456   0.099  0.1638  0.2243  0.4061
 1837TIP3    H1 5517   6.065   0.474   0.059  0.4628 -1.7972 -1.3535
 1837TIP3    H2 5518   6.128   0.419   0.185 -0.9100 -2.0763 -0.7697
 1838TIP3   OH2 5519   4.473   4.710   2.196  0.4648  0.5639  0.2200
 1838TIP3    H1 5520   4.447   4.732   2.106 -1.4770  0.0015  0.5998
 1838TIP3    H2 5521   4.448   4.786   2.248 -0.1042  0.1655  0.5401
 1839TIP3   OH2 5522   3.244   3.630   4.376  0.3853 -0.2845 -0.3059
 1839TIP3    H1 5523   3.336   3.616   4.357  0.1366 -0.6173 -1.3171
 1839TIP3    H2 5524   3.218   3.553   4.426  0.3970 -0.7355 -0.9796
 1840TIP3   OH2 5525   4.707   3.559   1.443  0.5790 -0.3118 -0.1738
 1840TIP3    H1 5526   4.759   3.612   1.503 -2.4790  1.9181  0.7950
 1840TIP3    H2 5527   4.651   3.622   1.398 -1.5692 -2.4997 -0.7976
 1841TIP3   OH2 5528   4.359   0.918   3.318  0.3088 -0.0519 -0.2516
 1841TIP3    H1 5529   4.325   1.007   3.325 -0.1015 -0.1063 -1.3534
 1841TIP3    H2 5530   4.342   0.892   3.227 -1.0225 -1.8517  0.4542
 1842TIP3   OH2 5531   5.801   0.541   3.399 -0.0982  0.3182  0.1677
 1842TIP3    H1 5532   5.872   0.575   3.453 -0.3870  1.3927 -0.1136
 1842TIP3    H2 5533   5.794   0.449   3.424  1.5024  0.1494  0.0768
 1843TIP3   OH2 5534   0.475   3.419   2.738  0.7790 -0.0300 -0.3544
 1843TIP3    H1 5535   0.432   3.394   2.820 -1.2183 -0.4996 -1.4876
 1843TIP3    H2 5536   0.485   3.336   2.691  2.0983  0.2086 -0.5308
 1844TIP3   OH2 5537   0.664   0.724   1.623 -0.4498  0.0432 -0.0840
 1844TIP3    H1 5538   0.629   0.673   1.549  0.2808 -0.1727 -0.2937
 1844TIP3    H2 5539   0.655   0.666   1.698  1.6028 -0.9850 -0.5467
 1845TIP3   OH2 5540   2.579   1.731   4.982  0.4371  0.2547 -0.0440
 1845TIP3    H1 5541   2.528   1.812   4.983 -4.3566 -2.3747  1.5121
 1845TIP3    H2 5542   2.629   1.733   5.064  0.0034  1.4383  0.2088
 1846TIP3   OH2 5543   5.497   5.216   2.367  0.3643 -0.7462 -0.1788
 1846TIP3    H1 5544   5.505   5.126   2.399 -1.6149 -0.8311  0.2189
 1846TIP3    H2 5545   5.551   5.219   2.288  0.9533 -2.0999  0.1475
 1847TIP3   OH2 5546   4.103   4.114   4.302  0.5072  0.5560  0.1282
 1847TIP3    H1 5547   4.039   4.078   4.241  0.0459 -1.6001  1.7646
 1847TIP3    H2 5548   4.059   4.112   4.387  2.9004 -1.8985  1.4959
 1848TIP3   OH2 5549   6.146   3.758   2.678 -0.0471  0.6989 -0.1472
 1848TIP3    H1 5550   6.078   3.699   2.645  0.3598  0.7728 -1.1549
 1848TIP3    H2 5551   6.117   3.782   2.766  0.5684 -2.3016  0.9922
 1849TIP3   OH2 5552   4.004   2.545   3.853 -0.3231 -0.6411 -0.1763
 1849TIP3    H1 5553   4.054   2.502   3.783  0.3728 -0.5377  0.2493
 1849TIP3    H2 5554   4.064   2.609   3.890 -1.1000  0.1629 -0.2837
 1850TIP3   OH2 5555   1.994   5.305   2.086 -1.1818  0.1883 -0.1399
 1850TIP3    H1 5556   2.047   5.316   2.008 -0.8764 -0.1989  0.0128
 1850TIP3    H2 5557   1.986   5.394   2.122  2.4143 -0.0794  1.8216
 1851TIP3   OH2 5558   5.783   1.222   3.427  0.4123  0.3578  0.1198
 1851TIP3    H1 5559   5.728   1.222   3.349 -0.0123 -1.6550  0.3626
 1851TIP3    H2 5560   5.849   1.154   3.410  1.0471  0.7188  1.0267
 1852TIP3   OH2 5561   1.396   2.747   0.746  0.4477 -0.3463 -0.2567
 1852TIP3    H1 5562   1.485   2.717   0.764  0.3409 -0.9035 -0.6462
 1852TIP3    H2 5563   1.405   2.804   0.670  0.5574  0.0829  0.0775
 1853TIP3   OH2 5564   0.219   3.049   1.368  0.7467  0.3087  0.2272
 1853TIP3    H1 5565   0.137   3.047   1.418  0.0355  0.3358 -0.8814
 1853TIP3    H2 5566   0.270   2.975   1.401  0.3701  0.4128  1.0745
 1854TIP3   OH2 5567   4.433   4.841   1.546 -0.3470  0.5443 -0.3172
 1854TIP3    H1 5568   4.499   4.846   1.477  0.1983  0.3201  0.1743
 1854TIP3    H2 5569   4.483   4.826   1.626 -1.0628 -1.1339 -0.1248
 1855TIP3   OH2 5570   2.280   0.479   2.277 -0.0658 -0.3381 -0.1914
 1855TIP3    H1 5571   2.324   0.483   2.192  0.2331  4.0364 -0.1076
 1855TIP3    H2 5572   2.191   0.453   2.257  0.7910 -2.6922 -1.2989
 1856TIP3   OH2 5573   2.326   0.158   1.311  0.3155  0.4960  0.3534
 1856TIP3    H1 5574   2.347   0.168   1.403  1.2759  0.5066  0.1408
 1856TIP3    H2 5575   2.408   0.132   1.270 -0.2558 -0.2115 -0.3900
 1857TIP3   OH2 5576   2.028   0.603   4.358  0.1745  0.1874 -0.2603
 1857TIP3    H1 5577   1.937   0.580   4.342  0.3382 -1.6721  1.1691
 1857TIP3    H2 5578   2.026   0.695   4.383 -1.2470  0.2703 -0.6373
 1858TIP3   OH2 5579   2.513   5.367   3.263  0.4201  0.2498  0.4308
 1858TIP3    H1 5580   2.582   5.428   3.237  0.7631 -0.4282 -0.3158
 1858TIP3    H2 5581   2.539   5.336   3.349  0.9471  0.1586  0.2409
 1859TIP3   OH2 5582   5.973   2.139   4.829  0.0396  0.2638  0.3236
 1859TIP3    H1 5583   5.967   2.061   4.885  0.3149  0.6735  0.9354
 1859TIP3    H2 5584   5.883   2.170   4.821 -0.1312 -0.3845 -0.3098
 1860TIP3   OH2 5585   3.228   0.457   0.010 -0.0858 -0.0834 -0.2791
 1860TIP3    H1 5586   3.217   0.519   0.082 -0.0505 -1.6047  1.1242
 1860TIP3    H2 5587   3.295   0.496  -0.046  1.0093  0.4847  1.3346
 1861TIP3   OH2 5588   5.440   4.424   0.044 -0.4163  0.0761  0.6216
 1861TIP3    H1 5589   5.469   4.334   0.055  0.1457  0.4521  2.5305
 1861TIP3    H2 5590   5.357   4.417  -0.004 -0.1659 -1.4065  0.3688
 1862TIP3   OH2 5591   2.091   1.211   1.516  0.1482 -0.0892 -0.0960
 1862TIP3    H1 5592   2.105   1.231   1.608 -0.1900  1.0739 -0.2834
 1862TIP3    H2 5593   2.011   1.258   1.493  0.6581  0.3002 -1.1760
 1863TIP3   OH2 5594   4.886   4.347   1.104  0.2914  0.2177 -0.2846
 1863TIP3    H1 5595   4.843   4.287   1.043  1.2038  1.1089 -1.8673
 1863TIP3    H2 5596   4.908   4.423   1.051 -0.5774  1.8645  1.6068
 1864TIP3   OH2 5597   5.196   5.009   2.267  0.0734  0.1530  0.3740
 1864TIP3    H1 5598   5.281   4.974   2.241  0.3751 -0.2763  1.8437
 1864TIP3    H2 5599   5.216   5.094   2.306 -0.2078  0.2001  0.4155
 1865TIP3   OH2 5600   0.941   2.069   0.810 -0.2425 -0.4415  0.0082
 1865TIP3    H1 5601   1.007   2.095   0.874 -2.6241  0.5635  2.2100
 1865TIP3    H2 5602   0.958   1.977   0.793  0.8970 -0.5426  1.5449
 1866TIP3   OH2 5603   1.400   2.784   4.879 -0.9319 -0.0039  0.2549
 1866TIP3    H1 5604   1.486   2.757   4.912 -1.4092 -0.5910  1.0323
 1866TIP3    H2 5605   1.369   2.848   4.942 -0.6072  1.0472 -0.6128
 1867TIP3   OH2 5606   6.051   5.529   1.675 -0.1701  0.2851 -0.2926
 1867TIP3    H1 5607   5.978   5.576   1.714 -1.1026 -0.0039 -1.6479
 1867TIP3    H2 5608   6.129   5.572   1.711 -0.9920  0.9863  0.6983
 1868TIP3   OH2 5609   6.287   1.673   2.126 -0.8454  0.8076  0.5084
 1868TIP3    H1 5610   6.221   1.741   2.116  0.0789  1.6531  0.0389
 1868TIP3    H2 5611   6.307   1.646   2.037 -0.0419  1.0585  0.6122
 1869TIP3   OH2 5612   3.099   4.768   1.142  0.4658  0.1335 -0.8161
 1869TIP3    H1 5613   3.047   4.816   1.206  1.4919  0.0171  0.1357
 1869TIP3    H2 5614   3.069   4.801   1.057 -0.7865  0.4241 -0.2821
 1870TIP3   OH2 5615   5.316   2.062   0.954  0.2587 -0.2486  0.0575
 1870TIP3    H1 5616   5.361   1.978   0.946 -0.4523 -0.5388 -1.2679
 1870TIP3    H2 5617   5.332   2.105   0.869 -0.7442  0.2520  0.1123
 1871TIP3   OH2 5618   4.952   1.687   0.076  0.3746 -0.8136  0.5470
 1871TIP3    H1 5619   4.919   1.686   0.166 -0.7972 -0.4277  0.1329
 1871TIP3    H2 5620   5.046   1.672   0.085 -0.0074 -2.8391  1.6974
 1872TIP3   OH2 5621   3.339   4.994   2.394  0.1216 -0.1894 -0.0484
 1872TIP3    H1 5622   3.300   5.066   2.445 -1.0004 -0.6651 -0.2136
 1872TIP3    H2 5623   3.419   5.032   2.357  1.0198  0.1604  2.0991
 1873TIP3   OH2 5624   2.484   1.777   4.703  0.4217 -0.3559 -0.1482
 1873TIP3    H1 5625   2.396   1.804   4.677  0.9083  0.1234 -1.3765
 1873TIP3    H2 5626   2.470   1.701   4.759 -0.7649 -0.3782 -0.4424
 1874TIP3   OH2 5627   3.434   4.035   0.487  0.3109  0.3902  0.0514
 1874TIP3    H1 5628   3.395   4.121   0.469 -1.6414  0.2466  2.9780
 1874TIP3    H2 5629   3.395   3.977   0.421 -1.0350  1.1114  0.1673
 1875TIP3   OH2 5630   2.221   2.607   3.334  0.1608  0.0112 -0.3593
 1875TIP3    H1 5631   2.188   2.594   3.423 -1.6151  2.1717 -0.6303
 1875TIP3    H2 5632   2.309   2.644   3.346 -0.2679  0.7663  0.4967
 1876TIP3   OH2 5633   0.447   0.494   2.697  0.3856 -0.1443 -0.5539
 1876TIP3    H1 5634   0.511   0.514   2.765  0.0498 -1.1725  0.0948
 1876TIP3    H2 5635   0.467   0.555   2.626  0.5940  1.1339  0.5542
 1877TIP3   OH2 5636   2.200   0.668   1.696 -0.0226  0.4571  0.1826
 1877TIP3    H1 5637   2.274   0.619   1.659 -1.0876 -1.7057  0.7333
 1877TIP3    H2 5638   2.143   0.685   1.622  0.5007  1.1847 -0.0646
 1878TIP3   OH2 5639   2.707   1.589   2.363  0.3306 -0.5529  0.8074
 1878TIP3    H1 5640   2.715   1.676   2.403 -0.1240 -0.7687  1.3888
 1878TIP3    H2 5641   2.637   1.600   2.298  0.3258 -0.4606  0.8273
 1879TIP3   OH2 5642   2.982   5.542   4.087 -0.0092  0.2878  0.2005
 1879TIP3    H1 5643   2.924   5.546   4.010 -0.8937  1.7526  0.8938
 1879TIP3    H2 5644   2.984   5.449   4.110 -1.1026  0.0408 -0.5860
 1880TIP3   OH2 5645   4.344   5.286   4.763 -0.2620 -0.3003  0.5435
 1880TIP3    H1 5646   4.353   5.265   4.856 -0.2804  1.4430  0.9777
 1880TIP3    H2 5647   4.359   5.380   4.759  2.1021 -0.6660 -1.5456
 1881TIP3   OH2 5648   2.529   3.184   1.982  0.0353 -0.7747 -0.2401
 1881TIP3    H1 5649   2.545   3.090   1.976  2.0380 -0.4368 -0.8698
 1881TIP3    H2 5650   2.616   3.223   1.996 -0.4553  1.1204 -1.9502
 1882TIP3   OH2 5651   1.100   4.279   4.362 -0.0847  0.1236  0.7948
 1882TIP3    H1 5652   1.046   4.354   4.386 -1.0126  0.0186 -0.7949
 1882TIP3    H2 5653   1.077   4.211   4.426 -0.2013  0.7712  1.4547
 1883TIP3   OH2 5654   3.534   1.851   0.037 -0.1667 -0.5320 -0.2333
 1883TIP3    H1 5655   3.573   1.925   0.083 -0.3761 -0.2635 -0.4815
 1883TIP3    H2 5656   3.440   1.870   0.035 -0.1639 -0.5512 -0.7392
 1884TIP3   OH2 5657   1.249   5.314   0.498  0.1400  0.1359 -0.0889
 1884TIP3    H1 5658   1.211   5.397   0.527  0.2576  0.0052  0.4428
 1884TIP3    H2 5659   1.336   5.311   0.538 -0.6696 -1.2355  1.7542
 1885TIP3   OH2 5660   1.848   2.468   1.182  0.1361 -0.2403 -0.2285
 1885TIP3    H1 5661   1.756   2.441   1.187  0.4614 -1.6919 -1.1619
 1885TIP3    H2 5662   1.865   2.512   1.265 -0.8943 -1.6682  0.7970
 1886TIP3   OH2 5663   4.425   0.974   2.114 -0.4361  0.4769 -0.4138
 1886TIP3    H1 5664   4.500   1.021   2.151  0.2072 -1.3835  0.8122
 1886TIP3    H2 5665   4.448   0.959   2.023  0.0993  1.0827 -0.3802
 1887TIP3   OH2 5666   0.890   3.465   3.342 -0.1521  0.4517 -0.5034
 1887TIP3    H1 5667   0.889   3.421   3.427 -0.2849  2.2471  0.4622
 1887TIP3    H2 5668   0.949   3.411   3.288 -1.8939 -2.0827 -0.0837
 1888TIP3   OH2 5669   1.428   3.101   1.935  1.0565  0.1380 -0.1972
 1888TIP3    H1 5670   1.485   3.129   1.863 -0.4346 -0.9458 -1.8789
 1888TIP3    H2 5671   1.419   3.007   1.923 -0.5661  0.1832  0.4004
 1889TIP3   OH2 5672   5.051   2.052   3.198 -0.1601  0.0313 -0.3367
 1889TIP3    H1 5673   5.098   2.134   3.212 -1.4011  1.1282 -2.1916
 1889TIP3    H2 5674   4.960   2.078   3.183 -0.7565 -1.7627 -0.1353
 1890TIP3   OH2 5675   3.115   3.500   1.162  0.4262 -0.8677 -0.2943
 1890TIP3    H1 5676   3.173   3.548   1.221 -0.3955 -3.4375  2.8998
 1890TIP3    H2 5677   3.027   3.528   1.186  0.0443 -2.4044  0.2052
 1891TIP3   OH2 5678   4.279   3.499   2.359 -0.7328  0.4970  1.1543
 1891TIP3    H1 5679   4.347   3.556   2.394  0.1338  0.3827 -0.2733
 1891TIP3    H2 5680   4.211   3.498   2.427 -0.2124  2.2092  1.7472
 1892TIP3   OH2 5681   2.399   5.056   4.108 -0.0768  0.2056  0.4752
 1892TIP3    H1 5682   2.411   5.064   4.202 -0.5284  1.2119  0.4629
 1892TIP3    H2 5683   2.386   5.146   4.078 -0.9676 -0.1960 -0.3978
 1893TIP3   OH2 5684   1.604   4.604   1.103  0.2434  0.0867  0.2999
 1893TIP3    H1 5685   1.641   4.526   1.143 -0.6466  1.1951  3.5700
 1893TIP3    H2 5686   1.672   4.671   1.115  1.2015 -0.1332 -2.8915
 1894TIP3   OH2 5687   4.554   5.124   1.682  0.3616 -0.2448 -0.2688
 1894TIP3    H1 5688   4.490   5.188   1.651  0.6789 -0.4831 -1.4704
 1894TIP3    H2 5689   4.606   5.172   1.746  0.7582  0.8053 -1.3242
 1895TIP3   OH2 5690   5.580   0.924   1.485  0.1207  0.0261  0.1545
 1895TIP3    H1 5691   5.525   0.980   1.539  1.2041  1.0153  0.2632
 1895TIP3    H2 5692   5.644   0.887   1.546 -0.8543 -1.7402  0.1750
 1896TIP3   OH2 5693   5.201   5.571   0.984  0.5574 -0.0428  0.0642
 1896TIP3    H1 5694   5.288   5.551   1.018  0.3646 -0.3768  0.3610
 1896TIP3    H2 5695   5.155   5.611   1.058  0.2404 -0.4816  0.1041
 1897TIP3   OH2 5696   3.588   2.953   2.693 -0.4683 -0.2134 -0.0594
 1897TIP3    H1 5697   3.564   2.916   2.608  0.9098  0.0180 -0.5773
 1897TIP3    H2 5698   3.661   2.900   2.723 -0.3770  0.2517  0.5644
 1898TIP3   OH2 5699   2.697   2.665   3.770 -0.0482  0.0107 -0.4973
 1898TIP3    H1 5700   2.690   2.607   3.845 -0.8886  1.7677  0.8458
 1898TIP3    H2 5701   2.610   2.661   3.729 -0.2758  0.6775 -0.0976
 1899TIP3   OH2 5702   2.550   0.912   1.581 -0.4079 -0.0233 -0.0287
 1899TIP3    H1 5703   2.578   1.004   1.585  1.1326 -0.4950  0.9332
 1899TIP3    H2 5704   2.455   0.917   1.569 -0.7407  1.7351  2.5260
 1900TIP3   OH2 5705   1.955   2.750   2.302 -0.1648 -0.2765 -0.0718
 1900TIP3    H1 5706   2.007   2.719   2.375  1.0862 -0.9575 -1.2144
 1900TIP3    H2 5707   1.936   2.842   2.323  0.4359 -0.3700  0.9377
 1901TIP3   OH2 5708   4.544   0.948   2.863  0.3302  0.2163 -0.0141
 1901TIP3    H1 5709   4.617   0.893   2.892 -0.1633 -0.5654 -0.2457
 1901TIP3    H2 5710   4.521   0.999   2.940  0.4919 -0.2350  0.3387
 1902TIP3   OH2 5711   4.155   5.338   0.736 -0.2305 -0.0199  0.0628
 1902TIP3    H1 5712   4.129   5.278   0.666  0.1964  0.1349 -0.2312
 1902TIP3    H2 5713   4.223   5.291   0.785  1.0832  0.7295 -0.9860
 1903TIP3   OH2 5714   5.599   3.948   3.865  0.0706 -0.3314  0.1852
 1903TIP3    H1 5715   5.603   3.853   3.863 -0.2431 -0.3758  1.0927
 1903TIP3    H2 5716   5.622   3.975   3.776 -1.6080 -1.3195 -0.6021
 1904TIP3   OH2 5717   5.899   5.428   2.708 -0.1008 -0.1602 -0.3390
 1904TIP3    H1 5718   5.914   5.335   2.694 -1.6493 -0.6871  1.0247
 1904TIP3    H2 5719   5.980   5.460   2.748  0.2748 -1.0343 -0.3769
 1905TIP3   OH2 5720   3.880   4.586   2.243  0.4498 -0.7143 -1.0126
 1905TIP3    H1 5721   3.799   4.601   2.193  0.1889  0.7124 -0.1968
 1905TIP3    H2 5722   3.946   4.639   2.198  0.4345 -0.1854 -0.4120
 1906TIP3   OH2 5723   3.189   1.160   0.684 -0.3440  0.6722 -0.3814
 1906TIP3    H1 5724   3.239   1.137   0.606 -1.6322  0.9941 -1.3442
 1906TIP3    H2 5725   3.231   1.112   0.755  1.2885  0.9175 -1.1379
 1907TIP3   OH2 5726   6.307   3.198   0.296  0.6060  0.0088 -0.2698
 1907TIP3    H1 5727   6.228   3.151   0.324  0.8384  0.2229  0.7682
 1907TIP3    H2 5728   6.304   3.193   0.200  0.0095 -1.0991 -0.2173
 1908TIP3   OH2 5729   0.213   4.151   1.486  0.1256 -0.5228  0.4006
 1908TIP3    H1 5730   0.125   4.182   1.505  0.1531 -0.0518 -0.1877
 1908TIP3    H2 5731   0.230   4.181   1.397  0.5815 -1.3040  0.2162
 1909TIP3   OH2 5732   5.736   4.204   4.773 -0.3462  0.5968 -0.0698
 1909TIP3    H1 5733   5.737   4.223   4.867 -0.4586 -1.1126  0.3016
 1909TIP3    H2 5734   5.661   4.145   4.761 -0.1581  0.5614 -1.1861
 1910TIP3   OH2 5735   2.786   4.731   3.124 -0.2630  0.1700 -0.5145
 1910TIP3    H1 5736   2.835   4.701   3.201  1.7998 -0.4207 -1.9732
 1910TIP3    H2 5737   2.707   4.771   3.160  1.4603  1.5780  2.0178
 1911TIP3   OH2 5738   4.740   3.387   4.278 -0.2374  0.2225 -0.2515
 1911TIP3    H1 5739   4.664   3.441   4.259  1.1454  1.8692 -1.3548
 1911TIP3    H2 5740   4.792   3.439   4.339  2.0019  1.0768 -2.6907
 1912TIP3   OH2 5741   3.093   2.148   2.827  0.4456 -0.4565  0.3776
 1912TIP3    H1 5742   3.035   2.114   2.894 -0.2218  2.7417  1.5837
 1912TIP3    H2 5743   3.045   2.136   2.745 -0.2248 -1.2607  0.8726
 1913TIP3   OH2 5744   0.861   1.519   1.479  0.2966  0.0900 -0.1038
 1913TIP3    H1 5745   0.814   1.437   1.464  0.2016  0.4137 -1.7770
 1913TIP3    H2 5746   0.797   1.578   1.517  0.1140 -0.3299  0.2432
 1914TIP3   OH2 5747   4.289   3.845   0.680 -0.7133  0.0164 -0.2090
 1914TIP3    H1 5748   4.312   3.906   0.751 -1.3847 -0.0694  0.0871
 1914TIP3    H2 5749   4.214   3.886   0.637 -0.7974 -0.3180 -0.3767
 1915TIP3   OH2 5750   5.690   0.803   3.380  0.1373  0.3681 -0.0985
 1915TIP3    H1 5751   5.700   0.710   3.357 -0.1740  0.6460 -1.4793
 1915TIP3    H2 5752   5.643   0.803   3.463  0.1850 -0.7143 -0.0587
 1916TIP3   OH2 5753   2.348   3.786   3.822  0.0917  0.0795  0.1107
 1916TIP3    H1 5754   2.408   3.754   3.755  1.6347  1.4633  0.7537
 1916TIP3    H2 5755   2.399   3.785   3.903 -0.6706  1.4920  0.6526
 1917TIP3   OH2 5756   2.800   5.826   1.955  0.3720  0.4778 -0.1147
 1917TIP3    H1 5757   2.751   5.906   1.971  1.2480  1.3378 -1.4910
 1917TIP3    H2 5758   2.817   5.790   2.042 -1.0007  1.1818  0.4649
 1918TIP3   OH2 5759   5.744   1.996   1.787  0.5042 -0.0474 -0.3940
 1918TIP3    H1 5760   5.748   2.010   1.882  0.8915 -1.1720 -0.2317
 1918TIP3    H2 5761   5.674   1.932   1.775  0.7719 -0.2595 -0.8269
 1919TIP3   OH2 5762   4.457   5.209   2.423  0.1153  0.0642  0.0917
 1919TIP3    H1 5763   4.551   5.191   2.425  0.2128  0.1398 -1.6739
 1919TIP3    H2 5764   4.427   5.166   2.342 -0.9496  1.9192 -0.5459
 1920TIP3   OH2 5765   1.547   0.903   4.104  0.3494 -0.0705 -0.0517
 1920TIP3    H1 5766   1.515   0.847   4.034 -0.1954 -1.4262  1.2249
 1920TIP3    H2 5767   1.506   0.988   4.088  0.1685 -0.3859 -1.3011
 1921TIP3   OH2 5768   0.974   3.394   1.230  0.0139 -0.0539  0.4662
 1921TIP3    H1 5769   0.945   3.304   1.214  3.9018 -1.1106 -1.8174
 1921TIP3    H2 5770   0.977   3.434   1.143  3.2189  0.5553  0.7619
 1922TIP3   OH2 5771   1.589   2.644   2.108 -0.3231  0.2273  0.1262
 1922TIP3    H1 5772   1.549   2.580   2.048 -0.3935 -0.9472  1.3651
 1922TIP3    H2 5773   1.681   2.647   2.083 -0.1952 -0.8293  0.4073
 1923TIP3   OH2 5774   3.301   0.413   3.891 -0.4066 -0.3582 -0.2028
 1923TIP3    H1 5775   3.273   0.356   3.819  2.6179 -2.0738 -0.1772
 1923TIP3    H2 5776   3.306   0.500   3.852 -2.8327 -0.4358 -0.8722
 1924TIP3   OH2 5777   6.123   1.833   4.747  0.0390  0.0486 -0.1145
 1924TIP3    H1 5778   6.059   1.889   4.703 -0.8236 -0.6539  0.2417
 1924TIP3    H2 5779   6.190   1.895   4.779 -0.6339  0.8282 -0.1778
 1925TIP3   OH2 5780   0.840   1.176   1.561 -0.0285 -0.6607 -0.0173
 1925TIP3    H1 5781   0.843   1.158   1.467 -1.2317  0.6758 -0.3344
 1925TIP3    H2 5782   0.747   1.169   1.584 -0.3584  2.8728  0.2267
 1926TIP3   OH2 5783   2.988   1.517   3.218  0.6998  0.4618  0.0497
 1926TIP3    H1 5784   2.898   1.523   3.185  0.6618  1.6358  0.3201
 1926TIP3    H2 5785   3.041   1.509   3.139  0.3398 -0.7061 -0.0919
 1927TIP3   OH2 5786   5.475   3.052   3.893  0.4662 -0.0492  0.0950
 1927TIP3    H1 5787   5.392   3.072   3.936 -0.5526 -2.9915 -0.3132
 1927TIP3    H2 5788   5.481   3.116   3.822 -2.6164 -1.1236 -1.2848
 1928TIP3   OH2 5789   5.600   2.278   1.430  0.2200  0.2298  0.0570
 1928TIP3    H1 5790   5.549   2.199   1.446  0.3300 -0.0445 -0.8648
 1928TIP3    H2 5791   5.651   2.258   1.351  0.3604  1.1642 -0.1037
 1929TIP3   OH2 5792   0.313   5.819   2.282 -0.8027  0.2168  0.8040
 1929TIP3    H1 5793   0.383   5.786   2.337  1.0482  0.0616 -1.4775
 1929TIP3    H2 5794   0.319   5.914   2.290  0.9809  0.3061 -0.7294
 1930TIP3   OH2 5795   0.261   5.456   2.399 -0.0756 -0.0098 -0.4621
 1930TIP3    H1 5796   0.191   5.511   2.365 -0.6562  1.3032  2.5544
 1930TIP3    H2 5797   0.223   5.368   2.405 -1.1062  0.4747  0.1512
 1931TIP3   OH2 5798   0.305   1.930   4.649 -0.4962  0.7338  0.0702
 1931TIP3    H1 5799   0.263   1.879   4.718  0.4046 -0.3627 -0.1654
 1931TIP3    H2 5800   0.393   1.892   4.641 -0.3807  1.2230 -1.2712
 1932TIP3   OH2 5801   0.663   5.444   1.807 -0.1945 -0.0011  0.1575
 1932TIP3    H1 5802   0.640   5.406   1.722  0.5026  0.0009 -0.0414
 1932TIP3    H2 5803   0.618   5.390   1.871  1.2091 -1.5227 -0.0823
 1933TIP3   OH2 5804   0.973   5.439   0.589  0.3087 -0.7753 -0.0669
 1933TIP3    H1 5805   0.976   5.472   0.679 -3.1038 -0.7549  0.1844
 1933TIP3    H2 5806   0.934   5.352   0.598 -1.8833 -0.0324 -1.5873
 1934TIP3   OH2 5807   2.974   5.563   0.856 -0.8701  0.6027  0.0768
 1934TIP3    H1 5808   2.983   5.483   0.907 -1.8808  0.5169  0.1486
 1934TIP3    H2 5809   2.879   5.576   0.849 -0.7568  0.5326 -1.9119
 1935TIP3   OH2 5810   1.370   2.244   4.356  0.0240 -0.1056 -0.2400
 1935TIP3    H1 5811   1.401   2.180   4.419  0.2646  0.4933  0.2606
 1935TIP3    H2 5812   1.443   2.306   4.347  0.3202 -0.6313 -1.7306
 1936TIP3   OH2 5813   0.553   2.637   0.834 -0.8050  0.0455 -0.4033
 1936TIP3    H1 5814   0.635   2.678   0.807 -1.6302  0.9665 -1.6134
 1936TIP3    H2 5815   0.546   2.559   0.779  0.7496 -1.8204  1.8765
 1937TIP3   OH2 5816   0.640   0.571   1.866 -0.5567  0.1929 -0.2009
 1937TIP3    H1 5817   0.685   0.547   1.947  0.0196 -0.0512 -0.5943
 1937TIP3    H2 5818   0.552   0.599   1.895 -0.9760 -1.5876  0.3318
 1938TIP3   OH2 5819   2.726   1.510   0.010  0.5029  0.5626 -0.0931
 1938TIP3    H1 5820   2.669   1.569  -0.039 -0.5774 -0.6256 -0.3409
 1938TIP3    H2 5821   2.728   1.546   0.098 -1.2236  0.2832  0.1032
 1939TIP3   OH2 5822   3.554   1.778   1.469  0.7185  0.3466 -0.2793
 1939TIP3    H1 5823   3.514   1.691   1.464  1.3898 -0.0181  0.5194
 1939TIP3    H2 5824   3.479   1.837   1.476  0.2809 -0.3186  1.1304
 1940TIP3   OH2 5825   2.501   5.104   3.766 -0.6654 -0.4760 -0.4516
 1940TIP3    H1 5826   2.425   5.046   3.780 -1.2881  0.3427 -0.3793
 1940TIP3    H2 5827   2.573   5.060   3.812 -1.6374 -0.1169  1.5322
 1941TIP3   OH2 5828   3.283   5.507   4.555 -1.0029  0.1897  0.1511
 1941TIP3    H1 5829   3.366   5.484   4.597 -1.3168  0.5297  0.9923
 1941TIP3    H2 5830   3.247   5.423   4.525 -0.3657  0.0418 -0.2173
 1942TIP3   OH2 5831   1.037   5.711   2.732 -0.5223 -0.5109 -0.6926
 1942TIP3    H1 5832   0.989   5.628   2.722 -2.4602  0.4423  0.2480
 1942TIP3    H2 5833   0.971   5.779   2.717  0.2067  0.8701  1.9102
 1943TIP3   OH2 5834   2.541   2.525   0.488  0.4080  0.3268 -0.2113
 1943TIP3    H1 5835   2.613   2.462   0.486  1.9148  1.9597  0.0776
 1943TIP3    H2 5836   2.570   2.596   0.430 -0.5432  1.4674  0.6690
 1944TIP3   OH2 5837   3.852   0.671   1.631 -0.3345 -0.4033 -0.7654
 1944TIP3    H1 5838   3.883   0.603   1.571 -0.0399 -0.8360 -0.1378
 1944TIP3    H2 5839   3.777   0.630   1.675 -0.5240 -0.1007 -0.8030
 1945TIP3   OH2 5840   2.437   5.006   1.125 -0.2384  0.1811  0.4952
 1945TIP3    H1 5841   2.356   4.958   1.141 -0.4442  0.4958  0.4030
 1945TIP3    H2 5842   2.452   4.997   1.030 -1.7342  2.5475 -0.0484
 1946TIP3   OH2 5843   2.601   1.944   2.700 -0.6832 -0.0498 -0.1986
 1946TIP3    H1 5844   2.607   2.034   2.732 -0.0732 -0.1735  0.0372
 1946TIP3    H2 5845   2.651   1.892   2.763 -0.0437 -0.3959 -0.9813
 1947TIP3   OH2 5846   3.077   0.397   1.049  0.0068 -0.0428  0.2407
 1947TIP3    H1 5847   3.103   0.345   0.973 -1.7685 -0.2249 -0.2927
 1947TIP3    H2 5848   3.071   0.486   1.016  1.7640  0.3467  0.8414
 1948TIP3   OH2 5849   2.850   3.820   1.421 -0.2792 -0.3892 -0.2948
 1948TIP3    H1 5850   2.886   3.813   1.509 -1.2683 -2.2330  0.0073
 1948TIP3    H2 5851   2.906   3.884   1.377  0.2127  0.6066  1.6598
 1949TIP3   OH2 5852   1.921   0.735   1.808  0.1816 -0.7635  0.0925
 1949TIP3    H1 5853   2.016   0.724   1.800  0.3724 -1.3858  2.4852
 1949TIP3    H2 5854   1.908   0.766   1.898 -1.7976  0.6995 -0.6449
 1950TIP3   OH2 5855   0.341   1.136   3.104  0.1081 -0.0202 -0.3829
 1950TIP3    H1 5856   0.317   1.088   3.025 -0.1732 -0.2238 -0.1764
 1950TIP3    H2 5857   0.417   1.187   3.079 -1.9621  2.6089 -1.8092
 1951TIP3   OH2 5858   3.958   2.580   3.542 -0.4148  0.2171 -0.2501
 1951TIP3    H1 5859   3.985   2.660   3.586 -0.2368 -0.2175  0.4483
 1951TIP3    H2 5860   4.036   2.524   3.544 -0.4283  0.1598 -1.0566
 1952TIP3   OH2 5861   1.518   1.592   1.703 -0.2215  0.0576 -0.1324
 1952TIP3    H1 5862   1.580   1.661   1.724 -0.7088 -0.0136  1.7125
 1952TIP3    H2 5863   1.558   1.512   1.737 -0.2740 -0.3683 -1.0413
 1953TIP3   OH2 5864   3.796   2.174   2.045 -0.0562  0.5457  0.6230
 1953TIP3    H1 5865   3.781   2.088   2.084 -1.2529  0.2534 -0.3786
 1953TIP3    H2 5866   3.741   2.173   1.966  2.1109  1.1440 -0.9953
 1954TIP3   OH2 5867   0.253   5.512   0.671 -0.3261  1.0376  0.2946
 1954TIP3    H1 5868   0.321   5.464   0.717  0.1012  0.7202 -0.6273
 1954TIP3    H2 5869   0.171   5.470   0.697 -0.0662  0.6763  0.5303
 1955TIP3   OH2 5870   4.840   3.304   3.204  0.0252  0.1905  0.0718
 1955TIP3    H1 5871   4.794   3.332   3.124  0.6975  0.3787 -0.2564
 1955TIP3    H2 5872   4.856   3.210   3.190  0.2500  0.2485 -0.0771
 1956TIP3   OH2 5873   4.104   0.099   3.567 -0.1997  0.3700  0.3241
 1956TIP3    H1 5874   4.189   0.055   3.562 -0.3341  0.1372  0.0338
 1956TIP3    H2 5875   4.045   0.033   3.605 -0.3582  0.3594  0.0641
 1957TIP3   OH2 5876   0.939   2.797   3.213  0.6862 -0.6419  0.2416
 1957TIP3    H1 5877   1.015   2.852   3.193  0.9534 -0.1723  2.2656
 1957TIP3    H2 5878   0.887   2.850   3.273 -0.7202 -1.3855 -0.2746
 1958TIP3   OH2 5879   1.951   1.408   0.561 -0.5296  0.0420  0.5421
 1958TIP3    H1 5880   1.908   1.448   0.636  0.0863  0.3444  0.7409
 1958TIP3    H2 5881   1.973   1.319   0.590  2.4933  1.0973  1.8796
 1959TIP3   OH2 5882   0.635   0.707   4.808  0.0962 -0.4326  0.1619
 1959TIP3    H1 5883   0.724   0.681   4.782 -0.0045  0.4454 -1.1356
 1959TIP3    H2 5884   0.648   0.781   4.866  0.2576 -1.4241  1.4452
 1960TIP3   OH2 5885   4.666   0.322   2.903  0.3390 -0.0477 -0.7257
 1960TIP3    H1 5886   4.610   0.400   2.904 -0.0099 -0.2991 -0.8165
 1960TIP3    H2 5887   4.674   0.300   2.810 -0.2292 -0.6029 -0.6461
 1961TIP3   OH2 5888   1.746   0.420   1.459  0.3644  0.1819 -0.1559
 1961TIP3    H1 5889   1.732   0.453   1.548 -1.1759 -1.8136  0.4088
 1961TIP3    H2 5890   1.659   0.421   1.419  1.0286  1.0489 -1.6970
 1962TIP3   OH2 5891   5.856   5.168   1.028 -0.5188 -0.4255  0.1332
 1962TIP3    H1 5892   5.932   5.130   1.072 -0.3366  0.0245  0.2188
 1962TIP3    H2 5893   5.783   5.110   1.050 -1.2159  1.5811  4.0108
 1963TIP3   OH2 5894   4.935   4.487   2.611 -0.0829  0.2755  0.9455
 1963TIP3    H1 5895   4.865   4.542   2.576  0.1862  0.3544  0.5291
 1963TIP3    H2 5896   4.992   4.469   2.536 -0.9414 -1.7708  0.6995
 1964TIP3   OH2 5897   3.196   2.861   2.226 -0.2367 -0.3576  0.6033
 1964TIP3    H1 5898   3.166   2.830   2.141  1.1141 -0.1508  0.0200
 1964TIP3    H2 5899   3.238   2.785   2.267  1.4798  0.1795 -0.0716
 1965TIP3   OH2 5900  -0.004   1.170   2.600 -0.2839 -0.3307  0.1802
 1965TIP3    H1 5901  -0.020   1.085   2.640  0.5036  0.3923  2.1897
 1965TIP3    H2 5902   0.074   1.157   2.545 -2.2646 -1.7073 -2.4981
 1966TIP3   OH2 5903   3.624   2.848   3.876  0.7659 -0.0101 -0.0370
 1966TIP3    H1 5904   3.644   2.916   3.812 -0.6333  0.7113  0.2424
 1966TIP3    H2 5905   3.578   2.780   3.826 -1.0287  0.9031  0.2648
 1967TIP3   OH2 5906   4.613   5.524   3.112  0.0610  0.1632  0.1204
 1967TIP3    H1 5907   4.666   5.523   3.192  0.6281  4.0700 -0.0284
 1967TIP3    H2 5908   4.531   5.566   3.138 -0.7012 -0.6348 -0.8990
 1968TIP3   OH2 5909   2.564   2.257   3.610 -0.2031  0.0824 -0.4332
 1968TIP3    H1 5910   2.533   2.173   3.576  0.2612  0.0209 -0.7246
 1968TIP3    H2 5911   2.649   2.238   3.648 -0.2563  0.3532 -0.1733
 1969TIP3   OH2 5912   2.060   4.680   1.054 -0.7486  0.0261 -0.2864
 1969TIP3    H1 5913   2.097   4.605   1.101 -1.1479  0.3414  0.5447
 1969TIP3    H2 5914   2.110   4.755   1.086 -1.0049  0.2390 -0.3827
 1970TIP3   OH2 5915   0.495   4.447   4.424  0.1535  0.3287 -0.4603
 1970TIP3    H1 5916   0.446   4.365   4.423  1.4653 -0.4900 -0.6468
 1970TIP3    H2 5917   0.429   4.515   4.410 -0.7497 -0.8120 -2.0962
 1971TIP3   OH2 5918   4.382   5.272   2.677 -0.4210  0.3623 -0.0779
 1971TIP3    H1 5919   4.454   5.222   2.715  0.8196  2.6438  0.7577
 1971TIP3    H2 5920   4.395   5.265   2.582 -1.1315 -1.9800 -0.0699
 1972TIP3   OH2 5921   3.762   1.611   3.545  0.3487  0.0099  0.7728
 1972TIP3    H1 5922   3.829   1.573   3.488 -0.6169  0.8595 -0.9933
 1972TIP3    H2 5923   3.697   1.542   3.555 -1.1858  0.9305 -2.0695
 1973TIP3   OH2 5924   0.846   1.590   3.931  0.1753  0.1216  0.9518
 1973TIP3    H1 5925   0.763   1.623   3.964 -0.7099 -0.2304 -0.7945
 1973TIP3    H2 5926   0.885   1.665   3.885  0.5030  0.0804  1.1539
 1974TIP3   OH2 5927   0.391   4.647   3.345 -0.0470 -0.2393 -0.2334
 1974TIP3    H1 5928   0.296   4.658   3.333  0.0669  1.0018 -0.1157
 1974TIP3    H2 5929   0.400   4.594   3.424 -0.6466 -0.6656 -0.4445
 1975TIP3   OH2 5930   2.667   5.467   3.600  0.0628  0.3052 -0.2637
 1975TIP3    H1 5931   2.748   5.425   3.572 -0.7599 -0.9426 -0.9182
 1975TIP3    H2 5932   2.639   5.416   3.677 -1.9652 -1.8218 -2.2111
 1976TIP3   OH2 5933   5.054   0.766   0.983  0.0641  0.1787 -0.0036
 1976TIP3    H1 5934   5.148   0.759   1.002  0.1619  0.2470 -0.4352
 1976TIP3    H2 5935   5.015   0.688   1.022  0.1038  0.7959  1.3218
 1977TIP3   OH2 5936   5.490   5.911   0.085  0.0169  0.0192  0.2716
 1977TIP3    H1 5937   5.410   5.964   0.089 -1.0656 -1.4901 -0.5945
 1977TIP3    H2 5938   5.507   5.901  -0.009 -0.4671 -2.0814  0.3696
 1978TIP3   OH2 5939   3.241   5.292   5.208 -0.6746  0.0890 -0.1847
 1978TIP3    H1 5940   3.292   5.287   5.127 -2.0392 -0.7351 -1.0211
 1978TIP3    H2 5941   3.223   5.385   5.219 -0.8614  0.1637 -1.0753
 1979TIP3   OH2 5942   5.596   3.672   2.608 -0.3631  0.6849  0.1932
 1979TIP3    H1 5943   5.624   3.674   2.516 -0.5188  0.3276  0.1332
 1979TIP3    H2 5944   5.668   3.712   2.656 -0.3207  0.9605 -0.0946
 1980TIP3   OH2 5945   0.121   5.903   1.656 -0.6966 -0.0836  0.2419
 1980TIP3    H1 5946   0.196   5.887   1.598  0.5529  0.8532  1.5123
 1980TIP3    H2 5947   0.110   5.998   1.656 -1.1133 -0.1184  0.9849
 1981TIP3   OH2 5948   4.114   5.119   4.774 -0.4320 -0.1743 -0.2416
 1981TIP3    H1 5949   4.195   5.150   4.733 -1.0310  0.0406 -1.3225
 1981TIP3    H2 5950   4.103   5.176   4.850 -1.0654  1.8283 -1.7171
 1982TIP3   OH2 5951   0.028   3.070   4.271  0.0231  0.2668 -0.2726
 1982TIP3    H1 5952  -0.023   3.003   4.225  1.1373 -1.0971  0.3951
 1982TIP3    H2 5953   0.104   3.085   4.215  0.8709 -0.6581  0.5810
 1983TIP3   OH2 5954   1.074   2.074   4.520 -0.6696  0.0518  0.7632
 1983TIP3    H1 5955   1.123   1.994   4.500  0.0924  0.3731  1.2741
 1983TIP3    H2 5956   1.073   2.078   4.616  1.5642  1.9398  0.8278
 1984TIP3   OH2 5957   4.880   4.199   3.910  0.2802  0.6090  0.7307
 1984TIP3    H1 5958   4.908   4.117   3.951 -0.0369  0.1997  0.1374
 1984TIP3    H2 5959   4.823   4.239   3.975  1.3142  0.9139  1.4906
 1985TIP3   OH2 5960   3.650   0.737   2.241  0.1416  0.3073  0.8396
 1985TIP3    H1 5961   3.698   0.728   2.324  0.4091 -1.9393  0.4875
 1985TIP3    H2 5962   3.576   0.677   2.249  0.0362  0.2370 -0.4451
 1986TIP3   OH2 5963   0.303   4.389   4.790  0.0073 -0.6189  0.6516
 1986TIP3    H1 5964   0.236   4.456   4.778 -0.6734 -1.4105 -0.0344
 1986TIP3    H2 5965   0.385   4.439   4.796 -0.5055  0.2886  0.3668
 1987TIP3   OH2 5966   1.201   0.570   0.551  0.7761  0.4006 -0.4510
 1987TIP3    H1 5967   1.283   0.598   0.591  0.9789  0.9990 -1.2567
 1987TIP3    H2 5968   1.219   0.481   0.518  0.8179  0.1786  0.1707
 1988TIP3   OH2 5969   3.117   3.456   0.629  0.1343 -0.3181 -0.7034
 1988TIP3    H1 5970   3.091   3.365   0.615  0.6364 -0.6308  0.3016
 1988TIP3    H2 5971   3.099   3.473   0.721 -1.7294  1.2246 -1.2758
 1989TIP3   OH2 5972   6.230   1.559   4.223 -0.6739  0.6628 -0.1153
 1989TIP3    H1 5973   6.297   1.532   4.287 -0.1532  0.3422 -0.7891
 1989TIP3    H2 5974   6.218   1.653   4.241 -2.2463  0.1446  1.9985
 1990TIP3   OH2 5975   1.127   1.641   0.058 -0.0273  0.9259  0.1820
 1990TIP3    H1 5976   1.164   1.553   0.054 -0.1674  0.8082  1.0901
 1990TIP3    H2 5977   1.046   1.630   0.108 -0.6647  1.3813 -0.7328
 1991TIP3   OH2 5978   3.100   3.105   2.281  0.4522 -0.6250  0.5550
 1991TIP3    H1 5979   3.147   3.129   2.361  3.4473  0.7380 -1.4165
 1991TIP3    H2 5980   3.151   3.032   2.244 -1.0937 -1.4862  0.0313
 1992TIP3   OH2 5981   4.742   4.434   0.160  0.1477  0.4656 -0.2556
 1992TIP3    H1 5982   4.796   4.511   0.172 -1.0507  1.1792  0.8387
 1992TIP3    H2 5983   4.672   4.443   0.225 -1.7879  0.0462 -2.1482
 1993TIP3   OH2 5984   4.242   3.759   0.352 -0.3355  0.2552  0.0147
 1993TIP3    H1 5985   4.222   3.667   0.370 -2.3654 -0.0658 -3.1332
 1993TIP3    H2 5986   4.182   3.808   0.407 -1.3405 -0.4141 -0.4602
 1994TIP3   OH2 5987   2.582   2.557   4.651  0.0329 -0.2239 -0.3235
 1994TIP3    H1 5988   2.627   2.479   4.684 -1.4469 -1.3732 -0.9185
 1994TIP3    H2 5989   2.556   2.534   4.562  0.1472  1.2147 -0.7535
 1995TIP3   OH2 5990   6.287   3.163   3.351 -0.1777  0.3280 -0.8659
 1995TIP3    H1 5991   6.195   3.188   3.352 -0.8262 -1.8145 -0.3898
 1995TIP3    H2 5992   6.301   3.122   3.437  1.9120  2.7013  0.0608
 1996TIP3   OH2 5993   4.492   1.558   2.803  0.0132 -0.4925 -0.1709
 1996TIP3    H1 5994   4.404   1.528   2.826 -0.6368  1.4005 -0.0349
 1996TIP3    H2 5995   4.478   1.641   2.758  1.7702  0.4787  0.9651
 1997TIP3   OH2 5996   2.169   2.605   0.410 -0.2843  0.2572  0.2743
 1997TIP3    H1 5997   2.158   2.699   0.427 -1.0233  0.2267 -0.0141
 1997TIP3    H2 5998   2.219   2.573   0.485 -0.7140  0.7368  0.7699
 1998TIP3   OH2 5999   5.641   1.556   0.740  0.5348  0.0715 -0.0195
 1998TIP3    H1 6000   5.682   1.479   0.700 -0.2868  0.4615 -1.7339
 1998TIP3    H2 6001   5.643   1.623   0.671 -0.9355  0.8064  0.5990
 1999TIP3   OH2 6002   2.530   0.818   2.808  0.1959  0.5603  0.5939
 1999TIP3    H1 6003   2.565   0.730   2.818 -0.0756  0.3337 -0.3327
 1999TIP3    H2 6004   2.460   0.824   2.873 -1.1690 -0.6586 -0.6877
 2000TIP3   OH2 6005   4.620   1.113   0.769 -0.0256 -0.2037  0.6892
 2000TIP3    H1 6006   4.663   1.073   0.693 -0.5734  2.1138 -0.9647
 2000TIP3    H2 6007   4.690   1.125   0.833  1.2100  0.7168 -0.7555
 2001TIP3   OH2 6008   3.454   3.469   1.372  0.5025 -0.8016 -0.0425
 2001TIP3    H1 6009   3.541   3.481   1.411  0.8133 -2.2854 -0.2143
 2001TIP3    H2 6010   3.393   3.482   1.444  0.9989 -2.0112  0.6194
 2002TIP3   OH2 6011   3.049   5.049   1.873 -0.3228 -0.5250 -0.0866
 2002TIP3    H1 6012   3.004   5.102   1.807  1.6600 -0.8172 -1.7675
 2002TIP3    H2 6013   3.137   5.087   1.878  0.1365 -1.6653  1.0455
 2003TIP3   OH2 6014   3.662   3.336   3.458  0.7460  0.4569  0.0087
 2003TIP3    H1 6015   3.746   3.366   3.492 -0.3488  1.0847  2.3104
 2003TIP3    H2 6016   3.603   3.339   3.532 -1.7325  1.4561 -1.8658
 2004TIP3   OH2 6017   0.351   2.943   4.345 -0.3947 -0.4416 -0.4402
 2004TIP3    H1 6018   0.377   3.028   4.380 -2.7422  0.4506 -0.6795
 2004TIP3    H2 6019   0.346   2.956   4.250 -0.4256 -0.9559 -0.5145
 2005TIP3   OH2 6020   5.714   3.959   2.161 -0.1007  0.2470 -0.1721
 2005TIP3    H1 6021   5.626   3.959   2.198  0.2218 -0.3933  0.6297
 2005TIP3    H2 6022   5.762   4.022   2.215  0.0113  0.3621 -0.4060
 2006TIP3   OH2 6023   1.672   0.580   1.116  0.4633 -0.8539  0.1056
 2006TIP3    H1 6024   1.675   0.530   1.034 -0.5815  0.2764 -0.6603
 2006TIP3    H2 6025   1.760   0.615   1.126  1.5636 -3.6487  1.2323
 2007TIP3   OH2 6026   6.149   5.196   4.105  0.6202 -0.2226 -0.2965
 2007TIP3    H1 6027   6.077   5.149   4.146  2.7948 -1.1158  2.8676
 2007TIP3    H2 6028   6.178   5.138   4.034 -0.1606 -1.0721  0.0599
 2008TIP3   OH2 6029   6.128   2.569   0.924  0.3460  0.1766  0.4571
 2008TIP3    H1 6030   6.033   2.574   0.917  0.2023  0.7326  2.2407
 2008TIP3    H2 6031   6.158   2.658   0.904  0.2636  0.6348  2.2010
 2009TIP3   OH2 6032   1.041   3.880   0.142  0.9452  0.4541 -0.3550
 2009TIP3    H1 6033   1.045   3.824   0.219 -0.6905  0.7772  0.0178
 2009TIP3    H2 6034   0.988   3.831   0.079  0.6726  0.9855 -0.5504
 2010TIP3   OH2 6035   2.225   3.775   2.655 -0.1946  0.5913  0.0502
 2010TIP3    H1 6036   2.241   3.751   2.746  0.8188  0.1129 -0.2318
 2010TIP3    H2 6037   2.188   3.696   2.616  0.6323  0.3417 -0.2535
 2011TIP3   OH2 6038   1.108   5.212   1.354 -0.3045 -0.3932 -0.4579
 2011TIP3    H1 6039   1.171   5.163   1.407 -1.7953 -1.1742  0.6907
 2011TIP3    H2 6040   1.079   5.149   1.288 -0.8328 -0.4882 -0.1485
 2012TIP3   OH2 6041   5.521   1.445   3.955 -0.5734  0.0011 -0.0651
 2012TIP3    H1 6042   5.431   1.411   3.957 -0.1763 -1.1198 -0.4162
 2012TIP3    H2 6043   5.569   1.388   4.015 -0.7061  2.5806  2.7077
 2013TIP3   OH2 6044   4.641   4.275   1.212 -0.1969 -0.4681 -0.6254
 2013TIP3    H1 6045   4.728   4.312   1.194  0.7140 -2.1951  0.0261
 2013TIP3    H2 6046   4.588   4.303   1.137  0.4951  1.8311 -0.3431
 2014TIP3   OH2 6047   2.125   0.490   3.872  0.0020 -0.1629  0.0893
 2014TIP3    H1 6048   2.178   0.568   3.860  0.6439 -0.9245 -2.9285
 2014TIP3    H2 6049   2.051   0.502   3.813 -0.3225 -1.4573  0.2052
 2015TIP3   OH2 6050   5.801   4.072   4.541  0.2260 -0.1620 -0.2642
 2015TIP3    H1 6051   5.815   4.140   4.607  1.1645 -0.0953 -0.5196
 2015TIP3    H2 6052   5.872   4.009   4.556  0.2216 -0.3429 -0.9683
 2016TIP3   OH2 6053   3.467   1.162   4.255 -0.1629 -0.4114  0.1157
 2016TIP3    H1 6054   3.436   1.221   4.186 -1.5804 -0.2079  0.8628
 2016TIP3    H2 6055   3.420   1.192   4.333  0.0707 -1.7316  0.7830
 2017TIP3   OH2 6056   0.572   0.693   2.523  0.4825  0.4212  0.4685
 2017TIP3    H1 6057   0.642   0.658   2.468 -0.0769  1.4591 -0.9852
 2017TIP3    H2 6058   0.616   0.744   2.590  1.1248  1.2088 -0.5330
 2018TIP3   OH2 6059   3.933   4.099   4.518  0.3743  0.1020  0.4404
 2018TIP3    H1 6060   3.894   4.093   4.605 -2.1876 -0.6658 -0.6474
 2018TIP3    H2 6061   3.927   4.009   4.484 -1.4855  0.9113 -1.5746
 2019TIP3   OH2 6062   2.454   0.074   4.789 -0.2646  0.4877 -0.2552
 2019TIP3    H1 6063   2.511   0.114   4.724  1.0583 -2.1803 -0.8672
 2019TIP3    H2 6064   2.513   0.038   4.855 -1.4237  0.3571  0.7529
 2020TIP3   OH2 6065   0.038   0.269   0.342 -0.5017  0.9481  0.1847
 2020TIP3    H1 6066   0.085   0.190   0.367 -0.0893  1.4800  1.1218
 2020TIP3    H2 6067  -0.013   0.243   0.264 -0.9435 -0.4357  0.9016
 2021TIP3   OH2 6068   5.491   3.279   4.175  0.5337 -0.5313 -0.7208
 2021TIP3    H1 6069   5.562   3.217   4.161 -0.5952 -1.5463 -2.3124
 2021TIP3    H2 6070   5.501   3.343   4.104  0.2005 -0.3394 -0.6001
 2022TIP3   OH2 6071   4.013   4.453   4.822  0.5411  0.7368 -0.3871
 2022TIP3    H1 6072   3.966   4.456   4.905 -0.0794  1.5649 -0.7579
 2022TIP3    H2 6073   4.072   4.378   4.831  0.5124  0.8386  0.8114
 2023TIP3   OH2 6074   1.520   4.310   1.547  0.8172  0.3985 -0.7399
 2023TIP3    H1 6075   1.476   4.337   1.628  1.5298  1.1269 -0.5904
 2023TIP3    H2 6076   1.551   4.391   1.508  0.9922 -0.0044 -1.4534
 2024TIP3   OH2 6077   4.037   3.302   4.398  0.5409 -0.2771 -0.0552
 2024TIP3    H1 6078   3.995   3.232   4.448 -0.0306  0.4349  0.5002
 2024TIP3    H2 6079   3.975   3.375   4.404  0.8448  0.0860 -1.1230
 2025TIP3   OH2 6080   2.159   0.729   2.797 -0.0113 -0.3905 -0.0545
 2025TIP3    H1 6081   2.149   0.805   2.854  0.2778  1.2547 -2.0686
 2025TIP3    H2 6082   2.086   0.672   2.820 -0.6947  0.8618  0.9912
 2026TIP3   OH2 6083   0.807   0.313   3.181 -0.2503  0.0088 -0.2869
 2026TIP3    H1 6084   0.757   0.394   3.179  0.7489  0.6551  0.0021
 2026TIP3    H2 6085   0.821   0.296   3.274  2.2960  1.3094 -0.3309
 2027TIP3   OH2 6086   3.945   1.111   4.732  0.4463  0.0912  0.0721
 2027TIP3    H1 6087   3.945   1.017   4.718  1.8603  0.3957 -2.7185
 2027TIP3    H2 6088   3.997   1.124   4.811 -2.1358 -1.5480  2.1785
 2028TIP3   OH2 6089   3.155   0.732   2.282 -0.5302  0.2211  0.1558
 2028TIP3    H1 6090   3.150   0.805   2.220  0.7372 -0.1306 -0.3985
 2028TIP3    H2 6091   3.065   0.700   2.288 -1.1571  1.9297  0.5673
 2029TIP3   OH2 6092   0.953   4.014   2.446  0.0521  0.1465  0.5488
 2029TIP3    H1 6093   1.011   4.055   2.381  0.5605 -0.3623  0.6748
 2029TIP3    H2 6094   0.947   3.923   2.419 -2.3178  0.5704 -0.6240
 2030TIP3   OH2 6095   3.965   0.579   5.081  0.3040 -0.6324 -0.1314
 2030TIP3    H1 6096   3.978   0.505   5.022  4.5332  0.0954 -0.3782
 2030TIP3    H2 6097   3.951   0.539   5.167  0.7402 -1.7263 -0.5482
 2031TIP3   OH2 6098   1.992   5.113   1.650 -0.0042 -0.0294 -0.5077
 2031TIP3    H1 6099   2.008   5.179   1.583  0.1246 -0.2421 -0.6870
 2031TIP3    H2 6100   1.926   5.152   1.707  0.0925  0.2640 -0.5974
 2032TIP3   OH2 6101   4.865   3.025   3.537 -0.0361 -0.0459  0.1139
 2032TIP3    H1 6102   4.914   3.031   3.618 -0.4708  1.1299  0.3147
 2032TIP3    H2 6103   4.920   2.973   3.478  0.0878 -1.2885  1.2824
 2033TIP3   OH2 6104   4.849   3.751   4.984  1.1807  0.0048  0.6523
 2033TIP3    H1 6105   4.941   3.770   5.000  1.5931  0.1510 -1.5019
 2033TIP3    H2 6106   4.843   3.740   4.889 -0.9220 -0.5957  0.7886
 2034TIP3   OH2 6107   5.247   3.136   2.393 -0.2657  0.5685  0.0272
 2034TIP3    H1 6108   5.190   3.096   2.328  1.6449  0.7119 -1.8352
 2034TIP3    H2 6109   5.229   3.230   2.387  0.3996  0.6507 -0.8314
 2035TIP3   OH2 6110   3.438   3.006   4.711 -0.5361 -0.1910  0.4117
 2035TIP3    H1 6111   3.418   3.037   4.623 -1.4766 -0.0258  0.6667
 2035TIP3    H2 6112   3.353   2.976   4.745  0.0203 -1.3202  0.8409
 2036TIP3   OH2 6113   3.341   4.714   3.776 -0.1440 -0.4844 -0.2931
 2036TIP3    H1 6114   3.427   4.701   3.735 -1.0966 -0.1824 -2.5218
 2036TIP3    H2 6115   3.353   4.792   3.830  0.9337 -0.3128 -0.7478
 2037TIP3   OH2 6116   0.063   4.338   0.225 -0.2430 -0.1864  0.0662
 2037TIP3    H1 6117   0.023   4.290   0.153 -0.7212  0.6025 -0.2136
 2037TIP3    H2 6118   0.123   4.400   0.183 -0.0691 -0.1374  0.3779
 2038TIP3   OH2 6119   0.612   3.447   4.352 -0.3038  0.0005 -0.2949
 2038TIP3    H1 6120   0.690   3.448   4.297 -1.0135 -0.7976 -1.3608
 2038TIP3    H2 6121   0.609   3.359   4.388 -0.5083  0.1439  0.0411
 2039TIP3   OH2 6122   3.451   5.741   3.801  0.5498 -0.6715 -0.4716
 2039TIP3    H1 6123   3.454   5.801   3.875 -2.4694 -1.0669  0.1354
 2039TIP3    H2 6124   3.492   5.661   3.833  0.9243 -0.2457  0.1314
 2040TIP3   OH2 6125   3.854   0.297   3.017  0.4624  0.0856  0.1827
 2040TIP3    H1 6126   3.906   0.308   2.937 -0.7859  1.0054 -0.5503
 2040TIP3    H2 6127   3.824   0.207   3.013 -0.7088  0.4825 -1.1534
 2041TIP3   OH2 6128   4.337   0.202   3.132 -0.3262  0.1470 -0.0346
 2041TIP3    H1 6129   4.402   0.151   3.085 -0.8740  0.1464 -0.8014
 2041TIP3    H2 6130   4.333   0.161   3.219 -1.0805 -1.4232 -0.7674
 2042TIP3   OH2 6131   2.815   2.888   0.655 -0.0316  0.0602 -0.0339
 2042TIP3    H1 6132   2.744   2.827   0.675 -0.8026  0.9998  0.1653
 2042TIP3    H2 6133   2.816   2.949   0.729  1.6691 -0.5284  0.4690
 2043TIP3   OH2 6134   4.549   1.288   1.376  0.3285  0.0660  0.2638
 2043TIP3    H1 6135   4.578   1.375   1.349  0.7978  0.4935  1.9556
 2043TIP3    H2 6136   4.533   1.241   1.295 -1.5351  2.2228 -0.7430
 2044TIP3   OH2 6137   1.175   0.527   4.710  0.2099 -0.0700  0.0417
 2044TIP3    H1 6138   1.248   0.548   4.768 -0.4917  0.8592  0.6274
 2044TIP3    H2 6139   1.199   0.567   4.626  0.1505  0.7090  0.3799
 2045TIP3   OH2 6140   2.344   5.084   2.080 -0.1478  0.3541  0.1086
 2045TIP3    H1 6141   2.435   5.084   2.108  0.0380  1.4539 -0.4308
 2045TIP3    H2 6142   2.308   5.167   2.112 -0.3758  0.8809 -1.4120
 2046TIP3   OH2 6143   0.986   3.966   4.260  0.5129 -0.0586 -0.2244
 2046TIP3    H1 6144   0.941   4.015   4.329  0.7815 -0.0522 -0.0519
 2046TIP3    H2 6145   1.044   4.031   4.219  0.6923 -0.1708 -0.1518
 2047TIP3   OH2 6146   0.522   2.138   2.200 -0.0590 -0.2326  0.2843
 2047TIP3    H1 6147   0.532   2.153   2.294 -2.2982 -0.3827  0.6108
 2047TIP3    H2 6148   0.462   2.064   2.194 -0.9276  0.5478 -1.2476
 2048TIP3   OH2 6149   0.612   5.505   2.662  0.3330 -0.6495  0.2310
 2048TIP3    H1 6150   0.555   5.500   2.739 -1.1957 -1.1958 -0.8777
 2048TIP3    H2 6151   0.660   5.423   2.662  0.5755 -0.5120  0.7633
 2049TIP3   OH2 6152   6.026   0.529   2.744 -0.3400  0.3101 -0.2611
 2049TIP3    H1 6153   5.948   0.505   2.792 -0.3612  1.9758  0.6102
 2049TIP3    H2 6154   6.014   0.622   2.723  1.9867  1.0138  1.1547
 2050TIP3   OH2 6155   5.271   1.118   2.648 -0.1425 -0.1248 -0.1327
 2050TIP3    H1 6156   5.341   1.066   2.609 -1.3165 -0.1080 -2.4182
 2050TIP3    H2 6157   5.245   1.180   2.580 -1.8548  0.3810  0.9058
 2051TIP3   OH2 6158   0.266   5.231   1.177 -1.0507  0.0132  0.5854
 2051TIP3    H1 6159   0.281   5.283   1.256 -2.3562 -0.4955  1.1971
 2051TIP3    H2 6160   0.211   5.287   1.122 -0.2375  0.3210  0.0717
 2052TIP3   OH2 6161   0.617   5.666   5.140  0.3908  0.5050  0.4410
 2052TIP3    H1 6162   0.667   5.744   5.115 -0.1145  0.4102 -0.9793
 2052TIP3    H2 6163   0.683   5.602   5.165  0.8513  1.0998  0.7817
 2053TIP3   OH2 6164   5.198   0.198   2.230 -0.0316  1.1087  0.1054
 2053TIP3    H1 6165   5.184   0.204   2.135  3.5301 -0.0621 -0.6090
 2053TIP3    H2 6166   5.234   0.283   2.254 -1.3693  1.5744  0.5711
 2054TIP3   OH2 6167   6.283   2.349   0.583  0.4297  0.0902 -0.5484
 2054TIP3    H1 6168   6.205   2.402   0.594 -1.2061 -2.2739 -0.0391
 2054TIP3    H2 6169   6.268   2.299   0.503  1.2322 -0.7053 -0.2261
 2055TIP3   OH2 6170   3.857   0.735   2.886 -0.3269  0.5884 -0.0091
 2055TIP3    H1 6171   3.822   0.698   2.966 -0.5547 -0.7703 -0.7034
 2055TIP3    H2 6172   3.938   0.686   2.870 -0.9230 -0.0249 -1.2547
 2056TIP3   OH2 6173   4.447   0.922   1.855 -0.3536  0.6277 -0.1539
 2056TIP3    H1 6174   4.501   0.945   1.780  0.0302  0.9047  0.2013
 2056TIP3    H2 6175   4.387   0.856   1.823  0.0049  0.5327 -0.6279
 2057TIP3   OH2 6176   4.220   5.984   1.996  0.4234  0.1230  0.2346
 2057TIP3    H1 6177   4.134   5.943   1.994 -0.4852  1.9400 -1.1134
 2057TIP3    H2 6178   4.277   5.919   2.038 -1.2912 -1.6684 -0.0693
 2058TIP3   OH2 6179   2.747   5.361   0.074 -0.2330 -0.3538 -0.2205
 2058TIP3    H1 6180   2.680   5.299   0.105  2.0368 -2.8146  0.1900
 2058TIP3    H2 6181   2.717   5.388  -0.012 -1.8300 -1.2789  0.0060
 2059TIP3   OH2 6182   3.317   2.628   2.291  0.4811  0.2549 -0.4972
 2059TIP3    H1 6183   3.352   2.611   2.378 -0.3594  1.2401  0.0575
 2059TIP3    H2 6184   3.392   2.657   2.240  0.6325  1.6732  0.4827
 2060TIP3   OH2 6185   0.357   5.098   4.273  0.3781  0.1731  0.2779
 2060TIP3    H1 6186   0.381   5.153   4.347  0.6965 -0.9354  1.0330
 2060TIP3    H2 6187   0.273   5.133   4.242 -1.1904 -0.9371  2.8962
 2061TIP3   OH2 6188   1.788   5.811   4.588 -0.4500 -0.2504 -0.2764
 2061TIP3    H1 6189   1.755   5.805   4.499 -1.0114  1.6190 -0.2321
 2061TIP3    H2 6190   1.709   5.807   4.643 -0.1739 -0.6628  0.0913
 2062TIP3   OH2 6191   2.718   3.587   0.558 -0.3676  0.0188 -0.3300
 2062TIP3    H1 6192   2.796   3.641   0.552 -1.1301  1.3649  1.1348
 2062TIP3    H2 6193   2.746   3.500   0.527  1.3138  0.8103 -1.1324
 2063TIP3   OH2 6194   6.259   0.123   4.264  0.4214 -0.9610 -0.1090
 2063TIP3    H1 6195   6.286   0.066   4.336 -0.3925 -0.1124  0.8748
 2063TIP3    H2 6196   6.339   0.170   4.240  0.3728 -0.1325  1.2664
 2064TIP3   OH2 6197   6.161   3.023   1.793 -0.4487 -0.0753 -0.1905
 2064TIP3    H1 6198   6.231   3.086   1.811  0.2898 -0.9812  0.2257
 2064TIP3    H2 6199   6.105   3.026   1.871 -1.0439  0.8453 -0.6374
 2065TIP3   OH2 6200   1.685   3.855   0.318  0.4342 -0.3766  0.6563
 2065TIP3    H1 6201   1.698   3.837   0.411  1.4568 -1.6586  0.3004
 2065TIP3    H2 6202   1.595   3.829   0.301  0.0069  0.5429  1.4228
 2066TIP3   OH2 6203   0.366   2.673   0.469 -0.3233  0.6243 -0.1540
 2066TIP3    H1 6204   0.303   2.615   0.512  2.3073 -3.5439 -1.2274
 2066TIP3    H2 6205   0.324   2.698   0.387 -1.2336 -0.7212 -0.1332
 2067TIP3   OH2 6206   1.242   2.351   2.703 -0.0093  0.4551  0.1114
 2067TIP3    H1 6207   1.161   2.390   2.735 -1.3170 -2.8349  1.1401
 2067TIP3    H2 6208   1.221   2.322   2.614  0.9982  2.0036 -0.6947
 2068TIP3   OH2 6209   0.891   1.652   2.372  0.4159 -0.1212  0.4168
 2068TIP3    H1 6210   0.843   1.632   2.452  0.9923 -0.2031  0.7469
 2068TIP3    H2 6211   0.845   1.726   2.334 -0.4796 -0.7332  0.2822
 2069TIP3   OH2 6212   4.725   2.096   3.416 -0.1781 -0.2977  0.0620
 2069TIP3    H1 6213   4.770   2.103   3.331 -0.3052 -0.2898 -0.0054
 2069TIP3    H2 6214   4.788   2.052   3.473  0.9413  2.0004  0.7016
 2070TIP3   OH2 6215   0.519   0.026   0.831  0.1776 -0.2121 -0.4712
 2070TIP3    H1 6216   0.557  -0.062   0.825 -0.6736 -0.6906  0.7081
 2070TIP3    H2 6217   0.508   0.053   0.740  0.8831 -1.1365 -0.8511
 2071TIP3   OH2 6218   2.681   1.760   1.603 -0.2690  0.4840 -0.5347
 2071TIP3    H1 6219   2.668   1.755   1.698  0.0099 -0.3031 -0.5318
 2071TIP3    H2 6220   2.773   1.784   1.592 -0.1077 -0.1433 -0.6049
 2072TIP3   OH2 6221   2.810   5.254   2.647 -0.4147  0.0177 -0.2857
 2072TIP3    H1 6222   2.873   5.273   2.578 -0.9182 -0.1457 -0.8003
 2072TIP3    H2 6223   2.755   5.333   2.651  0.8373  0.8765  1.3288
 2073TIP3   OH2 6224   2.920   4.472   2.923 -0.1854 -0.0653  0.5520
 2073TIP3    H1 6225   2.902   4.562   2.894  1.1237 -0.1508 -0.6935
 2073TIP3    H2 6226   2.953   4.429   2.844  0.8982 -1.1297  1.5548
 2074TIP3   OH2 6227   0.806   5.545   2.183  0.0591 -0.0326 -0.3684
 2074TIP3    H1 6228   0.823   5.472   2.123 -0.0635  0.7925 -1.4339
 2074TIP3    H2 6229   0.853   5.619   2.145 -1.1059  0.8364 -0.1651
 2075TIP3   OH2 6230   0.774   1.359   4.069  0.6291  0.0220  0.4297
 2075TIP3    H1 6231   0.743   1.402   4.149  0.2268  0.7915 -0.1226
 2075TIP3    H2 6232   0.817   1.429   4.020  0.8119 -0.4266 -0.0564
 2076TIP3   OH2 6233   3.065   1.612   4.185  0.4332 -0.2552  0.5408
 2076TIP3    H1 6234   3.031   1.691   4.141 -0.1415 -1.0631 -0.5164
 2076TIP3    H2 6235   2.987   1.560   4.204  0.5426  0.4729  3.4704
 2077TIP3   OH2 6236   0.319   2.131   0.644 -0.2289 -0.3206  0.8271
 2077TIP3    H1 6237   0.307   2.170   0.558 -1.1821  1.4114  1.6962
 2077TIP3    H2 6238   0.385   2.063   0.630  0.3109  0.5252 -1.0803
 2078TIP3   OH2 6239   3.944   3.797   3.165  0.0282  0.2646  0.5654
 2078TIP3    H1 6240   3.898   3.878   3.187  0.6639  1.1420 -1.2031
 2078TIP3    H2 6241   3.988   3.772   3.246 -0.6444  1.3635  1.2991
 2079TIP3   OH2 6242   3.374   3.288   1.053 -0.0252 -0.6063 -0.1008
 2079TIP3    H1 6243   3.327   3.370   1.065  0.6643  0.0379 -1.6012
 2079TIP3    H2 6244   3.449   3.293   1.112 -0.1821 -0.3397  0.0768
 2080TIP3   OH2 6245   6.061   0.856   2.877  0.0468 -0.4558  0.5802
 2080TIP3    H1 6246   6.073   0.800   2.953  1.4459 -2.1920 -0.8341
 2080TIP3    H2 6247   5.990   0.815   2.828  0.1184 -0.1657  0.2307
 2081TIP3   OH2 6248   0.578   5.741   3.653  0.4967  0.3996 -0.1392
 2081TIP3    H1 6249   0.601   5.650   3.674  1.5186  0.3281 -1.4173
 2081TIP3    H2 6250   0.626   5.759   3.572 -1.4304  1.3565 -1.1300
 2082TIP3   OH2 6251   2.011   1.201   2.041  0.0166  0.4723  0.2988
 2082TIP3    H1 6252   2.003   1.106   2.044  0.8807  0.3990  1.0181
 2082TIP3    H2 6253   1.927   1.233   2.073  0.2920 -0.1013  1.7113
 2083TIP3   OH2 6254   5.314   3.760   0.690  0.2006 -0.2615 -0.8919
 2083TIP3    H1 6255   5.308   3.836   0.632  1.4047 -0.0397 -0.7711
 2083TIP3    H2 6256   5.310   3.797   0.778 -1.0199 -0.5335 -0.8278
 2084TIP3   OH2 6257   5.646   2.895   5.141  0.2215  0.1442  0.1882
 2084TIP3    H1 6258   5.559   2.885   5.179 -0.7561 -2.2175 -2.4081
 2084TIP3    H2 6259   5.658   2.990   5.134 -1.6794  0.5427  1.5215
 2085TIP3   OH2 6260   1.420   4.336   1.825  0.2622 -0.1724 -0.7757
 2085TIP3    H1 6261   1.433   4.379   1.910  0.9794 -1.6055 -0.1266
 2085TIP3    H2 6262   1.326   4.342   1.809 -0.3957 -2.4023  1.5641
 2086TIP3   OH2 6263   0.669   4.484   4.167 -0.1108 -0.3088 -0.2945
 2086TIP3    H1 6264   0.603   4.547   4.139 -1.3518 -0.7321  1.5211
 2086TIP3    H2 6265   0.631   4.442   4.245  1.2786 -2.2732 -0.5976
 2087TIP3   OH2 6266   0.933   3.370   0.713 -0.2508  0.6528 -0.6878
 2087TIP3    H1 6267   0.864   3.395   0.774 -0.1760 -0.3799 -0.1503
 2087TIP3    H2 6268   0.970   3.453   0.683  0.1002  1.2100  1.1474
 2088TIP3   OH2 6269   4.905   2.546   2.397 -0.1626  0.2577  0.2238
 2088TIP3    H1 6270   4.890   2.511   2.309 -0.4140 -0.9825  0.7389
 2088TIP3    H2 6271   4.844   2.619   2.405 -0.7742 -0.1864 -0.3153
 2089TIP3   OH2 6272   6.149   0.179   0.992 -0.0224  0.3676  0.2643
 2089TIP3    H1 6273   6.174   0.239   1.063  0.0365  0.1262  0.4465
 2089TIP3    H2 6274   6.089   0.231   0.938  0.1937  0.6628  0.3045
 2090TIP3   OH2 6275   0.440   4.423   3.559 -1.1969 -0.1155 -0.0576
 2090TIP3    H1 6276   0.370   4.359   3.570 -1.1028 -0.4500 -1.1835
 2090TIP3    H2 6277   0.476   4.403   3.472 -0.2874  0.6113  0.1380
 2091TIP3   OH2 6278   3.773   2.120   4.125  0.3303  0.0582 -0.2257
 2091TIP3    H1 6279   3.762   2.062   4.049  2.8895  0.6474 -1.1366
 2091TIP3    H2 6280   3.795   2.205   4.087  1.0012  0.5355  1.1636
 2092TIP3   OH2 6281   0.582   4.180   1.830 -0.1356  0.4217  0.0100
 2092TIP3    H1 6282   0.557   4.133   1.910 -0.9082  0.1681 -0.3738
 2092TIP3    H2 6283   0.533   4.137   1.761 -1.0721  1.9630 -0.3284
 2093TIP3   OH2 6284   6.210   2.266   4.736  0.4822 -0.4026 -0.0322
 2093TIP3    H1 6285   6.192   2.331   4.668  1.2755  0.7486  0.8255
 2093TIP3    H2 6286   6.123   2.235   4.761 -0.0247  1.2057  0.3541
 2094TIP3   OH2 6287   1.442   0.210   2.233  0.5695 -0.0542 -0.0744
 2094TIP3    H1 6288   1.357   0.249   2.214  0.6742  0.2037 -0.0106
 2094TIP3    H2 6289   1.504   0.282   2.225  0.8004 -0.2691 -0.2548
 2095TIP3   OH2 6290   5.269   0.505   2.967  0.4140 -0.1387  0.0732
 2095TIP3    H1 6291   5.328   0.554   2.909  3.0015 -2.8308  0.2056
 2095TIP3    H2 6292   5.280   0.547   3.053  0.9893  0.3147 -0.2128
 2096TIP3   OH2 6293   3.171   1.737   1.464  0.3499  0.1284 -0.2812
 2096TIP3    H1 6294   3.239   1.689   1.416  0.0292  0.2027 -0.8222
 2096TIP3    H2 6295   3.203   1.827   1.467  0.4725  0.0821 -0.1590
 2097TIP3   OH2 6296   2.148   2.859   1.864  0.5177  0.7692  0.0806
 2097TIP3    H1 6297   2.055   2.853   1.845  0.5882 -0.9946  0.1436
 2097TIP3    H2 6298   2.154   2.917   1.940 -0.4863  1.1529 -0.1244
 2098TIP3   OH2 6299   4.647   0.032   0.566  0.4203 -0.0482  0.1240
 2098TIP3    H1 6300   4.613   0.027   0.477 -1.9951  0.7638  0.9124
 2098TIP3    H2 6301   4.733  -0.009   0.561  0.3323 -0.0993 -2.5460
 2099TIP3   OH2 6302   0.064   5.382   2.156 -0.1536  0.2414 -0.2111
 2099TIP3    H1 6303  -0.016   5.382   2.208 -0.0059  1.6622  0.0578
 2099TIP3    H2 6304   0.085   5.475   2.144  1.1664 -0.0978 -0.7161
 2100TIP3   OH2 6305   2.752   0.909   2.194  0.2431 -0.0150 -0.4950
 2100TIP3    H1 6306   2.656   0.902   2.194  0.2255 -0.0077  0.8127
 2100TIP3    H2 6307   2.782   0.823   2.223  0.6391 -0.0050 -0.8716
 2101TIP3   OH2 6308   6.339   2.481   1.214  0.0655 -0.0678  0.0357
 2101TIP3    H1 6309   6.272   2.546   1.233 -0.0581 -0.8115  2.4916
 2101TIP3    H2 6310   6.299   2.422   1.149 -0.9354  0.5555  0.0800
 2102TIP3   OH2 6311   3.774   2.223   0.307 -0.4342 -0.3438 -0.1595
 2102TIP3    H1 6312   3.702   2.181   0.260 -1.3708  0.7034  0.2719
 2102TIP3    H2 6313   3.767   2.316   0.283  1.0232 -0.2753 -0.4124
 2103TIP3   OH2 6314   1.462   3.203   2.997  0.5757 -0.1105  0.1337
 2103TIP3    H1 6315   1.422   3.259   2.930 -1.1875  0.3434  1.4704
 2103TIP3    H2 6316   1.445   3.114   2.968 -1.1437  0.0771  0.4512
 2104TIP3   OH2 6317   4.399   4.003   0.909  0.5239 -0.5602  0.2306
 2104TIP3    H1 6318   4.390   4.006   1.004  2.0631 -0.0952  0.3894
 2104TIP3    H2 6319   4.355   4.082   0.878  1.6913  0.3012  0.7284
 2105TIP3   OH2 6320   1.118   0.643   5.060 -0.1701  0.5764  0.2837
 2105TIP3    H1 6321   1.205   0.605   5.063 -0.5758 -0.3471  2.4038
 2105TIP3    H2 6322   1.115   0.692   4.978  2.3076  0.6013  0.1478
 2106TIP3   OH2 6323   0.797   0.995   3.596 -0.0428  0.4392 -0.4138
 2106TIP3    H1 6324   0.719   0.973   3.647  1.4565  1.4852  2.5660
 2106TIP3    H2 6325   0.841   0.911   3.581 -0.8428  0.0456 -0.5979
 2107TIP3   OH2 6326   0.643   2.103   0.823  0.1510  0.1132  0.2184
 2107TIP3    H1 6327   0.728   2.063   0.842 -0.0497  0.1417  1.2184
 2107TIP3    H2 6328   0.662   2.196   0.810  0.3730 -0.0053 -0.3418
 2108TIP3   OH2 6329   0.599   1.754   4.983  0.3464  0.1860 -0.2463
 2108TIP3    H1 6330   0.658   1.824   5.013  0.4898  0.4247 -1.0551
 2108TIP3    H2 6331   0.649   1.673   4.996 -0.1202  0.1349  1.4488
 2109TIP3   OH2 6332   2.997   3.996   2.385 -0.3706 -0.2317  0.5785
 2109TIP3    H1 6333   2.918   4.025   2.431 -0.4651 -1.2856  1.0996
 2109TIP3    H2 6334   2.998   3.901   2.395  0.1089 -0.4045 -0.8033
 2110TIP3   OH2 6335   2.173   4.049   1.028 -0.1469  0.3063  0.0748
 2110TIP3    H1 6336   2.203   3.972   1.076 -0.9300  0.6163  1.1148
 2110TIP3    H2 6337   2.248   4.107   1.025  0.3068 -0.2884 -0.2856
 2111TIP3   OH2 6338   0.946   4.301   3.810  0.0028 -0.5988  0.0430
 2111TIP3    H1 6339   0.991   4.338   3.734  1.3995 -3.3203 -0.5599
 2111TIP3    H2 6340   0.871   4.254   3.773  0.2488 -1.2871  0.4024
 2112TIP3   OH2 6341   0.531   5.458   2.399 -0.0310  0.5466 -0.3405
 2112TIP3    H1 6342   0.557   5.452   2.491 -0.0402 -0.9659 -0.4133
 2112TIP3    H2 6343   0.435   5.458   2.402 -0.0541  2.1521 -0.2856
 2113TIP3   OH2 6344   3.956   1.555   4.467 -0.1414  0.0500  0.1898
 2113TIP3    H1 6345   3.976   1.469   4.505 -0.2949  0.5014  1.3255
 2113TIP3    H2 6346   3.862   1.565   4.480 -0.1812  0.2610 -0.2428
 2114TIP3   OH2 6347   4.684   1.675   3.669 -0.1261 -0.4302 -0.2884
 2114TIP3    H1 6348   4.661   1.725   3.591 -0.2903 -0.3635 -0.1994
 2114TIP3    H2 6349   4.693   1.741   3.738  0.9474 -0.3920 -0.4547
 2115TIP3   OH2 6350   1.731   0.748   0.206  0.8820 -0.6752 -0.0534
 2115TIP3    H1 6351   1.690   0.760   0.120  0.0070 -0.7243  0.3393
 2115TIP3    H2 6352   1.695   0.666   0.238 -0.6419  0.4659  1.3304
 2116TIP3   OH2 6353   0.768   1.759   0.732  0.7195  0.4523 -0.4139
 2116TIP3    H1 6354   0.823   1.771   0.809  0.1780  1.1551 -0.1280
 2116TIP3    H2 6355   0.776   1.666   0.710  2.2532  0.5849 -0.5549
 2117TIP3   OH2 6356   4.071   1.152   0.863 -0.0709 -0.2059  0.1430
 2117TIP3    H1 6357   4.039   1.195   0.784 -1.3199 -0.6764  0.3622
 2117TIP3    H2 6358   4.157   1.118   0.840 -0.4698 -0.4359 -1.0636
 2118TIP3   OH2 6359   3.516   4.207   3.279  0.2320  0.3498 -0.4330
 2118TIP3    H1 6360   3.539   4.155   3.356 -1.5523 -1.9683 -1.3483
 2118TIP3    H2 6361   3.493   4.143   3.212  0.6282  2.2988 -2.5806
 2119TIP3   OH2 6362   5.510   0.563   0.291 -0.2482 -0.5881 -0.1184
 2119TIP3    H1 6363   5.492   0.474   0.324  2.2056 -0.9125  0.5564
 2119TIP3    H2 6364   5.478   0.621   0.360  0.2966 -1.0553  0.5350
 2120TIP3   OH2 6365   5.438   0.967   1.260  0.0110  0.1116 -0.3600
 2120TIP3    H1 6366   5.484   0.932   1.336 -0.0093 -1.9501 -1.2335
 2120TIP3    H2 6367   5.351   0.928   1.265  0.1144 -0.3221 -1.5952
 2121TIP3   OH2 6368   0.951   2.875   0.012 -0.1039  0.2950  0.1820
 2121TIP3    H1 6369   0.929   2.881   0.105  0.2605  2.8514  0.1679
 2121TIP3    H2 6370   0.866   2.881  -0.033 -0.4927 -2.7131  0.2662
 2122TIP3   OH2 6371   3.116   3.741   2.244 -0.4564  0.0026  0.4180
 2122TIP3    H1 6372   3.115   3.670   2.179  0.9580 -1.6227  2.0799
 2122TIP3    H2 6373   3.112   3.697   2.328  0.2769  1.9261  1.5301
 2123TIP3   OH2 6374   0.538   2.652   1.315  0.3560  0.0896 -0.2332
 2123TIP3    H1 6375   0.525   2.573   1.263 -0.6267  0.7868 -1.1100
 2123TIP3    H2 6376   0.493   2.634   1.397  0.1177 -0.2574 -0.4378
 2124TIP3   OH2 6377   3.558   0.606   1.654 -0.0612  0.0121 -0.2608
 2124TIP3    H1 6378   3.582   0.613   1.746 -0.1328  0.4597 -0.2735
 2124TIP3    H2 6379   3.480   0.661   1.645  0.3692  0.5514 -0.7396
 2125TIP3   OH2 6380   2.581   3.771   2.377  0.0325  0.5914  0.5911
 2125TIP3    H1 6381   2.595   3.748   2.469  0.3173 -0.6257  0.2717
 2125TIP3    H2 6382   2.627   3.702   2.329 -1.2853  0.4054 -0.4698
 2126TIP3   OH2 6383   4.398   5.870   3.570  0.2429  0.2525  0.0967
 2126TIP3    H1 6384   4.418   5.963   3.579 -1.2794  0.8309 -1.7630
 2126TIP3    H2 6385   4.331   5.854   3.636 -0.4865  0.8428 -0.4822
 2127TIP3   OH2 6386   4.396   5.835   0.712  0.6073  0.7938  0.5202
 2127TIP3    H1 6387   4.341   5.757   0.718  0.1760  0.9823 -0.7139
 2127TIP3    H2 6388   4.396   5.871   0.800  0.0257 -0.0707  0.8910
 2128TIP3   OH2 6389   3.588   2.466   1.376  0.3410 -0.4027  0.2702
 2128TIP3    H1 6390   3.649   2.509   1.317  2.0358 -0.5470  1.8271
 2128TIP3    H2 6391   3.538   2.537   1.416 -0.1194 -0.2422 -0.5810
 2129TIP3   OH2 6392   2.444   2.808   1.739  0.5073  0.4249 -0.1308
 2129TIP3    H1 6393   2.457   2.865   1.815 -1.9011  2.9164 -1.4224
 2129TIP3    H2 6394   2.521   2.823   1.684  2.3381 -1.4955  1.7177
 2130TIP3   OH2 6395   3.099   0.189   4.669 -0.0660 -0.2761  0.7414
 2130TIP3    H1 6396   3.081   0.251   4.598  0.5317  1.6045  2.1456
 2130TIP3    H2 6397   3.182   0.219   4.707 -0.6345 -0.8573  2.5689
 2131TIP3   OH2 6398   5.189   0.978   4.209 -1.0157  0.2674 -0.0695
 2131TIP3    H1 6399   5.161   0.890   4.183  1.6863 -0.9134  0.7176
 2131TIP3    H2 6400   5.201   0.973   4.304  1.1351  0.8094 -0.2605
 2132TIP3   OH2 6401   5.664   0.919   2.949  1.0168 -0.6657  0.3442
 2132TIP3    H1 6402   5.631   0.941   3.036  1.4553 -0.2488  0.4084
 2132TIP3    H2 6403   5.653   0.824   2.942  1.5558 -0.7926  1.1036
 2133TIP3   OH2 6404   5.388   0.965   0.085  0.1446 -0.0832 -0.2675
 2133TIP3    H1 6405   5.470   1.009   0.063  1.8635 -1.4777  2.6974
 2133TIP3    H2 6406   5.405   0.873   0.066 -0.3160 -0.5265  1.3355
 2134TIP3   OH2 6407   5.451   3.160   4.795  0.2093 -0.2022 -0.6847
 2134TIP3    H1 6408   5.528   3.175   4.851  0.1694  0.6560 -0.8460
 2134TIP3    H2 6409   5.485   3.113   4.719  0.7665  1.0159 -1.2112
 2135TIP3   OH2 6410   5.807   3.212   3.093  0.3070  0.1692  0.5526
 2135TIP3    H1 6411   5.826   3.175   3.179  0.8173 -1.4713 -0.2367
 2135TIP3    H2 6412   5.719   3.249   3.103  0.7433  0.9104  2.0338
 2136TIP3   OH2 6413   4.243   1.162   0.344 -0.1668 -0.2243  0.0636
 2136TIP3    H1 6414   4.301   1.142   0.418 -1.5252 -0.1739  1.2020
 2136TIP3    H2 6415   4.299   1.160   0.267  1.5405  0.8583  1.2156
 2137TIP3   OH2 6416   3.549   2.066   2.110  0.0429 -0.5586 -0.1985
 2137TIP3    H1 6417   3.484   2.000   2.134  0.7484 -1.6194 -1.1277
 2137TIP3    H2 6418   3.604   2.024   2.044  1.1654  0.5980 -0.0538
 2138TIP3   OH2 6419   2.339   2.354   0.906 -0.1605 -0.2530 -0.1089
 2138TIP3    H1 6420   2.425   2.393   0.923  0.2863 -0.5348 -1.5249
 2138TIP3    H2 6421   2.276   2.422   0.928  0.3917 -0.1607  1.2746
 2139TIP3   OH2 6422   1.053   2.174   0.531  0.3512 -0.4989  0.2493
 2139TIP3    H1 6423   1.045   2.152   0.439  1.7124 -2.1461  0.4910
 2139TIP3    H2 6424   0.981   2.126   0.573 -0.0701 -0.0027  0.1191
 2140TIP3   OH2 6425   0.636   0.201   4.535 -0.1971  0.3306 -0.3151
 2140TIP3    H1 6426   0.606   0.284   4.496  0.1217  0.8512  0.5180
 2140TIP3    H2 6427   0.730   0.215   4.550 -0.4910  0.5166  1.5153
 2141TIP3   OH2 6428   5.352   0.357   2.608  0.1169  0.1020  0.6303
 2141TIP3    H1 6429   5.262   0.374   2.638 -0.8744  0.7706 -2.3937
 2141TIP3    H2 6430   5.341   0.316   2.522  2.6994  1.4869 -0.4549
 2142TIP3   OH2 6431   5.606   4.346   2.959 -0.1026 -0.4145 -0.0343
 2142TIP3    H1 6432   5.593   4.343   2.865 -1.0855 -0.1616  0.0810
 2142TIP3    H2 6433   5.697   4.373   2.970  0.1624 -0.9066 -0.9034
 2143TIP3   OH2 6434   4.609   2.663   2.124 -0.0862  0.3937  0.1077
 2143TIP3    H1 6435   4.646   2.739   2.079  0.0797  0.5192  0.4575
 2143TIP3    H2 6436   4.648   2.665   2.211  1.5801 -1.2953 -0.5222
 2144TIP3   OH2 6437   0.493   3.080   4.722  0.8500  0.0329 -0.4265
 2144TIP3    H1 6438   0.579   3.046   4.700  1.4887  1.9532 -1.1412
 2144TIP3    H2 6439   0.510   3.167   4.760 -0.7486  0.3601 -0.3666
 2145TIP3   OH2 6440   3.662   3.078   3.157  0.0502 -0.3050 -0.0905
 2145TIP3    H1 6441   3.585   3.133   3.172  1.0629  1.4966 -1.1748
 2145TIP3    H2 6442   3.627   3.000   3.114 -1.2985 -0.0620  0.5051
 2146TIP3   OH2 6443   5.454   2.568   1.692 -0.0460 -0.2927  0.1425
 2146TIP3    H1 6444   5.422   2.566   1.601  0.9095  1.2882 -0.2701
 2146TIP3    H2 6445   5.375   2.584   1.744 -0.5905 -1.0835 -0.4019
 2147TIP3   OH2 6446   2.635   4.525   3.400  0.2003  0.2785  0.1819
 2147TIP3    H1 6447   2.730   4.510   3.405  0.2611  0.8292  0.7631
 2147TIP3    H2 6448   2.600   4.442   3.368  0.9629  0.3578 -0.9148
 2148TIP3   OH2 6449   0.996   1.722   2.749 -0.1630 -0.1144  0.5384
 2148TIP3    H1 6450   0.921   1.672   2.781 -0.3634 -0.6320 -0.6637
 2148TIP3    H2 6451   1.005   1.695   2.658  2.0563 -0.7648  0.8937
 2149TIP3   OH2 6452   0.520   2.350   1.383  0.1286  0.3597 -0.5981
 2149TIP3    H1 6453   0.461   2.407   1.433 -0.7030 -0.5953 -0.4388
 2149TIP3    H2 6454   0.472   2.332   1.302 -0.3017 -1.2428 -0.0397
 2150TIP3   OH2 6455   1.586   5.452   2.464  0.5676 -0.1372 -0.6353
 2150TIP3    H1 6456   1.514   5.513   2.451 -0.8250 -1.7186 -0.7193
 2150TIP3    H2 6457   1.571   5.383   2.398  0.2454 -2.1776  1.4412
 2151TIP3   OH2 6458   2.600   2.268   1.938  0.3105 -0.3734 -0.3249
 2151TIP3    H1 6459   2.588   2.246   2.031 -0.2680 -1.0844 -0.5513
 2151TIP3    H2 6460   2.528   2.223   1.894  1.3515 -1.1711 -1.2824
 2152TIP3   OH2 6461   1.738   3.002   4.858 -0.0250  0.2401  0.5165
 2152TIP3    H1 6462   1.801   3.017   4.787  0.9183 -1.2043  1.0140
 2152TIP3    H2 6463   1.654   3.030   4.821  0.6901  1.0304 -0.5994
 2153TIP3   OH2 6464  -0.010   5.955   1.020 -0.3416  0.0182 -0.4553
 2153TIP3    H1 6465  -0.016   5.868   0.982  0.7336 -0.3214  0.1094
 2153TIP3    H2 6466   0.084   5.970   1.031 -0.5392  0.9902  0.0371
 2154TIP3   OH2 6467   0.041   1.337   0.107 -0.1249 -0.2135 -0.0008
 2154TIP3    H1 6468   0.125   1.294   0.094 -0.5120 -0.7658 -0.7270
 2154TIP3    H2 6469   0.013   1.364   0.020 -0.4036  0.5491  0.3107
 2155TIP3   OH2 6470   3.097   5.812   1.362 -0.4023  0.5524  0.6179
 2155TIP3    H1 6471   3.187   5.804   1.391 -0.3138 -0.2603  0.1512
 2155TIP3    H2 6472   3.058   5.726   1.379 -1.3008  1.1123  1.5112
 2156TIP3   OH2 6473   3.482   1.120   0.694  0.5174  0.1446  0.0964
 2156TIP3    H1 6474   3.532   1.116   0.775 -1.3559 -0.1633  1.3018
 2156TIP3    H2 6475   3.457   1.213   0.686  0.3835  0.1080  0.0856
 2157TIP3   OH2 6476   0.390   0.274   1.538  0.4212  0.0092  0.0419
 2157TIP3    H1 6477   0.449   0.207   1.573  1.0728  0.8714  0.6594
 2157TIP3    H2 6478   0.354   0.235   1.458  1.4310 -0.7517 -0.0718
 2158TIP3   OH2 6479   1.715   4.519   1.918  0.1491  0.2224 -0.3040
 2158TIP3    H1 6480   1.713   4.614   1.930  1.3404  0.0666  1.4454
 2158TIP3    H2 6481   1.740   4.484   2.003 -0.6834 -1.7109 -0.7959
 2159TIP3   OH2 6482   3.492   5.982   0.518  0.2776  0.3581 -0.3253
 2159TIP3    H1 6483   3.579   5.990   0.558 -0.6831 -0.1499  2.0076
 2159TIP3    H2 6484   3.454   5.905   0.560 -1.5570  0.9864 -0.7851
 2160TIP3   OH2 6485   0.728   5.096   1.448 -0.1486  0.4049  0.3354
 2160TIP3    H1 6486   0.752   5.139   1.366  0.7093  1.1662  0.9545
 2160TIP3    H2 6487   0.637   5.069   1.436  0.7165 -1.9281 -1.8580
 2161TIP3   OH2 6488   3.094   2.194   3.217 -0.3901 -0.4040 -0.4088
 2161TIP3    H1 6489   3.065   2.103   3.210 -1.8610  0.0070 -0.0741
 2161TIP3    H2 6490   3.163   2.192   3.283  0.3100 -1.4174 -1.1457
 2162TIP3   OH2 6491   0.554   4.861   3.519  0.6251  1.0838 -0.4406
 2162TIP3    H1 6492   0.519   4.870   3.431  0.9472 -3.8574 -1.3946
 2162TIP3    H2 6493   0.477   4.857   3.576  0.3166  2.0894 -0.7743
 2163TIP3   OH2 6494   1.330   2.531   3.234  0.1487  0.1225  0.5276
 2163TIP3    H1 6495   1.325   2.464   3.165  1.1975 -0.4328  0.9664
 2163TIP3    H2 6496   1.246   2.523   3.281 -0.8955  1.0223 -1.1074
 2164TIP3   OH2 6497   2.881   1.352   1.654  0.1470  0.0588  0.0437
 2164TIP3    H1 6498   2.942   1.409   1.608 -0.5877 -0.5881 -1.8583
 2164TIP3    H2 6499   2.928   1.269   1.664  0.0535 -0.0263 -0.2136
 2165TIP3   OH2 6500   4.307   3.893   2.777  0.1782 -0.0608  0.3889
 2165TIP3    H1 6501   4.343   3.813   2.815 -1.6404 -0.9257  0.3917
 2165TIP3    H2 6502   4.375   3.959   2.791  1.1636 -1.2828  1.6006
 2166TIP3   OH2 6503   4.914   3.485   0.890  0.1639 -0.1161  0.0391
 2166TIP3    H1 6504   4.827   3.449   0.903 -0.3110  0.9158 -0.1300
 2166TIP3    H2 6505   4.903   3.551   0.821  0.3281  2.4578  2.2747
 2167TIP3   OH2 6506   3.727   5.730   4.867 -0.4321  0.1183 -0.8219
 2167TIP3    H1 6507   3.714   5.700   4.777 -0.4950 -0.2480 -0.6918
 2167TIP3    H2 6508   3.650   5.785   4.886 -1.1197 -0.9260 -0.5214
 2168TIP3   OH2 6509   1.845   0.058   4.446 -0.2713 -0.4233  0.5445
 2168TIP3    H1 6510   1.772   0.107   4.408  1.1471  0.5221 -1.0799
 2168TIP3    H2 6511   1.900   0.124   4.487  0.3858 -0.9481  0.5273
 2169TIP3   OH2 6512   5.561   2.483   1.135 -0.0423  0.1089  0.4620
 2169TIP3    H1 6513   5.473   2.445   1.129 -0.7655  1.6967  0.4811
 2169TIP3    H2 6514   5.589   2.492   1.044 -1.0992  2.1860  0.2965
 2170TIP3   OH2 6515   5.805   3.428   5.069 -0.1066 -0.3500 -0.1676
 2170TIP3    H1 6516   5.828   3.377   4.991 -0.0707 -1.2993  0.4533
 2170TIP3    H2 6517   5.882   3.423   5.125 -0.3372 -0.1400  0.1744
 2171TIP3   OH2 6518   3.791   1.904   2.080  0.2975 -0.3125  0.2455
 2171TIP3    H1 6519   3.791   1.826   2.025  1.3744 -0.1876  0.0496
 2171TIP3    H2 6520   3.786   1.871   2.170 -1.5425 -0.5159  0.1126
 2172TIP3   OH2 6521   0.545   1.048   2.632  0.1214 -0.5081 -0.0941
 2172TIP3    H1 6522   0.528   1.142   2.628  1.0253 -0.3718 -1.1809
 2172TIP3    H2 6523   0.577   1.033   2.721  0.0465  0.2268  0.0651
 2173TIP3   OH2 6524   2.457   3.391   4.846 -0.0204  0.1189 -0.0324
 2173TIP3    H1 6525   2.379   3.408   4.793  0.6711  0.5061 -0.9704
 2173TIP3    H2 6526   2.494   3.312   4.808  0.3472  0.2621  0.0277
 2174TIP3   OH2 6527   5.931   1.392   3.983 -0.1077 -0.2202  0.1045
 2174TIP3    H1 6528   5.915   1.381   3.890  0.3103 -0.3377  0.0443
 2174TIP3    H2 6529   5.854   1.353   4.026 -0.2522 -0.2550 -0.1850
 2175TIP3   OH2 6530   1.575   2.138   3.081  0.3641  0.1897 -0.2299
 2175TIP3    H1 6531   1.592   2.232   3.068  0.0235  0.1875 -0.7016
 2175TIP3    H2 6532   1.557   2.131   3.175  1.2272  0.4571 -0.0289
 2176TIP3   OH2 6533   2.914   5.989   0.305  0.3164  0.2149 -0.8152
 2176TIP3    H1 6534   2.919   5.905   0.258 -0.3300 -0.2485 -0.0780
 2176TIP3    H2 6535   2.995   6.034   0.281  0.9447 -0.8549 -0.8042
 2177TIP3   OH2 6536   2.321   0.377   4.958  0.2089 -0.1501 -0.5102
 2177TIP3    H1 6537   2.414   0.357   4.952  0.2370  0.2076 -1.5753
 2177TIP3    H2 6538   2.317   0.461   5.004  0.5799  0.8992 -2.3183
 2178TIP3   OH2 6539   0.841   0.307   2.898  0.3156  0.4394  0.3967
 2178TIP3    H1 6540   0.763   0.265   2.862 -0.5157  3.2167 -1.3680
 2178TIP3    H2 6541   0.809   0.351   2.977  0.4349  0.4267  0.4515
 2179TIP3   OH2 6542   0.548   1.760   3.427 -0.0736 -0.3699  0.1316
 2179TIP3    H1 6543   0.545   1.671   3.392 -2.3270 -0.3564  0.1368
 2179TIP3    H2 6544   0.561   1.748   3.521 -0.7492 -0.7445  0.1876
 2180TIP3   OH2 6545   0.865   1.587   1.171 -0.5961  0.7303 -0.4720
 2180TIP3    H1 6546   0.808   1.615   1.243 -0.7057  0.6590 -0.5305
 2180TIP3    H2 6547   0.941   1.548   1.214 -0.5041  0.9971 -0.3917
 2181TIP3   OH2 6548   0.555   1.698   3.703  0.1861 -0.2581  0.1028
 2181TIP3    H1 6549   0.600   1.613   3.705 -0.4946 -0.6443 -0.5328
 2181TIP3    H2 6550   0.463   1.676   3.714  0.0520  0.4460  0.4226
 2182TIP3   OH2 6551   4.173   1.256   2.040 -0.0031 -0.0501  0.1834
 2182TIP3    H1 6552   4.108   1.231   1.975  0.2554  0.7744 -0.4110
 2182TIP3    H2 6553   4.190   1.349   2.023 -0.3710  0.3511  1.8045
 2183TIP3   OH2 6554   6.273   2.550   3.300  0.2709 -0.1656 -0.0152
 2183TIP3    H1 6555   6.318   2.544   3.384  0.0206 -0.9018  0.0687
 2183TIP3    H2 6556   6.233   2.465   3.288 -0.9481  0.4144 -0.1888
 2184TIP3   OH2 6557   2.496   0.379   4.003  0.1056  0.1479 -0.2026
 2184TIP3    H1 6558   2.533   0.462   4.032  1.8708 -1.1764  1.6823
 2184TIP3    H2 6559   2.447   0.347   4.079 -1.0089 -0.2934 -1.0798
 2185TIP3   OH2 6560   2.937   2.350   4.130  0.1856  0.0491 -0.2747
 2185TIP3    H1 6561   2.972   2.313   4.211 -0.5357 -0.1866 -0.0584
 2185TIP3    H2 6562   2.957   2.443   4.135  0.3232  0.0009  0.0821
 2186TIP3   OH2 6563   0.674   2.466   3.828 -0.3395  0.1101  0.1348
 2186TIP3    H1 6564   0.595   2.504   3.790 -0.1418  0.5603  0.1675
 2186TIP3    H2 6565   0.652   2.373   3.841 -0.0061 -0.3277 -2.1669
 2187TIP3   OH2 6566   4.747   0.484   3.235  0.0993  0.1917 -0.1688
 2187TIP3    H1 6567   4.804   0.557   3.209  0.6689  0.5866  1.9937
 2187TIP3    H2 6568   4.765   0.416   3.171  0.8865  1.3196 -1.2059
 2188TIP3   OH2 6569   0.896   1.423   0.932 -0.1648 -0.2313  0.1516
 2188TIP3    H1 6570   0.929   1.485   0.997 -0.3222 -0.5043  0.4963
 2188TIP3    H2 6571   0.904   1.470   0.848  1.0873 -0.2915  0.2189
 2189TIP3   OH2 6572   6.009   3.057   0.675  0.3055 -0.4550  0.6913
 2189TIP3    H1 6573   6.092   3.077   0.720 -0.3479  0.7787  1.3908
 2189TIP3    H2 6574   5.945   3.115   0.716 -1.2046 -2.3305  1.0941
 2190TIP3   OH2 6575   0.604   2.792   0.545 -0.5076  0.2402  0.7498
 2190TIP3    H1 6576   0.669   2.726   0.569 -0.6659  0.1017  0.7990
 2190TIP3    H2 6577   0.524   2.742   0.529 -0.2783  0.2571 -0.6058
 2191TIP3   OH2 6578   1.318   2.156   0.469 -0.2750  0.0880 -0.1674
 2191TIP3    H1 6579   1.373   2.235   0.460  0.2906 -0.4576 -1.7206
 2191TIP3    H2 6580   1.229   2.190   0.477  0.1046  0.9302  0.7416
 2192TIP3   OH2 6581   5.040   0.846   1.587 -0.3450  0.0929  0.6278
 2192TIP3    H1 6582   5.045   0.809   1.675 -0.2648 -0.8708  0.2353
 2192TIP3    H2 6583   5.056   0.940   1.599 -0.4367 -0.0113  1.6444
 2193TIP3   OH2 6584   2.630   4.932   1.827 -0.2949  0.8212  0.2445
 2193TIP3    H1 6585   2.674   4.936   1.912 -3.3310 -1.3033  2.1158
 2193TIP3    H2 6586   2.634   4.839   1.802 -0.1115  1.2831 -1.6296
 2194TIP3   OH2 6587   5.811   1.165   0.233 -0.1854  0.0264  0.0116
 2194TIP3    H1 6588   5.882   1.126   0.181 -0.0874  0.0548  0.1262
 2194TIP3    H2 6589   5.852   1.236   0.281 -0.6529  1.3194 -1.3866
 2195TIP3   OH2 6590   5.485   0.700   4.711  1.0658  0.3108  0.2793
 2195TIP3    H1 6591   5.520   0.619   4.676 -0.2716 -0.6856  1.1525
 2195TIP3    H2 6592   5.412   0.722   4.654 -0.7370 -0.9958  1.9308
 2196TIP3   OH2 6593   3.239   1.269   1.459  0.3485 -0.5237  0.4013
 2196TIP3    H1 6594   3.196   1.184   1.467 -1.4177  0.2622 -0.2479
 2196TIP3    H2 6595   3.323   1.249   1.418 -0.6996 -1.8242 -1.2710
 2197TIP3   OH2 6596   5.706   5.979   0.258  0.5540  0.2088 -0.2526
 2197TIP3    H1 6597   5.780   5.941   0.210  1.5858 -2.4582  3.0687
 2197TIP3    H2 6598   5.630   5.958   0.204  1.6562 -2.3742 -0.9736
 2198TIP3   OH2 6599   5.578   3.851   4.970 -0.6179  0.2064 -0.2142
 2198TIP3    H1 6600   5.504   3.791   4.979 -0.4855  0.2364  1.5111
 2198TIP3    H2 6601   5.551   3.914   4.903 -1.8460 -0.2120 -0.1336
 2199TIP3   OH2 6602   4.184   0.439   2.657 -0.1473 -0.2762 -0.7494
 2199TIP3    H1 6603   4.256   0.497   2.683 -0.7415  0.2777 -0.2947
 2199TIP3    H2 6604   4.226   0.355   2.639  0.6168  0.0471 -0.5185
 2200TIP3   OH2 6605   0.112   3.204   1.122 -0.2630 -0.1976  0.4933
 2200TIP3    H1 6606   0.106   3.280   1.180 -0.9604  0.5554 -0.5464
 2200TIP3    H2 6607   0.025   3.165   1.125  0.2246 -1.2731  1.4130
 2201TIP3   OH2 6608   0.699   4.919   3.202  0.7835  0.1834  0.4636
 2201TIP3    H1 6609   0.717   4.947   3.113  1.0733  0.6128  0.6521
 2201TIP3    H2 6610   0.606   4.938   3.215  1.1317  1.7712  0.8255
 2202TIP3   OH2 6611   2.128   4.661   1.676  0.1503  0.7792  0.2222
 2202TIP3    H1 6612   2.034   4.676   1.673  0.0503  0.2878  0.7779
 2202TIP3    H2 6613   2.167   4.746   1.652 -0.4216  1.1754  0.6801
 2203TIP3   OH2 6614   0.844   2.249   5.111  0.7286 -0.2152 -0.2299
 2203TIP3    H1 6615   0.782   2.309   5.069 -0.2013  0.0080  1.3679
 2203TIP3    H2 6616   0.930   2.277   5.078  0.1995  1.0951 -0.5914
 2204TIP3   OH2 6617   0.178   4.517   5.023 -0.1657 -0.1219 -0.4602
 2204TIP3    H1 6618   0.137   4.449   4.969 -0.8703  0.0907 -0.2087
 2204TIP3    H2 6619   0.107   4.580   5.040 -0.6061 -1.2738  2.5622
 2205TIP3   OH2 6620   1.198   3.403   4.098  0.2457 -0.3119 -0.5607
 2205TIP3    H1 6621   1.247   3.426   4.177  0.6840 -0.8507 -0.6696
 2205TIP3    H2 6622   1.204   3.481   4.043  0.0576  0.0164 -0.1254
 2206TIP3   OH2 6623   0.016   2.483   0.220 -0.2893 -0.4395 -0.0573
 2206TIP3    H1 6624   0.100   2.469   0.176  0.2864 -0.0717  0.8978
 2206TIP3    H2 6625   0.029   2.563   0.271 -1.2599 -0.3217  0.0244
 2207TIP3   OH2 6626   0.914   1.229   4.546 -0.1203 -0.8903  0.3867
 2207TIP3    H1 6627   0.951   1.245   4.633 -2.2465  0.8613  1.0841
 2207TIP3    H2 6628   0.824   1.261   4.553 -1.0997 -2.9027 -1.8011
 2208TIP3   OH2 6629   1.820   5.037   4.664  0.4410  0.0801  0.1079
 2208TIP3    H1 6630   1.911   5.066   4.677  0.9801 -1.4625  0.0257
 2208TIP3    H2 6631   1.776   5.113   4.627  1.2230  1.4922  1.8646
 2209TIP3   OH2 6632   2.417   1.631   4.378  0.5031  0.1390  0.8289
 2209TIP3    H1 6633   2.458   1.633   4.291 -1.7804 -1.6698 -0.4188
 2209TIP3    H2 6634   2.364   1.710   4.381 -0.9134 -0.6992 -0.3279
 2210TIP3   OH2 6635   5.603   0.814   2.513  0.4663 -0.7894 -0.4948
 2210TIP3    H1 6636   5.584   0.726   2.545 -1.0409 -0.9715 -1.7484
 2210TIP3    H2 6637   5.682   0.803   2.460  0.6450 -1.2648 -0.1404
 2211TIP3   OH2 6638   5.678   2.194   2.934  0.1377  0.0651 -0.1106
 2211TIP3    H1 6639   5.734   2.136   2.883 -1.9843 -1.0591 -1.3272
 2211TIP3    H2 6640   5.607   2.137   2.964 -0.2186  1.3514  1.6114
 2212TIP3   OH2 6641   5.273   1.664   4.552 -0.2972 -0.2014  0.2904
 2212TIP3    H1 6642   5.356   1.628   4.521 -0.2313  0.0296  0.1933
 2212TIP3    H2 6643   5.236   1.708   4.475  0.7692  2.0488  0.9540
 2213TIP3   OH2 6644   2.477   4.964   2.699 -0.1581 -0.1127  0.0032
 2213TIP3    H1 6645   2.446   5.013   2.623  0.4968  1.5989  0.7885
 2213TIP3    H2 6646   2.546   4.908   2.665 -1.2812 -0.9373 -1.0178
 2214TIP3   OH2 6647   5.093   4.489   2.401 -0.2027 -0.2219 -0.2831
 2214TIP3    H1 6648   5.170   4.472   2.347  0.5046  1.4303  0.1370
 2214TIP3    H2 6649   5.100   4.581   2.425 -1.9214 -0.2267  0.4107
 2215TIP3   OH2 6650   5.774   0.539   2.561  0.8044 -0.1504  0.2348
 2215TIP3    H1 6651   5.680   0.529   2.576  0.1259 -1.6271 -3.7795
 2215TIP3    H2 6652   5.810   0.451   2.576  1.2347 -0.0009  0.0919
 2216TIP3   OH2 6653   3.533   2.336   2.162  0.3406 -0.4180  0.1214
 2216TIP3    H1 6654   3.451   2.349   2.114  0.4743  0.5023  0.1135
 2216TIP3    H2 6655   3.550   2.242   2.156 -1.8846 -1.0406  2.0080
 2217TIP3   OH2 6656   3.097   2.957   3.692  0.5537 -0.2111 -0.2785
 2217TIP3    H1 6657   3.153   2.881   3.684 -0.4735 -1.2073  1.3794
 2217TIP3    H2 6658   3.155   3.027   3.723  1.4656 -0.3311 -1.6605
 2218TIP3   OH2 6659   5.392   1.721   1.541  0.2459  0.3430  0.0380
 2218TIP3    H1 6660   5.354   1.768   1.467  1.2421  2.4645  0.7988
 2218TIP3    H2 6661   5.331   1.650   1.558 -1.4820  1.5021 -1.0231
 2219TIP3   OH2 6662   4.329   5.788   1.359  0.3016 -0.0097  0.3271
 2219TIP3    H1 6663   4.364   5.872   1.388  0.2687  0.4410 -0.8970
 2219TIP3    H2 6664   4.397   5.725   1.383  0.9778  0.5630 -0.0382
 2220TIP3   OH2 6665   0.745   0.358   0.962 -1.1307  0.0094  0.3730
 2220TIP3    H1 6666   0.675   0.389   0.904 -2.2887 -2.2502  0.4360
 2220TIP3    H2 6667   0.710   0.278   1.000  1.6340 -1.4085  0.1713
 2221TIP3   OH2 6668   5.861   1.641   2.161 -0.4896  0.1872 -0.2463
 2221TIP3    H1 6669   5.883   1.718   2.213  1.2195 -0.5186  0.1563
 2221TIP3    H2 6670   5.856   1.570   2.224  1.7206 -0.7007 -0.9638
 2222TIP3   OH2 6671   1.201   2.071   2.955  0.2975  0.0633 -0.0918
 2222TIP3    H1 6672   1.125   2.111   2.998  0.3481  1.1748 -0.9727
 2222TIP3    H2 6673   1.176   2.065   2.863  1.3072  0.5353 -0.4122
 2223TIP3   OH2 6674   4.084   5.103   3.148 -0.0554  0.0801  0.7010
 2223TIP3    H1 6675   4.174   5.071   3.145  0.7946  2.3906 -0.3431
 2223TIP3    H2 6676   4.031   5.027   3.123  1.8629 -0.5314 -1.8992
 2224TIP3   OH2 6677   3.786   1.736   3.176  1.0954 -0.2811  0.0201
 2224TIP3    H1 6678   3.731   1.758   3.100  1.9492  0.7262 -0.3407
 2224TIP3    H2 6679   3.757   1.795   3.245  0.4101 -1.1052  0.4504
 2225TIP3   OH2 6680   3.506   4.907   3.355  0.4441  0.5180 -0.0347
 2225TIP3    H1 6681   3.476   4.816   3.354 -2.8512  1.4947 -0.1788
 2225TIP3    H2 6682   3.503   4.932   3.447 -0.3919  0.9618 -0.1731
 2226TIP3   OH2 6683   1.246   2.627   1.507  0.0547 -0.0048  0.4819
 2226TIP3    H1 6684   1.165   2.673   1.528 -0.4638 -0.4183 -0.5678
 2226TIP3    H2 6685   1.312   2.671   1.561 -0.7709  0.6660  0.9766
 2227TIP3   OH2 6686   2.551   3.820   1.102  0.1428  0.1716  0.3137
 2227TIP3    H1 6687   2.499   3.751   1.061  2.1454 -1.5898  0.6210
 2227TIP3    H2 6688   2.514   3.828   1.190  0.2060 -0.8691  0.4426
 2228TIP3   OH2 6689   4.837   4.877   0.314 -0.0621  0.5228 -0.2710
 2228TIP3    H1 6690   4.753   4.869   0.358 -1.0265  2.0576 -1.6646
 2228TIP3    H2 6691   4.875   4.959   0.348  0.3069  0.4511 -0.4950
 2229TIP3   OH2 6692   4.430   3.765   0.141  0.0858 -0.4154 -0.4526
 2229TIP3    H1 6693   4.374   3.757   0.219  0.6876 -1.1835 -0.0897
 2229TIP3    H2 6694   4.384   3.827   0.085 -1.1455 -1.0465 -0.1687
 2230TIP3   OH2 6695   4.929   3.721   2.492  0.2924 -0.4184  0.0764
 2230TIP3    H1 6696   4.860   3.735   2.557 -0.3785 -1.7978 -0.3095
 2230TIP3    H2 6697   5.004   3.690   2.543  0.4137  0.3781  0.4051
 2231TIP3   OH2 6698   2.144   1.737   2.673 -0.4639 -0.3067 -0.8203
 2231TIP3    H1 6699   2.096   1.667   2.717  1.8828 -1.4455  0.1304
 2231TIP3    H2 6700   2.226   1.744   2.722 -0.2588  2.6091 -1.3767
 2232TIP3   OH2 6701   0.256   0.321   2.628 -0.2469  0.5794 -1.2147
 2232TIP3    H1 6702   0.328   0.374   2.664 -0.3598 -0.7645  1.2427
 2232TIP3    H2 6703   0.291   0.232   2.626 -1.7769 -0.1014  0.0430
 2233TIP3   OH2 6704   3.180   5.087   4.190  0.3698 -0.3621  0.4761
 2233TIP3    H1 6705   3.128   5.016   4.229  0.7307 -1.9090 -1.6652
 2233TIP3    H2 6706   3.268   5.074   4.226 -0.0026  0.3435  1.7037
 2234TIP3   OH2 6707   2.448   4.883   0.866  0.3549 -0.1737  0.6257
 2234TIP3    H1 6708   2.408   4.798   0.884 -1.6817  0.6924  0.4655
 2234TIP3    H2 6709   2.536   4.862   0.835 -0.3464 -2.2663 -0.1362
 2235TIP3   OH2 6710   2.530   1.082   0.692  0.5045  0.3596 -0.3324
 2235TIP3    H1 6711   2.530   1.152   0.758 -1.3705  1.4463 -1.4111
 2235TIP3    H2 6712   2.469   1.017   0.725  1.4216 -0.2867  0.1408
 2236TIP3   OH2 6713   2.588   5.827   0.936 -0.1132 -0.6633 -0.5574
 2236TIP3    H1 6714   2.507   5.831   0.885 -1.3944  0.1468  1.4077
 2236TIP3    H2 6715   2.609   5.919   0.954  0.2960 -0.9275  0.3741
 2237TIP3   OH2 6716   0.719   5.614   0.635 -0.1728 -0.5207  0.4754
 2237TIP3    H1 6717   0.761   5.618   0.721  1.1116 -0.1000 -0.1468
 2237TIP3    H2 6718   0.641   5.670   0.644  0.4567  0.2840  1.1042
 2238TIP3   OH2 6719   3.526   4.926   3.943  0.2190 -0.0183 -0.6303
 2238TIP3    H1 6720   3.571   5.011   3.938 -0.1253  0.2357  0.4864
 2238TIP3    H2 6721   3.585   4.866   3.897  0.4349  0.8233 -1.5015
 2239TIP3   OH2 6722   6.093   1.919   2.426 -0.2152  0.3095 -0.1375
 2239TIP3    H1 6723   6.120   1.898   2.515 -2.2279  2.5254  1.0810
 2239TIP3    H2 6724   6.000   1.897   2.423 -0.4393  1.3249 -1.3473
 2240TIP3   OH2 6725   0.442   2.800   3.881 -0.3168  0.0015  0.1386
 2240TIP3    H1 6726   0.461   2.732   3.816  0.4289 -0.4347  0.7910
 2240TIP3    H2 6727   0.375   2.762   3.937 -0.6452  0.2101 -0.1080
 2241TIP3   OH2 6728   4.391   1.066   3.030  0.4534 -0.1429 -0.4026
 2241TIP3    H1 6729   4.432   1.096   3.111  0.7959 -0.9374 -0.2733
 2241TIP3    H2 6730   4.393   1.142   2.972  1.0989  0.1470 -0.0075
 2242TIP3   OH2 6731   1.028   1.122   1.756 -0.4174  0.1772  0.5799
 2242TIP3    H1 6732   0.959   1.142   1.693 -0.6247 -0.4108  0.6168
 2242TIP3    H2 6733   1.067   1.207   1.777 -1.1644  0.5218  0.6008
 2243TIP3   OH2 6734   2.432   3.980   0.371  0.1509 -0.0969  0.7836
 2243TIP3    H1 6735   2.364   4.011   0.431 -0.7814 -0.1696 -0.2045
 2243TIP3    H2 6736   2.415   3.886   0.362  1.4534 -0.4575  1.8604
 2244TIP3   OH2 6737   2.830   1.729   5.106  0.1859  0.1151 -0.2959
 2244TIP3    H1 6738   2.897   1.791   5.077 -0.2993  0.1104 -1.4862
 2244TIP3    H2 6739   2.869   1.643   5.091 -0.2085  0.1066 -1.3404
 2245TIP3   OH2 6740   0.241   3.442   4.693 -0.3604  0.8336 -0.1045
 2245TIP3    H1 6741   0.282   3.438   4.606  2.3728 -0.5090  1.1134
 2245TIP3    H2 6742   0.213   3.352   4.710 -0.1141  0.9084  0.7247
 2246TIP3   OH2 6743   4.093   0.567   3.718 -0.0730  0.0147  0.1676
 2246TIP3    H1 6744   4.102   0.662   3.723  1.1318 -0.0840  0.1214
 2246TIP3    H2 6745   4.116   0.545   3.628  0.7483 -0.4174  0.4718
 2247TIP3   OH2 6746   4.205   5.857   4.708  0.2470  0.3057 -0.5119
 2247TIP3    H1 6747   4.205   5.763   4.691  0.0047  0.3242 -0.6186
 2247TIP3    H2 6748   4.241   5.866   4.796 -2.5902 -0.1251  0.8045
 2248TIP3   OH2 6749   1.175   5.430   3.000 -0.1523 -0.0952  0.3510
 2248TIP3    H1 6750   1.139   5.372   3.066 -0.5703 -0.2874 -0.0418
 2248TIP3    H2 6751   1.249   5.381   2.962  1.2674  0.7335  1.9167
 2249TIP3   OH2 6752   2.771   2.722   4.413 -0.2826  0.2398 -0.4620
 2249TIP3    H1 6753   2.774   2.627   4.415  1.1932  0.2578 -1.0635
 2249TIP3    H2 6754   2.858   2.750   4.440  0.2028  1.3628 -2.9232
 2250TIP3   OH2 6755   4.689   1.659   4.806 -0.2006  0.2602 -0.7203
 2250TIP3    H1 6756   4.709   1.749   4.781 -1.5488  0.7881 -0.0187
 2250TIP3    H2 6757   4.608   1.639   4.761  0.4089 -0.8539 -1.3707
 2251TIP3   OH2 6758   0.992   4.528   2.373 -0.1738 -0.0853  0.2798
 2251TIP3    H1 6759   0.971   4.617   2.399 -0.6342 -0.6265  1.9371
 2251TIP3    H2 6760   0.924   4.474   2.415  0.4885 -1.2654 -0.0999
 2252TIP3   OH2 6761   0.292   2.240   3.810 -0.0128 -0.0050  0.4082
 2252TIP3    H1 6762   0.263   2.273   3.895 -0.0008  1.5787 -0.1685
 2252TIP3    H2 6763   0.217   2.255   3.751 -0.5439 -2.3463  0.3858
 2253TIP3   OH2 6764   0.593   1.373   1.867 -0.3118  0.2723 -0.3073
 2253TIP3    H1 6765   0.622   1.436   1.800  0.5698 -1.9140 -2.1226
 2253TIP3    H2 6766   0.590   1.289   1.821  1.4685 -1.6121  2.6352
 2254TIP3   OH2 6767   2.357   1.284   5.061 -0.1135  0.2836 -0.0462
 2254TIP3    H1 6768   2.446   1.315   5.047  1.2393 -2.5578  1.4362
 2254TIP3    H2 6769   2.350   1.205   5.008 -1.8720  0.6233 -0.3718
 2255TIP3   OH2 6770   4.471   2.147   1.027  0.0865 -0.7623 -0.7422
 2255TIP3    H1 6771   4.556   2.186   1.049 -0.4164 -0.3907  0.6719
 2255TIP3    H2 6772   4.485   2.106   0.942  1.9306 -1.4505 -0.1597
 2256TIP3   OH2 6773   5.448   2.209   2.569  0.1549  0.5156 -0.2263
 2256TIP3    H1 6774   5.374   2.234   2.624  1.2511 -0.7671  1.9797
 2256TIP3    H2 6775   5.409   2.168   2.492 -1.4404  0.8025  0.3962
 2257TIP3   OH2 6776   2.723   3.038   2.612 -0.8710  0.1595 -0.5503
 2257TIP3    H1 6777   2.637   3.080   2.603 -1.1765 -0.2922  0.2169
 2257TIP3    H2 6778   2.733   2.988   2.531 -0.9376  0.9063 -1.0323
 2258TIP3   OH2 6779   2.879   2.995   2.189 -0.4041  0.2445 -0.2664
 2258TIP3    H1 6780   2.943   3.037   2.246 -1.4264  0.7539  0.5418
 2258TIP3    H2 6781   2.797   2.996   2.239 -0.9861 -0.6735 -1.1380
 2259TIP3   OH2 6782   3.848   2.886   2.390  0.1160 -0.2536  0.4570
 2259TIP3    H1 6783   3.876   2.833   2.315  0.4050  0.5036  0.0229
 2259TIP3    H2 6784   3.853   2.826   2.465  0.3865 -0.8540 -0.0349
 2260TIP3   OH2 6785   1.539   4.432   4.457 -0.5199  0.0483 -0.4352
 2260TIP3    H1 6786   1.535   4.337   4.440  0.8706  0.1047 -1.2759
 2260TIP3    H2 6787   1.498   4.472   4.380  0.1866  0.1472 -0.7714
 2261TIP3   OH2 6788   1.267   2.605   2.098  0.4957 -0.1693 -0.2473
 2261TIP3    H1 6789   1.322   2.570   2.168 -0.1653 -1.0294 -0.1436
 2261TIP3    H2 6790   1.178   2.577   2.121  0.4039 -1.4906 -2.0371
 2262TIP3   OH2 6791   5.373   3.549   4.646 -0.2074  0.0290 -0.0675
 2262TIP3    H1 6792   5.376   3.480   4.580 -0.0623  0.9869 -1.0806
 2262TIP3    H2 6793   5.459   3.544   4.689 -0.3396 -0.6615  0.1214
 2263TIP3   OH2 6794   1.304   3.416   4.337  0.6507  0.2279 -0.3820
 2263TIP3    H1 6795   1.307   3.358   4.413  2.7575  2.0543  1.0714
 2263TIP3    H2 6796   1.279   3.501   4.372 -0.0800  0.7508 -2.0593
 2264TIP3   OH2 6797   0.958   5.503   3.495  0.0752  0.3936 -0.1130
 2264TIP3    H1 6798   0.882   5.541   3.450  0.2355 -0.7889 -1.4266
 2264TIP3    H2 6799   0.949   5.409   3.482  1.4960  0.2069  0.1722
 2265TIP3   OH2 6800   2.385  -0.019   3.983 -0.3510  0.0544  0.1417
 2265TIP3    H1 6801   2.384  -0.009   3.888  2.2059  0.6440  0.0931
 2265TIP3    H2 6802   2.384   0.071   4.017 -0.7014 -0.1388  0.6545
 2266TIP3   OH2 6803   0.193   2.939   3.311  0.3787 -0.4135 -0.5223
 2266TIP3    H1 6804   0.125   2.962   3.374  1.5470  0.2674  0.5485
 2266TIP3    H2 6805   0.180   2.846   3.294 -0.1711 -0.5293  0.4899
 2267TIP3   OH2 6806   6.069   0.918   1.396  0.2451 -0.3108 -0.0532
 2267TIP3    H1 6807   6.094   0.826   1.395  0.8144 -0.1828  0.9385
 2267TIP3    H2 6808   6.149   0.964   1.422 -0.4284  0.3180  0.9848
 2268TIP3   OH2 6809   1.213   3.771   1.999 -0.2769 -0.1345  0.3757
 2268TIP3    H1 6810   1.295   3.820   1.990 -0.1851 -0.5366 -1.6531
 2268TIP3    H2 6811   1.144   3.834   1.980 -0.5337  0.3544  2.6888
 2269TIP3   OH2 6812   4.959   0.073   2.853  0.4689 -0.0137 -0.1256
 2269TIP3    H1 6813   4.979   0.015   2.927 -0.4470  2.0260  1.8500
 2269TIP3    H2 6814   5.028   0.139   2.854 -0.4670  0.9990  0.0262
 2270TIP3   OH2 6815   0.776   1.123   4.858  0.3002  0.0959 -0.5911
 2270TIP3    H1 6816   0.762   1.068   4.935 -1.0256  1.9676  0.5964
 2270TIP3    H2 6817   0.695   1.117   4.808  1.0971 -0.9839 -1.8174
 2271TIP3   OH2 6818   3.528   2.594   4.422  0.0389  0.6820 -0.0655
 2271TIP3    H1 6819   3.585   2.571   4.496  1.3634  0.8539 -1.0013
 2271TIP3    H2 6820   3.527   2.515   4.368 -0.1472  0.8777 -0.3488
 2272TIP3   OH2 6821   0.373   0.247   3.217  0.0570 -0.5948  0.0847
 2272TIP3    H1 6822   0.424   0.296   3.153  1.0128 -1.5958  0.0481
 2272TIP3    H2 6823   0.285   0.242   3.180  0.5727 -1.0740 -1.1164
 2273TIP3   OH2 6824   2.971   5.646   1.120 -0.0330 -0.0671  0.1436
 2273TIP3    H1 6825   2.932   5.717   1.069  0.2432 -0.6379 -0.8925
 2273TIP3    H2 6826   3.065   5.653   1.102 -0.1208 -1.4599 -1.0066
 2274TIP3   OH2 6827   5.202   3.945   2.584 -0.3263  0.0088 -0.3484
 2274TIP3    H1 6828   5.195   4.018   2.522  1.7002  0.4576 -0.1231
 2274TIP3    H2 6829   5.205   3.867   2.528 -0.4399  0.2621 -0.7157
 2275TIP3   OH2 6830   2.580   4.297   1.495  0.1138  0.4030 -0.3544
 2275TIP3    H1 6831   2.567   4.391   1.485 -0.5328  0.3074 -0.4041
 2275TIP3    H2 6832   2.502   4.257   1.457  0.2196 -0.1445 -0.0057
 2276TIP3   OH2 6833   2.918   4.323   4.894  0.7166  0.1326  0.3982
 2276TIP3    H1 6834   2.927   4.369   4.977 -0.0527 -1.5594  1.4718
 2276TIP3    H2 6835   2.966   4.241   4.906 -1.3921 -1.2280  0.1047
 2277TIP3   OH2 6836   5.880   4.386   3.857  0.2227  0.1304 -0.2515
 2277TIP3    H1 6837   5.827   4.322   3.905 -0.6484  0.1607 -1.1492
 2277TIP3    H2 6838   5.850   4.380   3.767  0.4727  1.4665 -0.4445
 2278TIP3   OH2 6839   6.207   0.101   0.192  0.3662 -0.0849  0.2953
 2278TIP3    H1 6840   6.208   0.033   0.259 -0.0430 -0.9510 -0.5580
 2278TIP3    H2 6841   6.123   0.145   0.203  1.2747  1.3807  1.8836
 2279TIP3   OH2 6842   2.870   4.432   1.871  0.5600 -0.1521  0.1380
 2279TIP3    H1 6843   2.926   4.362   1.838  2.1596  0.2424  1.8232
 2279TIP3    H2 6844   2.839   4.399   1.956 -0.3811  0.3472  0.0008
 2280TIP3   OH2 6845   0.231   3.060   2.773 -0.0307 -0.2605 -0.4713
 2280TIP3    H1 6846   0.223   2.972   2.736  1.1400 -1.0148  0.9754
 2280TIP3    H2 6847   0.149   3.073   2.821  0.0328 -0.7827 -0.2207
 2281TIP3   OH2 6848   4.649   4.032   1.072 -0.2041  0.1869 -0.3159
 2281TIP3    H1 6849   4.719   4.012   1.135  0.2956  0.5168 -0.7533
 2281TIP3    H2 6850   4.622   4.121   1.093  0.2956  0.4745 -0.8644
 2282TIP3   OH2 6851   1.817   0.505   1.712 -0.6982  0.1774  0.0915
 2282TIP3    H1 6852   1.747   0.504   1.777 -0.5986  0.7035  0.2047
 2282TIP3    H2 6853   1.856   0.592   1.718 -0.6869  0.2368 -0.6682
 2283TIP3   OH2 6854   1.156   3.035   4.322  0.4540 -0.2165 -0.5447
 2283TIP3    H1 6855   1.241   3.065   4.290  1.6986  0.8085  3.2012
 2283TIP3    H2 6856   1.175   2.953   4.368 -0.3698  0.5064  1.1451
 2284TIP3   OH2 6857   5.213   2.974   2.163  0.0744  0.0270  0.1526
 2284TIP3    H1 6858   5.271   2.899   2.152  0.1888  0.1882 -0.3491
 2284TIP3    H2 6859   5.251   3.042   2.108 -0.8391  0.0027 -0.5289
 2285TIP3   OH2 6860   5.945   0.969   1.113 -0.4941  0.0522 -1.0665
 2285TIP3    H1 6861   6.033   1.002   1.129  0.3702 -3.1420  2.1888
 2285TIP3    H2 6862   5.894   0.994   1.190 -1.2817 -1.4017 -1.0598
 2286TIP3   OH2 6863   2.439   4.673   3.592 -0.4150  0.4390  0.1001
 2286TIP3    H1 6864   2.393   4.639   3.668 -2.6610  1.4057 -0.7307
 2286TIP3    H2 6865   2.452   4.597   3.536  1.6734 -0.3704  1.5533
 2287TIP3   OH2 6866   5.699   3.812   1.037 -0.6097 -0.4481 -0.5615
 2287TIP3    H1 6867   5.737   3.761   0.965 -1.9923 -1.9271 -0.2996
 2287TIP3    H2 6868   5.775   3.840   1.088  0.4702  1.0825 -2.8087
 2288TIP3   OH2 6869   3.039   5.679   2.429 -0.0793 -0.2656 -0.3909
 2288TIP3    H1 6870   2.951   5.665   2.463  0.8172 -2.7241  1.2212
 2288TIP3    H2 6871   3.051   5.609   2.365  0.0195  1.3416 -2.2268
 2289TIP3   OH2 6872   1.822   5.446   3.405 -0.3667  0.4122  0.8350
 2289TIP3    H1 6873   1.738   5.401   3.392 -0.6032  0.9567  0.4207
 2289TIP3    H2 6874   1.848   5.424   3.494 -0.3663 -0.7153  0.5701
 2290TIP3   OH2 6875   1.348   1.217   2.914 -0.3707 -0.0475  0.5376
 2290TIP3    H1 6876   1.353   1.131   2.871 -1.4174  0.5279 -0.7945
 2290TIP3    H2 6877   1.415   1.270   2.870 -0.2786  0.0580  0.8030
 2291TIP3   OH2 6878   0.393   5.464   5.204 -0.4766 -0.2092 -0.2845
 2291TIP3    H1 6879   0.334   5.471   5.129 -1.5381  0.9309  0.5983
 2291TIP3    H2 6880   0.449   5.542   5.198  1.1355 -1.3802 -1.2221
 2292TIP3   OH2 6881   1.993   5.209   3.851  0.1907  0.1366  0.1806
 2292TIP3    H1 6882   1.974   5.162   3.932 -0.1214  1.0567  0.6580
 2292TIP3    H2 6883   1.955   5.296   3.864  2.7861  1.3487  0.2825
 2293TIP3   OH2 6884   0.577   0.410   4.384 -0.2803 -0.6880 -0.1797
 2293TIP3    H1 6885   0.572   0.462   4.304  0.3026  0.6282  0.6019
 2293TIP3    H2 6886   0.487   0.407   4.418 -0.3390 -0.3005 -0.3036
 2294TIP3   OH2 6887   2.759   3.327   0.453 -0.2630 -0.1090 -0.0562
 2294TIP3    H1 6888   2.782   3.370   0.371 -2.0000 -0.3939 -0.7400
 2294TIP3    H2 6889   2.843   3.310   0.496  0.5975  1.5089 -1.0047
 2295TIP3   OH2 6890   5.791   2.214   1.236  0.8895 -0.3299 -0.1808
 2295TIP3    H1 6891   5.876   2.196   1.277 -0.2571 -1.4078  1.8987
 2295TIP3    H2 6892   5.762   2.128   1.205  0.1556 -0.1387 -0.0266
 2296TIP3   OH2 6893   4.441   3.695   2.583  0.1989 -0.0914 -0.0377
 2296TIP3    H1 6894   4.360   3.738   2.557 -0.6102 -1.2812  0.4582
 2296TIP3    H2 6895   4.510   3.758   2.561 -0.8277  0.8144 -0.7310
 2297TIP3   OH2 6896   3.148   5.650   3.396  0.4885  0.4954  0.0093
 2297TIP3    H1 6897   3.181   5.716   3.334 -0.0767  0.7648 -0.0061
 2297TIP3    H2 6898   3.061   5.628   3.365  0.3029  0.4345  0.5553
 2298TIP3   OH2 6899   0.011   4.108   4.168 -0.0307  0.1716 -0.3579
 2298TIP3    H1 6900  -0.034   4.168   4.228  0.4105 -0.5035  0.6742
 2298TIP3    H2 6901   0.062   4.050   4.226 -0.1293 -0.9344 -1.3437
 2299TIP3   OH2 6902   0.510   2.635   1.838 -0.4731  0.1922 -0.7272
 2299TIP3    H1 6903   0.584   2.579   1.813 -0.2371  0.0704  0.1996
 2299TIP3    H2 6904   0.531   2.720   1.801 -0.4879 -0.1471 -1.5459
 2300TIP3   OH2 6905   3.716   2.686   5.126 -0.6862 -0.1301  0.5294
 2300TIP3    H1 6906   3.762   2.734   5.195 -2.6368  1.1549  1.0388
 2300TIP3    H2 6907   3.672   2.754   5.075  0.3461 -1.0908 -1.7578
 2301TIP3   OH2 6908   0.323   4.555   1.127 -0.6722 -0.3703 -0.3784
 2301TIP3    H1 6909   0.315   4.513   1.213  0.0930  0.5173  0.1422
 2301TIP3    H2 6910   0.357   4.642   1.146 -1.5651  0.2454 -1.5027
 2302TIP3   OH2 6911   0.211   4.945   2.487 -0.5498  0.5658  0.1129
 2302TIP3    H1 6912   0.123   4.979   2.467 -1.1806 -0.1214  1.5792
 2302TIP3    H2 6913   0.241   4.908   2.404 -1.4141  1.2837 -0.5547
 2303TIP3   OH2 6914   5.080   3.406   3.349 -0.3519  0.2352 -0.0422
 2303TIP3    H1 6915   5.055   3.429   3.260 -2.4128 -3.1637 -0.4999
 2303TIP3    H2 6916   4.998   3.410   3.399 -0.4101 -3.0281  0.3595
 2304TIP3   OH2 6917   0.183   0.159   3.791  1.0054 -0.3766 -0.0235
 2304TIP3    H1 6918   0.241   0.139   3.717  1.3398 -1.6352  0.5531
 2304TIP3    H2 6919   0.105   0.197   3.751  1.5112 -0.2895 -0.9510
 2305TIP3   OH2 6920   5.217   5.310   4.051 -0.4035 -0.1375 -0.6900
 2305TIP3    H1 6921   5.177   5.269   4.127  0.5060  0.1580 -0.0330
 2305TIP3    H2 6922   5.261   5.388   4.086  0.0784 -0.0283 -1.5107
 2306TIP3   OH2 6923   4.682   1.459   1.659  0.4050 -0.1341 -0.0957
 2306TIP3    H1 6924   4.612   1.399   1.633 -0.2485 -0.2611  1.8097
 2306TIP3    H2 6925   4.683   1.456   1.754  1.4194  1.6992  0.0087
 2307TIP3   OH2 6926   4.608   1.543   2.302 -0.0087  0.5870 -0.1624
 2307TIP3    H1 6927   4.513   1.533   2.295  0.1749 -1.2511 -0.3906
 2307TIP3    H2 6928   4.641   1.455   2.317  1.6617  1.2253  0.2034
 2308TIP3   OH2 6929   4.334   3.797   4.026 -0.0097 -0.6889 -0.4923
 2308TIP3    H1 6930   4.275   3.779   4.099 -0.1672 -1.6775 -0.8522
 2308TIP3    H2 6931   4.338   3.715   3.977  1.1645 -0.4545 -0.8323
 2309TIP3   OH2 6932   2.238   1.393   1.372  0.0874 -0.1709  0.4141
 2309TIP3    H1 6933   2.320   1.359   1.335  0.2464 -0.6650  1.1868
 2309TIP3    H2 6934   2.191   1.315   1.401 -0.1810  0.1804  0.9402
 2310TIP3   OH2 6935   3.225   4.324   3.972 -0.3107  0.3943  0.4409
 2310TIP3    H1 6936   3.292   4.281   4.025  1.8410  0.8419 -1.7411
 2310TIP3    H2 6937   3.187   4.390   4.029 -1.0115 -1.7693  2.6473
 2311TIP3   OH2 6938   0.159   2.276   2.063  0.2993  0.3313  0.3032
 2311TIP3    H1 6939   0.120   2.194   2.094  0.7019 -0.0228 -0.1075
 2311TIP3    H2 6940   0.143   2.276   1.969 -0.4732  1.1600  0.4187
 2312TIP3   OH2 6941   3.545   4.470   1.860  0.4653  0.4735  0.2965
 2312TIP3    H1 6942   3.627   4.466   1.910  2.5375  1.1958 -2.7293
 2312TIP3    H2 6943   3.551   4.397   1.799 -0.6653  1.1300 -0.6473
 2313TIP3   OH2 6944   1.312   2.303   0.856  0.5452 -0.5051  0.2177
 2313TIP3    H1 6945   1.269   2.378   0.896  1.0316  0.0162 -0.2160
 2313TIP3    H2 6946   1.308   2.321   0.762 -1.7090 -2.2964 -0.1229
 2314TIP3   OH2 6947   3.225   5.026   0.041 -0.3555  0.4164 -0.3008
 2314TIP3    H1 6948   3.308   5.062   0.010 -0.9355  0.4382 -1.9263
 2314TIP3    H2 6949   3.175   5.010  -0.039 -1.1891 -1.3839  0.5331
 2315TIP3   OH2 6950   6.094   3.411   5.097 -0.4191  0.1071  0.2613
 2315TIP3    H1 6951   6.104   3.384   5.006  1.0334  0.3320  0.3288
 2315TIP3    H2 6952   6.133   3.499   5.100 -0.1454 -0.0361  1.1619
 2316TIP3   OH2 6953   6.239   3.945   1.229  0.3479 -0.6396  0.1352
 2316TIP3    H1 6954   6.251   3.989   1.313 -0.9328  0.7502 -0.3661
 2316TIP3    H2 6955   6.145   3.935   1.221  0.4248 -0.4042 -1.2912
 2317TIP3   OH2 6956   3.863   0.379   2.171 -0.1735  0.2905 -0.5763
 2317TIP3    H1 6957   3.856   0.474   2.181 -0.4549  0.1893  0.3808
 2317TIP3    H2 6958   3.834   0.345   2.256 -0.6582 -0.6707 -1.1117
 2318TIP3   OH2 6959   0.302   5.210   4.877 -0.1481  0.0643 -0.0164
 2318TIP3    H1 6960   0.264   5.199   4.790 -2.0741  0.3360  0.7551
 2318TIP3    H2 6961   0.376   5.270   4.863  0.5163 -1.0650 -1.6716
 2319TIP3   OH2 6962   4.584   2.476   1.770  0.2006  0.1502  0.1302
 2319TIP3    H1 6963   4.524   2.470   1.696 -0.7791  0.6044  0.8763
 2319TIP3    H2 6964   4.652   2.537   1.741  0.7463 -0.9508 -1.0023
 2320TIP3   OH2 6965   5.451   2.418   0.170  0.3168 -0.5780 -0.1603
 2320TIP3    H1 6966   5.388   2.419   0.098 -0.7951 -0.0154  0.7892
 2320TIP3    H2 6967   5.404   2.380   0.244  1.5512 -1.4880  0.1959
 2321TIP3   OH2 6968   5.538   0.454   4.618 -0.1166 -0.6780 -0.1142
 2321TIP3    H1 6969   5.549   0.362   4.593 -0.4989 -1.7709  3.2443
 2321TIP3    H2 6970   5.626   0.489   4.625  0.1136 -1.3086  0.1953
 2322TIP3   OH2 6971   3.240   1.027   3.407 -0.8040  0.0278  0.6806
 2322TIP3    H1 6972   3.208   1.109   3.370  2.3305  1.1689  0.1807
 2322TIP3    H2 6973   3.294   1.053   3.481 -2.9814 -1.9461  3.1570
 2323TIP3   OH2 6974   5.843   2.803   2.740  0.2545  0.0351  0.6881
 2323TIP3    H1 6975   5.774   2.842   2.686  1.7468  0.7696 -0.7916
 2323TIP3    H2 6976   5.818   2.824   2.830 -1.9993 -0.6814  0.2914
 2324TIP3   OH2 6977   3.393   0.497   2.528  0.1105  0.2957 -0.1338
 2324TIP3    H1 6978   3.373   0.574   2.582 -0.1614 -0.4505  0.8427
 2324TIP3    H2 6979   3.412   0.534   2.441 -2.8622  1.3131 -0.4911
 2325TIP3   OH2 6980   3.078   0.075   2.607 -0.2658  0.1550 -0.2821
 2325TIP3    H1 6981   3.032   0.158   2.594 -0.3104  0.8643  3.4790
 2325TIP3    H2 6982   3.021   0.024   2.663  0.6871 -1.6380 -0.8606
 2326TIP3   OH2 6983   4.038   4.030   2.312 -0.2542 -0.4681 -0.4707
 2326TIP3    H1 6984   4.050   3.963   2.245  0.2484 -1.0889  0.2291
 2326TIP3    H2 6985   3.997   3.984   2.385 -1.4761  0.3562 -0.5995
 2327TIP3   OH2 6986   0.304   1.190   2.697 -0.2914  0.3149 -0.7981
 2327TIP3    H1 6987   0.293   1.153   2.609 -2.4478 -0.0377 -0.4322
 2327TIP3    H2 6988   0.283   1.117   2.756  2.1053  0.2511  0.0656
 2328TIP3   OH2 6989   0.177   4.029   4.807 -0.0276  0.6292  0.1264
 2328TIP3    H1 6990   0.179   4.073   4.721  0.3140  0.0245 -0.1810
 2328TIP3    H2 6991   0.214   4.094   4.867  0.4087  0.7988 -0.3092
 2329TIP3   OH2 6992   2.622   4.217   3.026 -0.7308 -0.3961  0.0613
 2329TIP3    H1 6993   2.701   4.258   3.062 -1.9434  0.4705  1.9086
 2329TIP3    H2 6994   2.551   4.276   3.051 -1.9255 -0.7849 -2.1530
 2330TIP3   OH2 6995   0.767   0.487   2.098 -0.6906  0.5721  0.6585
 2330TIP3    H1 6996   0.743   0.504   2.189 -0.8301 -0.1069  0.7542
 2330TIP3    H2 6997   0.727   0.403   2.078 -1.3266  1.0845 -0.2865
 2331TIP3   OH2 6998   4.258   1.632   4.418  0.3617  0.2358  0.3699
 2331TIP3    H1 6999   4.287   1.723   4.408  0.6518  0.1010 -0.0210
 2331TIP3    H2 7000   4.331   1.589   4.464  0.2027  0.2093  0.6025
 2332TIP3   OH2 7001   3.654   1.857   2.732 -0.2936  0.2020  0.0158
 2332TIP3    H1 7002   3.628   1.857   2.640  0.6898  2.2121 -0.3309
 2332TIP3    H2 7003   3.745   1.828   2.731  0.0043  1.0860  0.2152
 2333TIP3   OH2 7004   2.993   3.507   0.900  0.8007 -0.5662  0.8930
 2333TIP3    H1 7005   2.933   3.582   0.900  2.4926  0.8459  1.9396
 2333TIP3    H2 7006   3.045   3.518   0.979  2.0589 -2.0713  0.3104
 2334TIP3   OH2 7007   2.912   1.368   0.333  0.3805  0.2127 -0.2909
 2334TIP3    H1 7008   2.850   1.431   0.370 -1.5422 -1.1168 -1.0680
 2334TIP3    H2 7009   2.858   1.291   0.312  2.2831 -0.9559 -1.1733
 2335TIP3   OH2 7010   5.866   0.307   5.088 -0.2487 -0.0963  0.4629
 2335TIP3    H1 7011   5.960   0.318   5.074 -0.6091  2.9995 -0.3111
 2335TIP3    H2 7012   5.833   0.270   5.006  0.1553 -0.3891  0.4287
 2336TIP3   OH2 7013   5.731   4.198   4.032 -0.4170 -0.5889 -0.2438
 2336TIP3    H1 7014   5.677   4.130   3.992  1.2280 -2.0768 -0.0397
 2336TIP3    H2 7015   5.799   4.150   4.080 -0.4328  1.1716  1.6803
 2337TIP3   OH2 7016   4.964   5.693   3.717  0.0281 -0.2679  0.4223
 2337TIP3    H1 7017   5.047   5.683   3.763  0.7235 -0.9521 -0.9110
 2337TIP3    H2 7018   4.989   5.715   3.627 -1.1693 -1.9423 -0.3679
 2338TIP3   OH2 7019   2.996   5.803   0.706 -0.2301 -0.7129 -0.1832
 2338TIP3    H1 7020   3.061   5.844   0.650  0.4535 -0.2491  0.9125
 2338TIP3    H2 7021   3.039   5.723   0.738 -0.6165 -0.9796 -0.3267
 2339TIP3   OH2 7022   1.111   0.074   1.518  0.6207  0.7891  0.4126
 2339TIP3    H1 7023   1.155   0.124   1.587  0.0443  0.6361  0.9002
 2339TIP3    H2 7024   1.178   0.061   1.451  1.3223  0.5563  1.1448
 2340TIP3   OH2 7025   6.133   4.130   0.371  0.4037  0.0851  0.2730
 2340TIP3    H1 7026   6.166   4.101   0.286  0.9685  0.2036  0.4439
 2340TIP3    H2 7027   6.116   4.223   0.360  2.2512  0.5171  0.8009
 2341TIP3   OH2 7028   4.686   0.232   3.561  0.2194 -0.1403 -0.1427
 2341TIP3    H1 7029   4.679   0.327   3.544  1.9691  0.0949  0.2986
 2341TIP3    H2 7030   4.607   0.211   3.611 -0.4882  0.9584 -0.7515
 2342TIP3   OH2 7031   4.364   2.151   5.058 -0.1201  0.1078  0.1776
 2342TIP3    H1 7032   4.388   2.090   4.988 -1.0049  1.2704 -1.1978
 2342TIP3    H2 7033   4.444   2.200   5.076 -0.6025  2.1141 -2.4804
 2343TIP3   OH2 7034   4.253   0.717   4.967  0.1154  0.0906 -0.2817
 2343TIP3    H1 7035   4.229   0.730   5.059  0.1114  1.0559 -0.4091
 2343TIP3    H2 7036   4.206   0.638   4.941  0.6325 -0.5743  0.7218
 2344TIP3   OH2 7037   0.261   0.033   1.769 -0.0846  0.2490  0.3151
 2344TIP3    H1 7038   0.218   0.118   1.778 -0.8161 -0.1750  1.0235
 2344TIP3    H2 7039   0.279   0.006   1.859  2.0280  0.5639  0.0364
 2345TIP3   OH2 7040   2.362   0.590   3.580 -0.1994  0.3563  0.2390
 2345TIP3    H1 7041   2.387   0.533   3.507  0.9200  1.0490  0.0706
 2345TIP3    H2 7042   2.414   0.559   3.654  0.4163  1.1486  0.1466
 2346TIP3   OH2 7043   4.212   0.777   2.197  0.0789  0.4595 -0.4542
 2346TIP3    H1 7044   4.232   0.727   2.276  0.3594  0.3545 -0.5873
 2346TIP3    H2 7045   4.294   0.821   2.175 -0.0493  0.6369 -0.5817
 2347TIP3   OH2 7046   3.895   4.132   5.061  0.0017 -0.2015  0.3507
 2347TIP3    H1 7047   3.982   4.128   5.100 -0.8148 -1.3759  2.2267
 2347TIP3    H2 7048   3.904   4.087   4.977  1.0121 -1.2448  0.9881
 2348TIP3   OH2 7049   3.418   4.269   4.132 -0.4825 -0.3403 -0.4957
 2348TIP3    H1 7050   3.511   4.276   4.113 -0.9909  1.2350 -2.7654
 2348TIP3    H2 7051   3.396   4.350   4.178 -1.0810  0.1951 -1.6958
 2349TIP3   OH2 7052   3.378   2.824   1.557 -0.0110  0.2973  0.2743
 2349TIP3    H1 7053   3.365   2.876   1.477  1.5314  0.0516 -0.1757
 2349TIP3    H2 7054   3.305   2.849   1.614 -2.0616 -0.6498 -1.7639
 2350TIP3   OH2 7055   3.086   0.670   0.251 -0.2113  0.0764 -0.0224
 2350TIP3    H1 7056   3.045   0.747   0.212  1.1928 -0.1653 -2.1516
 2350TIP3    H2 7057   3.047   0.596   0.206  0.2274 -0.3093  0.2178
 2351TIP3   OH2 7058   4.932   3.187   1.964 -0.2822 -0.0727 -0.8232
 2351TIP3    H1 7059   4.993   3.257   1.987 -1.2003  0.3777  0.3335
 2351TIP3    H2 7060   4.927   3.132   2.042 -0.0472 -1.0933 -1.5075
 2352TIP3   OH2 7061   1.191   0.913   4.533 -0.3183 -0.2906  0.4876
 2352TIP3    H1 7062   1.112   0.895   4.584  0.5431  0.3791  2.1384
 2352TIP3    H2 7063   1.250   0.841   4.553  0.0694  0.0378  0.5534
 2353TIP3   OH2 7064   3.042   4.278   1.575 -0.1304  0.3098  0.0887
 2353TIP3    H1 7065   3.131   4.251   1.556  0.9719  3.6731 -0.0904
 2353TIP3    H2 7066   2.988   4.229   1.513  1.6859 -0.9356 -0.5754
 2354TIP3   OH2 7067   6.041   4.504   1.596 -0.0837  0.4744  0.0330
 2354TIP3    H1 7068   5.964   4.531   1.546 -0.0591 -1.0192 -0.8600
 2354TIP3    H2 7069   6.109   4.493   1.530  0.1498 -0.8200  0.4676
 2355TIP3   OH2 7070   2.480   3.826   4.058 -0.3720 -0.0552 -0.1057
 2355TIP3    H1 7071   2.442   3.913   4.050 -1.4840 -0.5951 -0.8275
 2355TIP3    H2 7072   2.573   3.839   4.040 -0.6059  0.9084 -0.6776
 2356TIP3   OH2 7073   0.442   5.864   0.290 -0.0800 -0.1773 -0.1680
 2356TIP3    H1 7074   0.470   5.780   0.327  0.5811  0.0607 -0.1144
 2356TIP3    H2 7075   0.437   5.923   0.366 -1.1317 -0.3165 -0.1200
 2357TIP3   OH2 7076   4.237   1.797   1.358  0.1110  0.2508  0.3190
 2357TIP3    H1 7077   4.146   1.800   1.330 -0.2709 -1.8601  1.1489
 2357TIP3    H2 7078   4.280   1.739   1.295  0.2166 -0.9740  1.4490
 2358TIP3   OH2 7079   5.594   5.407   2.567  0.3418 -0.2899  0.0306
 2358TIP3    H1 7080   5.571   5.342   2.500  1.1903 -1.2395  0.6416
 2358TIP3    H2 7081   5.685   5.388   2.588  1.1584  2.1712 -0.9602
 2359TIP3   OH2 7082   0.809   4.525   0.416  0.0905  0.8240  0.3395
 2359TIP3    H1 7083   0.790   4.619   0.417  2.5490  1.3847  0.5577
 2359TIP3    H2 7084   0.897   4.518   0.379  0.0038 -1.4058  0.3871
 2360TIP3   OH2 7085   5.945   0.052   3.009 -0.2832 -0.5685  0.0338
 2360TIP3    H1 7086   5.960  -0.038   3.038  0.3736 -0.3961  0.2453
 2360TIP3    H2 7087   5.865   0.079   3.054  0.2598 -0.5920  1.0328
 2361TIP3   OH2 7088   4.313   0.481   4.411  0.4028 -0.2837  0.0743
 2361TIP3    H1 7089   4.331   0.430   4.332 -1.4257 -0.1530 -0.4699
 2361TIP3    H2 7090   4.301   0.416   4.480 -0.3783 -0.5333 -0.2855
 2362TIP3   OH2 7091   5.456   0.571   4.944 -0.3127  0.0151 -0.7838
 2362TIP3    H1 7092   5.482   0.621   4.866  0.8965  0.5158 -0.0903
 2362TIP3    H2 7093   5.368   0.603   4.965  0.9469  3.0253  0.4868
 2363TIP3   OH2 7094   5.382   4.756   2.551  0.5311 -0.0140 -0.0878
 2363TIP3    H1 7095   5.464   4.713   2.529 -0.0959 -1.3414  0.0669
 2363TIP3    H2 7096   5.402   4.809   2.628  1.2460 -0.2901 -0.0802
 2364TIP3   OH2 7097   4.003   5.558   4.991  0.0018 -0.3419  0.2918
 2364TIP3    H1 7098   3.914   5.590   5.006  0.1261 -0.0479  0.4235
 2364TIP3    H2 7099   4.058   5.618   5.042  0.4200  0.4976 -1.0881
 2365TIP3   OH2 7100   2.131   3.895   3.675  0.0196  0.6183  0.1243
 2365TIP3    H1 7101   2.212   3.910   3.725  0.1029 -1.0461  0.5563
 2365TIP3    H2 7102   2.101   3.808   3.704 -1.2493  0.6666 -0.9551
 2366TIP3   OH2 7103   0.583   1.513   3.297 -0.3496  0.2486 -0.3172
 2366TIP3    H1 7104   0.564   1.530   3.204 -0.0954 -0.9308 -0.6002
 2366TIP3    H2 7105   0.502   1.474   3.330  0.0532 -0.7007 -0.4245
 2367TIP3   OH2 7106   6.259   4.490   0.945 -0.1189  0.3250  0.1028
 2367TIP3    H1 7107   6.266   4.404   0.986  1.9860  1.6763  2.8981
 2367TIP3    H2 7108   6.202   4.476   0.869 -0.1878 -3.4008  0.6652
 2368TIP3   OH2 7109   1.668   4.347   1.118 -0.6131 -0.4610  0.4975
 2368TIP3    H1 7110   1.661   4.328   1.025  1.3364 -0.8864  0.3885
 2368TIP3    H2 7111   1.610   4.284   1.160 -0.6391 -1.0265 -0.3672
 2369TIP3   OH2 7112   6.284   3.604   0.927 -0.1467  0.9401  0.5161
 2369TIP3    H1 7113   6.357   3.592   0.987  1.0983  1.4040 -0.8358
 2369TIP3    H2 7114   6.233   3.523   0.934  0.4884  0.6095  1.4878
 2370TIP3   OH2 7115   2.470   4.495   5.041 -0.1131 -0.1615 -0.1577
 2370TIP3    H1 7116   2.530   4.513   4.968 -1.1401  1.0413 -0.7596
 2370TIP3    H2 7117   2.440   4.405   5.026 -0.1495 -0.0028 -1.1349
 2371TIP3   OH2 7118   2.034   4.097   0.129  0.0765 -0.4951  0.3625
 2371TIP3    H1 7119   1.971   4.149   0.079  0.8162 -0.7447 -0.8920
 2371TIP3    H2 7120   1.993   4.010   0.136 -0.2249 -0.3367  0.5884
 2372TIP3   OH2 7121   0.336   1.019   0.591  0.1417  0.1943  0.0772
 2372TIP3    H1 7122   0.383   1.093   0.630  1.5911 -1.1343  0.9994
 2372TIP3    H2 7123   0.365   1.017   0.500 -0.0315  0.8312  0.0013
 2373TIP3   OH2 7124   3.800   1.077   2.021 -0.4947 -0.4065  0.2746
 2373TIP3    H1 7125   3.832   1.134   1.950 -1.0378  0.2184  0.5219
 2373TIP3    H2 7126   3.864   1.006   2.025  1.0704  0.9890  0.9890
 2374TIP3   OH2 7127   3.609   2.078   0.894  0.5189  0.0554 -0.8625
 2374TIP3    H1 7128   3.522   2.107   0.868  0.5588  0.6814 -0.3223
 2374TIP3    H2 7129   3.669   2.133   0.843  0.6210  2.4702  1.6339
 2375TIP3   OH2 7130   4.180   0.249   0.880  0.7879  0.3329 -0.0207
 2375TIP3    H1 7131   4.159   0.218   0.792 -2.3726 -0.1120  0.7527
 2375TIP3    H2 7132   4.210   0.339   0.867 -0.4291  0.5742 -1.5478
 2376TIP3   OH2 7133   5.639   2.733   2.055 -0.1171  0.7975  0.0081
 2376TIP3    H1 7134   5.652   2.645   2.090 -0.1586  1.5777  2.1279
 2376TIP3    H2 7135   5.722   2.754   2.014  0.1063  0.0137  0.0313
 2377TIP3   OH2 7136   4.742   0.509   3.512  0.1368 -0.2839  0.0819
 2377TIP3    H1 7137   4.749   0.505   3.417 -0.2272 -0.9272  0.0741
 2377TIP3    H2 7138   4.699   0.593   3.530  0.9556  0.2160 -0.2674
 2378TIP3   OH2 7139   3.718   3.058   4.764 -0.3373  0.3404 -0.0524
 2378TIP3    H1 7140   3.636   3.011   4.748 -0.5152  0.6151  0.0472
 2378TIP3    H2 7141   3.703   3.106   4.845 -0.8198  2.0298 -1.0834
 2379TIP3   OH2 7142   5.739   2.822   4.707  0.8521  0.1410 -0.1230
 2379TIP3    H1 7143   5.718   2.756   4.773  0.4109 -0.2887 -0.6861
 2379TIP3    H2 7144   5.693   2.900   4.736  0.6597 -0.0464  0.0806
 2380TIP3   OH2 7145   1.876   2.551   0.517 -0.1931 -0.5404  0.2071
 2380TIP3    H1 7146   1.912   2.570   0.431 -1.6916  2.4538  0.1016
 2380TIP3    H2 7147   1.787   2.519   0.500 -0.6842  0.5552  0.5948
 2381TIP3   OH2 7148   1.842   2.537   0.146  0.5489  0.1091 -0.0064
 2381TIP3    H1 7149   1.760   2.488   0.146 -0.7968  2.2109 -1.5186
 2381TIP3    H2 7150   1.908   2.472   0.170 -1.3337 -2.0219 -0.2514
 2382TIP3   OH2 7151   3.097   5.487   2.224  0.0472  0.0036  0.0409
 2382TIP3    H1 7152   3.061   5.438   2.150  0.7518  0.9888 -0.9894
 2382TIP3    H2 7153   3.183   5.516   2.194  0.0709  0.9955  1.0072
 2383TIP3   OH2 7154   0.573   5.415   4.716 -0.5309  0.4279 -0.3322
 2383TIP3    H1 7155   0.617   5.500   4.721 -1.3870  0.8244  1.0300
 2383TIP3    H2 7156   0.498   5.430   4.658 -0.2302  0.3709 -0.7445
 2384TIP3   OH2 7157   2.156   5.110   1.324  0.3064 -0.0661  0.0545
 2384TIP3    H1 7158   2.185   5.170   1.393  0.3779 -0.6073  0.5014
 2384TIP3    H2 7159   2.066   5.089   1.348 -0.5539  1.7001 -1.3892
 2385TIP3   OH2 7160   0.791   1.958   5.089  0.4769  0.2926 -0.1487
 2385TIP3    H1 7161   0.783   2.053   5.075  1.0114  0.4715  0.6473
 2385TIP3    H2 7162   0.871   1.934   5.042  1.1177  0.5102  0.7914
 2386TIP3   OH2 7163   0.352   4.136   1.064  0.4406  0.2110 -0.3555
 2386TIP3    H1 7164   0.445   4.145   1.044  0.7176  0.9545  1.1581
 2386TIP3    H2 7165   0.311   4.118   0.979  2.0977 -1.4048 -0.8871
 2387TIP3   OH2 7166   0.720   5.436   1.324 -0.2127 -0.1232 -0.5666
 2387TIP3    H1 7167   0.742   5.358   1.273  1.9439  0.2943 -0.3719
 2387TIP3    H2 7168   0.776   5.430   1.402 -1.8593  0.3662  0.6966
 2388TIP3   OH2 7169   4.122   5.303   2.095 -0.2211  0.0065 -0.0216
 2388TIP3    H1 7170   4.119   5.345   2.009  1.8056  1.6372  0.6168
 2388TIP3    H2 7171   4.183   5.230   2.084  1.6638  1.4339  0.4288
 2389TIP3   OH2 7172   0.243   2.243   1.534  0.4095 -0.6634  0.1641
 2389TIP3    H1 7173   0.302   2.273   1.603  1.5278 -2.7721  0.2348
 2389TIP3    H2 7174   0.192   2.320   1.510  0.3521  0.2772  2.9412
 2390TIP3   OH2 7175   3.654   0.618   1.909  0.5908  0.0486 -0.4896
 2390TIP3    H1 7176   3.620   0.535   1.940 -0.6818 -0.2006 -2.3722
 2390TIP3    H2 7177   3.598   0.684   1.949  0.7550 -0.0749 -0.0508
 2391TIP3   OH2 7178   4.899   3.791   3.794  0.3083  0.5484  0.0251
 2391TIP3    H1 7179   4.947   3.710   3.808  1.6882  1.2739 -0.3060
 2391TIP3    H2 7180   4.891   3.830   3.881 -0.1338  0.1774  0.1497
 2392TIP3   OH2 7181   2.774   4.675   0.120  0.4925 -0.4405 -0.5934
 2392TIP3    H1 7182   2.757   4.760   0.159 -0.6290 -0.2394 -1.4904
 2392TIP3    H2 7183   2.869   4.664   0.126  0.5765  0.6002  0.0687
 2393TIP3   OH2 7184   2.949   1.126   0.559  0.0219  0.6082  0.4161
 2393TIP3    H1 7185   3.042   1.131   0.580  0.4517 -1.3039 -0.8178
 2393TIP3    H2 7186   2.947   1.098   0.468 -1.7766  0.1335  0.5712
 2394TIP3   OH2 7187   0.206   4.178   1.960 -1.1236 -0.2399  0.0547
 2394TIP3    H1 7188   0.120   4.157   1.996 -0.1680 -0.7736  2.1633
 2394TIP3    H2 7189   0.204   4.273   1.947 -1.4996 -0.0106  1.6362
 2395TIP3   OH2 7190   3.527   0.344   1.650  0.0320  0.3876  0.0711
 2395TIP3    H1 7191   3.451   0.334   1.592  1.0609  2.3018 -1.7529
 2395TIP3    H2 7192   3.539   0.438   1.657  2.0826  0.1272  0.5223
 2396TIP3   OH2 7193   1.563   1.532   3.693 -0.4645 -0.3459 -0.1136
 2396TIP3    H1 7194   1.502   1.587   3.644  0.4169  1.7468  0.9881
 2396TIP3    H2 7195   1.650   1.559   3.661 -0.0306 -2.4234 -0.8183
 2397TIP3   OH2 7196   4.203   1.085   2.633 -0.0144 -0.2147  0.3516
 2397TIP3    H1 7197   4.128   1.122   2.587  0.5901 -1.1676 -1.4739
 2397TIP3    H2 7198   4.169   1.005   2.673 -0.0200 -0.5813 -0.3720
 2398TIP3   OH2 7199   2.306   2.472   0.622  0.1174 -0.2711  0.3459
 2398TIP3    H1 7200   2.297   2.437   0.710 -1.6285 -0.1349  0.2428
 2398TIP3    H2 7201   2.399   2.497   0.616  0.5436 -1.3768  1.7048
 2399TIP3   OH2 7202   4.377   0.639   1.977  0.2004  0.4432  0.5911
 2399TIP3    H1 7203   4.323   0.654   2.054  1.1122  0.7138  1.1982
 2399TIP3    H2 7204   4.466   0.627   2.012  0.6001  0.4110 -0.4021
 2400TIP3   OH2 7205   3.684   4.257   0.241 -0.1191  0.2042  0.0842
 2400TIP3    H1 7206   3.741   4.332   0.255  0.2474  0.0331 -0.4733
 2400TIP3    H2 7207   3.599   4.295   0.220  0.4496  0.4970 -1.8319
 2401TIP3   OH2 7208   1.456   4.460   2.761 -0.7548 -0.0646  0.0225
 2401TIP3    H1 7209   1.521   4.529   2.748 -0.5326  0.2102  2.2739
 2401TIP3    H2 7210   1.479   4.393   2.696  1.1629  0.4612  0.1046
 2402TIP3   OH2 7211   0.336   0.915   4.442  0.3078  0.3387  0.8798
 2402TIP3    H1 7212   0.360   0.838   4.494 -2.5862 -1.7010 -0.5712
 2402TIP3    H2 7213   0.252   0.943   4.479 -0.6929  0.2154 -1.1779
 2403TIP3   OH2 7214   5.841   0.263   2.582 -0.3670 -1.0918 -0.5028
 2403TIP3    H1 7215   5.865   0.195   2.519 -0.7934 -1.8405  0.1165
 2403TIP3    H2 7216   5.804   0.215   2.655 -1.1306 -0.1427 -0.2510
 2404TIP3   OH2 7217   1.575   4.261   0.072  0.2171 -0.1950  0.6366
 2404TIP3    H1 7218   1.585   4.198   0.144 -2.0593  0.0684  1.2785
 2404TIP3    H2 7219   1.482   4.284   0.074 -0.0113 -0.4130 -2.6211
 2405TIP3   OH2 7220   2.379   4.753   4.250 -0.1301 -0.1550 -0.4912
 2405TIP3    H1 7221   2.348   4.843   4.248  1.5511  0.4474 -1.4869
 2405TIP3    H2 7222   2.445   4.752   4.319  1.3021 -0.0770 -1.8121
 2406TIP3   OH2 7223   4.599   0.551   2.128  0.5907  0.0807  0.1275
 2406TIP3    H1 7224   4.573   0.466   2.164  0.6559 -0.6651 -1.4576
 2406TIP3    H2 7225   4.686   0.536   2.092  1.3111  1.3035  1.2959
 2407TIP3   OH2 7226   4.354   5.140   1.300  0.4389 -0.2357  0.3571
 2407TIP3    H1 7227   4.444   5.138   1.332  0.5800 -2.7484 -0.0333
 2407TIP3    H2 7228   4.357   5.196   1.222  1.1663  1.4531  1.5324
 2408TIP3   OH2 7229   3.331   3.655   3.671  0.2706 -0.2888 -0.2348
 2408TIP3    H1 7230   3.259   3.639   3.732  2.0716  0.6266  2.3684
 2408TIP3    H2 7231   3.360   3.568   3.645 -1.3250 -0.6733 -0.7753
 2409TIP3   OH2 7232   4.945   4.921   4.457 -0.2491 -0.2415  0.1770
 2409TIP3    H1 7233   4.969   5.005   4.495  0.0676  0.4491 -1.4678
 2409TIP3    H2 7234   4.896   4.943   4.378 -0.7476 -1.6116  0.0644
 2410TIP3   OH2 7235   1.463   2.074   4.538 -0.5828  0.0298  0.1051
 2410TIP3    H1 7236   1.451   2.077   4.633 -0.1087 -0.5935  0.1931
 2410TIP3    H2 7237   1.553   2.102   4.524 -0.5556 -0.1692 -0.1335
 2411TIP3   OH2 7238   0.929   2.764   0.504  0.6896 -0.6318 -0.0802
 2411TIP3    H1 7239   0.958   2.781   0.594 -0.4264  0.7822  0.0564
 2411TIP3    H2 7240   0.866   2.693   0.513  0.2688 -0.2207  0.3418
 2412TIP3   OH2 7241   4.503   1.680   0.186 -0.3508 -0.2552 -0.4713
 2412TIP3    H1 7242   4.521   1.772   0.164 -0.4961  0.4289  1.9918
 2412TIP3    H2 7243   4.416   1.681   0.226  0.1213 -1.2693  0.6452
 2413TIP3   OH2 7244   2.328   0.170   4.208 -0.5975  0.9915 -0.1651
 2413TIP3    H1 7245   2.279   0.234   4.259 -1.3500 -1.8149  2.9530
 2413TIP3    H2 7246   2.277   0.089   4.215  2.8639 -1.3422  0.7268
 2414TIP3   OH2 7247   4.618   5.882   0.344  0.6780 -0.0821 -0.7763
 2414TIP3    H1 7248   4.564   5.891   0.265 -0.7452 -1.2338  0.0201
 2414TIP3    H2 7249   4.641   5.789   0.346  1.1779  0.0524 -0.1347
 2415TIP3   OH2 7250   4.741   4.930   2.771  0.5846 -0.5032  0.4433
 2415TIP3    H1 7251   4.729   4.922   2.676  0.5130 -1.3262  0.5149
 2415TIP3    H2 7252   4.831   4.962   2.781  0.7896 -0.9769  0.1160
 2416TIP3   OH2 7253   5.283   4.199   3.827  0.4964 -0.2934 -0.3438
 2416TIP3    H1 7254   5.291   4.133   3.896 -1.7692  0.4611  0.7488
 2416TIP3    H2 7255   5.310   4.281   3.868 -2.3383  0.4555  0.2974
 2417TIP3   OH2 7256   5.315   4.923   4.614 -0.3731 -0.0977  0.2113
 2417TIP3    H1 7257   5.314   4.954   4.524  1.3377 -0.0536  0.1579
 2417TIP3    H2 7258   5.280   4.835   4.610  0.7993 -0.5596 -0.7321
 2418TIP3   OH2 7259   1.891   2.555   1.442 -0.2202  0.0082 -0.4451
 2418TIP3    H1 7260   1.901   2.650   1.449  0.6020 -0.0293 -1.0634
 2418TIP3    H2 7261   1.817   2.535   1.499 -0.1993  0.9821 -0.0569
 2419TIP3   OH2 7262   5.798   4.821   4.060  0.1235 -0.2927 -0.5834
 2419TIP3    H1 7263   5.704   4.817   4.042 -0.2894  0.0822  1.3591
 2419TIP3    H2 7264   5.813   4.752   4.125  0.8518  0.7903  0.4268
 2420TIP3   OH2 7265   2.020   5.092   0.963  0.0786  0.4068  0.0723
 2420TIP3    H1 7266   1.924   5.102   0.961 -0.2872 -1.0082  3.4271
 2420TIP3    H2 7267   2.053   5.181   0.969 -1.1386  0.8647  0.3936
 2421TIP3   OH2 7268   2.531   3.197   3.335 -0.4967  0.4886  0.3456
 2421TIP3    H1 7269   2.491   3.137   3.272  1.6493  0.7785 -1.4097
 2421TIP3    H2 7270   2.556   3.142   3.409 -0.3242 -0.4412 -0.3869
 2422TIP3   OH2 7271   3.902   4.932   4.081 -0.1494  0.3982  0.3192
 2422TIP3    H1 7272   3.936   4.870   4.146  0.8146  0.7526  0.1701
 2422TIP3    H2 7273   3.891   4.880   4.001 -0.1793  0.2317  0.4306
 2423TIP3   OH2 7274   4.879   4.340   4.200 -0.1724  0.0157 -0.2160
 2423TIP3    H1 7275   4.851   4.337   4.292 -0.4379  1.8413 -0.2072
 2423TIP3    H2 7276   4.799   4.355   4.151  0.1649  0.5543 -0.6107
 2424TIP3   OH2 7277   2.941   1.686   0.824 -0.1730 -0.3572  0.0778
 2424TIP3    H1 7278   2.922   1.592   0.824 -2.5647  0.0444  1.3726
 2424TIP3    H2 7279   2.855   1.728   0.826  0.8363  1.8781 -0.2509
 2425TIP3   OH2 7280   2.991   3.786   3.453  0.3805  0.2883 -0.7804
 2425TIP3    H1 7281   3.083   3.809   3.456 -0.3356  3.5218 -0.3861
 2425TIP3    H2 7282   2.977   3.756   3.363  1.5768  0.9451 -1.2064
 2426TIP3   OH2 7283   3.477   4.013   4.516  0.2282  0.4734 -0.6235
 2426TIP3    H1 7284   3.540   4.057   4.459  0.1045  0.6698 -0.6061
 2426TIP3    H2 7285   3.525   3.936   4.548  0.9920  1.4167  0.6056
 2427TIP3   OH2 7286   4.021   1.801   3.963  0.0418 -0.1547 -0.2940
 2427TIP3    H1 7287   3.954   1.869   3.960  0.2680  0.1576  1.2195
 2427TIP3    H2 7288   4.044   1.794   4.055  0.8101 -1.5236 -0.5690
 2428TIP3   OH2 7289   5.493   3.007   2.331  0.2752 -0.1734 -0.1709
 2428TIP3    H1 7290   5.405   3.007   2.294 -0.2845  1.9023  1.0305
 2428TIP3    H2 7291   5.525   3.096   2.317  1.9883 -0.7315 -0.0648
 2429TIP3   OH2 7292   2.483   0.088   3.118  0.3114  0.0772  0.1292
 2429TIP3    H1 7293   2.537   0.065   3.042 -0.3754 -1.5101  0.0828
 2429TIP3    H2 7294   2.544   0.130   3.178  0.8417  1.5184 -1.3387
 2430TIP3   OH2 7295   2.956   2.954   2.742 -0.4330  0.5751  0.1354
 2430TIP3    H1 7296   2.982   2.986   2.828  0.5860  1.6787 -0.5383
 2430TIP3    H2 7297   2.901   3.023   2.706  0.5721  0.9495 -0.7571
 2431TIP3   OH2 7298   4.109   4.043   3.397 -0.3497  0.1415 -0.2718
 2431TIP3    H1 7299   4.186   3.987   3.388  0.4703  1.3303 -0.8513
 2431TIP3    H2 7300   4.075   4.052   3.308 -2.5768 -2.2392  0.2200
 2432TIP3   OH2 7301   1.209   5.687   2.970 -0.0028 -0.5092 -0.7428
 2432TIP3    H1 7302   1.213   5.593   2.989 -0.5143 -0.7788 -1.8995
 2432TIP3    H2 7303   1.124   5.700   2.930 -0.7095  0.7971  1.0518
 2433TIP3   OH2 7304   0.388   2.261   1.779  0.5519  0.0672  0.2893
 2433TIP3    H1 7305   0.309   2.244   1.830  1.3731  0.2983  1.6911
 2433TIP3    H2 7306   0.451   2.293   1.843  1.4349  0.9799 -0.9859
 2434TIP3   OH2 7307   0.322   5.782   1.473  0.3342 -0.4774  0.1979
 2434TIP3    H1 7308   0.385   5.724   1.515  1.6604 -0.6787 -1.9449
 2434TIP3    H2 7309   0.375   5.842   1.420 -1.1719  0.7372 -0.0215
 2435TIP3   OH2 7310   2.826   0.875   2.769  0.0158 -0.1251 -0.5598
 2435TIP3    H1 7311   2.826   0.780   2.770  0.9274 -0.1808 -2.1437
 2435TIP3    H2 7312   2.758   0.899   2.705 -0.6542  0.3173  0.2977
 2436TIP3   OH2 7313   0.260   2.748   2.803 -0.0518 -0.4015  0.2475
 2436TIP3    H1 7314   0.347   2.779   2.828 -0.1053 -0.5586  0.6481
 2436TIP3    H2 7315   0.203   2.783   2.871 -0.7045  1.8074 -1.3194
 2437TIP3   OH2 7316   2.617   0.422   1.650 -0.4857  0.0925 -0.1180
 2437TIP3    H1 7317   2.616   0.511   1.686 -0.5132  0.3425 -0.7381
 2437TIP3    H2 7318   2.674   0.374   1.710 -1.1890  0.3029  0.7425
 2438TIP3   OH2 7319   2.571   3.161   1.646  0.2585 -0.4795  0.5614
 2438TIP3    H1 7320   2.486   3.133   1.680  0.3863 -0.7773  0.6338
 2438TIP3    H2 7321   2.634   3.129   1.710  0.4804 -0.8172  0.1744
 2439TIP3   OH2 7322   0.156   5.417   1.024 -0.2278  0.7598  0.1028
 2439TIP3    H1 7323   0.166   5.495   1.078 -2.4142  0.8528  0.4716
 2439TIP3    H2 7324   0.090   5.441   0.959 -0.5700 -0.6283 -0.0898
 2440TIP3   OH2 7325   3.212   1.472   4.747  0.1425 -0.0994 -0.1634
 2440TIP3    H1 7326   3.132   1.459   4.695  0.6990 -1.7323 -0.6945
 2440TIP3    H2 7327   3.230   1.566   4.741 -1.0330  0.0921 -1.0842
 2441TIP3   OH2 7328   4.497   5.792   2.768  0.2245  0.4294  0.4581
 2441TIP3    H1 7329   4.500   5.853   2.694  0.5160  0.4923  0.5196
 2441TIP3    H2 7330   4.459   5.843   2.839 -1.3684 -0.0457 -0.0307
 2442TIP3   OH2 7331   5.428   5.340   4.347 -0.1119 -0.1524  0.7223
 2442TIP3    H1 7332   5.517   5.370   4.365  0.9348 -0.6979 -2.7360
 2442TIP3    H2 7333   5.435   5.244   4.341 -0.5234 -0.1054 -1.1134
 2443TIP3   OH2 7334   3.339   1.307   2.058  0.5387  0.6854 -0.1901
 2443TIP3    H1 7335   3.388   1.360   2.120  2.1046  1.5086 -2.0429
 2443TIP3    H2 7336   3.402   1.242   2.026 -0.0024  0.7499 -1.4547
 2444TIP3   OH2 7337   5.701   0.633   0.879  0.1053  0.3363 -0.3043
 2444TIP3    H1 7338   5.790   0.638   0.914  0.9192  1.5669 -2.3584
 2444TIP3    H2 7339   5.646   0.674   0.946  1.4276  1.6062  0.0542
 2445TIP3   OH2 7340   1.778   0.075   2.046  0.1113  0.2329  0.0548
 2445TIP3    H1 7341   1.811   0.058   2.135  1.4834  0.7218 -0.3395
 2445TIP3    H2 7342   1.798   0.167   2.029 -0.8075  0.3463 -0.5047
 2446TIP3   OH2 7343   5.497   5.920   3.394  0.2115  0.1626 -0.5854
 2446TIP3    H1 7344   5.451   6.003   3.408 -0.2621 -0.2139  0.1668
 2446TIP3    H2 7345   5.427   5.855   3.389  0.6558 -0.5296  1.3463
 2447TIP3   OH2 7346   3.297   5.231   4.539 -0.1148  0.1281 -0.0111
 2447TIP3    H1 7347   3.293   5.145   4.580 -1.3040  0.9136  1.6274
 2447TIP3    H2 7348   3.361   5.221   4.468 -1.1088 -2.3909 -0.6402
 2448TIP3   OH2 7349   0.869   1.440   3.297  0.0261  0.1172 -0.1507
 2448TIP3    H1 7350   0.778   1.457   3.322 -0.8273 -0.7445 -2.3678
 2448TIP3    H2 7351   0.900   1.523   3.262 -1.5520 -0.5898 -3.7075
 2449TIP3   OH2 7352   3.270   1.672   4.328 -0.2731 -0.9004 -0.1261
 2449TIP3    H1 7353   3.289   1.761   4.299  1.1180 -1.4753 -1.0918
 2449TIP3    H2 7354   3.183   1.654   4.292 -0.2961 -0.1525 -0.4762
 2450TIP3   OH2 7355   3.776   5.206   4.440 -0.3718 -0.1505  0.3858
 2450TIP3    H1 7356   3.830   5.225   4.363 -1.1235 -0.3695 -0.2159
 2450TIP3    H2 7357   3.791   5.113   4.458  0.3473  0.0696  0.9468
 2451TIP3   OH2 7358   0.941   1.693   3.208 -0.1309  0.2265  0.5429
 2451TIP3    H1 7359   0.941   1.747   3.286  1.6463  0.6633  0.2832
 2451TIP3    H2 7360   0.932   1.754   3.135 -0.3229 -0.0381  0.3392
 2452TIP3   OH2 7361   2.091   2.598   3.599  0.0008  0.1869 -0.3197
 2452TIP3    H1 7362   2.009   2.549   3.604 -1.3506  2.3951  1.0460
 2452TIP3    H2 7363   2.159   2.534   3.621 -1.4015 -1.5299 -0.7605
 2453TIP3   OH2 7364   1.960   2.011   3.893 -0.0890  0.4300  0.0139
 2453TIP3    H1 7365   1.914   2.093   3.909  0.6931  0.8821  0.0221
 2453TIP3    H2 7366   1.898   1.958   3.844  0.4382  2.2262 -2.8823
 2454TIP3   OH2 7367   6.100   1.211   1.194 -0.1046 -0.1012  0.1826
 2454TIP3    H1 7368   6.027   1.269   1.214  1.2930  1.4828  0.9883
 2454TIP3    H2 7369   6.147   1.255   1.123 -1.0901 -2.1834 -1.8536
 2455TIP3   OH2 7370   3.257   1.829   2.887  0.2873  0.1937  0.6408
 2455TIP3    H1 7371   3.164   1.821   2.907 -0.4463 -1.0175 -2.6592
 2455TIP3    H2 7372   3.268   1.918   2.856 -0.4766 -0.4425 -1.6477
 2456TIP3   OH2 7373   3.686   4.720   4.430  0.8729  0.3851  0.2194
 2456TIP3    H1 7374   3.780   4.705   4.443  0.5367 -1.6269  0.7612
 2456TIP3    H2 7375   3.644   4.677   4.504 -0.5350 -0.0388 -0.7674
 2457TIP3   OH2 7376   3.570   3.909   1.360  0.4507  0.9229  0.5019
 2457TIP3    H1 7377   3.543   3.880   1.447  0.7002  2.0050  0.9569
 2457TIP3    H2 7378   3.491   3.903   1.307  0.0558  1.1638  1.0553
 2458TIP3   OH2 7379   0.276   1.278   4.265  0.5215  0.2870  0.1154
 2458TIP3    H1 7380   0.324   1.347   4.311  2.2076 -1.1365  0.6004
 2458TIP3    H2 7381   0.331   1.201   4.275 -1.1941 -1.0800 -0.6261
 2459TIP3   OH2 7382   1.405   5.827   2.649 -0.2987  0.2608 -0.0148
 2459TIP3    H1 7383   1.459   5.821   2.728  0.6873  2.1147 -0.4759
 2459TIP3    H2 7384   1.326   5.874   2.678 -0.3065  0.2209  0.0298
 2460TIP3   OH2 7385   2.576   3.615   4.673 -0.7393 -0.3323 -0.3734
 2460TIP3    H1 7386   2.551   3.530   4.711 -0.7261 -0.7721 -1.3213
 2460TIP3    H2 7387   2.502   3.638   4.617 -0.6254  0.1547 -0.3218
 2461TIP3   OH2 7388   2.777   5.934   0.571  0.2198 -0.8393 -0.2907
 2461TIP3    H1 7389   2.824   5.953   0.489  0.0165 -0.8458 -0.4076
 2461TIP3    H2 7390   2.839   5.882   0.622  0.6152 -0.2474 -0.1541
 2462TIP3   OH2 7391   0.581   3.636   2.621  0.0129  0.9937 -0.2267
 2462TIP3    H1 7392   0.665   3.624   2.664 -0.3452  1.8123  0.7364
 2462TIP3    H2 7393   0.522   3.575   2.666 -0.0036  0.6872 -0.6540
 2463TIP3   OH2 7394   1.709   4.610   2.722 -0.2636 -0.2014  0.0922
 2463TIP3    H1 7395   1.778   4.676   2.728 -0.8922  0.6649 -1.5570
 2463TIP3    H2 7396   1.674   4.603   2.811  0.2185  1.2479  0.4227
 2464TIP3   OH2 7397   2.018   2.374   0.704  0.1977 -0.4960  0.4817
 2464TIP3    H1 7398   1.942   2.419   0.666 -0.0811 -0.9512  0.4911
 2464TIP3    H2 7399   2.065   2.442   0.752  0.9863  0.2812 -1.2928
 2465TIP3   OH2 7400   2.827   4.830   4.108  0.1787 -0.3903 -0.5545
 2465TIP3    H1 7401   2.923   4.829   4.100  0.2699 -0.0025  0.3832
 2465TIP3    H2 7402   2.802   4.918   4.079  0.1556 -0.3042 -0.2728
 2466TIP3   OH2 7403   1.907   5.856   3.330  0.0768 -0.0777  0.6865
 2466TIP3    H1 7404   1.833   5.843   3.271  0.1367 -1.0062  0.8025
 2466TIP3    H2 7405   1.969   5.787   3.307  0.7055  0.4000  0.9107
 2467TIP3   OH2 7406   2.143   2.450   4.583 -0.0027 -0.0672  0.7172
 2467TIP3    H1 7407   2.147   2.484   4.493 -0.5120 -1.5847  0.0983
 2467TIP3    H2 7408   2.219   2.392   4.590 -0.8977 -1.2821  0.6785
 2468TIP3   OH2 7409   5.117   1.685   2.155  0.0803 -0.7156 -0.3253
 2468TIP3    H1 7410   5.048   1.750   2.172  0.0526 -0.4062 -1.5604
 2468TIP3    H2 7411   5.141   1.653   2.242  1.3406  2.2043  0.5328
 2469TIP3   OH2 7412   5.421   4.719   0.414  0.0354 -0.5196  0.2787
 2469TIP3    H1 7413   5.345   4.717   0.355  0.3123 -1.5553 -0.0680
 2469TIP3    H2 7414   5.452   4.629   0.415  2.2877  0.1557 -0.9294
 2470TIP3   OH2 7415   6.054   5.274   3.020 -0.3669  0.2029 -0.1547
 2470TIP3    H1 7416   5.988   5.311   3.079  0.5661  0.2943  0.8756
 2470TIP3    H2 7417   6.004   5.222   2.957 -1.4121  0.1835  0.6664
 2471TIP3   OH2 7418   0.069   1.980   1.988 -0.2756  0.2021 -0.0992
 2471TIP3    H1 7419  -0.020   1.944   1.992 -0.3122 -0.0163 -2.1047
 2471TIP3    H2 7420   0.095   1.971   1.897  2.0111 -0.1602  0.5184
 2472TIP3   OH2 7421   5.779   3.031   4.308  0.0971 -0.1699  0.2603
 2472TIP3    H1 7422   5.712   3.003   4.244  1.3111  1.0645 -1.6596
 2472TIP3    H2 7423   5.826   2.950   4.330  1.0297 -0.3730 -2.1487
 2473TIP3   OH2 7424   6.152   0.551   3.845 -0.2636 -0.2966 -0.4743
 2473TIP3    H1 7425   6.211   0.564   3.771 -0.0067 -0.1139 -0.2385
 2473TIP3    H2 7426   6.162   0.458   3.866  0.4576 -0.1289 -0.0091
 2474TIP3   OH2 7427   1.797   0.553   5.069  0.2002  0.6064  0.1625
 2474TIP3    H1 7428   1.876   0.577   5.117 -0.1410 -1.7847  2.1018
 2474TIP3    H2 7429   1.775   0.465   5.100 -2.4190  0.5929 -1.3908
 2475TIP3   OH2 7430   2.540   4.203   0.653  0.5280  0.1299  0.0536
 2475TIP3    H1 7431   2.528   4.293   0.684 -0.3652 -0.5791  1.9543
 2475TIP3    H2 7432   2.453   4.175   0.626  0.3813 -0.7658  1.3424
 2476TIP3   OH2 7433   0.200   2.298   4.064 -0.2647 -0.0168  0.2346
 2476TIP3    H1 7434   0.252   2.343   4.131 -3.3516  1.8803  1.5604
 2476TIP3    H2 7435   0.140   2.243   4.113 -0.5867 -0.9487 -1.1614
 2477TIP3   OH2 7436   3.097   1.033   1.461 -0.3071 -0.6864 -0.1733
 2477TIP3    H1 7437   3.015   0.987   1.443  0.0642 -1.8409  0.8953
 2477TIP3    H2 7438   3.165   0.968   1.443  0.1962 -0.9143  2.2175
 2478TIP3   OH2 7439   4.313   2.356   2.388 -0.3230 -0.2392 -0.2740
 2478TIP3    H1 7440   4.322   2.417   2.462 -0.6816  1.4373 -1.5495
 2478TIP3    H2 7441   4.365   2.280   2.413 -0.0427  0.4935  1.4879
 2479TIP3   OH2 7442   1.273   3.774   4.236  0.1405  0.2918 -0.1097
 2479TIP3    H1 7443   1.357   3.793   4.278  0.0587  0.7518 -0.1408
 2479TIP3    H2 7444   1.227   3.859   4.236 -0.6080 -0.1001  0.5325
 2480TIP3   OH2 7445   0.564   0.651   1.317  0.0231 -0.0357  0.8238
 2480TIP3    H1 7446   0.489   0.649   1.376 -0.3997 -0.3452  0.2817
 2480TIP3    H2 7447   0.602   0.563   1.325 -0.8095 -0.5213 -0.3398
 2481TIP3   OH2 7448   3.081   2.654   3.403  0.0004 -0.5245 -0.0310
 2481TIP3    H1 7449   3.170   2.690   3.403  0.9387 -2.6652 -0.2706
 2481TIP3    H2 7450   3.068   2.624   3.493 -1.1107  1.1108  0.3918
 2482TIP3   OH2 7451   3.934   4.025   4.103  0.5756  0.3925  0.1271
 2482TIP3    H1 7452   3.868   4.091   4.081 -1.4502 -1.4454  0.3497
 2482TIP3    H2 7453   3.969   3.997   4.018 -0.6579 -0.2644 -0.1846
 2483TIP3   OH2 7454   1.696   5.268   4.636  0.4793  0.4920  0.2765
 2483TIP3    H1 7455   1.610   5.291   4.603  0.1186 -0.5098  0.4915
 2483TIP3    H2 7456   1.741   5.352   4.647  0.0470  0.9487 -1.1906
 2484TIP3   OH2 7457   3.140   0.856   3.192 -0.3303  0.3355 -0.2223
 2484TIP3    H1 7458   3.215   0.875   3.136  0.4957 -1.5224  0.1676
 2484TIP3    H2 7459   3.156   0.907   3.272 -0.0257  0.7545 -0.5469
 2485TIP3   OH2 7460   2.265   1.572   1.599  0.2522 -0.0439 -0.1338
 2485TIP3    H1 7461   2.281   1.515   1.674  0.4295 -0.0855 -0.2038
 2485TIP3    H2 7462   2.309   1.529   1.526 -1.1153 -0.7613 -0.5823
 2486TIP3   OH2 7463   6.150   2.369   1.759 -0.0985 -0.3906 -0.0416
 2486TIP3    H1 7464   6.154   2.366   1.663  0.9242  0.3660 -0.0390
 2486TIP3    H2 7465   6.120   2.282   1.784 -0.8017 -0.4733 -1.0583
 2487TIP3   OH2 7466   3.193   3.770   2.665  0.8587 -0.9095  0.0361
 2487TIP3    H1 7467   3.169   3.858   2.695 -0.9991 -0.6037 -1.9937
 2487TIP3    H2 7468   3.284   3.778   2.636  0.4563  0.6519 -0.9481
 2488TIP3   OH2 7469   0.805   5.014   4.311 -0.0219 -0.2844  0.2546
 2488TIP3    H1 7470   0.777   4.927   4.283  0.2454 -0.8992  1.8292
 2488TIP3    H2 7471   0.751   5.074   4.259 -1.1546 -1.3886  0.1124
 2489TIP3   OH2 7472   1.200   5.396   4.935  0.1218  0.0044 -0.0828
 2489TIP3    H1 7473   1.136   5.370   5.002  0.0848 -0.0514 -0.1399
 2489TIP3    H2 7474   1.241   5.475   4.972 -1.4000  1.2532 -0.9067
 2490TIP3   OH2 7475   0.788   2.301   1.450 -0.5069 -0.1360  0.0288
 2490TIP3    H1 7476   0.698   2.329   1.433 -0.4661  0.4002  0.6687
 2490TIP3    H2 7477   0.827   2.291   1.363 -1.6407 -1.9607 -0.3275
 2491TIP3   OH2 7478   1.861   5.167   3.195  0.0708  0.2902  0.0898
 2491TIP3    H1 7479   1.864   5.247   3.143  0.2621  0.2526  0.0443
 2491TIP3    H2 7480   1.930   5.178   3.261 -0.6947  0.6903  0.8415
 2492TIP3   OH2 7481   5.450   5.115   3.691  0.2081  0.2043  0.5246
 2492TIP3    H1 7482   5.466   5.188   3.751  0.6170  1.6334 -1.2299
 2492TIP3    H2 7483   5.356   5.098   3.699 -0.0055  1.2979  0.5959
 2493TIP3   OH2 7484   1.708   4.169   3.813 -0.1119 -0.0304  0.0143
 2493TIP3    H1 7485   1.720   4.190   3.906  0.2776  1.2055 -0.2836
 2493TIP3    H2 7486   1.766   4.095   3.797 -0.6286 -0.6301  0.8876
 2494TIP3   OH2 7487   3.792   2.955   0.147  0.0223 -0.2659  0.2123
 2494TIP3    H1 7488   3.789   3.025   0.082  0.4723 -0.0760  0.3932
 2494TIP3    H2 7489   3.885   2.932   0.153 -0.0821 -0.6557  0.3937
 2495TIP3   OH2 7490   2.638   1.152   2.137 -0.1513  0.8459 -0.0983
 2495TIP3    H1 7491   2.705   1.090   2.163 -0.2934  1.7709  2.8324
 2495TIP3    H2 7492   2.555   1.110   2.159 -0.3809  1.0264 -0.5920
 2496TIP3   OH2 7493   4.147   2.756   3.061 -0.4233 -0.2911  0.3616
 2496TIP3    H1 7494   4.076   2.733   3.120  0.1420  0.6485  1.4518
 2496TIP3    H2 7495   4.184   2.672   3.033 -0.4620 -0.7579  1.6569
 2497TIP3   OH2 7496   5.931   1.205   4.337 -0.1784 -0.2550 -0.0199
 2497TIP3    H1 7497   5.999   1.232   4.276  1.2955  0.0446  1.6806
 2497TIP3    H2 7498   5.911   1.284   4.388 -2.4010 -0.1201 -0.9728
 2498TIP3   OH2 7499   1.576   2.032   0.300 -0.3244  0.2658 -0.1069
 2498TIP3    H1 7500   1.550   1.975   0.372  0.9955 -0.0785  0.1320
 2498TIP3    H2 7501   1.570   1.977   0.222 -0.3255  0.1865 -0.0509
 2499TIP3   OH2 7502   1.730   0.974   4.700  0.3956  0.2410 -0.0916
 2499TIP3    H1 7503   1.650   0.956   4.749 -0.5061  2.0661 -0.7806
 2499TIP3    H2 7504   1.708   0.953   4.610  0.7635  0.5591 -0.2570
 2500TIP3   OH2 7505   5.754   2.058   2.048 -0.1483  0.7664 -0.3409
 2500TIP3    H1 7506   5.816   2.109   2.100 -1.6525  3.6728 -1.1848
 2500TIP3    H2 7507   5.696   2.017   2.112 -0.4508  2.2268  0.3383
 2501TIP3   OH2 7508   2.294   4.885   3.104 -0.2704 -0.4980 -0.2910
 2501TIP3    H1 7509   2.312   4.977   3.122  4.6563 -1.0830 -0.7316
 2501TIP3    H2 7510   2.324   4.872   3.014 -1.5424 -2.4204 -0.5017
 2502TIP3   OH2 7511   4.694   5.444   1.639  0.2359  0.7701 -0.2930
 2502TIP3    H1 7512   4.767   5.431   1.700  1.2046  2.7929 -0.9171
 2502TIP3    H2 7513   4.635   5.504   1.685 -1.7200 -1.7044  0.6686
 2503TIP3   OH2 7514   0.499   2.925   0.279 -0.0682 -0.1315 -0.0461
 2503TIP3    H1 7515   0.438   2.865   0.237 -2.3247 -0.5200  3.3008
 2503TIP3    H2 7516   0.515   2.886   0.365  2.0452  1.8359  0.5531
 2504TIP3   OH2 7517   1.936   0.308   1.112  0.1025 -0.0159  0.3917
 2504TIP3    H1 7518   1.957   0.385   1.165  1.8440  0.5336 -0.9867
 2504TIP3    H2 7519   1.944   0.339   1.021  0.7819 -1.7982 -0.1883
 2505TIP3   OH2 7520   0.702   1.956   3.778 -0.0666  0.1791  0.3636
 2505TIP3    H1 7521   0.629   1.896   3.765  1.2925 -1.3562 -0.4770
 2505TIP3    H2 7522   0.733   1.976   3.690 -0.8462  2.6501  0.5726
 2506TIP3   OH2 7523   6.088   2.080   1.834 -0.2886  0.6211 -0.2432
 2506TIP3    H1 7524   5.995   2.065   1.819 -0.9080  2.9526  0.9010
 2506TIP3    H2 7525   6.095   2.103   1.927  1.4719  0.3710 -0.2628
 2507TIP3   OH2 7526   5.406   2.315   0.976  0.3443  0.1330 -0.1372
 2507TIP3    H1 7527   5.366   2.237   1.015 -0.1286  1.1404  1.5033
 2507TIP3    H2 7528   5.332   2.366   0.942  0.4794  0.6237  0.2800
 2508TIP3   OH2 7529   1.960   2.049   1.998 -0.0030  0.5780 -0.5131
 2508TIP3    H1 7530   1.902   2.121   2.025 -1.3448 -0.0678 -1.5995
 2508TIP3    H2 7531   1.988   2.073   1.910 -0.5781 -0.2956 -0.9389
 2509TIP3   OH2 7532   1.248   5.018   0.424 -0.0931  0.0753 -0.2601
 2509TIP3    H1 7533   1.307   5.001   0.350 -0.8275  0.8826 -1.0592
 2509TIP3    H2 7534   1.220   5.109   0.411 -0.8061 -0.0142  0.6058
 2510TIP3   OH2 7535   2.092   4.382   5.013 -0.5102  0.0912 -0.1460
 2510TIP3    H1 7536   2.020   4.357   4.956 -0.7425 -0.4871  0.3885
 2510TIP3    H2 7537   2.124   4.465   4.977 -0.2180 -0.5802 -1.5082
 2511TIP3   OH2 7538   5.144   2.668   4.945  0.0631  0.0658 -0.1257
 2511TIP3    H1 7539   5.201   2.627   5.010 -1.0502 -0.4212  0.5835
 2511TIP3    H2 7540   5.077   2.714   4.997 -0.0833  0.7792 -0.9260
 2512TIP3   OH2 7541   1.789   5.409   3.893 -0.2110  0.0203  0.0548
 2512TIP3    H1 7542   1.759   5.470   3.825 -0.4494 -0.1791 -0.0213
 2512TIP3    H2 7543   1.759   5.448   3.975 -1.8625 -0.8236 -0.0997
 2513TIP3   OH2 7544   0.845   4.555   3.627 -0.3362  0.0609 -0.2024
 2513TIP3    H1 7545   0.776   4.533   3.688  1.6616 -3.7244  0.9729
 2513TIP3    H2 7546   0.835   4.494   3.554  0.8692  0.4614 -0.7509
 2514TIP3   OH2 7547   1.297   5.492   4.440  0.1677 -0.5518  0.4975
 2514TIP3    H1 7548   1.287   5.576   4.485 -3.0480 -0.8771  0.6078
 2514TIP3    H2 7549   1.313   5.515   4.349 -0.6300  0.2133  0.5406
 2515TIP3   OH2 7550   2.156   4.068   2.656  0.0294  0.0710  0.1422
 2515TIP3    H1 7551   2.065   4.099   2.658 -0.3674 -1.0209  0.0193
 2515TIP3    H2 7552   2.148   3.973   2.668  1.0301 -0.2764 -1.6619
 2516TIP3   OH2 7553   0.893   2.379   0.780  0.4195  0.0105 -0.0416
 2516TIP3    H1 7554   0.937   2.294   0.782  3.5108  1.4632  1.0781
 2516TIP3    H2 7555   0.853   2.388   0.867  2.0402  0.5371  0.6918
 2517TIP3   OH2 7556   3.075   2.464   3.161 -0.0979  0.1258 -0.3446
 2517TIP3    H1 7557   3.065   2.493   3.251 -1.5427 -0.6780 -0.2057
 2517TIP3    H2 7558   3.068   2.368   3.165 -2.6453  0.1699 -1.5108
 2518TIP3   OH2 7559   4.792   3.684   1.155  0.5832  0.5080 -0.8762
 2518TIP3    H1 7560   4.884   3.679   1.183 -0.1624 -0.6657  1.7339
 2518TIP3    H2 7561   4.775   3.600   1.112  0.5512  0.3750 -0.6112
 2519TIP3   OH2 7562   6.256   1.845   1.037  0.3612 -0.2832 -0.4531
 2519TIP3    H1 7563   6.293   1.759   1.058 -2.7290 -1.6496  0.0623
 2519TIP3    H2 7564   6.221   1.834   0.948  2.3928  1.4468 -1.5589
 2520TIP3   OH2 7565   0.614   2.143   4.611 -0.4012 -0.3297  0.6602
 2520TIP3    H1 7566   0.646   2.229   4.638  0.6717 -1.1068  2.0036
 2520TIP3    H2 7567   0.560   2.113   4.684 -2.1740 -0.1438 -0.4974
 2521TIP3   OH2 7568   0.979   4.720   4.258  0.1052 -0.2544  0.5827
 2521TIP3    H1 7569   0.894   4.751   4.289  1.4929  1.7963  2.6892
 2521TIP3    H2 7570   0.989   4.634   4.297 -0.7265 -0.2319  0.8659
 2522TIP3   OH2 7571   3.933   3.376   1.180 -0.5050 -0.3614  0.1328
 2522TIP3    H1 7572   3.963   3.464   1.204  0.9235 -0.4415 -1.2131
 2522TIP3    H2 7573   3.991   3.317   1.229  0.0920 -0.5193 -0.7322
 2523TIP3   OH2 7574   5.005   1.349   3.349 -1.1252  0.2322  0.1896
 2523TIP3    H1 7575   5.056   1.392   3.417  1.3321 -0.1555 -1.2962
 2523TIP3    H2 7576   4.949   1.418   3.313 -1.6046  0.7010  1.7542
 2524TIP3   OH2 7577   4.144   2.195   1.796 -0.0512 -0.5817  0.1873
 2524TIP3    H1 7578   4.152   2.115   1.745  0.4249 -1.1833  1.1745
 2524TIP3    H2 7579   4.233   2.216   1.823 -0.3767 -0.8581  1.5982
 2525TIP3   OH2 7580   1.310   5.625   3.459  0.3839 -0.3513 -0.0979
 2525TIP3    H1 7581   1.252   5.681   3.510 -0.2413 -1.5087  0.4808
 2525TIP3    H2 7582   1.294   5.537   3.491  2.3793 -0.7366  0.0100
 2526TIP3   OH2 7583   0.249   2.957   0.015 -0.2313  0.0903 -0.3965
 2526TIP3    H1 7584   0.182   3.020   0.042 -0.3408 -1.1311  2.6124
 2526TIP3    H2 7585   0.311   2.956   0.088  3.1851  1.1683 -3.0675
 2527TIP3   OH2 7586   2.841   4.358   3.166  0.3397  0.0772  0.1528
 2527TIP3    H1 7587   2.871   4.399   3.085  0.2511 -0.9796 -0.4199
 2527TIP3    H2 7588   2.916   4.366   3.226  0.3148  1.0869  0.0730
 2528TIP3   OH2 7589   4.335   1.815   1.612 -0.1603  0.1374 -0.0295
 2528TIP3    H1 7590   4.325   1.797   1.519 -0.1213 -1.1919  0.2117
 2528TIP3    H2 7591   4.430   1.825   1.624  0.2838 -3.3779  0.4472
 2529TIP3   OH2 7592   1.228   1.389   3.891  0.2828 -0.1315  0.2098
 2529TIP3    H1 7593   1.140   1.404   3.855  0.9627 -0.2129 -1.6013
 2529TIP3    H2 7594   1.247   1.469   3.941 -0.5627  0.1582  0.0817
 2530TIP3   OH2 7595   2.859   3.153   4.143 -0.4119  0.4680 -0.4532
 2530TIP3    H1 7596   2.915   3.205   4.199 -1.3771 -1.2679  2.3288
 2530TIP3    H2 7597   2.771   3.162   4.181 -0.9432 -1.5183 -1.0670
 2531TIP3   OH2 7598   5.588   2.484   0.859  0.5548 -0.2410  0.1596
 2531TIP3    H1 7599   5.579   2.480   0.764  1.6069  0.9013 -0.0170
 2531TIP3    H2 7600   5.520   2.425   0.892 -0.7611  0.4108 -1.2471
 2532TIP3   OH2 7601   0.240   5.714   3.432 -0.2662 -0.4891 -0.5512
 2532TIP3    H1 7602   0.299   5.714   3.357 -1.0237  0.9146 -1.2037
 2532TIP3    H2 7603   0.211   5.623   3.441  0.9128 -0.9313 -1.0675
 2533TIP3   OH2 7604   0.836   5.957   1.390 -0.4242  0.2786 -0.2720
 2533TIP3    H1 7605   0.867   5.993   1.473  1.8638  0.5130 -1.1582
 2533TIP3    H2 7606   0.795   5.874   1.413 -1.2430  1.0609  1.2306
 2534TIP3   OH2 7607   4.346   1.407   2.261 -0.4560  0.0591 -0.1716
 2534TIP3    H1 7608   4.263   1.436   2.299 -1.4960 -2.2110 -0.5917
 2534TIP3    H2 7609   4.353   1.456   2.179 -1.5497  0.0242 -0.2931
 2535TIP3   OH2 7610   3.005   1.333   3.567 -0.0329  0.0590 -0.0975
 2535TIP3    H1 7611   2.964   1.417   3.589 -1.0423 -0.4139 -0.1340
 2535TIP3    H2 7612   3.085   1.331   3.621 -0.2626  0.8175  0.2833
 2536TIP3   OH2 7613   6.306   2.572   4.314  0.0033  0.2293  0.1279
 2536TIP3    H1 7614   6.389   2.615   4.289  0.1655  0.4214  0.9813
 2536TIP3    H2 7615   6.330   2.512   4.384 -0.6814  0.7483  0.8226
 2537TIP3   OH2 7616   1.297   5.504   2.692 -0.2640  0.3087 -0.6528
 2537TIP3    H1 7617   1.311   5.599   2.693  1.3735  0.1238  1.5728
 2537TIP3    H2 7618   1.204   5.493   2.672 -0.5074  2.3833 -0.8237
 2538TIP3   OH2 7619   0.030   2.640   0.689 -0.0475 -0.0346  0.0100
 2538TIP3    H1 7620   0.095   2.582   0.650 -3.8369 -2.1193 -4.0307
 2538TIP3    H2 7621  -0.025   2.583   0.743 -0.2306  1.1658  1.1638
 2539TIP3   OH2 7622   3.698   0.666   3.110 -0.2601 -0.1125 -0.2475
 2539TIP3    H1 7623   3.772   0.640   3.164  0.7212  0.1748 -1.4107
 2539TIP3    H2 7624   3.668   0.749   3.149  0.9477  0.5088 -0.6047
 2540TIP3   OH2 7625   1.628   0.360   5.176 -0.8956  0.0834  0.3360
 2540TIP3    H1 7626   1.651   0.292   5.112 -0.5069  0.1420  0.4137
 2540TIP3    H2 7627   1.595   0.311   5.252 -1.6885  0.0249 -0.0332
 2541TIP3   OH2 7628   3.422   1.606   3.504 -0.3831 -0.1661  0.5671
 2541TIP3    H1 7629   3.506   1.639   3.534  0.7391 -1.2419 -1.2435
 2541TIP3    H2 7630   3.357   1.655   3.555  1.3125  1.0760  1.6051
 2542TIP3   OH2 7631   2.597   5.467   2.340  0.5863  0.2556  0.3259
 2542TIP3    H1 7632   2.507   5.437   2.328  0.6801 -0.0448  0.3642
 2542TIP3    H2 7633   2.641   5.445   2.258  0.7007  0.1324  0.4209
 2543TIP3   OH2 7634   1.899   3.249   2.452 -0.4866  0.0265 -0.2450
 2543TIP3    H1 7635   1.846   3.177   2.417 -2.3385  0.5279  1.3446
 2543TIP3    H2 7636   1.907   3.310   2.378 -0.7240 -0.8274 -0.9949
 2544TIP3   OH2 7637   2.210   5.088   2.811  0.2988 -0.3247 -0.1286
 2544TIP3    H1 7638   2.278   5.021   2.803  0.6164  0.1524 -2.1565
 2544TIP3    H2 7639   2.258   5.168   2.831 -0.0068 -0.5150  1.5068
 2545TIP3   OH2 7640   1.979   1.845   0.817  0.7151 -0.0381 -0.0644
 2545TIP3    H1 7641   1.943   1.925   0.779 -1.6534 -0.9064  0.1852
 2545TIP3    H2 7642   1.977   1.861   0.911 -0.1811 -0.5114  0.0108
 2546TIP3   OH2 7643   6.150   2.877   1.067  0.2387  0.4417 -0.3330
 2546TIP3    H1 7644   6.105   2.959   1.088 -0.2067  0.3573 -0.9420
 2546TIP3    H2 7645   6.082   2.810   1.076 -0.2525  0.4961 -2.9783
 2547TIP3   OH2 7646   1.814   4.790   1.193 -0.3646  0.1815  0.5002
 2547TIP3    H1 7647   1.836   4.869   1.242  2.0452  1.1954 -1.9617
 2547TIP3    H2 7648   1.888   4.730   1.209 -1.3259 -0.9312  0.9593
 2548TIP3   OH2 7649   3.329   1.654   2.101 -0.8848 -0.4793 -0.6997
 2548TIP3    H1 7650   3.283   1.614   2.175 -0.0642 -1.8408 -0.8820
 2548TIP3    H2 7651   3.266   1.648   2.029 -1.7554  1.0217 -0.1023
 2549TIP3   OH2 7652   2.933   1.879   2.585  0.1786 -0.6784 -0.0385
 2549TIP3    H1 7653   2.941   1.974   2.586 -0.6709 -0.5492  2.5411
 2549TIP3    H2 7654   2.848   1.863   2.543  0.2212 -0.2760 -0.2824
 2550TIP3   OH2 7655   3.259   5.836   1.600  0.2026  0.6288 -0.2697
 2550TIP3    H1 7656   3.254   5.821   1.694  0.6187 -0.4255 -0.4086
 2550TIP3    H2 7657   3.353   5.845   1.582  0.0672  2.0532 -0.4182
 2551TIP3   OH2 7658   4.029   0.281   0.136  0.1490  0.5764 -0.0711
 2551TIP3    H1 7659   4.017   0.187   0.120 -0.7229  0.9248 -1.7052
 2551TIP3    H2 7660   4.016   0.322   0.050 -1.2062  2.3539  0.9026
 2552TIP3   OH2 7661   0.541   0.704   0.696  0.2870  0.4980  0.1999
 2552TIP3    H1 7662   0.479   0.705   0.769  0.5777  0.1985  0.4532
 2552TIP3    H2 7663   0.598   0.779   0.713  0.3620  0.4212  0.2813
 2553TIP3   OH2 7664   4.590   5.099   4.586 -0.2936 -0.5086  0.0703
 2553TIP3    H1 7665   4.629   5.114   4.500  1.1447 -1.3790  0.5217
 2553TIP3    H2 7666   4.602   5.005   4.602  0.3611 -0.2061  1.6025
 2554TIP3   OH2 7667   3.601   1.106   2.874 -0.3328 -0.2745 -0.1245
 2554TIP3    H1 7668   3.621   1.188   2.919  0.3340 -0.5770  0.1489
 2554TIP3    H2 7669   3.505   1.103   2.869 -0.3659  0.3707  0.1381
 2555TIP3   OH2 7670   5.263   5.486   3.760  0.1537 -0.3698 -0.3029
 2555TIP3    H1 7671   5.258   5.429   3.683  2.0023 -0.5252 -0.3501
 2555TIP3    H2 7672   5.275   5.574   3.724 -2.9314  0.2130 -0.2398
 2556TIP3   OH2 7673   4.084   4.773   3.127  0.1515  0.2064  0.5322
 2556TIP3    H1 7674   4.177   4.789   3.145  1.3312  0.6613 -4.4313
 2556TIP3    H2 7675   4.080   4.682   3.099 -0.4944  0.5980 -0.7645
 2557TIP3   OH2 7676   3.356   0.725   4.872 -0.0655  0.8410  0.6466
 2557TIP3    H1 7677   3.434   0.709   4.924  0.4208  0.6023 -0.1382
 2557TIP3    H2 7678   3.384   0.786   4.804 -0.1240 -0.4585 -0.6015
 2558TIP3   OH2 7679   2.767   2.458   0.635 -0.0989 -0.1543 -0.4087
 2558TIP3    H1 7680   2.771   2.405   0.556 -1.1943 -2.0519  0.7128
 2558TIP3    H2 7681   2.748   2.395   0.705  1.5841  1.3237  1.5130
 2559TIP3   OH2 7682   5.103   1.493   2.639  0.1948  0.5354 -0.5395
 2559TIP3    H1 7683   5.106   1.422   2.703  0.1873 -0.9667 -2.1102
 2559TIP3    H2 7684   5.032   1.550   2.669 -0.2266 -0.4694  0.4461
 2560TIP3   OH2 7685   5.965   3.520   1.826  0.1538  0.0779 -0.5722
 2560TIP3    H1 7686   5.941   3.570   1.748  1.1096 -0.6077 -1.3272
 2560TIP3    H2 7687   6.029   3.575   1.871 -0.7351  0.6775 -0.0090
 2561TIP3   OH2 7688   1.195   4.837   2.206  0.1728  0.6316  0.0743
 2561TIP3    H1 7689   1.111   4.854   2.162 -0.5381 -0.8297  0.7756
 2561TIP3    H2 7690   1.192   4.743   2.226  2.3496  0.3690 -0.5961
 2562TIP3   OH2 7691   0.291   5.543   2.708 -0.2833 -0.3633 -0.3990
 2562TIP3    H1 7692   0.279   5.606   2.780  1.7483 -0.9252  0.5022
 2562TIP3    H2 7693   0.327   5.596   2.637 -0.7125 -0.1139 -0.4380
 2563TIP3   OH2 7694   0.935   1.866   2.986 -0.1012 -0.2586  0.1987
 2563TIP3    H1 7695   0.943   1.885   2.893  1.1172 -1.2352  0.0750
 2563TIP3    H2 7696   1.007   1.915   3.027  0.6774 -1.4781  0.3406
 2564TIP3   OH2 7697   0.599   5.508   4.317  0.5418 -0.1651 -0.0372
 2564TIP3    H1 7698   0.617   5.521   4.224  0.4759 -1.7143 -0.3049
 2564TIP3    H2 7699   0.684   5.485   4.355  0.3809 -0.6546  0.0437
 2565TIP3   OH2 7700   3.827   1.229   0.075  1.2022 -0.3379  0.4200
 2565TIP3    H1 7701   3.848   1.211   0.166 -0.5147  0.2218  0.9664
 2565TIP3    H2 7702   3.832   1.143   0.032  1.9425 -0.6194  1.0475
 2566TIP3   OH2 7703   4.515   4.041   2.153  0.1853 -0.4628 -0.4100
 2566TIP3    H1 7704   4.572   4.075   2.223  0.9819  1.1935 -1.7589
 2566TIP3    H2 7705   4.427   4.071   2.177  0.3674 -0.3712  0.1589
 2567TIP3   OH2 7706   6.323   1.844   3.174  0.6222  0.4027 -0.1291
 2567TIP3    H1 7707   6.231   1.871   3.174  0.1630 -0.9841 -1.7304
 2567TIP3    H2 7708   6.332   1.792   3.254 -0.4294 -0.7221 -0.6969
 2568TIP3   OH2 7709   1.971   4.295   3.334  0.2871  0.9674 -0.8078
 2568TIP3    H1 7710   1.913   4.286   3.410  0.2598  0.0862 -0.9201
 2568TIP3    H2 7711   2.058   4.276   3.368  0.0440 -1.4391 -1.3536
 2569TIP3   OH2 7712   6.292   0.191   3.586  0.0527  0.6838  0.2777
 2569TIP3    H1 7713   6.234   0.226   3.519  0.3724  0.0735 -0.3182
 2569TIP3    H2 7714   6.241   0.198   3.667 -0.8765  0.1053 -0.2440
 2570TIP3   OH2 7715   3.442   4.487   3.931 -0.1606 -0.2210  0.5105
 2570TIP3    H1 7716   3.386   4.558   3.900  0.0755 -0.1121  0.3272
 2570TIP3    H2 7717   3.381   4.415   3.949 -0.3550 -0.1270  0.2509
 2571TIP3   OH2 7718   3.671   3.502   4.950 -0.5022  0.8401 -0.1224
 2571TIP3    H1 7719   3.593   3.546   4.984 -0.9019  0.0691 -0.0166
 2571TIP3    H2 7720   3.724   3.572   4.913 -0.2730  1.6526  1.6352
 2572TIP3   OH2 7721   3.913   4.837   1.497 -0.3609  0.5610  0.0225
 2572TIP3    H1 7722   4.001   4.872   1.507  0.1080 -0.2923 -0.9569
 2572TIP3    H2 7723   3.891   4.802   1.583  1.5642 -2.1488 -0.4876
 2573TIP3   OH2 7724   3.500   5.217   3.267  0.0759 -0.1089 -0.7221
 2573TIP3    H1 7725   3.482   5.311   3.271  1.1824  0.1218  2.6119
 2573TIP3    H2 7726   3.418   5.175   3.291 -0.0355  0.1038 -0.7364
 2574TIP3   OH2 7727   1.122   0.755   0.081 -0.2523  0.4590 -0.5710
 2574TIP3    H1 7728   1.182   0.702   0.134 -2.0925  0.5739  1.7666
 2574TIP3    H2 7729   1.048   0.696   0.064 -0.9891  1.3498 -0.4828
 2575TIP3   OH2 7730   3.377   5.860   1.878 -0.2809 -0.6769 -0.1930
 2575TIP3    H1 7731   3.347   5.869   1.968 -1.2046 -1.6399 -0.3749
 2575TIP3    H2 7732   3.417   5.773   1.875  0.6140 -0.2587 -0.4782
 2576TIP3   OH2 7733   1.563   1.710   3.111  0.2783 -0.0525 -0.2352
 2576TIP3    H1 7734   1.500   1.775   3.081  0.3583  0.4063  0.5895
 2576TIP3    H2 7735   1.512   1.648   3.162  0.3723 -0.0833 -0.1784
 2577TIP3   OH2 7736   6.078   2.696   1.668  0.0214  0.2700 -0.2811
 2577TIP3    H1 7737   6.158   2.710   1.719  1.5072  0.4005 -2.5400
 2577TIP3    H2 7738   6.063   2.779   1.623  0.1657 -0.5584 -1.9236
 2578TIP3   OH2 7739   4.175   2.757   4.825 -0.3573  0.0205 -0.4493
 2578TIP3    H1 7740   4.122   2.724   4.897  1.5303 -1.0136  0.5586
 2578TIP3    H2 7741   4.138   2.842   4.804 -1.6751 -0.1741  0.9598
 2579TIP3   OH2 7742   3.358   2.770   3.478  0.0471 -0.2143  0.0772
 2579TIP3    H1 7743   3.373   2.791   3.570  1.4018 -1.8946  0.2951
 2579TIP3    H2 7744   3.358   2.854   3.433  0.0383  0.5840  1.5205
 2580TIP3   OH2 7745   0.984   3.481   2.952 -0.2830  0.1351 -0.6954
 2580TIP3    H1 7746   0.957   3.461   2.863  1.3556 -1.1228 -0.9460
 2580TIP3    H2 7747   1.055   3.545   2.942 -0.6668  0.6497 -0.2323
 2581TIP3   OH2 7748   4.679   1.419   3.457 -0.0039 -0.2702 -0.0782
 2581TIP3    H1 7749   4.718   1.430   3.544 -0.4231  0.4440  0.0194
 2581TIP3    H2 7750   4.729   1.479   3.401 -0.8801  0.5670  0.0243
 2582TIP3   OH2 7751   5.334   3.173   5.137 -0.1856  0.4373 -0.1021
 2582TIP3    H1 7752   5.281   3.121   5.197  3.5383 -1.4053  1.9233
 2582TIP3    H2 7753   5.305   3.263   5.152 -1.9458 -0.3355  1.6241
 2583TIP3   OH2 7754   3.549   5.519   3.903 -0.1422 -0.1125 -0.1244
 2583TIP3    H1 7755   3.592   5.434   3.907  1.9757  0.9438  2.2853
 2583TIP3    H2 7756   3.464   5.506   3.945  0.2211 -1.0041  0.3486
 2584TIP3   OH2 7757   6.285   4.133   0.582  0.1144 -0.5856 -0.0284
 2584TIP3    H1 7758   6.354   4.068   0.568  1.4952  1.2519 -2.6174
 2584TIP3    H2 7759   6.231   4.128   0.504 -1.0724 -0.0715  0.7329
 2585TIP3   OH2 7760   4.549   3.553   4.453  0.8782 -0.3648  0.4862
 2585TIP3    H1 7761   4.484   3.561   4.523  0.3904  3.2906 -0.1640
 2585TIP3    H2 7762   4.633   3.566   4.497  0.6290  1.1307  0.5889
 2586TIP3   OH2 7763   2.923   4.559   2.167 -0.2859  1.0852 -0.0417
 2586TIP3    H1 7764   2.969   4.623   2.221  1.0605  0.2787 -0.1807
 2586TIP3    H2 7765   2.990   4.494   2.145 -0.6015  1.6825 -3.2082
 2587TIP3   OH2 7766   2.369   2.092   0.958  0.1365 -0.2148 -0.1338
 2587TIP3    H1 7767   2.334   2.176   0.928 -3.3765 -1.5305 -0.1591
 2587TIP3    H2 7768   2.389   2.106   1.051  0.9029  0.9754 -0.4572
 2588TIP3   OH2 7769   4.518   2.609   0.746  0.1564  0.0212  0.2189
 2588TIP3    H1 7770   4.474   2.524   0.755  0.0350  0.0763  0.1564
 2588TIP3    H2 7771   4.472   2.666   0.808  0.3937 -0.0189  0.4346
 2589TIP3   OH2 7772   1.697   3.894   2.995  0.0233 -0.2554  0.0735
 2589TIP3    H1 7773   1.729   3.975   3.035  0.4761  0.3438 -1.4306
 2589TIP3    H2 7774   1.602   3.898   3.007  0.1951 -0.5085  1.7838
 2590TIP3   OH2 7775   2.187   1.131   0.483  0.2033 -0.4727 -0.2847
 2590TIP3    H1 7776   2.104   1.111   0.527  0.6088 -2.4449 -0.3199
 2590TIP3    H2 7777   2.253   1.082   0.532  1.2779  0.5873 -0.6254
 2591TIP3   OH2 7778   0.380   2.565   1.524  0.2616 -0.0025 -0.1073
 2591TIP3    H1 7779   0.362   2.582   1.617 -2.1566 -1.2871 -0.2670
 2591TIP3    H2 7780   0.294   2.548   1.486  1.4122 -1.6266 -2.1579
 2592TIP3   OH2 7781   5.027   2.571   2.115  0.4278  0.1479 -0.1515
 2592TIP3    H1 7782   5.111   2.555   2.158  0.6978  1.2962 -0.2309
 2592TIP3    H2 7783   5.012   2.665   2.125 -1.6273 -0.2529  1.2655
 2593TIP3   OH2 7784   3.932   0.228   3.763 -0.2149  0.6141  0.6075
 2593TIP3    H1 7785   3.995   0.186   3.704 -0.1693  0.8079  0.5194
 2593TIP3    H2 7786   3.916   0.314   3.725 -0.2307  0.7188  0.8441
 2594TIP3   OH2 7787   5.313   0.473   0.842  0.0430 -0.3046  0.5517
 2594TIP3    H1 7788   5.234   0.481   0.896  0.1196  0.4956  0.5589
 2594TIP3    H2 7789   5.281   0.472   0.752  0.0110 -0.2298  0.5626
 2595TIP3   OH2 7790   0.641   0.098   1.091 -0.1977 -0.2769  0.5963
 2595TIP3    H1 7791   0.578   0.048   1.039 -0.0874 -0.3051  0.4907
 2595TIP3    H2 7792   0.603   0.100   1.179  0.0668 -1.0175  0.7376
 2596TIP3   OH2 7793   6.319   3.734   4.254  0.5985 -0.1098  0.1218
 2596TIP3    H1 7794   6.388   3.788   4.215 -0.6829  0.9038 -0.8323
 2596TIP3    H2 7795   6.336   3.646   4.220  0.4496  0.4556 -1.4972
 2597TIP3   OH2 7796   2.232   0.120   3.382 -0.1985 -0.1921  0.1465
 2597TIP3    H1 7797   2.239   0.071   3.464  0.0873 -1.1642 -0.4392
 2597TIP3    H2 7798   2.262   0.058   3.315 -0.0540  0.7177 -0.6425
 2598TIP3   OH2 7799   6.159   0.725   3.318 -0.0211 -0.2566 -0.2400
 2598TIP3    H1 7800   6.139   0.749   3.408 -0.8320 -0.2340 -0.4205
 2598TIP3    H2 7801   6.248   0.690   3.321 -0.2452 -0.7593  0.6555
 2599TIP3   OH2 7802   4.465   5.287   1.072  0.0423  0.2508  0.1064
 2599TIP3    H1 7803   4.494   5.373   1.041  1.9149  0.0131  1.0429
 2599TIP3    H2 7804   4.545   5.246   1.107 -1.0555 -1.3565  0.8568
 2600TIP3   OH2 7805   4.368   3.466   3.131  0.2564 -0.7020 -0.1655
 2600TIP3    H1 7806   4.447   3.461   3.185 -0.4979 -0.1672  1.0293
 2600TIP3    H2 7807   4.347   3.374   3.111  2.5407 -0.8197 -2.6558
 2601TIP3   OH2 7808   1.437   5.692   2.423 -0.0986 -0.3016  0.1998
 2601TIP3    H1 7809   1.366   5.726   2.369  1.3181  1.8502 -0.4451
 2601TIP3    H2 7810   1.431   5.742   2.505  0.5858 -0.1955  0.1897
 2602TIP3   OH2 7811   2.832   2.913   0.043  0.2002  0.1471  0.3871
 2602TIP3    H1 7812   2.781   2.952   0.113  0.4761 -0.4313  0.9168
 2602TIP3    H2 7813   2.769   2.897  -0.027 -0.0654  0.7725  0.4825
 2603TIP3   OH2 7814   5.184   0.051   1.783 -0.2442 -0.9468 -0.0741
 2603TIP3    H1 7815   5.196  -0.035   1.743 -0.5269  0.0137 -2.3311
 2603TIP3    H2 7816   5.090   0.059   1.795 -0.1283 -1.5309  1.6459
 2604TIP3   OH2 7817   1.167   1.927   0.090  0.3747 -0.3561  0.2107
 2604TIP3    H1 7818   1.124   1.843   0.080 -1.8143  0.6937  0.2923
 2604TIP3    H2 7819   1.212   1.942   0.007  1.6178 -1.9774  0.5325
 2605TIP3   OH2 7820   0.533   1.466   5.150  0.1869 -0.0783  0.8763
 2605TIP3    H1 7821   0.588   1.407   5.098 -1.0895  0.0987 -0.7531
 2605TIP3    H2 7822   0.595   1.528   5.190  1.4003 -1.5691  1.4008
 2606TIP3   OH2 7823   0.713   1.616   2.839 -0.4122  0.6314  0.2247
 2606TIP3    H1 7824   0.711   1.595   2.932  0.4196 -1.1001 -0.1156
 2606TIP3    H2 7825   0.699   1.711   2.836  3.5099  1.5119  2.4195
 2607TIP3   OH2 7826   5.426   1.341   3.055 -0.3607 -0.0036 -0.0707
 2607TIP3    H1 7827   5.446   1.297   2.972  0.4440  0.4110 -0.1026
 2607TIP3    H2 7828   5.361   1.408   3.031 -0.5714 -0.2718 -0.2583
 2608TIP3   OH2 7829   1.092   3.923   2.933  0.1475 -0.0130  0.3102
 2608TIP3    H1 7830   1.009   3.968   2.921  0.4116  0.0147 -1.9515
 2608TIP3    H2 7831   1.068   3.838   2.969 -1.1449 -0.7581 -2.0507
 2609TIP3   OH2 7832   2.423   4.149   3.743  0.2630 -0.0691 -0.1949
 2609TIP3    H1 7833   2.487   4.213   3.711  1.8876 -1.4150  0.2330
 2609TIP3    H2 7834   2.424   4.079   3.678 -0.9086 -0.0717 -0.2474
 2610TIP3   OH2 7835   0.839   1.602   1.822  0.3117  0.3347 -0.4557
 2610TIP3    H1 7836   0.900   1.530   1.804  0.3691  0.3703 -0.4056
 2610TIP3    H2 7837   0.896   1.675   1.848  0.2759  0.4918 -0.8075
 2611TIP3   OH2 7838   2.441   3.760   1.377  0.0046  0.0536 -0.3786
 2611TIP3    H1 7839   2.453   3.670   1.408  0.2567 -0.1368 -1.0013
 2611TIP3    H2 7840   2.370   3.795   1.430 -0.0341 -0.4896 -0.0690
 2612TIP3   OH2 7841   5.930   3.069   1.038  0.5590  0.6544 -0.5309
 2612TIP3    H1 7842   5.948   3.151   1.085  0.9329 -0.2660  1.0094
 2612TIP3    H2 7843   5.924   3.095   0.946  1.1590  2.3327 -0.1383
 2613TIP3   OH2 7844   1.415   4.286   5.061  1.0793  0.1530 -0.0150
 2613TIP3    H1 7845   1.374   4.372   5.062  3.2426  1.2788 -0.6171
 2613TIP3    H2 7846   1.361   4.234   5.002 -1.8314  0.1735  2.4079
 2614TIP3   OH2 7847   0.254   2.216   0.361  0.1245  0.5214  0.4110
 2614TIP3    H1 7848   0.160   2.215   0.377  0.4955 -0.2398  3.0194
 2614TIP3    H2 7849   0.276   2.125   0.342  0.6154  0.2556  2.1062
 2615TIP3   OH2 7850   4.448   1.750   5.173  0.8120 -0.0074 -0.0281
 2615TIP3    H1 7851   4.536   1.781   5.192  1.5273 -0.0796 -2.7908
 2615TIP3    H2 7852   4.461   1.664   5.133 -0.4944  0.0925 -0.7139
 2616TIP3   OH2 7853   4.799   0.906   4.448 -0.7138 -0.5727 -0.7434
 2616TIP3    H1 7854   4.790   0.962   4.525 -2.0660 -1.0619 -0.5211
 2616TIP3    H2 7855   4.711   0.902   4.411 -0.2953 -1.2194 -1.6974
 2617TIP3   OH2 7856   3.712   0.205   1.392  0.0465 -0.1177  0.0266
 2617TIP3    H1 7857   3.622   0.175   1.408  0.1984 -0.6764 -0.1217
 2617TIP3    H2 7858   3.702   0.285   1.340 -0.3869  0.3680  0.8496
 2618TIP3   OH2 7859   4.565   2.440   4.792  0.3371  0.0903  0.5640
 2618TIP3    H1 7860   4.508   2.503   4.836  0.6201  0.0837  0.9477
 2618TIP3    H2 7861   4.647   2.444   4.840  0.3958 -0.4972  0.5258
 2619TIP3   OH2 7862   0.295   3.312   3.214  0.3299  0.2463 -0.4414
 2619TIP3    H1 7863   0.261   3.296   3.302  1.2900  0.5692 -0.0025
 2619TIP3    H2 7864   0.281   3.229   3.168  0.2994 -0.0983  0.1732
 2620TIP3   OH2 7865   3.734   5.766   3.942  0.3857  0.4065 -0.4255
 2620TIP3    H1 7866   3.663   5.704   3.961  1.2547  0.1262  2.5813
 2620TIP3    H2 7867   3.781   5.727   3.869  0.9923 -2.7302  1.4372
 2621TIP3   OH2 7868   4.153   4.137   5.155  0.0717  0.9104 -0.7958
 2621TIP3    H1 7869   4.150   4.105   5.245 -0.2060 -0.0300 -1.1300
 2621TIP3    H2 7870   4.247   4.147   5.136  0.2802 -1.3930 -1.2446
 2622TIP3   OH2 7871   3.058   3.337   1.922  0.2998  0.0087  0.2295
 2622TIP3    H1 7872   3.118   3.277   1.878  0.7196  0.3268  0.3553
 2622TIP3    H2 7873   3.083   3.424   1.890  2.6708  0.6344  3.2583
 2623TIP3   OH2 7874   5.945   3.595   3.370  0.5370 -0.2387 -0.0041
 2623TIP3    H1 7875   5.953   3.544   3.289  0.2714  0.4291 -0.4683
 2623TIP3    H2 7876   5.923   3.684   3.339  1.3185  0.2319  0.7637
 2624TIP3   OH2 7877   5.843   4.679   0.323  0.3246 -0.5043  0.7137
 2624TIP3    H1 7878   5.783   4.753   0.308  1.4500  0.6925  1.8924
 2624TIP3    H2 7879   5.786   4.607   0.348 -0.6417  0.7112  2.1900
 2625TIP3   OH2 7880   5.079   0.752   4.123 -0.5817  0.3405 -0.1641
 2625TIP3    H1 7881   5.092   0.766   4.029  0.9885 -0.2176 -0.0537
 2625TIP3    H2 7882   5.063   0.659   4.132  0.8481  0.1078  0.2469
 2626TIP3   OH2 7883   1.441   0.656   0.661  0.1722  0.0702  0.1919
 2626TIP3    H1 7884   1.489   0.738   0.676 -0.2661  0.2914  0.3988
 2626TIP3    H2 7885   1.505   0.599   0.619 -0.0095  1.1012 -1.5842
 2627TIP3   OH2 7886   5.671   3.246   1.607 -0.0187  0.2341 -0.3008
 2627TIP3    H1 7887   5.590   3.196   1.612 -0.1812  0.3491 -1.4206
 2627TIP3    H2 7888   5.679   3.270   1.514 -0.1726  2.6124  0.2307
 2628TIP3   OH2 7889   4.932   1.307   1.659  0.2369 -0.0921 -0.4491
 2628TIP3    H1 7890   4.866   1.377   1.655  1.9694  1.6423 -0.2905
 2628TIP3    H2 7891   4.881   1.226   1.667 -1.8387  1.1834 -0.0293
 2629TIP3   OH2 7892   4.141   3.831   2.566  0.1310  0.0679  0.0476
 2629TIP3    H1 7893   4.182   3.854   2.650  1.0272  1.5071 -0.7425
 2629TIP3    H2 7894   4.049   3.852   2.579 -0.0342 -1.1773  1.1472
 2630TIP3   OH2 7895   3.149   3.568   3.904 -0.0760  0.0558  0.2351
 2630TIP3    H1 7896   3.075   3.600   3.852  0.2527  0.2252 -0.1368
 2630TIP3    H2 7897   3.114   3.559   3.993 -0.6781 -0.3482 -0.0316
 2631TIP3   OH2 7898   5.604   3.370   1.365  0.7174 -0.0617  0.1088
 2631TIP3    H1 7899   5.618   3.460   1.393  2.4177 -0.1494 -0.2983
 2631TIP3    H2 7900   5.636   3.369   1.275  0.3783 -0.9953 -0.0064
 2632TIP3   OH2 7901   3.338   1.948   1.446  0.1816 -0.7567 -0.1507
 2632TIP3    H1 7902   3.377   2.035   1.453  0.5396 -0.7784 -1.5542
 2632TIP3    H2 7903   3.295   1.947   1.360  0.2977 -1.9911 -0.2242
 2633TIP3   OH2 7904   5.489   0.903   5.102 -0.6729 -0.0751 -0.2331
 2633TIP3    H1 7905   5.445   0.891   5.186 -0.6514  0.6618 -0.1148
 2633TIP3    H2 7906   5.431   0.861   5.038 -0.9557 -0.1562  0.0747
 2634TIP3   OH2 7907   0.614   0.078   2.540 -0.0008  0.0590  0.4446
 2634TIP3    H1 7908   0.664   0.120   2.470  1.3675 -2.6921 -0.4056
 2634TIP3    H2 7909   0.664  -0.002   2.560 -1.5286 -0.3692  3.0449
 2635TIP3   OH2 7910   2.511   1.638   1.839 -0.2485 -0.3326  0.0347
 2635TIP3    H1 7911   2.438   1.700   1.840  1.7544  2.1996  1.0034
 2635TIP3    H2 7912   2.490   1.576   1.909 -2.2052 -0.6703 -0.7980
 2636TIP3   OH2 7913   5.276   2.617   3.413  0.0411 -0.0856  0.4070
 2636TIP3    H1 7914   5.231   2.547   3.461 -1.0410 -0.8879 -1.6607
 2636TIP3    H2 7915   5.285   2.584   3.324 -2.9749  3.3512 -1.4451
 2637TIP3   OH2 7916   0.832   1.875   0.464 -0.0450 -0.3193 -0.4481
 2637TIP3    H1 7917   0.801   1.857   0.553 -0.2209  0.4146 -0.3534
 2637TIP3    H2 7918   0.927   1.865   0.470 -0.1728 -1.6613 -0.5184
 2638TIP3   OH2 7919   3.098   1.262   5.069  0.0123 -0.0648 -0.6657
 2638TIP3    H1 7920   3.137   1.226   5.149  0.5896  0.4346 -0.7166
 2638TIP3    H2 7921   3.102   1.191   5.006  0.2404 -0.2211 -0.4754
 2639TIP3   OH2 7922   5.226   3.157   3.985  0.5780 -0.3355 -0.1563
 2639TIP3    H1 7923   5.257   3.245   3.965  0.5640 -0.1556  0.5598
 2639TIP3    H2 7924   5.184   3.127   3.905 -1.0406  1.0246  0.1223
 2640TIP3   OH2 7925   5.044   5.486   4.376 -0.1893 -0.2393 -0.7218
 2640TIP3    H1 7926   5.053   5.581   4.374 -0.2599 -0.1633  1.2108
 2640TIP3    H2 7927   4.962   5.470   4.328 -1.4397  0.9018  0.9001
 2641TIP3   OH2 7928   3.888   3.132   0.740  0.2493 -0.2991  0.4306
 2641TIP3    H1 7929   3.951   3.156   0.808  0.5851  1.0233 -0.3321
 2641TIP3    H2 7930   3.881   3.210   0.685 -0.0768 -1.3291 -1.0191
 2642TIP3   OH2 7931   4.708   2.713   1.650  0.4614  0.3497  0.2462
 2642TIP3    H1 7932   4.803   2.711   1.641  0.4445  0.3487  0.0807
 2642TIP3    H2 7933   4.693   2.766   1.729  0.6283 -0.2430  0.6851
 2643TIP3   OH2 7934   6.263   5.434   2.408  0.3649 -0.7141  0.1164
 2643TIP3    H1 7935   6.171   5.460   2.397  0.5625 -0.1934 -0.3875
 2643TIP3    H2 7936   6.288   5.472   2.492  0.8687  1.5048 -0.9411
 2644TIP3   OH2 7937   6.102   3.935   4.241  0.5136 -0.2771  0.7437
 2644TIP3    H1 7938   6.157   4.000   4.283  0.6288  0.8940 -1.0949
 2644TIP3    H2 7939   6.162   3.881   4.190  0.2124 -0.5514  0.6734
 2645TIP3   OH2 7940   2.230   0.084   0.355  0.7752  0.3005 -0.2892
 2645TIP3    H1 7941   2.136   0.064   0.353  0.8191  0.1679 -1.1152
 2645TIP3    H2 7942   2.273   0.006   0.320  1.0974  0.8837 -1.2336
 2646TIP3   OH2 7943   0.452   1.623   3.087 -0.0030 -0.0172 -0.3139
 2646TIP3    H1 7944   0.443   1.620   2.991  0.3047  2.9546 -0.5239
 2646TIP3    H2 7945   0.364   1.641   3.119 -0.2018 -1.4985  0.0609
 2647TIP3   OH2 7946   2.034   5.626   1.668 -0.6038 -0.0868 -0.1935
 2647TIP3    H1 7947   1.980   5.657   1.595  0.4729 -1.1023 -1.4532
 2647TIP3    H2 7948   1.977   5.636   1.745 -2.3141 -0.3796 -1.3571
 2648TIP3   OH2 7949   4.435   5.564   2.297 -0.3095 -0.4949 -0.1384
 2648TIP3    H1 7950   4.495   5.494   2.273 -1.2075 -1.8726  1.4043
 2648TIP3    H2 7951   4.463   5.590   2.385 -0.0651  1.0276 -0.6454
 2649TIP3   OH2 7952   4.059   2.194   2.078 -0.9322 -0.1026  0.0526
 2649TIP3    H1 7953   3.969   2.225   2.072 -0.7617  0.9693  2.0781
 2649TIP3    H2 7954   4.100   2.226   1.998 -2.1959 -0.0916 -0.6213
 2650TIP3   OH2 7955   4.923   3.702   0.721 -0.4742 -0.1299  0.1953
 2650TIP3    H1 7956   4.846   3.754   0.746 -0.0680  0.4933  0.1619
 2650TIP3    H2 7957   4.997   3.762   0.732  0.3132 -1.4066  2.4861
 2651TIP3   OH2 7958   1.145   5.754   1.275  0.1787  0.1037  0.3637
 2651TIP3    H1 7959   1.050   5.756   1.272 -0.0249 -1.9706  2.4049
 2651TIP3    H2 7960   1.169   5.811   1.348  0.7191  2.2070 -1.3543
 2652TIP3   OH2 7961   0.118   1.776   4.472 -0.2716  0.1541  0.2533
 2652TIP3    H1 7962   0.118   1.785   4.567 -1.7529  1.1558  0.1883
 2652TIP3    H2 7963   0.198   1.820   4.443  1.9552 -2.9153  1.1685
 2653TIP3   OH2 7964   6.050   0.914   1.899 -0.4550  0.0636 -0.0623
 2653TIP3    H1 7965   6.115   0.851   1.868  0.7962  0.9884  0.6198
 2653TIP3    H2 7966   6.100   0.992   1.921 -1.9404  1.2036 -0.5643
 2654TIP3   OH2 7967   6.210   4.301   4.314  0.0342  0.5440  0.5693
 2654TIP3    H1 7968   6.192   4.386   4.275  1.4247  0.3535 -0.5361
 2654TIP3    H2 7969   6.255   4.321   4.396 -0.5879  0.8829  0.8346
 2655TIP3   OH2 7970   1.441   5.297   4.552 -0.3134 -0.4746  0.4657
 2655TIP3    H1 7971   1.386   5.359   4.504  0.2002  0.6109  1.2427
 2655TIP3    H2 7972   1.384   5.263   4.622 -0.7130 -1.1938 -0.1963
 2656TIP3   OH2 7973   4.687   5.296   2.203 -0.1547  0.2230  0.2015
 2656TIP3    H1 7974   4.702   5.359   2.273  3.5740  0.5008 -0.6448
 2656TIP3    H2 7975   4.770   5.250   2.193 -1.4309 -1.8746 -2.0866
 2657TIP3   OH2 7976   0.450   1.067   4.228 -0.1226 -0.4334  0.1033
 2657TIP3    H1 7977   0.542   1.053   4.251  0.4502  2.3474 -0.1079
 2657TIP3    H2 7978   0.401   1.021   4.296  1.3536 -2.5449 -0.1433
 2658TIP3   OH2 7979   2.001   2.983   4.717  0.3319 -0.0219 -0.7049
 2658TIP3    H1 7980   2.049   3.021   4.644  0.4152  0.3262 -0.4740
 2658TIP3    H2 7981   2.028   3.035   4.793  0.5329 -0.6148 -0.3596
 2659TIP3   OH2 7982   5.469   3.584   2.261 -0.0841 -0.0545 -0.3009
 2659TIP3    H1 7983   5.435   3.629   2.183  0.1814  2.0552  0.7314
 2659TIP3    H2 7984   5.558   3.619   2.271 -0.5144  0.5739  1.5623
 2660TIP3   OH2 7985   5.731   5.644   2.811  0.3645 -0.0772 -0.5275
 2660TIP3    H1 7986   5.781   5.580   2.760  1.5172 -0.4735  0.9894
 2660TIP3    H2 7987   5.768   5.729   2.787 -0.0857 -0.1130 -1.3806
 2661TIP3   OH2 7988   4.742   5.804   4.251  0.3090  0.0438  0.0750
 2661TIP3    H1 7989   4.790   5.769   4.176  0.2995 -0.1206  0.1463
 2661TIP3    H2 7990   4.736   5.898   4.233  0.1669 -0.0192 -0.2078
 2662TIP3   OH2 7991   2.245   3.611   2.867 -0.0479  0.1521  0.4869
 2662TIP3    H1 7992   2.224   3.532   2.818 -0.6663  0.7522 -0.2450
 2662TIP3    H2 7993   2.332   3.595   2.903  0.0006 -0.6890  0.0083
 2663TIP3   OH2 7994   5.257   3.600   0.037 -0.0558  0.3164  0.7030
 2663TIP3    H1 7995   5.261   3.601  -0.059  1.5629 -1.7940  0.7005
 2663TIP3    H2 7996   5.165   3.580   0.056 -0.1895 -0.2414 -0.4192
 2664TIP3   OH2 7997   5.635   4.654   2.556 -0.1935  0.1669  0.5137
 2664TIP3    H1 7998   5.699   4.716   2.522  0.6341 -0.7821  0.2734
 2664TIP3    H2 7999   5.625   4.677   2.648  2.7407 -1.3986  1.3751
 2665TIP3   OH2 8000   5.554   1.605   1.008  0.1710  0.5501  0.0291
 2665TIP3    H1 8001   5.604   1.600   0.926  0.5362  0.9756  0.2250
 2665TIP3    H2 8002   5.580   1.527   1.056  0.4841  0.6552  0.0341
 2666TIP3   OH2 8003   3.567   3.480   4.062  0.5489 -0.8196 -0.4614
 2666TIP3    H1 8004   3.653   3.444   4.044  1.6470  1.1004  0.6081
 2666TIP3    H2 8005   3.563   3.488   4.157 -0.4826 -0.1629 -0.5363
 2667TIP3   OH2 8006   0.833   4.329   0.031  0.1364 -0.1880  0.2300
 2667TIP3    H1 8007   0.873   4.252  -0.011  0.4914 -0.5494  1.2068
 2667TIP3    H2 8008   0.835   4.309   0.125  0.1629  0.9807  0.4954
 2668TIP3   OH2 8009   3.931   4.401   3.300  0.5987  0.4207 -0.3728
 2668TIP3    H1 8010   3.940   4.310   3.269 -0.3484 -0.8913  2.8015
 2668TIP3    H2 8011   3.840   4.423   3.281  0.2826 -0.0394  0.5497
 2669TIP3   OH2 8012   3.836   5.898   4.351 -0.6636  0.0527  0.1601
 2669TIP3    H1 8013   3.891   5.909   4.429 -1.1724  1.2845  0.3741
 2669TIP3    H2 8014   3.750   5.931   4.379 -0.7648  0.8254 -1.0173
 2670TIP3   OH2 8015   4.616   0.607   2.829 -0.6113 -0.0400  0.3864
 2670TIP3    H1 8016   4.692   0.657   2.859 -1.0653  1.3902 -0.7599
 2670TIP3    H2 8017   4.543   0.640   2.881 -0.4710 -1.5159  1.5888
 2671TIP3   OH2 8018   0.926   3.331   2.707  0.6095 -0.3685  0.5734
 2671TIP3    H1 8019   0.834   3.307   2.700  0.5000  0.4027 -1.4674
 2671TIP3    H2 8020   0.974   3.249   2.698  0.1492 -0.4665 -1.3648
 2672TIP3   OH2 8021   2.734   3.516   3.576  0.3292  0.1438  0.0964
 2672TIP3    H1 8022   2.732   3.422   3.593 -0.1308  0.2018  0.3666
 2672TIP3    H2 8023   2.763   3.523   3.485 -2.3677 -0.3750 -0.8816
 2673TIP3   OH2 8024   3.613   3.272   1.222  0.2944 -0.1591 -0.3895
 2673TIP3    H1 8025   3.656   3.200   1.266 -1.4981 -1.2226 -0.2792
 2673TIP3    H2 8026   3.618   3.345   1.284  1.8796 -0.2245 -0.3995
 2674TIP3   OH2 8027   2.724   3.950   3.501 -0.0833  0.0865  0.1606
 2674TIP3    H1 8028   2.782   3.931   3.427  0.2989  1.8878 -0.0540
 2674TIP3    H2 8029   2.771   4.016   3.552 -1.5456  0.9389  0.4725
 2675TIP3   OH2 8030   3.499   4.962   1.568 -0.0730 -0.1557  0.0566
 2675TIP3    H1 8031   3.433   4.997   1.508  0.2579  0.4546  0.0362
 2675TIP3    H2 8032   3.568   4.929   1.510 -0.7701 -1.6741  0.0487
 2676TIP3   OH2 8033   4.933   5.355   0.139 -0.7314 -0.3960  0.1359
 2676TIP3    H1 8034   5.014   5.403   0.122 -0.3913 -1.0983 -0.2834
 2676TIP3    H2 8035   4.865   5.406   0.094 -0.2513 -0.7446 -1.0346
 2677TIP3   OH2 8036   2.646   1.131   4.853 -0.1704  0.3196 -0.5255
 2677TIP3    H1 8037   2.690   1.142   4.769 -0.2790  1.5499 -0.4345
 2677TIP3    H2 8038   2.686   1.196   4.910 -1.0124  0.4002 -0.0032
 2678TIP3   OH2 8039   2.855   4.884   1.990  0.3722 -0.8538 -0.0550
 2678TIP3    H1 8040   2.878   4.801   1.948 -1.6010 -1.1000 -0.7746
 2678TIP3    H2 8041   2.922   4.945   1.961  1.3566 -1.9920 -0.2419
 2679TIP3   OH2 8042   6.186   3.823   3.567  0.4190  0.1032  0.7267
 2679TIP3    H1 8043   6.212   3.912   3.592 -1.1670  0.8020  0.0207
 2679TIP3    H2 8044   6.224   3.767   3.635 -0.8483  1.6004  2.7716
 2680TIP3   OH2 8045   0.778   1.192   2.201  0.2396  0.2491  0.0559
 2680TIP3    H1 8046   0.860   1.182   2.249  0.8997  0.6725 -0.9616
 2680TIP3    H2 8047   0.780   1.281   2.167 -0.8399  0.4107  0.3496
 2681TIP3   OH2 8048   2.180   3.313   2.781  0.1576  0.1244  0.1936
 2681TIP3    H1 8049   2.197   3.257   2.857 -1.5165 -0.7186 -0.0076
 2681TIP3    H2 8050   2.086   3.329   2.784  0.4560  2.1763 -0.3076
 2682TIP3   OH2 8051   4.794   3.119   4.171 -0.2042 -0.1984 -0.3124
 2682TIP3    H1 8052   4.754   3.199   4.206  1.3251  0.6313 -0.3677
 2682TIP3    H2 8053   4.879   3.114   4.216  0.1146 -1.2806 -1.0137
 2683TIP3   OH2 8054   5.799   0.408   2.028 -0.0006 -1.4468  0.2587
 2683TIP3    H1 8055   5.712   0.386   1.994 -0.5711  0.7343  0.1335
 2683TIP3    H2 8056   5.846   0.443   1.952  0.7171 -1.8567  0.5057
 2684TIP3   OH2 8057   3.432   1.889   3.886  0.0361  0.1134 -0.1563
 2684TIP3    H1 8058   3.368   1.913   3.953 -0.5610  2.2538 -1.3752
 2684TIP3    H2 8059   3.466   1.804   3.914 -0.1864  0.8864  2.8110
 2685TIP3   OH2 8060   0.094   1.793   4.749  0.0291  0.0340  0.1623
 2685TIP3    H1 8061   0.076   1.731   4.819 -1.1896  2.0293  1.7412
 2685TIP3    H2 8062   0.053   1.875   4.778  3.3879  2.2343 -0.7021
 2686TIP3   OH2 8063   1.418   2.914   0.526 -0.0803  0.1083  0.2102
 2686TIP3    H1 8064   1.342   2.954   0.483  0.0333 -1.0002 -1.0817
 2686TIP3    H2 8065   1.493   2.962   0.493 -0.0768 -0.0365  0.0066
 2687TIP3   OH2 8066   3.896   2.346   1.800 -0.1985  0.1213 -0.2044
 2687TIP3    H1 8067   3.982   2.308   1.815  0.4205  0.6894 -1.9752
 2687TIP3    H2 8068   3.847   2.278   1.753 -0.1802  0.3251 -0.5281
 2688TIP3   OH2 8069   0.489   0.604   3.683  0.4119  0.0646 -0.3979
 2688TIP3    H1 8070   0.429   0.537   3.649  0.2288  0.5141 -0.9828
 2688TIP3    H2 8071   0.437   0.685   3.682  0.2399  0.0357  1.3915
 2689TIP3   OH2 8072   5.981   3.347   3.996 -0.1830 -0.4455 -0.2236
 2689TIP3    H1 8073   5.941   3.272   3.952 -1.0361 -0.4341  0.4944
 2689TIP3    H2 8074   5.948   3.342   4.086 -0.2595  0.7905 -0.1655
 2690TIP3   OH2 8075   5.640   3.181   5.085  0.3276  0.1879 -0.0825
 2690TIP3    H1 8076   5.679   3.268   5.087 -1.3641  1.0505 -1.3420
 2690TIP3    H2 8077   5.546   3.197   5.100  0.0904 -1.5076  0.4476
 2691TIP3   OH2 8078   4.255   0.296   0.487  0.2141  0.8337  0.6484
 2691TIP3    H1 8079   4.325   0.360   0.500 -0.6931  1.6727  1.6678
 2691TIP3    H2 8080   4.267   0.233   0.558  1.0435 -0.1000 -0.2938
 2692TIP3   OH2 8081   1.323   5.108   0.718 -0.0138 -0.3230 -0.1829
 2692TIP3    H1 8082   1.392   5.104   0.652 -0.8285 -2.2824 -0.9901
 2692TIP3    H2 8083   1.291   5.198   0.713  0.7405 -0.1018 -1.6335
 2693TIP3   OH2 8084   2.345   0.577   2.684  0.6199  0.2228 -0.3743
 2693TIP3    H1 8085   2.389   0.561   2.767  0.4520  0.4105 -0.2465
 2693TIP3    H2 8086   2.271   0.634   2.707  0.3990  0.0340 -0.6062
 2694TIP3   OH2 8087   3.060   4.100   4.871 -0.0601  0.3236 -1.1606
 2694TIP3    H1 8088   3.104   4.091   4.956 -0.1553  1.6240 -0.9459
 2694TIP3    H2 8089   3.131   4.097   4.807  0.0971  0.1503 -0.9811
 2695TIP3   OH2 8090   3.518   1.327   0.914 -0.3200 -0.2848  0.0518
 2695TIP3    H1 8091   3.458   1.312   0.988 -0.6592  2.0628  0.3345
 2695TIP3    H2 8092   3.483   1.404   0.871 -0.5304 -1.9588 -3.0584
 2696TIP3   OH2 8093   3.702   1.970   1.346 -0.6233  0.2888  0.2562
 2696TIP3    H1 8094   3.660   1.895   1.388  0.3827 -0.3182  0.2123
 2696TIP3    H2 8095   3.643   1.994   1.274 -0.5348 -1.0344 -0.2888
 2697TIP3   OH2 8096   4.160   1.939   0.263 -0.2966 -0.3581  0.1939
 2697TIP3    H1 8097   4.187   1.848   0.255 -0.3348 -0.5168  1.5897
 2697TIP3    H2 8098   4.241   1.988   0.269 -0.2502 -0.6028  2.1300
 2698TIP3   OH2 8099   2.458   2.513   4.403  0.0428 -0.5935 -0.0814
 2698TIP3    H1 8100   2.392   2.576   4.373 -1.2971 -1.0523  1.7589
 2698TIP3    H2 8101   2.415   2.428   4.396  0.5348 -0.9305  0.8564
 2699TIP3   OH2 8102   6.052   4.324   2.767  0.1276 -0.2373  0.1743
 2699TIP3    H1 8103   6.097   4.335   2.851  0.4597 -1.8543  0.2326
 2699TIP3    H2 8104   6.061   4.409   2.724  0.7920  0.3211  1.3583
 2700TIP3   OH2 8105   1.421   1.161   4.112 -0.0096 -0.5004 -0.4865
 2700TIP3    H1 8106   1.427   1.206   4.027 -0.4326 -0.5141 -0.5286
 2700TIP3    H2 8107   1.476   1.212   4.170 -1.7412  1.0738 -0.1227
 2701TIP3   OH2 8108   5.133   3.006   0.765 -0.0772 -0.1657  0.3506
 2701TIP3    H1 8109   5.180   2.998   0.682 -2.3957 -0.4810 -1.0162
 2701TIP3    H2 8110   5.100   3.096   0.765  0.1990 -0.0566  1.1212
 2702TIP3   OH2 8111   0.953   2.303   1.690 -0.6391  0.2260 -0.0842
 2702TIP3    H1 8112   1.039   2.286   1.651 -1.5211 -0.1611 -2.0020
 2702TIP3    H2 8113   0.891   2.291   1.618 -2.2381  1.5082  0.9867
 2703TIP3   OH2 8114   2.666   0.433   0.911 -0.0786 -0.2425 -0.6445
 2703TIP3    H1 8115   2.685   0.355   0.858  0.0996  0.4280 -1.5917
 2703TIP3    H2 8116   2.737   0.494   0.890 -1.2165  0.8761 -1.3480
 2704TIP3   OH2 8117   0.610   3.868   4.319 -0.4951 -0.0145  0.2644
 2704TIP3    H1 8118   0.561   3.808   4.262 -0.5513 -2.6828  2.8991
 2704TIP3    H2 8119   0.678   3.814   4.358  1.0845  2.3123  0.8931
 2705TIP3   OH2 8120   3.825   3.585   3.737 -0.3377  0.2934  0.4321
 2705TIP3    H1 8121   3.789   3.507   3.696 -0.6528  0.2517  0.7819
 2705TIP3    H2 8122   3.752   3.623   3.786 -1.2260  2.7618 -2.4862
 2706TIP3   OH2 8123   6.084   2.274   5.076  0.2030  0.0916 -0.3843
 2706TIP3    H1 8124   6.134   2.353   5.057 -0.3896  0.4142 -0.6380
 2706TIP3    H2 8125   6.045   2.250   4.992 -0.1271 -0.1171 -0.1729
 2707TIP3   OH2 8126   0.165   4.863   0.895  0.2735  0.9955  0.5746
 2707TIP3    H1 8127   0.242   4.894   0.848  1.1104 -1.8368 -0.1379
 2707TIP3    H2 8128   0.185   4.772   0.917 -3.1477 -0.1383 -0.3274
 2708TIP3   OH2 8129   2.888   1.387   3.971  0.0851 -0.3161 -0.4338
 2708TIP3    H1 8130   2.800   1.405   3.939 -0.1850 -0.3676  0.2644
 2708TIP3    H2 8131   2.938   1.466   3.952 -0.4021  0.1463  0.1672
 2709TIP3   OH2 8132   5.023   1.801   1.815  0.7483  0.1832  0.3595
 2709TIP3    H1 8133   5.040   1.777   1.724 -0.4571  0.8345 -0.0644
 2709TIP3    H2 8134   4.986   1.890   1.809  0.3114  0.0848  1.4478
 2710TIP3   OH2 8135   1.271   1.002   2.053 -0.5616 -0.1387 -0.2763
 2710TIP3    H1 8136   1.243   0.976   1.965 -1.9638 -0.2449  0.1859
 2710TIP3    H2 8137   1.358   1.040   2.040 -0.5950 -0.4928 -1.6550
 2711TIP3   OH2 8138   2.101   5.369   2.410 -0.0423 -0.3864 -0.0567
 2711TIP3    H1 8139   2.079   5.276   2.401 -0.8395 -0.5016  2.2900
 2711TIP3    H2 8140   2.016   5.413   2.415  0.2645  0.0794  1.7437
 2712TIP3   OH2 8141   3.075   2.875   0.861  0.2190 -0.0378 -0.3354
 2712TIP3    H1 8142   3.052   2.787   0.890  1.1611 -1.4177 -3.3162
 2712TIP3    H2 8143   2.999   2.928   0.883 -1.8287 -2.3409 -1.3292
 2713TIP3   OH2 8144   1.467   4.503   2.043 -0.2384  0.3228  0.0237
 2713TIP3    H1 8145   1.475   4.435   2.110  0.0071 -0.1052 -0.4358
 2713TIP3    H2 8146   1.556   4.537   2.033 -0.1905  0.0510 -0.4399
 2714TIP3   OH2 8147   2.846   5.667   4.982 -0.4999 -0.8197 -0.0746
 2714TIP3    H1 8148   2.917   5.729   4.970 -0.9377 -0.0774  1.0495
 2714TIP3    H2 8149   2.889   5.587   5.011 -0.0478 -0.6836 -0.3564
 2715TIP3   OH2 8150   5.424   0.150   1.825 -0.0600 -0.0856  0.5255
 2715TIP3    H1 8151   5.443   0.059   1.850  1.1491 -0.2866 -1.0023
 2715TIP3    H2 8152   5.329   0.151   1.809 -0.6245 -0.3379  3.3108
 2716TIP3   OH2 8153   2.258   3.197   0.389 -0.2651  0.4399 -0.0180
 2716TIP3    H1 8154   2.296   3.263   0.330 -0.9121  1.7404  0.9545
 2716TIP3    H2 8155   2.213   3.136   0.331 -0.2860  1.2720 -0.9117
 2717TIP3   OH2 8156   0.585   3.033   2.358  0.0853 -0.2603  0.2867
 2717TIP3    H1 8157   0.550   3.045   2.270 -0.3736 -1.0833  0.3454
 2717TIP3    H2 8158   0.523   2.974   2.401  0.5789 -0.2849  0.9912
 2718TIP3   OH2 8159   4.642   1.898   0.093 -0.5245 -0.3380  0.9173
 2718TIP3    H1 8160   4.669   1.857   0.011 -1.1681 -0.6597  0.8572
 2718TIP3    H2 8161   4.617   1.987   0.068 -3.2942 -1.2102  0.2489
 2719TIP3   OH2 8162   5.143   1.096   1.122 -0.6477  0.2586  0.3208
 2719TIP3    H1 8163   5.084   1.049   1.063  0.1980 -0.5991  0.1376
 2719TIP3    H2 8164   5.150   1.039   1.199  0.8546 -0.2496 -0.1517
 2720TIP3   OH2 8165   3.899   3.049   1.584  0.5365 -0.3462  0.2162
 2720TIP3    H1 8166   3.991   3.055   1.613  0.4840 -0.4048  0.3988
 2720TIP3    H2 8167   3.878   2.956   1.595  0.3646 -0.2791  0.4542
 2721TIP3   OH2 8168   3.513   2.064   3.510 -0.1263 -0.8130  0.1766
 2721TIP3    H1 8169   3.452   1.993   3.530  0.5327 -1.4226  0.0535
 2721TIP3    H2 8170   3.459   2.132   3.470 -0.4288 -2.1679 -1.8551
 2722TIP3   OH2 8171   1.093   5.138   2.721  0.3525 -0.4744 -0.1645
 2722TIP3    H1 8172   1.143   5.127   2.641  1.0895 -1.3242  0.3961
 2722TIP3    H2 8173   1.068   5.049   2.746  2.1600 -0.5064  1.8053
 2723TIP3   OH2 8174   5.767   3.457   2.220 -0.3089 -0.1070  0.0947
 2723TIP3    H1 8175   5.697   3.416   2.270 -1.0431  1.1684  0.1574
 2723TIP3    H2 8176   5.846   3.411   2.248 -0.9986 -0.9366  0.7334
 2724TIP3   OH2 8177   6.348   2.771   2.058  0.1479 -0.0484 -0.3124
 2724TIP3    H1 8178   6.260   2.809   2.068 -0.1333 -0.4320 -1.2002
 2724TIP3    H2 8179   6.408   2.840   2.085 -0.4503 -0.3767  2.1251
 2725TIP3   OH2 8180   5.101   0.653   0.615 -0.5542  0.5706 -0.5378
 2725TIP3    H1 8181   5.175   0.709   0.636  0.0070 -0.4709  0.3383
 2725TIP3    H2 8182   5.136   0.588   0.555 -0.5991 -0.2512  0.3018
 2726TIP3   OH2 8183   1.266   5.713   1.036 -0.4151 -0.3037 -0.0445
 2726TIP3    H1 8184   1.258   5.718   1.132  0.5851 -1.4770  0.1219
 2726TIP3    H2 8185   1.326   5.640   1.021  1.6812  1.5918 -1.4755
 2727TIP3   OH2 8186   3.625   1.652   2.378 -0.1469 -0.5868 -0.2068
 2727TIP3    H1 8187   3.694   1.602   2.422 -0.7652 -0.7573  0.5889
 2727TIP3    H2 8188   3.639   1.742   2.405 -0.9069 -0.7759  0.8836
 2728TIP3   OH2 8189   4.593   1.984   0.828 -0.6373 -0.6782 -0.3703
 2728TIP3    H1 8190   4.542   2.008   0.751  1.3368  3.1086 -0.7351
 2728TIP3    H2 8191   4.667   1.934   0.793  0.1760  0.9017 -1.0498
 2729TIP3   OH2 8192   2.670   4.529   2.289  0.5007  0.2464  0.4517
 2729TIP3    H1 8193   2.751   4.544   2.240  0.0432  0.1280 -0.3609
 2729TIP3    H2 8194   2.697   4.527   2.380  1.0957  2.5218  0.3739
 2730TIP3   OH2 8195   1.110   2.331   5.007  0.2414  0.1633 -0.1604
 2730TIP3    H1 8196   1.139   2.417   4.976 -0.2838 -0.3631 -2.3094
 2730TIP3    H2 8197   1.113   2.275   4.929  0.4504 -1.7623  1.1494
 2731TIP3   OH2 8198   0.492   1.765   4.707  0.3146 -0.5699  0.2504
 2731TIP3    H1 8199   0.565   1.709   4.681 -1.0238 -2.2502 -0.1540
 2731TIP3    H2 8200   0.507   1.783   4.800  0.2135 -2.6473  0.7254
 2732TIP3   OH2 8201   4.758   5.979   3.709  0.5358 -0.4836  0.4399
 2732TIP3    H1 8202   4.811   6.006   3.783  1.9439 -2.6120  0.2956
 2732TIP3    H2 8203   4.765   5.883   3.708 -1.5300 -0.6864 -0.9208
 2733TIP3   OH2 8204   1.489   3.920   0.939  0.4442  0.0606 -0.1412
 2733TIP3    H1 8205   1.564   3.960   0.894  0.5266 -0.3899 -0.4159
 2733TIP3    H2 8206   1.500   3.825   0.925 -0.1069 -0.0189 -0.0822
 2734TIP3   OH2 8207   2.563   5.347   4.715  0.5188  0.7894 -0.1277
 2734TIP3    H1 8208   2.494   5.361   4.781  0.6000  1.9875 -0.2678
 2734TIP3    H2 8209   2.641   5.327   4.767  0.0356 -0.8249  0.0230
 2735TIP3   OH2 8210   3.338   4.408   1.330 -0.0120 -0.4900 -0.3620
 2735TIP3    H1 8211   3.299   4.478   1.382  0.7574  1.6292 -2.4375
 2735TIP3    H2 8212   3.270   4.383   1.267  0.7374  0.8361 -1.7849
 2736TIP3   OH2 8213   4.974   4.565   0.917  0.0117  0.3447 -0.2621
 2736TIP3    H1 8214   4.956   4.512   0.839  1.3584 -0.8915  0.2131
 2736TIP3    H2 8215   5.039   4.629   0.888 -1.2145  1.4472 -0.6984
 2737TIP3   OH2 8216   0.100   3.797   1.131  0.3674 -0.2800  0.0083
 2737TIP3    H1 8217   0.185   3.804   1.174  0.8357 -0.0762 -0.9344
 2737TIP3    H2 8218   0.043   3.854   1.183  0.8346 -0.3025  0.5574
 2738TIP3   OH2 8219   2.113   0.402   0.236 -0.1325  0.0822  0.0620
 2738TIP3    H1 8220   2.079   0.313   0.247  0.4430 -0.0761  0.6006
 2738TIP3    H2 8221   2.148   0.403   0.147  0.5752 -0.4795  0.3252
 2739TIP3   OH2 8222   1.240   0.378   0.826 -0.7196  0.3085  0.3065
 2739TIP3    H1 8223   1.325   0.373   0.783 -1.5985  0.1929 -1.5279
 2739TIP3    H2 8224   1.210   0.467   0.810 -0.8797  0.3966  1.0791
 2740TIP3   OH2 8225   4.156   1.570   3.320  0.3079 -0.3103 -0.2726
 2740TIP3    H1 8226   4.151   1.666   3.323  1.3457 -0.2403 -0.3971
 2740TIP3    H2 8227   4.069   1.543   3.293  0.0188  0.6106 -0.3074
 2741TIP3   OH2 8228   3.315   4.309   1.596 -0.0059 -0.3424 -0.1002
 2741TIP3    H1 8229   3.404   4.276   1.583  0.6678  0.9030  1.0951
 2741TIP3    H2 8230   3.324   4.404   1.591 -1.1144 -0.1617  0.9131
 2742TIP3   OH2 8231   3.232   2.933   0.561  0.1585 -0.6533 -0.2732
 2742TIP3    H1 8232   3.152   2.946   0.510  0.4702 -3.2015 -1.5922
 2742TIP3    H2 8233   3.202   2.900   0.646 -0.2472  0.5142  0.0466
 2743TIP3   OH2 8234   5.543   3.139   0.827  0.2601  0.2948 -0.1072
 2743TIP3    H1 8235   5.505   3.054   0.847 -0.1016  0.7125  1.1022
 2743TIP3    H2 8236   5.468   3.196   0.811  0.5159  0.2735 -1.4746
 2744TIP3   OH2 8237   0.016   4.834   3.688 -0.7877  0.2536  0.1944
 2744TIP3    H1 8238  -0.047   4.881   3.742 -0.3439 -0.5843  1.4661
 2744TIP3    H2 8239   0.101   4.867   3.716 -0.2813 -2.8283  2.7798
 2745TIP3   OH2 8240   1.368   2.002   1.591 -0.1291 -0.1562  0.6745
 2745TIP3    H1 8241   1.282   2.043   1.583 -0.1350 -0.3444 -0.3259
 2745TIP3    H2 8242   1.357   1.934   1.657 -0.8109 -0.3613  0.3506
 2746TIP3   OH2 8243   2.916   1.422   1.106  0.6357 -0.2795  0.0730
 2746TIP3    H1 8244   2.939   1.514   1.123  0.6422  0.0078 -1.3559
 2746TIP3    H2 8245   2.953   1.404   1.019  0.5626 -1.6148  0.3016
 2747TIP3   OH2 8246   4.392   2.623   4.210 -0.4836 -0.2811 -0.0972
 2747TIP3    H1 8247   4.323   2.634   4.275 -0.7742 -2.6217  0.0689
 2747TIP3    H2 8248   4.353   2.565   4.144  0.7877 -0.3114 -0.8436
 2748TIP3   OH2 8249   0.504   1.923   0.637  0.9315 -0.1258 -0.6823
 2748TIP3    H1 8250   0.557   1.963   0.705 -0.3651  0.5393 -0.0347
 2748TIP3    H2 8251   0.532   1.831   0.636 -1.5201 -1.1988  3.4390
 2749TIP3   OH2 8252   2.107   3.394   0.620 -0.2330 -0.1181  0.0683
 2749TIP3    H1 8253   2.188   3.345   0.639  0.2116  0.4939 -0.2148
 2749TIP3    H2 8254   2.127   3.443   0.541 -0.5347  0.8194  0.5636
 2750TIP3   OH2 8255   1.922   1.220   2.891  0.2147  0.1460 -0.2363
 2750TIP3    H1 8256   1.858   1.150   2.903  0.2499  0.1560  0.0204
 2750TIP3    H2 8257   1.976   1.217   2.970  0.7684 -0.1037 -0.6189
 2751TIP3   OH2 8258   0.523   4.018   4.919 -0.2005  0.7606 -0.4863
 2751TIP3    H1 8259   0.472   4.099   4.920 -0.3833  0.6452 -0.4441
 2751TIP3    H2 8260   0.525   3.992   4.827  0.8569  1.4405 -0.6736
 2752TIP3   OH2 8261   2.822   0.146   4.760 -0.0365  0.1359  0.1862
 2752TIP3    H1 8262   2.904   0.195   4.769  0.1104  0.2846 -1.6361
 2752TIP3    H2 8263   2.843   0.076   4.697 -1.2701  0.0844 -0.1937
 2753TIP3   OH2 8264   5.880   0.246   3.573  0.0988  0.3260 -0.2346
 2753TIP3    H1 8265   5.873   0.173   3.512  1.3861 -0.8026  0.8892
 2753TIP3    H2 8266   5.828   0.218   3.649  0.5499  0.6049  0.1773
 2754TIP3   OH2 8267   0.829   5.377   0.857 -0.3984  0.0951  0.1622
 2754TIP3    H1 8268   0.914   5.393   0.899 -0.0668 -2.0617  0.4190
 2754TIP3    H2 8269   0.822   5.282   0.852 -2.1219  0.2437 -1.2980
 2755TIP3   OH2 8270   0.790   0.005   1.968 -0.1424  0.0832  0.1309
 2755TIP3    H1 8271   0.865  -0.043   2.002 -0.2519  1.2398  2.1485
 2755TIP3    H2 8272   0.825   0.056   1.895  0.7685 -0.3023  0.2839
 2756TIP3   OH2 8273   5.009   0.453   3.085  0.0036 -0.1890  0.0243
 2756TIP3    H1 8274   5.072   0.523   3.069 -2.1700  1.9097  0.0078
 2756TIP3    H2 8275   5.047   0.402   3.157  0.3156  2.9135  2.2331
 2757TIP3   OH2 8276   5.397   2.491   1.442 -0.3519  0.3838 -0.1174
 2757TIP3    H1 8277   5.355   2.500   1.357 -0.6807  1.9270  0.1800
 2757TIP3    H2 8278   5.463   2.422   1.429 -1.5677 -0.6491 -1.1261
 2758TIP3   OH2 8279   3.476   3.742   0.596 -0.5853 -0.1928 -0.5143
 2758TIP3    H1 8280   3.433   3.779   0.673 -0.8589 -1.9490  0.2056
 2758TIP3    H2 8281   3.442   3.653   0.589  0.4663 -0.5296 -1.8826
 2759TIP3   OH2 8282   3.117   0.231   4.364  0.1608 -0.0878  0.4285
 2759TIP3    H1 8283   3.211   0.238   4.374  0.0633  0.3649  1.1144
 2759TIP3    H2 8284   3.103   0.150   4.316  0.8282 -0.9261  1.6157
 2760TIP3   OH2 8285   1.846   4.361   2.717  0.7524  0.0935  0.2171
 2760TIP3    H1 8286   1.772   4.417   2.696  0.6925 -0.2447 -0.5276
 2760TIP3    H2 8287   1.916   4.391   2.659  0.8210 -0.3791  0.0510
 2761TIP3   OH2 8288   1.862   2.962   1.379  0.3626 -0.2858  0.0541
 2761TIP3    H1 8289   1.858   3.047   1.336 -0.0460  0.1991  1.0246
 2761TIP3    H2 8290   1.823   2.902   1.315  1.6699  0.0312 -1.1028
 2762TIP3   OH2 8291   2.949   2.537   4.543 -0.2769 -0.3533 -0.1262
 2762TIP3    H1 8292   2.901   2.486   4.608 -0.0720  1.8684  1.9250
 2762TIP3    H2 8293   3.027   2.485   4.525 -1.2029 -1.8607 -0.0269
 2763TIP3   OH2 8294   5.869   2.223   2.222  0.5646 -0.0087  0.1692
 2763TIP3    H1 8295   5.794   2.260   2.269 -0.3424  0.1047 -1.3101
 2763TIP3    H2 8296   5.940   2.285   2.237 -0.2102  0.9644 -0.0960
 2764TIP3   OH2 8297   3.629   5.662   5.190  0.0747 -0.4089 -0.6578
 2764TIP3    H1 8298   3.665   5.581   5.153 -1.4172 -1.1820 -0.5183
 2764TIP3    H2 8299   3.604   5.714   5.114 -1.9124 -1.4984 -0.8307
 2765TIP3   OH2 8300   4.932   4.767   4.718  0.3324  0.4990  0.1992
 2765TIP3    H1 8301   4.988   4.845   4.724  0.6641  0.2934 -0.2015
 2765TIP3    H2 8302   4.993   4.694   4.718  0.1586  0.3174 -1.5653
 2766TIP3   OH2 8303   2.887   2.834   1.917  0.0155  0.1375  0.1098
 2766TIP3    H1 8304   2.904   2.856   2.009  0.8614  0.9178 -0.2185
 2766TIP3    H2 8305   2.917   2.744   1.908 -0.7997 -0.2095  0.7815
 2767TIP3   OH2 8306   5.671   3.333   4.641 -0.0305 -0.6661  0.3557
 2767TIP3    H1 8307   5.638   3.251   4.605 -1.2903 -0.5582  1.1861
 2767TIP3    H2 8308   5.765   3.331   4.624 -0.0983 -2.1043  0.0291
 2768TIP3   OH2 8309   0.207   4.439   2.140  0.0449 -0.5226 -0.4244
 2768TIP3    H1 8310   0.134   4.398   2.188 -0.5571  0.9022 -0.0753
 2768TIP3    H2 8311   0.164   4.485   2.068 -0.0030  3.7784  2.0399
 2769TIP3   OH2 8312   6.114   0.632   1.192 -0.1524 -0.1642  0.3431
 2769TIP3    H1 8313   6.080   0.663   1.108 -0.3999 -0.0779  0.4759
 2769TIP3    H2 8314   6.174   0.561   1.168  0.6572  0.6048  0.0144
 2770TIP3   OH2 8315   1.251   4.718   2.524  0.0577 -0.4666  0.5248
 2770TIP3    H1 8316   1.290   4.636   2.495  0.7731  0.0860 -0.1288
 2770TIP3    H2 8317   1.314   4.755   2.585  0.5860  0.4283 -0.5308
 2771TIP3   OH2 8318   2.445   3.835   1.829 -0.0831 -0.1139 -0.4043
 2771TIP3    H1 8319   2.518   3.804   1.775  1.2565  1.4678  0.4133
 2771TIP3    H2 8320   2.467   3.806   1.917  0.5626  1.9439  0.1640
 2772TIP3   OH2 8321   5.049   4.157   4.915  0.2758 -0.0647 -0.3722
 2772TIP3    H1 8322   5.040   4.077   4.864 -2.8594  0.4989 -0.8909
 2772TIP3    H2 8323   4.986   4.218   4.876 -0.2414  1.3537  2.4038
 2773TIP3   OH2 8324   0.373   1.625   0.403 -0.4333  0.1331 -0.0346
 2773TIP3    H1 8325   0.363   1.531   0.387 -1.0126 -0.1101  1.5721
 2773TIP3    H2 8326   0.329   1.666   0.329 -0.9298 -0.8825 -0.3202
 2774TIP3   OH2 8327   0.088   0.574   2.582 -0.2683 -0.2746  0.2511
 2774TIP3    H1 8328   0.025   0.563   2.510 -1.9568 -4.6366  2.0607
 2774TIP3    H2 8329   0.117   0.485   2.603  2.4862  1.0796  3.0461
 2775TIP3   OH2 8330   1.705   4.774   1.995  0.3130 -0.1639  0.3147
 2775TIP3    H1 8331   1.768   4.841   1.968  1.9931 -2.0151 -0.5750
 2775TIP3    H2 8332   1.695   4.787   2.089 -0.3347  2.0357  0.0187
 2776TIP3   OH2 8333   3.086   0.581   0.536  0.0255 -0.0748  0.0255
 2776TIP3    H1 8334   3.096   0.656   0.596  1.3379 -0.8311  0.8045
 2776TIP3    H2 8335   3.068   0.621   0.451 -3.2695  1.0094  1.0910
 2777TIP3   OH2 8336   0.750   4.419   2.068 -0.5354  0.5252  0.2020
 2777TIP3    H1 8337   0.701   4.399   2.147 -1.1670  1.0550 -0.0421
 2777TIP3    H2 8338   0.781   4.509   2.082 -0.5473  0.5758 -0.0964
 2778TIP3   OH2 8339   4.975   5.467   0.873 -0.3991 -0.1820 -0.4973
 2778TIP3    H1 8340   5.059   5.486   0.915 -0.2028 -0.2396 -0.8650
 2778TIP3    H2 8341   4.998   5.424   0.791 -0.7858 -0.1138 -0.6436
 2779TIP3   OH2 8342   4.267   2.178   2.907  0.2598 -0.0532 -0.3813
 2779TIP3    H1 8343   4.255   2.263   2.865  0.8783  0.3390  0.2157
 2779TIP3    H2 8344   4.276   2.116   2.834 -1.9950  0.0924 -0.8463
 2780TIP3   OH2 8345   5.011   0.516   3.650  0.0147  0.0198 -0.2256
 2780TIP3    H1 8346   4.936   0.540   3.596 -0.8891 -0.2906  0.8520
 2780TIP3    H2 8347   4.974   0.461   3.719  1.3183 -0.5430  0.0463
 2781TIP3   OH2 8348   1.563   3.666   0.853  0.0273 -0.8810 -0.0464
 2781TIP3    H1 8349   1.620   3.646   0.778  2.6415  0.6228  1.4055
 2781TIP3    H2 8350   1.576   3.593   0.913  0.0380 -0.7839  0.0694
 2782TIP3   OH2 8351   6.193   4.601   0.417 -0.0901 -0.7966  0.0804
 2782TIP3    H1 8352   6.240   4.663   0.362 -0.3494  0.8657  1.6392
 2782TIP3    H2 8353   6.259   4.537   0.443 -0.1438 -2.1982 -2.7987
 2783TIP3   OH2 8354   6.107   4.950   1.830 -0.5369  0.1622  0.3551
 2783TIP3    H1 8355   6.129   4.976   1.920  1.0030  1.3545 -0.3115
 2783TIP3    H2 8356   6.183   4.977   1.779 -1.0456 -1.2195 -1.2073
 2784TIP3   OH2 8357   2.694   3.559   3.859 -0.4682 -0.2042 -0.5189
 2784TIP3    H1 8358   2.713   3.649   3.830  1.9388 -0.5978 -0.2837
 2784TIP3    H2 8359   2.748   3.504   3.803  0.4167 -1.3070  1.3544
 2785TIP3   OH2 8360   2.960   5.552   2.727 -0.3909 -0.0334  0.2708
 2785TIP3    H1 8361   2.996   5.640   2.738  1.6038 -0.8112  0.3633
 2785TIP3    H2 8362   3.014   5.513   2.658  0.5187 -2.0371  1.9998
 2786TIP3   OH2 8363   5.386   5.874   4.214  0.1895 -0.0654 -0.6616
 2786TIP3    H1 8364   5.435   5.905   4.138  1.9365 -0.0921  0.3947
 2786TIP3    H2 8365   5.407   5.936   4.283 -0.4660 -0.6769  0.1103
 2787TIP3   OH2 8366   2.578   3.067   0.474  1.1464  0.2408  0.4425
 2787TIP3    H1 8367   2.635   3.130   0.519  1.1272  1.2806 -0.9419
 2787TIP3    H2 8368   2.490   3.094   0.498  1.0127  2.3023 -2.0012
 2788TIP3   OH2 8369   3.755   4.434   4.325  0.1587  0.4004  0.0395
 2788TIP3    H1 8370   3.817   4.434   4.252  0.0155  0.2558 -0.0846
 2788TIP3    H2 8371   3.809   4.425   4.403  0.4794  2.3479  0.1010
 2789TIP3   OH2 8372   5.071   4.524   2.840 -0.0367 -0.0972  0.1804
 2789TIP3    H1 8373   5.110   4.440   2.864 -0.9191 -0.8275 -0.8734
 2789TIP3    H2 8374   5.024   4.506   2.759  0.3773  1.6027 -0.4701
 2790TIP3   OH2 8375   5.218   3.286   1.310  0.0655 -0.6635 -0.0793
 2790TIP3    H1 8376   5.226   3.381   1.305 -0.0942 -0.5601  1.3560
 2790TIP3    H2 8377   5.302   3.253   1.276 -0.1633 -0.0605 -1.3012
 2791TIP3   OH2 8378   3.212   0.454   4.801  0.3459  0.0465 -0.1095
 2791TIP3    H1 8379   3.187   0.484   4.714  0.2038 -0.1409 -0.1334
 2791TIP3    H2 8380   3.187   0.525   4.859 -1.4069 -0.6451  0.0239
 2792TIP3   OH2 8381   3.777   4.407   1.982  0.0173 -0.3109 -0.0791
 2792TIP3    H1 8382   3.807   4.410   2.073 -0.2898  0.4921 -0.0027
 2792TIP3    H2 8383   3.856   4.386   1.933  0.3671  0.0981  0.2928
 2793TIP3   OH2 8384   0.564   2.296   4.287 -0.6108 -0.2748  0.0091
 2793TIP3    H1 8385   0.514   2.222   4.320 -0.3201 -0.6342 -0.3465
 2793TIP3    H2 8386   0.553   2.364   4.354 -1.4229 -0.4039  0.0242
 2794TIP3   OH2 8387   1.604   2.439   4.675  0.0069 -0.1812  0.5599
 2794TIP3    H1 8388   1.659   2.388   4.616  0.9458  1.3698  0.0528
 2794TIP3    H2 8389   1.666   2.488   4.729 -0.8734  0.3094  1.1415
 2795TIP3   OH2 8390   0.896   2.840   2.025 -0.0699  0.4954 -0.1379
 2795TIP3    H1 8391   0.931   2.900   2.092  0.0933 -1.0298  1.2054
 2795TIP3    H2 8392   0.839   2.895   1.972  1.1280  2.1452  0.1850
 2796TIP3   OH2 8393   2.217   2.395   4.311 -0.1675  0.1479  0.8162
 2796TIP3    H1 8394   2.137   2.425   4.269  0.2892  0.3601  0.0795
 2796TIP3    H2 8395   2.215   2.300   4.305  0.5874  0.2130 -1.0381
 2797TIP3   OH2 8396   0.772   5.945   0.540  0.3611  0.5741 -0.5007
 2797TIP3    H1 8397   0.798   5.955   0.632  1.4356  0.5919 -0.7946
 2797TIP3    H2 8398   0.814   5.864   0.512 -1.5016 -0.4448 -0.4776
 2798TIP3   OH2 8399   2.302   0.920   1.488  0.1597 -0.3171 -0.0398
 2798TIP3    H1 8400   2.228   0.861   1.475 -0.0115  0.4004 -2.9137
 2798TIP3    H2 8401   2.265   0.996   1.532 -0.9837  0.2219 -1.8283
 2799TIP3   OH2 8402   1.063   5.099   0.149 -0.2095  0.0802 -0.1112
 2799TIP3    H1 8403   1.135   5.149   0.187  1.7950 -1.2675 -1.8959
 2799TIP3    H2 8404   1.071   5.113   0.055 -1.0792 -1.6697 -0.4852
 2800TIP3   OH2 8405   3.614   0.450   3.587  0.0449 -0.4734 -0.1109
 2800TIP3    H1 8406   3.709   0.458   3.586  0.0741 -0.8139 -0.4880
 2800TIP3    H2 8407   3.582   0.529   3.543  0.2210 -1.0892 -1.3896
 2801TIP3   OH2 8408   2.200   3.867   1.504  0.0520 -0.2553  0.5896
 2801TIP3    H1 8409   2.191   3.786   1.554 -1.5006  0.1619  1.0281
 2801TIP3    H2 8410   2.113   3.908   1.507  0.1914  0.3326 -1.5282
 2802TIP3   OH2 8411   1.448   2.165   3.710 -0.1796  0.5456 -0.3951
 2802TIP3    H1 8412   1.414   2.236   3.763  0.5008  0.0988  0.6765
 2802TIP3    H2 8413   1.398   2.088   3.737  0.8434  0.1158  0.3660
 2803TIP3   OH2 8414   3.595   3.305   0.505 -0.3492  0.2461  0.2922
 2803TIP3    H1 8415   3.542   3.362   0.560 -0.6808 -1.8874  2.3747
 2803TIP3    H2 8416   3.533   3.237   0.475 -0.1408  1.2198 -2.6938
 2804TIP3   OH2 8417   4.443   3.740   0.998  0.2505 -0.1058 -0.3370
 2804TIP3    H1 8418   4.502   3.710   1.068 -1.5211 -0.1414  1.2352
 2804TIP3    H2 8419   4.469   3.830   0.980 -0.3591  0.5294  1.6962
 2805TIP3   OH2 8420   4.846   1.048   3.157 -0.2396 -0.2842 -0.3047
 2805TIP3    H1 8421   4.939   1.065   3.172  0.0679 -0.7068 -1.6832
 2805TIP3    H2 8422   4.825   1.099   3.079 -2.1856  3.1170  2.1465
 2806TIP3   OH2 8423   3.841   2.780   1.488 -0.0891  0.4432 -0.0873
 2806TIP3    H1 8424   3.759   2.745   1.453 -0.0763  0.2036  0.1163
 2806TIP3    H2 8425   3.868   2.716   1.554  0.3306  0.4528 -0.2450
 2807TIP3   OH2 8426   2.417   4.038   4.707 -0.0862 -0.0230 -0.5739
 2807TIP3    H1 8427   2.347   3.997   4.758  0.8689 -0.7196  0.2178
 2807TIP3    H2 8428   2.492   3.979   4.717  0.9503  1.2514 -0.4975
 2808TIP3   OH2 8429   4.334   3.772   1.318  0.1868 -0.3064  0.3148
 2808TIP3    H1 8430   4.426   3.782   1.340  0.1766  0.8603 -0.1207
 2808TIP3    H2 8431   4.288   3.784   1.401  0.3109  1.3539  0.1779
 2809TIP3   OH2 8432   0.875   2.346   3.515 -0.1304 -0.7719 -0.1065
 2809TIP3    H1 8433   0.938   2.375   3.449  0.8645 -1.0279  0.7103
 2809TIP3    H2 8434   0.800   2.314   3.464 -0.4613  1.3591 -1.0694
 2810TIP3   OH2 8435   4.806   1.046   1.625 -0.0085  0.1716 -0.3710
 2810TIP3    H1 8436   4.829   0.992   1.549 -0.3905 -0.2290 -0.2045
 2810TIP3    H2 8437   4.711   1.052   1.622 -0.0757 -0.3803  0.4358
 2811TIP3   OH2 8438   0.178   0.824   0.720 -0.5357  0.2178 -0.1185
 2811TIP3    H1 8439   0.231   0.893   0.679  1.2569 -1.1273 -0.1888
 2811TIP3    H2 8440   0.188   0.840   0.814  0.5628 -0.4047 -0.1159
 2812TIP3   OH2 8441   1.119   1.317   3.024  0.4475  0.1670  0.2725
 2812TIP3    H1 8442   1.050   1.326   2.959 -1.0314 -1.4317  1.5062
 2812TIP3    H2 8443   1.192   1.276   2.977  0.0928  0.6955 -0.7554
 2813TIP3   OH2 8444   5.215   0.513   4.702  0.3380  0.8733 -0.4342
 2813TIP3    H1 8445   5.182   0.498   4.790  2.0555  1.8027  0.4354
 2813TIP3    H2 8446   5.174   0.595   4.674  1.1619  1.5609  0.2865
 2814TIP3   OH2 8447   0.802   0.810   3.869 -0.6036  0.1556  0.2553
 2814TIP3    H1 8448   0.731   0.861   3.832  0.2591  1.4392  0.3080
 2814TIP3    H2 8449   0.791   0.819   3.964 -1.0562 -0.6395  0.2863
 2815TIP3   OH2 8450   4.932   3.454   2.263  0.1888 -0.0580 -0.1995
 2815TIP3    H1 8451   4.864   3.495   2.316  0.9284 -0.7941  1.3798
 2815TIP3    H2 8452   4.923   3.495   2.177 -0.6737  1.6097  0.6297
 2816TIP3   OH2 8453   0.183   3.501   0.988  0.0218  0.1260  0.3680
 2816TIP3    H1 8454   0.230   3.574   0.947 -0.3108  0.8168  1.1777
 2816TIP3    H2 8455   0.231   3.484   1.070 -1.7865  1.6875  1.8554
 2817TIP3   OH2 8456   0.859   5.737   0.949  0.4018 -0.3966  0.2606
 2817TIP3    H1 8457   0.859   5.681   1.027  1.1041  0.0745  0.6154
 2817TIP3    H2 8458   0.938   5.791   0.959  2.0389 -2.1418 -2.0794
 2818TIP3   OH2 8459   5.041   4.023   2.234 -0.5587 -0.2821 -0.1243
 2818TIP3    H1 8460   5.008   4.079   2.164 -1.1448  0.4406  0.7083
 2818TIP3    H2 8461   5.001   3.938   2.218 -1.0813  0.0127 -0.3853
 2819TIP3   OH2 8462   0.764   5.220   1.176 -0.0865 -0.1047 -1.0639
 2819TIP3    H1 8463   0.688   5.180   1.134 -0.6052 -0.9892  0.6449
 2819TIP3    H2 8464   0.840   5.177   1.136 -0.5343 -0.4638 -1.5354
 2820TIP3   OH2 8465   2.879   2.979   4.967 -0.1797  0.6813 -0.0922
 2820TIP3    H1 8466   2.804   2.999   4.910 -0.7369  0.7035  0.6433
 2820TIP3    H2 8467   2.947   3.039   4.938  0.1623 -0.5131 -1.9586
 2821TIP3   OH2 8468   5.156   5.149   0.540 -0.0075 -0.3340  0.2722
 2821TIP3    H1 8469   5.121   5.236   0.560  0.1016  0.3703 -2.2621
 2821TIP3    H2 8470   5.245   5.150   0.574  0.9970  1.6689 -2.1439
 2822TIP3   OH2 8471   1.401   1.438   4.893  0.5818  0.0586  0.6372
 2822TIP3    H1 8472   1.391   1.511   4.955 -0.1661  2.8100 -2.4511
 2822TIP3    H2 8473   1.492   1.445   4.863  0.2311  0.3785 -0.3813
 2823TIP3   OH2 8474   1.124   2.030   1.738 -0.1522 -0.1539 -0.1821
 2823TIP3    H1 8475   1.140   2.117   1.775 -0.2062  0.1785 -0.9213
 2823TIP3    H2 8476   1.112   1.973   1.814 -0.0550  0.4732  0.3091
 2824TIP3   OH2 8477   2.700   0.397   3.255 -0.2028 -0.5484 -0.1591
 2824TIP3    H1 8478   2.650   0.388   3.173 -0.3655 -1.0589 -0.0079
 2824TIP3    H2 8479   2.673   0.322   3.307 -0.9741  0.3962  0.8403
 2825TIP3   OH2 8480   2.037   4.615   2.138  0.1653 -0.3270 -0.1617
 2825TIP3    H1 8481   2.059   4.705   2.114  1.1033  0.0664  1.9264
 2825TIP3    H2 8482   1.980   4.585   2.068 -1.2390  2.3394 -0.3092
 2826TIP3   OH2 8483   1.344   5.580   0.595 -0.4043 -0.4144 -0.3347
 2826TIP3    H1 8484   1.270   5.591   0.656 -0.7376  0.9535 -0.9486
 2826TIP3    H2 8485   1.411   5.537   0.647 -0.7611  0.5277  0.9670
 2827TIP3   OH2 8486   5.324   0.792   0.700  0.0589 -0.4182  0.2261
 2827TIP3    H1 8487   5.341   0.772   0.792  0.1895 -1.6868 -0.0494
 2827TIP3    H2 8488   5.283   0.879   0.701  2.0664  0.5777  1.2892
 2828TIP3   OH2 8489   6.135   1.539   0.491 -0.0498  0.0736 -0.0046
 2828TIP3    H1 8490   6.226   1.526   0.467  0.0969  0.5818  0.2783
 2828TIP3    H2 8491   6.100   1.597   0.423 -0.0105  0.3510  0.2128
 2829TIP3   OH2 8492   1.527   1.202   5.006 -0.2678 -0.8973  0.1047
 2829TIP3    H1 8493   1.502   1.156   5.086  0.1662  1.0270  1.4079
 2829TIP3    H2 8494   1.471   1.280   5.005  2.0387  0.8533  0.3843
 2830TIP3   OH2 8495   0.900   4.883   0.177  0.4438 -0.3388  0.1233
 2830TIP3    H1 8496   0.963   4.954   0.164  0.6007 -0.6721 -1.1973
 2830TIP3    H2 8497   0.954   4.803   0.174  0.0076 -0.6146 -0.7646
 2831TIP3   OH2 8498   1.881   3.420   1.411  0.5853  0.5508  0.3333
 2831TIP3    H1 8499   1.950   3.377   1.461  1.5544  0.8498 -0.7062
 2831TIP3    H2 8500   1.836   3.348   1.366  2.6079  0.5652 -1.9113
 2832TIP3   OH2 8501   6.037   1.235   4.871 -0.6190 -0.4931 -0.5002
 2832TIP3    H1 8502   6.094   1.285   4.813  2.2371 -0.4162  2.0790
 2832TIP3    H2 8503   5.973   1.299   4.903  1.0318  0.8124  0.3428
 2833TIP3   OH2 8504   1.879   5.757   2.743 -0.2472 -0.5638 -0.5449
 2833TIP3    H1 8505   1.952   5.770   2.803  0.6845 -1.0839 -1.5270
 2833TIP3    H2 8506   1.879   5.663   2.725 -0.3396 -0.3823 -1.5624
 2834TIP3   OH2 8507   0.407   2.656   2.567 -0.1976 -0.3775  0.6273
 2834TIP3    H1 8508   0.394   2.561   2.570 -0.4313 -0.3606  0.2067
 2834TIP3    H2 8509   0.366   2.688   2.647  1.0346 -0.7529  1.4485
 2835TIP3   OH2 8510   3.002   4.484   3.561 -0.3750  0.0339  0.1607
 2835TIP3    H1 8511   2.964   4.444   3.639  0.2890 -0.3807  0.2827
 2835TIP3    H2 8512   3.095   4.495   3.583  0.7436 -3.6902 -1.9210
 2836TIP3   OH2 8513   4.908   4.384   2.206 -0.3374 -0.9125  0.6206
 2836TIP3    H1 8514   4.878   4.461   2.159  0.8967 -1.8215 -1.8674
 2836TIP3    H2 8515   4.971   4.418   2.270  0.5337  0.1351 -0.7407
 2837TIP3   OH2 8516   1.971   0.493   1.314  0.1356 -0.4225  0.3521
 2837TIP3    H1 8517   2.043   0.468   1.372 -2.2195 -0.6659  3.4191
 2837TIP3    H2 8518   1.896   0.443   1.345 -1.4592 -0.1440 -2.6563
 2838TIP3   OH2 8519   2.312   5.586   0.116  0.0174  0.0396  0.4099
 2838TIP3    H1 8520   2.252   5.609   0.187  0.4253  0.5202  0.6063
 2838TIP3    H2 8521   2.368   5.663   0.107  0.1029 -0.0988 -0.2930
 2839TIP3   OH2 8522   0.836   2.595   1.097  0.4551  0.4808  0.3697
 2839TIP3    H1 8523   0.766   2.644   1.140  0.1595  2.0548 -1.7739
 2839TIP3    H2 8524   0.793   2.516   1.064  0.0714  0.6598  0.4393
 2840TIP3   OH2 8525   3.681   2.886   0.925 -0.4182  0.0604  0.1479
 2840TIP3    H1 8526   3.627   2.965   0.930 -0.6354  0.0747 -1.8161
 2840TIP3    H2 8527   3.717   2.887   0.836 -0.7486 -2.2600 -0.0507
 2841TIP3   OH2 8528   0.370   3.220   0.056  0.4912 -0.3585  0.1027
 2841TIP3    H1 8529   0.282   3.205   0.022  0.4237 -0.3121  0.2596
 2841TIP3    H2 8530   0.428   3.188  -0.014  0.3526 -0.2453 -0.0641
 2842TIP3   OH2 8531   3.360   2.531   4.903 -0.4681 -0.1107  0.3710
 2842TIP3    H1 8532   3.336   2.605   4.846 -0.5556 -0.6280 -0.2723
 2842TIP3    H2 8533   3.277   2.489   4.924 -0.2479 -1.3485 -1.0980
 2843TIP3   OH2 8534  -0.005   3.766   0.054  0.1850 -0.8830  0.0989
 2843TIP3    H1 8535   0.076   3.777   0.103  1.2359 -1.7098 -1.3743
 2843TIP3    H2 8536  -0.067   3.730   0.118  1.2017 -1.0006  1.0518
 2844TIP3   OH2 8537   1.099   1.420   2.163  0.2925 -0.4103 -0.2974
 2844TIP3    H1 8538   1.084   1.343   2.108 -0.3206 -1.2630  1.0100
 2844TIP3    H2 8539   1.060   1.397   2.247  0.7840  1.0418  0.3578
 2845TIP3   OH2 8540   3.662   5.394   3.668  0.3843  0.8070 -0.2318
 2845TIP3    H1 8541   3.733   5.456   3.652  1.0297 -0.1502 -1.2328
 2845TIP3    H2 8542   3.587   5.431   3.622  0.4453  1.4193  0.1549
 2846TIP3   OH2 8543   2.543   3.817   2.641  0.1907 -0.3854 -0.1652
 2846TIP3    H1 8544   2.457   3.834   2.603  0.4226  0.8166 -0.1684
 2846TIP3    H2 8545   2.524   3.773   2.724 -0.5221  1.3200  0.6284
 2847TIP3   OH2 8546   4.707   5.616   2.822  0.1419 -0.0500 -0.2790
 2847TIP3    H1 8547   4.716   5.610   2.917 -2.4622 -0.7424  0.0154
 2847TIP3    H2 8548   4.627   5.666   2.808  1.0300  0.9610 -2.1735
 2848TIP3   OH2 8549   2.155   4.176   1.304 -0.6634  0.2524  0.7644
 2848TIP3    H1 8550   2.095   4.112   1.267 -0.1204  0.2370 -0.1180
 2848TIP3    H2 8551   2.124   4.190   1.393 -1.1025 -0.8314  0.7872
 2849TIP3   OH2 8552   4.250   1.717   2.611  0.1784  0.4455  0.3172
 2849TIP3    H1 8553   4.234   1.625   2.633  0.9103  0.1315 -0.4279
 2849TIP3    H2 8554   4.207   1.730   2.527  0.2821  0.7262  0.3070
 2850TIP3   OH2 8555   3.248   1.038   1.695  0.5553 -0.2798 -0.3571
 2850TIP3    H1 8556   3.187   1.057   1.624  1.4461  0.3719 -0.9758
 2850TIP3    H2 8557   3.194   1.035   1.773 -0.2381  0.4702 -0.8651
 2851TIP3   OH2 8558   1.534   5.732   2.077 -0.1453 -0.3022 -0.0313
 2851TIP3    H1 8559   1.589   5.656   2.064 -0.1047 -0.1113 -1.0349
 2851TIP3    H2 8560   1.566   5.771   2.159 -1.1814 -2.1990  1.3658
 2852TIP3   OH2 8561   1.679   2.277   1.349  0.4812  0.4597 -0.0624
 2852TIP3    H1 8562   1.685   2.371   1.363 -0.4947  0.3690  1.1923
 2852TIP3    H2 8563   1.761   2.242   1.383  2.0982  1.0372 -3.0454
 2853TIP3   OH2 8564   0.202   0.696   4.777 -0.8423  0.6030 -0.5478
 2853TIP3    H1 8565   0.134   0.763   4.786 -1.2729  0.3540 -1.7879
 2853TIP3    H2 8566   0.156   0.619   4.744  0.0960  0.5681 -1.8368
 2854TIP3   OH2 8567   2.255   3.131   0.659  0.3963  0.1277 -0.6572
 2854TIP3    H1 8568   2.334   3.180   0.683  2.1249 -1.5247 -2.6545
 2854TIP3    H2 8569   2.237   3.157   0.569 -1.1024  0.1084 -0.3877
 2855TIP3   OH2 8570   4.547   3.530   2.772 -0.6994  0.3894  0.3295
 2855TIP3    H1 8571   4.478   3.566   2.828  0.1477  3.0332 -0.1838
 2855TIP3    H2 8572   4.540   3.580   2.690  1.4410  0.3423  0.0678
 2856TIP3   OH2 8573   3.635   0.740   0.137 -0.1741  0.0521 -0.9223
 2856TIP3    H1 8574   3.716   0.706   0.098  0.0189 -1.6846  0.8549
 2856TIP3    H2 8575   3.655   0.832   0.157  0.9991 -0.0724 -1.4397
 2857TIP3   OH2 8576   0.349   3.565   0.403 -0.0785 -0.4608  0.4791
 2857TIP3    H1 8577   0.284   3.584   0.470  0.0000 -0.8816  0.6726
 2857TIP3    H2 8578   0.419   3.628   0.419  0.6328 -1.5370  1.7357
 2858TIP3   OH2 8579   4.009   4.289   3.912 -0.5131 -0.4974 -0.7929
 2858TIP3    H1 8580   4.024   4.198   3.886  0.3147 -0.1062 -1.7462
 2858TIP3    H2 8581   3.967   4.329   3.835 -0.1477  0.1128 -0.6821
 2859TIP3   OH2 8582   5.440   0.189   4.780 -0.4224 -0.9321  0.0099
 2859TIP3    H1 8583   5.413   0.232   4.860 -0.8275  0.4386 -0.8339
 2859TIP3    H2 8584   5.404   0.243   4.710  1.9448 -0.6842 -1.1460
 2860TIP3   OH2 8585   0.853   1.520   0.654  0.3834  0.3974  0.0680
 2860TIP3    H1 8586   0.933   1.530   0.602 -0.7914  3.5746 -1.3580
 2860TIP3    H2 8587   0.786   1.496   0.590 -0.3582  0.6415  0.7436
 2861TIP3   OH2 8588   4.071   2.686   2.444  0.1892  0.0392 -0.2722
 2861TIP3    H1 8589   4.047   2.632   2.520  2.0236 -0.5533 -0.0420
 2861TIP3    H2 8590   4.098   2.622   2.377 -0.6080  0.5887 -1.1374
 2862TIP3   OH2 8591   6.237   1.401   1.017  0.4582 -0.0517 -0.3109
 2862TIP3    H1 8592   6.178   1.455   0.964 -0.3237  0.5477  1.1001
 2862TIP3    H2 8593   6.314   1.457   1.031  0.1227  0.3026  0.2086
 2863TIP3   OH2 8594   0.966   4.079   4.777  0.1826  0.5407 -0.1743
 2863TIP3    H1 8595   0.940   4.089   4.869  0.2167  0.2491 -0.1301
 2863TIP3    H2 8596   0.938   4.160   4.735  2.0403  1.6075  0.5179
 2864TIP3   OH2 8597   6.330   3.328   0.623  0.4105  0.2411  0.2855
 2864TIP3    H1 8598   6.328   3.235   0.598 -1.0741  0.3874 -0.2569
 2864TIP3    H2 8599   6.355   3.328   0.715 -3.4779 -1.0749  1.5525
 2865TIP3   OH2 8600   6.112   0.266   1.953 -0.1584  0.5283  0.0644
 2865TIP3    H1 8601   6.137   0.230   2.037 -0.5608 -0.8943 -0.3997
 2865TIP3    H2 8602   6.132   0.360   1.960 -0.4659  0.4985  1.8312
 2866TIP3   OH2 8603   5.215   2.553   1.869 -0.7804  0.3848  0.6718
 2866TIP3    H1 8604   5.167   2.518   1.944 -1.1640 -1.5573 -0.4268
 2866TIP3    H2 8605   5.157   2.538   1.794  0.9195 -0.6845 -0.4876
 2867TIP3   OH2 8606   0.683   1.953   1.117  0.5555  0.0903 -0.4139
 2867TIP3    H1 8607   0.685   1.884   1.183  1.1525 -0.3500 -0.8788
 2867TIP3    H2 8608   0.771   1.953   1.080 -0.2606 -1.0070 -2.5556
 2868TIP3   OH2 8609   0.834   1.618   4.933 -0.3160  0.3268 -0.1389
 2868TIP3    H1 8610   0.815   1.663   4.850 -1.0193  0.2931 -0.0003
 2868TIP3    H2 8611   0.927   1.635   4.949 -0.2614  0.6305 -0.7547
 2869TIP3   OH2 8612   4.658   3.859   2.514  0.5045  0.2778 -0.3917
 2869TIP3    H1 8613   4.676   3.896   2.428 -1.4259  3.7830  0.5368
 2869TIP3    H2 8614   4.697   3.921   2.576 -1.4908 -0.0192  1.2759
 2870TIP3   OH2 8615   2.722   5.223   4.168 -0.1675 -0.0679 -0.0197
 2870TIP3    H1 8616   2.680   5.307   4.186  0.8187  0.6975 -1.1123
 2870TIP3    H2 8617   2.814   5.236   4.193  0.8398  0.4487 -3.4787
 2871TIP3   OH2 8618   0.171   5.112   2.077  0.6521  0.3576 -0.1181
 2871TIP3    H1 8619   0.263   5.122   2.099  0.3740  1.6178  0.5577
 2871TIP3    H2 8620   0.129   5.190   2.112 -0.6940 -0.2368 -0.3315
 2872TIP3   OH2 8621   1.209   1.381   0.050  0.0994  0.0276 -0.2736
 2872TIP3    H1 8622   1.167   1.297   0.073 -0.8952  0.6495  0.2911
 2872TIP3    H2 8623   1.296   1.357   0.020 -0.4228 -1.2780 -0.8349
 2873TIP3   OH2 8624   0.441   1.018   0.336  0.0407 -0.6030  0.6265
 2873TIP3    H1 8625   0.361   1.004   0.285 -0.4275 -1.0211  1.4577
 2873TIP3    H2 8626   0.475   0.931   0.352  1.1195 -0.3851 -0.4137
 2874TIP3   OH2 8627   0.826   4.046   0.293 -0.0778  0.3092 -0.5051
 2874TIP3    H1 8628   0.825   4.013   0.383  0.9957 -1.5494 -1.1132
 2874TIP3    H2 8629   0.793   4.136   0.300  0.3200  0.3420  1.7751
 2875TIP3   OH2 8630   2.835   1.083   1.610  0.5642 -0.8602 -0.5816
 2875TIP3    H1 8631   2.841   1.036   1.527 -0.3465  0.4086 -1.4249
 2875TIP3    H2 8632   2.793   1.167   1.587  0.5311 -0.3603  1.1138
 2876TIP3   OH2 8633   1.279   2.562   4.944 -0.1708  0.1574  0.2207
 2876TIP3    H1 8634   1.335   2.561   5.023 -0.2198  0.8778  0.2705
 2876TIP3    H2 8635   1.286   2.651   4.911 -0.6381  0.0231 -0.2533
 2877TIP3   OH2 8636   0.921   5.616   3.149 -0.2375 -0.5147  0.6090
 2877TIP3    H1 8637   0.981   5.688   3.171 -2.0585  0.6849  1.9902
 2877TIP3    H2 8638   0.869   5.650   3.076 -0.3483 -0.8831  0.5159
 2878TIP3   OH2 8639   2.663   4.366   1.049  0.0861  0.4946 -0.2257
 2878TIP3    H1 8640   2.644   4.303   0.979  1.3680  0.6259 -0.7187
 2878TIP3    H2 8641   2.735   4.326   1.097 -0.7075  0.4659  0.9793
 2879TIP3   OH2 8642   2.639   0.721   4.482 -0.3259 -0.2506 -0.2282
 2879TIP3    H1 8643   2.597   0.805   4.503 -0.0949 -0.3730  0.7581
 2879TIP3    H2 8644   2.580   0.680   4.418 -2.0332 -0.6421  1.5055
 2880TIP3   OH2 8645   4.718   2.240   2.922 -0.0151  0.3184  0.2351
 2880TIP3    H1 8646   4.671   2.238   2.838 -0.2310  2.3528  0.2482
 2880TIP3    H2 8647   4.806   2.269   2.898  0.3854 -0.5987  0.5601
 2881TIP3   OH2 8648   3.384   1.235   1.146 -0.0138  0.5280  0.2175
 2881TIP3    H1 8649   3.297   1.224   1.183 -0.0124 -1.3669 -0.2520
 2881TIP3    H2 8650   3.443   1.231   1.222 -0.3067  2.2689  0.5918
 2882TIP3   OH2 8651   1.770   2.971   2.587  0.2968  0.4109 -0.0918
 2882TIP3    H1 8652   1.816   2.955   2.669 -0.1043  1.8060  0.4175
 2882TIP3    H2 8653   1.839   2.974   2.521  0.5002 -2.3834 -0.1237
 2883TIP3   OH2 8654   2.343   4.171   2.086  0.2504  0.0106 -0.9750
 2883TIP3    H1 8655   2.265   4.226   2.076 -0.2077 -0.5294 -0.5075
 2883TIP3    H2 8656   2.385   4.203   2.166 -1.3418 -1.8175  0.7168
 2884TIP3   OH2 8657   2.325   1.442   3.181 -0.4134  0.1925  0.5499
 2884TIP3    H1 8658   2.248   1.431   3.125 -1.2021 -1.3178  1.8450
 2884TIP3    H2 8659   2.308   1.523   3.229 -0.4465  0.6848 -0.2716
 2885TIP3   OH2 8660   0.921   5.392   1.498 -0.1962 -0.6985  0.4096
 2885TIP3    H1 8661   0.996   5.338   1.473  1.5391  1.4190  0.7309
 2885TIP3    H2 8662   0.899   5.363   1.587  0.4174 -1.1710  0.4156
 2886TIP3   OH2 8663   2.475   5.189   5.019 -0.3926  0.2076  0.3176
 2886TIP3    H1 8664   2.420   5.261   4.988 -0.7280 -0.3130 -0.2991
 2886TIP3    H2 8665   2.416   5.113   5.022 -0.0179 -0.0724  0.8757
 2887TIP3   OH2 8666   2.051   3.898   3.358  0.0494 -1.1215 -0.2135
 2887TIP3    H1 8667   2.091   3.828   3.410 -1.2175 -0.8315  1.2471
 2887TIP3    H2 8668   2.086   3.979   3.397 -0.6845 -0.9025  0.0002
 2888TIP3   OH2 8669   4.861   2.559   3.932  0.0740  0.0403 -0.0365
 2888TIP3    H1 8670   4.942   2.569   3.981  0.7174 -0.7340 -0.8967
 2888TIP3    H2 8671   4.870   2.621   3.859 -1.0511  1.4817  1.0040
 2889TIP3   OH2 8672   2.938   5.867   3.006  0.0092 -0.1228 -0.2905
 2889TIP3    H1 8673   3.025   5.826   3.003  0.4451  0.8398 -1.1372
 2889TIP3    H2 8674   2.889   5.813   3.069  1.4806 -0.1549  0.8845
 2890TIP3   OH2 8675   1.996   4.115   1.999  0.3657 -0.2298  0.3185
 2890TIP3    H1 8676   1.954   4.103   2.085  1.5598  0.0659  0.9579
 2890TIP3    H2 8677   2.056   4.189   2.012  1.2169 -0.7581 -0.5274
 2891TIP3   OH2 8678   0.975   0.053   3.668  0.0109 -0.2409  0.5164
 2891TIP3    H1 8679   0.996   0.132   3.718 -0.1243  0.1500 -0.0409
 2891TIP3    H2 8680   0.897   0.077   3.618 -0.0424 -0.7376  0.3627
 2892TIP3   OH2 8681   2.158   2.016   3.323  0.8754  0.0314 -0.0572
 2892TIP3    H1 8682   2.071   2.011   3.283  0.4123  0.7679  0.8382
 2892TIP3    H2 8683   2.214   1.966   3.264  0.4087  1.8031 -2.1181
 2893TIP3   OH2 8684   2.571   0.294   1.126  0.4242 -0.1651 -0.0888
 2893TIP3    H1 8685   2.583   0.355   1.053 -0.5203 -1.0712 -1.0606
 2893TIP3    H2 8686   2.577   0.348   1.205  1.1656  0.8944 -0.8477
 2894TIP3   OH2 8687   5.717   2.872   2.365 -0.3510  0.0264  0.1466
 2894TIP3    H1 8688   5.635   2.921   2.357  0.6561  1.7825 -0.0371
 2894TIP3    H2 8689   5.781   2.925   2.318  1.0173 -0.9922  0.7845
 2895TIP3   OH2 8690   3.994   4.762   1.029  0.4488 -0.3974 -0.1806
 2895TIP3    H1 8691   3.992   4.691   1.093 -1.7887  0.1243  0.4393
 2895TIP3    H2 8692   4.055   4.826   1.066 -0.0404 -0.5548  0.9639
 2896TIP3   OH2 8693   1.581   3.454   1.037  0.6293  0.0816 -0.1014
 2896TIP3    H1 8694   1.668   3.416   1.032  0.1390 -1.0103 -0.5760
 2896TIP3    H2 8695   1.570   3.477   1.129  1.3275  0.0015  0.0016
 2897TIP3   OH2 8696   0.787   0.600   3.090  0.5252  0.4998  0.0083
 2897TIP3    H1 8697   0.871   0.645   3.083  0.9036  0.2097  2.1737
 2897TIP3    H2 8698   0.751   0.628   3.174 -1.2347  0.0621 -0.5503
 2898TIP3   OH2 8699   3.240   2.524   2.591 -0.3752 -0.9857  0.2528
 2898TIP3    H1 8700   3.168   2.528   2.654 -0.1247 -1.4625  0.5779
 2898TIP3    H2 8701   3.270   2.614   2.583 -1.2795 -0.7136 -0.2065
 2899TIP3   OH2 8702   3.712   4.509   3.906  0.5842  0.5628  0.2670
 2899TIP3    H1 8703   3.722   4.431   3.851  0.4811  1.3379 -0.8975
 2899TIP3    H2 8704   3.632   4.493   3.955  0.2959  0.1342 -0.3207
 2900TIP3   OH2 8705   2.521   2.059   4.291 -0.5322  0.1378  0.4036
 2900TIP3    H1 8706   2.600   2.090   4.247 -0.7031 -0.6848 -0.5254
 2900TIP3    H2 8707   2.553   2.003   4.362 -0.2723  0.6660  0.7085
 2901TIP3   OH2 8708   5.691   1.324   4.840  0.1439  0.2739  0.1122
 2901TIP3    H1 8709   5.683   1.368   4.755 -1.7549 -1.4264 -0.6868
 2901TIP3    H2 8710   5.626   1.367   4.895 -0.9213 -0.7206 -0.3287
 2902TIP3   OH2 8711   5.057   4.485   4.718 -0.2651  1.0229 -1.0995
 2902TIP3    H1 8712   4.976   4.436   4.734 -0.0033  0.6406 -0.9312
 2902TIP3    H2 8713   5.126   4.418   4.717 -0.0213  1.2674 -1.8421
 2903TIP3   OH2 8714   5.397   1.969   2.754  0.0880  0.6107  0.1725
 2903TIP3    H1 8715   5.367   1.878   2.755 -0.6135  0.8427  0.2050
 2903TIP3    H2 8716   5.452   1.976   2.832 -0.7577  0.5094  0.7899
 2904TIP3   OH2 8717   2.405   0.673   0.299 -0.2718  0.3211 -0.1865
 2904TIP3    H1 8718   2.417   0.765   0.322  0.7212 -0.1872  1.5329
 2904TIP3    H2 8719   2.460   0.625   0.361 -0.5075 -1.4289 -1.2501
 2905TIP3   OH2 8720   1.261   0.300   2.761 -0.2708  0.3070  0.3141
 2905TIP3    H1 8721   1.252   0.393   2.781  1.5579 -0.0855  3.7597
 2905TIP3    H2 8722   1.347   0.292   2.720 -0.6704  0.1754 -0.5156
 2906TIP3   OH2 8723   3.845   2.455   2.442 -0.0074  0.1663  0.1196
 2906TIP3    H1 8724   3.913   2.458   2.375 -0.1924 -0.8681 -0.1468
 2906TIP3    H2 8725   3.763   2.449   2.392 -0.2044  0.2762  0.4306
 2907TIP3   OH2 8726   4.812   3.925   0.876 -0.0412  0.0993  0.4861
 2907TIP3    H1 8727   4.785   3.960   0.790  0.4374 -1.0564 -0.1526
 2907TIP3    H2 8728   4.740   3.947   0.934 -1.4192 -1.0317 -0.7072
 2908TIP3   OH2 8729   1.124   0.530   1.414  0.3121  0.3869 -0.1732
 2908TIP3    H1 8730   1.035   0.495   1.410  1.1877 -1.9747 -0.9896
 2908TIP3    H2 8731   1.132   0.568   1.501 -1.2700 -0.0135  0.1717
 2909TIP3   OH2 8732   5.805   2.450   3.992 -0.3621  0.4353 -0.4445
 2909TIP3    H1 8733   5.747   2.428   3.919 -0.5420 -1.2304  0.1501
 2909TIP3    H2 8734   5.819   2.367   4.037  2.2691  0.8459 -0.3736
 2910TIP3   OH2 8735   5.313   0.605   1.440  0.2078 -0.0654 -0.3476
 2910TIP3    H1 8736   5.235   0.572   1.484 -0.3637  0.5518 -0.8825
 2910TIP3    H2 8737   5.384   0.588   1.502 -0.2817 -0.9820 -0.0182
 2911TIP3   OH2 8738   5.524   1.653   3.187 -0.2811 -0.3664  0.1473
 2911TIP3    H1 8739   5.538   1.742   3.154  0.6874 -0.3035  0.6861
 2911TIP3    H2 8740   5.433   1.652   3.217  0.1579  0.9593  1.6397
 2912TIP3   OH2 8741   2.416   5.830   0.072  0.1782 -0.6711  0.2037
 2912TIP3    H1 8742   2.491   5.816   0.014  0.0979 -0.9458  0.1653
 2912TIP3    H2 8743   2.372   5.907   0.035 -0.1420 -1.1289 -0.3864
 2913TIP3   OH2 8744   2.090   5.217   4.644  0.2927 -0.3690  0.0267
 2913TIP3    H1 8745   2.156   5.149   4.632  0.8393  0.2871 -0.7731
 2913TIP3    H2 8746   2.049   5.227   4.558  1.7303  1.8171 -0.5075
 2914TIP3   OH2 8747   3.699   0.210   0.888 -0.1613 -0.0509  0.0320
 2914TIP3    H1 8748   3.669   0.122   0.911  0.7503  0.0342  1.6878
 2914TIP3    H2 8749   3.765   0.195   0.820 -0.9902 -0.5187 -0.6949
 2915TIP3   OH2 8750   0.287   1.425   4.021  0.3965  0.2964  0.4750
 2915TIP3    H1 8751   0.286   1.389   4.110 -0.5863  0.5960  0.5982
 2915TIP3    H2 8752   0.354   1.374   3.976  0.7025 -0.0614  1.3041
 2916TIP3   OH2 8753   0.364   5.684   2.018  0.9300  0.5992  0.2328
 2916TIP3    H1 8754   0.316   5.755   1.977 -0.0223 -0.0464  0.1920
 2916TIP3    H2 8755   0.335   5.685   2.109  0.1307 -0.3556  0.0081
 2917TIP3   OH2 8756   3.077   0.616   3.349  0.1284 -0.3723 -0.2042
 2917TIP3    H1 8757   3.067   0.691   3.407 -1.4746 -0.9697  0.3439
 2917TIP3    H2 8758   3.066   0.652   3.260 -0.8874  0.0033  0.0660
 2918TIP3   OH2 8759   1.313   4.327   0.140  0.1121 -0.4496  0.1498
 2918TIP3    H1 8760   1.243   4.276   0.181  1.9605 -1.4679  2.2423
 2918TIP3    H2 8761   1.331   4.397   0.202  0.6488  0.0991 -0.6036
 2919TIP3   OH2 8762   3.777   5.989   0.527 -0.5156  0.4569 -0.2699
 2919TIP3    H1 8763   3.788   5.989   0.432  3.0321 -0.3407  0.0035
 2919TIP3    H2 8764   3.817   5.908   0.556 -1.9076  0.4701  1.9441
 2920TIP3   OH2 8765   0.392   1.765   2.507 -0.3052  0.5969 -0.0170
 2920TIP3    H1 8766   0.406   1.687   2.453 -0.4115 -0.1946  1.0511
 2920TIP3    H2 8767   0.299   1.762   2.529 -0.3552  1.1481 -0.1375
 2921TIP3   OH2 8768   4.198   2.224   3.592  0.1104 -0.3238 -0.3679
 2921TIP3    H1 8769   4.139   2.169   3.541 -0.1525 -0.3157 -0.0795
 2921TIP3    H2 8770   4.231   2.167   3.661 -1.1431  0.1857  0.6989
 2922TIP3   OH2 8771   3.731   1.049   2.289 -0.4538 -0.3162 -0.0185
 2922TIP3    H1 8772   3.696   0.963   2.262  1.2895 -0.6632 -1.3544
 2922TIP3    H2 8773   3.774   1.083   2.210 -3.6844  3.2510 -0.5523
 2923TIP3   OH2 8774   4.226   1.481   2.829  0.4453 -0.3230  0.4358
 2923TIP3    H1 8775   4.134   1.478   2.803  0.4781 -2.4452  0.3993
 2923TIP3    H2 8776   4.229   1.549   2.896 -0.9537  0.4513 -0.2427
 2924TIP3   OH2 8777   4.247   4.272   0.573 -0.2510  0.3555  0.1122
 2924TIP3    H1 8778   4.166   4.249   0.620 -1.3511  1.3172 -1.2474
 2924TIP3    H2 8779   4.258   4.366   0.589  0.9886  0.1168  0.8075
 2925TIP3   OH2 8780   3.170   2.625   0.251  0.0944  0.6583  0.2924
 2925TIP3    H1 8781   3.220   2.674   0.186  0.1130  1.7034  1.0708
 2925TIP3    H2 8782   3.232   2.612   0.323  0.0573 -0.4401  0.1426
 2926TIP3   OH2 8783   1.848   3.765   4.471 -0.6502 -0.0976  1.3452
 2926TIP3    H1 8784   1.808   3.687   4.509  0.4718 -0.4024  1.9357
 2926TIP3    H2 8785   1.905   3.799   4.539  0.9258 -0.2893  0.1791
 2927TIP3   OH2 8786   2.514   2.265   2.212 -0.3381 -0.1208 -0.5108
 2927TIP3    H1 8787   2.549   2.312   2.287  0.7862 -0.4612 -0.7870
 2927TIP3    H2 8788   2.432   2.227   2.243  0.2196 -0.4601  0.6333
 2928TIP3   OH2 8789   4.738   3.034   4.701 -0.4777 -0.5652  0.0191
 2928TIP3    H1 8790   4.691   3.013   4.620  0.8253  0.4019 -1.0167
 2928TIP3    H2 8791   4.762   2.949   4.738  0.2836 -1.0106 -1.4471
 2929TIP3   OH2 8792   2.818   4.826   3.699  0.2228 -0.2525  0.2987
 2929TIP3    H1 8793   2.904   4.802   3.734  1.5563  1.9603 -1.2410
 2929TIP3    H2 8794   2.776   4.872   3.771  0.9319 -0.0657  0.6077
 2930TIP3   OH2 8795   4.180   0.986   0.050  0.0774  0.0484  0.3714
 2930TIP3    H1 8796   4.134   0.929   0.111 -1.3488  0.0528 -0.6419
 2930TIP3    H2 8797   4.125   0.986  -0.029  1.4088  0.7254 -0.6023
 2931TIP3   OH2 8798   2.873   1.661   0.473  0.8379  0.0241 -0.0256
 2931TIP3    H1 8799   2.808   1.652   0.543  1.6029 -1.8975  0.4986
 2931TIP3    H2 8800   2.949   1.611   0.504  1.1883 -0.9384 -2.2644
 2932TIP3   OH2 8801   5.247   1.270   1.332  0.0724 -0.4874 -0.8428
 2932TIP3    H1 8802   5.308   1.314   1.274 -1.0425  0.1378 -1.5813
 2932TIP3    H2 8803   5.209   1.200   1.279  0.8992 -1.5596 -0.0663
 2933TIP3   OH2 8804   5.573   1.580   2.393  0.2539 -0.1307  0.5830
 2933TIP3    H1 8805   5.534   1.632   2.323  0.4772  0.8141  1.1444
 2933TIP3    H2 8806   5.659   1.556   2.360  0.4612  0.5349  0.6213
 2934TIP3   OH2 8807   5.678   0.125   1.241  0.5528  0.2934  0.3371
 2934TIP3    H1 8808   5.764   0.082   1.241 -0.7085 -2.5480 -1.8654
 2934TIP3    H2 8809   5.686   0.194   1.174 -0.0188 -3.1389 -3.7397
 2935TIP3   OH2 8810   3.530   0.754   3.643  0.4034  0.1660 -0.2575
 2935TIP3    H1 8811   3.480   0.721   3.568 -0.0205  0.6062 -0.1724
 2935TIP3    H2 8812   3.463   0.778   3.707  0.6551  1.7815 -0.5553
 2936TIP3   OH2 8813   4.389   2.460   3.981  0.0847  0.5364 -0.5925
 2936TIP3    H1 8814   4.427   2.453   3.893 -0.9579  0.8214 -1.0768
 2936TIP3    H2 8815   4.315   2.400   3.979  1.6630 -1.6634  1.0153
 2937TIP3   OH2 8816   3.425   1.407   2.538  0.2354  0.3328  0.3103
 2937TIP3    H1 8817   3.424   1.362   2.453 -0.8130 -0.7124  0.8565
 2937TIP3    H2 8818   3.381   1.490   2.522  1.7037  0.9891 -0.5811
 2938TIP3   OH2 8819   6.091   5.424   3.803 -0.2502 -0.4669 -0.3380
 2938TIP3    H1 8820   6.079   5.410   3.709 -1.5423  2.7995 -0.8247
 2938TIP3    H2 8821   6.003   5.418   3.839 -0.1734  0.8516  0.1454
 2939TIP3   OH2 8822   6.368   5.506   3.878 -0.2140 -0.3804  0.3570
 2939TIP3    H1 8823   6.278   5.477   3.892 -0.0305 -0.8301  0.6432
 2939TIP3    H2 8824   6.397   5.536   3.965  0.4960 -1.9305  0.6852
 2940TIP3   OH2 8825   1.067   4.867   2.808  0.2747 -0.3287 -0.0549
 2940TIP3    H1 8826   1.093   4.784   2.768 -1.3985 -0.0972 -1.7701
 2940TIP3    H2 8827   1.008   4.841   2.879  1.5234 -0.6525  0.9070
 2941TIP3   OH2 8828   4.892   4.761   3.467 -0.5024 -0.2650 -0.9122
 2941TIP3    H1 8829   4.822   4.779   3.531  0.0830 -2.7062  0.5450
 2941TIP3    H2 8830   4.969   4.742   3.520  1.0500  1.3033 -2.4810
 2942TIP3   OH2 8831   2.331   2.618   1.945 -0.4519  0.3574 -0.2281
 2942TIP3    H1 8832   2.408   2.569   1.918 -1.6387 -2.1220  0.6053
 2942TIP3    H2 8833   2.364   2.707   1.961  2.7467 -1.0309  2.1596
 2943TIP3   OH2 8834   5.045   4.034   5.158  0.1306 -0.1035  0.3276
 2943TIP3    H1 8835   4.957   4.061   5.185  0.1255  0.6297 -0.4098
 2943TIP3    H2 8836   5.051   4.059   5.066  0.6493 -1.3241  0.0068
 2944TIP3   OH2 8837   4.036   0.041   3.105 -0.1162 -0.3999  0.2877
 2944TIP3    H1 8838   4.010   0.112   3.164  0.5695  0.4879 -0.4628
 2944TIP3    H2 8839   4.078  -0.023   3.163 -0.7058 -0.1897  0.9644
 2945TIP3   OH2 8840   1.493   5.064   1.220 -0.4639  0.1078  0.4243
 2945TIP3    H1 8841   1.514   4.995   1.282  1.4380 -0.4355 -0.7255
 2945TIP3    H2 8842   1.422   5.028   1.167  0.5549 -1.0598 -0.2100
 2946TIP3   OH2 8843   0.681   3.436   1.584  0.2151 -0.5223 -0.5804
 2946TIP3    H1 8844   0.642   3.516   1.619  0.3290 -0.9376  0.5272
 2946TIP3    H2 8845   0.770   3.435   1.618  0.3166 -0.9667 -0.8448
 2947TIP3   OH2 8846   5.402   1.506   4.352 -0.0583  0.4689  0.0426
 2947TIP3    H1 8847   5.412   1.414   4.328 -1.7973  0.4695 -0.8909
 2947TIP3    H2 8848   5.314   1.529   4.321  1.1565  3.0594 -1.8257
 2948TIP3   OH2 8849   6.261   3.196   3.955  0.2759  0.3038  0.0565
 2948TIP3    H1 8850   6.297   3.110   3.978 -1.1653 -0.0854  0.9995
 2948TIP3    H2 8851   6.244   3.237   4.040  1.7345  1.8867 -0.3837
 2949TIP3   OH2 8852   4.718   5.181   2.444  0.0643 -0.0611  0.4522
 2949TIP3    H1 8853   4.775   5.170   2.368 -0.4334  0.2781  0.0202
 2949TIP3    H2 8854   4.777   5.205   2.515  0.4385  0.5712 -0.0580
 2950TIP3   OH2 8855   1.584   2.045   4.190  0.6783  0.7484 -0.6107
 2950TIP3    H1 8856   1.680   2.045   4.191  0.6881  0.8065  0.5943
 2950TIP3    H2 8857   1.560   2.018   4.279 -0.3976  2.3896 -0.3491
 2951TIP3   OH2 8858   5.927   5.892   1.187 -0.1432  0.2703  0.0923
 2951TIP3    H1 8859   5.980   5.816   1.162 -0.2362 -0.2866  1.5023
 2951TIP3    H2 8860   5.836   5.860   1.182 -0.2099  0.4460  0.1904
 2952TIP3   OH2 8861   3.480   3.725   4.964 -0.9661 -0.1479 -0.0519
 2952TIP3    H1 8862   3.485   3.796   5.028 -2.3288  0.7779 -0.9271
 2952TIP3    H2 8863   3.397   3.739   4.919 -0.9037 -1.8708 -0.7637
 2953TIP3   OH2 8864   2.980   0.330   4.144 -0.5525  0.2474  0.4182
 2953TIP3    H1 8865   3.046   0.303   4.208 -0.1981  1.1231  0.4301
 2953TIP3    H2 8866   3.026   0.326   4.060 -0.9250 -0.5857  0.2406
 2954TIP3   OH2 8867   3.102   0.083   2.036 -0.1851  0.0979 -0.3066
 2954TIP3    H1 8868   3.042   0.039   2.095  1.9678 -1.1643  1.0952
 2954TIP3    H2 8869   3.168   0.122   2.094  0.3946  1.3860 -1.7559
 2955TIP3   OH2 8870   4.630   5.336   0.040 -0.2434 -0.1706  0.9292
 2955TIP3    H1 8871   4.603   5.337   0.132  0.3879  1.3083  1.1400
 2955TIP3    H2 8872   4.653   5.245   0.022 -1.1144 -0.6158  2.0079
 2956TIP3   OH2 8873   0.193   2.769   2.304  0.0194 -0.1466 -0.0820
 2956TIP3    H1 8874   0.288   2.755   2.298  0.0096  0.0119 -0.6301
 2956TIP3    H2 8875   0.156   2.681   2.294  0.1680 -0.5082  2.0765
 2957TIP3   OH2 8876   0.257   2.540   4.590  0.2913  0.0815 -0.3986
 2957TIP3    H1 8877   0.195   2.502   4.652  1.3619  0.3539  0.8858
 2957TIP3    H2 8878   0.224   2.629   4.574  0.7023  0.4796  0.8406
 2958TIP3   OH2 8879   4.319   2.876   0.042 -0.2575  0.2196  0.0335
 2958TIP3    H1 8880   4.411   2.874   0.016 -0.5743 -2.2444 -1.1682
 2958TIP3    H2 8881   4.317   2.934   0.118  2.5233 -0.7175  0.9399
 2959TIP3   OH2 8882   1.162   0.589   2.782  0.3626  0.4801  0.9338
 2959TIP3    H1 8883   1.252   0.605   2.753  0.4952 -0.6942  0.6558
 2959TIP3    H2 8884   1.124   0.677   2.790  1.4404  0.9802  0.7799
 2960TIP3   OH2 8885   1.931   3.233   0.805 -0.0805  0.1455 -0.3780
 2960TIP3    H1 8886   1.892   3.163   0.753  0.4363  0.9881 -1.9782
 2960TIP3    H2 8887   2.003   3.265   0.751  0.1930  1.3812  0.6739
 2961TIP3   OH2 8888   5.549   1.903   0.335  0.4761 -0.1874  0.0503
 2961TIP3    H1 8889   5.561   1.846   0.411  1.4399  0.3683  0.3380
 2961TIP3    H2 8890   5.613   1.872   0.272  0.0548 -0.2947 -0.3249
 2962TIP3   OH2 8891   4.880   1.448   5.053  0.3994 -0.5010 -0.0755
 2962TIP3    H1 8892   4.857   1.522   5.110  0.6493  0.6255 -1.3794
 2962TIP3    H2 8893   4.919   1.384   5.112 -0.4819  0.1032  1.2045
 2963TIP3   OH2 8894   3.543   2.358   2.497 -0.2833 -0.5168  0.1498
 2963TIP3    H1 8895   3.579   2.284   2.448 -1.5025 -2.0620  1.4674
 2963TIP3    H2 8896   3.461   2.378   2.453 -0.1417 -0.1963  0.0295
 2964TIP3   OH2 8897   3.731   0.196   4.893  0.0214 -0.5504  0.0018
 2964TIP3    H1 8898   3.680   0.140   4.952 -0.5333 -1.2805 -1.1486
 2964TIP3    H2 8899   3.767   0.137   4.828  0.5540  0.2587 -0.4506
 2965TIP3   OH2 8900   6.156   2.805   3.311  0.5696  0.2264 -0.0658
 2965TIP3    H1 8901   6.104   2.872   3.266  2.1944  0.8347 -1.1292
 2965TIP3    H2 8902   6.173   2.739   3.243  1.2660  0.1081  0.2142
 2966TIP3   OH2 8903   4.283   6.018   2.720 -0.1104  0.0384 -0.8366
 2966TIP3    H1 8904   4.220   5.962   2.765  0.8637  1.3288  2.4185
 2966TIP3    H2 8905   4.323   5.960   2.654 -2.6990 -1.5450 -1.1417
 2967TIP3   OH2 8906   2.750   3.133   4.475 -0.1525  0.0758 -0.1473
 2967TIP3    H1 8907   2.720   3.222   4.492  1.6395  1.3759 -3.0100
 2967TIP3    H2 8908   2.703   3.105   4.396 -0.4473 -1.4439  0.5164
 2968TIP3   OH2 8909   0.244   3.446   1.908  0.2346  0.2368  0.5225
 2968TIP3    H1 8910   0.191   3.455   1.829 -0.1329 -3.4372  0.1810
 2968TIP3    H2 8911   0.321   3.396   1.880  0.8611  0.1728  2.2011
 2969TIP3   OH2 8912   4.961   1.065   4.054 -0.1187  1.1214 -0.3537
 2969TIP3    H1 8913   4.915   0.991   4.014 -0.7764  1.6503 -0.5991
 2969TIP3    H2 8914   5.040   1.027   4.092  0.2912  0.5104 -1.7370
 2970TIP3   OH2 8915   1.215   0.258   3.532  0.7669 -0.4504  0.1748
 2970TIP3    H1 8916   1.185   0.231   3.445 -0.5911 -0.8707  0.7466
 2970TIP3    H2 8917   1.275   0.330   3.515 -1.5143  1.3262 -1.0442
 2971TIP3   OH2 8918   0.974   2.439   3.758 -0.4130 -0.6527  0.4239
 2971TIP3    H1 8919   0.891   2.446   3.804 -0.3462 -0.7780  0.5627
 2971TIP3    H2 8920   0.950   2.410   3.670 -0.5200 -0.6482  0.4511
 2972TIP3   OH2 8921   3.035   3.168   3.516 -0.4242 -0.3000 -0.0727
 2972TIP3    H1 8922   3.009   3.218   3.594 -2.7806 -0.7805 -0.4644
 2972TIP3    H2 8923   3.053   3.080   3.548 -0.7048 -0.3233  0.0227
 2973TIP3   OH2 8924   3.448   4.346   0.040 -0.1907 -0.0438  0.1910
 2973TIP3    H1 8925   3.482   4.257   0.041  0.9501  0.3649  1.5418
 2973TIP3    H2 8926   3.354   4.336   0.026 -0.0316 -1.4326 -0.0157
 2974TIP3   OH2 8927   1.835   1.131   0.879  0.4249  0.0251  0.2144
 2974TIP3    H1 8928   1.792   1.054   0.915 -0.1139  0.2542  0.0677
 2974TIP3    H2 8929   1.917   1.139   0.929  0.3271 -0.4462  0.4501
 2975TIP3   OH2 8930   2.852   0.007   3.136  0.1211  0.2340 -0.5047
 2975TIP3    H1 8931   2.836   0.082   3.194  1.4383 -0.2788  0.5783
 2975TIP3    H2 8932   2.945   0.013   3.114  0.3524 -1.3000 -0.0650
 2976TIP3   OH2 8933   2.780   3.431   4.462  0.4276 -0.2469  0.1776
 2976TIP3    H1 8934   2.841   3.397   4.397 -2.0440  1.2024 -3.1671
 2976TIP3    H2 8935   2.767   3.523   4.438 -2.5636 -0.3390  1.0193
 2977TIP3   OH2 8936   4.993   2.774   3.170 -0.2987  0.3786  0.1487
 2977TIP3    H1 8937   4.921   2.762   3.108 -0.7052 -0.3889  0.7605
 2977TIP3    H2 8938   5.053   2.702   3.151  0.2476  0.9275 -0.2554
 2978TIP3   OH2 8939   2.198   4.265   2.839 -0.3936 -0.2352 -0.2152
 2978TIP3    H1 8940   2.195   4.210   2.760  1.0594 -2.2798  1.0724
 2978TIP3    H2 8941   2.220   4.205   2.910  2.3042  2.1273  1.1732
 2979TIP3   OH2 8942   0.881   5.370   3.942  0.1849  0.0560  0.2898
 2979TIP3    H1 8943   0.888   5.306   3.871 -0.1705  0.0235  0.2802
 2979TIP3    H2 8944   0.934   5.333   4.013  1.0121  0.3705 -0.1564
 2980TIP3   OH2 8945   0.722   3.154   0.909 -0.3514  0.3017 -0.2193
 2980TIP3    H1 8946   0.710   3.129   0.817 -0.7417  0.1869 -0.1401
 2980TIP3    H2 8947   0.720   3.250   0.908 -3.0657  0.3280 -0.0204
 2981TIP3   OH2 8948   6.127   4.854   2.381  0.0801  0.4090 -0.1704
 2981TIP3    H1 8949   6.042   4.834   2.421 -0.1218 -0.2969 -0.9259
 2981TIP3    H2 8950   6.175   4.771   2.386  0.6779  0.7737  0.1366
 2982TIP3   OH2 8951   0.670   5.268   3.065 -0.4462 -0.3672 -0.2998
 2982TIP3    H1 8952   0.685   5.256   2.971 -0.5793 -3.1081 -0.0529
 2982TIP3    H2 8953   0.756   5.258   3.105 -0.7989 -2.4000  0.0592
 2983TIP3   OH2 8954   1.018   1.038   1.117 -0.6312 -0.2986  0.4034
 2983TIP3    H1 8955   1.090   0.992   1.160 -0.1609 -0.9237 -0.9994
 2983TIP3    H2 8956   1.016   1.124   1.158 -2.7636 -2.0380  4.5250
 2984TIP3   OH2 8957   4.802   0.706   1.118 -0.0594  0.6188 -0.1853
 2984TIP3    H1 8958   4.879   0.752   1.151  0.5029  0.3545 -1.0841
 2984TIP3    H2 8959   4.801   0.624   1.167  0.4175  0.4912 -0.3779
 2985TIP3   OH2 8960   6.058   2.936   1.540  0.8828 -0.3288  0.3439
 2985TIP3    H1 8961   6.075   2.982   1.622  1.7312  0.0702 -0.0404
 2985TIP3    H2 8962   6.012   3.000   1.486  0.6380 -0.4763  0.3726
 2986TIP3   OH2 8963   3.721   0.023   1.149 -0.0598  0.1004 -0.6015
 2986TIP3    H1 8964   3.626   0.027   1.138 -0.7143 -0.7774  3.2077
 2986TIP3    H2 8965   3.747   0.113   1.167 -0.5587  0.0452  0.4531
 2987TIP3   OH2 8966   4.370   3.156   1.721 -0.1038  0.3765  0.7297
 2987TIP3    H1 8967   4.354   3.236   1.771  0.0957  1.8032 -1.3482
 2987TIP3    H2 8968   4.434   3.182   1.655 -2.5248 -0.4804 -2.2163
 2988TIP3   OH2 8969   4.651   4.126   4.274 -0.4558 -0.6264  0.3112
 2988TIP3    H1 8970   4.693   4.188   4.333 -1.6784  1.1439 -0.5966
 2988TIP3    H2 8971   4.661   4.164   4.187 -3.3658 -0.3696 -0.0180
 2989TIP3   OH2 8972   0.123   4.189   5.167 -0.1167 -0.1421 -1.2173
 2989TIP3    H1 8973   0.068   4.254   5.122 -2.7288  0.8954  2.9515
 2989TIP3    H2 8974   0.065   4.114   5.182  0.4542 -0.2503  0.7151
 2990TIP3   OH2 8975   4.553   2.377   3.113 -0.0808 -0.3715  0.0970
 2990TIP3    H1 8976   4.519   2.310   3.172  1.9055 -1.5296  0.0071
 2990TIP3    H2 8977   4.576   2.330   3.033 -1.5640  0.9716 -1.1848
 2991TIP3   OH2 8978   3.864   0.752   2.424 -0.4738 -0.5714 -0.2479
 2991TIP3    H1 8979   3.890   0.660   2.419 -1.4332 -0.9658  1.3907
 2991TIP3    H2 8980   3.932   0.793   2.478  0.2180 -0.1781 -1.3744
 2992TIP3   OH2 8981   3.889   2.001   2.348  0.3288  0.1414  0.4749
 2992TIP3    H1 8982   3.944   2.023   2.273  1.4433  1.3201  1.6027
 2992TIP3    H2 8983   3.924   1.919   2.381  0.2325 -0.0535  0.1007
 2993TIP3   OH2 8984   1.987   0.675   0.160 -0.2258  0.3143 -0.3533
 2993TIP3    H1 8985   1.898   0.690   0.193  0.1171 -1.2923  1.4210
 2993TIP3    H2 8986   2.020   0.602   0.211  2.1865  0.9286 -0.9203
 2994TIP3   OH2 8987   4.955   1.737   3.174  0.3281 -0.0386  0.1083
 2994TIP3    H1 8988   4.949   1.707   3.083 -0.6134  0.7214 -0.1046
 2994TIP3    H2 8989   4.970   1.832   3.166  0.7834 -0.0537  0.7497
 2995TIP3   OH2 8990   4.598   2.938   0.311  0.0958  0.4035  0.9472
 2995TIP3    H1 8991   4.686   2.957   0.279 -0.1580 -0.6820 -0.4532
 2995TIP3    H2 8992   4.612   2.887   0.391  0.8567 -3.0558 -1.2001
 2996TIP3   OH2 8993   6.058   3.515   3.102  0.0345 -0.1997  0.2094
 2996TIP3    H1 8994   6.145   3.529   3.138  0.5712 -0.7845 -0.8066
 2996TIP3    H2 8995   6.066   3.433   3.052 -1.0448 -0.1629 -0.0474
 2997TIP3   OH2 8996   0.985   1.565   4.169 -0.7521  0.1430 -0.0041
 2997TIP3    H1 8997   0.920   1.578   4.100 -0.8858  0.4189  0.1704
 2997TIP3    H2 8998   0.955   1.621   4.240 -0.0498  0.6472 -0.1005
 2998TIP3   OH2 8999   5.126   4.709   1.589  0.1094 -0.3869  0.5622
 2998TIP3    H1 9000   5.061   4.679   1.526  0.8260  0.0290 -0.4045
 2998TIP3    H2 9001   5.079   4.712   1.673 -0.9130 -0.7541  0.0195
 2999TIP3   OH2 9002   1.885   3.127   0.281  0.4724 -0.2693  0.4484
 2999TIP3    H1 9003   1.874   3.207   0.332  0.6190  0.6073 -0.8337
 2999TIP3    H2 9004   1.954   3.079   0.326  1.1367  0.8393  0.6496
 3000TIP3   OH2 9005   5.537   0.325   3.254  0.1527 -0.1944 -0.1751
 3000TIP3    H1 9006   5.475   0.297   3.188 -0.7734 -0.0951  0.6339
 3000TIP3    H2 9007   5.483   0.361   3.325  0.9157 -2.3717  1.6621
 3001TIP3   OH2 9008   2.658   0.030   2.923 -0.2945  0.0950  0.1198
 3001TIP3    H1 9009   2.663   0.100   2.858 -0.6672 -1.1034 -1.2673
 3001TIP3    H2 9010   2.748   0.019   2.953  0.2756 -0.6630 -1.7230
 3002TIP3   OH2 9011   2.857   3.600   1.254  0.2390  0.2270 -0.0151
 3002TIP3    H1 9012   2.820   3.534   1.311  2.8600 -0.0256  1.5457
 3002TIP3    H2 9013   2.860   3.679   1.307  0.1335  0.7511 -0.7658
 3003TIP3   OH2 9014   4.908   1.322   4.162 -0.4324 -0.2631  0.5700
 3003TIP3    H1 9015   4.918   1.280   4.248 -3.9325 -2.1610  0.2327
 3003TIP3    H2 9016   4.917   1.251   4.100  0.3350  0.7978 -0.5784
 3004TIP3   OH2 9017   3.421   5.845   1.255  0.5553 -0.3583  0.1338
 3004TIP3    H1 9018   3.425   5.936   1.223  2.7337 -0.0640  1.0991
 3004TIP3    H2 9019   3.447   5.851   1.347  0.7794 -1.9717  0.1996
 3005TIP3   OH2 9020   0.430   4.795   1.220  0.1264  0.1104  0.6770
 3005TIP3    H1 9021   0.484   4.871   1.200  1.6498 -1.1127 -0.0204
 3005TIP3    H2 9022   0.340   4.826   1.209  0.7423  1.4001 -1.0954
 3006TIP3   OH2 9023   3.058   5.258   3.325  0.0731  0.4437  0.2586
 3006TIP3    H1 9024   3.105   5.241   3.407 -1.6154 -1.7104  0.9039
 3006TIP3    H2 9025   3.093   5.194   3.263 -1.1811 -0.4558  0.4391
 3007TIP3   OH2 9026   0.371   4.017   4.043  0.6378  0.5982  0.2041
 3007TIP3    H1 9027   0.390   4.104   4.078 -0.1305  0.6652  0.4723
 3007TIP3    H2 9028   0.456   3.983   4.016  0.8920  1.5788 -0.2570
 3008TIP3   OH2 9029   2.274   5.652   2.884  0.4460 -0.0615 -0.4713
 3008TIP3    H1 9030   2.239   5.659   2.795  0.3615  1.1082 -0.3705
 3008TIP3    H2 9031   2.309   5.563   2.889 -1.5166 -0.9146 -0.9241
 3009TIP3   OH2 9032   2.375   5.073   2.451  0.5640  0.2758  0.4846
 3009TIP3    H1 9033   2.462   5.109   2.433 -0.0746  1.1141 -1.1394
 3009TIP3    H2 9034   2.315   5.142   2.424 -0.6338 -0.8228  0.2707
 3010TIP3   OH2 9035   1.598   1.059   4.441  0.0236 -0.0881 -0.9782
 3010TIP3    H1 9036   1.589   0.990   4.376 -0.2345 -2.3159  1.2638
 3010TIP3    H2 9037   1.508   1.083   4.464  0.0565 -0.8815  0.0559
 3011TIP3   OH2 9038   5.182   1.547   3.948  0.9286  0.5796 -0.2930
 3011TIP3    H1 9039   5.140   1.462   3.932 -0.2690  0.7838  1.4691
 3011TIP3    H2 9040   5.248   1.555   3.879  2.9268 -2.9587  0.9521
 3012TIP3   OH2 9041   5.868   3.432   2.701  0.2418 -0.4829 -0.1735
 3012TIP3    H1 9042   5.871   3.498   2.770  1.5963 -0.9715  0.2803
 3012TIP3    H2 9043   5.941   3.454   2.643  0.4086 -1.2836 -0.2837
 3013TIP3   OH2 9044   3.665   5.908   1.855 -0.0928 -0.2022  0.7072
 3013TIP3    H1 9045   3.671   5.957   1.773  0.3435 -0.9915  0.2638
 3013TIP3    H2 9046   3.571   5.887   1.863 -0.2263  0.3745  0.7138
 3014TIP3   OH2 9047   5.030   4.889   1.120 -0.3645 -0.4784  0.4255
 3014TIP3    H1 9048   5.085   4.821   1.080  1.2984  1.2719 -0.4032
 3014TIP3    H2 9049   5.043   4.966   1.064 -2.8839  0.3177  0.8155
 3015TIP3   OH2 9050   5.224   0.474   0.433 -0.4044  0.6945 -0.1324
 3015TIP3    H1 9051   5.242   0.488   0.340  0.0306 -2.1232 -0.5593
 3015TIP3    H2 9052   5.309   0.455   0.471 -0.9474 -1.4833  0.1167
 3016TIP3   OH2 9053   0.690   5.512   3.723  0.3386 -0.0205 -0.5063
 3016TIP3    H1 9054   0.725   5.451   3.658  1.3879 -1.8088  1.6158
 3016TIP3    H2 9055   0.660   5.456   3.795 -1.0819  1.8593  0.4455
 3017TIP3   OH2 9056   3.473   3.101   3.494  0.0631  1.1276 -0.4811
 3017TIP3    H1 9057   3.416   3.175   3.470 -2.1501 -0.5128 -0.6322
 3017TIP3    H2 9058   3.457   3.036   3.425 -1.4534 -1.1683  1.8573
 3018TIP3   OH2 9059   6.343   5.656   1.600 -0.1506  0.8569  0.2096
 3018TIP3    H1 9060   6.300   5.687   1.520 -0.3122  0.8533  0.2946
 3018TIP3    H2 9061   6.396   5.731   1.629 -0.3258  0.9619  0.2623
 3019TIP3   OH2 9062   5.053   2.289   2.275 -0.0448  0.6324  0.4382
 3019TIP3    H1 9063   5.055   2.261   2.367  2.6563 -0.6402  0.1049
 3019TIP3    H2 9064   5.122   2.356   2.270 -0.4940  1.0301 -0.6021
 3020TIP3   OH2 9065   3.562   4.091   1.043 -0.5776 -0.3217  0.1549
 3020TIP3    H1 9066   3.643   4.046   1.067 -0.7053  0.0566  1.3989
 3020TIP3    H2 9067   3.587   4.153   0.976 -0.0649 -1.0158 -0.3067
 3021TIP3   OH2 9068   2.352   1.044   4.906  0.1089 -0.1119 -0.2788
 3021TIP3    H1 9069   2.445   1.062   4.895  0.2032 -0.6836 -0.4945
 3021TIP3    H2 9070   2.333   0.978   4.839 -0.1337 -1.0244  0.6580
 3022TIP3   OH2 9071   2.416   2.787   5.102 -0.0068 -0.0442 -0.0245
 3022TIP3    H1 9072   2.466   2.716   5.062 -0.1579 -0.2904  0.2240
 3022TIP3    H2 9073   2.422   2.859   5.039 -0.1643 -0.3983 -0.4464
 3023TIP3   OH2 9074   1.980   0.802   0.836  0.0950 -0.1045  0.1075
 3023TIP3    H1 9075   1.963   0.718   0.879 -0.8539  0.0517  0.0618
 3023TIP3    H2 9076   1.917   0.805   0.764 -0.4668  1.0309  0.6416
 3024TIP3   OH2 9077   6.356   0.856   4.465  0.7713  0.4464  0.2736
 3024TIP3    H1 9078   6.269   0.823   4.486  0.8111 -0.9026 -1.4618
 3024TIP3    H2 9079   6.378   0.914   4.538 -0.7009 -0.7892  1.7688
 3025TIP3   OH2 9080   2.093   1.950   5.058 -0.0100  0.1003  0.2305
 3025TIP3    H1 9081   2.110   1.856   5.051  2.4675  0.4491  0.5220
 3025TIP3    H2 9082   2.172   1.991   5.022 -0.3379  2.0453  1.5470
 3026TIP3   OH2 9083   0.830   4.228   1.069 -0.0267 -0.6626  0.4723
 3026TIP3    H1 9084   0.920   4.249   1.093 -0.0724  2.7659 -1.6133
 3026TIP3    H2 9085   0.822   4.134   1.084  3.4078 -0.8439  2.1159
 3027TIP3   OH2 9086   0.228   2.108   1.222 -0.5398 -0.6149  0.1539
 3027TIP3    H1 9087   0.249   2.136   1.311 -2.2182 -0.5869  0.5702
 3027TIP3    H2 9088   0.291   2.155   1.167 -0.7916  0.9577  1.1543
 3028TIP3   OH2 9089   5.459   5.530   3.568  0.7071 -0.2916 -0.4440
 3028TIP3    H1 9090   5.444   5.573   3.483 -0.4854  0.1514 -0.0319
 3028TIP3    H2 9091   5.407   5.450   3.564 -1.5942  1.0222  0.8226
 3029TIP3   OH2 9092   4.046   5.229   3.747  0.1843 -0.2046 -0.2027
 3029TIP3    H1 9093   4.029   5.241   3.841 -0.4099 -2.0167 -0.0516
 3029TIP3    H2 9094   4.087   5.143   3.741  1.0297  0.2679 -1.5396
 3030TIP3   OH2 9095   2.983   1.734   2.833  0.4451 -0.4576  0.3343
 3030TIP3    H1 9096   2.965   1.777   2.750 -2.3533  0.5727  1.3344
 3030TIP3    H2 9097   2.948   1.646   2.823  2.8145 -1.3593 -0.4936
 3031TIP3   OH2 9098   0.152   5.897   3.153 -0.2773 -0.1970  0.3765
 3031TIP3    H1 9099   0.204   5.975   3.134 -0.1580 -0.0768  1.1647
 3031TIP3    H2 9100   0.126   5.863   3.067  0.7897 -0.0519 -0.0127
 3032TIP3   OH2 9101   3.591   2.156   4.593 -0.2044 -0.9470 -0.1016
 3032TIP3    H1 9102   3.506   2.182   4.629  0.2869  2.0139 -0.8094
 3032TIP3    H2 9103   3.655   2.195   4.652  0.7012 -2.3892 -0.0870
 3033TIP3   OH2 9104   3.480   5.593   1.784 -0.0042 -0.2010  0.2041
 3033TIP3    H1 9105   3.567   5.555   1.776  0.2851  0.3138  0.7913
 3033TIP3    H2 9106   3.451   5.607   1.694  0.8417  0.3258 -0.0011
 3034TIP3   OH2 9107   5.049   3.480   4.623  0.7575  0.2117 -0.6090
 3034TIP3    H1 9108   5.126   3.535   4.636  2.0141 -1.3262 -1.1206
 3034TIP3    H2 9109   5.071   3.398   4.668 -1.6835  0.5993  1.4584
 3035TIP3   OH2 9110   4.938   5.931   4.737  0.0534  0.3891  0.3051
 3035TIP3    H1 9111   4.912   5.922   4.646 -0.8037  2.8708  0.2258
 3035TIP3    H2 9112   5.015   5.989   4.734  1.2466 -1.0902  1.0593
 3036TIP3   OH2 9113   2.421   0.262   0.296  0.4709  0.6329  0.3355
 3036TIP3    H1 9114   2.341   0.210   0.309  0.1919  1.0436  0.2820
 3036TIP3    H2 9115   2.443   0.249   0.204  0.9013 -0.0914  0.5349
 3037TIP3   OH2 9116   0.498   4.326   1.435 -0.2984 -0.6474 -0.0078
 3037TIP3    H1 9117   0.536   4.359   1.354 -1.9162  1.8609  0.1334
 3037TIP3    H2 9118   0.412   4.367   1.440 -0.6110 -1.4156  2.5418
 3038TIP3   OH2 9119   5.884   0.770   2.702  0.1388  0.1062 -0.0472
 3038TIP3    H1 9120   5.865   0.762   2.609 -0.0680 -2.8687  0.1799
 3038TIP3    H2 9121   5.814   0.826   2.736  0.0859  1.0343 -1.6077
 3039TIP3   OH2 9122   1.900   5.493   4.442 -0.4034  0.1716  0.0925
 3039TIP3    H1 9123   1.918   5.549   4.367 -0.9538  0.6385  0.3031
 3039TIP3    H2 9124   1.905   5.404   4.407  1.5948  0.2865  0.0013
 3040TIP3   OH2 9125   3.162   0.165   0.564  0.1967  0.0953  0.3942
 3040TIP3    H1 9126   3.234   0.175   0.502 -0.8587  1.0710 -0.7131
 3040TIP3    H2 9127   3.085   0.148   0.509 -0.6575  0.3539  1.4763
 3041TIP3   OH2 9128   6.150   0.084   0.647  0.6076  0.4292 -0.2921
 3041TIP3    H1 9129   6.102   0.166   0.662 -0.5637 -0.1749 -0.6481
 3041TIP3    H2 9130   6.125   0.028   0.720 -2.2748 -1.2337 -2.3753
 3042TIP3   OH2 9131   1.898   3.703   2.078 -0.2904  0.0346 -0.1496
 3042TIP3    H1 9132   1.870   3.790   2.050  0.4448  0.6554  0.9841
 3042TIP3    H2 9133   1.993   3.703   2.065 -0.4940 -1.3083 -1.9675
 3043TIP3   OH2 9134   0.909   0.241   2.641 -0.3411 -0.0894 -0.2243
 3043TIP3    H1 9135   0.979   0.293   2.600  0.9548 -1.4209  0.2350
 3043TIP3    H2 9136   0.908   0.271   2.732 -1.3347  0.8894 -0.5285
 3044TIP3   OH2 9137   0.021   4.107   1.727 -0.0290  0.1166  0.2659
 3044TIP3    H1 9138   0.080   4.100   1.803  0.6214  0.8959 -0.1472
 3044TIP3    H2 9139   0.009   4.201   1.715  1.1763  0.1016 -1.5580
 3045TIP3   OH2 9140   5.881   2.767   1.956 -0.3091  0.1761  0.0237
 3045TIP3    H1 9141   5.949   2.827   1.987 -0.8633  2.4653 -2.7391
 3045TIP3    H2 9142   5.923   2.681   1.955  1.7940  1.1357  0.5292
 3046TIP3   OH2 9143   2.747   4.689   1.110  0.3215 -0.3491 -0.5661
 3046TIP3    H1 9144   2.766   4.765   1.164 -0.3898  0.3158 -1.2305
 3046TIP3    H2 9145   2.699   4.724   1.035  1.0597 -1.2797 -1.5112
 3047TIP3   OH2 9146   1.677   2.333   0.066 -0.6014  0.4246 -0.2329
 3047TIP3    H1 9147   1.748   2.272   0.046 -0.1256  0.7594  0.3895
 3047TIP3    H2 9148   1.624   2.336  -0.013  0.6084  0.8795 -1.0450
 3048TIP3   OH2 9149   0.078   1.743   0.386  0.2465 -0.2903  0.0400
 3048TIP3    H1 9150   0.041   1.763   0.472 -0.6748  0.3481 -0.4918
 3048TIP3    H2 9151   0.093   1.648   0.388 -0.8130 -0.4573  0.5054
 3049TIP3   OH2 9152   3.123   1.226   4.038  0.0626  0.0342  0.1547
 3049TIP3    H1 9153   3.061   1.287   3.997 -0.3360 -0.7572 -0.4625
 3049TIP3    H2 9154   3.196   1.221   3.976 -0.1271 -0.4705 -0.0372
 3050TIP3   OH2 9155   4.789   1.180   2.939  0.2334 -0.2818  0.2215
 3050TIP3    H1 9156   4.698   1.207   2.948  0.4758  0.5482  0.2824
 3050TIP3    H2 9157   4.806   1.185   2.845  0.5975  0.9120  0.3304
 3051TIP3   OH2 9158   2.794   3.201   2.028 -0.1227 -0.2935  0.3886
 3051TIP3    H1 9159   2.838   3.167   2.107  0.2178  2.6894  1.6275
 3051TIP3    H2 9160   2.859   3.259   1.988 -1.5382  1.1568  0.0699
 3052TIP3   OH2 9161   2.155   3.180   4.867 -0.2925 -0.1473 -0.1993
 3052TIP3    H1 9162   2.187   3.231   4.792 -2.7018  1.5096 -0.2140
 3052TIP3    H2 9163   2.119   3.246   4.926 -1.7828 -1.7081  0.7001
 3053TIP3   OH2 9164   2.485   2.100   0.474 -0.1506 -0.5845 -1.0160
 3053TIP3    H1 9165   2.496   2.021   0.420  0.0475  0.2206 -2.1960
 3053TIP3    H2 9166   2.397   2.131   0.455 -0.0834 -0.2985 -0.8752
 3054TIP3   OH2 9167   4.549   0.194   4.042  0.1133 -0.3662 -0.1379
 3054TIP3    H1 9168   4.634   0.205   4.086  0.6463  1.5209 -1.4791
 3054TIP3    H2 9169   4.493   0.261   4.081 -1.0304 -2.0067  1.1902
 3055TIP3   OH2 9170   5.667   3.626   1.426 -0.2425 -0.1228 -0.1343
 3055TIP3    H1 9171   5.738   3.667   1.378  0.6050 -0.1020  1.0825
 3055TIP3    H2 9172   5.589   3.677   1.404  0.4752  1.0507  0.0057
 3056TIP3   OH2 9173   0.346   3.877   1.170 -1.0978  0.1634 -0.3072
 3056TIP3    H1 9174   0.382   3.963   1.151 -0.8001  0.5958  1.9239
 3056TIP3    H2 9175   0.421   3.825   1.198 -1.8076  0.6725  3.0549
 3057TIP3   OH2 9176   4.316   2.507   2.614 -0.5703 -0.0280  0.0409
 3057TIP3    H1 9177   4.234   2.509   2.664  0.2718  0.2115  1.4650
 3057TIP3    H2 9178   4.339   2.599   2.601 -1.8342  0.0066 -2.6915
 3058TIP3   OH2 9179   1.043   0.853   2.497  0.4349 -0.1959 -0.2913
 3058TIP3    H1 9180   1.105   0.854   2.424  0.6668  1.3569 -0.1013
 3058TIP3    H2 9181   1.002   0.767   2.492  0.2769 -0.0454 -2.3982
 3059TIP3   OH2 9182   5.708   1.439   3.157  0.0649 -0.2896  0.0969
 3059TIP3    H1 9183   5.639   1.503   3.170 -0.4070 -0.7947  0.1043
 3059TIP3    H2 9184   5.668   1.370   3.105  0.9856  0.1214 -1.2233
 3060TIP3   OH2 9185   2.535   1.671   2.148  0.0498  0.6436  0.3238
 3060TIP3    H1 9186   2.553   1.763   2.131 -0.4289  0.9292  1.3187
 3060TIP3    H2 9187   2.440   1.663   2.138  0.2940 -0.2873 -2.2093
 3061TIP3   OH2 9188   6.316   0.279   2.882 -0.2945  0.9605 -0.4114
 3061TIP3    H1 9189   6.229   0.256   2.848 -0.1725  1.7983 -1.3273
 3061TIP3    H2 9190   6.376   0.223   2.832 -0.3291 -0.2507  0.8185
 3062TIP3   OH2 9191   3.512   2.874   4.291 -0.2133 -0.3517  0.9436
 3062TIP3    H1 9192   3.513   2.819   4.369  0.7035 -1.5935  0.0911
 3062TIP3    H2 9193   3.483   2.817   4.220  1.2881  0.0549 -0.0649
 3063TIP3   OH2 9194   5.932   0.778   0.276  0.0754 -0.0801 -0.4116
 3063TIP3    H1 9195   5.994   0.785   0.204 -0.3761 -1.0668 -0.9151
 3063TIP3    H2 9196   5.863   0.721   0.243  0.5215 -1.6950  1.2305
 3064TIP3   OH2 9197   1.138   3.938   1.686  0.5166 -0.4080 -0.6525
 3064TIP3    H1 9198   1.233   3.942   1.681  0.5419 -1.1456 -0.8798
 3064TIP3    H2 9199   1.114   3.862   1.633 -0.0520 -1.3963  0.9607
 3065TIP3   OH2 9200   5.452   2.361   2.910 -0.2696  0.2030  0.2675
 3065TIP3    H1 9201   5.462   2.431   2.846 -2.0356 -0.4487 -0.7978
 3065TIP3    H2 9202   5.518   2.296   2.885  0.9628  1.1858  0.8899
 3066TIP3   OH2 9203   0.209   5.388   1.395 -0.0695 -0.2655  0.4158
 3066TIP3    H1 9204   0.170   5.370   1.481  0.4135  0.3136  0.7623
 3066TIP3    H2 9205   0.248   5.475   1.404  1.5092 -0.9104  0.1513
 3067TIP3   OH2 9206   0.154   0.314   3.420  0.2108  0.1008 -0.3079
 3067TIP3    H1 9207   0.191   0.254   3.356 -1.0759  1.1455 -2.1460
 3067TIP3    H2 9208   0.078   0.268   3.456 -0.1377  0.1773 -0.9217
 3068TIP3   OH2 9209   3.398   2.315   0.290  0.0044  0.1417  0.2359
 3068TIP3    H1 9210   3.351   2.365   0.357 -1.2982 -1.6658  0.7596
 3068TIP3    H2 9211   3.335   2.303   0.220 -0.7576 -3.0060  1.2872
 3069TIP3   OH2 9212   2.779   5.309   4.851  0.7177 -0.2338  0.0333
 3069TIP3    H1 9213   2.857   5.359   4.877  1.1028 -0.7773 -0.0588
 3069TIP3    H2 9214   2.806   5.217   4.859 -0.1527 -0.4449  0.7358
 3070TIP3   OH2 9215   5.234   1.156   0.224  0.4589  0.3263  0.4770
 3070TIP3    H1 9216   5.235   1.219   0.152 -0.9972  0.0183  0.1491
 3070TIP3    H2 9217   5.272   1.076   0.186  1.6671  0.7647  0.6981
 3071TIP3   OH2 9218   2.129   4.601   0.007  0.3784 -0.0163  0.3522
 3071TIP3    H1 9219   2.085   4.592   0.092 -0.3823 -2.1282 -0.2121
 3071TIP3    H2 9220   2.218   4.571   0.023  0.6654  0.9705  0.7010
 3072TIP3   OH2 9221   4.573   0.014   0.318 -0.5934  0.2076  0.4509
 3072TIP3    H1 9222   4.643   0.074   0.292 -0.9238  0.9692  1.2495
 3072TIP3    H2 9223   4.573  -0.055   0.251  0.3556  0.6486 -0.0141
 3073TIP3   OH2 9224   5.396   2.081   1.508  0.2786  0.2275 -0.0069
 3073TIP3    H1 9225   5.301   2.071   1.508  0.1567  1.2942  0.0257
 3073TIP3    H2 9226   5.427   2.019   1.442 -0.3374 -0.9020  0.7301
 3074TIP3   OH2 9227   0.531   2.368   3.562 -0.1083 -0.0778 -0.2865
 3074TIP3    H1 9228   0.574   2.439   3.513  1.0209  0.2160  1.0642
 3074TIP3    H2 9229   0.601   2.327   3.611 -1.0378 -1.0565  0.2657
 3075TIP3   OH2 9230   3.440   2.982   1.973 -0.7042  0.0669 -0.0524
 3075TIP3    H1 9231   3.381   2.910   1.995  0.8152 -1.7626 -1.5871
 3075TIP3    H2 9232   3.503   2.985   2.044 -0.3019 -0.6939 -0.3667
 3076TIP3   OH2 9233   0.676   3.816   2.390  0.0499 -0.4677  0.6558
 3076TIP3    H1 9234   0.771   3.802   2.388 -0.0887 -1.5310  0.8224
 3076TIP3    H2 9235   0.647   3.770   2.469 -1.0921 -3.5620 -1.4064
 3077TIP3   OH2 9236   2.625   5.784   3.881  0.0717  0.1445  0.1112
 3077TIP3    H1 9237   2.646   5.854   3.820  0.1081  0.8379  0.9015
 3077TIP3    H2 9238   2.683   5.712   3.856 -0.4996  0.1072 -1.1913
 3078TIP3   OH2 9239   2.674   0.226   0.702 -0.0517 -0.3506 -0.7543
 3078TIP3    H1 9240   2.698   0.157   0.765  1.5349  0.4922 -0.3958
 3078TIP3    H2 9241   2.756   0.248   0.658 -0.1717  2.2846  0.1420
 3079TIP3   OH2 9242   0.406   5.344   0.895 -0.0209  0.0816 -0.1495
 3079TIP3    H1 9243   0.325   5.346   0.947 -1.2366 -0.0561 -1.9483
 3079TIP3    H2 9244   0.473   5.377   0.954 -1.0328 -1.4309  2.0006
 3080TIP3   OH2 9245   6.001   5.511   4.712  0.5928  0.1156  0.0616
 3080TIP3    H1 9246   6.074   5.569   4.736  0.6770  0.0937 -0.1383
 3080TIP3    H2 9247   5.933   5.570   4.680  0.6596  0.1068 -0.0945
 3081TIP3   OH2 9248   0.916   2.629   2.387 -0.1656  0.0489 -0.0845
 3081TIP3    H1 9249   0.947   2.541   2.406 -0.7352 -0.1429 -0.0361
 3081TIP3    H2 9250   0.875   2.622   2.301 -1.5029 -0.0654  0.5447
 3082TIP3   OH2 9251   5.680   2.098   4.807  0.2776  0.1041 -0.1807
 3082TIP3    H1 9252   5.633   2.070   4.886 -1.2200  1.5110 -0.5084
 3082TIP3    H2 9253   5.615   2.147   4.757  2.0784  2.0485 -0.7440
 3083TIP3   OH2 9254   3.394   3.477   0.605 -0.2038 -0.2217  0.4373
 3083TIP3    H1 9255   3.403   3.490   0.699 -0.9276 -2.4784  0.8973
 3083TIP3    H2 9256   3.300   3.464   0.592 -0.1892  0.7007 -0.7097
 3084TIP3   OH2 9257   0.998   1.060   2.671 -0.1919 -0.1574  0.2497
 3084TIP3    H1 9258   0.999   1.022   2.583  1.0330  1.0645 -0.2944
 3084TIP3    H2 9259   0.920   1.116   2.671 -1.5133 -1.8985  0.7676
 3085TIP3   OH2 9260   3.390   4.982   4.964  0.3163 -0.0673  0.3308
 3085TIP3    H1 9261   3.367   4.893   4.991 -0.2081  0.2042  0.8038
 3085TIP3    H2 9262   3.483   4.978   4.946  0.2058 -0.8327 -0.1360
 3086TIP3   OH2 9263   6.002   3.985   5.101 -0.2270  0.5815 -0.1384
 3086TIP3    H1 9264   6.074   4.000   5.040  0.3088 -2.3093 -0.3637
 3086TIP3    H2 9265   5.965   3.901   5.074 -1.2264  0.1617  2.2883
 3087TIP3   OH2 9266   2.721   2.869   1.090  0.0098 -0.7923 -0.3052
 3087TIP3    H1 9267   2.773   2.790   1.108 -0.8016 -1.4811 -0.8873
 3087TIP3    H2 9268   2.773   2.918   1.027  0.6571 -0.7186  0.2818
 3088TIP3   OH2 9269   1.659   4.414   4.943 -0.5730  0.0670 -0.6932
 3088TIP3    H1 9270   1.568   4.385   4.955 -0.5726  0.3055 -0.0878
 3088TIP3    H2 9271   1.653   4.483   4.877 -0.7818 -0.1733 -0.9311
 3089TIP3   OH2 9272   1.275   0.027   2.973  0.3681  0.4888  0.0597
 3089TIP3    H1 9273   1.207   0.089   3.002  1.6031  1.7391  0.3746
 3089TIP3    H2 9274   1.348   0.043   3.032  0.4861 -1.7984  0.6027
 3090TIP3   OH2 9275   3.261   4.736   2.390 -0.0554 -0.1616 -1.1036
 3090TIP3    H1 9276   3.289   4.827   2.377 -0.7123  1.1489  4.4298
 3090TIP3    H2 9277   3.343   4.688   2.402  0.2550  0.5928 -0.0361
 3091TIP3   OH2 9278   6.127   5.016   4.831 -0.0732 -0.0388  0.2333
 3091TIP3    H1 9279   6.122   5.112   4.832 -1.6543 -0.0904  0.7108
 3091TIP3    H2 9280   6.040   4.989   4.799 -0.0764 -1.3283  1.2822
 3092TIP3   OH2 9281   4.018   2.809   4.256  0.2504  0.0465  0.4782
 3092TIP3    H1 9282   4.014   2.904   4.258  1.0659  0.0988 -0.0435
 3092TIP3    H2 9283   3.929   2.781   4.277 -0.6691  0.9583 -1.8590
 3093TIP3   OH2 9284   5.258   0.435   3.694  0.2399 -0.0886  0.4525
 3093TIP3    H1 9285   5.262   0.361   3.754 -1.0832 -0.1059  0.5591
 3093TIP3    H2 9286   5.164   0.452   3.684  0.5064  1.3047  0.1048
 3094TIP3   OH2 9287   3.280   0.929   2.444  0.3781 -0.4733 -0.2104
 3094TIP3    H1 9288   3.278   0.995   2.375 -0.1605  0.3034  0.5204
 3094TIP3    H2 9289   3.242   0.851   2.405 -1.2475  0.3698 -0.3954
 3095TIP3   OH2 9290   3.400   4.567   1.584  0.1891  0.4115  0.3281
 3095TIP3    H1 9291   3.362   4.622   1.515 -0.5984 -1.6513 -0.9889
 3095TIP3    H2 9292   3.383   4.615   1.665 -0.4766  2.0620 -0.7220
 3096TIP3   OH2 9293   3.292   3.325   4.757 -0.6756  0.4401  0.1062
 3096TIP3    H1 9294   3.371   3.309   4.705  1.3716  1.4130  2.6969
 3096TIP3    H2 9295   3.269   3.416   4.739 -0.7557  0.3861 -0.0680
 3097TIP3   OH2 9296   0.229   2.486   2.729  0.4872  0.7745 -0.5227
 3097TIP3    H1 9297   0.142   2.450   2.714  1.3105 -1.4914 -0.2736
 3097TIP3    H2 9298   0.214   2.574   2.764 -1.6410  0.9903 -1.8088
 3098TIP3   OH2 9299   3.566   0.082   0.384  0.4312  0.0864  0.0037
 3098TIP3    H1 9300   3.510   0.083   0.306  0.2338  1.4465  0.1233
 3098TIP3    H2 9301   3.531   0.012   0.438 -0.2486 -0.0378 -0.5714
 3099TIP3   OH2 9302   2.635   3.480   2.003  0.4012 -0.1357  0.5773
 3099TIP3    H1 9303   2.558   3.452   1.953  1.1587 -0.9899 -0.1490
 3099TIP3    H2 9304   2.684   3.536   1.943 -0.4234  1.7477  1.5756
 3100TIP3   OH2 9305   4.194   5.475   2.348  0.2239 -0.5122  0.0603
 3100TIP3    H1 9306   4.180   5.397   2.294  0.0275 -1.4685  1.4435
 3100TIP3    H2 9307   4.282   5.505   2.323 -0.5776  0.2331 -2.1563
 3101TIP3   OH2 9308   6.215   3.284   4.204  0.4960  0.0951  0.3118
 3101TIP3    H1 9309   6.244   3.206   4.251  0.1285  0.5069  1.2487
 3101TIP3    H2 9310   6.120   3.288   4.220  0.0464 -0.6626 -1.8487
 3102TIP3   OH2 9311   0.138   0.768   1.149 -0.0154  0.4166  0.3630
 3102TIP3    H1 9312   0.078   0.841   1.161  2.0516  2.1158  1.0139
 3102TIP3    H2 9313   0.217   0.808   1.111  1.2728 -1.4127  0.9646
 3103TIP3   OH2 9314   4.599   3.395   3.303  0.0921  0.0772 -0.0841
 3103TIP3    H1 9315   4.667   3.445   3.349 -0.3654  1.0806 -0.4686
 3103TIP3    H2 9316   4.639   3.309   3.288 -0.0992 -0.6924  3.0655
 3104TIP3   OH2 9317   0.324   1.550   2.324 -0.0439  0.1535 -0.4296
 3104TIP3    H1 9318   0.333   1.545   2.229 -2.7833 -0.2985 -0.7269
 3104TIP3    H2 9319   0.242   1.597   2.339 -0.4557 -1.0809  1.6648
 3105TIP3   OH2 9320   0.317   0.434   4.447 -0.1488 -0.1666  0.1751
 3105TIP3    H1 9321   0.261   0.388   4.509  1.7732 -1.0125  1.3504
 3105TIP3    H2 9322   0.285   0.525   4.448 -1.8076 -0.7274  0.3785
 3106TIP3   OH2 9323   2.068   2.590   4.194 -0.1610 -0.1640 -0.5327
 3106TIP3    H1 9324   2.030   2.642   4.124  1.5768  1.7806 -0.1109
 3106TIP3    H2 9325   2.012   2.607   4.270  1.9457  3.5915  0.3911
 3107TIP3   OH2 9326   0.568   5.424   0.236 -0.1386  0.3406 -0.6068
 3107TIP3    H1 9327   0.492   5.466   0.277  0.4777  2.5970 -1.6324
 3107TIP3    H2 9328   0.606   5.372   0.306 -0.6951  1.8920  0.9422
 3108TIP3   OH2 9329   3.610   3.928   5.113  0.3585  0.5503 -0.0881
 3108TIP3    H1 9330   3.601   3.903   5.205  0.4818  2.4561  0.4721
 3108TIP3    H2 9331   3.701   3.906   5.092  0.9561  1.9632  0.8740
 3109TIP3   OH2 9332   5.144   0.269   2.855  0.0803 -0.0475  0.0358
 3109TIP3    H1 9333   5.169   0.340   2.913  1.2580 -1.1587  0.9477
 3109TIP3    H2 9334   5.119   0.312   2.773  2.0626  1.3317  0.1016
 3110TIP3   OH2 9335   2.352   1.412   0.635  0.2068  0.2739  0.1183
 3110TIP3    H1 9336   2.378   1.491   0.683  1.6007  0.9280 -1.5637
 3110TIP3    H2 9337   2.258   1.422   0.621 -0.0750  0.4514  1.9307
 3111TIP3   OH2 9338   2.141   3.546   3.155  0.4578  0.0213  0.0512
 3111TIP3    H1 9339   2.085   3.475   3.185  0.3215  0.4785  0.9094
 3111TIP3    H2 9340   2.220   3.502   3.123 -0.4331 -0.6402 -1.3540
 3112TIP3   OH2 9341   6.230   1.103   1.962  0.0658 -0.0139 -0.1461
 3112TIP3    H1 9342   6.278   1.097   2.045  0.1493 -1.5415 -0.2711
 3112TIP3    H2 9343   6.289   1.152   1.904  0.3451  0.3824  0.4609
 3113TIP3   OH2 9344   3.094   4.812   4.104 -0.5384  0.2218  0.1681
 3113TIP3    H1 9345   3.105   4.787   4.195 -1.8205 -0.8573  0.0753
 3113TIP3    H2 9346   3.124   4.735   4.054  0.0624  0.7625 -0.3211
 3114TIP3   OH2 9347   5.432   1.166   3.327 -0.2987 -0.0239  0.0875
 3114TIP3    H1 9348   5.439   1.224   3.251 -2.3843 -1.0377 -0.9518
 3114TIP3    H2 9349   5.352   1.194   3.371 -0.1431 -0.7036  0.8137
 3115TIP3   OH2 9350   0.007   1.544   0.737 -0.0276  0.1984 -0.3047
 3115TIP3    H1 9351  -0.033   1.620   0.695 -1.5971 -0.0571  0.6450
 3115TIP3    H2 9352   0.084   1.580   0.782  0.4830  0.8229 -1.6127
 3116TIP3   OH2 9353   3.534   1.636   1.916 -0.5605  0.2028 -0.3025
 3116TIP3    H1 9354   3.482   1.637   1.996  2.0437 -0.3846  1.5056
 3116TIP3    H2 9355   3.486   1.695   1.856 -2.4792  0.8333  1.6954
 3117TIP3   OH2 9356   0.264   2.282   0.954 -0.0917  0.3053 -0.2778
 3117TIP3    H1 9357   0.255   2.259   0.861  0.9204  0.3096 -0.3834
 3117TIP3    H2 9358   0.185   2.245   0.995  0.6343 -1.8837 -0.7307
 3118TIP3   OH2 9359   2.885   1.573   3.727  0.3656  0.2571  0.5007
 3118TIP3    H1 9360   2.822   1.502   3.726 -0.8589  1.3074  0.8704
 3118TIP3    H2 9361   2.888   1.605   3.636  0.6081  0.0129  0.4205
 3119TIP3   OH2 9362   5.940   3.015   5.145  0.2187 -0.1416  0.5333
 3119TIP3    H1 9363   5.925   3.039   5.053  3.7282  2.1613  0.3978
 3119TIP3    H2 9364   5.897   3.083   5.195  1.0248  0.4339  0.4612
 3120TIP3   OH2 9365   3.937   0.221   1.147 -0.0742 -0.4377  0.1451
 3120TIP3    H1 9366   4.004   0.279   1.184  1.6567 -2.2247 -0.0305
 3120TIP3    H2 9367   3.858   0.275   1.142  1.4156  1.8420  0.0929
 3121TIP3   OH2 9368   3.808   1.271   4.393 -0.6931 -0.4701  0.1285
 3121TIP3    H1 9369   3.884   1.293   4.447 -1.3506 -1.2839  1.4468
 3121TIP3    H2 9370   3.737   1.326   4.428 -0.8641 -0.1797 -0.6638
 3122TIP3   OH2 9371   0.186   4.713   0.439 -0.3500  0.0776 -0.1154
 3122TIP3    H1 9372   0.109   4.700   0.384  1.2931  0.9002 -2.7829
 3122TIP3    H2 9373   0.255   4.739   0.378  1.3513  2.1938  2.4886
 3123TIP3   OH2 9374   0.441   4.635   5.081 -0.3904  0.0104  0.5217
 3123TIP3    H1 9375   0.352   4.598   5.084  0.1240 -1.2223  1.7934
 3123TIP3    H2 9376   0.470   4.635   5.172  1.2315 -0.4231  0.0352
 3124TIP3   OH2 9377   2.044   1.264   1.073  0.5771  0.2812  0.1397
 3124TIP3    H1 9378   1.966   1.319   1.083  0.2505 -0.1253 -0.1446
 3124TIP3    H2 9379   2.055   1.223   1.158  0.4763  0.3303  0.1768
 3125TIP3   OH2 9380   2.618   3.306   2.841 -0.5127 -0.0240 -0.7351
 3125TIP3    H1 9381   2.540   3.256   2.815 -0.9965  0.1457  0.3531
 3125TIP3    H2 9382   2.655   3.337   2.758 -1.8422  0.2523 -1.2482
 3126TIP3   OH2 9383   2.143   2.836   2.989  0.1437  0.0617 -0.2543
 3126TIP3    H1 9384   2.224   2.794   2.960 -0.0813  0.4072 -1.4309
 3126TIP3    H2 9385   2.134   2.809   3.081  1.0161 -0.8583 -0.4152
 3127TIP3   OH2 9386   4.643   2.218   1.390  0.0508 -0.4230  0.4027
 3127TIP3    H1 9387   4.563   2.271   1.389 -0.1632 -0.6839  1.7033
 3127TIP3    H2 9388   4.697   2.256   1.321 -2.1578 -1.8403 -2.2773
 3128TIP3   OH2 9389   1.094   2.178   1.027 -0.5447  0.1781 -0.1178
 3128TIP3    H1 9390   1.148   2.170   1.106  0.0166  0.4045 -0.4724
 3128TIP3    H2 9391   1.154   2.211   0.960 -0.8500 -0.6373 -0.8129
 3129TIP3   OH2 9392   4.004   3.628   1.279  0.5496 -0.2070  0.0874
 3129TIP3    H1 9393   3.982   3.693   1.345 -0.5368  1.1453 -1.5251
 3129TIP3    H2 9394   4.053   3.677   1.213  0.0685 -1.1124 -0.9660
 3130TIP3   OH2 9395   3.320   3.785   0.853  0.4463  0.4672 -0.2657
 3130TIP3    H1 9396   3.358   3.872   0.845  0.3875  0.5603  0.4516
 3130TIP3    H2 9397   3.233   3.799   0.890  0.7083  0.0566  0.5413
 3131TIP3   OH2 9398   3.318   1.498   0.398  0.1174  0.5517  0.4302
 3131TIP3    H1 9399   3.273   1.581   0.383  0.3804  0.4269 -1.2404
 3131TIP3    H2 9400   3.407   1.512   0.366 -0.4386 -1.0045 -2.1029
 3132TIP3   OH2 9401   1.804   3.879   3.668 -0.1159  0.0623 -0.5721
 3132TIP3    H1 9402   1.791   3.820   3.593  1.5128  1.1812 -1.8011
 3132TIP3    H2 9403   1.899   3.894   3.670  0.2192 -1.5316  3.0121
 3133TIP3   OH2 9404   2.658   1.953   3.794  0.0746  0.2674 -0.4314
 3133TIP3    H1 9405   2.646   2.026   3.854  0.0160 -0.9460  1.1227
 3133TIP3    H2 9406   2.700   1.885   3.848 -1.6984 -1.5666 -1.2235
 3134TIP3   OH2 9407   5.848   2.763   4.333 -0.1422 -0.0522  0.7587
 3134TIP3    H1 9408   5.753   2.760   4.339 -0.3726  0.9482 -1.1838
 3134TIP3    H2 9409   5.867   2.741   4.241  1.5390 -0.7652  1.2337
 3135TIP3   OH2 9410   5.086   5.139   0.975 -0.0804  0.0557  0.4585
 3135TIP3    H1 9411   4.999   5.135   0.936  0.4206  0.0691 -0.7026
 3135TIP3    H2 9412   5.126   5.218   0.938  0.1259  0.5379  1.6596
 3136TIP3   OH2 9413   4.908   4.094   4.549  0.9362  0.4403  0.4928
 3136TIP3    H1 9414   4.881   4.159   4.613 -1.0558  0.9035 -0.7123
 3136TIP3    H2 9415   4.841   4.025   4.555  2.5213 -1.1280  1.1447
 3137TIP3   OH2 9416   0.894   5.162   3.738  0.3870 -0.3674 -0.1971
 3137TIP3    H1 9417   0.930   5.089   3.789 -0.1194  0.8570  2.0284
 3137TIP3    H2 9418   0.953   5.169   3.663  1.2882 -2.1386  0.2648
 3138TIP3   OH2 9419   2.190   0.856   1.045  0.5113 -0.1946 -0.1214
 3138TIP3    H1 9420   2.183   0.777   1.098  1.1238  0.0522  0.3419
 3138TIP3    H2 9421   2.101   0.872   1.013 -0.2668  0.5553  2.1649
 3139TIP3   OH2 9422   4.564   1.333   2.603 -0.2334 -0.1458 -0.0100
 3139TIP3    H1 9423   4.568   1.249   2.649 -0.8574 -0.0354  0.2540
 3139TIP3    H2 9424   4.525   1.393   2.667  0.4384  0.4057 -0.1121
 3140TIP3   OH2 9425   3.324   1.246   2.731 -0.1490 -0.2852  0.3345
 3140TIP3    H1 9426   3.238   1.285   2.717  0.4393  0.5581 -1.1107
 3140TIP3    H2 9427   3.383   1.297   2.676  1.2581 -0.9640  1.1561
 3141TIP3   OH2 9428   3.644   2.345   3.954 -0.2184 -0.3399  0.0699
 3141TIP3    H1 9429   3.671   2.281   3.889 -1.3773  0.1320 -0.9353
 3141TIP3    H2 9430   3.725   2.376   3.994  0.4055 -1.7929 -0.0246
 3142TIP3   OH2 9431   4.418   4.263   5.066  0.4363  0.5266 -0.0840
 3142TIP3    H1 9432   4.369   4.343   5.044 -2.7209 -0.8715  1.1330
 3142TIP3    H2 9433   4.454   4.233   4.983 -2.3467  0.8039 -1.5261
 3143TIP3   OH2 9434   5.429   5.268   0.112 -0.1437  0.4229  0.8100
 3143TIP3    H1 9435   5.476   5.291   0.192 -0.0197 -0.1258  0.9032
 3143TIP3    H2 9436   5.451   5.176   0.097 -1.2582  0.1121  0.9190
 3144TIP3   OH2 9437   5.397   5.546   2.733  0.4588 -0.2733  0.0507
 3144TIP3    H1 9438   5.417   5.564   2.825 -0.6412  1.2391  0.0285
 3144TIP3    H2 9439   5.483   5.532   2.692  0.9981 -0.4496  1.1951
 3145TIP3   OH2 9440   3.067   0.783   3.817 -0.2271  0.0147 -0.3600
 3145TIP3    H1 9441   2.977   0.816   3.815 -0.6348 -1.0056 -3.3273
 3145TIP3    H2 9442   3.059   0.690   3.837 -0.0582 -0.4735 -2.3643
 3146TIP3   OH2 9443   0.224   1.095   2.468  0.0018 -0.6936 -0.2395
 3146TIP3    H1 9444   0.287   1.117   2.399 -1.1810 -1.5430 -1.6495
 3146TIP3    H2 9445   0.221   1.000   2.468  0.5112 -0.7475  1.5298
 3147TIP3   OH2 9446   0.439   1.830   1.498  0.5761 -0.0983 -0.1235
 3147TIP3    H1 9447   0.448   1.920   1.466  1.6346 -0.2448 -0.2836
 3147TIP3    H2 9448   0.471   1.834   1.588  0.1054 -0.2124  0.0502
 3148TIP3   OH2 9449   1.858   5.891   2.098  0.0571 -0.5092 -0.0482
 3148TIP3    H1 9450   1.906   5.956   2.149  0.6641 -1.0181  0.0398
 3148TIP3    H2 9451   1.794   5.855   2.159 -0.0134 -0.2767  0.0155
 3149TIP3   OH2 9452   6.059   4.453   5.038  0.6105  0.4573 -0.5512
 3149TIP3    H1 9453   6.041   4.547   5.029 -0.7366  0.1180 -1.9357
 3149TIP3    H2 9454   6.012   4.427   5.117 -0.9336  0.5564 -1.4000
 3150TIP3   OH2 9455   2.547   4.217   2.635 -0.1022 -0.2778 -0.2192
 3150TIP3    H1 9456   2.516   4.304   2.661  1.1042  0.7784 -2.1002
 3150TIP3    H2 9457   2.486   4.189   2.566  0.3035 -0.3215 -0.5626
 3151TIP3   OH2 9458   2.912   5.238   3.875  0.0218 -0.1675  0.2431
 3151TIP3    H1 9459   3.003   5.266   3.885  0.0979  0.5258 -1.9322
 3151TIP3    H2 9460   2.880   5.285   3.798 -2.3103 -0.1087  1.1381
 3152TIP3   OH2 9461   0.140   0.441   3.002  0.4677 -0.0729  0.5213
 3152TIP3    H1 9462   0.217   0.456   2.947 -0.8607 -1.1913 -1.7874
 3152TIP3    H2 9463   0.078   0.395   2.945 -1.3614 -0.5359  2.7306
 3153TIP3   OH2 9464   5.239   2.400   5.057  0.5232 -0.4911  0.2430
 3153TIP3    H1 9465   5.160   2.388   5.110 -0.6540  3.1941 -0.3614
 3153TIP3    H2 9466   5.296   2.455   5.111  3.0583 -3.3983  0.8408
 3154TIP3   OH2 9467   1.183   3.944   0.987 -0.3321  0.2439  0.1714
 3154TIP3    H1 9468   1.275   3.920   0.977  0.1151  2.2605 -1.1141
 3154TIP3    H2 9469   1.169   3.944   1.082 -0.1790 -3.8993  0.3751
 3155TIP3   OH2 9470   3.381   0.175   4.416  0.1304 -0.1714  0.1117
 3155TIP3    H1 9471   3.425   0.097   4.380 -0.1341 -0.0307 -0.5380
 3155TIP3    H2 9472   3.395   0.169   4.510  1.9125  0.0824 -0.0949
 3156TIP3   OH2 9473   0.746   1.648   4.654 -0.4465  0.7107  0.9921
 3156TIP3    H1 9474   0.816   1.703   4.620  0.6328  0.5122  2.7273
 3156TIP3    H2 9475   0.738   1.577   4.591  1.6265  0.2280  1.2105
 3157TIP3   OH2 9476   3.675   3.433   2.812 -0.5394  0.0258  0.0935
 3157TIP3    H1 9477   3.770   3.441   2.805 -0.6785  1.0073 -0.8828
 3157TIP3    H2 9478   3.660   3.340   2.829  0.5817 -0.1652  0.1106
 3158TIP3   OH2 9479   3.335   2.239   4.292  0.3435 -0.2610 -0.3931
 3158TIP3    H1 9480   3.291   2.274   4.215 -0.6504  0.7334  0.5873
 3158TIP3    H2 9481   3.423   2.276   4.288  0.0668  0.3914 -0.6611
 3159TIP3   OH2 9482   4.766   5.650   1.450  0.0235 -0.0351 -0.2019
 3159TIP3    H1 9483   4.858   5.671   1.436  0.3541  0.9448  2.7247
 3159TIP3    H2 9484   4.766   5.569   1.500 -0.8048 -0.7541 -1.3101
 3160TIP3   OH2 9485   2.782   4.839   4.672  0.2430  0.2940  0.0721
 3160TIP3    H1 9486   2.792   4.747   4.696  1.1024  0.6241  1.0311
 3160TIP3    H2 9487   2.809   4.843   4.581  1.4223 -0.1891  0.3899
 3161TIP3   OH2 9488   5.818   3.076   1.796  0.3184 -0.4595 -0.0082
 3161TIP3    H1 9489   5.770   3.125   1.729 -0.9690 -1.3423  0.2426
 3161TIP3    H2 9490   5.839   2.993   1.755  0.8693 -0.4191  0.1859
 3162TIP3   OH2 9491   6.077   3.912   1.758 -0.4810 -0.5919 -0.4148
 3162TIP3    H1 9492   6.040   3.869   1.836 -0.7218  0.0831 -0.1560
 3162TIP3    H2 9493   6.097   4.001   1.787 -0.9808 -0.2046 -1.2578
 3163TIP3   OH2 9494   2.274   3.247   4.399  0.2884  0.4796 -0.1941
 3163TIP3    H1 9495   2.322   3.329   4.408  2.3279 -0.6645  0.0042
 3163TIP3    H2 9496   2.312   3.205   4.321 -0.4686 -0.4364 -0.0926
 3164TIP3   OH2 9497   1.635   5.790   1.672 -0.3296  0.1170  0.1643
 3164TIP3    H1 9498   1.548   5.781   1.633  0.4577 -0.9909 -1.4550
 3164TIP3    H2 9499   1.620   5.838   1.753 -2.1534  2.0670 -1.2047
 3165TIP3   OH2 9500   3.667   3.840   2.956  0.2443  0.1717 -0.1337
 3165TIP3    H1 9501   3.676   3.757   3.004  0.6377  0.9526  1.1796
 3165TIP3    H2 9502   3.675   3.815   2.864 -0.7257 -1.4006  0.1744
 3166TIP3   OH2 9503   4.879   3.684   4.728 -0.3418  0.5423 -0.1987
 3166TIP3    H1 9504   4.830   3.748   4.676  0.2286  0.8554 -0.3552
 3166TIP3    H2 9505   4.925   3.630   4.664 -2.2160 -1.2374 -0.1801
 3167TIP3   OH2 9506   5.124   0.233   1.521 -0.5052 -0.0285 -0.4427
 3167TIP3    H1 9507   5.218   0.222   1.532 -0.6231 -0.3544  0.3036
 3167TIP3    H2 9508   5.085   0.187   1.595 -1.2498  0.2193 -0.6644
 3168TIP3   OH2 9509   5.032   5.157   3.004  0.1303  0.0039  0.8318
 3168TIP3    H1 9510   5.002   5.241   3.040 -1.1029 -0.0541  0.0090
 3168TIP3    H2 9511   5.105   5.132   3.060 -0.5956  0.7741  2.1854
 3169TIP3   OH2 9512   6.097   2.982   4.816 -0.6682 -0.2821  0.0506
 3169TIP3    H1 9513   6.062   2.998   4.729  0.5622  0.7507 -0.2926
 3169TIP3    H2 9514   6.053   2.903   4.846 -3.2172  0.9040 -0.3394
 3170TIP3   OH2 9515   5.979   3.737   2.233  0.2508 -0.3355 -0.1952
 3170TIP3    H1 9516   6.034   3.658   2.229  2.6637  1.1514  1.1368
 3170TIP3    H2 9517   5.991   3.778   2.147  1.4634  0.0865  0.1572
 3171TIP3   OH2 9518   5.590   2.177   0.409 -0.3085  0.0641  0.2883
 3171TIP3    H1 9519   5.562   2.088   0.386 -0.3558  0.3374 -0.7899
 3171TIP3    H2 9520   5.674   2.188   0.365  0.0129  0.3367  0.9550
 3172TIP3   OH2 9521   1.576   3.122   3.256  0.3276 -0.1835 -0.1536
 3172TIP3    H1 9522   1.664   3.157   3.271 -0.2841  0.7956  1.4614
 3172TIP3    H2 9523   1.560   3.136   3.163  1.3951  0.8374 -0.2123
 3173TIP3   OH2 9524   5.812   5.941   3.701 -0.6301 -0.3134  0.2310
 3173TIP3    H1 9525   5.874   5.870   3.687 -0.4750 -0.0365 -0.5705
 3173TIP3    H2 9526   5.726   5.900   3.689 -0.5333 -0.3215 -0.4989
 3174TIP3   OH2 9527   0.601   1.694   4.014  0.1651 -0.0136 -0.5155
 3174TIP3    H1 9528   0.562   1.747   4.083  1.8873  2.4043 -1.2606
 3174TIP3    H2 9529   0.528   1.674   3.955 -0.9673 -0.5524  1.0204
 3175TIP3   OH2 9530   1.121   2.869   2.719 -0.3116 -0.2793 -0.0784
 3175TIP3    H1 9531   1.105   2.811   2.793  1.8200 -0.4170  0.3484
 3175TIP3    H2 9532   1.185   2.822   2.665  1.4868  1.5896  0.2861
 3176TIP3   OH2 9533   5.629   4.789   4.516  0.5874 -0.1889  0.3754
 3176TIP3    H1 9534   5.718   4.758   4.502  0.5927  0.5555 -1.5082
 3176TIP3    H2 9535   5.639   4.882   4.536  0.2590 -0.1558  0.3877
 3177TIP3   OH2 9536   0.486   1.808   2.797 -0.0906 -0.4689  0.0131
 3177TIP3    H1 9537   0.410   1.769   2.755 -1.1449  0.4267  1.0239
 3177TIP3    H2 9538   0.450   1.858   2.870  1.4374  0.2920  0.2849
 3178TIP3   OH2 9539   1.619   4.708   4.860  0.2748  0.3688 -0.5290
 3178TIP3    H1 9540   1.679   4.781   4.873  1.2025 -0.4720  0.0585
 3178TIP3    H2 9541   1.658   4.658   4.789 -0.4084  0.4892 -0.9955
 3179TIP3   OH2 9542   1.077   3.468   3.659  0.1698 -0.0184  0.3087
 3179TIP3    H1 9543   1.158   3.418   3.655  0.9169  1.1605  0.4147
 3179TIP3    H2 9544   1.019   3.423   3.598  1.3968 -0.0283 -0.9022
 3180TIP3   OH2 9545   2.744   3.060   1.814  0.1980 -0.4777 -0.0196
 3180TIP3    H1 9546   2.755   2.973   1.852  2.6995 -0.0592  0.3904
 3180TIP3    H2 9547   2.779   3.120   1.880  0.2342  0.6809 -1.0544
 3181TIP3   OH2 9548   4.222   5.455   1.223  0.5078 -0.7131  0.2195
 3181TIP3    H1 9549   4.155   5.397   1.188 -0.8350  0.0594  1.4157
 3181TIP3    H2 9550   4.257   5.500   1.146 -0.4346 -1.0351 -0.4156
 3182TIP3   OH2 9551   0.612   2.330   0.481 -0.0305 -0.2041  0.3956
 3182TIP3    H1 9552   0.538   2.337   0.421  0.4089 -0.1592 -0.1562
 3182TIP3    H2 9553   0.669   2.264   0.441  0.7137  0.4931  0.2748
 3183TIP3   OH2 9554   3.733   5.069   2.760  0.1099 -0.1941 -0.7243
 3183TIP3    H1 9555   3.714   4.980   2.790  0.0892 -0.4117 -1.3739
 3183TIP3    H2 9556   3.735   5.063   2.664  0.4603  0.4333 -0.7654
 3184TIP3   OH2 9557   0.153   4.529   3.475  0.6093  0.4961 -0.3700
 3184TIP3    H1 9558   0.155   4.448   3.425 -0.1569 -1.2134  2.1665
 3184TIP3    H2 9559   0.064   4.534   3.510 -0.0474  3.6168 -2.1365
 3185TIP3   OH2 9560   4.135   0.281   4.001  0.0124  0.3374 -0.2578
 3185TIP3    H1 9561   4.101   0.370   3.992 -0.7844  0.4282  2.6469
 3185TIP3    H2 9562   4.068   0.226   3.960 -0.6213  0.9399 -0.0583
 3186TIP3   OH2 9563   1.854   4.901   0.461  0.2095  0.0126  0.5788
 3186TIP3    H1 9564   1.888   4.851   0.386 -0.1911 -1.0336  1.0792
 3186TIP3    H2 9565   1.759   4.905   0.446 -0.1932 -2.1369  2.1088
 3187TIP3   OH2 9566   2.617   0.997   2.599  0.3951 -0.4941 -0.2841
 3187TIP3    H1 9567   2.575   0.933   2.657  2.1887 -1.9132 -0.4896
 3187TIP3    H2 9568   2.558   1.003   2.524  0.1714 -1.9056 -0.2507
 3188TIP3   OH2 9569   4.023   5.634   0.024 -0.3344 -0.2529  0.1554
 3188TIP3    H1 9570   4.103   5.616   0.073 -0.4234 -0.0753  0.3637
 3188TIP3    H2 9571   4.046   5.709  -0.032 -1.1867  1.7066  2.2687
 3189TIP3   OH2 9572   2.041   0.584   3.342  0.3703 -0.4141 -0.6530
 3189TIP3    H1 9573   2.062   0.513   3.404 -0.2808 -0.5228 -0.5491
 3189TIP3    H2 9574   1.988   0.542   3.275 -3.5078  0.6377  1.4502
 3190TIP3   OH2 9575   4.081   2.448   3.245  0.1717  0.4354  0.1661
 3190TIP3    H1 9576   4.167   2.423   3.280 -0.4000 -0.5762  0.9069
 3190TIP3    H2 9577   4.024   2.376   3.270 -0.4787  0.1119 -2.0922
 3191TIP3   OH2 9578   3.241   2.927   4.309  0.4483 -0.5732  0.1332
 3191TIP3    H1 9579   3.220   2.968   4.225 -0.4972 -1.5550 -0.1271
 3191TIP3    H2 9580   3.335   2.915   4.308  0.7058  1.2078  0.0479
 3192TIP3   OH2 9581   2.650   1.444   1.129  0.5550  0.6588  0.1664
 3192TIP3    H1 9582   2.645   1.473   1.220  2.0950 -0.0359  0.5162
 3192TIP3    H2 9583   2.741   1.413   1.119 -0.0285 -0.7730 -1.1396
 3193TIP3   OH2 9584   2.586   5.961   2.740  0.0479 -0.3933  0.3071
 3193TIP3    H1 9585   2.558   5.898   2.807 -1.6105  0.3934  0.4127
 3193TIP3    H2 9586   2.670   5.994   2.771  0.5818 -1.9811  0.6297
 3194TIP3   OH2 9587   1.944   1.766   1.391 -0.0235 -0.2743 -0.0211
 3194TIP3    H1 9588   2.037   1.787   1.382 -0.2846  0.4338 -1.1259
 3194TIP3    H2 9589   1.941   1.707   1.467  1.4938 -1.4288 -0.8040
 3195TIP3   OH2 9590   0.179   0.514   5.138 -0.2527 -0.2462  0.5397
 3195TIP3    H1 9591   0.258   0.531   5.086 -1.6983  0.2442 -1.6159
 3195TIP3    H2 9592   0.138   0.438   5.096 -1.9752  0.7683  0.2739
 3196TIP3   OH2 9593   2.419   4.112   1.387 -0.1526  0.1533 -0.5038
 3196TIP3    H1 9594   2.337   4.144   1.349  0.4010  2.6897  0.2648
 3196TIP3    H2 9595   2.395   4.083   1.475 -0.1662  1.4247 -0.0721
 3197TIP3   OH2 9596   2.998   5.099   0.164 -0.5838  0.4150 -0.1563
 3197TIP3    H1 9597   3.078   5.072   0.118 -0.3797 -1.3531  1.1193
 3197TIP3    H2 9598   2.950   5.152   0.100  0.6782 -0.1448 -1.6324
 3198TIP3   OH2 9599   5.178   4.742   0.273 -0.2316  0.0101  0.4413
 3198TIP3    H1 9600   5.217   4.762   0.188 -1.1154  1.7982  0.3943
 3198TIP3    H2 9601   5.116   4.672   0.256 -0.2094  0.1745 -0.3340
 3199TIP3   OH2 9602   2.141   4.439   4.179 -0.6621  0.3313 -0.0539
 3199TIP3    H1 9603   2.081   4.367   4.192 -0.9502  0.6440  0.3911
 3199TIP3    H2 9604   2.205   4.430   4.250 -1.5940  1.3955  0.9773
 3200TIP3   OH2 9605   6.321   0.684   2.850  0.5956 -0.4892  0.2106
 3200TIP3    H1 9606   6.235   0.653   2.878  0.3646 -0.2514 -0.2244
 3200TIP3    H2 9607   6.341   0.631   2.772 -0.4381  1.3822 -1.3980
 3201TIP3   OH2 9608   0.287   0.694   0.045  0.0730 -0.1908  0.4458
 3201TIP3    H1 9609   0.209   0.638   0.047 -0.4688  0.5715  1.2989
 3201TIP3    H2 9610   0.288   0.737   0.131  1.4920 -0.2586  0.4771
 3202TIP3   OH2 9611   4.540   2.116   4.518  0.1590  0.0616 -0.0811
 3202TIP3    H1 9612   4.618   2.170   4.506  0.0698  0.7707  2.1888
 3202TIP3    H2 9613   4.471   2.164   4.473  0.8974 -0.4133 -1.8373
 3203TIP3   OH2 9614   2.300   0.844   1.882 -0.3090 -0.0732  0.1197
 3203TIP3    H1 9615   2.295   0.934   1.851  1.7299 -0.6821 -2.3335
 3203TIP3    H2 9616   2.255   0.792   1.816 -0.3721 -0.9939  0.8522
 3204TIP3   OH2 9617   1.821   4.087   1.290  0.1052  0.9898  0.1553
 3204TIP3    H1 9618   1.842   4.073   1.198  0.5740  0.6968  0.3019
 3204TIP3    H2 9619   1.725   4.085   1.293  0.0939 -0.7209 -0.0820
 3205TIP3   OH2 9620   5.484   0.874   2.187 -0.0080 -0.0057  0.2003
 3205TIP3    H1 9621   5.514   0.961   2.161  1.0058 -0.3664  0.0975
 3205TIP3    H2 9622   5.563   0.819   2.180 -0.8600 -1.1544 -0.7612
 3206TIP3   OH2 9623   4.887   0.265   1.754 -0.2492 -0.3104 -0.2037
 3206TIP3    H1 9624   4.801   0.256   1.794  0.8459 -1.7798  2.0776
 3206TIP3    H2 9625   4.873   0.252   1.661 -2.6107  0.5705 -0.0200
 3207TIP3   OH2 9626   6.206   2.283   3.273  0.2192  0.3476 -0.1393
 3207TIP3    H1 9627   6.155   2.271   3.193  0.2279 -0.0933 -0.0816
 3207TIP3    H2 9628   6.293   2.249   3.251  0.3979  0.8126 -0.1414
 3208TIP3   OH2 9629   4.795   0.732   3.662 -0.0530 -0.1986  0.1919
 3208TIP3    H1 9630   4.882   0.759   3.635  0.2350  1.7070  2.6099
 3208TIP3    H2 9631   4.740   0.809   3.647 -0.7414 -0.5034  1.0433
 3209TIP3   OH2 9632   5.105   4.448   1.292 -0.3068  0.5487  0.5773
 3209TIP3    H1 9633   5.185   4.415   1.334 -0.1838  0.6427  0.4188
 3209TIP3    H2 9634   5.058   4.370   1.264  0.3611  0.5103 -0.5061
 3210TIP3   OH2 9635   5.485   3.407   2.594  0.1055 -0.0393 -0.2074
 3210TIP3    H1 9636   5.505   3.484   2.647  1.0345  0.0591 -0.6895
 3210TIP3    H2 9637   5.486   3.438   2.504  0.8594 -0.6769 -0.4306
 3211TIP3   OH2 9638   4.543   1.546   5.007  0.2031 -0.0868 -0.0598
 3211TIP3    H1 9639   4.616   1.592   4.964 -0.0533  2.1211  1.6569
 3211TIP3    H2 9640   4.467   1.569   4.954  0.2241  0.7576  0.2541
 3212TIP3   OH2 9641   1.317   3.210   4.529  0.0908  0.3439  0.5282
 3212TIP3    H1 9642   1.359   3.124   4.522  0.8490  0.8000 -0.9235
 3212TIP3    H2 9643   1.251   3.198   4.597  1.3174 -0.9165  1.5838
 3213TIP3   OH2 9644   2.546   5.190   3.500 -0.2787 -0.1212  0.2607
 3213TIP3    H1 9645   2.506   5.107   3.475 -0.8985  0.2949 -0.1519
 3213TIP3    H2 9646   2.521   5.201   3.592 -1.0554  0.0906  0.0341
 3214TIP3   OH2 9647   3.733   2.848   3.355  0.0368  0.5774  0.3678
 3214TIP3    H1 9648   3.683   2.879   3.279  0.3954  0.1491 -0.0406
 3214TIP3    H2 9649   3.678   2.779   3.393  0.7484 -0.5679 -0.6453
 3215TIP3   OH2 9650   1.090   3.033   3.680  0.2982  0.0993 -0.3193
 3215TIP3    H1 9651   1.157   3.091   3.718  1.6810 -0.5184 -1.6940
 3215TIP3    H2 9652   1.108   3.035   3.585 -2.6897  1.1943 -0.9586
 3216TIP3   OH2 9653   4.447   0.703   3.655 -0.2730  0.3757 -0.0173
 3216TIP3    H1 9654   4.370   0.751   3.625 -0.4363  0.5675  0.6764
 3216TIP3    H2 9655   4.522   0.751   3.620 -0.4530 -0.7976 -2.1990
 3217TIP3   OH2 9656   3.102   0.476   4.569  0.2750  0.4695  0.6033
 3217TIP3    H1 9657   3.034   0.542   4.583 -0.0496  0.0426  1.0647
 3217TIP3    H2 9658   3.091   0.450   4.477 -1.0368 -0.5200  1.0077
 3218TIP3   OH2 9659   4.461   4.691   3.661  0.4899 -0.1547 -0.6754
 3218TIP3    H1 9660   4.545   4.728   3.635  0.7159 -0.4424 -0.3692
 3218TIP3    H2 9661   4.414   4.764   3.701  0.6206 -0.0096 -0.7864
 3219TIP3   OH2 9662   4.391   4.115   4.031 -0.1401  0.1541  0.5387
 3219TIP3    H1 9663   4.349   4.170   4.097 -0.8850 -0.9022  0.9830
 3219TIP3    H2 9664   4.385   4.026   4.067  0.5477 -0.2872 -0.3977
 3220TIP3   OH2 9665   0.218   0.977   2.883  0.1450  0.1498  0.0039
 3220TIP3    H1 9666   0.143   0.928   2.916 -1.0904  2.1674  0.3930
 3220TIP3    H2 9667   0.257   0.920   2.817 -2.0728 -0.7429 -0.6374
 3221TIP3   OH2 9668   6.193   1.782   4.062 -0.0056  0.0481 -0.3009
 3221TIP3    H1 9669   6.239   1.699   4.077  0.1062 -0.1327 -1.5344
 3221TIP3    H2 9670   6.116   1.757   4.011 -0.8729  0.5071  0.7226
 3222TIP3   OH2 9671   0.640   1.216   3.228  0.1391 -0.0217 -0.4280
 3222TIP3    H1 9672   0.623   1.279   3.298 -0.4637 -1.3435  0.6670
 3222TIP3    H2 9673   0.688   1.145   3.270  0.6588 -0.3885 -1.5878
 3223TIP3   OH2 9674   6.084   3.065   0.376  0.5982  0.9739 -0.1981
 3223TIP3    H1 9675   6.122   3.083   0.462  0.4206  1.9781 -0.3195
 3223TIP3    H2 9676   6.001   3.021   0.396  0.9046  0.5300  0.1189
 3224TIP3   OH2 9677   4.272   0.617   2.400 -0.5407 -0.1392 -0.2796
 3224TIP3    H1 9678   4.255   0.573   2.483 -1.9372  1.4076  0.3058
 3224TIP3    H2 9679   4.368   0.622   2.395 -0.3542 -2.3944  0.0199
 3225TIP3   OH2 9680   3.931   0.587   4.621  0.2637 -0.2520  0.0831
 3225TIP3    H1 9681   3.970   0.501   4.637 -2.1864 -1.5015 -0.1760
 3225TIP3    H2 9682   3.898   0.582   4.531  2.2940  1.9351 -0.8907
 3226TIP3   OH2 9683   3.666   4.709   0.259 -0.3644 -0.1236  0.1750
 3226TIP3    H1 9684   3.616   4.769   0.314  0.7696  0.1662  0.9171
 3226TIP3    H2 9685   3.709   4.765   0.195  0.0447 -0.2292  0.3559
 3227TIP3   OH2 9686   4.141   2.031   4.522 -0.6358  0.7512  0.0940
 3227TIP3    H1 9687   4.060   2.034   4.472 -0.4926 -0.0250 -0.2035
 3227TIP3    H2 9688   4.121   2.077   4.604 -1.6376 -0.1640  0.3878
 3228TIP3   OH2 9689   1.141   1.825   0.808  0.2518  1.0256  0.5946
 3228TIP3    H1 9690   1.188   1.803   0.889 -0.6587 -0.1728  0.8251
 3228TIP3    H2 9691   1.199   1.886   0.763  2.9185 -1.6898  0.0309
 3229TIP3   OH2 9692   5.321   5.305   3.514 -0.3713 -0.4350 -0.0547
 3229TIP3    H1 9693   5.390   5.240   3.499 -0.5715 -0.0813 -3.2072
 3229TIP3    H2 9694   5.246   5.253   3.542  0.2490 -1.2183  0.2145
 3230TIP3   OH2 9695   1.830   2.631   3.756 -0.4153 -0.1397  0.3100
 3230TIP3    H1 9696   1.809   2.583   3.836  1.6595 -1.0673  0.3703
 3230TIP3    H2 9697   1.893   2.697   3.784  1.3815 -1.3452 -0.7114
 3231TIP3   OH2 9698   1.266   0.864   0.494  0.0096 -0.3823 -0.1117
 3231TIP3    H1 9699   1.329   0.906   0.551  1.7757 -1.1736 -1.3868
 3231TIP3    H2 9700   1.294   0.772   0.492 -1.4829 -0.8569 -0.3383
 3232TIP3   OH2 9701   0.689   4.422   1.591  0.3281 -0.2648  0.2898
 3232TIP3    H1 9702   0.674   4.512   1.560  0.9021 -0.2238  0.1225
 3232TIP3    H2 9703   0.620   4.371   1.549  0.0003  0.0949  0.3783
 3233TIP3   OH2 9704   0.537   1.689   0.968  0.4006 -0.2368  0.5075
 3233TIP3    H1 9705   0.529   1.618   0.905 -2.1235  0.9765 -0.6607
 3233TIP3    H2 9706   0.619   1.732   0.945 -0.1150 -0.2497 -1.5297
 3234TIP3   OH2 9707   0.166   5.740   2.905  0.1081  0.4329  0.2832
 3234TIP3    H1 9708   0.084   5.777   2.873  0.0707  0.3415  0.2717
 3234TIP3    H2 9709   0.140   5.682   2.976 -0.1444 -1.6944 -1.4195
 3235TIP3   OH2 9710   5.586   4.076   5.111  0.1884 -0.1965  0.3878
 3235TIP3    H1 9711   5.600   3.990   5.070 -1.3866 -0.7159  0.8704
 3235TIP3    H2 9712   5.493   4.077   5.132  0.5671  0.8522  2.1683
 3236TIP3   OH2 9713   0.424   2.406   2.024  0.2401  0.6769  0.3295
 3236TIP3    H1 9714   0.486   2.351   2.072 -0.6651  0.0065  0.7447
 3236TIP3    H2 9715   0.340   2.391   2.066 -0.2998  1.2269 -0.5187
 3237TIP3   OH2 9716   2.399   0.516   3.199 -0.2943  0.0108 -0.0579
 3237TIP3    H1 9717   2.406   0.455   3.272  1.1354 -2.2624 -1.9311
 3237TIP3    H2 9718   2.460   0.586   3.220  1.0133 -1.2214  0.4029
 3238TIP3   OH2 9719   2.760   0.443   3.523 -0.2432  0.0696  0.0205
 3238TIP3    H1 9720   2.763   0.444   3.428  0.2278  1.3244  0.0347
 3238TIP3    H2 9721   2.851   0.459   3.550  0.0507 -2.3554  0.7099
 3239TIP3   OH2 9722   0.585   4.316   3.792 -0.2037 -0.0407  0.1799
 3239TIP3    H1 9723   0.637   4.242   3.760 -0.4098 -0.4130  0.6987
 3239TIP3    H2 9724   0.555   4.360   3.712  1.2441  0.4288 -0.1381
 3240TIP3   OH2 9725   0.732   3.989   1.107  0.2027  1.1751 -0.3786
 3240TIP3    H1 9726   0.687   4.016   1.027 -0.5197  2.5403  0.4506
 3240TIP3    H2 9727   0.679   4.025   1.178  1.1855  0.5622  0.7086
 3241TIP3   OH2 9728   6.066   0.681   3.078  0.5634  0.7621  0.0144
 3241TIP3    H1 9729   6.103   0.671   3.165 -0.7806 -1.3585  0.4170
 3241TIP3    H2 9730   6.040   0.592   3.052 -0.6454  1.5805 -1.8148
 3242TIP3   OH2 9731   0.473   3.294   1.882 -0.1287  0.2890  0.1891
 3242TIP3    H1 9732   0.474   3.202   1.910 -0.5959  0.7876  1.9456
 3242TIP3    H2 9733   0.565   3.322   1.888  0.4001 -0.5845 -2.3984
 3243TIP3   OH2 9734   3.954   4.437   0.028  0.5081 -0.2590 -0.1520
 3243TIP3    H1 9735   4.043   4.419   0.056  0.0096  1.4773  2.9623
 3243TIP3    H2 9736   3.900   4.420   0.105 -1.4494  1.7600 -0.9511
 3244TIP3   OH2 9737   4.339   1.154   0.811  0.3167  0.0516  0.5217
 3244TIP3    H1 9738   4.350   1.138   0.717  0.7508  0.7898  0.4366
 3244TIP3    H2 9739   4.427   1.147   0.847 -0.0233 -1.6283  1.1238
 3245TIP3   OH2 9740   1.701   1.683   4.562 -0.4318  0.1100 -0.2005
 3245TIP3    H1 9741   1.720   1.741   4.489 -0.1927 -1.0376 -1.0869
 3245TIP3    H2 9742   1.782   1.632   4.573 -0.6618 -0.1088  0.4949
 3246TIP3   OH2 9743   4.066   2.849   1.305  0.8667 -0.1706 -0.5895
 3246TIP3    H1 9744   4.015   2.868   1.227  0.6458  0.3827 -0.3107
 3246TIP3    H2 9745   4.002   2.821   1.370  1.2345 -2.7672 -1.2239
 3247TIP3   OH2 9746   2.527   0.348   2.006 -0.3024 -0.1215  0.2551
 3247TIP3    H1 9747   2.599   0.288   2.024 -0.3541 -0.9743 -2.0246
 3247TIP3    H2 9748   2.449   0.292   2.007 -0.7516  0.5041  1.1599
 3248TIP3   OH2 9749   1.420   0.781   3.469 -0.3120  0.4115 -0.8903
 3248TIP3    H1 9750   1.430   0.764   3.562 -0.1270 -1.2833 -1.1840
 3248TIP3    H2 9751   1.506   0.813   3.441 -0.3290  0.7910 -0.5149
 3249TIP3   OH2 9752   6.167   1.823   1.492 -0.0136  0.2823  0.6415
 3249TIP3    H1 9753   6.095   1.780   1.539 -0.7804 -0.6534 -1.2845
 3249TIP3    H2 9754   6.144   1.814   1.400  1.0211  2.7465  0.0514
 3250TIP3   OH2 9755   0.350   3.402   4.451 -0.3681  0.5929 -0.4200
 3250TIP3    H1 9756   0.385   3.313   4.455 -1.3010  0.2464  0.4904
 3250TIP3    H2 9757   0.416   3.451   4.400  1.7677  0.1410  1.7209
 3251TIP3   OH2 9758   4.600   5.465   0.566 -0.1466  0.2257  0.2518
 3251TIP3    H1 9759   4.619   5.558   0.582  0.1484  0.2303 -0.1031
 3251TIP3    H2 9760   4.538   5.441   0.634 -0.5152  0.7857  0.1212
 3252TIP3   OH2 9761   2.265   0.588   0.606  0.0344 -0.4312 -0.1019
 3252TIP3    H1 9762   2.296   0.662   0.658 -2.7585  0.8209 -0.0883
 3252TIP3    H2 9763   2.266   0.514   0.668 -0.7135  0.4535  1.0038
 3253TIP3   OH2 9764   2.422   0.970   3.871 -0.5699 -0.0037 -0.4183
 3253TIP3    H1 9765   2.400   0.994   3.780 -0.2720  1.2489 -0.1861
 3253TIP3    H2 9766   2.510   0.935   3.866 -0.0790  1.1895 -0.4731
 3254TIP3   OH2 9767   2.224   2.232   3.105 -0.1495  0.4892 -0.2420
 3254TIP3    H1 9768   2.282   2.275   3.168 -2.0845  1.5287  0.9344
 3254TIP3    H2 9769   2.162   2.183   3.159  0.0009 -1.1522 -1.4800
 3255TIP3   OH2 9770   4.983   5.980   3.448  0.5480 -0.4810  0.2520
 3255TIP3    H1 9771   4.926   5.904   3.450  0.7509 -0.6398  2.2201
 3255TIP3    H2 9772   4.927   6.052   3.477  0.3400  0.1775 -1.6546
 3256TIP3   OH2 9773   6.241   2.867   4.111  0.5681 -0.7042 -0.0240
 3256TIP3    H1 9774   6.295   2.815   4.052 -0.0248 -1.1657 -0.1636
 3256TIP3    H2 9775   6.169   2.899   4.056  0.7712  0.0249  0.1245
 3257TIP3   OH2 9776   3.833   1.007   0.852  0.2850 -0.4992 -0.4232
 3257TIP3    H1 9777   3.786   1.028   0.932 -0.1195  0.7606 -0.9619
 3257TIP3    H2 9778   3.915   1.055   0.858  0.5589 -0.9534 -0.4614
 3258TIP3   OH2 9779   1.186   0.902   3.349  0.1963 -0.1006 -0.0943
 3258TIP3    H1 9780   1.164   0.967   3.416  0.7396 -0.2363  0.2237
 3258TIP3    H2 9781   1.249   0.844   3.392 -1.2254 -1.6122  0.0610
 3259TIP3   OH2 9782   3.211   2.382   2.352 -0.3954 -0.2379 -0.3956
 3259TIP3    H1 9783   3.206   2.446   2.281  2.0863 -0.3325 -0.7461
 3259TIP3    H2 9784   3.200   2.433   2.432 -0.1800  0.3512 -0.7349
 3260TIP3   OH2 9785   5.591   3.699   0.613  0.2873  0.3454  0.4949
 3260TIP3    H1 9786   5.531   3.743   0.673 -0.6658  0.6211 -0.6292
 3260TIP3    H2 9787   5.664   3.760   0.604  0.0820  0.6393  0.7831
 3261TIP3   OH2 9788   1.585   1.118   0.468  0.2838 -0.1966  0.1892
 3261TIP3    H1 9789   1.519   1.121   0.399  0.7275 -1.0990 -0.2917
 3261TIP3    H2 9790   1.602   1.210   0.489 -2.7439  0.1164  1.9355
 3262TIP3   OH2 9791   3.307   3.993   2.307 -0.0944  0.2059  0.2375
 3262TIP3    H1 9792   3.337   3.925   2.367 -1.6190  0.1649  1.0175
 3262TIP3    H2 9793   3.384   4.047   2.291  0.7840 -0.8499  0.7774
 3263TIP3   OH2 9794   4.957   0.590   2.823  0.1749 -0.0581 -0.0523
 3263TIP3    H1 9795   4.972   0.495   2.831  1.8108  0.2454  0.9202
 3263TIP3    H2 9796   4.961   0.622   2.913 -0.4817  0.9386 -0.3681
 3264TIP3   OH2 9797   6.226   1.341   4.690  0.1684 -0.2454  0.0932
 3264TIP3    H1 9798   6.274   1.303   4.616 -1.3652 -0.0053 -1.0768
 3264TIP3    H2 9799   6.234   1.435   4.678 -0.5887 -0.2063 -0.1015
 3265TIP3   OH2 9800   1.546   0.916   3.705 -0.1261 -0.1135 -0.3135
 3265TIP3    H1 9801   1.517   1.007   3.692 -0.3683 -0.0439  0.6211
 3265TIP3    H2 9802   1.486   0.881   3.771 -0.5674 -1.2244 -1.2752
 3266TIP3   OH2 9803   0.428   4.909   0.846  0.0424  0.1410 -0.1266
 3266TIP3    H1 9804   0.425   4.900   0.751  0.8185  0.9815 -0.2437
 3266TIP3    H2 9805   0.449   4.821   0.878 -0.9771 -0.3062 -0.6781
 3267TIP3   OH2 9806   3.805   5.050   0.355 -0.0796 -0.0754 -0.2321
 3267TIP3    H1 9807   3.899   5.065   0.366  0.0622 -1.2497  0.3419
 3267TIP3    H2 9808   3.796   5.026   0.263  0.2921 -0.6024 -0.1396
 3268TIP3   OH2 9809   1.232   4.902   1.492  0.1778 -0.3610  0.2175
 3268TIP3    H1 9810   1.179   4.914   1.414  0.4701  0.8261  0.1783
 3268TIP3    H2 9811   1.311   4.857   1.460  0.2304 -0.0180 -0.1484
 3269TIP3   OH2 9812   3.808   1.959   1.637  0.0959 -0.2778 -0.4720
 3269TIP3    H1 9813   3.784   1.928   1.550  0.0931 -0.4575 -0.4059
 3269TIP3    H2 9814   3.902   1.940   1.644 -0.3320 -2.2668  0.4106
 3270TIP3   OH2 9815   5.680   4.462   0.463 -0.3147  0.0875 -0.1117
 3270TIP3    H1 9816   5.751   4.413   0.505  0.0318 -0.3095 -1.1374
 3270TIP3    H2 9817   5.677   4.545   0.511  0.0770 -0.3456  0.6838
 3271TIP3   OH2 9818   4.037   3.775   4.214  0.1638 -0.1077  0.0834
 3271TIP3    H1 9819   3.999   3.859   4.187  2.8484  0.8094 -1.1979
 3271TIP3    H2 9820   4.018   3.716   4.141 -0.7520 -0.3324  0.4877
 3272TIP3   OH2 9821   2.468   5.735   3.339 -0.4915  0.3415  0.9713
 3272TIP3    H1 9822   2.414   5.756   3.263 -1.8953  1.2310  2.1502
 3272TIP3    H2 9823   2.558   5.743   3.307 -1.0329  1.4665 -0.4044
 3273TIP3   OH2 9824   0.312   1.235   4.826 -0.0264  0.1939  0.1226
 3273TIP3    H1 9825   0.218   1.221   4.814 -0.0784 -0.1934  0.9348
 3273TIP3    H2 9826   0.319   1.316   4.876  0.1077  0.6007 -0.5375
 3274TIP3   OH2 9827   5.461   5.805   0.585  0.1082  0.0751  0.6444
 3274TIP3    H1 9828   5.460   5.900   0.596 -1.1812  0.2581 -0.6206
 3274TIP3    H2 9829   5.390   5.773   0.641 -0.2343 -0.0029  0.1741
 3275TIP3   OH2 9830   4.848   3.160   1.663 -0.0047  0.5583 -0.1526
 3275TIP3    H1 9831   4.754   3.173   1.652  0.0156  2.7530  1.5106
 3275TIP3    H2 9832   4.863   3.171   1.757  1.6681 -1.8607 -0.0532
 3276TIP3   OH2 9833   0.196   3.105   4.054 -0.3273 -0.0283  0.7069
 3276TIP3    H1 9834   0.279   3.066   4.027 -0.5179 -1.8765  2.5255
 3276TIP3    H2 9835   0.160   3.143   3.974  0.8249 -1.9364 -0.8041
 3277TIP3   OH2 9836   5.546   5.825   1.289 -0.0564 -0.2400 -0.0121
 3277TIP3    H1 9837   5.599   5.746   1.300  1.1149  0.3124 -1.4353
 3277TIP3    H2 9838   5.607   5.892   1.259 -1.2735  0.8669 -0.1328
 3278TIP3   OH2 9839   5.655   0.812   1.087 -0.3495 -0.0793 -0.1044
 3278TIP3    H1 9840   5.635   0.857   1.169  0.6947 -0.0554  0.1479
 3278TIP3    H2 9841   5.747   0.830   1.071 -0.7584  0.6628 -1.7763
 3279TIP3   OH2 9842   0.808   2.356   4.674  0.7089  0.0932 -0.3837
 3279TIP3    H1 9843   0.901   2.349   4.653  0.4093  1.3914 -2.4489
 3279TIP3    H2 9844   0.767   2.387   4.593 -1.5459 -0.5086  0.4449
 3280TIP3   OH2 9845   0.431   0.311   3.960  0.3971  0.1821 -0.9214
 3280TIP3    H1 9846   0.492   0.244   3.928 -0.1987  0.4012 -2.5979
 3280TIP3    H2 9847   0.347   0.288   3.923 -0.4614  0.2537  0.8544
 3281TIP3   OH2 9848   3.758   5.559   2.870 -0.4140 -0.2604 -0.1945
 3281TIP3    H1 9849   3.688   5.524   2.925 -0.6941 -0.4482 -0.6646
 3281TIP3    H2 9850   3.826   5.492   2.870 -0.5341 -0.3815 -0.3053
 3282TIP3   OH2 9851   3.220   0.769   1.943  0.5115 -0.2111  0.1691
 3282TIP3    H1 9852   3.180   0.839   1.995  1.2605 -0.0908  0.5933
 3282TIP3    H2 9853   3.146   0.717   1.913 -0.0948  0.9658 -0.4669
 3283TIP3   OH2 9854   0.629   5.461   1.030  0.3775  0.5034  0.5580
 3283TIP3    H1 9855   0.670   5.469   1.115  0.1534  2.2902  0.5321
 3283TIP3    H2 9856   0.697   5.426   0.973  0.4299 -1.0262  1.4977
 3284TIP3   OH2 9857   1.722   1.925   3.011  0.0886 -0.7865 -0.1276
 3284TIP3    H1 9858   1.655   1.989   3.034  1.4398  0.1762  1.4264
 3284TIP3    H2 9859   1.690   1.842   3.047 -0.2259 -0.3151  0.7225
 3285TIP3   OH2 9860   4.794   1.696   1.926  0.3658 -0.4359  0.7667
 3285TIP3    H1 9861   4.805   1.731   2.014  0.3151 -1.1771  1.0783
 3285TIP3    H2 9862   4.869   1.729   1.877 -0.0953  0.7394  0.8267
 3286TIP3   OH2 9863   5.983   0.946   5.091  0.8133 -0.0625 -0.2788
 3286TIP3    H1 9864   5.987   0.962   4.997 -2.0253  5.5135  0.1471
 3286TIP3    H2 9865   5.896   0.910   5.106  1.6307 -1.9545  0.2764
 3287TIP3   OH2 9866   5.691   2.688   4.944  0.3002  1.0510 -0.3626
 3287TIP3    H1 9867   5.748   2.621   4.982 -0.2387  0.8948  0.1979
 3287TIP3    H2 9868   5.668   2.745   5.018  0.3491  1.5585 -0.7356
 3288TIP3   OH2 9869   1.218   2.148   3.411  0.1147  0.1979 -0.1537
 3288TIP3    H1 9870   1.143   2.145   3.352  0.5613  0.5846 -0.7588
 3288TIP3    H2 9871   1.182   2.129   3.498 -0.8797  1.6252 -0.2295
 3289TIP3   OH2 9872   1.696   4.100   0.854 -0.0933  0.4695 -0.2313
 3289TIP3    H1 9873   1.782   4.133   0.880 -0.3732  1.0642 -0.0376
 3289TIP3    H2 9874   1.635   4.171   0.877 -0.3109  1.3699 -3.1776
 3290TIP3   OH2 9875   5.153   0.268   4.068 -0.1937 -0.1385  0.1743
 3290TIP3    H1 9876   5.124   0.182   4.038  1.0229 -0.4141 -0.2646
 3290TIP3    H2 9877   5.241   0.278   4.032 -0.8137  1.8916 -0.9759
 3291TIP3   OH2 9878   5.135   1.989   2.193 -0.9886 -0.3389  0.2842
 3291TIP3    H1 9879   5.076   1.949   2.257 -1.2113 -0.6992 -0.1348
 3291TIP3    H2 9880   5.099   2.076   2.178  0.1355  0.4752  2.0411
 3292TIP3   OH2 9881   5.381   1.505   0.501  0.2838  0.2413 -0.0272
 3292TIP3    H1 9882   5.384   1.418   0.541  0.0528  1.1950  2.2368
 3292TIP3    H2 9883   5.453   1.553   0.542 -0.1809  1.3905 -0.5148
 3293TIP3   OH2 9884   0.996   4.014   0.799 -0.4850  0.0871 -0.5955
 3293TIP3    H1 9885   1.062   3.990   0.735 -0.7022  0.8152 -1.1093
 3293TIP3    H2 9886   1.039   4.002   0.884 -0.2320 -0.9761 -0.8639
 3294TIP3   OH2 9887   3.324   2.394   3.479  0.0510  0.4450 -0.0239
 3294TIP3    H1 9888   3.358   2.370   3.565  0.4783  1.6533  0.1574
 3294TIP3    H2 9889   3.402   2.408   3.425 -0.2074  0.4488 -0.4051
 3295TIP3   OH2 9890   4.059   5.949   1.570  0.1833 -0.3940  0.0458
 3295TIP3    H1 9891   4.099   5.866   1.594  0.5544 -0.1986  0.1144
 3295TIP3    H2 9892   3.989   5.962   1.633  1.2751  0.2175  1.1664
 3296TIP3   OH2 9893   0.705   1.069   4.307 -0.0562  0.0849 -0.2337
 3296TIP3    H1 9894   0.670   1.108   4.387 -2.1399 -0.3435 -0.8678
 3296TIP3    H2 9895   0.784   1.119   4.288  0.1074  0.6324  1.7098
 3297TIP3   OH2 9896   5.813   2.492   1.254  0.1896 -0.2541 -0.7416
 3297TIP3    H1 9897   5.729   2.500   1.208  1.2460  0.1335 -2.7362
 3297TIP3    H2 9898   5.835   2.399   1.247  0.0421 -0.3102 -0.4481
 3298TIP3   OH2 9899   0.850   5.336   1.972  0.3583 -0.0022 -0.0931
 3298TIP3    H1 9900   0.802   5.386   1.907  0.6905  2.4301  1.4144
 3298TIP3    H2 9901   0.811   5.248   1.969  0.0259  0.1638 -3.1207
 3299TIP3   OH2 9902   0.486   4.619   4.036  0.3277 -0.0401  0.2484
 3299TIP3    H1 9903   0.439   4.682   4.091  0.5142 -0.2410  0.6459
 3299TIP3    H2 9904   0.417   4.576   3.985  0.2497  0.8321 -0.3954
 3300TIP3   OH2 9905   1.299   1.964   4.797  0.2483 -0.3702  0.3858
 3300TIP3    H1 9906   1.360   2.031   4.830 -0.1775 -0.3085  1.0715
 3300TIP3    H2 9907   1.356   1.898   4.756  0.6881  0.2868 -0.0819
 3301TIP3   OH2 9908   4.464   0.407   0.611  0.4943 -0.0482  0.5091
 3301TIP3    H1 9909   4.532   0.475   0.617 -1.8074  2.3479  1.5064
 3301TIP3    H2 9910   4.483   0.348   0.684  0.6252  1.5411  1.8281
 3302TIP3   OH2 9911   3.258   2.860   2.891  0.4036 -0.5167  0.1809
 3302TIP3    H1 9912   3.219   2.943   2.918 -1.5249 -1.9285  2.2122
 3302TIP3    H2 9913   3.243   2.855   2.797 -0.7331  0.8202  0.2626
 3303TIP3   OH2 9914   1.415   2.409   0.609  0.3253 -0.2673 -0.0716
 3303TIP3    H1 9915   1.391   2.436   0.520 -1.3224 -0.7062  0.1917
 3303TIP3    H2 9916   1.439   2.491   0.653 -0.4012  0.1814 -0.4846
 3304TIP3   OH2 9917   4.672   5.095   1.435 -0.6294 -0.3841 -0.3150
 3304TIP3    H1 9918   4.615   5.077   1.510 -0.6950 -1.5924 -0.6275
 3304TIP3    H2 9919   4.747   5.037   1.448  1.2204  2.0863  0.7594
 3305TIP3   OH2 9920   4.868   2.389   2.707 -0.4582  0.0968  0.2183
 3305TIP3    H1 9921   4.937   2.446   2.740 -0.6063  0.4007  0.0006
 3305TIP3    H2 9922   4.787   2.427   2.740 -0.5956  0.3035 -0.3485
 3306TIP3   OH2 9923   1.910   3.774   3.143  0.3930 -0.2767  0.0426
 3306TIP3    H1 9924   1.936   3.823   3.221 -1.5731  0.3931  0.3272
 3306TIP3    H2 9925   1.825   3.811   3.119  0.7215 -0.8309 -2.1282
 3307TIP3   OH2 9926   4.095   0.341   4.582  0.0562 -0.0935 -0.0786
 3307TIP3    H1 9927   4.021   0.289   4.552  0.1254  0.3911 -1.1181
 3307TIP3    H2 9928   4.173   0.292   4.554  0.1825 -1.0620  1.7883
 3308TIP3   OH2 9929   3.987   5.922   3.555  0.3063 -0.2316 -0.4024
 3308TIP3    H1 9930   3.900   5.886   3.569  0.6659 -0.7200  0.6508
 3308TIP3    H2 9931   3.972   6.005   3.511 -0.7065 -0.1421  0.1003
 3309TIP3   OH2 9932   3.702   4.264   3.768 -0.5068 -0.9121 -0.5875
 3309TIP3    H1 9933   3.638   4.209   3.722 -0.4099 -0.1872 -1.6405
 3309TIP3    H2 9934   3.782   4.254   3.716 -1.2018  2.3693 -2.5842
 3310TIP3   OH2 9935   6.211   0.796   4.932  0.0809 -0.2810  0.3463
 3310TIP3    H1 9936   6.260   0.866   4.976 -0.3513 -0.2926  0.8609
 3310TIP3    H2 9937   6.144   0.842   4.881 -0.1570 -0.3141  0.6269
 3311TIP3   OH2 9938   1.260   4.127   2.943  0.4245 -0.1376  0.4190
 3311TIP3    H1 9939   1.239   4.183   2.868 -1.2165  0.4856  1.3026
 3311TIP3    H2 9940   1.201   4.052   2.935  1.0469 -0.6416  0.4723
 3312TIP3   OH2 9941   4.179   4.940   1.482 -0.6068  0.1014  0.1349
 3312TIP3    H1 9942   4.236   4.881   1.530 -0.5884 -1.1307 -1.3260
 3312TIP3    H2 9943   4.238   5.002   1.439 -0.3992 -0.6187 -0.6475
 3313TIP3   OH2 9944   0.753   2.339   1.008  0.0186  0.2803  0.2521
 3313TIP3    H1 9945   0.779   2.272   1.072 -0.8556  1.0390  1.4537
 3313TIP3    H2 9946   0.658   2.346   1.018 -0.1801  0.2309 -1.3581
 3314TIP3   OH2 9947   3.519   4.977   2.043 -0.1393  0.3347 -0.5741
 3314TIP3    H1 9948   3.496   4.893   2.004 -0.2078  0.4563 -0.7984
 3314TIP3    H2 9949   3.606   4.997   2.007  0.8916 -0.6999  1.1970
 3315TIP3   OH2 9950   4.442   4.455   3.261 -0.6746 -1.1371  0.2347
 3315TIP3    H1 9951   4.523   4.452   3.312 -0.2991 -0.2243 -0.2798
 3315TIP3    H2 9952   4.380   4.404   3.312 -0.5915  0.5510  2.1448
 3316TIP3   OH2 9953   0.703   2.214   3.345 -0.1748 -0.2502  0.1094
 3316TIP3    H1 9954   0.620   2.200   3.299 -0.2304  2.7325 -0.9509
 3316TIP3    H2 9955   0.770   2.207   3.278  0.0000  1.3721  0.0653
 3317TIP3   OH2 9956   1.018   1.959   4.964  0.5363  0.2982 -0.0524
 3317TIP3    H1 9957   0.990   2.038   4.918  1.4476  1.1967  0.8895
 3317TIP3    H2 9958   1.072   1.912   4.900  0.6535  0.8408 -0.3595
 3318TIP3   OH2 9959   2.954   3.682   0.496  0.0122  0.5504 -0.1128
 3318TIP3    H1 9960   2.995   3.768   0.504  0.6005  0.3941 -1.3142
 3318TIP3    H2 9961   3.027   3.621   0.493 -0.3873  0.0519  0.1019
 3319TIP3   OH2 9962   3.121   0.585   2.966  0.2840 -0.5773 -0.1744
 3319TIP3    H1 9963   3.026   0.584   2.981  0.3355 -0.8826  0.1354
 3319TIP3    H2 9964   3.136   0.665   2.916  0.3848  1.6219  3.1090
 3320TIP3   OH2 9965   3.984   2.971   5.044  0.4985 -0.2243  0.3965
 3320TIP3    H1 9966   3.936   2.966   5.126  2.3902  2.0244  1.7732
 3320TIP3    H2 9967   4.062   3.023   5.064  1.5645 -0.4147 -2.5986
 3321TIP3   OH2 9968   0.536   3.647   4.596  0.0429 -0.4459  0.0922
 3321TIP3    H1 9969   0.456   3.637   4.648 -0.1438  0.2461 -0.0625
 3321TIP3    H2 9970   0.526   3.584   4.525 -0.8368  0.3443 -0.5051
 3322TIP3   OH2 9971   2.493   3.798   4.990 -0.3209 -0.2673  0.3025
 3322TIP3    H1 9972   2.453   3.751   5.063 -0.4916 -2.1188 -0.9298
 3322TIP3    H2 9973   2.537   3.872   5.031 -0.3945 -1.2533  2.2878
 3323TIP3   OH2 9974   5.831   1.530   2.605 -0.6275  0.1018 -0.5015
 3323TIP3    H1 9975   5.898   1.571   2.660 -0.6224  2.4718 -2.1057
 3323TIP3    H2 9976   5.824   1.440   2.638  1.4831  0.5310  1.3650
 3324TIP3   OH2 9977   0.282   5.944   0.078  0.4171  0.1381  0.2853
 3324TIP3    H1 9978   0.346   5.913   0.142  0.2974 -0.3294  0.1847
 3324TIP3    H2 9979   0.204   5.891   0.094  0.4968 -0.2249 -0.4661
 3325TIP3   OH2 9980   5.945   2.064   2.817  0.2191  0.2542  0.2784
 3325TIP3    H1 9981   6.018   2.017   2.777 -0.1986 -0.7004  0.5956
 3325TIP3    H2 9982   5.890   2.090   2.743  0.0838 -0.4097  0.1354
 3326TIP3   OH2 9983   0.621   5.888   4.158  0.4175 -0.3510  0.4544
 3326TIP3    H1 9984   0.632   5.966   4.103  1.4111  0.5823  1.9168
 3326TIP3    H2 9985   0.570   5.828   4.103  0.4304  0.9453 -1.0687
 3327TIP3   OH2 9986   5.801   1.672   1.905 -0.2547 -0.3251  0.0554
 3327TIP3    H1 9987   5.810   1.682   2.000  1.7183  2.1252 -0.2789
 3327TIP3    H2 9988   5.891   1.662   1.873 -0.5663  1.8774 -1.7427
 3328TIP3   OH2 9989   5.423   5.761   1.827  0.1183  0.1274 -0.0811
 3328TIP3    H1 9990   5.430   5.696   1.757  1.2646 -0.0404  0.1729
 3328TIP3    H2 9991   5.480   5.832   1.799 -0.3077  0.5657  0.1495
 3329TIP3   OH2 9992   5.294   4.289   1.385 -0.1481  0.2007  0.1627
 3329TIP3    H1 9993   5.374   4.319   1.430  0.2238 -0.2577 -0.1813
 3329TIP3    H2 9994   5.321   4.208   1.341 -1.2742 -0.9680  1.5291
 3330TIP3   OH2 9995   0.838   3.612   2.695  0.0022  0.5176  0.2701
 3330TIP3    H1 9996   0.864   3.530   2.654  0.2164 -0.0704  1.5285
 3330TIP3    H2 9997   0.918   3.666   2.694 -0.0563  0.5938 -0.2836
 3331TIP3   OH2 9998   3.495   0.132   2.828  0.1064 -0.1646 -0.2688
 3331TIP3    H1 9999   3.478   0.222   2.799 -0.9325 -0.0842  0.5337
 3331TIP3    H210000   3.443   0.078   2.768  1.3524 -0.3075 -1.2579
 3332TIP3   OH210001   2.895   2.320   1.936  0.2783 -0.6560  0.4285
 3332TIP3    H110002   2.935   2.343   1.852  0.7649 -1.5721  0.3993
 3332TIP3    H210003   2.803   2.302   1.914  0.7492 -2.5130 -0.2234
 3333TIP3   OH210004   6.151   4.521   3.191 -0.2384  0.2719 -0.4399
 3333TIP3    H110005   6.090   4.491   3.258  0.6168 -1.1675 -0.2802
 3333TIP3    H210006   6.140   4.616   3.190 -2.1841  0.0849 -0.1424
 3334TIP3   OH210007   3.090   3.991   0.482 -0.3075  0.3200  0.1426
 3334TIP3    H110008   3.169   3.945   0.452 -0.8501 -0.1870 -0.5286
 3334TIP3    H210009   3.100   4.080   0.446 -0.0453  0.2589  0.0583
 3335TIP3   OH210010   3.802   0.928   3.431 -0.2127 -0.1957  0.5638
 3335TIP3    H110011   3.875   0.986   3.410  2.3988 -3.1013  0.8958
 3335TIP3    H210012   3.761   0.969   3.508  2.7222  0.3228  2.0101
 3336TIP3   OH210013   1.368   1.503   0.556  0.6056  0.4073 -0.3156
 3336TIP3    H110014   1.360   1.460   0.471  2.1137 -1.1299  0.2637
 3336TIP3    H210015   1.277   1.522   0.582 -0.1072 -1.8225 -0.9368
 3337TIP3   OH210016   0.400   1.106   3.514  0.2162  0.6323  0.6956
 3337TIP3    H110017   0.456   1.157   3.573 -0.6237  0.2807  1.8213
 3337TIP3    H210018   0.337   1.064   3.571 -0.4509  0.0469 -0.4424
 3338TIP3   OH210019   2.376   1.695   5.188 -0.1259  0.2336  0.8570
 3338TIP3    H110020   2.316   1.688   5.113  3.5427  0.7404 -2.4546
 3338TIP3    H210021   2.378   1.788   5.209 -0.5763  0.1898  1.1203
 3339TIP3   OH210022   5.832   3.770   5.026  0.2729  0.0678 -0.1007
 3339TIP3    H110023   5.845   3.743   5.117 -0.4215 -1.6829 -0.4848
 3339TIP3    H210024   5.740   3.797   5.022  0.9502  2.7036  0.2781
 3340TIP3   OH210025   2.809   0.875   1.432  0.0379 -0.1792  0.1004
 3340TIP3    H110026   2.827   0.810   1.364  0.3102 -0.3426  0.3252
 3340TIP3    H210027   2.719   0.857   1.460 -0.0414 -0.1701 -0.1531
 3341TIP3   OH210028   5.678   1.692   1.469 -0.5131  0.0412 -0.0110
 3341TIP3    H110029   5.595   1.710   1.514 -0.5681 -0.4523  0.0880
 3341TIP3    H210030   5.691   1.598   1.480 -1.5358 -0.4955 -2.7759
 3342TIP3   OH210031   0.375   3.069   3.469 -0.5503 -0.1447  0.1251
 3342TIP3    H110032   0.414   3.107   3.390 -1.7084  1.0755  0.0935
 3342TIP3    H210033   0.322   2.996   3.436 -1.2755  0.5476 -0.3012
 3343TIP3   OH210034   4.457   4.950   3.942  0.2980  0.6698  0.4578
 3343TIP3    H110035   4.438   4.862   3.972  0.5404  0.5506  0.2717
 3343TIP3    H210036   4.398   4.964   3.868  0.1324  0.7333  0.6009
 3344TIP3   OH210037   2.452   1.276   4.124 -0.1185  0.1865 -0.3143
 3344TIP3    H110038   2.413   1.360   4.103 -1.3838  0.0629  1.3082
 3344TIP3    H210039   2.489   1.288   4.212  0.9952 -0.5368 -0.6593
 3345TIP3   OH210040   3.466   5.156   4.290  0.3879  0.3042  0.0535
 3345TIP3    H110041   3.525   5.083   4.307  1.8283  1.3692 -0.1834
 3345TIP3    H210042   3.519   5.220   4.243 -0.8988  1.4001  0.0150
 3346TIP3   OH210043   2.706   0.974   5.089 -1.0152 -0.4791  0.7601
 3346TIP3    H110044   2.727   1.030   5.164 -0.8469  0.1247  0.2691
 3346TIP3    H210045   2.678   1.035   5.021 -1.1919 -1.0270  0.3384
 3347TIP3   OH210046   3.481   3.983   3.119 -0.5061  0.2377  0.0947
 3347TIP3    H110047   3.440   3.903   3.153  1.0036  0.2716  2.1335
 3347TIP3    H210048   3.544   3.952   3.054  0.6783 -0.3627  1.4742
 3348TIP3   OH210049   5.433   5.392   0.573  0.0198  0.4736 -0.5129
 3348TIP3    H110050   5.427   5.298   0.591  0.3914  0.1644 -1.9006
 3348TIP3    H210051   5.351   5.414   0.529  0.4557  0.5163 -1.3239
 3349TIP3   OH210052   0.239   1.694   1.787  0.4322  0.5650  0.1855
 3349TIP3    H110053   0.168   1.732   1.736 -0.6609  0.1363  1.3398
 3349TIP3    H210054   0.197   1.629   1.844  1.6718  0.6264  1.2380
 3350TIP3   OH210055   0.093   0.078   0.597  0.3487  0.3517 -0.0230
 3350TIP3    H110056   0.114  -0.006   0.637 -1.4319  0.0063  0.2829
 3350TIP3    H210057  -0.002   0.077   0.588  0.1559  2.7012  0.8524
 3351TIP3   OH210058   5.006   3.129   1.287 -0.0344 -0.6207  0.7398
 3351TIP3    H110059   5.089   3.175   1.294  0.4065 -1.0398 -1.2324
 3351TIP3    H210060   4.941   3.199   1.280  0.6874 -0.1377 -2.8790
 3352TIP3   OH210061   4.375   1.241   2.815 -0.2067  0.1859  0.3940
 3352TIP3    H110062   4.318   1.317   2.809 -1.6280 -0.9231 -0.8844
 3352TIP3    H210063   4.340   1.179   2.751  3.3313 -0.0111 -1.6363
 3353TIP3   OH210064   5.548   4.321   2.673 -0.4259 -0.0589  0.3540
 3353TIP3    H110065   5.485   4.393   2.684 -1.2325 -0.9141  1.6836
 3353TIP3    H210066   5.504   4.259   2.615  0.9357  1.1863 -2.1827
 3354TIP3   OH210067   5.061   0.157   4.582  0.3608 -0.0675 -0.0786
 3354TIP3    H110068   5.063   0.151   4.678  4.2121  0.6384  0.0354
 3354TIP3    H210069   5.055   0.066   4.553  0.7303 -0.4109  0.8687
 3355TIP3   OH210070   3.827   1.553   0.092 -0.5980  0.2511  0.6576
 3355TIP3    H110071   3.795   1.469   0.124 -0.7892 -0.2294 -0.7204
 3355TIP3    H210072   3.886   1.584   0.161  1.7476 -2.3561  0.0534
 3356TIP3   OH210073   0.841   5.920   4.342 -0.1090 -0.1822 -0.0197
 3356TIP3    H110074   0.874   5.831   4.335 -0.9758 -0.4877 -0.2942
 3356TIP3    H210075   0.771   5.925   4.277  1.6633  1.5057 -1.9713
 3357TIP3   OH210076   4.426   0.416   3.681  0.7009 -0.1301 -0.4267
 3357TIP3    H110077   4.452   0.507   3.689 -1.7727  0.6306 -0.0942
 3357TIP3    H210078   4.345   0.418   3.629  0.7592 -2.1659 -0.7064
 3358TIP3   OH210079   3.186   1.237   4.292  0.2251  0.5307 -0.1491
 3358TIP3    H110080   3.166   1.155   4.335 -1.6394  2.0903  2.1898
 3358TIP3    H210081   3.147   1.229   4.205 -0.3504 -0.8766  0.2196
 3359TIP3   OH210082   2.522   4.457   0.786 -0.6077  0.3890  0.4621
 3359TIP3    H110083   2.565   4.477   0.869 -2.4077  0.5898  1.4016
 3359TIP3    H210084   2.450   4.520   0.780 -1.3481 -0.5069 -0.5587
 3360TIP3   OH210085   5.029   0.855   3.592  0.1523  0.3851 -0.1009
 3360TIP3    H110086   5.108   0.877   3.642 -0.3237  3.3867 -0.4512
 3360TIP3    H210087   5.037   0.906   3.511 -0.9085 -1.3628 -1.3795
 3361TIP3   OH210088   4.939   3.330   2.768  0.5355 -0.9409 -0.1321
 3361TIP3    H110089   5.015   3.300   2.818  1.0213 -1.3633 -1.1063
 3361TIP3    H210090   4.869   3.336   2.833  1.5492  0.1314  0.9183
 3362TIP3   OH210091   6.236   3.085   0.885 -0.2315  0.2003 -0.1128
 3362TIP3    H110092   6.209   3.005   0.931  0.8276  0.7357  1.5076
 3362TIP3    H210093   6.328   3.071   0.864  0.0591  1.1125  0.4901
 3363TIP3   OH210094   3.920   2.106   4.368 -0.0463 -0.0639  0.0761
 3363TIP3    H110095   3.874   2.178   4.412  1.1557  0.4301  0.5973
 3363TIP3    H210096   3.865   2.084   4.293  0.3745  2.5813 -1.1124
 3364TIP3   OH210097   5.806   4.415   3.258 -0.0466  0.6553  0.1375
 3364TIP3    H110098   5.725   4.456   3.227  0.0276  1.1107  0.5392
 3364TIP3    H210099   5.865   4.417   3.183 -0.8322 -0.8593 -0.5758
 3365TIP3   OH210100   6.000   1.823   4.484  0.2095  0.2398 -0.0433
 3365TIP3    H110101   6.043   1.749   4.528  1.4526  0.0316 -1.5203
 3365TIP3    H210102   5.924   1.842   4.539 -1.0982 -3.1533 -0.4471
 3366TIP3   OH210103   5.235   5.380   4.534 -0.4149 -0.3619 -0.1754
 3366TIP3    H110104   5.169   5.428   4.484  0.4667  1.2364  0.1593
 3366TIP3    H210105   5.301   5.356   4.470 -1.2104 -1.8499 -0.4856
 3367TIP3   OH210106   0.163   2.221   3.239 -0.4758 -0.1494  0.0398
 3367TIP3    H110107   0.201   2.285   3.300 -0.3845  0.3525 -0.5261
 3367TIP3    H210108   0.176   2.137   3.281  1.9191 -0.0768 -0.4299
 3368TIP3   OH210109   4.308   1.314   4.697 -0.3154  0.5907  0.3064
 3368TIP3    H110110   4.361   1.234   4.698  1.8984  1.9401 -1.1265
 3368TIP3    H210111   4.269   1.318   4.784  3.3853  0.3565  2.1756
 3369TIP3   OH210112   3.235   5.624   1.097 -0.2080 -0.1718 -0.4617
 3369TIP3    H110113   3.280   5.703   1.124 -1.7762  1.2946 -1.8987
 3369TIP3    H210114   3.280   5.595   1.018 -0.7598  0.3545 -0.9739
 3370TIP3   OH210115   5.454   4.100   4.701 -0.6595 -0.4151 -0.2624
 3370TIP3    H110116   5.409   4.143   4.775 -0.7949  0.5886 -0.9034
 3370TIP3    H210117   5.405   4.129   4.624  1.5724  1.4352 -1.0733
 3371TIP3   OH210118   3.043   5.113   1.534  0.1737  0.3702  0.4221
 3371TIP3    H110119   3.045   5.202   1.499 -2.1762  0.3807  0.1210
 3371TIP3    H210120   2.957   5.106   1.576  1.2701 -0.9739  2.6363
 3372TIP3   OH210121   6.016   2.187   0.717  0.5522  0.5588  0.0663
 3372TIP3    H110122   6.037   2.095   0.731  0.1427  0.5062  0.3453
 3372TIP3    H210123   5.959   2.210   0.790  0.6535  1.0335 -0.0035
 3373TIP3   OH210124   5.365   3.173   2.024  0.1711 -0.4109  0.1638
 3373TIP3    H110125   5.291   3.233   2.017  0.6562  0.0991 -0.7895
 3373TIP3    H210126   5.412   3.183   1.941  1.3091 -0.7290  0.7488
 3374TIP3   OH210127   4.281   2.154   4.206  0.0174  0.7597 -0.0176
 3374TIP3    H110128   4.253   2.140   4.297  1.4471 -1.1527  0.1729
 3374TIP3    H210129   4.363   2.202   4.213  0.3906  0.1634 -0.2732
 3375TIP3   OH210130   2.942   2.190   2.564  0.1501 -0.2720  0.0161
 3375TIP3    H110131   2.921   2.266   2.619 -0.9477 -2.0244  2.1795
 3375TIP3    H210132   2.928   2.221   2.475 -4.5388  0.9883  0.9240
 3376TIP3   OH210133   5.708   1.787   2.870  0.4669  0.1211 -0.8527
 3376TIP3    H110134   5.646   1.836   2.923 -0.3758  0.2051 -1.8722
 3376TIP3    H210135   5.666   1.703   2.853  0.9123 -0.0779 -1.0029
 3377TIP3   OH210136   1.843   5.272   0.585 -0.5219  0.6682 -0.0181
 3377TIP3    H110137   1.760   5.275   0.632 -0.6277 -3.4396  0.4610
 3377TIP3    H210138   1.819   5.251   0.495 -0.0670  1.4218 -0.3195
 3378TIP3   OH210139   1.143   1.865   1.151  0.2207  0.2154 -0.2423
 3378TIP3    H110140   1.198   1.794   1.119  0.0957  0.7369 -1.6963
 3378TIP3    H210141   1.204   1.924   1.196  1.0264  1.0556 -2.2815
 3379TIP3   OH210142   2.822   0.347   5.090  0.3123  0.3862 -0.2032
 3379TIP3    H110143   2.905   0.300   5.097 -0.1760 -0.5691 -0.5694
 3379TIP3    H210144   2.810   0.388   5.176 -0.1331 -1.7284  0.8122
 3380TIP3   OH210145   4.407   3.351   0.268  0.6854 -0.4238 -0.0886
 3380TIP3    H110146   4.456   3.340   0.349 -0.3930  2.3416  1.0652
 3380TIP3    H210147   4.317   3.367   0.296  0.0242 -0.7327 -1.9057
 3381TIP3   OH210148   3.719   5.383   3.116 -0.4473 -0.0499 -0.4851
 3381TIP3    H110149   3.676   5.322   3.056  0.5214  0.6752 -1.9754
 3381TIP3    H210150   3.795   5.335   3.148 -1.1794 -0.5797  0.5080
 3382TIP3   OH210151   5.529   5.394   1.530 -0.4997  0.2285  0.1273
 3382TIP3    H110152   5.535   5.299   1.544 -0.7870  0.4879  2.3650
 3382TIP3    H210153   5.602   5.430   1.579 -0.6797  1.2069 -0.3092
 3383TIP3   OH210154   3.550   3.399   3.716 -0.1467 -0.8777  0.1753
 3383TIP3    H110155   3.619   3.376   3.778  1.8104 -0.2916 -1.6262
 3383TIP3    H210156   3.476   3.424   3.770  1.8822  0.9439  2.3723
 3384TIP3   OH210157   3.975   1.481   1.508 -0.1281 -0.9346 -0.1653
 3384TIP3    H110158   4.051   1.427   1.487  1.1843  0.1846  1.4170
 3384TIP3    H210159   3.963   1.537   1.431  0.7535 -1.0111 -0.3711
 3385TIP3   OH210160   4.699   2.161   0.015 -0.0790 -0.4733  0.2543
 3385TIP3    H110161   4.739   2.195  -0.064  1.7192 -1.2096  0.7986
 3385TIP3    H210162   4.761   2.181   0.085 -0.2598 -2.3410  1.0225
 3386TIP3   OH210163   2.309   0.674   3.940 -0.0108 -0.2967  0.4757
 3386TIP3    H110164   2.324   0.763   3.908  1.5156 -0.2860  1.1557
 3386TIP3    H210165   2.395   0.644   3.969 -0.6284 -1.7597  0.8728
 3387TIP3   OH210166   2.377   4.482   0.453 -0.1144  0.1852 -0.3720
 3387TIP3    H110167   2.378   4.405   0.396 -0.5935 -0.7608  0.8452
 3387TIP3    H210168   2.470   4.499   0.470  0.0241  0.3350 -1.2210
 3388TIP3   OH210169   3.927   3.084   3.591 -0.3263  0.3634 -0.3388
 3388TIP3    H110170   3.942   3.102   3.498  1.3507  0.2805 -0.1160
 3388TIP3    H210171   3.967   3.158   3.637 -0.6087  0.1035  0.3367
 3389TIP3   OH210172   3.676   2.966   0.387 -0.1851  0.4847 -0.1339
 3389TIP3    H110173   3.706   2.962   0.296 -0.4922 -0.3789 -0.2076
 3389TIP3    H210174   3.605   3.031   0.386 -0.6515 -0.0178 -0.6551
 3390TIP3   OH210175   2.003   2.863   5.044  0.2280 -0.7013  0.4095
 3390TIP3    H110176   2.032   2.854   4.953  0.3137 -1.5565  0.5122
 3390TIP3    H210177   2.067   2.922   5.084  0.5157 -0.7722  0.0588
 3391TIP3   OH210178   5.755   3.158   3.346 -0.1983 -0.6883  0.1357
 3391TIP3    H110179   5.682   3.220   3.344  0.4357  0.0707 -2.5072
 3391TIP3    H210180   5.714   3.073   3.332 -0.7729 -0.5772  1.0005
 3392TIP3   OH210181   1.391   4.130   2.069 -0.7208  0.2007  0.1954
 3392TIP3    H110182   1.422   4.039   2.065 -2.7385 -0.5065 -0.7163
 3392TIP3    H210183   1.414   4.167   1.984  1.5826  1.1318  1.1454
 3393TIP3   OH210184   5.422   1.370   2.277  0.0918 -0.6387  0.4990
 3393TIP3    H110185   5.451   1.331   2.195 -0.4505 -0.0009 -0.0057
 3393TIP3    H210186   5.483   1.442   2.293 -0.9228  0.4592 -0.3640
 3394TIP3   OH210187   3.958   2.834   3.713  0.4244 -0.3240 -0.3140
 3394TIP3    H110188   3.979   2.834   3.807 -2.9655  2.0649  0.6239
 3394TIP3    H210189   3.976   2.923   3.685 -1.3470 -0.2016 -1.1679
 3395TIP3   OH210190   4.199   0.827   3.960 -0.0080 -0.6303  0.2727
 3395TIP3    H110191   4.106   0.822   3.980 -0.1869 -1.4926 -0.7024
 3395TIP3    H210192   4.226   0.914   3.990 -0.6614 -1.0982  2.3905
 3396TIP3   OH210193   4.368   2.569   4.915  0.2901  0.2205 -0.0144
 3396TIP3    H110194   4.339   2.478   4.902 -1.8729  0.6024  1.5976
 3396TIP3    H210195   4.306   2.621   4.863  0.0611  0.8907  0.9183
 3397TIP3   OH210196   5.045   1.133   2.054 -0.0843  0.5211 -0.1036
 3397TIP3    H110197   4.951   1.120   2.041  0.1294  0.1393 -1.3600
 3397TIP3    H210198   5.065   1.211   2.003  0.0686  1.3761  1.2082
 3398TIP3   OH210199   1.500   4.898   3.938 -0.6055  0.0958 -0.0251
 3398TIP3    H110200   1.487   4.867   4.027  0.6405  0.2344  0.2170
 3398TIP3    H210201   1.464   4.987   3.938  0.4176  0.5258  0.6616
 3399TIP3   OH210202   4.674   3.380   0.955 -0.4841 -0.1900 -0.0632
 3399TIP3    H110203   4.647   3.299   0.913  0.7505 -0.2079 -0.8615
 3399TIP3    H210204   4.616   3.388   1.031 -2.6743 -0.2235 -1.6446
 3400TIP3   OH210205   3.034   5.816   2.728  0.0234 -0.3833 -0.3597
 3400TIP3    H110206   2.978   5.830   2.804  0.1700 -1.8768  0.0571
 3400TIP3    H210207   3.019   5.892   2.672 -1.0042  0.1415  0.6008
 3401TIP3   OH210208   3.998   4.614   2.670 -0.0812  0.3888 -0.5376
 3401TIP3    H110209   4.084   4.590   2.636  1.0114  1.6044  1.1979
 3401TIP3    H210210   4.016   4.678   2.739 -2.4269  1.1786 -0.5588
 3402TIP3   OH210211   3.803   3.574   2.018 -0.0183  0.1545 -0.3776
 3402TIP3    H110212   3.886   3.546   2.056  0.3188  0.3826 -0.9391
 3402TIP3    H210213   3.777   3.503   1.960 -0.4693 -0.1347  0.1610
 3403TIP3   OH210214   3.222   4.661   1.367  0.4488  0.3521  0.0253
 3403TIP3    H110215   3.187   4.743   1.403 -1.7357 -0.7578  0.6222
 3403TIP3    H210216   3.194   4.661   1.276  0.7062  0.3838 -0.0560
 3404TIP3   OH210217   5.517   5.659   1.040  0.1597  0.7217 -0.1534
 3404TIP3    H110218   5.473   5.622   0.963 -0.7657  1.5414 -0.0424
 3404TIP3    H210219   5.485   5.750   1.044 -0.1403  0.5682  1.4323
 3405TIP3   OH210220   5.769   3.772   2.824  0.0453  0.4325 -0.4338
 3405TIP3    H110221   5.839   3.778   2.888 -0.2798 -1.8494  0.2313
 3405TIP3    H210222   5.721   3.855   2.833  0.0847  0.2571  2.2111
 3406TIP3   OH210223   2.648   4.231   3.329  0.3614 -0.6255  0.1921
 3406TIP3    H110224   2.709   4.278   3.272  0.3124  2.0484  2.1590
 3406TIP3    H210225   2.704   4.191   3.396  0.0953  1.7111  1.9171
 3407TIP3   OH210226   3.974   3.603   4.680  0.4827 -0.0062  0.3372
 3407TIP3    H110227   4.021   3.672   4.727  2.2524 -1.3018  0.5927
 3407TIP3    H210228   3.959   3.639   4.593 -0.9142  1.6247  1.2021
 3408TIP3   OH210229   2.672   3.233   1.030  0.8344  0.1151  0.2734
 3408TIP3    H110230   2.754   3.239   1.080  1.3674  0.4673 -0.6073
 3408TIP3    H210231   2.612   3.294   1.073  1.4859  0.8789  0.1258
 3409TIP3   OH210232  -0.030   5.773   3.354 -0.2060  0.4904 -0.2290
 3409TIP3    H110233   0.007   5.837   3.293  0.4478 -1.1721 -1.6627
 3409TIP3    H210234   0.034   5.769   3.426  1.7995 -1.2341 -1.9457
 3410TIP3   OH210235   3.244   0.758   1.046 -0.1927 -0.4549 -0.1008
 3410TIP3    H110236   3.258   0.849   1.022  0.0702  0.0351  1.7339
 3410TIP3    H210237   3.269   0.708   0.968 -1.2724  1.0543 -1.4685
 3411TIP3   OH210238   0.175   3.586   1.374 -0.2317 -0.0295 -0.5963
 3411TIP3    H110239   0.152   3.678   1.374 -1.9093 -0.4196  0.1841
 3411TIP3    H210240   0.233   3.576   1.298  0.7093  1.8045 -0.1807
 3412TIP3   OH210241   5.219   3.576   4.143 -0.0590  0.6652  0.0564
 3412TIP3    H110242   5.168   3.496   4.152  1.2210 -0.1359  0.5003
 3412TIP3    H210243   5.258   3.589   4.230  1.8995  0.2318 -0.6939
 3413TIP3   OH210244   2.614   4.740   2.576  0.0607  0.4190 -1.0139
 3413TIP3    H110245   2.637   4.647   2.572  1.2432  0.7349 -2.9214
 3413TIP3    H210246   2.552   4.752   2.504 -0.0334  1.1157 -0.8204
 3414TIP3   OH210247   2.535   1.297   0.476  0.6227 -0.4102  0.0100
 3414TIP3    H110248   2.470   1.352   0.520  1.4191  0.6760 -0.1193
 3414TIP3    H210249   2.538   1.217   0.528  2.4630  1.3022  2.7949
 3415TIP3   OH210250   3.983   0.513   0.236 -0.1696 -0.1580 -0.0114
 3415TIP3    H110251   3.925   0.565   0.180  1.3516 -0.8237 -2.3142
 3415TIP3    H210252   3.990   0.428   0.193  0.3316 -1.0464  1.7181
 3416TIP3   OH210253   2.162   2.723   4.457 -0.3017 -0.7131 -0.4288
 3416TIP3    H110254   2.163   2.814   4.484 -1.3912 -1.1758  1.3812
 3416TIP3    H210255   2.217   2.720   4.379  0.0319  1.4076 -0.3308
 3417TIP3   OH210256   2.632   1.047   4.148  0.2211 -0.1663 -0.3780
 3417TIP3    H110257   2.574   1.123   4.140  0.3502 -0.1323 -1.1046
 3417TIP3    H210258   2.713   1.075   4.105  1.4935  0.4663  2.1976
 3418TIP3   OH210259   1.305   1.665   0.970  0.8816  0.1063 -0.4548
 3418TIP3    H110260   1.301   1.592   1.032  0.5326 -0.0747 -0.6808
 3418TIP3    H210261   1.357   1.632   0.896 -2.3462 -1.3345 -2.3141
 3419TIP3   OH210262   0.739   3.825   4.940  0.6282  0.6381 -0.7980
 3419TIP3    H110263   0.665   3.885   4.927 -0.2617 -0.1499  0.3306
 3419TIP3    H210264   0.795   3.870   5.003  0.2060  0.5059 -0.3191
 3420TIP3   OH210265   1.035   4.721   4.001 -0.0903  0.1701 -0.0214
 3420TIP3    H110266   1.047   4.717   4.096  1.4494  0.4111 -0.1746
 3420TIP3    H210267   1.024   4.630   3.974  0.4748  0.0059  0.2871
 3421TIP3   OH210268   5.721   5.804   0.502 -0.0119 -0.1059  0.3506
 3421TIP3    H110269   5.632   5.798   0.537 -0.4822 -0.7839 -0.9239
 3421TIP3    H210270   5.711   5.843   0.416  0.7212 -1.7178 -0.5188
 3422TIP3   OH210271   5.770   4.304   2.491 -0.4464  0.1371 -0.5356
 3422TIP3    H110272   5.675   4.293   2.490 -0.4308 -0.3836  0.9071
 3422TIP3    H210273   5.785   4.378   2.550  0.0462  0.1392 -0.6600
 3423TIP3   OH210274   2.467   4.718   4.818  0.0338  0.1997  0.1598
 3423TIP3    H110275   2.557   4.707   4.848 -0.1704 -0.0150  0.7065
 3423TIP3    H210276   2.465   4.806   4.779  0.7426 -0.2107 -0.8466
 3424TIP3   OH210277   1.071   3.434   1.514 -0.5626  0.0024 -0.0183
 3424TIP3    H110278   1.038   3.392   1.435 -0.2247  0.7664 -0.5741
 3424TIP3    H210279   1.142   3.377   1.544 -0.7087 -0.3012 -0.2519
 3425TIP3   OH210280   1.372   0.534   4.930  0.0105  0.2651 -0.1653
 3425TIP3    H110281   1.373   0.440   4.909  1.3916 -0.0264  1.0132
 3425TIP3    H210282   1.430   0.573   4.865  1.0863 -0.0343  0.5841
 3426TIP3   OH210283   3.076   3.243   0.953 -0.0005 -0.0929  0.1929
 3426TIP3    H110284   3.047   3.334   0.952 -0.4519 -0.2359 -0.8933
 3426TIP3    H210285   3.141   3.237   0.883 -2.0715 -1.2415 -1.7230
 3427TIP3   OH210286   1.401   2.959   4.595  0.2116 -0.0828  0.0096
 3427TIP3    H110287   1.402   2.936   4.688 -0.1513  1.2580  0.3661
 3427TIP3    H210288   1.344   2.893   4.555  0.6611 -0.8889  0.6667
 3428TIP3   OH210289   1.271   1.297   3.445 -0.3032  0.1934 -0.3814
 3428TIP3    H110290   1.205   1.236   3.410 -0.4932  0.3883 -0.3668
 3428TIP3    H210291   1.336   1.305   3.376 -1.0157  1.0954 -0.9687
 3429TIP3   OH210292   3.337   4.074   2.795  0.0704 -0.4096 -0.3818
 3429TIP3    H110293   3.400   4.087   2.866 -1.6388 -0.7922  1.2860
 3429TIP3    H210294   3.391   4.066   2.716  2.1477 -1.4818  1.0507
 3430TIP3   OH210295   1.373   0.833   2.923 -0.7252 -0.7012 -0.0182
 3430TIP3    H110296   1.288   0.846   2.965 -0.6909  0.1997 -0.2134
 3430TIP3    H210297   1.360   0.860   2.832 -0.4005 -1.1925 -0.2160
 3431TIP3   OH210298   3.770   5.293   0.810  0.0692  0.0687 -0.6423
 3431TIP3    H110299   3.715   5.237   0.864 -0.2994  1.0062 -0.0135
 3431TIP3    H210300   3.778   5.374   0.860  0.4707  0.6341 -1.5883
 3432TIP3   OH210301   0.713   4.075   2.594 -0.5189 -0.7314 -0.0037
 3432TIP3    H110302   0.761   4.058   2.513 -1.2550 -0.3150 -0.5370
 3432TIP3    H210303   0.649   4.004   2.599 -1.5233  0.1203 -0.6146
 3433TIP3   OH210304   3.612   2.867   4.962 -0.6503  0.6945 -0.2498
 3433TIP3    H110305   3.520   2.842   4.960 -0.5861  0.3087  0.9010
 3433TIP3    H210306   3.615   2.948   5.012 -0.3161  0.4336  0.1640
 3434TIP3   OH210307   2.620   4.469   2.813  0.6397 -0.1001 -0.1420
 3434TIP3    H110308   2.710   4.438   2.824  0.8906  0.9290  0.8691
 3434TIP3    H210309   2.604   4.524   2.889 -1.3661 -1.4389  0.4822
 3435TIP3   OH210310   6.243   0.924   4.064  0.5100 -1.1560 -0.4500
 3435TIP3    H110311   6.247   0.946   3.971 -0.2558 -0.6116 -0.3562
 3435TIP3    H210312   6.293   0.993   4.108  2.0641 -2.1609 -0.5615
 3436TIP3   OH210313   2.899   2.419   2.720 -0.1710  0.3081 -0.0813
 3436TIP3    H110314   2.966   2.460   2.774  0.0358 -2.0336  1.6081
 3436TIP3    H210315   2.849   2.365   2.782  0.0224 -2.4605 -2.1507
 3437TIP3   OH210316   1.666   2.615   0.742  0.1211 -0.5829  0.0959
 3437TIP3    H110317   1.705   2.597   0.656 -0.8435 -0.3871 -0.3959
 3437TIP3    H210318   1.694   2.541   0.796  0.2873 -1.0020 -0.5438
 3438TIP3   OH210319   4.865   5.867   4.467 -0.7147 -0.2807  0.6837
 3438TIP3    H110320   4.941   5.895   4.416 -0.4845 -0.4983  0.9039
 3438TIP3    H210321   4.798   5.848   4.402  0.3430 -2.9435  0.2807
 3439TIP3   OH210322   5.247   2.563   2.282  0.1566  0.2856 -0.8862
 3439TIP3    H110323   5.303   2.486   2.271 -1.3703 -0.8436 -1.2735
 3439TIP3    H210324   5.300   2.626   2.329  2.0412 -0.3677 -2.0308
 3440TIP3   OH210325   5.702   0.921   0.374  0.2678 -0.8594  0.4513
 3440TIP3    H110326   5.773   0.862   0.348  1.3416  0.5915 -0.0551
 3440TIP3    H210327   5.733   1.007   0.347 -2.2634 -0.3216 -1.0006
 3441TIP3   OH210328   6.205   4.352   2.982 -0.0656  0.5446 -0.9512
 3441TIP3    H110329   6.207   4.268   3.028  0.4331  1.2320  0.3515
 3441TIP3    H210330   6.189   4.416   3.051 -0.1366  1.5461 -1.8787
 3442TIP3   OH210331   6.131   0.353   5.093  0.2264 -0.4319  0.6096
 3442TIP3    H110332   6.168   0.378   5.008 -2.1732  2.9707  0.3821
 3442TIP3    H210333   6.156   0.424   5.152 -0.7977 -1.1594  1.9648
 3443TIP3   OH210334   2.645   5.470   2.636  0.2156 -0.2065  0.7330
 3443TIP3    H110335   2.605   5.459   2.550  2.2088  0.1727 -0.3245
 3443TIP3    H210336   2.694   5.552   2.629 -1.7605  1.3313  3.1849
 3444TIP3   OH210337   4.789   0.856   1.803  0.5416  0.0397 -0.4653
 3444TIP3    H110338   4.817   0.928   1.746  0.5609  0.2073 -0.2494
 3444TIP3    H210339   4.791   0.894   1.891  1.6694 -0.5546 -0.2169
 3445TIP3   OH210340   2.518   2.693   3.358 -0.4733  0.9457  0.3015
 3445TIP3    H110341   2.535   2.752   3.285 -1.4288 -0.0847 -0.8060
 3445TIP3    H210342   2.605   2.666   3.389 -0.0086  3.0823  1.0228
 3446TIP3   OH210343   5.350   3.057   2.622 -0.2063  0.0299  0.1317
 3446TIP3    H110344   5.343   3.138   2.674 -0.1352 -1.0814  1.9649
 3446TIP3    H210345   5.319   3.082   2.535 -0.1842  2.0308  0.6442
 3447TIP3   OH210346   3.225   3.918   5.069 -0.3202 -0.3285  0.0338
 3447TIP3    H110347   3.236   3.845   5.130  2.6283  0.1355  0.1645
 3447TIP3    H210348   3.220   3.877   4.983  0.7254 -0.7392  0.1584
 3448TIP3   OH210349   5.527   1.669   1.902  0.2941 -0.3988 -0.2617
 3448TIP3    H110350   5.499   1.749   1.858  0.8606  1.3762  2.3365
 3448TIP3    H210351   5.621   1.664   1.885  0.2564 -0.5116 -0.4350
 3449TIP3   OH210352   4.680   5.126   4.337  0.2193 -0.1106  0.1515
 3449TIP3    H110353   4.746   5.071   4.295  0.8941  0.8816 -0.1528
 3449TIP3    H210354   4.620   5.150   4.266  3.5182  4.8259 -1.5261
 3450TIP3   OH210355   6.341   5.789   3.731 -0.1367 -0.4008  0.1249
 3450TIP3    H110356   6.347   5.705   3.775 -1.7148 -0.8765 -0.4971
 3450TIP3    H210357   6.263   5.830   3.768 -0.0668  0.2633 -0.4462
 3451TIP3   OH210358   4.867   1.000   2.337 -0.4333 -0.8588 -0.1903
 3451TIP3    H110359   4.916   1.010   2.420  0.1753 -0.7072 -0.5592
 3451TIP3    H210360   4.849   1.090   2.310  0.6844 -0.8424 -0.9748
 3452TIP3   OH210361   5.990   2.337   3.604  0.2883  0.5210 -0.5827
 3452TIP3    H110362   6.061   2.400   3.590  0.4415  0.4201 -0.2818
 3452TIP3    H210363   5.910   2.389   3.597  0.4268  0.8289  0.0503
 3453TIP3   OH210364   4.896   5.392   3.907  0.5644 -0.2544 -0.0892
 3453TIP3    H110365   4.828   5.372   3.843 -0.4226  1.9169  0.1953
 3453TIP3    H210366   4.970   5.424   3.855 -0.5957  2.4937 -0.2117
 3454TIP3   OH210367   2.151   4.854   0.548  0.5306  0.6512 -0.4260
 3454TIP3    H110368   2.091   4.925   0.574 -1.6220 -0.7146 -1.3966
 3454TIP3    H210369   2.188   4.884   0.465 -0.0676  0.8042 -0.6416
 3455TIP3   OH210370   2.303   2.113   2.283  0.3784  0.3014 -0.3475
 3455TIP3    H110371   2.272   2.067   2.361  1.4151  1.4773  0.7839
 3455TIP3    H210372   2.232   2.101   2.219  0.6560 -3.0496 -0.2359
 3456TIP3   OH210373   1.771   1.344   3.229  0.4713  0.1318 -0.2539
 3456TIP3    H110374   1.695   1.307   3.184  0.0222  0.2824  0.3769
 3456TIP3    H210375   1.735   1.410   3.288  1.2709  1.7431 -1.4841
 3457TIP3   OH210376   1.448   3.650   1.843 -0.3046  0.6272 -0.3833
 3457TIP3    H110377   1.479   3.637   1.933 -0.1870  0.7542 -0.4039
 3457TIP3    H210378   1.395   3.573   1.824  3.7982 -2.1425 -1.9976
 3458TIP3   OH210379   2.183   4.149   2.382 -0.2744  0.0522  0.0752
 3458TIP3    H110380   2.273   4.164   2.355 -0.4148  0.7498 -0.0248
 3458TIP3    H210381   2.190   4.103   2.466  0.1689 -0.1115 -0.0529
 3459TIP3   OH210382   1.395   4.665   4.136 -0.0700  0.2259  0.4666
 3459TIP3    H110383   1.428   4.722   4.206  1.2116 -0.6013  0.5579
 3459TIP3    H210384   1.336   4.604   4.181 -0.9839  1.0676  0.4576
 3460TIP3   OH210385   0.664   3.198   2.826  0.0433  0.6893 -0.5598
 3460TIP3    H110386   0.630   3.268   2.881 -1.5059  0.1640 -0.7766
 3460TIP3    H210387   0.745   3.171   2.868 -1.2316  0.0774  1.7137
 3461TIP3   OH210388   4.783   5.091   3.118  0.0995  0.3480 -0.0169
 3461TIP3    H110389   4.835   5.129   3.048  0.8693 -1.5339 -0.5334
 3461TIP3    H210390   4.843   5.031   3.162 -1.3110 -1.0569  0.0713
 3462TIP3   OH210391   4.016   5.595   2.101 -0.5507 -0.1317 -0.9512
 3462TIP3    H110392   3.967   5.521   2.137  0.0574  0.3862  1.0077
 3462TIP3    H210393   4.060   5.634   2.176  0.7791  1.0041 -2.2702
 3463TIP3   OH210394   4.250   4.583   2.583 -0.2282  0.0621 -0.1587
 3463TIP3    H110395   4.283   4.552   2.498 -0.3043  1.1104 -0.5923
 3463TIP3    H210396   4.329   4.608   2.631 -0.2692  2.2429 -1.0666
 3464TIP3   OH210397   4.613   1.810   1.404  0.2532  0.7234  0.0679
 3464TIP3    H110398   4.628   1.824   1.498 -1.8462 -1.6908  0.8940
 3464TIP3    H210399   4.553   1.880   1.378  2.2886  2.5168 -0.0066
 3465TIP3   OH210400   1.612   0.449   2.438  0.7412  1.1988  0.2047
 3465TIP3    H110401   1.573   0.437   2.351  2.9655 -0.3009 -0.7041
 3465TIP3    H210402   1.684   0.511   2.423  1.5854  0.3856  0.7988
 3466TIP3   OH210403   3.037   4.013   4.213  0.3548 -0.6053  0.3585
 3466TIP3    H110404   3.128   4.016   4.244  0.8151 -0.8577 -0.9006
 3466TIP3    H210405   3.041   3.960   4.134 -0.8783 -0.4792  0.1984
 3467TIP3   OH210406   4.100   1.465   3.568  0.0699  0.3697  0.1745
 3467TIP3    H110407   4.138   1.471   3.481  0.8948 -1.8832  0.3130
 3467TIP3    H210408   4.027   1.404   3.558 -0.3540  0.7532  0.8934
 3468TIP3   OH210409   4.481   4.530   4.257  0.1009 -0.3087 -0.2098
 3468TIP3    H110410   4.454   4.447   4.218  0.7794 -0.1855 -0.9626
 3468TIP3    H210411   4.447   4.526   4.346 -2.4651 -0.1200 -1.1078
 3469TIP3   OH210412   0.840   1.109   0.290 -0.0590  0.3542  0.0365
 3469TIP3    H110413   0.877   1.195   0.310  0.9558 -0.2877  1.1034
 3469TIP3    H210414   0.917   1.051   0.288 -0.7951 -0.6356 -0.0257
 3470TIP3   OH210415   0.946   4.604   0.032  0.4379 -0.3411  0.1674
 3470TIP3    H110416   0.967   4.600  -0.062 -2.1023 -1.1745 -0.4433
 3470TIP3    H210417   0.899   4.523   0.049 -0.5052  0.5101  1.8055
 3471TIP3   OH210418   1.370   0.908   1.338 -0.4775 -0.4212 -0.2870
 3471TIP3    H110419   1.403   0.848   1.272 -0.6525 -0.6831 -0.1358
 3471TIP3    H210420   1.285   0.872   1.365 -1.1782  0.5599 -1.0951
 3472TIP3   OH210421   0.546   5.355   0.654  0.5587 -0.6105 -0.0088
 3472TIP3    H110422   0.616   5.414   0.679 -1.1697  0.4504  2.7495
 3472TIP3    H210423   0.506   5.328   0.737 -1.0132 -2.7911 -1.3591
 3473TIP3   OH210424   2.772   0.219   2.768  0.0376  0.2501 -0.0791
 3473TIP3    H110425   2.814   0.213   2.682  0.0794 -3.1895  0.0126
 3473TIP3    H210426   2.826   0.282   2.816  0.0207  2.2620 -2.4911
 3474TIP3   OH210427   3.838   3.656   0.214 -0.4743  0.2200 -0.1738
 3474TIP3    H110428   3.785   3.735   0.226 -0.2962  0.5851 -1.5491
 3474TIP3    H210429   3.909   3.685   0.156  0.3925 -0.6139  0.4540
 3475TIP3   OH210430   0.423   1.136   1.215  0.2817  0.3408 -0.0888
 3475TIP3    H110431   0.353   1.188   1.177  0.7315  0.6397 -0.5150
 3475TIP3    H210432   0.445   1.071   1.148  1.6006  1.3519 -0.6902
 3476TIP3   OH210433   2.798   1.542   4.831 -0.0286 -0.2655 -0.1649
 3476TIP3    H110434   2.730   1.530   4.898  0.0192  1.1880  0.1740
 3476TIP3    H210435   2.843   1.458   4.827 -1.4277 -1.0644  0.0610
 3477TIP3   OH210436   1.338   2.327   3.064 -0.3028 -0.1429  0.0547
 3477TIP3    H110437   1.411   2.292   3.013  1.5196 -1.3878  3.2621
 3477TIP3    H210438   1.268   2.262   3.052  0.1966 -0.5826 -0.5615
 3478TIP3   OH210439   5.696   3.975   0.521  0.3042  0.3923  0.3144
 3478TIP3    H110440   5.698   3.960   0.426  0.2742  0.2114  0.3427
 3478TIP3    H210441   5.603   3.971   0.544  0.1795  1.7519  0.1405
 3479TIP3   OH210442   0.548   4.634   2.203  0.1543  0.0600  0.0157
 3479TIP3    H110443   0.505   4.550   2.185  0.5854 -0.4145  1.0974
 3479TIP3    H210444   0.565   4.672   2.117 -2.3072  0.2181 -0.4732
 3480TIP3   OH210445   3.248   0.213   3.364 -0.0137  0.0335 -0.5547
 3480TIP3    H110446   3.179   0.266   3.325 -0.0074  0.1908 -0.3530
 3480TIP3    H210447   3.202   0.139   3.404 -0.4543  1.7874  2.4744
 3481TIP3   OH210448   1.641   1.004   1.891  0.2218  0.3824  0.1923
 3481TIP3    H110449   1.577   1.069   1.920  1.1607  2.1618 -1.5434
 3481TIP3    H210450   1.703   0.997   1.964  0.8286  2.4525 -0.0701
 3482TIP3   OH210451   3.466   4.582   2.438  0.5886  0.3419 -0.3742
 3482TIP3    H110452   3.451   4.492   2.409 -1.2169  1.3668 -3.0820
 3482TIP3    H210453   3.556   4.583   2.470  1.1976 -2.0822 -1.7772
 3483TIP3   OH210454   0.316   1.860   0.947 -0.2746  0.4114 -0.1483
 3483TIP3    H110455   0.397   1.813   0.968  1.2485  2.8309 -0.2532
 3483TIP3    H210456   0.275   1.876   1.033  0.1251  0.4628  0.0342
 3484TIP3   OH210457   1.451   4.803   1.317 -0.3354  0.2001 -0.1064
 3484TIP3    H110458   1.479   4.722   1.274  0.6159  1.5420 -2.1809
 3484TIP3    H210459   1.508   4.811   1.393  0.3011 -0.5351 -0.4899
 3485TIP3   OH210460   6.329   5.358   1.888 -0.5203  0.5467  0.6942
 3485TIP3    H110461   6.386   5.378   1.963 -0.4032  3.7121 -0.0750
 3485TIP3    H210462   6.251   5.412   1.903 -2.6169 -2.3296  0.8010
 3486TIP3   OH210463   5.057   4.849   3.785  0.7863 -0.6063 -0.0086
 3486TIP3    H110464   4.982   4.831   3.728  1.2594 -1.0712 -0.4919
 3486TIP3    H210465   5.042   4.938   3.816  1.4820  0.4367 -2.4093
 3487TIP3   OH210466   5.923   1.362   2.046  0.2090 -0.4260  0.2456
 3487TIP3    H110467   5.925   1.322   2.133  0.0840  0.4519  0.6699
 3487TIP3    H210468   5.876   1.445   2.060 -2.4173 -1.5389 -1.1892
 3488TIP3   OH210469   1.663   4.377   5.220 -0.3016  0.3983 -0.0744
 3488TIP3    H110470   1.709   4.390   5.137 -0.6824 -0.5339 -0.4336
 3488TIP3    H210471   1.583   4.330   5.197 -0.2310 -0.2042  0.8599
 3489TIP3   OH210472   4.763   3.796   4.125 -0.0746 -0.3801 -0.3255
 3489TIP3    H110473   4.852   3.826   4.144 -0.4247  1.9653 -1.9612
 3489TIP3    H210474   4.714   3.813   4.206  0.4751  0.5283 -0.1631
 3490TIP3   OH210475   2.662   0.572   4.993  0.3464  0.1264  0.0274
 3490TIP3    H110476   2.684   0.637   5.059  1.0767  0.0077 -0.0857
 3490TIP3    H210477   2.651   0.490   5.042  0.1558  0.1888  0.0869
 3491TIP3   OH210478   6.110   0.745   4.518  0.0392 -0.5683 -0.2297
 3491TIP3    H110479   6.132   0.698   4.598  0.3642 -2.1640 -1.2027
 3491TIP3    H210480   6.094   0.676   4.454 -2.6923  0.5793 -0.9325
 3492TIP3   OH210481   0.420   5.132   1.475  0.1109 -0.2053  0.1307
 3492TIP3    H110482   0.398   5.087   1.557  1.4771 -0.5822  0.3184
 3492TIP3    H210483   0.351   5.106   1.414 -0.4483 -0.6128  0.9093
 3493TIP3   OH210484   5.709   2.365   4.521 -0.7984 -0.0081  0.9889
 3493TIP3    H110485   5.766   2.289   4.531 -0.2306  0.3793  0.7235
 3493TIP3    H210486   5.672   2.356   4.433 -1.1012 -0.2255  1.1370
 3494TIP3   OH210487   1.727   2.113   4.436 -0.0625  0.1897  0.2770
 3494TIP3    H110488   1.772   2.178   4.381  0.6177 -1.1955 -0.8615
 3494TIP3    H210489   1.798   2.062   4.474 -0.6141 -0.6483  0.1961
 3495TIP3   OH210490   2.990   4.019   0.757 -0.4952 -0.1784 -0.3436
 3495TIP3    H110491   3.005   3.977   0.672  0.0122  1.4949 -1.1081
 3495TIP3    H210492   2.896   4.007   0.773 -0.3809 -1.5013 -0.5740
 3496TIP3   OH210493   3.364   5.530   2.359  0.6432 -0.4598 -0.0990
 3496TIP3    H110494   3.341   5.498   2.446  0.2337 -0.4298 -0.1956
 3496TIP3    H210495   3.441   5.585   2.373  1.7070 -1.9033  0.0112
 3497TIP3   OH210496   5.287   1.598   1.099  0.1835 -0.0031 -0.2494
 3497TIP3    H110497   5.373   1.577   1.062  0.0211 -0.3776 -0.4174
 3497TIP3    H210498   5.224   1.571   1.032 -0.1139 -0.7596  0.3191
 3498TIP3   OH210499   0.052   5.770   0.188 -0.8583  0.0418  0.2417
 3498TIP3    H110500  -0.040   5.795   0.177 -2.0712 -3.8984 -0.1927
 3498TIP3    H210501   0.055   5.733   0.277  0.2594 -0.0858  0.1584
 3499TIP3   OH210502   3.860   3.334   0.575 -0.1606  0.1546 -0.0243
 3499TIP3    H110503   3.773   3.311   0.545  0.1376  0.4424 -1.1554
 3499TIP3    H210504   3.891   3.400   0.513  1.1406 -0.4777 -0.0993
 3500TIP3   OH210505   2.618   2.921   4.303  0.0208  0.3738  0.2326
 3500TIP3    H110506   2.668   2.843   4.327 -1.9372 -1.4291 -1.1866
 3500TIP3    H210507   2.656   2.950   4.221  0.2541  0.4399  0.3644
 3501TIP3   OH210508   4.298   0.813   2.805 -0.2252 -0.3324  0.2430
 3501TIP3    H110509   4.265   0.779   2.888  2.5710 -1.8500  0.8548
 3501TIP3    H210510   4.366   0.876   2.830 -1.0333  1.0895 -0.9454
 3502TIP3   OH210511   5.067   4.579   3.593  0.1805  0.7247  0.4713
 3502TIP3    H110512   5.141   4.519   3.591  1.4410  2.0603  2.8816
 3502TIP3    H210513   5.039   4.580   3.685 -4.0848 -1.0902 -0.5923
 3503TIP3   OH210514   2.952   2.274   2.313  0.2712  0.4531  0.3340
 3503TIP3    H110515   2.945   2.320   2.230  1.1971 -1.6445 -0.9956
 3503TIP3    H210516   3.043   2.285   2.340 -0.2462  1.9403  1.6417
 3504TIP3   OH210517   5.561   1.064   4.218 -0.0162  0.2177  0.1791
 3504TIP3    H110518   5.565   1.106   4.304 -1.3632 -0.8261  0.7977
 3504TIP3    H210519   5.547   0.971   4.238  3.1786 -0.6759 -1.1306
 3505TIP3   OH210520   0.485   2.277   0.142  0.1047 -0.3534 -0.0927
 3505TIP3    H110521   0.395   2.266   0.171  0.0329 -1.2343 -0.6415
 3505TIP3    H210522   0.486   2.364   0.100 -0.2963 -0.0138  0.5808
 3506TIP3   OH210523   4.283   4.504   5.029 -0.7469 -0.2160  0.2187
 3506TIP3    H110524   4.189   4.509   5.008 -0.5945 -1.7239 -0.9848
 3506TIP3    H210525   4.314   4.594   5.020 -1.8288  0.0878 -0.7324
 3507TIP3   OH210526   1.740   1.700   5.195 -0.2157  0.1967 -0.5692
 3507TIP3    H110527   1.773   1.612   5.213 -0.3279  0.2037 -0.3256
 3507TIP3    H210528   1.762   1.715   5.103 -1.6645 -0.7305 -1.1089
 3508TIP3   OH210529   5.385   0.216   1.522 -0.0240  0.1574  0.2577
 3508TIP3    H110530   5.439   0.287   1.488  0.5103 -1.2710 -2.1494
 3508TIP3    H210531   5.424   0.194   1.607 -0.5942  3.0649  1.3624
 3509TIP3   OH210532   5.320   0.638   3.877 -0.0026 -0.4220  0.4971
 3509TIP3    H110533   5.232   0.601   3.870  0.2130 -0.7561 -0.6683
 3509TIP3    H210534   5.358   0.597   3.954 -1.2747  0.6203  1.7321
 3510TIP3   OH210535   2.170   0.783   3.540 -0.0819  0.9747  0.4777
 3510TIP3    H110536   2.174   0.768   3.445  2.2562  2.2482  0.2776
 3510TIP3    H210537   2.218   0.710   3.578 -0.4045  0.8406  0.6293
 3511TIP3   OH210538   0.771   5.757   2.978  0.5642 -0.3984  0.0221
 3511TIP3    H110539   0.696   5.697   2.968  0.3543 -0.5163  1.8530
 3511TIP3    H210540   0.743   5.818   3.046  1.9501 -0.1217  0.3630
 3512TIP3   OH210541   0.481   0.634   0.418 -0.2184  0.1642 -0.4228
 3512TIP3    H110542   0.524   0.688   0.353 -1.5268  2.0761  0.2234
 3512TIP3    H210543   0.517   0.664   0.502 -0.9120 -0.0037 -0.0593
 3513TIP3   OH210544   0.895   4.997   4.558 -0.0743 -0.3878 -0.0772
 3513TIP3    H110545   0.829   4.935   4.588 -0.5060  0.6477  1.1827
 3513TIP3    H210546   0.882   5.002   4.463 -0.6400 -1.4940 -0.0734
 3514TIP3   OH210547   0.480   4.279   4.102  0.0190 -0.0598  0.5222
 3514TIP3    H110548   0.451   4.359   4.060 -0.1160 -0.4631 -0.1806
 3514TIP3    H210549   0.574   4.275   4.084 -0.3831 -1.3057 -1.6732
 3515TIP3   OH210550   1.679   5.560   4.110 -0.2009  0.5646  0.5739
 3515TIP3    H110551   1.584   5.570   4.117 -0.3583  0.2750 -0.8280
 3515TIP3    H210552   1.710   5.644   4.076  0.2253  1.1193  2.2602
 3516TIP3   OH210553   2.431   4.081   3.261  0.2227  0.1178 -0.4026
 3516TIP3    H110554   2.499   4.145   3.283 -0.3098  0.9084 -1.0141
 3516TIP3    H210555   2.454   4.004   3.313  0.6719  0.9173  0.6348
 3517TIP3   OH210556   4.926   1.337   0.697  0.3633 -0.4736  0.3347
 3517TIP3    H110557   4.909   1.367   0.608 -1.6309  0.4201  0.9704
 3517TIP3    H210558   4.861   1.382   0.751 -0.0468 -2.7895  1.9377
 3518TIP3   OH210559   0.742   4.836   2.657  0.0843  0.0054  0.0226
 3518TIP3    H110560   0.691   4.821   2.578  0.1332 -1.6872  0.2731
 3518TIP3    H210561   0.686   4.803   2.728  0.8555 -0.3501  0.4763
 3519TIP3   OH210562   6.200   1.847   2.734 -0.2553  0.3798 -0.1441
 3519TIP3    H110563   6.268   1.832   2.800 -1.0255 -0.6005  0.4487
 3519TIP3    H210564   6.130   1.786   2.757 -0.5725  0.0417 -1.8257
 3520TIP3   OH210565   4.740   0.075   1.309  0.0467  0.0834 -0.3759
 3520TIP3    H110566   4.677   0.024   1.258 -0.3237  0.0687  0.0965
 3520TIP3    H210567   4.826   0.050   1.273  0.0115 -2.1769  0.9845
 3521TIP3   OH210568   3.183   5.377   1.223  0.3224 -0.0888  0.1872
 3521TIP3    H110569   3.194   5.466   1.188 -0.1539 -0.0438  0.1455
 3521TIP3    H210570   3.140   5.329   1.153  2.4921 -0.9557 -0.6425
 3522TIP3   OH210571   3.913   1.506   4.121  0.0130 -0.0825  0.6768
 3522TIP3    H110572   3.864   1.464   4.192  1.0837  1.2507  2.2894
 3522TIP3    H210573   3.850   1.514   4.050 -0.8614 -2.2689  1.1116
 3523TIP3   OH210574   3.267   4.765   0.171 -0.1101 -0.0192 -0.1900
 3523TIP3    H110575   3.236   4.834   0.111  0.8182  1.1033  0.5688
 3523TIP3    H210576   3.215   4.688   0.148 -1.7025  1.1212 -0.6052
 3524TIP3   OH210577   3.194   2.677   4.377  0.3247  0.4666 -0.1472
 3524TIP3    H110578   3.135   2.654   4.305  1.8330  1.2738 -1.7093
 3524TIP3    H210579   3.221   2.767   4.359  0.6444  0.7363  1.5176
 3525TIP3   OH210580   6.110   5.494   2.864  0.0170 -0.5502  0.7801
 3525TIP3    H110581   6.100   5.413   2.914  2.7723 -0.9578  0.8485
 3525TIP3    H210582   6.138   5.558   2.929 -2.6928  0.7136  0.8379
 3526TIP3   OH210583   5.231   2.028   3.923  0.2665 -0.3790 -0.2334
 3526TIP3    H110584   5.299   1.969   3.957 -0.6150 -1.5206 -0.3706
 3526TIP3    H210585   5.173   1.970   3.873 -2.1669  0.0770  1.8596
 3527TIP3   OH210586   0.268   3.219   2.526 -0.1723  0.6713 -0.4974
 3527TIP3    H110587   0.245   3.144   2.581  0.2449  1.4940  0.8485
 3527TIP3    H210588   0.364   3.219   2.525 -0.1364  1.8060  0.4425
 3528TIP3   OH210589   2.762   5.874   4.705  1.4310 -0.4899 -0.4348
 3528TIP3    H110590   2.794   5.884   4.615  0.3696 -1.2694 -0.9219
 3528TIP3    H210591   2.750   5.780   4.716 -2.4835 -0.2134 -0.9848
 3529TIP3   OH210592   2.234   1.285   3.702 -0.3027  0.5666 -0.1202
 3529TIP3    H110593   2.145   1.268   3.734 -0.2566  0.0889 -0.2363
 3529TIP3    H210594   2.252   1.212   3.643  1.9713 -2.0556  3.4426
 3530TIP3   OH210595   3.948   4.702   3.906  0.9759 -0.6027  0.2864
 3530TIP3    H110596   3.860   4.666   3.908  0.5082  0.5308  0.7279
 3530TIP3    H210597   4.004   4.628   3.882 -0.1235 -1.2543 -0.3249
 3531TIP3   OH210598   4.358   4.933   3.494 -0.1914 -0.0537 -0.4654
 3531TIP3    H110599   4.322   4.850   3.464  1.2538 -1.0182  0.2985
 3531TIP3    H210600   4.287   4.973   3.545 -0.5143 -1.4498  0.2511
 3532TIP3   OH210601   4.203   4.435   1.147  0.0761 -0.5688 -0.1587
 3532TIP3    H110602   4.154   4.425   1.065  0.0174 -0.7840 -0.0974
 3532TIP3    H210603   4.153   4.383   1.211 -0.4395  0.3854  0.2468
 3533TIP3   OH210604   1.527   2.279   4.025  0.0229  0.0314  0.1412
 3533TIP3    H110605   1.518   2.187   4.050 -1.5189  0.2726  0.5732
 3533TIP3    H210606   1.480   2.328   4.093  0.4466  1.1123 -0.3141
 3534TIP3   OH210607   0.043   3.311   2.388 -0.3518 -0.1789  0.4689
 3534TIP3    H110608   0.096   3.380   2.348 -0.7385  0.1434  0.5180
 3534TIP3    H210609   0.108   3.254   2.431  0.3473 -1.8334 -2.4561
 3535TIP3   OH210610   2.607   4.129   0.223 -0.4306 -0.5752 -0.1362
 3535TIP3    H110611   2.569   4.115   0.136 -1.3077  0.2731  0.0826
 3535TIP3    H210612   2.575   4.055   0.275 -2.5643  0.5308  0.2562
 3536TIP3   OH210613   0.137   4.811   1.935  0.5207  0.3651  0.7118
 3536TIP3    H110614   0.215   4.867   1.936 -0.0703  1.2986 -1.0482
 3536TIP3    H210615   0.077   4.853   1.997 -0.2660  2.3405 -1.2266
 3537TIP3   OH210616   2.312   3.325   5.112 -0.1979 -0.4364  0.5202
 3537TIP3    H110617   2.261   3.375   5.176  1.6305  1.3905  0.6318
 3537TIP3    H210618   2.325   3.386   5.040  1.5632 -0.9618  0.3641
 3538TIP3   OH210619   2.912   5.624   0.445  0.0568  0.3454  0.0769
 3538TIP3    H110620   2.932   5.674   0.524 -0.1804  0.4131  0.0934
 3538TIP3    H210621   2.901   5.533   0.476  0.0596  0.3556  0.1078
 3539TIP3   OH210622   5.957   4.953   0.525 -0.0965 -0.1743 -0.5192
 3539TIP3    H110623   5.932   4.866   0.492 -2.2295  1.1736 -2.7914
 3539TIP3    H210624   5.924   4.955   0.615 -0.5800 -1.4647 -0.6385
 3540TIP3   OH210625   5.693   4.590   5.144  0.6738 -0.2149  0.4297
 3540TIP3    H110626   5.772   4.578   5.197  0.7053  0.1898  0.4732
 3540TIP3    H210627   5.662   4.678   5.165  0.5107 -0.1677  0.0110
 3541TIP3   OH210628   4.526   1.624   3.990 -0.7083 -0.0837 -0.0345
 3541TIP3    H110629   4.616   1.606   4.018 -1.1222  0.2291  1.6048
 3541TIP3    H210630   4.500   1.701   4.040 -2.3829 -1.0445  0.6525
 3542TIP3   OH210631   0.144   5.985   3.626  0.1886 -0.2248 -0.4382
 3542TIP3    H110632   0.139   6.058   3.688  0.0009  0.2164 -0.9598
 3542TIP3    H210633   0.098   5.913   3.669 -1.3030  0.5400 -0.6862
 3543TIP3   OH210634   6.098   4.442   0.084 -0.4159  0.0409  0.1188
 3543TIP3    H110635   6.081   4.353   0.054 -0.4356  0.1337 -0.1461
 3543TIP3    H210636   6.180   4.468   0.041  0.5604 -0.4829  1.5556
 3544TIP3   OH210637   5.819   2.947   1.290  0.3502  0.2580  0.4098
 3544TIP3    H110638   5.741   2.984   1.247  0.2944  0.1418  0.4113
 3544TIP3    H210639   5.892   2.975   1.234  0.0280 -2.8765 -1.8533
 3545TIP3   OH210640   5.047   4.822   2.055  0.0244  0.4038 -0.4382
 3545TIP3    H110641   4.960   4.861   2.054 -0.2565 -0.0079  1.9511
 3545TIP3    H210642   5.090   4.861   2.131  0.6471 -1.9546  0.5169
 3546TIP3   OH210643   5.286   3.838   2.030  0.1234 -0.0293  0.9319
 3546TIP3    H110644   5.282   3.909   1.966  0.8050  1.1043  2.0983
 3546TIP3    H210645   5.208   3.785   2.012 -0.0064  0.5818 -0.4417
 3547TIP3   OH210646   2.455   4.521   1.193  0.1673 -0.7615 -0.0914
 3547TIP3    H110647   2.502   4.524   1.276 -0.4950 -0.6389  0.2766
 3547TIP3    H210648   2.509   4.462   1.138  2.4955  1.7905 -0.7869
 3548TIP3   OH210649   2.199   1.158   3.013  0.7726 -0.1158 -0.3642
 3548TIP3    H110650   2.154   1.179   3.095  0.6579 -0.5672 -0.3079
 3548TIP3    H210651   2.187   1.236   2.959  1.3173  0.4016  0.2439
 3549TIP3   OH210652   3.645   4.140   4.329 -0.3385  0.6834  0.2982
 3549TIP3    H110653   3.684   4.123   4.243 -1.0758  1.4047 -0.1923
 3549TIP3    H210654   3.683   4.224   4.357  0.2036  0.2616  0.8743
 3550TIP3   OH210655   4.914   0.449   0.881  0.1794 -0.1716  0.5050
 3550TIP3    H110656   4.864   0.386   0.830  0.1465 -1.7955  2.4172
 3550TIP3    H210657   4.849   0.512   0.913  0.4031  1.9508 -2.6927
 3551TIP3   OH210658   2.280   1.830   1.693 -0.1420 -0.3241 -0.0284
 3551TIP3    H110659   2.347   1.861   1.632 -1.0894 -0.3091 -1.0972
 3551TIP3    H210660   2.264   1.739   1.665 -1.1961 -0.0422 -0.3742
 3552TIP3   OH210661   1.200   3.613   0.926 -0.3529 -0.1717  0.0910
 3552TIP3    H110662   1.268   3.615   0.858  1.6080 -1.8426  1.8407
 3552TIP3    H210663   1.246   3.580   1.004 -3.2105 -1.3410  1.3995
 3553TIP3   OH210664   0.166   4.108   2.839 -0.0853 -0.1038  0.4368
 3553TIP3    H110665   0.177   4.201   2.817  0.0650 -0.0847  0.5938
 3553TIP3    H210666   0.121   4.071   2.763  2.4326 -0.5084 -0.9657
 3554TIP3   OH210667   5.055   0.914   2.879 -0.3735  0.2648  0.6031
 3554TIP3    H110668   5.097   0.993   2.913 -0.9948  0.5243  0.7938
 3554TIP3    H210669   5.102   0.841   2.919  0.6804  0.5177 -0.1416
 3555TIP3   OH210670   5.751   5.619   1.278  0.2343  0.0695 -0.4309
 3555TIP3    H110671   5.760   5.578   1.192 -0.9373 -0.8068 -0.1585
 3555TIP3    H210672   5.730   5.547   1.337 -0.9767  0.9295  0.2294
 3556TIP3   OH210673   0.698   4.565   3.871  0.1444 -0.0035 -0.1225
 3556TIP3    H110674   0.668   4.474   3.866  1.1855 -0.5701  2.3344
 3556TIP3    H210675   0.640   4.606   3.935  1.0195  0.4444  0.4054
 3557TIP3   OH210676   4.261   5.304   3.923  0.2423  0.1819  0.1700
 3557TIP3    H110677   4.281   5.364   3.994 -3.8492  3.1657 -0.8297
 3557TIP3    H210678   4.222   5.228   3.966  1.6171  0.0365  1.2304
 3558TIP3   OH210679   2.150   1.872   2.175  0.1736 -0.2733 -0.1370
 3558TIP3    H110680   2.106   1.876   2.091 -0.4467 -0.3607  0.1751
 3558TIP3    H210681   2.079   1.856   2.238  0.8081 -1.9404  0.2031
 3559TIP3   OH210682   3.012   3.578   2.042  0.5988 -0.4225 -0.1821
 3559TIP3    H110683   3.015   3.485   2.062 -1.0425 -0.6351 -0.7575
 3559TIP3    H210684   2.991   3.582   1.949 -0.0567  0.5079 -0.0136
 3560TIP3   OH210685   1.279   1.880   4.471 -0.2346 -0.1401  0.3895
 3560TIP3    H110686   1.301   1.861   4.380 -0.6630 -0.0792  0.2731
 3560TIP3    H210687   1.352   1.933   4.503  0.0282 -0.3564  0.1510
 3561TIP3   OH210688   3.623   4.220   1.711  0.1397  0.9400  0.5319
 3561TIP3    H110689   3.644   4.252   1.623  0.5756  0.4755  0.4603
 3561TIP3    H210690   3.706   4.184   1.744 -0.7859 -2.2369 -0.2859
 3562TIP3   OH210691   0.162   3.410   2.700 -0.8826 -0.2003  0.5688
 3562TIP3    H110692   0.193   3.360   2.625 -0.1487 -0.2424  0.8902
 3562TIP3    H210693   0.090   3.359   2.736 -0.2341 -0.9647  0.8099
 3563TIP3   OH210694   1.941   4.137   2.845  0.2650  0.2501 -0.4494
 3563TIP3    H110695   1.985   4.181   2.918  1.5767 -0.6928 -0.6189
 3563TIP3    H210696   1.888   4.205   2.804  1.7679  1.5243 -0.3701
 3564TIP3   OH210697   6.355   5.869   0.650 -0.2649 -0.1512 -0.2059
 3564TIP3    H110698   6.268   5.903   0.629 -0.6092  0.2165  1.6450
 3564TIP3    H210699   6.407   5.948   0.669  0.5518 -0.3547 -1.4904
 3565TIP3   OH210700   5.414   2.305   3.930  0.3633  0.2954  0.1215
 3565TIP3    H110701   5.332   2.255   3.941 -0.2253  0.6217 -2.3106
 3565TIP3    H210702   5.483   2.239   3.935 -0.1661 -0.2567  0.2799
 3566TIP3   OH210703   3.962   1.235   3.570 -0.5735 -0.0477  0.1658
 3566TIP3    H110704   3.984   1.178   3.644  0.3225 -0.1571 -0.1738
 3566TIP3    H210705   3.980   1.182   3.493 -2.0077 -0.1230 -0.1490
 3567TIP3   OH210706   4.758   1.086   3.483  0.3397  0.4785 -0.0438
 3567TIP3    H110707   4.845   1.068   3.449 -0.0460 -0.4738 -0.5685
 3567TIP3    H210708   4.746   1.180   3.471  0.8025  0.4044 -1.1682
 3568TIP3   OH210709   4.409   3.665   1.628  0.0337 -0.0371  0.1388
 3568TIP3    H110710   4.341   3.729   1.607  0.1832 -0.0885 -0.5308
 3568TIP3    H210711   4.402   3.652   1.723 -0.2926  0.6287  0.2099
 3569TIP3   OH210712   1.416   3.782   2.526  0.7041  0.6981  0.1812
 3569TIP3    H110713   1.472   3.708   2.550  1.3173  1.2383  0.4519
 3569TIP3    H210714   1.386   3.816   2.610  0.9809  1.1703  0.0903
 3570TIP3   OH210715   1.522   1.349   3.932  0.1322 -0.5297 -0.4035
 3570TIP3    H110716   1.488   1.412   3.868 -0.1307  0.4269  0.6637
 3570TIP3    H210717   1.616   1.343   3.911 -0.3135 -1.9705 -2.3216
 3571TIP3   OH210718   2.098   4.821   4.814  0.0156  0.3785 -0.3958
 3571TIP3    H110719   2.137   4.746   4.858  0.2908  0.5592 -0.3371
 3571TIP3    H210720   2.012   4.831   4.856  0.9044  1.5521  1.2138
 3572TIP3   OH210721   3.687   1.935   3.314  0.3171  0.0087  0.5020
 3572TIP3    H110722   3.655   1.984   3.391  0.3160  0.9235 -0.0683
 3572TIP3    H210723   3.688   2.000   3.243 -0.4501 -1.0106 -0.4733
 3573TIP3   OH210724   4.935   4.866   3.190 -0.0135  0.3138  0.9037
 3573TIP3    H110725   4.930   4.807   3.265 -1.7728  0.2623  0.7795
 3573TIP3    H210726   4.916   4.811   3.114 -2.0236  1.0596  0.8207
 3574TIP3   OH210727   4.657   4.869   1.755  0.4460 -0.0586 -0.3181
 3574TIP3    H110728   4.643   4.960   1.727 -1.3029 -0.6470 -1.5777
 3574TIP3    H210729   4.589   4.854   1.821  0.3830 -0.5834 -0.4982
 3575TIP3   OH210730   0.355   5.847   5.119  0.7903  0.4890  0.4596
 3575TIP3    H110731   0.416   5.780   5.087  0.8892  0.2162  1.1843
 3575TIP3    H210732   0.411   5.915   5.155  0.6784  0.5664  0.4876
 3576TIP3   OH210733   0.649   4.818   1.712 -0.0698 -0.3166  0.1269
 3576TIP3    H110734   0.738   4.785   1.709  0.5351  1.1952  0.7234
 3576TIP3    H210735   0.602   4.767   1.645  1.2200 -1.1247 -0.1860
 3577TIP3   OH210736   3.621   3.229   0.211 -0.3601 -0.0643  0.2963
 3577TIP3    H110737   3.540   3.210   0.164 -0.2717  0.1045  0.0728
 3577TIP3    H210738   3.593   3.276   0.289 -0.4044  0.9093 -0.2898
 3578TIP3   OH210739   3.276   4.498   3.626 -0.1574 -0.1238  0.1146
 3578TIP3    H110740   3.338   4.498   3.552  0.3329  0.0198  0.5240
 3578TIP3    H210741   3.294   4.579   3.673  0.1760 -0.6580  0.9279
 3579TIP3   OH210742   0.974   3.536   4.692  0.0918 -0.2193 -0.8333
 3579TIP3    H110743   0.972   3.622   4.649  0.1668  0.4077  0.3741
 3579TIP3    H210744   1.031   3.483   4.636  1.6541  1.1028 -0.5867
 3580TIP3   OH210745   1.790   0.787   0.622 -0.5312  0.7028  0.1496
 3580TIP3    H110746   1.810   0.829   0.538 -1.6588  1.6192  0.3056
 3580TIP3    H210747   1.701   0.817   0.643 -1.7658 -2.3647 -0.0961
 3581TIP3   OH210748   6.027   0.951   4.807 -0.6517  0.2593  0.0164
 3581TIP3    H110749   6.035   0.947   4.711  0.9757  0.2246  0.1234
 3581TIP3    H210750   6.029   1.045   4.827  1.7224  0.2265  0.1616
 3582TIP3   OH210751   4.395   2.015   1.910  0.0352  0.4107 -0.5792
 3582TIP3    H110752   4.453   1.993   1.837  0.9259 -0.4966  0.3735
 3582TIP3    H210753   4.449   2.069   1.967  0.2359 -1.0781  0.6998
 3583TIP3   OH210754   4.890   2.845   4.446  0.0875 -0.3041 -0.0763
 3583TIP3    H110755   4.898   2.756   4.411 -0.8004 -0.9565  1.2977
 3583TIP3    H210756   4.797   2.854   4.467  0.2882  0.7013  0.4301
 3584TIP3   OH210757   3.569   4.333   0.670  0.8353  0.0243 -0.1010
 3584TIP3    H110758   3.568   4.415   0.620  0.0394 -0.3100 -0.6538
 3584TIP3    H210759   3.598   4.267   0.607  1.3139 -0.1484  0.3001
 3585TIP3   OH210760   3.036   1.980   4.399 -0.8261 -0.0990 -0.3174
 3585TIP3    H110761   3.022   1.983   4.304  0.8728 -0.8627 -0.6399
 3585TIP3    H210762   3.018   1.889   4.423 -3.1489  0.5227  0.4698
 3586TIP3   OH210763   5.609   2.055   5.109 -0.2804 -0.5016  0.1510
 3586TIP3    H110764   5.633   2.059   5.201  0.1794  1.0139 -0.0091
 3586TIP3    H210765   5.513   2.060   5.108 -0.2648 -0.1066  0.5334
 3587TIP3   OH210766   5.781   5.335   1.352 -0.1800  0.4719  0.0806
 3587TIP3    H110767   5.763   5.263   1.413 -0.0101  1.4818  1.3903
 3587TIP3    H210768   5.711   5.331   1.288 -0.1457 -0.8737  0.0952
 3588TIP3   OH210769   3.819   4.478   0.329  0.6129  0.0927 -0.8265
 3588TIP3    H110770   3.752   4.545   0.317 -0.0546 -0.8353 -2.5755
 3588TIP3    H210771   3.870   4.509   0.405 -1.7385  0.8471  0.5630
 3589TIP3   OH210772   4.293   3.330   4.305  0.2594 -0.6018 -0.1464
 3589TIP3    H110773   4.276   3.402   4.244  2.5235 -1.1115 -1.4985
 3589TIP3    H210774   4.213   3.322   4.356 -0.9896  1.1720 -1.7103
 3590TIP3   OH210775   2.562   5.142   0.109  0.9578  0.5266  0.1882
 3590TIP3    H110776   2.591   5.080   0.042 -0.1643  0.1767  0.0163
 3590TIP3    H210777   2.467   5.130   0.114  0.8681  1.4565  0.9359
 3591TIP3   OH210778   5.923   5.801   2.233 -0.0698 -0.2989 -0.3316
 3591TIP3    H110779   5.919   5.824   2.326  0.6058  0.0663 -0.3870
 3591TIP3    H210780   5.838   5.761   2.215 -0.5316  0.3902  0.2369
 3592TIP3   OH210781   4.601   2.769   0.534 -0.0050  0.0127 -0.6304
 3592TIP3    H110782   4.652   2.841   0.573 -0.3558  0.7612 -1.5197
 3592TIP3    H210783   4.569   2.720   0.609 -0.2039  1.1084  0.0289
 3593TIP3   OH210784   5.751   0.638   4.035  0.3822  0.0986  0.1763
 3593TIP3    H110785   5.811   0.712   4.024  0.2087  0.4719  1.5574
 3593TIP3    H210786   5.664   0.678   4.041  0.2899 -0.1962  0.9746
 3594TIP3   OH210787   3.078   2.188   0.110 -0.2487 -0.1120 -0.1396
 3594TIP3    H110788   3.040   2.262   0.158  0.3800  0.7051 -0.8499
 3594TIP3    H210789   3.101   2.225   0.024 -0.1726 -1.2112 -0.6112
 3595TIP3   OH210790   4.789   5.908   1.860 -0.1342  0.2551 -0.0015
 3595TIP3    H110791   4.789   5.818   1.892  0.4340 -0.3947 -1.7080
 3595TIP3    H210792   4.866   5.948   1.900  0.0706 -0.2600  0.1280
 3596TIP3   OH210793   3.139   4.214   0.267  0.6132  0.4709 -0.3882
 3596TIP3    H110794   3.108   4.301   0.241 -0.6032  0.0904 -0.2984
 3596TIP3    H210795   3.087   4.154   0.213  0.6888 -0.2226  0.2937
 3597TIP3   OH210796   4.981   2.217   2.539 -0.6587  0.0761  0.6614
 3597TIP3    H110797   5.055   2.195   2.595  1.6575  1.9645 -1.4506
 3597TIP3    H210798   4.935   2.287   2.587  1.3238  1.7218  0.2843
 3598TIP3   OH210799   5.318   1.758   4.827 -0.0256 -0.1019  0.0909
 3598TIP3    H110800   5.316   1.724   4.738  1.1913  1.6560 -0.6751
 3598TIP3    H210801   5.275   1.691   4.880  0.6408 -1.9308 -1.5645
 3599TIP3   OH210802   4.725   4.673   0.631 -0.1416  0.0772  0.1223
 3599TIP3    H110803   4.785   4.602   0.656  0.3860  0.5154  0.1261
 3599TIP3    H210804   4.779   4.752   0.634 -0.8265  0.5403  0.5430
 3600TIP3   OH210805   0.577   3.668   1.223  0.2765 -0.3403 -0.0281
 3600TIP3    H110806   0.629   3.630   1.294 -2.4735 -1.5020  1.5143
 3600TIP3    H210807   0.637   3.670   1.148  2.1045 -2.9311  1.1971
 3601TIP3   OH210808   2.645   3.892   4.719  0.6987  0.5891  0.4907
 3601TIP3    H110809   2.612   3.808   4.750 -1.9371  1.8798  1.5252
 3601TIP3    H210810   2.738   3.892   4.743  1.0540 -2.4085 -0.5528
 3602TIP3   OH210811   4.889   1.032   0.993 -0.0461 -0.3028  0.3339
 3602TIP3    H110812   4.921   1.041   0.903  2.1668  1.0304  1.1667
 3602TIP3    H210813   4.870   0.939   1.003 -0.9491 -0.3834 -1.6740
 3603TIP3   OH210814   4.216   0.552   3.361  0.2455  0.2862  0.5216
 3603TIP3    H110815   4.306   0.570   3.333  0.9438 -1.6985  1.2646
 3603TIP3    H210816   4.183   0.490   3.296 -0.2265  0.2620  0.7825
 3604TIP3   OH210817   1.989   1.259   2.346 -0.2387 -0.0463  0.3820
 3604TIP3    H110818   1.975   1.248   2.440  0.9814 -1.0634  0.4752
 3604TIP3    H210819   2.006   1.170   2.314  0.4315  0.4213 -0.6016
 3605TIP3   OH210820   4.165   5.182   1.656  0.3378 -0.1022 -0.1959
 3605TIP3    H110821   4.254   5.214   1.671  0.2641 -0.0977  0.2528
 3605TIP3    H210822   4.173   5.087   1.662 -0.1366 -0.0507  2.6184
 3606TIP3   OH210823   2.624   1.306   3.406  0.2406 -0.3731 -0.5575
 3606TIP3    H110824   2.699   1.270   3.360 -0.3196 -1.0676 -0.9510
 3606TIP3    H210825   2.548   1.265   3.365 -0.3724  0.4434 -0.2894
 3607TIP3   OH210826   4.779   1.708   0.647  0.3867  0.2300 -0.0124
 3607TIP3    H110827   4.771   1.701   0.742 -0.4939  0.2111 -0.0775
 3607TIP3    H210828   4.759   1.620   0.615 -0.3184  0.4771 -0.2660
 3608TIP3   OH210829   6.277   0.281   4.500 -0.2514 -0.1276 -0.0908
 3608TIP3    H110830   6.207   0.339   4.531  0.9190  0.5725  1.3354
 3608TIP3    H210831   6.232   0.217   4.444 -1.9474  0.6013  0.3809
 3609TIP3   OH210832   4.790   1.184   1.206  0.3271 -0.0358 -0.2632
 3609TIP3    H110833   4.809   1.125   1.133 -1.2584  0.7331 -1.3773
 3609TIP3    H210834   4.737   1.254   1.166 -0.9342  0.1992  1.7058
 3610TIP3   OH210835   0.120   4.418   2.847  0.2719 -0.1443 -0.4604
 3610TIP3    H110836   0.038   4.388   2.886  0.5460  1.1002  1.1812
 3610TIP3    H210837   0.097   4.440   2.757 -0.9246 -0.9122 -0.3649
 3611TIP3   OH210838   0.960   3.917   5.078 -0.6978  0.2344 -0.1392
 3611TIP3    H110839   0.919   3.881   5.157  0.0280 -1.7909 -0.6190
 3611TIP3    H210840   1.045   3.949   5.108 -1.1739  1.2301  0.2095
 3612TIP3   OH210841   3.176   4.502   4.180 -0.2973  0.2902  0.5043
 3612TIP3    H110842   3.215   4.584   4.211  1.0912 -0.1238 -0.0872
 3612TIP3    H210843   3.128   4.468   4.255  1.4788  0.2174  1.6480
 3613TIP3   OH210844   0.214   1.604   3.239  0.6569  0.7067  0.5949
 3613TIP3    H110845   0.147   1.552   3.282  0.4187  1.2430  0.8858
 3613TIP3    H210846   0.291   1.595   3.295  0.5395  0.8754  0.7854
 3614TIP3   OH210847   3.507   2.618   0.987 -0.6069  0.0637  0.1671
 3614TIP3    H110848   3.599   2.612   0.961  0.5287 -0.5517  3.8493
 3614TIP3    H210849   3.486   2.711   0.978  0.8845  0.4802  0.7360
 3615TIP3   OH210850   2.024   4.154   3.715  0.1661 -0.0053 -0.3242
 3615TIP3    H110851   2.070   4.077   3.680 -1.5901 -0.8724 -0.8213
 3615TIP3    H210852   2.050   4.158   3.807 -1.9266 -2.9944  0.5305
 3616TIP3   OH210853   2.668   0.038   4.961 -0.1077  1.0716 -0.1649
 3616TIP3    H110854   2.731   0.073   4.898 -0.1133 -1.1677 -1.5387
 3616TIP3    H210855   2.720  -0.018   5.019 -0.4035  1.5960  0.6185
 3617TIP3   OH210856   2.331   2.724   4.242  0.0505 -0.0273 -0.2384
 3617TIP3    H110857   2.282   2.657   4.195  1.2908 -0.3718 -1.0951
 3617TIP3    H210858   2.412   2.735   4.191  0.8614  0.5187  1.1060
 3618TIP3   OH210859   4.723   4.658   3.947 -0.6950  0.3932  0.6884
 3618TIP3    H110860   4.794   4.595   3.961 -0.5384  0.3901 -0.0536
 3618TIP3    H210861   4.687   4.674   4.034  0.4557  0.6715  1.1265
 3619TIP3   OH210862   3.484   3.521   2.549  0.4818 -0.6570 -0.1710
 3619TIP3    H110863   3.453   3.575   2.622 -0.0519  0.3466 -1.1135
 3619TIP3    H210864   3.579   3.525   2.555  0.4417 -0.6231  0.5023
 3620TIP3   OH210865   4.253   3.048   3.502 -0.1964 -0.7400  0.4167
 3620TIP3    H110866   4.309   2.997   3.443 -0.2217 -0.4803  0.1616
 3620TIP3    H210867   4.227   3.124   3.450 -1.4583 -1.2564  0.2541
 3621TIP3   OH210868   4.598   2.058   1.687 -0.2902  0.2227 -0.0784
 3621TIP3    H110869   4.654   1.992   1.728 -0.7156  1.0511  1.9260
 3621TIP3    H210870   4.659   2.118   1.645  0.0916 -1.9721 -2.9916
 3622TIP3   OH210871   2.537   2.958   4.565 -0.0695 -0.0835  0.1505
 3622TIP3    H110872   2.550   2.915   4.480  1.7681  0.7739 -0.0520
 3622TIP3    H210873   2.619   3.004   4.581 -0.9930  1.1277  1.6384
 3623TIP3   OH210874   6.225   1.932   3.579 -0.0950  0.5704 -0.1988
 3623TIP3    H110875   6.199   1.926   3.671 -0.5635 -0.5726 -0.3900
 3623TIP3    H210876   6.150   1.971   3.535 -0.0402  0.7126 -0.1667
 3624TIP3   OH210877   3.384   0.613   3.449  0.2118  0.1063 -0.7920
 3624TIP3    H110878   3.297   0.573   3.451 -0.3951  1.3657  0.5019
 3624TIP3    H210879   3.405   0.620   3.356 -1.2759  0.1687 -1.1514
 3625TIP3   OH210880   4.717   4.650   1.609  0.2970  0.0887 -0.1547
 3625TIP3    H110881   4.690   4.726   1.661 -1.3374 -0.8490  0.4647
 3625TIP3    H210882   4.695   4.674   1.519  1.3319  0.9713 -0.1869
 3626TIP3   OH210883   5.541   0.819   3.601  0.4247 -0.1596  0.3035
 3626TIP3    H110884   5.497   0.734   3.596  0.2988 -0.1631  1.2053
 3626TIP3    H210885   5.488   0.869   3.664  0.9346  0.3185  0.3559
 3627TIP3   OH210886   6.187   1.341   2.448  0.0252 -0.0059 -0.1474
 3627TIP3    H110887   6.230   1.264   2.484  0.9065  0.6712  0.2957
 3627TIP3    H210888   6.185   1.403   2.521 -2.2899 -0.2209  0.0514
 3628TIP3   OH210889   5.071   5.355   4.848 -0.7500  0.1888  0.2489
 3628TIP3    H110890   5.071   5.436   4.796  1.1021  0.2124  0.2310
 3628TIP3    H210891   5.005   5.300   4.805  0.8399  0.1078 -2.3378
 3629TIP3   OH210892   0.068   0.753   5.123  0.3104  0.1927 -0.1015
 3629TIP3    H110893   0.094   0.663   5.144  1.6860  0.8027  0.9973
 3629TIP3    H210894  -0.017   0.744   5.079  0.0095 -1.5653  0.7463
 3630TIP3   OH210895   0.952   4.092   4.506  0.0514 -0.1762 -0.6821
 3630TIP3    H110896   0.964   4.052   4.592  0.6742 -0.7441 -1.0237
 3630TIP3    H210897   0.857   4.103   4.498 -0.0489 -0.5876 -0.1327
 3631TIP3   OH210898   1.685   3.735   2.705 -0.2129 -0.1602  0.1228
 3631TIP3    H110899   1.750   3.750   2.774 -1.8443 -0.4198  1.7939
 3631TIP3    H210900   1.602   3.766   2.743 -1.2960 -1.0050 -1.4517
 3632TIP3   OH210901   4.408   1.863   4.117  0.5836  0.3824 -0.2274
 3632TIP3    H110902   4.428   1.952   4.091 -2.3256  1.3406  0.4828
 3632TIP3    H210903   4.391   1.868   4.211  1.5852 -1.1954  0.0883
 3633TIP3   OH210904   3.568   0.365   1.971  0.6652  0.2868  0.2754
 3633TIP3    H110905   3.610   0.304   2.032  1.0697  0.3945  0.1030
 3633TIP3    H210906   3.505   0.311   1.923  3.3595 -0.8019 -2.2796
 3634TIP3   OH210907   4.815   5.866   4.977  0.1384  0.0161  0.1310
 3634TIP3    H110908   4.836   5.863   4.884 -0.5925  0.0831 -0.0413
 3634TIP3    H210909   4.751   5.796   4.990 -2.4599  2.1981 -0.1433
 3635TIP3   OH210910   2.011   0.842   1.470 -0.1372  0.1056 -0.3751
 3635TIP3    H110911   1.989   0.808   1.384 -0.7751 -2.6078  0.7584
 3635TIP3    H210912   1.927   0.863   1.511  0.1475  1.2233 -0.3093
 3636TIP3   OH210913   1.949   5.638   0.967  0.1481 -0.1854  0.0117
 3636TIP3    H110914   1.860   5.642   1.000 -0.4696  0.6432 -1.6492
 3636TIP3    H210915   1.942   5.597   0.881  0.9171  2.3997 -1.3968
 3637TIP3   OH210916   2.447   5.916   3.625  0.0512 -0.1629  0.0448
 3637TIP3    H110917   2.447   5.997   3.677  0.6995 -0.1673  0.0502
 3637TIP3    H210918   2.531   5.876   3.643  0.0943 -0.3954 -0.6599
 3638TIP3   OH210919   3.013   5.053   4.465 -0.4077 -0.3943  0.0704
 3638TIP3    H110920   3.098   5.013   4.481  0.0073 -0.8363 -2.7616
 3638TIP3    H210921   2.955   4.979   4.444 -1.1444  0.0161  0.5972
 3639TIP3   OH210922   4.024   2.106   3.436  0.0701 -0.5044 -0.4493
 3639TIP3    H110923   3.970   2.028   3.451 -0.4149 -0.1372 -0.2765
 3639TIP3    H210924   3.963   2.171   3.401  0.8889 -0.9172 -2.8732
 3640TIP3   OH210925   1.579   3.728   4.241  0.2240 -0.0850  0.4913
 3640TIP3    H110926   1.674   3.741   4.239  0.4153 -1.0232  1.9742
 3640TIP3    H210927   1.549   3.754   4.153  1.6781  1.3730  0.3803
 3641TIP3   OH210928   2.093   1.044   1.265  0.0634  0.2170  0.0537
 3641TIP3    H110929   2.107   1.036   1.359 -1.1445 -0.6423  0.1896
 3641TIP3    H210930   2.151   0.978   1.226 -1.3155 -1.2954  0.4107
 3642TIP3   OH210931   0.064   5.234   0.616 -0.1931 -0.4855 -0.2506
 3642TIP3    H110932   0.021   5.237   0.701 -0.1895 -2.3053 -0.1351
 3642TIP3    H210933   0.058   5.142   0.589 -0.0187 -0.0025 -2.1280
 3643TIP3   OH210934   0.115   0.287   5.017  0.2077 -1.0523  0.1543
 3643TIP3    H110935   0.042   0.241   5.059  0.9941 -1.8759  0.6614
 3643TIP3    H210936   0.189   0.227   5.026  0.6461 -0.8222 -1.5300
 3644TIP3   OH210937   2.793   1.651   3.983 -0.2302 -0.5367  0.4397
 3644TIP3    H110938   2.809   1.648   3.889 -2.2363  1.1504 -0.0449
 3644TIP3    H210939   2.842   1.728   4.013 -1.8233  0.6548  0.1665
 3645TIP3   OH210940   1.957   5.674   4.238  0.2598 -0.8679 -0.1105
 3645TIP3    H110941   2.037   5.644   4.196 -0.9582 -0.6700 -2.7670
 3645TIP3    H210942   1.947   5.765   4.210 -0.3634 -0.5727  1.0183
 3646TIP3   OH210943   1.175   5.812   0.010  0.6195  0.1635  0.1050
 3646TIP3    H110944   1.127   5.860  -0.058  1.3010  0.6227 -0.0566
 3646TIP3    H210945   1.109   5.755   0.050 -0.0475  0.7431 -0.1536
 3647TIP3   OH210946   4.953   5.764   3.207  0.2742 -0.4343  0.2313
 3647TIP3    H110947   4.875   5.780   3.154  0.0673 -1.2235  0.2888
 3647TIP3    H210948   5.024   5.807   3.159 -0.4745  2.0640  1.1752
 3648TIP3   OH210949   6.284   0.995   1.215 -0.1505 -0.1699  0.0856
 3648TIP3    H110950   6.222   1.066   1.232 -0.5528 -0.3515 -0.5960
 3648TIP3    H210951   6.366   1.025   1.255 -0.0806  1.0659 -0.9410
 3649TIP3   OH210952   4.062   4.971   3.578 -1.1473 -0.1463 -0.7315
 3649TIP3    H110953   4.043   4.897   3.521 -0.6616  0.3041 -1.4834
 3649TIP3    H210954   4.019   5.045   3.536  0.2496  0.4225 -1.1867
 3650TIP3   OH210955   2.954   5.394   3.627 -0.2434  0.4729 -0.2582
 3650TIP3    H110956   2.956   5.436   3.541 -1.2775  3.2433  0.9572
 3650TIP3    H210957   3.039   5.351   3.634  0.9984  2.5003 -1.6309
 3651TIP3   OH210958   1.622   5.522   3.091 -0.0203  0.0984 -0.0778
 3651TIP3    H110959   1.715   5.543   3.101  0.0239 -0.4996  0.8384
 3651TIP3    H210960   1.577   5.584   3.148 -0.1193 -0.1841  0.1506
 3652TIP3   OH210961   3.748   5.679   3.460  0.1183 -0.3216  0.1208
 3652TIP3    H110962   3.829   5.655   3.415  0.0193  1.1726 -0.9084
 3652TIP3    H210963   3.680   5.628   3.416  0.2186  0.0515 -0.4744
 3653TIP3   OH210964   3.240   3.899   1.521  0.0524  0.3647 -0.3973
 3653TIP3    H110965   3.250   3.967   1.455  1.7932 -1.0175 -1.6447
 3653TIP3    H210966   3.324   3.896   1.567  0.1983 -1.2522 -0.7106
 3654TIP3   OH210967   3.678   0.146   2.125  0.0878 -0.4730  0.3644
 3654TIP3    H110968   3.771   0.160   2.140  0.1350  0.7311 -0.8495
 3654TIP3    H210969   3.651   0.087   2.195  1.6857 -0.5967  0.9210
 3655TIP3   OH210970   5.974   1.834   3.732 -0.1102 -0.0143 -0.3400
 3655TIP3    H110971   5.932   1.918   3.752  0.0015 -0.0064 -0.1401
 3655TIP3    H210972   5.957   1.780   3.809  2.1101  0.6826  0.7022
 3656TIP3   OH210973   6.138   5.480   4.133  0.2493 -0.3446  0.4221
 3656TIP3    H110974   6.150   5.394   4.092 -0.8509 -0.3430  0.0624
 3656TIP3    H210975   6.226   5.505   4.162  1.0131 -0.5685 -1.5132
 3657TIP3   OH210976   0.353   4.094   1.699  0.1168  0.1436 -0.5468
 3657TIP3    H110977   0.290   4.129   1.637  0.3990  0.1173 -0.8487
 3657TIP3    H210978   0.308   4.098   1.784 -0.0631  0.6884 -0.6680
 3658TIP3   OH210979   3.938   1.760   4.845  0.0127 -0.3999 -0.3034
 3658TIP3    H110980   3.872   1.691   4.832  1.3897 -2.0196  0.9212
 3658TIP3    H210981   3.989   1.759   4.765 -0.3667 -0.3275 -0.5524
 3659TIP3   OH210982   4.496   3.873   3.815 -0.0069 -0.2651 -0.5474
 3659TIP3    H110983   4.439   3.858   3.890  1.2306  0.6845  0.6303
 3659TIP3    H210984   4.475   3.962   3.786  0.3483 -0.1834 -0.5633
 3660TIP3   OH210985   2.505   4.165   0.922 -0.0311  0.1648 -0.4379
 3660TIP3    H110986   2.504   4.166   0.826  0.2375  1.5150 -0.4584
 3660TIP3    H210987   2.435   4.226   0.947 -1.0498 -1.2424  0.2698
 3661TIP3   OH210988   2.060   5.104   0.685  0.1080 -0.1611  0.1628
 3661TIP3    H110989   1.978   5.115   0.637 -1.1079  3.0186  2.5710
 3661TIP3    H210990   2.033   5.070   0.771  1.6298 -1.2937  0.2299
 3662TIP3   OH210991   2.378   3.389   1.860  0.2859 -0.2662 -0.3384
 3662TIP3    H110992   2.399   3.298   1.878  0.1663 -0.3534 -0.6288
 3662TIP3    H210993   2.363   3.392   1.766  0.0720  0.0084 -0.2980
 3663TIP3   OH210994   6.017   1.231   1.816 -0.2814  0.2935 -0.5557
 3663TIP3    H110995   6.100   1.193   1.847  0.9582  2.5388 -0.9412
 3663TIP3    H210996   5.970   1.254   1.897  0.2206  0.5598 -0.3366
 3664TIP3   OH210997   6.015   0.790   3.589  0.2105  0.4026  0.1268
 3664TIP3    H110998   6.024   0.695   3.582 -1.2625  0.2984 -0.7249
 3664TIP3    H210999   6.054   0.812   3.674 -1.1082 -1.2058  1.1979
 3665TIP3   OH211000   3.813   1.956   0.694  0.4367 -0.5760 -0.0926
 3665TIP3    H111001   3.847   1.968   0.605 -3.1343 -1.9072 -1.8817
 3665TIP3    H211002   3.719   1.940   0.681 -0.2877 -0.7105  3.9840
 3666TIP3   OH211003   5.967   5.160   0.361 -0.9197  0.0248  0.1005
 3666TIP3    H111004   5.962   5.082   0.416  0.0241 -0.2799 -0.2336
 3666TIP3    H211005   5.876   5.192   0.357 -1.5200 -1.6767 -0.6435
 3667TIP3   OH211006   4.307   3.433   2.100 -0.1761 -0.2413 -0.0782
 3667TIP3    H111007   4.284   3.473   2.184 -1.9761  1.0172 -1.1003
 3667TIP3    H211008   4.348   3.350   2.124 -1.7890 -0.5213  2.0531
 3668TIP3   OH211009   0.309   5.471   4.050  0.0857  0.3386 -0.5529
 3668TIP3    H111010   0.366   5.542   4.019  0.4755  0.8341  1.2008
 3668TIP3    H211011   0.242   5.516   4.103 -0.5152 -0.4748 -0.6070
 3669TIP3   OH211012   1.803   5.035   2.447 -0.1625  0.2022  0.0750
 3669TIP3    H111013   1.870   5.046   2.380 -0.7411 -0.5669 -0.6461
 3669TIP3    H211014   1.842   4.974   2.510 -0.3919 -0.6911 -0.6367
 3670TIP3   OH211015   5.907   3.028   2.237  0.0848  0.0538 -0.3448
 3670TIP3    H111016   5.836   3.048   2.176  0.2120  1.3461 -0.1031
 3670TIP3    H211017   5.984   3.018   2.182 -0.1888 -0.8869 -0.5682
 3671TIP3   OH211018   4.025   1.061   3.361  0.6222 -0.0252  0.0451
 3671TIP3    H111019   4.000   1.039   3.271  2.1017  0.3695 -0.4822
 3671TIP3    H211020   4.116   1.090   3.355  1.0875 -0.9763  1.8271
 3672TIP3   OH211021   4.416   5.763   3.260 -0.3231 -0.4761  0.1278
 3672TIP3    H111022   4.423   5.677   3.302  0.0115 -0.1975  0.6531
 3672TIP3    H211023   4.479   5.818   3.307 -0.7834  0.1488  0.0195
 3673TIP3   OH211024   1.380   5.220   2.862  0.5392  0.3607 -0.1089
 3673TIP3    H111025   1.399   5.239   2.954 -0.7012  0.0603  0.2390
 3673TIP3    H211026   1.296   5.174   2.864  0.0315  1.1647 -1.4641
 3674TIP3   OH211027   2.268   5.553   3.903 -0.3130  0.2985 -0.6812
 3674TIP3    H111028   2.237   5.554   3.994  0.4551  0.9131 -0.4118
 3674TIP3    H211029   2.296   5.643   3.886  0.3988 -0.0113 -1.2232
 3675TIP3   OH211030   4.431   3.017   1.096 -0.3897  0.9344 -0.2403
 3675TIP3    H111031   4.399   2.976   1.016  0.1443  0.7068 -0.3446
 3675TIP3    H211032   4.427   3.111   1.079 -0.6880  0.8968 -0.3705
 3676TIP3   OH211033   0.340   5.036   3.789 -0.0166  0.8538 -0.2470
 3676TIP3    H111034   0.337   5.104   3.722  0.3177  1.1427  0.0268
 3676TIP3    H211035   0.433   5.027   3.811  0.2267 -1.1877 -1.7701
 3677TIP3   OH211036   0.502   1.491   0.786 -0.5581 -0.1416  0.4544
 3677TIP3    H111037   0.529   1.405   0.819 -1.0743 -0.6216 -0.3555
 3677TIP3    H211038   0.550   1.501   0.703  1.3333  1.3870  1.6329
 3678TIP3   OH211039   6.029   2.430   0.632 -0.1923 -0.3105  0.2170
 3678TIP3    H111040   6.013   2.460   0.721 -1.6458 -0.9391  0.1968
 3678TIP3    H211041   6.048   2.337   0.641 -2.9580 -0.9920 -0.3049
 3679TIP3   OH211042   1.516   0.598   4.703  0.2371 -0.2089  0.6326
 3679TIP3    H111043   1.528   0.625   4.611  1.6973  0.6690  1.0482
 3679TIP3    H211044   1.592   0.544   4.722  0.6088  0.6594  1.6813
 3680TIP3   OH211045   2.183   5.874   3.552 -0.0346  0.1315  0.4351
 3680TIP3    H111046   2.130   5.798   3.577  0.1923  0.1746  1.0706
 3680TIP3    H211047   2.272   5.840   3.545 -0.2837 -0.2268 -1.9209
 3681TIP3   OH211048   5.563   0.963   3.194 -0.5445  0.3470 -0.2187
 3681TIP3    H111049   5.618   0.917   3.257  0.2144  2.3453  0.6407
 3681TIP3    H211050   5.515   1.028   3.246 -0.0828  1.8878 -1.6154
 3682TIP3   OH211051   4.424   0.920   0.208 -0.3232  1.2068 -0.1481
 3682TIP3    H111052   4.340   0.875   0.214  0.1623  0.1425 -0.9017
 3682TIP3    H211053   4.444   0.920   0.115  0.1168  2.2290 -0.0668
 3683TIP3   OH211054   0.796   2.640   2.639  0.0963  0.3006 -0.1249
 3683TIP3    H111055   0.823   2.630   2.547 -0.6159  2.7705 -0.6813
 3683TIP3    H211056   0.701   2.626   2.637  0.3394 -1.8867  0.6974
 3684TIP3   OH211057   3.640   2.061   3.059  0.3426  0.2927 -0.2021
 3684TIP3    H111058   3.641   1.971   3.029  1.7840  1.0332 -2.6603
 3684TIP3    H211059   3.554   2.094   3.033 -0.0359 -0.2206  0.3539
 3685TIP3   OH211060   4.352   5.799   4.009  0.0033  0.1921 -0.1795
 3685TIP3    H111061   4.377   5.890   4.025 -0.8480  0.0424  2.4932
 3685TIP3    H211062   4.275   5.805   3.952  0.8920  1.0157 -1.3519
 3686TIP3   OH211063   0.970   3.529   5.057 -0.5753 -0.0510  0.1006
 3686TIP3    H111064   0.993   3.607   5.007  0.4116 -0.1986  0.3087
 3686TIP3    H211065   0.908   3.482   5.001 -0.9998  0.7677 -0.1199
 3687TIP3   OH211066   0.626   5.199   4.168 -0.3247 -0.1949 -0.3267
 3687TIP3    H111067   0.601   5.264   4.102 -0.3762  0.0303 -0.0852
 3687TIP3    H211068   0.544   5.164   4.201 -0.3180  0.1894  0.1107
 3688TIP3   OH211069   3.785   1.627   1.985  0.1253  0.0401  0.4934
 3688TIP3    H111070   3.841   1.617   1.908  0.5825 -1.7901  1.0289
 3688TIP3    H211071   3.696   1.622   1.950  0.3119 -2.7539  0.2422
 3689TIP3   OH211072   0.453   2.343   2.648 -0.4597 -0.6748  0.0584
 3689TIP3    H111073   0.472   2.294   2.728 -0.3693  0.5038  0.7879
 3689TIP3    H211074   0.372   2.391   2.668 -0.1987 -0.0352 -0.3896
 3690TIP3   OH211075   6.127   0.368   0.379  1.0089  0.7148 -0.2584
 3690TIP3    H111076   6.221   0.356   0.362  0.8113 -0.5189 -0.5755
 3690TIP3    H211077   6.116   0.347   0.471  0.9648  0.2979 -0.3558
 3691TIP3   OH211078   5.352   2.022   0.195  0.4047  0.0907  0.8341
 3691TIP3    H111079   5.407   2.075   0.138 -0.2791  0.6243  0.6459
 3691TIP3    H211080   5.411   1.958   0.234  0.7832 -0.6863 -0.9352
 3692TIP3   OH211081   6.221   2.222   4.364 -0.4426  0.5966 -0.6837
 3692TIP3    H111082   6.210   2.265   4.449 -1.5291  0.5420 -0.7763
 3692TIP3    H211083   6.231   2.129   4.386 -0.0650  0.6615 -0.5817
 3693TIP3   OH211084   6.129   0.275   3.787  0.3073 -0.3588  0.0636
 3693TIP3    H111085   6.040   0.276   3.822  0.6056  0.7146  0.8387
 3693TIP3    H211086   6.183   0.245   3.859  0.5086 -1.7167 -0.6272
 3694TIP3   OH211087   2.345   5.086   0.715  0.1997 -0.8174 -0.3978
 3694TIP3    H111088   2.376   4.996   0.730 -0.7176 -1.3729 -1.6512
 3694TIP3    H211089   2.250   5.078   0.711  0.1839 -0.1834 -2.6453
 3695TIP3   OH211090   2.372   5.046   4.376  0.3210  0.1885  0.3804
 3695TIP3    H111091   2.414   5.124   4.411 -0.1773  1.9855 -2.6144
 3695TIP3    H211092   2.335   5.002   4.452  1.1561  2.5348  2.2748
 3696TIP3   OH211093   1.139   3.762   4.831 -0.0908  0.5938 -0.3223
 3696TIP3    H111094   1.140   3.813   4.749 -2.2912 -0.7371 -1.2485
 3696TIP3    H211095   1.056   3.785   4.872  0.6581  0.6588  1.2120
 3697TIP3   OH211096   4.519   0.966   4.747  0.7061  0.3413  0.5946
 3697TIP3    H111097   4.566   0.976   4.664 -1.0551 -1.3622 -0.7315
 3697TIP3    H211098   4.556   0.886   4.785  0.0124 -0.1245  0.3153
 3698TIP3   OH211099   3.801   2.113   2.752  0.0510  0.2165  0.4590
 3698TIP3    H111100   3.740   2.040   2.765  0.4389 -0.2528 -0.2574
 3698TIP3    H211101   3.753   2.190   2.782 -0.5657 -0.2620  0.7263
 3699TIP3   OH211102   2.281   4.318   0.971  0.1965 -0.0613 -0.3575
 3699TIP3    H111103   2.208   4.353   0.921 -0.2535 -1.0509 -0.4175
 3699TIP3    H211104   2.282   4.369   1.052  0.3506  0.9216 -0.9553
 3700TIP3   OH211105   5.142   5.605   4.042 -0.2956 -0.0569 -0.0169
 3700TIP3    H111106   5.232   5.600   4.075 -0.0793  1.0550 -0.3762
 3700TIP3    H211107   5.130   5.525   3.991  0.9409  0.3478 -0.9956
 3701TIP3   OH211108   3.473   1.200   5.180  0.0159  0.6192  0.2590
 3701TIP3    H111109   3.567   1.187   5.194 -0.3504 -1.3602  1.2658
 3701TIP3    H211110   3.453   1.150   5.101 -0.6369 -1.5359  1.6804
 3702TIP3   OH211111   4.996   1.662   4.602  0.2860  0.5139  0.8692
 3702TIP3    H111112   5.029   1.582   4.642  1.8272  0.8001  0.2675
 3702TIP3    H211113   5.052   1.676   4.526 -1.1980  1.1310 -0.1655
 3703TIP3   OH211114   0.504   2.860   2.829 -0.0937 -0.1159 -0.0295
 3703TIP3    H111115   0.540   2.931   2.776 -0.7659  1.3635  1.3834
 3703TIP3    H211116   0.557   2.860   2.909 -0.1721 -1.1679  0.0428
 3704TIP3   OH211117   6.227   2.834   3.814 -0.1984 -0.0906 -0.7176
 3704TIP3    H111118   6.161   2.828   3.745  0.4868  1.4896 -1.5571
 3704TIP3    H211119   6.306   2.798   3.775 -0.3421 -1.2460  0.0199
 3705TIP3   OH211120   2.610   3.006   0.219  0.2010  0.0053  0.3260
 3705TIP3    H111121   2.542   2.940   0.208  0.3045 -0.0312 -0.1369
 3705TIP3    H211122   2.606   3.030   0.311  0.2351 -0.7229  0.5207
 3706TIP3   OH211123   5.685   2.347   4.969  0.3771 -0.2266  1.2012
 3706TIP3    H111124   5.725   2.416   5.022 -1.6733  1.3704  0.7813
 3706TIP3    H211125   5.664   2.278   5.031  2.1522 -0.3842  1.6861
 3707TIP3   OH211126   3.776   4.266   2.517 -0.2830  0.0604  0.5538
 3707TIP3    H111127   3.869   4.246   2.519 -0.1472  0.1048 -1.9784
 3707TIP3    H211128   3.770   4.351   2.473 -1.5938 -1.1301 -1.7642
 3708TIP3   OH211129   5.950   0.639   1.561 -0.5226 -0.0793 -0.5101
 3708TIP3    H111130   5.901   0.655   1.480 -0.1957  0.1944 -0.6600
 3708TIP3    H211131   6.039   0.624   1.532 -0.1666  1.1662 -0.1397
 3709TIP3   OH211132   2.034   1.744   0.256  0.1414  0.1563  0.3137
 3709TIP3    H111133   1.953   1.790   0.278 -0.1939 -1.0738  1.8968
 3709TIP3    H211134   2.004   1.662   0.215  0.3865 -1.3234  2.8605
 3710TIP3   OH211135   4.395   4.234   2.511  0.6025 -0.5440  0.0876
 3710TIP3    H111136   4.483   4.209   2.541  0.5203  0.4932  1.2914
 3710TIP3    H211137   4.406   4.320   2.471  0.6994 -1.8880 -3.0428
 3711TIP3   OH211138   5.451   3.252   2.840 -0.4727  0.1480  0.2856
 3711TIP3    H111139   5.439   3.347   2.835  0.7106  0.2571 -2.4311
 3711TIP3    H211140   5.545   3.240   2.839 -0.6172 -1.0721  0.3088
 3712TIP3   OH211141   5.195   5.469   0.489  0.0021  0.0622 -0.3855
 3712TIP3    H111142   5.108   5.452   0.526  1.0220 -1.4266  1.5406
 3712TIP3    H211143   5.228   5.542   0.542  0.5754 -0.5426  0.1061
 3713TIP3   OH211144   3.561   2.739   2.489 -0.0073  0.2201 -0.2114
 3713TIP3    H111145   3.469   2.728   2.513  0.0355  1.0006  0.3417
 3713TIP3    H211146   3.562   2.733   2.394 -0.3854 -1.4952 -0.1370
 3714TIP3   OH211147   4.083   1.021   4.987  0.7424  0.2337  0.0712
 3714TIP3    H111148   4.017   0.952   4.988  0.8270  0.1526  1.5225
 3714TIP3    H211149   4.150   0.990   4.926  0.2149 -0.4075 -0.1915
 3715TIP3   OH211150   4.952   2.386   1.898  0.2737  0.4623 -0.6249
 3715TIP3    H111151   4.973   2.455   1.961  1.3251  0.3261 -0.8113
 3715TIP3    H211152   4.919   2.433   1.822  2.8471  0.9756 -1.5323
 3716TIP3   OH211153   1.434   2.793   3.212  0.3677  0.3368  0.1610
 3716TIP3    H111154   1.403   2.815   3.299 -0.0814 -2.1909  0.7106
 3716TIP3    H211155   1.414   2.700   3.201  1.1549  0.3617 -2.3233
 3717TIP3   OH211156   1.888   4.102   2.270  0.1732  0.7764  0.5360
 3717TIP3    H111157   1.804   4.145   2.258  1.0925  2.2111 -1.2995
 3717TIP3    H211158   1.940   4.165   2.320  1.4273  1.8204 -1.8980
 3718TIP3   OH211159   3.256   3.962   1.994 -0.2555  0.6684 -0.1616
 3718TIP3    H111160   3.340   3.996   2.023 -1.1171  0.4416  2.8806
 3718TIP3    H211161   3.216   4.034   1.945  2.2341  0.2669 -3.0601
 3719TIP3   OH211162   1.624   2.715   2.893 -0.2485  0.0489  0.5114
 3719TIP3    H111163   1.711   2.736   2.861 -1.0043 -0.9725 -2.5650
 3719TIP3    H211164   1.630   2.625   2.923  0.0248  0.3955  1.5248
 3720TIP3   OH211165   2.178   1.879   1.324  0.3212  0.7506  0.1495
 3720TIP3    H111166   2.261   1.836   1.304 -0.2703 -0.8974  1.0801
 3720TIP3    H211167   2.203   1.963   1.362  1.5348  0.6869 -0.4745
 3721TIP3   OH211168   4.679   0.401   1.071  0.0928  0.1402 -0.1176
 3721TIP3    H111169   4.745   0.416   1.138 -1.2439  1.5663  0.9693
 3721TIP3    H211170   4.597   0.431   1.111 -0.9136  0.1250 -2.0387
 3722TIP3   OH211171   1.548   3.460   0.409  0.3573 -0.5655  0.3374
 3722TIP3    H111172   1.628   3.411   0.428  0.9555 -0.1836 -1.1049
 3722TIP3    H211173   1.555   3.484   0.317 -1.8791 -1.3640 -0.1026
 3723TIP3   OH211174   3.153   0.837   0.641 -0.3176 -0.9453 -0.5728
 3723TIP3    H111175   3.220   0.797   0.696  1.1336  1.8025 -0.1992
 3723TIP3    H211176   3.201   0.888   0.576 -2.0386 -0.5404 -1.6135
 3724TIP3   OH211177   0.333   3.372   4.048  0.1006 -0.7771 -0.4347
 3724TIP3    H111178   0.257   3.430   4.037 -0.1565 -0.8001  1.0003
 3724TIP3    H211179   0.298   3.284   4.035 -0.4912 -0.9059  1.6614
 3725TIP3   OH211180   5.354   1.694   2.733  0.6209 -0.1015 -0.5762
 3725TIP3    H111181   5.347   1.614   2.681 -1.6596 -0.0817 -0.4188
 3725TIP3    H211182   5.402   1.668   2.811  0.4899 -1.1493 -0.8272
 3726TIP3   OH211183   4.016   0.845   0.245  0.0822  0.5033 -0.7529
 3726TIP3    H111184   4.059   0.785   0.305 -0.5019  1.1070  0.2860
 3726TIP3    H211185   3.994   0.922   0.298 -0.6058  0.9825 -1.6872
 3727TIP3   OH211186   0.403   5.188   3.068  0.3837  0.1336  0.6179
 3727TIP3    H111187   0.497   5.204   3.077  0.6874  0.3169 -2.0419
 3727TIP3    H211188   0.376   5.245   2.996 -1.1706 -1.8971 -0.5088
 3728TIP3   OH211189   0.976   0.392   0.241  0.0326  0.1614  0.0987
 3728TIP3    H111190   0.985   0.481   0.276 -0.2332  0.0809  0.3756
 3728TIP3    H211191   0.898   0.357   0.284  0.5279 -0.4499  0.5116
 3729TIP3   OH211192   4.937   4.643   0.201 -0.0719  0.0425 -0.8174
 3729TIP3    H111193   4.954   4.654   0.107  0.8513  0.3653 -0.6211
 3729TIP3    H211194   4.902   4.728   0.229  2.0198  0.8037 -0.3801
 3730TIP3   OH211195   4.773   4.018   0.612 -0.1675  0.3254 -0.6819
 3730TIP3    H111196   4.694   3.985   0.569 -0.1814 -0.0751 -0.3561
 3730TIP3    H211197   4.834   4.036   0.540  0.3367 -1.6891 -0.8354
 3731TIP3   OH211198   3.921   0.038   1.388 -0.5620  0.2538 -0.0925
 3731TIP3    H111199   3.925   0.048   1.293 -1.2600 -1.3588 -0.3349
 3731TIP3    H211200   3.834   0.071   1.412 -0.1391  1.2655  0.0948
 3732TIP3   OH211201   0.963   2.362   4.201 -0.3705  0.4210  0.2028
 3732TIP3    H111202   0.885   2.310   4.184 -0.5259  0.7312 -0.0467
 3732TIP3    H211203   1.035   2.300   4.195 -0.5493  0.2479 -0.1596
 3733TIP3   OH211204   2.808   0.831   3.962  0.3472 -0.4866 -0.1846
 3733TIP3    H111205   2.807   0.925   3.976  0.2969 -0.2876 -1.4054
 3733TIP3    H211206   2.812   0.793   4.050  1.8636  0.6652  0.2924
 3734TIP3   OH211207   3.017   3.324   2.989  0.3653 -0.1001 -0.4786
 3734TIP3    H111208   3.018   3.362   3.077 -0.7149 -0.3389 -0.3567
 3734TIP3    H211209   3.056   3.392   2.934  1.2540 -0.0355  0.2052
 3735TIP3   OH211210   4.397   4.846   0.850 -0.3239  0.3100  0.2425
 3735TIP3    H111211   4.343   4.787   0.903 -0.5971  1.3398  1.1559
 3735TIP3    H211212   4.338   4.882   0.785 -0.2495 -0.1228 -0.0658
 3736TIP3   OH211213   3.760   3.921   1.151 -0.0167  0.0184  0.1086
 3736TIP3    H111214   3.715   3.882   1.226 -0.0287  1.3650  0.8321
 3736TIP3    H211215   3.733   3.868   1.077  1.3297 -2.4305  1.2427
 3737TIP3   OH211216   5.784   0.132   4.861 -0.1678 -0.1954 -0.1085
 3737TIP3    H111217   5.700   0.099   4.892  0.1424 -0.9476 -0.0451
 3737TIP3    H211218   5.847   0.065   4.886  0.1704 -0.6339 -1.9372
 3738TIP3   OH211219   4.387   4.367   3.586 -0.0797  0.0487  0.8079
 3738TIP3    H111220   4.446   4.342   3.515 -1.2029 -1.7244  0.4296
 3738TIP3    H211221   4.305   4.390   3.542 -0.5949 -0.4645  1.4691
 3739TIP3   OH211222   6.209   3.125   1.250 -0.4295  0.0757 -0.5301
 3739TIP3    H111223   6.295   3.148   1.287  0.1681 -0.5259 -1.4861
 3739TIP3    H211224   6.198   3.032   1.273 -0.9339  0.2133 -0.2140
 3740TIP3   OH211225   4.387   3.541   4.676  0.3940 -0.2883 -0.5138
 3740TIP3    H111226   4.425   3.601   4.740  0.7788 -2.2147  1.1678
 3740TIP3    H211227   4.309   3.587   4.645  0.8536  1.2272  0.4249
 3741TIP3   OH211228   0.439   5.722   3.244 -0.6838  0.6189 -0.4016
 3741TIP3    H111229   0.403   5.687   3.163  1.1556 -1.8450 -0.2591
 3741TIP3    H211230   0.494   5.795   3.217 -1.1304  0.6616 -1.2141
 3742TIP3   OH211231   3.206   1.366   1.827  0.0277  0.7320 -0.0441
 3742TIP3    H111232   3.139   1.297   1.821 -0.1958  1.0171 -0.9427
 3742TIP3    H211233   3.245   1.353   1.913 -0.0017 -0.5231 -0.2002
 3743TIP3   OH211234   4.521   2.981   2.481  0.2666 -0.1132  0.0456
 3743TIP3    H111235   4.487   3.042   2.415 -0.3486  1.5299  1.8190
 3743TIP3    H211236   4.584   3.033   2.531  0.9469 -1.4297  0.5934
 3744TIP3   OH211237   5.814   5.009   1.912  0.3010  0.1906 -0.2531
 3744TIP3    H111238   5.804   5.052   1.827  0.8903 -0.8610 -0.8763
 3744TIP3    H211239   5.906   5.021   1.934 -0.2156  2.0429  1.1512
 3745TIP3   OH211240   6.286   4.149   2.653 -0.5317  0.1324  0.9205
 3745TIP3    H111241   6.257   4.159   2.563 -1.2081 -2.2957  0.7827
 3745TIP3    H211242   6.219   4.194   2.705 -0.6478  0.7273  0.2659
 3746TIP3   OH211243   1.981   5.576   2.199  0.0300 -0.1247 -0.3157
 3746TIP3    H111244   1.996   5.668   2.180 -0.1085 -0.4752 -2.3696
 3746TIP3    H211245   1.945   5.575   2.288 -1.2481  1.9080 -0.7446
 3747TIP3   OH211246   4.325   4.063   0.379 -0.1512  0.2854 -0.2676
 3747TIP3    H111247   4.237   4.048   0.343  0.2663  1.7836 -2.0801
 3747TIP3    H211248   4.313   4.131   0.445 -0.6943 -1.4472  1.5484
 3748TIP3   OH211249   2.550   4.789   4.463 -0.5826  0.6806 -0.6862
 3748TIP3    H111250   2.603   4.740   4.526  0.7927  0.6842 -1.7966
 3748TIP3    H211251   2.560   4.880   4.491 -1.6282  0.5298  0.2636
 3749TIP3   OH211252   3.552   3.899   2.371  0.4303 -0.1648  0.5734
 3749TIP3    H111253   3.598   3.981   2.351  0.3821 -0.2316  0.1843
 3749TIP3    H211254   3.612   3.830   2.344  0.8458 -0.2800  1.7191
 3750TIP3   OH211255   6.170   2.085   0.501 -0.4164  0.2681  0.1815
 3750TIP3    H111256   6.190   1.999   0.539 -1.2184 -0.0649 -0.1200
 3750TIP3    H211257   6.108   2.124   0.562 -0.3401  0.4764  0.1260
 3751TIP3   OH211258   3.431   0.843   0.766 -0.1199 -0.6111 -0.0666
 3751TIP3    H111259   3.460   0.928   0.731 -0.2360 -1.0527 -1.2832
 3751TIP3    H211260   3.494   0.780   0.731 -0.3260 -1.0931  0.4199
 3752TIP3   OH211261   3.941   1.242   5.118  0.1495  0.2517 -0.2538
 3752TIP3    H111262   3.990   1.163   5.095  2.4486  2.4508 -3.9299
 3752TIP3    H211263   3.861   1.237   5.065 -1.1194 -0.7764  1.6366
 3753TIP3   OH211264   2.867   1.492   2.843 -0.0619  0.2492  0.1593
 3753TIP3    H111265   2.859   1.494   2.939 -1.1385 -0.8605  0.1206
 3753TIP3    H211266   2.889   1.401   2.823  0.5106  0.5503 -0.6392
 3754TIP3   OH211267   0.208   1.715   2.131 -0.0741 -0.5284  0.0169
 3754TIP3    H111268   0.118   1.701   2.159 -0.7334  2.4243 -0.2992
 3754TIP3    H211269   0.203   1.726   2.036  0.7153 -0.9165 -0.0812
 3755TIP3   OH211270   5.042   3.056   4.512  0.2155 -0.4340 -0.0465
 3755TIP3    H111271   4.964   3.000   4.501 -1.1023  1.3147 -0.0101
 3755TIP3    H211272   5.034   3.121   4.442  1.7783 -0.3308 -0.1609
 3756TIP3   OH211273   3.164   4.699   4.375 -0.2411  0.4157 -0.1361
 3756TIP3    H111274   3.213   4.777   4.397 -0.4973  0.2840  0.9525
 3756TIP3    H211275   3.198   4.631   4.433 -1.2076  0.1497  0.1451
 3757TIP3   OH211276   0.191   3.851   2.237 -0.6397  0.0743 -0.0913
 3757TIP3    H111277   0.200   3.799   2.317 -0.8560  0.3558  0.1178
 3757TIP3    H211278   0.270   3.831   2.186 -0.2591  0.2724  0.4131
 3758TIP3   OH211279   1.976   3.887   1.864  0.1187 -0.6310 -0.4647
 3758TIP3    H111280   2.000   3.965   1.914  0.3117 -0.6807 -0.4793
 3758TIP3    H211281   1.901   3.915   1.811  0.3310 -0.3888 -0.6424
 3759TIP3   OH211282   5.456   2.846   4.444 -0.3197  0.0724  0.5783
 3759TIP3    H111283   5.440   2.810   4.531 -2.1072  0.2131  0.3449
 3759TIP3    H211284   5.493   2.773   4.394  1.7948  0.2976  1.7223
 3760TIP3   OH211285   5.278   6.005   4.524 -0.7474 -0.0381 -0.1871
 3760TIP3    H111286   5.211   5.979   4.460 -0.8279 -1.8863  0.5922
 3760TIP3    H211287   5.359   5.964   4.492 -0.2986  0.9285 -0.3150
 3761TIP3   OH211288   2.933   2.740   2.240 -0.2802  0.3444 -0.0437
 3761TIP3    H111289   2.999   2.719   2.306 -0.6901 -1.5854 -0.1754
 3761TIP3    H211290   2.932   2.835   2.236  0.2954  0.4924  2.1864
 3762TIP3   OH211291   3.189   0.619   4.242 -0.5402 -0.2170 -0.4645
 3762TIP3    H111292   3.250   0.638   4.313  0.9323 -1.9681 -1.1643
 3762TIP3    H211293   3.243   0.626   4.163 -1.1163 -2.1700 -1.0743
 3763TIP3   OH211294   5.285   4.360   2.557  0.4065 -0.2102  0.2107
 3763TIP3    H111295   5.204   4.389   2.516 -0.0004  0.1303  1.2089
 3763TIP3    H211296   5.278   4.265   2.560  0.6441 -0.2688 -0.8938
 3764TIP3   OH211297   5.312   1.296   1.040  0.3775  0.4043  0.5165
 3764TIP3    H111298   5.250   1.354   0.996 -0.0847  1.6175  2.6142
 3764TIP3    H211299   5.261   1.217   1.059 -0.2966  1.0447  1.4424
 3765TIP3   OH211300   0.263   3.900   5.098  0.3506  0.1721 -0.2481
 3765TIP3    H111301   0.296   3.920   5.010 -2.4436  1.5889 -1.1259
 3765TIP3    H211302   0.237   3.808   5.093 -0.0596  0.3200 -1.0424
 3766TIP3   OH211303   1.689   4.813   4.509 -0.6096 -0.3088 -0.3151
 3766TIP3    H111304   1.762   4.755   4.529  2.5198  2.5056 -2.6181
 3766TIP3    H211305   1.705   4.892   4.560 -1.6106  0.6736 -1.4443
 3767TIP3   OH211306  -0.029   5.530   5.098 -0.0480 -0.5785  0.2438
 3767TIP3    H111307   0.060   5.535   5.063 -0.4244  0.8629 -0.5945
 3767TIP3    H211308  -0.018   5.512   5.191  1.1777  0.8496  0.3967
 3768TIP3   OH211309   1.040   0.553   1.025  0.2349  0.0038  0.1114
 3768TIP3    H111310   1.024   0.646   1.037 -0.5364 -0.2863  1.6292
 3768TIP3    H211311   1.029   0.538   0.931  0.7604  1.4937 -0.2020
 3769TIP3   OH211312   2.166   3.350   3.552 -0.0622  0.4231  0.3336
 3769TIP3    H111313   2.080   3.332   3.590 -0.0070  2.3303  1.4764
 3769TIP3    H211314   2.227   3.301   3.607 -0.4309 -1.9500 -1.2209
 3770TIP3   OH211315   4.580   5.274   0.322  0.1892 -0.2117  0.1638
 3770TIP3    H111316   4.494   5.262   0.363  0.3162 -1.5214  0.0656
 3770TIP3    H211317   4.625   5.337   0.379 -1.6300  2.3706 -1.0305
 3771TIP3   OH211318   0.243   4.725   1.485  0.1242  0.0139  0.2046
 3771TIP3    H111319   0.187   4.712   1.562 -0.2088 -0.2636 -0.0848
 3771TIP3    H211320   0.229   4.817   1.461  0.4417  0.1798  0.6399
 3772TIP3   OH211321   0.284   3.825   0.884 -0.1448  0.3337  0.3648
 3772TIP3    H111322   0.242   3.911   0.878  1.9397  1.4621  0.9098
 3772TIP3    H211323   0.313   3.820   0.975  0.0860 -0.7979  0.2348
 3773TIP3   OH211324   0.893   0.953   1.927 -1.1378 -0.7901  0.4729
 3773TIP3    H111325   0.798   0.966   1.924 -0.9836  0.9907  1.6287
 3773TIP3    H211326   0.927   1.007   1.856 -0.8957  0.0173  1.1867
 3774TIP3   OH211327   0.601   5.754   2.600 -0.5615 -0.8479 -0.5771
 3774TIP3    H111328   0.616   5.664   2.629  2.2303 -0.5321 -0.7164
 3774TIP3    H211329   0.507   5.760   2.588 -1.1583 -2.9797  1.9313
 3775TIP3   OH211330   5.200   3.027   3.740 -0.2012  0.4454 -0.1149
 3775TIP3    H111331   5.206   3.111   3.693  1.2718  0.2165 -0.3577
 3775TIP3    H211332   5.166   2.966   3.675 -0.2670  0.6190 -0.2451
 3776TIP3   OH211333   5.631   4.621   0.965 -0.0285 -0.8413  0.2951
 3776TIP3    H111334   5.635   4.527   0.950  0.0931 -0.7067 -0.5513
 3776TIP3    H211335   5.538   4.643   0.952 -0.1082 -0.8802  0.7664
 3777TIP3   OH211336   4.137   5.579   3.829 -0.9550  0.2646 -0.7466
 3777TIP3    H111337   4.066   5.601   3.889  0.0968  0.8634  0.3291
 3777TIP3    H211338   4.191   5.516   3.877  0.0342  0.9317 -0.9503
 3778TIP3   OH211339   5.581   2.973   4.136  0.0466  0.1702  0.0447
 3778TIP3    H111340   5.552   2.987   4.046 -1.3216  2.7215  0.7720
 3778TIP3    H211341   5.510   2.923   4.177 -0.7217  1.4919  0.3838
 3779TIP3   OH211342   1.959   5.406   0.814 -0.1255  0.0946 -0.1069
 3779TIP3    H111343   1.989   5.392   0.904  0.9190  1.9210 -0.1063
 3779TIP3    H211344   1.870   5.371   0.812  0.2687 -1.0689  1.2820
 3780TIP3   OH211345   3.258   4.245   3.701 -0.0780 -0.0609 -0.7522
 3780TIP3    H111346   3.268   4.332   3.660 -2.8511  0.0239 -1.4661
 3780TIP3    H211347   3.232   4.264   3.791 -1.3785 -0.0704 -1.0967
 3781TIP3   OH211348   4.638   1.333   4.183  0.4839  0.4763  0.4526
 3781TIP3    H111349   4.603   1.260   4.132  0.6346  0.5985  0.1755
 3781TIP3    H211350   4.730   1.338   4.158  0.7469  0.0518  1.3039
 3782TIP3   OH211351   1.262   2.499   4.401  0.4423  0.8095 -0.1714
 3782TIP3    H111352   1.278   2.513   4.494 -2.8288  0.6052  0.5342
 3782TIP3    H211353   1.295   2.411   4.384  0.3937  0.5516  0.9911
 3783TIP3   OH211354   4.862   0.416   0.412 -0.2053  0.8279  0.0821
 3783TIP3    H111355   4.922   0.354   0.454 -0.8290  0.8860  1.0746
 3783TIP3    H211356   4.834   0.475   0.482 -1.8361  0.4911 -0.2425
 3784TIP3   OH211357   5.826   5.221   1.711 -1.2283 -0.0365  0.8143
 3784TIP3    H111358   5.749   5.179   1.673 -0.1070  0.0020 -1.6802
 3784TIP3    H211359   5.818   5.313   1.686  0.4748 -0.3439 -1.1288
 3785TIP3   OH211360   6.086   3.409   0.363  0.4910  0.3608 -0.1833
 3785TIP3    H111361   6.158   3.350   0.340 -0.1975 -0.5918  0.0196
 3785TIP3    H211362   6.106   3.437   0.452 -0.0349 -0.9671  0.3879
 3786TIP3   OH211363   0.523   4.622   0.887 -0.0016 -0.0877  0.1444
 3786TIP3    H111364   0.468   4.569   0.945  0.2585 -0.4644  0.0468
 3786TIP3    H211365   0.543   4.564   0.813  0.0733  0.2295 -0.0869
 3787TIP3   OH211366   3.771   4.131   2.887  0.2288 -0.2349 -0.5631
 3787TIP3    H111367   3.734   4.048   2.917 -0.7570  1.0622  2.1335
 3787TIP3    H211368   3.860   4.110   2.861 -0.1331 -2.2090 -0.3057
 3788TIP3   OH211369   4.690   0.642   0.556 -0.0511 -0.2442 -0.4488
 3788TIP3    H111370   4.754   0.658   0.625 -0.9322 -0.9849  0.5881
 3788TIP3    H211371   4.686   0.724   0.507  0.6994  0.2578  0.2986
 3789TIP3   OH211372   5.384   4.182   3.060 -0.0662 -0.0368  0.0098
 3789TIP3    H111373   5.468   4.196   3.016 -0.5856 -0.0836 -1.0200
 3789TIP3    H211374   5.387   4.091   3.090 -0.0263 -0.2579 -0.6530
 3790TIP3   OH211375   4.582   4.923   0.491 -0.7565 -0.2715  0.1623
 3790TIP3    H111376   4.508   4.909   0.431 -1.3963 -0.2799  0.9443
 3790TIP3    H211377   4.594   4.838   0.534 -0.2873 -0.2682  0.0419
 3791TIP3   OH211378   2.082   5.672   3.205  0.4132 -0.2591 -0.3256
 3791TIP3    H111379   2.147   5.715   3.149  1.7635  0.0565  1.4092
 3791TIP3    H211380   2.134   5.627   3.272 -1.1330 -0.9595  0.4504
 3792TIP3   OH211381   1.242   0.184   1.032  0.0945 -0.1665 -0.2717
 3792TIP3    H111382   1.176   0.230   1.084 -0.2238 -1.3363  0.3937
 3792TIP3    H211383   1.269   0.248   0.966  0.3486  1.2930  1.1677
 3793TIP3   OH211384   6.257   3.066   2.285 -0.3410 -0.3004 -0.4325
 3793TIP3    H111385   6.230   3.010   2.357 -1.3496  0.6168 -0.0660
 3793TIP3    H211386   6.293   3.144   2.328 -3.3379  1.4456 -0.7655
 3794TIP3   OH211387   2.669   2.661   2.128 -0.0046 -0.3558  0.0374
 3794TIP3    H111388   2.749   2.680   2.178 -0.2430 -0.0772  0.3166
 3794TIP3    H211389   2.606   2.630   2.194 -1.4423  3.1825  0.5310
 3795TIP3   OH211390   4.268   4.918   2.905 -0.1420 -0.2036  0.2838
 3795TIP3    H111391   4.270   4.978   2.979  1.0316  0.2468 -0.0910
 3795TIP3    H211392   4.318   4.842   2.935  0.5012  0.0596 -0.0903
 3796TIP3   OH211393   3.969   5.416   3.580 -0.5577  0.2988 -0.4499
 3796TIP3    H111394   4.002   5.356   3.646 -1.0427  0.7521  0.2215
 3796TIP3    H211395   3.968   5.365   3.499  0.4697 -0.1259 -0.2089
 3797TIP3   OH211396   5.114   0.855   4.657  0.1093  0.4007 -0.2649
 3797TIP3    H111397   5.055   0.819   4.723 -0.6047  1.7162 -0.1571
 3797TIP3    H211398   5.061   0.860   4.578  0.0612  1.6248 -0.1603
 3798TIP3   OH211399   5.295   4.396   2.233 -0.4024 -0.2307 -0.0104
 3798TIP3    H111400   5.294   4.464   2.166 -1.5557 -1.4103 -1.2617
 3798TIP3    H211401   5.388   4.377   2.247 -0.0657  1.4260  0.2340
 3799TIP3   OH211402   1.329   1.014   2.662  0.2445  0.5881  0.2844
 3799TIP3    H111403   1.240   1.030   2.693 -0.5416 -1.1038 -0.9866
 3799TIP3    H211404   1.330   1.046   2.572  0.8702  0.3860  0.2141
 3800TIP3   OH211405   1.760   4.151   1.571 -0.2642  0.5853 -0.1465
 3800TIP3    H111406   1.770   4.153   1.476 -0.6077  4.5383 -0.2526
 3800TIP3    H211407   1.672   4.187   1.587 -0.3477 -0.3099  1.6828
 3801TIP3   OH211408   2.539   2.937   0.883 -0.5593  0.2475  0.0016
 3801TIP3    H111409   2.542   2.875   0.810  1.1051  0.4652 -0.1533
 3801TIP3    H211410   2.584   2.891   0.954 -0.6988  0.6777  0.3646
 3802TIP3   OH211411   0.890   5.764   2.016  0.2257  0.2603 -0.6343
 3802TIP3    H111412   0.797   5.746   2.003  0.6050 -1.7976 -0.7632
 3802TIP3    H211413   0.932   5.731   1.936  1.3957 -2.1336  0.8663
 3803TIP3   OH211414   5.831   5.088   4.971  0.4261 -0.7563  0.0545
 3803TIP3    H111415   5.782   5.152   5.022  1.0331 -1.3111  1.4048
 3803TIP3    H211416   5.767   5.022   4.946  0.5681 -1.9998  2.6554
 3804TIP3   OH211417   4.156   1.821   2.344  0.1252 -0.1467 -0.2980
 3804TIP3    H111418   4.215   1.762   2.298  1.1574 -0.0949  0.9019
 3804TIP3    H211419   4.163   1.904   2.295  1.9569  0.1985  0.4667
 3805TIP3   OH211420   1.303   0.186   3.808  0.5781 -0.1874 -0.4797
 3805TIP3    H111421   1.242   0.238   3.860  0.6929 -1.5560  1.1143
 3805TIP3    H211422   1.286   0.212   3.718 -0.1152  1.7742  0.1720
 3806TIP3   OH211423   0.369   0.076   2.855  0.0346 -0.2702 -0.1179
 3806TIP3    H111424   0.344   0.083   2.763 -2.2029 -1.6690  0.2915
 3806TIP3    H211425   0.304   0.129   2.902  0.6361 -0.2328  0.6951
 3807TIP3   OH211426   1.627   4.155   2.256 -0.2375 -0.6831 -0.0355
 3807TIP3    H111427   1.623   4.070   2.300 -1.3383 -0.3713  0.4919
 3807TIP3    H211428   1.551   4.157   2.198  0.3970 -0.4955 -0.8847
 3808TIP3   OH211429   3.072   3.807   0.979  0.6507 -0.2872  0.0889
 3808TIP3    H111430   3.005   3.837   0.917  0.9238  0.4206  0.1283
 3808TIP3    H211431   3.023   3.784   1.058  0.4859  0.6646  0.2780
 3809TIP3   OH211432   1.115   1.824   0.507 -0.0177  0.1040  0.1489
 3809TIP3    H111433   1.181   1.867   0.454 -0.8878  1.4606  0.1376
 3809TIP3    H211434   1.156   1.814   0.593  0.0468  1.3468  0.2718
 3810TIP3   OH211435   5.961   3.285   4.560  0.6429 -0.0476 -0.1869
 3810TIP3    H111436   6.044   3.320   4.528  0.2204 -0.8475 -2.3128
 3810TIP3    H211437   5.973   3.190   4.557 -0.1564 -0.1619  0.0461
 3811TIP3   OH211438   0.499   4.474   1.874 -0.5278 -0.5612  0.2851
 3811TIP3    H111439   0.421   4.476   1.818  0.7107  0.5430 -1.4964
 3811TIP3    H211440   0.502   4.562   1.913  0.3168 -0.2812 -0.3946
 3812TIP3   OH211441   4.722   4.524   1.862 -0.6019  0.5030 -0.6024
 3812TIP3    H111442   4.687   4.435   1.851 -2.9739  1.2529  0.2410
 3812TIP3    H211443   4.725   4.559   1.773  3.2350 -1.3010 -1.3728
 3813TIP3   OH211444   2.948   1.325   4.816 -0.3057 -0.2671 -0.1360
 3813TIP3    H111445   3.028   1.327   4.869  0.9271  1.1850 -1.9142
 3813TIP3    H211446   2.970   1.268   4.742 -0.6887  0.5538 -0.9116
 3814TIP3   OH211447   1.533   4.167   4.352 -0.0804 -0.4795 -0.3415
 3814TIP3    H111448   1.613   4.117   4.367  0.7165  0.7836 -0.1975
 3814TIP3    H211449   1.539   4.196   4.261 -1.2646 -1.8616 -0.8893
 3815TIP3   OH211450   6.366   2.448   0.901 -0.1856 -0.3736 -0.2834
 3815TIP3    H111451   6.277   2.482   0.909 -0.5024 -0.5930 -2.3785
 3815TIP3    H211452   6.355   2.353   0.895  0.3693 -0.5689  1.3341
 3816TIP3   OH211453   1.682   1.584   1.392 -0.5473  0.0368 -0.3202
 3816TIP3    H111454   1.596   1.548   1.413 -0.3750 -0.0296  0.2934
 3816TIP3    H211455   1.683   1.669   1.436 -0.1551 -0.1341  0.0102
 3817TIP3   OH211456   1.261   5.791   5.126  0.6238  0.0063  0.2480
 3817TIP3    H111457   1.219   5.859   5.074 -0.0363 -0.6821 -0.1501
 3817TIP3    H211458   1.282   5.834   5.209  1.3150  1.0022 -0.4198
 3818TIP3   OH211459   5.887   3.963   0.706 -0.2937  0.3798 -0.8912
 3818TIP3    H111460   5.923   4.029   0.765 -2.1215 -0.3238  1.1541
 3818TIP3    H211461   5.805   4.002   0.675 -1.1558 -0.7000 -0.0279
 3819TIP3   OH211462   6.200   0.752   1.739  0.0482  0.1664  0.2222
 3819TIP3    H111463   6.270   0.690   1.759  0.6730  1.2658  1.6595
 3819TIP3    H211464   6.212   0.773   1.646  0.9079 -0.5176  0.1655
 3820TIP3   OH211465   6.187   3.125   3.625  0.4483 -0.3017  0.2381
 3820TIP3    H111466   6.246   3.126   3.701  0.8983 -1.0234 -0.0978
 3820TIP3    H211467   6.164   3.033   3.614 -0.6638 -0.0380  0.2972
 3821TIP3   OH211468   2.594   4.657   4.033 -0.0476 -0.4800 -0.0442
 3821TIP3    H111469   2.681   4.663   4.074 -0.4938 -3.3619  1.6073
 3821TIP3    H211470   2.535   4.696   4.097 -0.1005  0.7944 -0.8394
 3822TIP3   OH211471   4.444   0.677   1.416 -0.4996  0.6583 -0.4083
 3822TIP3    H111472   4.534   0.673   1.451 -0.5210  2.5486 -0.0127
 3822TIP3    H211473   4.393   0.715   1.488 -1.4652  0.2901 -0.8971
 3823TIP3   OH211474   5.055   1.817   3.925 -0.3931  0.4105  0.4122
 3823TIP3    H111475   5.080   1.729   3.952  1.7687  0.5430 -0.9662
 3823TIP3    H211476   5.045   1.865   4.007 -1.6268 -1.0586  1.1917
 3824TIP3   OH211477   3.884   5.420   1.232 -0.2342  0.3790  0.2107
 3824TIP3    H111478   3.942   5.401   1.159 -0.4181  2.1083 -0.4145
 3824TIP3    H211479   3.812   5.358   1.222  0.2552 -0.0911 -0.4580
 3825TIP3   OH211480   0.037   2.698   0.413  0.5574 -0.3075 -0.1587
 3825TIP3    H111481   0.077   2.646   0.483 -0.1887  1.1036  1.3951
 3825TIP3    H211482  -0.057   2.687   0.426  0.4052 -0.4077 -1.2697
 3826TIP3   OH211483   4.033   3.464   5.067 -0.1986  0.1438 -0.2902
 3826TIP3    H111484   4.117   3.509   5.067  0.2530 -0.6590  0.4011
 3826TIP3    H211485   4.040   3.400   5.138 -0.8205 -0.9947 -1.2210
 3827TIP3   OH211486   0.183   3.289   0.372  0.0460  0.3290 -0.4027
 3827TIP3    H111487   0.181   3.248   0.458  1.1013  0.2347 -0.4185
 3827TIP3    H211488   0.107   3.252   0.327 -0.5282  0.3940  0.4808
 3828TIP3   OH211489   0.547   2.062   1.355  0.2817  0.1314 -0.1110
 3828TIP3    H111490   0.583   2.144   1.389 -0.8584  0.9150 -0.7104
 3828TIP3    H211491   0.538   2.078   1.261 -1.0581 -0.2333 -0.0581
 3829TIP3   OH211492   6.286   4.785   2.726 -0.3117  0.0150 -0.2506
 3829TIP3    H111493   6.371   4.749   2.698 -0.4406 -0.1159 -0.4827
 3829TIP3    H211494   6.222   4.727   2.685 -0.4995 -1.0120  1.4287
 3830TIP3   OH211495   5.260   3.720   2.414  0.0513  0.2182  0.0809
 3830TIP3    H111496   5.348   3.709   2.377  0.6099 -1.3393  1.7385
 3830TIP3    H211497   5.241   3.636   2.456 -2.7790  0.0485 -1.3047
 3831TIP3   OH211498   4.688   1.836   5.162 -0.1087 -0.0702  0.3836
 3831TIP3    H111499   4.715   1.912   5.110 -0.5816 -0.8086 -1.0018
 3831TIP3    H211500   4.767   1.781   5.167 -0.0174  0.0813  0.5739
 3832TIP3   OH211501   1.442   3.938   3.034  0.3762 -0.2298 -0.0282
 3832TIP3    H111502   1.404   4.015   2.992  1.0224  0.7911  1.1785
 3832TIP3    H211503   1.403   3.936   3.121  2.0809  0.1264  0.7975
 3833TIP3   OH211504   3.716   1.585   4.749  0.1360 -0.1959  0.1388
 3833TIP3    H111505   3.657   1.510   4.742  0.8692 -0.7941  0.3035
 3833TIP3    H211506   3.661   1.660   4.724 -1.6536 -0.2260  3.3881
 3834TIP3   OH211507   1.900   5.953   4.183 -0.0971 -0.0141  0.6359
 3834TIP3    H111508   1.813   5.994   4.188 -0.9119 -1.7357  1.4617
 3834TIP3    H211509   1.933   5.978   4.097 -1.4717  0.5926  0.2467
 3835TIP3   OH211510   5.587   2.726   3.030  0.1266  0.4462  0.3174
 3835TIP3    H111511   5.575   2.636   3.061  1.4235  0.6001  1.3150
 3835TIP3    H211512   5.503   2.769   3.049 -1.4436 -1.0936 -2.3551
 3836TIP3   OH211513   1.227   5.561   3.966 -0.3039 -0.1579 -0.7261
 3836TIP3    H111514   1.253   5.516   3.886  0.0274 -0.0164 -0.6985
 3836TIP3    H211515   1.146   5.517   3.993  0.1097 -0.8679 -0.5997
 3837TIP3   OH211516   2.485   3.744   0.156 -0.5163 -0.0156 -0.1458
 3837TIP3    H111517   2.523   3.664   0.122 -0.1546  0.4031 -0.7465
 3837TIP3    H211518   2.532   3.761   0.238  0.4636  0.3799 -0.7680
 3838TIP3   OH211519   2.022   0.321   1.645  0.1258  0.2618  0.1186
 3838TIP3    H111520   1.941   0.372   1.642  0.3227  0.6039  0.5367
 3838TIP3    H211521   1.994   0.231   1.633 -0.4108  0.2865  1.0782
 3839TIP3   OH211522   1.945   0.359   4.104  0.3100  0.2031  0.1273
 3839TIP3    H111523   1.941   0.271   4.068 -1.1700  1.1959 -2.4016
 3839TIP3    H211524   1.975   0.413   4.031 -2.4742  2.3194  0.4014
 3840TIP3   OH211525   0.335   5.448   3.167 -0.5037 -0.1007  0.0341
 3840TIP3    H111526   0.290   5.369   3.195  1.3312 -0.9525  0.7931
 3840TIP3    H211527   0.266   5.507   3.138 -2.0975 -1.1333  1.5645
 3841TIP3   OH211528   5.503   0.809   4.297  0.3706  0.1651  0.4215
 3841TIP3    H111529   5.591   0.800   4.333  0.4119  1.1229  0.5818
 3841TIP3    H211530   5.445   0.781   4.368  0.5677 -3.1808 -0.5688
 3842TIP3   OH211531   1.297   1.502   0.280 -0.4480  0.1154  0.6053
 3842TIP3    H111532   1.259   1.467   0.200 -1.2933  1.4624  0.3769
 3842TIP3    H211533   1.223   1.542   0.326 -0.0413 -0.9449  2.2481
 3843TIP3   OH211534   6.265   2.121   2.618 -0.6261 -0.3735  0.1604
 3843TIP3    H111535   6.324   2.087   2.551  0.5167  0.6045  0.6433
 3843TIP3    H211536   6.252   2.047   2.678  0.3426 -0.5288  0.1955
 3844TIP3   OH211537   0.955   4.727   3.292 -0.3286  0.3800 -0.3713
 3844TIP3    H111538   1.013   4.684   3.356  0.5022 -0.0819 -1.4142
 3844TIP3    H211539   0.882   4.760   3.345 -0.8396 -1.9985  0.5158
 3845TIP3   OH211540   3.613   2.285   2.777  0.1463  0.7306  0.3575
 3845TIP3    H111541   3.541   2.221   2.775 -0.5740  1.5288  0.0951
 3845TIP3    H211542   3.610   2.327   2.691  1.2558  0.4339  0.1616
 3846TIP3   OH211543   0.317   4.812   2.291 -0.7209  0.2059 -0.1070
 3846TIP3    H111544   0.385   4.749   2.267 -0.3539  0.3844  0.4266
 3846TIP3    H211545   0.247   4.759   2.329 -0.2092  0.1403  0.7974
 3847TIP3   OH211546   5.024   3.743   2.237 -0.9114 -0.1548 -0.2565
 3847TIP3    H111547   4.953   3.736   2.300  1.2305 -1.7688  2.1504
 3847TIP3    H211548   5.102   3.761   2.290  0.5340  1.8153 -2.7934
 3848TIP3   OH211549   4.665   3.553   2.408  0.6280 -0.2746 -0.4981
 3848TIP3    H111550   4.734   3.587   2.465  0.8820 -0.9055 -0.4182
 3848TIP3    H211551   4.629   3.630   2.365  1.7745  0.0084 -0.9838
 3849TIP3   OH211552   5.246   1.614   0.129  0.0127  0.2108  0.4776
 3849TIP3    H111553   5.277   1.666   0.055  1.6165 -0.4200  0.6632
 3849TIP3    H211554   5.324   1.602   0.184 -1.1868  0.8786  2.4217
 3850TIP3   OH211555   4.356   4.586   1.637 -0.4386 -0.1718 -0.0944
 3850TIP3    H111556   4.355   4.666   1.584 -0.0409 -0.4198 -0.4800
 3850TIP3    H211557   4.378   4.617   1.725 -1.1301  0.2445 -0.0607
 3851TIP3   OH211558   1.914   2.577   4.443  0.3412 -0.1541  0.2565
 3851TIP3    H111559   1.997   2.625   4.444  0.6602 -0.6895 -0.2982
 3851TIP3    H211560   1.868   2.609   4.520 -0.4628  2.8302 -1.2910
 3852TIP3   OH211561   4.361   4.946   2.604 -0.4410 -0.3942  0.0694
 3852TIP3    H111562   4.322   4.912   2.685 -0.2856 -1.3844 -0.2546
 3852TIP3    H211563   4.344   5.040   2.607  1.3201 -0.0516  2.2480
 3853TIP3   OH211564   4.971   1.360   1.347 -0.1873  0.6101 -0.0548
 3853TIP3    H111565   4.927   1.290   1.297  2.1326 -0.3546 -0.8831
 3853TIP3    H211566   4.966   1.331   1.438 -0.4113  0.0297 -0.2438
 3854TIP3   OH211567   6.252   3.094   5.020  0.2733 -0.0688 -0.1780
 3854TIP3    H111568   6.203   3.170   4.989 -0.9632 -0.5959  0.4129
 3854TIP3    H211569   6.237   3.027   4.953 -0.1576 -0.3629  0.2132
 3855TIP3   OH211570   2.040   1.891   1.090 -0.4611  0.0409  0.3238
 3855TIP3    H111571   2.113   1.861   1.035 -0.2541  0.6970  0.2248
 3855TIP3    H211572   2.073   1.885   1.179 -0.4776 -0.1834  0.3137
 3856TIP3   OH211573   0.191   2.156   2.468  0.2933  0.0876  0.0108
 3856TIP3    H111574   0.250   2.123   2.537  1.4537  1.8817 -0.0457
 3856TIP3    H211575   0.249   2.204   2.409 -1.0356  0.6089 -0.9055
 3857TIP3   OH211576   6.036   1.850   1.230  0.1359  0.7168 -0.7160
 3857TIP3    H111577   5.970   1.788   1.199  1.1314 -0.6280 -0.2468
 3857TIP3    H211578   6.115   1.829   1.179  1.3933 -0.5974  1.6057
 3858TIP3   OH211579   0.479   3.977   2.282 -0.5260 -0.3922 -0.0370
 3858TIP3    H111580   0.442   4.013   2.362  0.6414  0.9780 -0.0761
 3858TIP3    H211581   0.554   3.924   2.312 -0.6368 -0.6221 -0.1621
 3859TIP3   OH211582   2.156   1.064   4.640 -0.3539 -0.6092  0.1459
 3859TIP3    H111583   2.114   0.981   4.666  0.7132 -1.3829 -0.5355
 3859TIP3    H211584   2.102   1.096   4.567 -0.3879 -1.0497 -0.0260
 3860TIP3   OH211585   2.758   2.123   4.157  0.5669 -0.2097  0.3390
 3860TIP3    H111586   2.820   2.056   4.129  0.2213 -1.0120  1.4217
 3860TIP3    H211587   2.810   2.203   4.162  1.1454 -0.5342 -0.2976
 3861TIP3   OH211588   4.579   5.687   1.219 -0.2931  0.0884 -0.4951
 3861TIP3    H111589   4.631   5.659   1.143  0.2513 -0.4133  0.0530
 3861TIP3    H211590   4.639   5.682   1.293 -1.3790 -1.5292  0.3428
 3862TIP3   OH211591   6.370   1.321   5.062 -0.1781  0.5693  0.6200
 3862TIP3    H111592   6.279   1.332   5.091 -0.1670 -0.1814  0.9674
 3862TIP3    H211593   6.397   1.409   5.035 -1.5248  0.5181 -1.0634
 3863TIP3   OH211594   3.529   1.785   1.119 -0.4973 -0.0033  0.0329
 3863TIP3    H111595   3.618   1.815   1.102 -0.2651 -0.5556  0.2954
 3863TIP3    H211596   3.480   1.866   1.138  0.1200  0.2183  0.7022
 3864TIP3   OH211597   0.522   3.779   0.108  0.4239  0.4818 -0.4336
 3864TIP3    H111598   0.529   3.722   0.031  0.3564  0.8515 -0.7198
 3864TIP3    H211599   0.535   3.721   0.183  0.2044  0.0662 -0.7150
 3865TIP3   OH211600   2.710   1.787   2.905  0.4530 -0.0028  0.3620
 3865TIP3    H111601   2.676   1.701   2.928  1.4665 -0.4211  0.3291
 3865TIP3    H211602   2.804   1.781   2.920  0.7671  0.5906 -1.1901
 3866TIP3   OH211603   5.483   5.054   3.166 -0.1686 -0.4887 -0.4149
 3866TIP3    H111604   5.411   4.994   3.183 -0.3311  0.0124  0.7473
 3866TIP3    H211605   5.441   5.141   3.164  0.4713 -0.1191  0.9753
 3867TIP3   OH211606   4.067   5.292   4.980 -0.3717  0.4214 -0.5288
 3867TIP3    H111607   4.034   5.381   4.991  0.3073  0.6891 -0.5869
 3867TIP3    H211608   4.047   5.248   5.063 -0.7794  0.6035 -0.5298
 3868TIP3   OH211609   1.353   4.389   1.230  0.2531 -0.4617 -0.3156
 3868TIP3    H111610   1.341   4.436   1.313  0.9634 -1.6894  0.5213
 3868TIP3    H211611   1.419   4.441   1.183  0.8340 -0.4508  0.4778
 3869TIP3   OH211612   4.700   3.520   1.827  0.0560  0.2911 -0.5814
 3869TIP3    H111613   4.723   3.587   1.763  2.9224  0.2144  0.2278
 3869TIP3    H211614   4.717   3.562   1.912 -1.3340 -0.4082  0.0694
 3870TIP3   OH211615   3.722   4.054   2.227  0.2091 -0.1435  0.3002
 3870TIP3    H111616   3.780   4.008   2.166 -0.8008 -0.0930 -0.7302
 3870TIP3    H211617   3.780   4.085   2.296  1.2099 -1.2337 -0.0163
 3871TIP3   OH211618   1.952   4.673   3.460  0.7779  0.0761  0.4224
 3871TIP3    H111619   2.025   4.617   3.434  0.7304 -0.2855  1.0456
 3871TIP3    H211620   1.952   4.744   3.396  1.1425 -0.3767 -0.0831
 3872TIP3   OH211621   2.774   1.781   4.337 -0.2400  0.0779 -0.0807
 3872TIP3    H111622   2.848   1.752   4.390  0.1251  0.6331 -0.2805
 3872TIP3    H211623   2.811   1.799   4.251 -0.7521 -0.3860 -0.4096
 3873TIP3   OH211624   1.986   3.594   3.618 -0.0460  0.3665  0.1673
 3873TIP3    H111625   1.968   3.510   3.660 -0.9472 -0.1661 -1.2251
 3873TIP3    H211626   2.056   3.575   3.556 -1.5728  0.1425 -1.5660
 3874TIP3   OH211627   0.232   0.917   2.119  0.0009 -0.2987 -0.1886
 3874TIP3    H111628   0.271   0.838   2.156  0.1444  0.3772  1.1803
 3874TIP3    H211629   0.274   0.927   2.034  1.0989 -0.8815  0.2562
 3875TIP3   OH211630   0.438   4.172   0.003  0.5923  0.4421 -0.5386
 3875TIP3    H111631   0.494   4.163  -0.074  0.0947 -1.4732 -0.7250
 3875TIP3    H211632   0.491   4.139   0.075  0.4512  0.6047 -0.3612
 3876TIP3   OH211633   2.527   0.344   2.990 -0.0482 -0.2464  0.6441
 3876TIP3    H111634   2.447   0.396   2.992 -1.1693 -1.7436 -1.2244
 3876TIP3    H211635   2.498   0.254   3.001  1.6158 -0.6948  1.7976
 3877TIP3   OH211636   1.725   1.122   2.206  0.1395 -0.1230  0.4391
 3877TIP3    H111637   1.748   1.032   2.183 -2.0492 -1.1411  1.8421
 3877TIP3    H211638   1.702   1.118   2.299 -1.7458  1.4713  0.1202
 3878TIP3   OH211639   5.236   1.061   0.737 -0.1006  0.2304 -0.1731
 3878TIP3    H111640   5.245   1.123   0.665  0.0399 -0.5870 -0.8726
 3878TIP3    H211641   5.326   1.047   0.767  0.5275 -3.1543 -3.0772
 3879TIP3   OH211642   5.875   0.216   1.057  0.2118 -0.5295  0.2232
 3879TIP3    H111643   5.922   0.254   1.131  0.3140 -0.8276  0.3109
 3879TIP3    H211644   5.896   0.273   0.983 -1.0250  0.6094  0.7074
 3880TIP3   OH211645   4.968   1.104   3.723 -0.2136  0.1528  0.2604
 3880TIP3    H111646   4.977   1.016   3.686 -1.8236  0.3649 -0.7256
 3880TIP3    H211647   5.028   1.158   3.671 -0.4645 -0.0630 -0.2605
 3881TIP3   OH211648   4.344   3.894   3.476 -0.3968  0.1530 -0.0319
 3881TIP3    H111649   4.345   3.984   3.511 -0.3066  1.3169 -2.7417
 3881TIP3    H211650   4.427   3.856   3.504 -0.4756  0.8634  1.2382
 3882TIP3   OH211651   5.094   3.873   0.503 -0.4603  0.2757  1.0170
 3882TIP3    H111652   5.166   3.863   0.440 -0.2645 -0.8970  1.4078
 3882TIP3    H211653   5.029   3.925   0.457  0.9199  2.0051  0.8960
 3883TIP3   OH211654   4.346   3.280   0.950  0.4832  0.1035  0.6542
 3883TIP3    H111655   4.378   3.350   1.007  0.0035  2.3505 -1.6541
 3883TIP3    H211656   4.385   3.299   0.865  0.1194 -2.3545 -0.1435
 3884TIP3   OH211657   1.592   0.178   0.751  0.4831  0.2721 -0.6979
 3884TIP3    H111658   1.541   0.116   0.803  0.5822  2.1535  1.8009
 3884TIP3    H211659   1.670   0.129   0.725  0.0509 -0.9729  0.2476
 3885TIP3   OH211660   5.939   2.218   1.561 -0.4420  0.2636  0.6457
 3885TIP3    H111661   5.982   2.165   1.494 -0.3014 -1.8047  2.2614
 3885TIP3    H211662   5.964   2.308   1.541  1.4589 -0.5089 -0.7047
 3886TIP3   OH211663   5.586   3.345   3.452  0.4690 -0.7643 -1.0458
 3886TIP3    H111664   5.643   3.378   3.522  0.6646 -0.9190 -1.1296
 3886TIP3    H211665   5.541   3.422   3.418 -1.8212 -0.9944  1.1589
 3887TIP3   OH211666   2.873   6.004   1.196 -0.8737  0.2252 -0.1570
 3887TIP3    H111667   2.946   5.957   1.236 -1.0373  1.2097  1.3935
 3887TIP3    H211668   2.883   5.990   1.102  0.2439 -1.1642  0.1490
 3888TIP3   OH211669   4.397   5.232   0.805 -0.1152 -0.3294 -0.2488
 3888TIP3    H111670   4.490   5.212   0.797  0.3399  1.8595 -1.0251
 3888TIP3    H211671   4.385   5.254   0.897  0.0912 -0.7433 -0.1186
 3889TIP3   OH211672   0.126   3.985   4.408 -0.4629  0.3678 -0.0898
 3889TIP3    H111673   0.201   4.045   4.403 -0.5915  0.4499 -1.4197
 3889TIP3    H211674   0.162   3.903   4.442 -0.2210  1.0601  1.4291
 3890TIP3   OH211675   4.669   0.559   4.150  0.5460  0.5507 -0.1586
 3890TIP3    H111676   4.754   0.532   4.114  0.3438  1.0576 -1.0506
 3890TIP3    H211677   4.625   0.602   4.077 -0.0315  1.2975  0.6158
 3891TIP3   OH211678   4.980   1.073   0.289 -0.2178  0.0929  0.1034
 3891TIP3    H111679   5.070   1.105   0.290 -0.5549  1.0925 -0.4837
 3891TIP3    H211680   4.978   1.005   0.357  2.1156 -3.1209 -2.7134
 3892TIP3   OH211681   0.192   3.683   2.548  0.2916 -0.0121  0.2788
 3892TIP3    H111682   0.203   3.622   2.621 -0.4899 -1.4364 -0.7360
 3892TIP3    H211683   0.144   3.757   2.585  1.0544 -0.0898  1.4867
 3893TIP3   OH211684   3.562   1.114   1.679 -0.2863 -0.5564 -0.0839
 3893TIP3    H111685   3.560   1.046   1.746 -1.1675 -0.5199 -0.0623
 3893TIP3    H211686   3.517   1.188   1.719 -0.2209 -0.3051 -0.4719
 3894TIP3   OH211687   0.305   5.778   0.796 -0.1370  0.2409 -0.0644
 3894TIP3    H111688   0.392   5.784   0.756 -0.1053 -0.3404 -0.1024
 3894TIP3    H211689   0.271   5.694   0.765 -0.2416 -0.0749  0.8662
 3895TIP3   OH211690   3.953   0.982   3.119  0.2678  0.5590 -0.2918
 3895TIP3    H111691   3.865   0.955   3.147  0.5042  0.6748  0.5892
 3895TIP3    H211692   3.938   1.036   3.041 -0.2273 -2.1219 -2.1925
 3896TIP3   OH211693   0.781   4.810   0.809 -0.0978 -0.4610  0.6691
 3896TIP3    H111694   0.845   4.739   0.814  0.1330 -0.2053  1.5529
 3896TIP3    H211695   0.696   4.766   0.802  0.0683 -0.8154  0.8978
 3897TIP3   OH211696   1.640   2.066   2.716  0.0307 -0.0768  0.1707
 3897TIP3    H111697   1.720   2.119   2.721 -0.5563  0.9643 -0.9149
 3897TIP3    H211698   1.650   2.001   2.785  0.6523  1.6204  1.7550
 3898TIP3   OH211699   2.388   4.554   0.058  0.1160 -0.0195  0.2639
 3898TIP3    H111700   2.395   4.585   0.148  0.9438  0.2963  0.1046
 3898TIP3    H211701   2.462   4.494   0.047 -1.6212 -2.3248  0.6447
 3899TIP3   OH211702   5.453   2.644   3.640  0.5293  0.1285 -0.4819
 3899TIP3    H111703   5.432   2.657   3.547  0.3591  0.0716 -0.4531
 3899TIP3    H211704   5.541   2.607   3.640  0.0994 -0.9296 -0.6820
 3900TIP3   OH211705   3.447   2.194   1.454  0.0730  0.1379  0.1649
 3900TIP3    H111706   3.510   2.208   1.524 -1.0737  0.2586  1.1952
 3900TIP3    H211707   3.410   2.281   1.437 -1.3652 -0.2685  1.0833
 3901TIP3   OH211708   2.495   3.715   0.438  0.4526 -0.1731 -0.2343
 3901TIP3    H111709   2.584   3.681   0.452  0.8362  1.3814  1.3827
 3901TIP3    H211710   2.442   3.672   0.505  0.5968  1.0838  0.7028
 3902TIP3   OH211711   3.861   2.721   4.583  0.4959 -0.4695  0.3777
 3902TIP3    H111712   3.810   2.740   4.505 -1.4846 -2.3031  1.1333
 3902TIP3    H211713   3.797   2.721   4.654  1.9792 -0.4093  1.7682
 3903TIP3   OH211714   1.627   4.780   3.254 -0.1454  0.0934  0.4020
 3903TIP3    H111715   1.598   4.752   3.342 -1.9621  0.2487 -0.0966
 3903TIP3    H211716   1.585   4.865   3.241  0.4309  0.2552 -0.4637
 3904TIP3   OH211717   1.329   0.132   1.755 -0.3993 -0.3272 -0.1839
 3904TIP3    H111718   1.364   0.124   1.666  0.2508 -0.9828  0.1168
 3904TIP3    H211719   1.406   0.126   1.811 -0.6244  1.5883  0.3876
 3905TIP3   OH211720   2.719   4.234   2.311 -0.1898 -0.6255 -0.2356
 3905TIP3    H111721   2.680   4.321   2.312  0.8492 -0.1343 -0.7551
 3905TIP3    H211722   2.738   4.215   2.403  1.0484  0.4140 -0.2382
 3906TIP3   OH211723   0.920   1.924   1.270 -0.0883 -0.0338  0.1510
 3906TIP3    H111724   1.009   1.913   1.237  0.2207  2.2055  0.0659
 3906TIP3    H211725   0.932   1.949   1.362 -0.4656  2.0600 -0.3144
 3907TIP3   OH211726   4.279   4.417   2.186 -0.1483 -0.3383  0.1468
 3907TIP3    H111727   4.231   4.335   2.197 -2.2792  0.7173 -0.7936
 3907TIP3    H211728   4.322   4.431   2.271  0.4672 -2.4808  0.2743
 3908TIP3   OH211729   4.329   0.440   2.981 -0.3891  0.2696 -0.2371
 3908TIP3    H111730   4.336   0.353   3.021 -0.3833  0.5570  0.3915
 3908TIP3    H211731   4.235   0.455   2.974 -0.4189 -0.4722 -1.8703
 3909TIP3   OH211732   6.155   5.559   0.609 -0.0160  0.4013 -0.0206
 3909TIP3    H111733   6.134   5.542   0.517  0.4396  0.2201 -0.0925
 3909TIP3    H211734   6.072   5.586   0.647  0.0456  1.7483 -0.7678
 3910TIP3   OH211735   2.248   0.409   2.976 -0.0861 -0.3074  0.5492
 3910TIP3    H111736   2.170   0.463   2.963 -0.7950 -1.0135  1.6630
 3910TIP3    H211737   2.284   0.438   3.060  1.7460  1.0273 -0.6111
 3911TIP3   OH211738   1.730   1.824   4.925  0.7137  0.1129 -0.2163
 3911TIP3    H111739   1.720   1.915   4.955  0.8443  0.3071 -0.7360
 3911TIP3    H211740   1.640   1.795   4.910  0.6977  1.4709 -3.7569
 3912TIP3   OH211741   1.814   1.568   0.769 -0.0404 -0.1793  0.3794
 3912TIP3    H111742   1.841   1.572   0.861  1.1613  0.2940  0.0217
 3912TIP3    H211743   1.764   1.648   0.755 -0.8102 -0.5721  0.7771
 3913TIP3   OH211744   5.674   5.236   4.485 -0.2620 -0.2047  0.5575
 3913TIP3    H111745   5.623   5.170   4.533 -0.8720  0.0498  0.2786
 3913TIP3    H211746   5.757   5.241   4.531  0.5306 -2.5255 -0.5193
 3914TIP3   OH211747   3.603   3.105   4.146  0.1959  0.6756  0.5363
 3914TIP3    H111748   3.636   3.162   4.215  0.4972  1.0190  0.1179
 3914TIP3    H211749   3.582   3.023   4.190  0.9652  0.6812  0.9296
 3915TIP3   OH211750   0.020   1.416   0.382 -0.6140  0.3908  0.0209
 3915TIP3    H111751   0.008   1.328   0.418 -1.1338  1.2625  2.1505
 3915TIP3    H211752   0.036   1.402   0.289  0.9900 -2.0654  0.5573
 3916TIP3   OH211753   3.947   4.410   4.548  0.1634  0.2872 -0.4584
 3916TIP3    H111754   3.959   4.447   4.636 -2.3795  0.0139  0.0686
 3916TIP3    H211755   3.981   4.321   4.555 -0.4055  0.1244  0.3904
 3917TIP3   OH211756   1.652   3.705   4.999 -0.4574 -0.3915 -0.0422
 3917TIP3    H111757   1.588   3.734   5.064  1.6352  2.0001  1.1439
 3917TIP3    H211758   1.730   3.684   5.050  0.4240 -1.0839 -1.5956
 3918TIP3   OH211759   5.257   3.726   2.840  0.5348  0.2716 -0.2503
 3918TIP3    H111760   5.182   3.725   2.899  1.0232 -2.9029  0.4930
 3918TIP3    H211761   5.219   3.737   2.753 -0.5660  0.8895  0.2954
 3919TIP3   OH211762   0.212   2.499   2.300  0.4700 -0.0934 -0.6864
 3919TIP3    H111763   0.271   2.559   2.255  2.7218 -2.2672 -0.8509
 3919TIP3    H211764   0.214   2.419   2.247 -0.7515 -1.0401  0.6141
 3920TIP3   OH211765   4.515   4.132   0.153  0.1146  0.1660  0.0124
 3920TIP3    H111766   4.472   4.098   0.231  0.0574  1.1037  0.3941
 3920TIP3    H211767   4.481   4.221   0.143 -0.5370 -0.2233 -1.5781
 3921TIP3   OH211768   5.424   3.970   2.233 -0.2608  0.3806  0.0088
 3921TIP3    H111769   5.341   3.999   2.271 -0.7591 -1.1066  0.1301
 3921TIP3    H211770   5.398   3.921   2.155  0.5781  0.7131 -0.4863
 3922TIP3   OH211771   4.295   3.043   2.005 -0.1239 -0.1896  0.5828
 3922TIP3    H111772   4.257   2.957   1.989  2.8994 -1.8235  1.4647
 3922TIP3    H211773   4.339   3.065   1.922 -0.1414  0.1006  0.6500
 3923TIP3   OH211774   3.734   1.766   4.360  0.1339  0.0803  0.1049
 3923TIP3    H111775   3.701   1.855   4.345 -0.7677 -0.0643  1.1669
 3923TIP3    H211776   3.675   1.710   4.310  0.0891 -0.0060  0.2554
 3924TIP3   OH211777   2.607   2.900   4.024  0.1527 -0.2480  0.3118
 3924TIP3    H111778   2.701   2.882   4.017  0.0850 -0.9277  1.0748
 3924TIP3    H211779   2.566   2.820   3.991 -0.1527 -0.6400  1.6114
 3925TIP3   OH211780   2.672   4.809   2.198  0.1906  0.2770  0.3314
 3925TIP3    H111781   2.675   4.714   2.187 -0.4235  0.5010 -2.5542
 3925TIP3    H211782   2.749   4.841   2.150 -0.5354  1.3059 -0.1887
 3926TIP3   OH211783   3.527   3.279   4.617 -0.4458 -0.4721  0.0476
 3926TIP3    H111784   3.550   3.215   4.684 -3.0958  0.4462  1.9835
 3926TIP3    H211785   3.483   3.227   4.549 -0.2046 -1.0219  0.3026
 3927TIP3   OH211786   0.549   3.074   3.803  0.3004  0.0501  0.0497
 3927TIP3    H111787   0.505   3.143   3.755  1.6749  0.2756 -0.9277
 3927TIP3    H211788   0.484   3.004   3.810 -0.3408  0.5249 -0.9971
 3928TIP3   OH211789   0.002   4.388   0.496  0.4084 -0.1817 -0.5283
 3928TIP3    H111790  -0.025   4.307   0.539 -0.2694  0.5061  0.4076
 3928TIP3    H211791   0.031   4.362   0.409 -0.7117 -1.3028 -0.5848
 3929TIP3   OH211792   4.553   3.278   2.033 -0.0113 -0.2961 -0.3252
 3929TIP3    H111793   4.633   3.330   2.033  0.4927 -1.0123 -2.0022
 3929TIP3    H211794   4.500   3.315   1.963 -1.0121 -0.0756  0.5159
 3930TIP3   OH211795   1.948   4.870   2.608  0.4996  0.4077 -0.0469
 3930TIP3    H111796   1.997   4.843   2.686  0.3060 -1.1287 -0.4114
 3930TIP3    H211797   1.946   4.791   2.553 -1.0283  0.8829 -0.7415
 3931TIP3   OH211798   3.580   4.593   4.661  0.8874 -0.3739  0.4705
 3931TIP3    H111799   3.544   4.504   4.668  2.2565 -1.0649 -0.6634
 3931TIP3    H211800   3.644   4.598   4.732  1.3245 -0.5755  0.0993
 3932TIP3   OH211801   5.341   0.730   4.482  0.5857  0.2139  0.7599
 3932TIP3    H111802   5.321   0.637   4.479  1.7096 -0.1835  3.2539
 3932TIP3    H211803   5.256   0.773   4.490 -0.0803 -0.3979 -2.0442
 3933TIP3   OH211804   2.253   3.100   2.070 -0.0245  0.3552  0.0172
 3933TIP3    H111805   2.335   3.109   2.021 -0.1321  1.2057 -0.0243
 3933TIP3    H211806   2.250   3.177   2.126 -0.4444 -0.0480  0.5612
 3934TIP3   OH211807   2.132   1.641   4.212  0.0217  0.1805 -0.3757
 3934TIP3    H111808   2.194   1.657   4.282  0.2218 -1.2716 -0.1927
 3934TIP3    H211809   2.120   1.726   4.170  0.0012  1.0497  1.3197
 3935TIP3   OH211810   5.796   3.131   3.996  0.1455 -0.6421  0.5853
 3935TIP3    H111811   5.715   3.102   4.038 -1.3479 -0.2762 -1.8356
 3935TIP3    H211812   5.777   3.128   3.903  1.8765  2.4233 -0.0156
 3936TIP3   OH211813   3.320   2.965   3.278 -0.7155 -0.2878  0.0132
 3936TIP3    H111814   3.294   3.050   3.243 -2.8428 -0.4404  1.0811
 3936TIP3    H211815   3.267   2.901   3.231 -0.8652 -0.8155  0.8687
 3937TIP3   OH211816   1.843   1.946   4.215  0.2013 -0.5274  0.2241
 3937TIP3    H111817   1.908   1.974   4.278 -1.0940 -0.0450  1.3930
 3937TIP3    H211818   1.884   1.960   4.130  2.1516 -1.6167  0.9310
 3938TIP3   OH211819   0.884   1.730   4.354 -0.0332  0.3065 -0.0842
 3938TIP3    H111820   0.856   1.821   4.354  1.9795  0.9853  0.9250
 3938TIP3    H211821   0.945   1.724   4.428  0.0452 -1.8097 -0.2598
 3939TIP3   OH211822   5.060   3.682   3.021 -0.0889 -0.3458  0.4101
 3939TIP3    H111823   5.043   3.712   3.110 -0.6940 -1.3408  0.6439
 3939TIP3    H211824   5.084   3.590   3.030  1.5646 -0.0282 -0.3026
 3940TIP3   OH211825   1.873   3.206   4.517 -0.8094  0.2227 -0.0873
 3940TIP3    H111826   1.784   3.211   4.483 -0.8365  0.5664  0.0347
 3940TIP3    H211827   1.924   3.167   4.446 -1.4365 -1.9490  0.5664
 3941TIP3   OH211828   5.759   1.520   0.265 -0.1096 -0.2224 -0.6491
 3941TIP3    H111829   5.772   1.434   0.224  0.7164  0.4513 -1.8750
 3941TIP3    H211830   5.846   1.560   0.262 -0.5569  0.7813 -0.3957
 3942TIP3   OH211831   2.471   1.059   3.399 -0.3508  0.0987 -0.0835
 3942TIP3    H111832   2.434   1.055   3.311  0.0108  0.4475 -0.2533
 3942TIP3    H211833   2.542   0.995   3.398 -0.9013 -0.5230  0.2219
 3943TIP3   OH211834   6.289   4.879   4.462 -0.2332 -0.5084  0.4214
 3943TIP3    H111835   6.254   4.908   4.378 -0.1178 -2.2075 -0.2400
 3943TIP3    H211836   6.212   4.854   4.513 -0.2727  0.1282  0.6879
 3944TIP3   OH211837   3.796   3.530   2.532 -0.2634  0.3821  0.5021
 3944TIP3    H111838   3.788   3.442   2.570 -0.9459  0.4721  0.5820
 3944TIP3    H211839   3.825   3.514   2.442 -1.0490  0.0255  0.2995
 3945TIP3   OH211840   5.025   0.474   2.386 -0.1715 -0.1581 -0.1989
 3945TIP3    H111841   4.996   0.561   2.414  0.4847 -0.5962  2.0759
 3945TIP3    H211842   5.111   0.488   2.347  1.0761  0.0367  2.3904
 3946TIP3   OH211843   1.183   1.179   0.549  0.1069  0.0256  0.1007
 3946TIP3    H111844   1.272   1.170   0.517  0.7193 -0.7882  1.9310
 3946TIP3    H211845   1.161   1.093   0.585 -1.4510  0.1928 -0.3708
 3947TIP3   OH211846   0.493   3.936   1.530 -0.0601 -0.4606  0.0019
 3947TIP3    H111847   0.418   3.885   1.498 -0.2397 -0.6024  0.6378
 3947TIP3    H211848   0.454   4.001   1.589  0.3752 -0.9777  0.8877
 3948TIP3   OH211849   4.947   2.942   1.487  0.1581  0.1154 -0.0714
 3948TIP3    H111850   4.906   3.010   1.541  1.9925  0.4067  1.0535
 3948TIP3    H211851   4.965   2.985   1.403 -1.9457 -0.0885 -0.6700
 3949TIP3   OH211852   2.752   4.121   4.255  0.0664  0.8553  0.0914
 3949TIP3    H111853   2.813   4.079   4.316 -0.6228  2.0098  1.6433
 3949TIP3    H211854   2.669   4.124   4.303 -0.4821  1.8787 -0.8772
 3950TIP3   OH211855   0.782   2.450   4.918 -0.0449  0.0860 -0.5489
 3950TIP3    H111856   0.841   2.524   4.903  0.3586 -0.2635 -0.7364
 3950TIP3    H211857   0.778   2.406   4.833 -1.8550  0.9985 -0.9735
 3951TIP3   OH211858   0.723   2.946   1.825  0.2047  0.0550  0.0023
 3951TIP3    H111859   0.640   2.920   1.785 -1.2518  1.0046  2.2065
 3951TIP3    H211860   0.762   3.006   1.762  0.0330 -1.5722 -1.7712
 3952TIP3   OH211861   5.207   1.519   1.964  0.4678  0.0961  0.0769
 3952TIP3    H111862   5.167   1.583   2.023  1.2126 -0.6673  1.4882
 3952TIP3    H211863   5.278   1.480   2.016  1.3673 -0.4066 -1.4495
 3953TIP3   OH211864   0.098   5.144   3.410 -0.6645 -0.5032  0.6474
 3953TIP3    H111865   0.018   5.136   3.460  0.7485 -0.4351  3.0761
 3953TIP3    H211866   0.143   5.060   3.422  0.1505 -0.1335  0.2861
 3954TIP3   OH211867   5.517   1.764   3.585 -0.4593  0.2917  0.3206
 3954TIP3    H111868   5.602   1.739   3.622 -0.5226  2.3816  2.0712
 3954TIP3    H211869   5.514   1.719   3.501  1.1670 -2.0686  1.4076
 3955TIP3   OH211870   4.390   1.416   0.547 -0.5570  0.1315  0.2929
 3955TIP3    H111871   4.485   1.419   0.537 -0.6948  0.4701 -1.0810
 3955TIP3    H211872   4.372   1.326   0.574  0.1246 -0.0161  0.2811
 3956TIP3   OH211873   3.749   2.907   0.643  0.0434 -0.2474 -0.3391
 3956TIP3    H111874   3.721   2.930   0.555  0.4503 -0.9567 -0.6621
 3956TIP3    H211875   3.817   2.972   0.664  1.1430 -1.0713 -1.2174
 3957TIP3   OH211876   5.571   5.820   3.656  0.3810 -0.2497 -0.0854
 3957TIP3    H111877   5.596   5.863   3.574 -1.2033 -0.3592 -0.6682
 3957TIP3    H211878   5.501   5.760   3.631 -1.1239  0.7355  1.5751
 3958TIP3   OH211879   2.521   0.126   2.339 -0.1125  0.4546  0.8675
 3958TIP3    H111880   2.610   0.093   2.328 -0.5658 -1.0074  1.3417
 3958TIP3    H211881   2.525   0.182   2.417  0.4778  0.7850  0.6066
 3959TIP3   OH211882   2.998   2.780   2.502 -0.0057  0.1393  0.0640
 3959TIP3    H111883   2.994   2.862   2.551 -0.4701 -0.5699  1.2573
 3959TIP3    H211884   2.913   2.739   2.517  0.1159 -0.4273 -0.7537
 3960TIP3   OH211885   6.307   5.421   0.806 -0.7966  0.1973  0.1289
 3960TIP3    H111886   6.243   5.362   0.846  0.4173 -2.2889 -1.3545
 3960TIP3    H211887   6.268   5.444   0.721  1.0950 -3.2860 -1.8818
 3961TIP3   OH211888   0.647   4.211   2.264 -1.0617 -0.0221  0.1649
 3961TIP3    H111889   0.575   4.259   2.223  0.0660  0.2739 -1.5709
 3961TIP3    H211890   0.614   4.121   2.270 -0.8421 -0.4290 -2.8044
 3962TIP3   OH211891   1.680   5.752   4.345  0.2626 -0.5932 -0.2851
 3962TIP3    H111892   1.766   5.745   4.304 -0.0036  0.0861 -0.9729
 3962TIP3    H211893   1.623   5.694   4.294  0.0024  0.0154 -0.6964
 3963TIP3   OH211894   1.061   5.740   3.646  0.0573 -0.1288 -0.3120
 3963TIP3    H111895   1.035   5.744   3.738  0.3302  1.7815 -0.2852
 3963TIP3    H211896   1.024   5.657   3.615  0.8942 -1.3723  1.7743
 3964TIP3   OH211897   1.760   3.309   4.178 -0.0727 -0.4693  0.0377
 3964TIP3    H111898   1.687   3.371   4.184 -1.4812 -2.2197  3.2306
 3964TIP3    H211899   1.829   3.348   4.230 -0.2121 -0.6435  0.3541
 3965TIP3   OH211900   2.766   5.259   0.801  0.4103  0.9619  0.0998
 3965TIP3    H111901   2.776   5.333   0.741  1.6038 -0.1655 -1.1780
 3965TIP3    H211902   2.746   5.185   0.744 -1.1899  0.3443  1.3831
 3966TIP3   OH211903   1.830   2.498   3.513  0.6572  0.8126  0.4559
 3966TIP3    H111904   1.810   2.539   3.597  0.0251  1.3606  0.0491
 3966TIP3    H211905   1.818   2.405   3.528  0.2784  0.9318  0.9062
 3967TIP3   OH211906   5.991   0.288   1.287  0.1032 -0.3040  0.5335
 3967TIP3    H111907   5.994   0.383   1.301 -0.2589 -0.2300  0.1280
 3967TIP3    H211908   6.082   0.260   1.293  0.3371  0.2233 -0.3502
 3968TIP3   OH211909   5.136   1.270   3.906  0.5829  0.1478  0.4741
 3968TIP3    H111910   5.052   1.225   3.903 -0.0892  1.2367  1.6741
 3968TIP3    H211911   5.199   1.202   3.927  0.0815 -0.7683 -0.8745
 3969TIP3   OH211912   0.772   3.945   1.696 -0.1841 -0.3668 -0.2707
 3969TIP3    H111913   0.732   3.866   1.659 -0.4943 -0.6367  0.6080
 3969TIP3    H211914   0.807   3.917   1.781 -1.7046  0.7659  0.7908
 3970TIP3   OH211915   5.551   4.146   2.406 -0.4751 -0.0970  0.5040
 3970TIP3    H111916   5.477   4.096   2.370 -1.4391 -0.0796  2.3661
 3970TIP3    H211917   5.619   4.081   2.420 -0.9303 -0.5102  0.8348
 3971TIP3   OH211918   2.913   1.243   2.084 -0.4452  0.2435 -0.1089
 3971TIP3    H111919   2.818   1.239   2.087 -0.5618  1.9258 -0.5476
 3971TIP3    H211920   2.936   1.322   2.133  0.6816  0.1583 -0.4615
 3972TIP3   OH211921   0.620   5.313   3.515  0.6376 -0.2246  0.3018
 3972TIP3    H111922   0.657   5.227   3.495 -1.1234 -1.4136  1.8113
 3972TIP3    H211923   0.598   5.350   3.430  3.1377 -0.4059 -0.4993
 3973TIP3   OH211924   0.851   2.344   2.349 -0.1747  0.3139  0.3884
 3973TIP3    H111925   0.762   2.378   2.335 -0.1023  0.2462 -0.2552
 3973TIP3    H211926   0.837   2.259   2.391 -0.5324 -0.7984 -1.8217
 3974TIP3   OH211927   5.901   0.084   2.373 -0.1982 -0.3835 -0.3135
 3974TIP3    H111928   5.852   0.125   2.301  0.8868  0.8001 -0.4290
 3974TIP3    H211929   5.932   0.001   2.337  0.0042  0.0189 -1.0942
 3975TIP3   OH211930   0.599   4.653   2.912  0.2233 -0.9722  0.1357
 3975TIP3    H111931   0.585   4.642   3.006 -3.1745  0.0365 -0.0971
 3975TIP3    H211932   0.520   4.616   2.872 -0.2125  1.9000 -2.0092
 3976TIP3   OH211933   0.478   0.172   0.263  0.1607  0.0037  0.0959
 3976TIP3    H111934   0.433   0.185   0.179 -0.1885  1.3918  0.4636
 3976TIP3    H211935   0.410   0.185   0.329  0.7405  0.4292  0.6218
 3977TIP3   OH211936   5.073   5.144   3.859 -0.2340  0.0695 -0.5325
 3977TIP3    H111937   5.125   5.199   3.918  0.4311  1.6355 -2.4555
 3977TIP3    H211938   4.982   5.158   3.887  0.0454  1.0488 -0.0792
 3978TIP3   OH211939   5.812   0.313   4.388  0.9453  0.2821 -0.8675
 3978TIP3    H111940   5.752   0.384   4.365  0.0590 -0.6089 -1.3370
 3978TIP3    H211941   5.799   0.247   4.320  0.4607 -1.1141  0.5339
 3979TIP3   OH211942   3.682   5.215   3.864  0.0816  0.1474 -0.4908
 3979TIP3    H111943   3.770   5.230   3.898  0.0536 -1.5267  0.4016
 3979TIP3    H211944   3.679   5.264   3.782  1.6566  0.6553 -0.2747
 3980TIP3   OH211945   5.217   2.889   0.199  0.5165  0.3398 -0.2749
 3980TIP3    H111946   5.178   2.802   0.195  1.0078  0.0730  0.6286
 3980TIP3    H211947   5.160   2.939   0.257  0.0207  0.7539 -1.0848
 3981TIP3   OH211948   2.825   2.309   3.023 -0.2209  0.7347 -0.0760
 3981TIP3    H111949   2.763   2.276   3.088  0.2424  0.1962  0.1050
 3981TIP3    H211950   2.897   2.246   3.025 -1.2126 -0.5891 -2.7462
 3982TIP3   OH211951   2.300   1.606   2.450 -0.0573  0.2332 -0.3458
 3982TIP3    H111952   2.263   1.625   2.536 -1.5380 -0.3665 -0.8113
 3982TIP3    H211953   2.354   1.528   2.464  0.1969  0.5020  0.1615
 3983TIP3   OH211954   3.767   0.778   3.767 -0.1727  0.2973  0.3957
 3983TIP3    H111955   3.684   0.784   3.720  0.5221 -0.4069 -0.9864
 3983TIP3    H211956   3.768   0.688   3.801 -1.7470  1.4626  3.9634
 3984TIP3   OH211957   0.837   5.580   4.918 -0.3284  0.0390 -0.3342
 3984TIP3    H111958   0.780   5.636   4.864  0.7799  2.3472  0.7567
 3984TIP3    H211959   0.926   5.599   4.887  0.1111 -0.8857  0.3066
 3985TIP3   OH211960   6.035   5.687   3.159  0.2202 -0.1135 -0.2534
 3985TIP3    H111961   6.034   5.774   3.119  0.4393 -0.5257 -1.1822
 3985TIP3    H211962   6.125   5.674   3.188  0.7107 -0.8395 -1.9859
 3986TIP3   OH211963   4.725   3.340   2.928 -0.2688  0.3119  0.5962
 3986TIP3    H111964   4.649   3.398   2.928 -0.1271  0.6233 -2.1602
 3986TIP3    H211965   4.688   3.252   2.941 -1.2340  0.3773 -1.4137
 3987TIP3   OH211966   3.971   2.331   0.964 -0.5205  0.0786  0.0720
 3987TIP3    H111967   3.954   2.237   0.951  1.7983 -0.3946 -0.0371
 3987TIP3    H211968   4.065   2.335   0.984 -0.3054  2.5093 -1.1388
 3988TIP3   OH211969   1.035   1.294   1.163  0.0872 -0.0177 -0.5247
 3988TIP3    H111970   1.062   1.289   1.071 -1.6937  2.3014 -1.2687
 3988TIP3    H211971   1.077   1.374   1.196 -1.3105  0.5703 -0.1057
 3989TIP3   OH211972   1.337   0.613   0.299 -0.1727  0.4487  0.3256
 3989TIP3    H111973   1.291   0.549   0.244 -0.4751  1.2470 -0.3770
 3989TIP3    H211974   1.423   0.573   0.314 -0.2392  0.0149 -0.3705
 3990TIP3   OH211975   2.859   1.233   1.309 -0.8661 -0.4207  0.2240
 3990TIP3    H111976   2.873   1.305   1.370 -1.3225 -0.5986  0.5365
 3990TIP3    H211977   2.889   1.268   1.224  0.7754 -0.5323  0.7151
 3991TIP3   OH211978   1.607   1.313   4.270 -0.1829  0.6292 -0.1769
 3991TIP3    H111979   1.665   1.388   4.283 -0.0524  0.3434  1.0323
 3991TIP3    H211980   1.576   1.292   4.358 -1.9680  0.6410 -0.7679
 3992TIP3   OH211981   1.231   3.881   0.674  0.0588  0.2808 -0.3195
 3992TIP3    H111982   1.276   3.797   0.686 -0.2325 -0.2966 -2.8256
 3992TIP3    H211983   1.268   3.938   0.742  0.9986 -1.5582  0.7872
 3993TIP3   OH211984   6.002   2.479   1.519  0.0412  0.3049  0.2203
 3993TIP3    H111985   5.928   2.525   1.478  0.4247  0.3337 -0.4667
 3993TIP3    H211986   6.039   2.543   1.579  0.3276  0.7749 -0.4359
 3994TIP3   OH211987   4.449   1.199   3.750  0.7813 -0.1929 -0.6466
 3994TIP3    H111988   4.468   1.241   3.667  0.5916  0.3129 -0.4358
 3994TIP3    H211989   4.371   1.243   3.783  0.0495 -1.3033 -0.8354
 3995TIP3   OH211990   3.430   4.732   4.112  0.3951 -0.0822  0.0092
 3995TIP3    H111991   3.490   4.658   4.113 -0.1298 -0.5228 -0.6458
 3995TIP3    H211992   3.481   4.804   4.074 -0.4145 -1.3069 -3.8856
 3996TIP3   OH211993   4.536   4.046   2.855 -0.1504 -0.6119 -0.0128
 3996TIP3    H111994   4.611   4.040   2.796  0.1595 -2.2537  0.4971
 3996TIP3    H211995   4.533   4.138   2.881 -0.1909  0.1133 -2.4256
 3997TIP3   OH211996   5.694   2.296   0.093 -0.0548  0.3004 -0.2882
 3997TIP3    H111997   5.632   2.342   0.150  0.7851  1.1470 -0.0454
 3997TIP3    H211998   5.675   2.329   0.005 -2.1842 -1.8972 -0.7702
 3998TIP3   OH211999   4.779   0.170   5.033 -0.1159 -0.1734 -0.0329
 3998TIP3    H112000   4.856   0.133   5.077 -0.8486  0.5693  1.9829
 3998TIP3    H212001   4.814   0.245   4.984  0.3618  0.8019  1.6988
 3999TIP3   OH212002   4.477   2.455   3.714 -0.2379  0.3776  0.0834
 3999TIP3    H112003   4.572   2.450   3.700  0.4489 -1.0006  3.9650
 3999TIP3    H212004   4.445   2.367   3.694 -0.7118  0.7564 -0.9166
 4000TIP3   OH212005   4.547   1.220   2.130 -0.3316  0.1640  0.8370
 4000TIP3    H112006   4.586   1.260   2.207  0.6152  0.8237  0.0403
 4000TIP3    H212007   4.577   1.273   2.057  1.0980 -2.0197 -0.2966
 4001TIP3   OH212008   0.765   2.127   0.369 -0.2668 -0.2833  0.8649
 4001TIP3    H112009   0.818   2.136   0.290 -0.9937  0.0029  0.3968
 4001TIP3    H212010   0.799   2.048   0.411 -1.5069 -1.9370 -1.0605
 4002TIP3   OH212011   1.341   1.865   4.207 -0.0677  0.0902 -0.2897
 4002TIP3    H112012   1.272   1.893   4.146  0.8743 -0.7190 -1.7993
 4002TIP3    H212013   1.420   1.907   4.173  1.0737 -2.8085 -1.5919
 4003TIP3   OH212014   2.045   4.142   4.578  0.0138 -0.2508  0.3881
 4003TIP3    H112015   2.069   4.228   4.612 -1.3326  0.8587 -1.3150
 4003TIP3    H212016   2.039   4.153   4.483  2.2875 -2.8956 -0.1921
 4004TIP3   OH212017   3.377   2.208   3.058  0.1955 -0.0751 -0.5252
 4004TIP3    H112018   3.316   2.135   3.070 -1.2696  1.1624 -0.0558
 4004TIP3    H212019   3.330   2.268   3.000  0.6227  1.2707  0.4740
 4005TIP3   OH212020   0.965   2.632   4.877 -0.1887  0.1839  0.1180
 4005TIP3    H112021   1.036   2.677   4.922 -1.5675  2.6928 -0.0113
 4005TIP3    H212022   0.971   2.661   4.787  0.6451 -2.3356 -0.7277
 4006TIP3   OH212023   0.162   2.722   3.773 -0.0274  0.2105  0.3547
 4006TIP3    H112024   0.134   2.637   3.808 -2.2232  0.7714  0.1110
 4006TIP3    H212025   0.176   2.705   3.679  1.6676 -0.3283  0.6749
 4007TIP3   OH212026   3.445   4.327   4.964 -0.6737 -0.8186 -0.0949
 4007TIP3    H112027   3.511   4.394   4.982 -1.8913  0.2095  0.7919
 4007TIP3    H212028   3.494   4.254   4.927  0.4773  1.2860 -3.1230
 4008TIP3   OH212029   3.859   4.047   1.692 -0.1304 -0.0475 -0.6312
 4008TIP3    H112030   3.864   3.955   1.665  0.6103  0.2903 -1.7071
 4008TIP3    H212031   3.929   4.090   1.643 -0.6601  1.1456 -0.3678
 4009TIP3   OH212032   1.935   1.122   0.589 -0.2215  0.1320  0.7211
 4009TIP3    H112033   1.913   1.087   0.675 -1.2585  1.1734  0.9089
 4009TIP3    H212034   1.898   1.059   0.528  1.0646 -0.9375  1.0159
 4010TIP3   OH212035   1.445   5.873   0.836  0.5674 -0.3785  0.3002
 4010TIP3    H112036   1.380   5.932   0.797  1.2683  0.6387  0.6315
 4010TIP3    H212037   1.395   5.821   0.898  0.3942  2.0482  2.3568
 4011TIP3   OH212038   1.058   0.734   3.115 -0.6062 -0.2483  0.1030
 4011TIP3    H112039   1.061   0.756   3.022 -1.3096  0.5817  0.2667
 4011TIP3    H212040   1.111   0.800   3.158  1.1799 -1.6390  0.1456
 4012TIP3   OH212041   1.539   2.760   3.799  0.6889 -0.1461 -0.7595
 4012TIP3    H112042   1.581   2.728   3.719 -0.0113 -0.6155 -0.9580
 4012TIP3    H212043   1.484   2.833   3.770  0.9696  0.1328 -0.5898
 4013TIP3   OH212044   1.609   4.895   1.548 -0.5512  0.3675  0.1148
 4013TIP3    H112045   1.598   4.983   1.513 -0.5494  0.4957  0.4335
 4013TIP3    H212046   1.583   4.902   1.640  2.4936  0.7994  1.0626
 4014TIP3   OH212047   2.618   4.848   1.463  0.1991 -0.5311  0.2730
 4014TIP3    H112048   2.556   4.907   1.506  0.5540 -1.3211  1.9338
 4014TIP3    H212049   2.650   4.898   1.388 -1.5536  0.3339  0.0428
 4015TIP3   OH212050   1.139   4.867   4.532  0.0938  0.5095  0.2455
 4015TIP3    H112051   1.060   4.916   4.553  0.2857  0.4614  1.0910
 4015TIP3    H212052   1.175   4.911   4.455 -1.3705 -0.1681 -0.9029
 4016TIP3   OH212053   0.999   5.951   4.876  0.4064  0.1426 -0.0918
 4016TIP3    H112054   1.015   5.996   4.959 -0.1895  2.2296 -1.0475
 4016TIP3    H212055   0.937   5.881   4.899  1.8228 -0.6536  1.5475
 4017TIP3   OH212056   1.992   0.175   0.137  0.0375 -0.1574  0.0848
 4017TIP3    H112057   2.022   0.119   0.066 -1.3726 -1.6236  0.5747
 4017TIP3    H212058   1.973   0.115   0.209  0.3419  1.1658  1.3335
 4018TIP3   OH212059   4.045   2.607   2.730  0.2025  0.5511 -0.6473
 4018TIP3    H112060   3.951   2.609   2.708 -0.3567  0.3128  1.5164
 4018TIP3    H212061   4.049   2.557   2.811  2.4761 -1.1957 -1.7544
 4019TIP3   OH212062   5.977   1.957   0.361  0.3434 -0.2104 -0.0920
 4019TIP3    H112063   6.066   1.990   0.369  1.0334 -1.8124 -0.6909
 4019TIP3    H212064   5.926   2.032   0.333  1.4349  0.8124  0.5698
 4020TIP3   OH212065   5.113   4.694   4.023 -0.1772  0.2373  0.2296
 4020TIP3    H112066   5.084   4.776   3.982 -1.1451 -0.6511 -0.9138
 4020TIP3    H212067   5.131   4.718   4.114 -0.7705  1.6484 -0.0012
 4021TIP3   OH212068   6.038   1.426   0.738  0.0606  0.6364 -0.5927
 4021TIP3    H112069   6.064   1.479   0.662 -1.3118  1.8599 -0.2401
 4021TIP3    H212070   6.029   1.489   0.809 -2.0910  0.0456 -0.2739
 4022TIP3   OH212071   5.987   1.370   1.580  0.1084  0.7742 -0.2170
 4022TIP3    H112072   6.056   1.431   1.605  0.6288 -0.0317  0.3471
 4022TIP3    H212073   5.983   1.306   1.652  0.8009 -0.8872 -1.5717
 4023TIP3   OH212074   1.814   1.841   0.426  0.4187 -0.3202 -0.4996
 4023TIP3    H112075   1.803   1.844   0.521  2.2503 -1.5792 -0.1933
 4023TIP3    H212076   1.770   1.760   0.399  0.9816 -0.6092 -0.5511
 4024TIP3   OH212077   6.270   1.078   4.920 -0.1902  0.2330  0.3369
 4024TIP3    H112078   6.351   1.114   4.955 -1.1286  1.8481  0.9242
 4024TIP3    H212079   6.212   1.153   4.912 -0.8572 -0.4798 -2.3833
 4025TIP3   OH212080   1.845   2.314   2.029  0.3753  0.7584 -0.1139
 4025TIP3    H112081   1.865   2.384   2.091 -0.8191  2.2665 -1.3450
 4025TIP3    H212082   1.801   2.359   1.956 -1.9120 -1.5021 -0.2269
 4026TIP3   OH212083   3.708   4.782   0.744  0.3440 -0.4190 -0.0894
 4026TIP3    H112084   3.667   4.837   0.677 -0.9649 -0.6373  0.5194
 4026TIP3    H212085   3.704   4.833   0.824 -1.2345 -1.5121  0.5731
 4027TIP3   OH212086   4.794   4.149   0.130 -0.1291  0.3787  0.3036
 4027TIP3    H112087   4.793   4.244   0.141  0.7925  0.4901 -0.4874
 4027TIP3    H212088   4.703   4.123   0.137 -0.4296  1.3667  0.1735
 4028TIP3   OH212089   6.036   5.447   4.380 -0.5168  0.5310 -0.0998
 4028TIP3    H112090   6.089   5.472   4.305 -0.1940  1.0776  0.2984
 4028TIP3    H212091   6.099   5.419   4.446 -0.6584  1.7152  0.5732
 4029TIP3   OH212092   1.751   0.815   4.274 -0.2051 -0.3779  0.3060
 4029TIP3    H112093   1.695   0.863   4.213  0.2736  1.2350  1.0593
 4029TIP3    H212094   1.757   0.727   4.237  0.2183  0.5643 -2.0994
 4030TIP3   OH212095   1.452   3.007   3.712 -0.0878  0.0100  0.1043
 4030TIP3    H112096   1.507   3.068   3.663  1.6043 -1.5736 -0.0463
 4030TIP3    H212097   1.370   3.055   3.726  0.7834  1.9001 -0.9282
 4031TIP3   OH212098   1.021   3.108   2.600  0.2748 -0.1630  0.1740
 4031TIP3    H112099   1.081   3.038   2.626  0.4681 -0.3108 -0.6414
 4031TIP3    H212100   0.958   3.066   2.541 -0.8273 -0.0767  1.2428
 4032TIP3   OH212101   0.083   1.135   0.400  0.3315  0.4565 -0.0308
 4032TIP3    H112102   0.105   1.056   0.450  0.8510  0.7294  0.1742
 4032TIP3    H212103  -0.002   1.115   0.361 -0.0770  0.2412  0.9467
 4033TIP3   OH212104   6.304   4.229   2.068 -0.1530  0.7677  0.1756
 4033TIP3    H112105   6.231   4.188   2.021  0.6435 -0.6156  0.1152
 4033TIP3    H212106   6.275   4.233   2.159  0.7784 -2.5352  0.7298
 4034TIP3   OH212107   0.789   3.005   1.518 -0.0432  0.0441  0.2283
 4034TIP3    H112108   0.869   3.015   1.570 -0.1454  0.4309  0.3203
 4034TIP3    H212109   0.735   3.080   1.543 -0.5034 -0.2997  0.2857
 4035TIP3   OH212110   1.064   0.540   2.201  0.1038  0.0497 -0.2071
 4035TIP3    H112111   0.993   0.495   2.154 -0.3150 -0.6567  1.0585
 4035TIP3    H212112   1.045   0.633   2.188 -2.0447 -0.0754  1.4488
 4036TIP3   OH212113   1.904   2.742   0.915 -0.2321  0.1530 -0.2030
 4036TIP3    H112114   1.822   2.712   0.876 -0.5806  1.3974 -0.4918
 4036TIP3    H212115   1.973   2.706   0.860 -0.5693 -0.9331  0.0613
 4037TIP3   OH212116   5.853   4.446   1.362 -0.1848 -0.2633 -0.4683
 4037TIP3    H112117   5.817   4.515   1.417  0.3122 -1.3896  1.3718
 4037TIP3    H212118   5.820   4.365   1.402 -0.3965 -1.1264 -2.2952
 4038TIP3   OH212119   2.167   3.161   3.899  0.1293  0.3385  0.4964
 4038TIP3    H112120   2.132   3.129   3.816  0.9035 -1.4268  0.8095
 4038TIP3    H212121   2.208   3.085   3.939  1.2901  1.5490  1.7296
 4039TIP3   OH212122   5.104   2.847   3.519  0.7393  0.0267 -0.4165
 4039TIP3    H112123   5.025   2.823   3.471 -0.5539  1.5470  0.8858
 4039TIP3    H212124   5.174   2.797   3.475 -1.0273 -2.0888 -1.0055
 4040TIP3   OH212125   2.533   2.930   3.085  0.2753 -0.2352 -0.4624
 4040TIP3    H112126   2.511   3.019   3.057 -0.4593 -0.2838 -0.0470
 4040TIP3    H212127   2.535   2.880   3.004 -0.4662 -0.0813 -0.5833
 4041TIP3   OH212128   0.983   3.327   1.871  0.7981  0.2192  0.1188
 4041TIP3    H112129   1.038   3.396   1.908 -0.5294  0.8519  0.9589
 4041TIP3    H212130   1.034   3.247   1.884  1.3587  0.7352  1.2601
 4042TIP3   OH212131   1.248   2.878   1.142 -0.8135 -0.3155  0.4824
 4042TIP3    H112132   1.326   2.933   1.138 -0.4534 -0.7493  1.3040
 4042TIP3    H212133   1.275   2.800   1.190 -1.3138 -1.2390 -0.6998
 4043TIP3   OH212134   5.472   3.614   1.073 -0.0258 -0.2729  0.0611
 4043TIP3    H112135   5.537   3.606   1.003 -0.5010 -1.1511 -0.2878
 4043TIP3    H212136   5.389   3.590   1.032 -1.0408  3.0014 -0.1270
 4044TIP3   OH212137   2.088   0.364   3.529  0.4325 -0.4507  0.5430
 4044TIP3    H112138   2.036   0.420   3.586  1.2400 -0.1643  1.0194
 4044TIP3    H212139   2.146   0.317   3.588  0.4077 -1.0951  0.0616
 4045TIP3   OH212140   0.506   4.805   4.481  0.2533  0.0608  0.6036
 4045TIP3    H112141   0.575   4.804   4.548 -0.0414 -2.3864  0.9736
 4045TIP3    H212142   0.429   4.840   4.526  0.9255  1.7657  0.4995
 4046TIP3   OH212143   2.175   4.521   2.544  0.7150  0.2182 -0.4123
 4046TIP3    H112144   2.224   4.481   2.615 -0.2316  1.4788  1.0110
 4046TIP3    H212145   2.241   4.559   2.487  1.4771 -0.2579  0.1427
 4047TIP3   OH212146   3.193   1.957   1.215 -0.3876  0.1275 -0.0269
 4047TIP3    H112147   3.113   1.936   1.165 -1.3357  0.9376  1.0959
 4047TIP3    H212148   3.230   2.033   1.170  0.1924 -0.6807 -0.9839
 4048TIP3   OH212149   0.290   3.068   3.088 -0.3229  0.0514 -0.1048
 4048TIP3    H112150   0.258   3.001   3.148 -0.3202 -1.3559 -1.5999
 4048TIP3    H212151   0.252   3.045   3.003  1.2223  0.8246 -1.0565
 4049TIP3   OH212152   3.219   1.677   0.860 -0.1481 -0.4628 -0.1338
 4049TIP3    H112153   3.225   1.747   0.794 -1.5938 -0.0367  0.1532
 4049TIP3    H212154   3.126   1.655   0.863  0.4163 -3.5078 -1.3354
 4050TIP3   OH212155   1.844   4.964   1.859  0.1312 -0.0919  0.1636
 4050TIP3    H112156   1.932   5.002   1.867  0.4125 -0.3860 -1.2959
 4050TIP3    H212157   1.787   5.039   1.841  0.1003  0.0728  0.9076
 4051TIP3   OH212158   3.693   4.907   1.370 -0.2724 -0.0258  0.0209
 4051TIP3    H112159   3.770   4.863   1.406 -1.3195 -0.5215  1.7559
 4051TIP3    H212160   3.661   4.846   1.303  1.5496  0.7920 -1.6913
 4052TIP3   OH212161   4.428   3.446   3.500  0.3467  0.2211  0.2968
 4052TIP3    H112162   4.449   3.433   3.593 -1.9099 -0.9382  0.7261
 4052TIP3    H212163   4.511   3.430   3.454  1.7398  1.7190  2.1146
 4053TIP3   OH212164   6.301   2.502   2.041 -0.1161 -0.3973 -0.1662
 4053TIP3    H112165   6.381   2.450   2.034  0.0354 -0.1568 -0.2366
 4053TIP3    H212166   6.330   2.592   2.028 -0.6282 -0.4430 -1.8701
 4054TIP3   OH212167   1.493   5.886   4.685 -0.3869  0.1903  0.3693
 4054TIP3    H112168   1.511   5.959   4.625  0.3588 -0.2523  0.0419
 4054TIP3    H212169   1.453   5.927   4.761 -2.1137  0.6756 -0.7505
 4055TIP3   OH212170   1.902   1.397   1.368  0.5629  0.4116 -0.2497
 4055TIP3    H112171   1.830   1.460   1.362  0.4586  0.4091  0.7445
 4055TIP3    H212172   1.981   1.451   1.367  0.4890  0.5341  0.1170
 4056TIP3   OH212173   5.796   0.040   3.976 -0.3062 -0.1962 -0.2415
 4056TIP3    H112174   5.804  -0.044   3.931  0.1650 -1.3805  1.9413
 4056TIP3    H212175   5.876   0.048   4.027 -0.4836  1.4510 -0.1527
 4057TIP3   OH212176   5.623   3.999   2.887 -0.2314 -0.1976 -0.3477
 4057TIP3    H112177   5.565   3.984   2.813 -1.3811 -1.6672  0.7776
 4057TIP3    H212178   5.661   4.085   2.871 -0.1731 -0.6161 -2.7866
 4058TIP3   OH212179   5.658   3.519   1.706 -0.3037 -0.1558 -0.6764
 4058TIP3    H112180   5.685   3.428   1.691  0.6293 -0.1201  0.5328
 4058TIP3    H212181   5.684   3.566   1.626 -1.8608 -1.1335 -1.7997
 4059TIP3   OH212182   0.070   1.009   4.704 -0.2158 -0.0413 -0.0761
 4059TIP3    H112183   0.150   0.983   4.748  0.7834  1.2421 -1.0437
 4059TIP3    H212184   0.022   1.060   4.769  1.5709  2.4528 -0.5474
 4060TIP3   OH212185   3.888   0.325   4.183 -0.3810 -0.1652 -0.2379
 4060TIP3    H112186   3.920   0.383   4.114 -1.3761 -0.4207 -0.9337
 4060TIP3    H212187   3.836   0.259   4.137  1.2622 -2.0331  0.4474
 4061TIP3   OH212188   3.506   1.625   5.080 -0.2109 -0.4098  0.0735
 4061TIP3    H112189   3.582   1.639   5.136  0.6361 -0.4535 -1.0287
 4061TIP3    H212190   3.444   1.577   5.135 -0.0142  0.8088  1.4211
 4062TIP3   OH212191   6.340   1.601   4.924  0.9404  0.4013 -0.2267
 4062TIP3    H112192   6.347   1.610   5.019  1.6179 -0.0199 -0.2273
 4062TIP3    H212193   6.260   1.647   4.901  2.8425  4.2276  0.0182
 4063TIP3   OH212194   5.164   0.511   1.666  0.0215  0.1062 -0.2503
 4063TIP3    H112195   5.132   0.425   1.637 -1.1035  0.4757 -0.1566
 4063TIP3    H212196   5.098   0.541   1.729  1.7039 -0.0708  1.6998
 4064TIP3   OH212197   1.330   2.566   2.857 -0.4761  0.0161 -0.2413
 4064TIP3    H112198   1.313   2.473   2.845  0.3226 -0.0797 -0.7586
 4064TIP3    H212199   1.416   2.569   2.899  1.7518  0.5045 -4.2593
 4065TIP3   OH212200   0.534   2.517   4.490 -0.5553 -0.2150  0.6371
 4065TIP3    H112201   0.444   2.509   4.521 -1.5961  1.7085 -1.6103
 4065TIP3    H212202   0.548   2.612   4.480  0.4706 -0.5631 -2.2759
 4066TIP3   OH212203   4.098   1.728   3.701  0.2242 -0.1225  0.4163
 4066TIP3    H112204   4.075   1.743   3.793 -0.3509 -0.5750  0.3485
 4066TIP3    H212205   4.150   1.648   3.701  0.2999 -0.0735  0.3590
 4067TIP3   OH212206   1.645   0.793   1.422 -0.2480  0.1891  0.9205
 4067TIP3    H112207   1.680   0.843   1.496  0.2859  0.6220  0.3815
 4067TIP3    H212208   1.571   0.846   1.391  1.0237  1.2812 -0.3825
 4068TIP3   OH212209   5.758   0.818   5.059  0.1134 -0.5544  0.3753
 4068TIP3    H112210   5.679   0.868   5.080 -0.4792 -1.5027  0.4777
 4068TIP3    H212211   5.755   0.808   4.964  0.0722 -0.6318  0.3839
 4069TIP3   OH212212   1.942   1.664   2.504 -0.1325  0.2111  0.0174
 4069TIP3    H112213   2.020   1.702   2.545  0.9623 -2.2422  0.4117
 4069TIP3    H212214   1.901   1.612   2.574 -1.8542  1.0307 -0.3331
 4070TIP3   OH212215   5.084   2.300   1.220  0.0099  0.6316 -0.3460
 4070TIP3    H112216   5.157   2.359   1.232 -2.0083  3.0589  0.8204
 4070TIP3    H212217   5.020   2.327   1.285 -2.0123 -1.2631 -1.4103
 4071TIP3   OH212218   2.780   3.706   0.969  0.2767  0.6336 -0.3597
 4071TIP3    H112219   2.718   3.773   0.997 -0.8868 -0.6194  0.1505
 4071TIP3    H212220   2.818   3.673   1.051  0.3752  0.2282 -0.5645
 4072TIP3   OH212221   5.750   1.053   4.721 -0.2227  0.2514 -0.2537
 4072TIP3    H112222   5.838   1.047   4.684 -0.6991  1.0782 -1.6069
 4072TIP3    H212223   5.742   1.144   4.750 -0.9086  0.4222 -0.9268
 4073TIP3   OH212224   1.676   1.783   2.225 -0.0168  0.5384 -0.1727
 4073TIP3    H112225   1.684   1.708   2.283  1.1087 -1.1181 -2.3256
 4073TIP3    H212226   1.583   1.785   2.200 -0.0187 -0.2618 -0.2344
 4074TIP3   OH212227   2.351   5.819   0.800 -0.1062 -0.2104  0.0560
 4074TIP3    H112228   2.319   5.844   0.714  1.9097  1.0069 -0.4171
 4074TIP3    H212229   2.385   5.730   0.789  0.8323  0.2205 -0.6298
 4075TIP3   OH212230   5.185   2.891   4.679  0.0963  0.0048  0.8811
 4075TIP3    H112231   5.137   2.809   4.692 -0.2373  0.2220  1.0603
 4075TIP3    H212232   5.129   2.941   4.620 -0.0567  0.3911  1.3464
 4076TIP3   OH212233   1.872   1.655   4.242  0.0411 -0.1856  0.1280
 4076TIP3    H112234   1.951   1.602   4.251  0.5448  0.3122 -1.1354
 4076TIP3    H212235   1.903   1.741   4.215 -0.9140  0.0194 -0.3931
 4077TIP3   OH212236   1.374   2.054   5.130 -0.3914 -0.3187 -0.2805
 4077TIP3    H112237   1.440   2.095   5.074 -0.9654  0.2770 -0.5352
 4077TIP3    H212238   1.409   1.967   5.149  1.1321  0.4898  0.7648
 4078TIP3   OH212239   1.704   4.536   3.722  0.0555 -0.3309 -0.3777
 4078TIP3    H112240   1.676   4.527   3.813 -0.0981 -0.0797 -0.3995
 4078TIP3    H212241   1.782   4.591   3.726  0.1492 -0.4618 -0.3828
 4079TIP3   OH212242   4.973   1.358   1.927  0.5942  0.1092 -0.0188
 4079TIP3    H112243   5.048   1.418   1.925  0.2104  0.6094  0.4184
 4079TIP3    H212244   4.948   1.347   1.836 -0.4552  2.0488  0.0020
 4080TIP3   OH212245   5.583   3.653   4.096 -0.0711 -0.0969 -0.5022
 4080TIP3    H112246   5.527   3.726   4.124  1.2572  0.7650  0.0379
 4080TIP3    H212247   5.593   3.599   4.175 -0.6753 -0.6147 -0.7773
 4081TIP3   OH212248   1.056   1.586   0.396 -0.7676  0.4883  0.3020
 4081TIP3    H112249   1.046   1.662   0.339  0.4603 -0.1494 -0.8034
 4081TIP3    H212250   1.098   1.621   0.475 -1.3450  1.1553  0.3303
 4082TIP3   OH212251   2.294   4.597   2.304 -0.2260 -0.5157  0.8080
 4082TIP3    H112252   2.286   4.595   2.209  0.7453 -0.0625  0.6982
 4082TIP3    H212253   2.360   4.664   2.321 -0.7449 -0.2502  1.8303
 4083TIP3   OH212254   4.783   0.861   3.944 -0.0624  0.1623  0.2079
 4083TIP3    H112255   4.721   0.892   4.010 -0.0215  2.0163 -0.5340
 4083TIP3    H212256   4.735   0.870   3.861  0.3758 -0.7217 -0.1466
 4084TIP3   OH212257   2.334   5.535   2.016  0.1619  0.1188  0.8244
 4084TIP3    H112258   2.424   5.541   1.982 -0.5784  0.1537 -1.2374
 4084TIP3    H212259   2.293   5.617   1.989 -0.9260 -0.5663  0.3407
 4085TIP3   OH212260   5.830   1.381   3.670  0.1784 -0.0230  0.1731
 4085TIP3    H112261   5.889   1.316   3.633  1.6171 -0.2484  2.6404
 4085TIP3    H212262   5.746   1.364   3.628  1.2814 -1.2809 -1.6622
 4086TIP3   OH212263   2.389   2.834   0.116  0.1052 -0.1707 -0.2382
 4086TIP3    H112264   2.373   2.833   0.021  0.3323  0.3540 -0.2872
 4086TIP3    H212265   2.370   2.745   0.144 -0.5781 -0.1743 -0.6741
 4087TIP3   OH212266   2.928   0.830   4.804 -0.5211 -0.3578  0.9246
 4087TIP3    H112267   2.917   0.831   4.709  0.2150 -0.0909  0.8336
 4087TIP3    H212268   2.847   0.792   4.837 -0.8460 -0.3198  0.1987
 4088TIP3   OH212269   0.915   5.676   4.244  0.1336  0.3819 -0.2586
 4088TIP3    H112270   0.827   5.654   4.213  0.1851 -0.8554  0.3958
 4088TIP3    H212271   0.973   5.645   4.175  0.1084  0.0712 -0.1441
 4089TIP3   OH212272   2.355   5.450   4.889 -0.5507  0.7307  0.0204
 4089TIP3    H112273   2.359   5.456   4.984  0.8820 -0.7192  0.1057
 4089TIP3    H212274   2.419   5.515   4.858  0.7957 -0.4681  0.1811
 4090TIP3   OH212275   2.534   4.161   4.444 -0.0287 -0.1595  0.1025
 4090TIP3    H112276   2.503   4.072   4.458  0.2995 -0.4258 -0.8364
 4090TIP3    H212277   2.458   4.209   4.411 -0.4216  0.1249  1.3401
 4091TIP3   OH212278   6.022   3.242   3.332  0.2027 -0.2649 -0.6322
 4091TIP3    H112279   5.935   3.208   3.314  0.0840  0.0186 -0.6012
 4091TIP3    H212280   6.027   3.245   3.428  0.0924  0.1073 -0.6368
 4092TIP3   OH212281   1.483   1.172   2.071 -0.1160  0.1802  0.3651
 4092TIP3    H112282   1.556   1.162   2.132 -0.5024  2.4250  1.2714
 4092TIP3    H212283   1.443   1.256   2.094 -2.8912 -0.8740 -0.2027
 4093TIP3   OH212284   3.984   5.197   3.384 -0.0911 -0.1380  0.0232
 4093TIP3    H112285   3.893   5.170   3.376 -0.8162  2.0337  0.3510
 4093TIP3    H212286   4.030   5.145   3.318 -1.7200 -0.5749 -0.8225
 4094TIP3   OH212287   5.187   1.225   3.565 -0.4604 -0.1882 -0.7798
 4094TIP3    H112288   5.190   1.317   3.537  0.3306 -0.1518 -0.5889
 4094TIP3    H212289   5.263   1.215   3.622 -2.0377 -0.2279  1.4702
 4095TIP3   OH212290   5.291   1.814   1.310 -0.3256 -0.3227 -0.6061
 4095TIP3    H112291   5.326   1.880   1.250 -0.5131 -0.7052 -1.1463
 4095TIP3    H212292   5.270   1.740   1.253 -0.5245 -0.6820 -0.0639
 4096TIP3   OH212293   1.715   3.958   3.369 -0.9113  0.0358 -0.1257
 4096TIP3    H112294   1.669   4.042   3.363  0.3414  0.7862  0.3731
 4096TIP3    H212295   1.805   3.979   3.344 -0.6643 -1.2463 -0.3486
 4097TIP3   OH212296   0.928   0.949   4.628 -0.1594  0.6131  0.2482
 4097TIP3    H112297   0.867   0.888   4.587 -0.5863  0.7504  0.6679
 4097TIP3    H212298   0.924   1.028   4.573  2.1459 -0.4844 -1.6946
 4098TIP3   OH212299   0.269   2.385   3.516 -0.1537  0.0631 -0.4124
 4098TIP3    H112300   0.363   2.384   3.533 -0.2214 -0.1407 -0.0375
 4098TIP3    H212301   0.241   2.294   3.529 -0.8925  0.6006  2.3483
 4099TIP3   OH212302   1.626   4.618   0.829 -0.2918 -0.0089 -0.1255
 4099TIP3    H112303   1.585   4.612   0.915  0.8542 -2.5505  0.3453
 4099TIP3    H212304   1.710   4.659   0.845  0.4201 -1.5307  0.2352
 4100TIP3   OH212305   1.688   5.000   0.989 -0.4266 -0.0661 -0.0229
 4100TIP3    H112306   1.645   5.001   1.074 -0.1529  0.1403  0.1122
 4100TIP3    H212307   1.712   4.908   0.976  1.0555  0.1629  0.8927
 4101TIP3   OH212308   6.075   4.809   0.182  0.0944 -0.9298  0.4401
 4101TIP3    H112309   6.097   4.781   0.093  0.1559  1.0669 -0.2299
 4101TIP3    H212310   6.002   4.752   0.207 -1.6063  0.0536 -1.8947
 4102TIP3   OH212311   2.649   0.341   0.006  0.3817  0.3311  0.1391
 4102TIP3    H112312   2.701   0.376   0.078 -0.9547  1.2076  0.6960
 4102TIP3    H212313   2.617   0.418  -0.041  0.1107 -0.2097 -0.5908
 4103TIP3   OH212314   5.834   5.022   3.720 -0.0553  0.3263  0.6888
 4103TIP3    H112315   5.868   4.935   3.743  0.1811  0.1980 -0.0904
 4103TIP3    H212316   5.905   5.082   3.743 -0.3319  0.3478  1.4979
 4104TIP3   OH212317   0.230   5.588   4.990  0.3800 -0.7402  0.7936
 4104TIP3    H112318   0.255   5.670   5.033  1.5035 -1.3944  1.4081
 4104TIP3    H212319   0.292   5.580   4.917  2.1013 -2.3789  2.3377
 4105TIP3   OH212320   0.807   5.324   0.060 -0.4144 -0.1437  0.2656
 4105TIP3    H112321   0.721   5.282   0.059 -1.1774  1.3426  0.5176
 4105TIP3    H212322   0.860   5.267   0.116 -1.8283 -0.0170  1.8241
 4106TIP3   OH212323   0.364   3.716   3.826  0.2939 -0.5251  0.0518
 4106TIP3    H112324   0.436   3.678   3.775 -0.3036  0.6881 -1.7696
 4106TIP3    H212325   0.303   3.643   3.840  0.2878 -0.7941 -1.3137
 4107TIP3   OH212326   2.006   3.370   3.950  0.0391  0.3708 -0.2324
 4107TIP3    H112327   2.084   3.424   3.943  1.0229 -1.0381 -0.5894
 4107TIP3    H212328   2.038   3.284   3.979 -1.3034 -0.4029 -0.9100
 4108TIP3   OH212329   5.056   1.687   3.669 -0.3751  0.1970  0.6180
 4108TIP3    H112330   5.073   1.723   3.756  0.0383 -1.2027  1.1514
 4108TIP3    H212331   5.102   1.747   3.609  0.2083  0.6104  1.4521
 4109TIP3   OH212332   4.898   1.182   4.398  0.2277  0.2081 -0.3678
 4109TIP3    H112333   4.833   1.198   4.466 -0.3966  0.9539 -1.1114
 4109TIP3    H212334   4.875   1.096   4.362  0.6061 -0.2208  0.3943
 4110TIP3   OH212335   4.437   3.387   1.807  0.1066 -0.4155  0.5192
 4110TIP3    H112336   4.358   3.435   1.784 -0.6466 -1.5167  0.7475
 4110TIP3    H212337   4.506   3.454   1.810 -1.3632  1.1857  3.4604
 4111TIP3   OH212338   3.461   3.533   5.208 -0.2072 -0.2430 -0.1496
 4111TIP3    H112339   3.396   3.511   5.141 -2.3364  3.2145  0.5067
 4111TIP3    H212340   3.502   3.613   5.176  0.4810  0.1152  1.5534
 4112TIP3   OH212341   3.138   4.203   3.028 -0.3422  0.7001 -0.1937
 4112TIP3    H112342   3.182   4.283   3.000  0.3412  0.6088  0.5768
 4112TIP3    H212343   3.163   4.137   2.964  0.7690  0.6140  0.3188
 4113TIP3   OH212344   1.034   2.791   1.514 -0.0525  0.3083  0.2522
 4113TIP3    H112345   0.942   2.812   1.494 -0.1879 -0.1557  0.3822
 4113TIP3    H212346   1.076   2.877   1.524 -0.5986  0.5174  0.7933
 4114TIP3   OH212347   2.032   5.212   4.376 -0.0986  0.2198  0.2380
 4114TIP3    H112348   2.027   5.117   4.383 -0.6203  0.2898  0.8507
 4114TIP3    H212349   2.028   5.229   4.282 -1.6774 -0.2782  0.1858
 4115TIP3   OH212350   3.261   2.478   1.413  0.0718 -0.1232 -0.4478
 4115TIP3    H112351   3.311   2.487   1.493 -0.4841 -0.9033 -0.0014
 4115TIP3    H212352   3.169   2.485   1.440 -0.1752 -1.5169 -0.8218
 4116TIP3   OH212353   3.967   2.067   0.890 -0.0416  0.3494 -0.1841
 4116TIP3    H112354   3.931   2.022   0.813 -1.0272 -1.4285  1.2417
 4116TIP3    H212355   4.027   2.003   0.929 -1.2009  0.3338  1.6974
 4117TIP3   OH212356   4.688   2.831   5.009 -0.5368 -0.0503 -0.0779
 4117TIP3    H112357   4.701   2.906   5.067  0.8607 -0.2681 -0.0723
 4117TIP3    H212358   4.707   2.754   5.064  1.3153 -0.2371 -0.9172
 4118TIP3   OH212359   0.421   1.446   4.448  0.0954 -0.6717  0.1809
 4118TIP3    H112360   0.453   1.529   4.412  0.7410 -0.9598  0.0789
 4118TIP3    H212361   0.375   1.470   4.528 -0.4321 -0.1288 -0.2773
 4119TIP3   OH212362   3.381   0.057   0.716 -0.2600 -0.2783 -0.1749
 4119TIP3    H112363   3.294   0.049   0.679 -0.4523  2.1203 -0.4285
 4119TIP3    H212364   3.420   0.131   0.669  0.7924  0.5890  1.9297
 4120TIP3   OH212365   5.745   1.133   0.842 -0.1793  0.0929 -0.2386
 4120TIP3    H112366   5.730   1.160   0.933  1.1499 -0.0452  0.0489
 4120TIP3    H212367   5.840   1.136   0.832 -0.1873 -1.5555 -1.1076
 4121TIP3   OH212368   5.201   0.999   2.230  0.2880  0.3318  0.6905
 4121TIP3    H112369   5.261   0.980   2.157 -0.3608  2.3564 -0.4350
 4121TIP3    H212370   5.130   1.048   2.190 -1.5299 -0.9227  2.2271
 4122TIP3   OH212371   5.177   3.268   3.571  0.4172 -0.1576  0.3167
 4122TIP3    H112372   5.119   3.313   3.633  2.3569  0.7819  1.5389
 4122TIP3    H212373   5.149   3.299   3.485 -0.6938  0.4725  0.8849
 4123TIP3   OH212374   3.703   2.679   3.610  0.0970 -0.1108  0.1114
 4123TIP3    H112375   3.774   2.632   3.565  0.3324 -1.2649  1.6010
 4123TIP3    H212376   3.738   2.767   3.625  1.2156 -0.6437  0.7675
 4124TIP3   OH212377   1.786   3.054   0.666  0.1645  0.3859  0.1682
 4124TIP3    H112378   1.720   3.009   0.719 -0.8409  1.1936 -0.3683
 4124TIP3    H212379   1.818   2.987   0.606 -1.7677  0.4620 -1.0476
 4125TIP3   OH212380   0.493   1.230   0.647  0.2769  0.4741  0.0434
 4125TIP3    H112381   0.465   1.236   0.739  0.4787  1.1799  0.0656
 4125TIP3    H212382   0.587   1.215   0.652  0.2453  0.2324 -0.0533
 4126TIP3   OH212383   2.981   5.351   0.518  0.0312  0.1412 -0.0209
 4126TIP3    H112384   2.986   5.259   0.544  0.8147  0.1368 -0.1503
 4126TIP3    H212385   3.071   5.383   0.526 -0.5449  1.4561  2.0268
 4127TIP3   OH212386   5.533   1.180   1.119 -0.1986 -0.2696 -0.4933
 4127TIP3    H112387   5.512   1.096   1.159  0.8075 -0.3878 -0.1879
 4127TIP3    H212388   5.449   1.215   1.092 -0.7954 -0.7328  0.6751
 4128TIP3   OH212389   0.894   0.324   3.722  0.7961 -0.2214 -0.1044
 4128TIP3    H112390   0.932   0.295   3.804  1.5303 -0.7229 -0.6082
 4128TIP3    H212391   0.867   0.415   3.738  0.0196 -0.6268  0.9745
 4129TIP3   OH212392   6.083   2.958   2.991 -0.1879 -0.1774 -0.2561
 4129TIP3    H112393   6.104   2.926   2.903 -1.5947 -1.2880 -0.2234
 4129TIP3    H212394   6.009   2.904   3.019 -0.9113  1.3484  0.9053
 4130TIP3   OH212395   5.131   5.892   4.058  0.0662 -0.1816  0.2980
 4130TIP3    H112396   5.222   5.892   4.089  0.2719 -0.3181 -0.2912
 4130TIP3    H212397   5.120   5.806   4.016  0.7924  1.1106 -2.8214
 4131TIP3   OH212398   4.058   4.500   3.056  0.7286  0.6831 -0.0095
 4131TIP3    H112399   4.004   4.488   2.978  0.3634  1.9924  0.0197
 4131TIP3    H212400   3.998   4.484   3.130  0.0021  3.2660  0.0492
 4132TIP3   OH212401   3.257   0.359   3.605  0.5978  0.2713  0.1736
 4132TIP3    H112402   3.334   0.315   3.641 -0.3639  0.8261  3.1184
 4132TIP3    H212403   3.242   0.315   3.521  1.8799 -2.4778  1.2539
 4133TIP3   OH212404   4.652   2.394   2.494  0.0390 -0.2763  0.3440
 4133TIP3    H112405   4.586   2.391   2.562 -0.7317  1.9265 -0.2506
 4133TIP3    H212406   4.731   2.425   2.538 -0.0523 -0.2768  0.5080
 4134TIP3   OH212407   4.014   4.399   2.396 -0.1703 -0.1019  0.8237
 4134TIP3    H112408   4.048   4.351   2.321  0.2401  1.5022 -0.0689
 4134TIP3    H212409   3.974   4.477   2.358  0.9121  1.2464  2.3126
 4135TIP3   OH212410   1.695   5.820   0.738  0.1367  0.0162 -0.1380
 4135TIP3    H112411   1.751   5.859   0.805  0.1866  1.0376 -0.7509
 4135TIP3    H212412   1.607   5.824   0.774 -0.0433  1.8704 -0.6591
 4136TIP3   OH212413   4.037   5.338   1.839  0.3654  0.5210 -0.4418
 4136TIP3    H112414   3.954   5.356   1.794 -0.9120 -3.7697 -0.2250
 4136TIP3    H212415   4.093   5.301   1.771  1.9839  2.6514 -0.3964
 4137TIP3   OH212416   5.260   2.366   4.778 -0.5936 -0.1252 -0.4758
 4137TIP3    H112417   5.336   2.419   4.755  0.1707 -0.9276  0.1153
 4137TIP3    H212418   5.235   2.395   4.866 -0.4283 -0.4514 -0.3182
 4138TIP3   OH212419   4.425   5.536   3.397  0.3443  0.1932 -0.0656
 4138TIP3    H112420   4.406   5.481   3.321  1.3805 -1.2191  0.6393
 4138TIP3    H212421   4.358   5.512   3.462  0.0309  0.6960 -0.2057
 4139TIP3   OH212422   3.743   0.519   2.641 -0.4054  0.3402  0.1056
 4139TIP3    H112423   3.743   0.606   2.681 -2.5795  0.6939 -0.5350
 4139TIP3    H212424   3.661   0.479   2.670 -0.7439 -0.4287 -1.7449
 4140TIP3   OH212425   5.042   2.985   2.855  0.3851  0.2311 -0.1473
 4140TIP3    H112426   5.112   2.921   2.867 -0.2690 -0.3370  0.7641
 4140TIP3    H212427   5.010   2.969   2.766  1.9106  1.0358 -0.8788
 4141TIP3   OH212428   0.619   5.146   4.621 -0.1194  0.1608 -0.3714
 4141TIP3    H112429   0.614   5.232   4.662 -2.0275 -0.0836 -0.0286
 4141TIP3    H212430   0.570   5.155   4.539 -1.1887 -0.8253  0.1283
 4142TIP3   OH212431   3.809   2.627   1.189 -0.2636  0.8191 -0.1832
 4142TIP3    H112432   3.745   2.686   1.229 -0.6921  0.5893 -0.5233
 4142TIP3    H212433   3.786   2.624   1.097  0.0364  0.4759 -0.2514
 4143TIP3   OH212434   1.818   1.152   1.357 -0.5513 -0.4299 -0.0490
 4143TIP3    H112435   1.840   1.245   1.363 -0.2261 -0.5938  2.3046
 4143TIP3    H212436   1.901   1.109   1.340 -0.8643 -0.2631 -2.2798
 4144TIP3   OH212437   5.643   0.171   4.612  0.4658 -0.4671 -0.5838
 4144TIP3    H112438   5.728   0.178   4.655  0.5554 -2.7631 -0.2628
 4144TIP3    H212439   5.580   0.170   4.683  0.3431 -0.7302 -0.6938
 4145TIP3   OH212440   3.837   1.656   3.822 -0.4711  0.2238  0.7012
 4145TIP3    H112441   3.913   1.705   3.852 -0.3106  0.1557  0.4110
 4145TIP3    H212442   3.858   1.631   3.732 -0.4275 -0.6337  0.9411
 4146TIP3   OH212443   2.549   4.978   4.743 -0.4763  0.0307  0.1858
 4146TIP3    H112444   2.570   5.056   4.794  0.3431 -0.6057  0.8564
 4146TIP3    H212445   2.634   4.934   4.730 -1.3048 -3.1124  3.7518
 4147TIP3   OH212446   5.851   5.473   3.918  0.4244  0.3603 -0.5521
 4147TIP3    H112447   5.903   5.536   3.967 -0.2291  0.4077  0.1007
 4147TIP3    H212448   5.785   5.526   3.873  0.3220  0.2146 -0.5755
 4148TIP3   OH212449   4.797   1.433   0.906  0.0126  0.4539  0.1065
 4148TIP3    H112450   4.786   1.528   0.910  0.4989  0.6218 -1.7705
 4148TIP3    H212451   4.740   1.400   0.976 -0.1777  2.1094  0.7865
 4149TIP3   OH212452   1.050   3.620   0.668 -0.3935  0.3994  0.0211
 4149TIP3    H112453   1.076   3.657   0.752 -0.3058 -0.5794  0.4299
 4149TIP3    H212454   1.133   3.606   0.622 -0.2477 -1.3146  0.7353
 4150TIP3   OH212455   2.249   3.348   1.228 -0.2621  0.2055 -0.6111
 4150TIP3    H112456   2.219   3.304   1.307  0.0871  0.7937 -0.1438
 4150TIP3    H212457   2.279   3.277   1.171 -0.1206 -0.1955 -0.0446
 4151TIP3   OH212458   4.306   1.548   1.221 -0.2811  0.6056 -0.1265
 4151TIP3    H112459   4.299   1.458   1.254 -0.8381  1.3948  2.1016
 4151TIP3    H212460   4.399   1.558   1.199 -0.0742 -0.3159  0.2759
 4152TIP3   OH212461   1.938   3.330   1.876 -0.5203 -0.5799 -0.2381
 4152TIP3    H112462   1.948   3.425   1.881  1.6546 -0.8173  1.8475
 4152TIP3    H212463   1.959   3.308   1.785 -0.9272  0.8761 -0.7154
 4153TIP3   OH212464   0.900   3.115   2.949 -0.2830  0.3818  0.0524
 4153TIP3    H112465   0.990   3.149   2.947  0.5366 -1.4340  2.0947
 4153TIP3    H212466   0.899   3.056   3.024 -3.3518  0.7298  0.4058
 4154TIP3   OH212467   2.828   3.106   1.398 -0.3673 -0.1525  0.5680
 4154TIP3    H112468   2.866   3.149   1.321 -0.6176  0.2558  0.6719
 4154TIP3    H212469   2.734   3.104   1.379 -0.2684 -1.6084  0.0793
 4155TIP3   OH212470   3.112   1.106   1.172 -0.3695 -0.2639 -0.5191
 4155TIP3    H112471   3.041   1.050   1.142  1.8173 -2.6003 -1.7374
 4155TIP3    H212472   3.091   1.126   1.263 -1.6192 -2.5127 -0.2493
 4156TIP3   OH212473   0.869   2.389   2.988 -0.1367  0.2637  0.2806
 4156TIP3    H112474   0.817   2.417   3.063 -1.1243 -2.6444  0.8182
 4156TIP3    H212475   0.902   2.303   3.013  1.4564  0.2111 -1.7496
 4157TIP3   OH212476   2.171   4.945   3.433 -0.1910 -0.2041 -0.1866
 4157TIP3    H112477   2.128   5.028   3.415 -0.8203 -0.5458 -0.3043
 4157TIP3    H212478   2.155   4.930   3.527 -1.7454 -1.0962 -0.5544
 4158TIP3   OH212479   3.033   0.582   1.907  0.6200  0.1515  0.0919
 4158TIP3    H112480   2.942   0.608   1.890  0.7812 -0.0247 -1.1821
 4158TIP3    H212481   3.029   0.529   1.987 -0.5334 -0.5308 -0.3881
 4159TIP3   OH212482   2.889   5.253   3.058  0.1624  0.2937 -0.0289
 4159TIP3    H112483   2.949   5.179   3.046 -0.4863 -0.4324  1.0815
 4159TIP3    H212484   2.830   5.226   3.128  0.5262  2.2571  1.1206
 4160TIP3   OH212485   4.272   2.075   1.489  0.2395  0.4781  0.1065
 4160TIP3    H112486   4.232   1.990   1.509  1.8091  0.4057  3.6057
 4160TIP3    H212487   4.321   2.060   1.408  0.3182 -1.9022  0.5175
 4161TIP3   OH212488   2.741   3.410   1.565 -0.0600 -0.3229  0.0498
 4161TIP3    H112489   2.669   3.433   1.506  0.4343 -0.8190 -0.7671
 4161TIP3    H212490   2.708   3.335   1.614 -0.7099  0.4783  0.8847
 4162TIP3   OH212491   2.701   1.367   3.697 -0.5260  0.6811 -0.0109
 4162TIP3    H112492   2.613   1.351   3.732 -0.0351 -1.9546  0.2489
 4162TIP3    H212493   2.697   1.336   3.607 -0.0888  1.3819 -0.2758
 4163TIP3   OH212494   3.016   1.132   1.843 -0.2190 -0.2540  0.6223
 4163TIP3    H112495   2.941   1.088   1.802 -0.1990  0.3212 -0.0505
 4163TIP3    H212496   2.985   1.158   1.929 -0.5723 -0.6247  0.6098
 4164TIP3   OH212497   3.507   4.895   2.596  0.1374  0.2243  0.2624
 4164TIP3    H112498   3.486   4.875   2.687  0.2162  2.0055  0.6921
 4164TIP3    H212499   3.428   4.935   2.561  1.4670  3.6877  0.8782
 4165TIP3   OH212500   2.149   1.545   4.527  0.3227  0.4314  0.2091
 4165TIP3    H112501   2.209   1.594   4.584  0.5438 -0.5949  0.8829
 4165TIP3    H212502   2.206   1.485   4.478 -0.0447  0.1526  0.1215
 4166TIP3   OH212503   3.804   2.683   4.009  0.1664  0.3131  0.1129
 4166TIP3    H112504   3.742   2.731   3.956  0.7563  0.8342 -0.1151
 4166TIP3    H212505   3.885   2.682   3.957  0.6205  0.4523  0.8042
 4167TIP3   OH212506   1.314   4.501   1.499  0.2634  0.0822  0.2180
 4167TIP3    H112507   1.375   4.568   1.530  1.4041 -1.6242  1.8969
 4167TIP3    H212508   1.230   4.524   1.540  0.2768  1.2436 -0.3706
 4168TIP3   OH212509   6.229   5.765   2.909 -0.2172  0.0277  0.0294
 4168TIP3    H112510   6.192   5.786   2.823  0.9217  0.9817 -0.2470
 4168TIP3    H212511   6.198   5.835   2.967 -0.4471 -0.2607  0.2638
 4169TIP3   OH212512   3.327   4.696   4.995  0.0003  0.0068 -0.1794
 4169TIP3    H112513   3.274   4.709   5.073 -0.2629  1.5243 -0.5792
 4169TIP3    H212514   3.275   4.637   4.940 -1.4864  1.7081 -0.6999
 4170TIP3   OH212515   5.253   0.110   4.301  0.7763  0.2696 -0.0376
 4170TIP3    H112516   5.174   0.104   4.355  1.6602  0.5069  1.3232
 4170TIP3    H212517   5.244   0.194   4.255  0.4929  0.5679  0.5512
 4171TIP3   OH212518   3.999   3.990   1.452 -0.2641 -0.2140 -0.4911
 4171TIP3    H112519   3.931   4.040   1.405  0.2536  0.4326 -0.5560
 4171TIP3    H212520   3.952   3.913   1.485 -1.1303  0.4225 -0.1822
 4172TIP3   OH212521   0.862   0.589   2.449  0.4108  0.2093  0.3420
 4172TIP3    H112522   0.835   0.528   2.518  0.1719 -0.6620 -0.4973
 4172TIP3    H212523   0.941   0.549   2.412 -0.2488 -0.0485 -0.8040
 4173TIP3   OH212524   6.309   4.523   1.415  0.0605  0.4162  0.5028
 4173TIP3    H112525   6.308   4.543   1.321  3.3907 -0.7722  0.0478
 4173TIP3    H212526   6.287   4.605   1.457 -2.6253  0.7245 -1.2439
 4174TIP3   OH212527   2.167   5.312   1.507 -0.6711 -0.4113  0.0170
 4174TIP3    H112528   2.141   5.386   1.452 -3.8472 -1.2046  0.2521
 4174TIP3    H212529   2.187   5.351   1.592 -0.1211  0.3697 -0.4622
 4175TIP3   OH212530   4.262   5.917   4.403 -0.0485 -1.1215  0.3692
 4175TIP3    H112531   4.266   5.918   4.498  2.5622  2.1332  0.4111
 4175TIP3    H212532   4.351   5.893   4.375 -0.5690 -1.3130 -1.2669
 4176TIP3   OH212533   1.721   2.789   1.210  0.5380 -0.3950 -0.3487
 4176TIP3    H112534   1.802   2.788   1.160 -0.1689 -1.0956 -1.5344
 4176TIP3    H212535   1.673   2.712   1.178 -0.6989  0.1549  0.1383
 4177TIP3   OH212536   3.684   5.480   1.514 -0.4014 -0.1250  0.0243
 4177TIP3    H112537   3.641   5.411   1.464 -1.0180  0.2770 -0.0063
 4177TIP3    H212538   3.690   5.445   1.603 -0.5164 -0.2974 -0.0357
 4178TIP3   OH212539   0.283   3.515   0.056  0.1842 -0.2364  0.7146
 4178TIP3    H112540   0.244   3.467  -0.018 -1.2982  1.8830  0.0450
 4178TIP3    H212541   0.355   3.565   0.016  0.3690 -0.2722  1.0044
 4179TIP3   OH212542   3.892   4.904   5.150 -0.2189 -0.3151  0.1815
 4179TIP3    H112543   3.823   4.924   5.087  1.5462  0.5537 -1.5804
 4179TIP3    H212544   3.971   4.896   5.097  1.7076  2.1790  2.4299
 4180TIP3   OH212545   2.178   0.285   0.565  0.5251  0.2842 -0.1293
 4180TIP3    H112546   2.198   0.215   0.503  2.1732  0.1075  0.5646
 4180TIP3    H212547   2.261   0.303   0.609 -0.4451  0.9164  1.5246
 4181TIP3   OH212548   4.292   0.012   0.993 -0.3780  0.2443 -0.4967
 4181TIP3    H112549   4.236   0.081   0.956 -1.0494  0.3567  0.6668
 4181TIP3    H212550   4.370   0.012   0.938 -1.9139 -0.6254 -2.8638
 4182TIP3   OH212551   3.946   0.365   2.765  0.1610 -0.2558 -0.2241
 4182TIP3    H112552   4.030   0.391   2.728  0.2174 -1.7010 -1.1834
 4182TIP3    H212553   3.882   0.425   2.725  0.3870 -0.9775 -1.7330
 4183TIP3   OH212554   6.254   4.046   4.552 -0.4220 -0.7534 -0.1427
 4183TIP3    H112555   6.286   4.135   4.569  1.1437 -1.1759 -0.7406
 4183TIP3    H212556   6.318   4.008   4.493 -1.7097 -1.9041 -0.8632
 4184TIP3   OH212557   4.675   1.136   4.578  0.0471 -0.2308 -0.4858
 4184TIP3    H112558   4.666   1.184   4.661 -0.1548 -2.5541  0.9019
 4184TIP3    H212559   4.610   1.177   4.520 -1.4116  0.0224  1.2247
 4185TIP3   OH212560   3.989   0.518   3.970  0.2958 -0.5819 -0.6916
 4185TIP3    H112561   3.898   0.541   3.951  0.6831  1.8763  0.0065
 4185TIP3    H212562   4.037   0.544   3.891  0.7162  0.9996  0.0287
 4186TIP3   OH212563   1.083   3.209   5.005 -0.0504 -0.1691  0.1426
 4186TIP3    H112564   1.003   3.178   5.047 -1.5280  1.0334 -1.6433
 4186TIP3    H212565   1.091   3.301   5.031  0.2133 -0.0166 -0.4546
 4187TIP3   OH212566   2.971   5.430   5.077  0.2889  0.0245 -0.2154
 4187TIP3    H112567   2.955   5.345   5.118  1.5956  0.0670  0.4166
 4187TIP3    H212568   3.046   5.466   5.123 -0.3891  1.6573 -0.2965
 4188TIP3   OH212569   4.954   1.906   2.387 -0.4924 -0.4682 -0.1339
 4188TIP3    H112570   4.889   1.857   2.336  0.0183 -1.3838  0.0654
 4188TIP3    H212571   4.934   1.883   2.478  0.6006 -1.4132 -0.1147
 4189TIP3   OH212572   1.623   0.058   3.403  0.1787  0.1255 -0.2353
 4189TIP3    H112573   1.669   0.108   3.471  0.9233  0.8317 -1.2315
 4189TIP3    H212574   1.641  -0.033   3.424  1.8683  0.3797 -0.4747
 4190TIP3   OH212575   4.134   5.009   0.328  0.5436 -0.1961  0.1811
 4190TIP3    H112576   4.125   4.923   0.288 -1.0703  0.7289 -1.6113
 4190TIP3    H212577   4.185   5.059   0.265  2.1727 -0.0269  1.5827
 4191TIP3   OH212578   1.056   1.127   2.163  0.3038 -0.3321  0.7904
 4191TIP3    H112579   0.980   1.083   2.125 -0.1442  0.2822  0.9431
 4191TIP3    H212580   1.128   1.108   2.104 -0.2074 -0.0359  0.0553
 4192TIP3   OH212581   2.912   4.584   0.760 -0.0846  0.1072  0.3291
 4192TIP3    H112582   2.841   4.552   0.704 -1.6909  0.9730  1.7563
 4192TIP3    H212583   2.930   4.513   0.821  0.6023 -0.2707 -0.2994
 4193TIP3   OH212584   0.223   4.601   0.862  0.1579  0.3017 -0.2710
 4193TIP3    H112585   0.245   4.569   0.949  0.9245  0.4302 -0.4138
 4193TIP3    H212586   0.134   4.568   0.846  0.5479 -0.9201 -0.0097
 4194TIP3   OH212587   4.678   5.107   0.139 -0.1103  0.3080 -0.1391
 4194TIP3    H112588   4.745   5.045   0.168 -1.1469 -1.2147 -0.8140
 4194TIP3    H212589   4.662   5.163   0.215  1.9483  0.7757  0.0058
 4195TIP3   OH212590   1.767   5.097   3.497 -0.1851  0.5899 -0.1074
 4195TIP3    H112591   1.804   5.096   3.585  1.0899 -0.5174 -0.6298
 4195TIP3    H212592   1.819   5.034   3.447 -0.9979  1.0448 -1.6195
 4196TIP3   OH212593   5.142   2.341   0.768  0.2486 -0.3511  0.1788
 4196TIP3    H112594   5.124   2.423   0.721 -1.8445 -0.4572  0.6774
 4196TIP3    H212595   5.073   2.337   0.835  1.2374 -1.7770  1.1625
 4197TIP3   OH212596   1.815   5.210   0.330 -0.0351 -0.7114 -0.5176
 4197TIP3    H112597   1.865   5.220   0.249 -0.6180 -1.3473 -0.9672
 4197TIP3    H212598   1.825   5.117   0.353  1.1251 -0.2922  0.8082
 4198TIP3   OH212599   2.986   1.480   0.066 -0.7671  0.0939  0.1780
 4198TIP3    H112600   2.978   1.439   0.153  1.2918 -0.0377  0.3624
 4198TIP3    H212601   2.897   1.504   0.043 -1.4364 -0.2490  2.1573
 4199TIP3   OH212602   2.266   4.074   0.594 -0.0378 -0.2109 -0.0676
 4199TIP3    H112603   2.267   4.007   0.663  1.4066  0.9054  1.0555
 4199TIP3    H212604   2.177   4.111   0.599 -0.0624 -0.3708  0.9756
 4200TIP3   OH212605   6.366   1.549   1.899 -0.1357 -0.0305 -0.2288
 4200TIP3    H112606   6.290   1.561   1.841  0.8650  1.0382 -1.3860
 4200TIP3    H212607   6.377   1.454   1.904 -0.8959 -0.1704 -0.9368
 4201TIP3   OH212608   1.976   0.268   4.596 -0.2102 -0.1456 -0.1263
 4201TIP3    H112609   2.037   0.263   4.522  0.3145 -0.8388  0.3318
 4201TIP3    H212610   2.024   0.227   4.669 -0.0685  1.9708  1.0605
 4202TIP3   OH212611   2.080   3.851   4.618 -0.2550 -0.5012  0.3525
 4202TIP3    H112612   2.111   3.862   4.708  0.1240  1.0271  0.0720
 4202TIP3    H212613   2.066   3.941   4.587  2.8664 -0.7210 -2.2289
 4203TIP3   OH212614   3.223   1.535   2.344  0.2446 -0.2805 -0.9018
 4203TIP3    H112615   3.211   1.607   2.406 -0.0747 -1.1657  0.0822
 4203TIP3    H212616   3.135   1.519   2.309  0.1751 -0.7091 -0.5328
 4204TIP3   OH212617   6.040   2.960   3.952  0.0354 -0.0692 -0.6268
 4204TIP3    H112618   6.069   2.957   3.861 -1.8925 -1.1770 -1.2650
 4204TIP3    H212619   5.954   3.001   3.949 -0.9713 -1.9745  0.3909
 4205TIP3   OH212620   1.280   5.665   1.944 -0.3051 -0.2118 -0.3250
 4205TIP3    H112621   1.262   5.640   2.035  1.3245 -0.7465 -0.1179
 4205TIP3    H212622   1.361   5.714   1.949 -1.4432  1.8984 -1.2274
 4206TIP3   OH212623   0.949   0.798   3.504 -0.1167 -0.2137  0.2994
 4206TIP3    H112624   1.001   0.778   3.426 -0.9922 -0.8506 -0.1368
 4206TIP3    H212625   0.997   0.756   3.576  0.1282 -0.5432 -0.0531
 4207TIP3   OH212626   2.893   2.057   0.424  0.6410 -0.4087  0.2260
 4207TIP3    H112627   2.841   1.986   0.385  1.0429 -1.1723  1.0295
 4207TIP3    H212628   2.841   2.136   0.410  0.2663 -0.8279 -0.8558
 4208TIP3   OH212629   6.284   0.344   0.610 -0.2229  0.3312  0.6301
 4208TIP3    H112630   6.340   0.267   0.595 -0.5273  0.3150 -0.4666
 4208TIP3    H212631   6.345   0.418   0.609 -0.2021  0.3238 -0.6681
 4209TIP3   OH212632   2.260   1.219   0.902  0.2696  0.2289  0.2318
 4209TIP3    H112633   2.200   1.246   0.972  1.3420  1.2974  0.7647
 4209TIP3    H212634   2.203   1.195   0.830 -0.8407 -0.0309  1.1635
 4210TIP3   OH212635   2.353   4.500   1.780 -0.0227 -0.2257 -0.0085
 4210TIP3    H112636   2.333   4.415   1.740 -0.5610 -0.5203  0.8524
 4210TIP3    H212637   2.282   4.557   1.753  0.4751  0.0363 -0.8014
 4211TIP3   OH212638   4.706   0.536   3.849  0.0614 -0.2033  0.8573
 4211TIP3    H112639   4.612   0.518   3.845 -0.0095  0.2181 -2.7334
 4211TIP3    H212640   4.716   0.621   3.806  2.0927 -0.2244  1.1882
 4212TIP3   OH212641   1.818   5.285   1.219 -0.1225  0.0336  0.2628
 4212TIP3    H112642   1.809   5.357   1.281  0.8457 -0.0141  0.4768
 4212TIP3    H212643   1.754   5.304   1.150 -1.7497 -0.2961  1.6100
 4213TIP3   OH212644   0.010   0.524   1.723  0.2295  0.2043 -0.0684
 4213TIP3    H112645   0.099   0.488   1.715  0.4259  0.3915  1.1578
 4213TIP3    H212646  -0.047   0.453   1.692  0.7657 -0.1475 -0.2659
 4214TIP3   OH212647   1.054   0.057   2.212 -0.2350 -0.1604 -0.2473
 4214TIP3    H112648   1.105   0.102   2.279 -1.2105 -0.5921  0.8177
 4214TIP3    H212649   1.051   0.119   2.139  0.2291  0.6284  0.3853
 4215TIP3   OH212650   5.630   3.481   0.844 -0.2501  0.1191 -0.3043
 4215TIP3    H112651   5.565   3.451   0.781 -3.3238  2.3607  1.5283
 4215TIP3    H212652   5.671   3.557   0.802 -0.3004 -0.0602 -0.6789
 4216TIP3   OH212653   6.035   4.667   1.019 -0.1834 -0.1273 -0.2433
 4216TIP3    H112654   5.951   4.713   1.009 -0.0111  0.4048  0.6631
 4216TIP3    H212655   6.011   4.575   1.021 -0.6097 -0.0561 -1.3504
 4217TIP3   OH212656   2.771   5.213   3.309  0.0307  0.6515  0.4050
 4217TIP3    H112657   2.860   5.212   3.343  0.0974 -0.3134  0.2224
 4217TIP3    H212658   2.716   5.185   3.382 -0.0112  0.2438  0.2167
 4218TIP3   OH212659   3.620   5.640   3.151 -0.1796 -0.1495 -0.2181
 4218TIP3    H112660   3.690   5.576   3.153  0.2481  0.3129 -0.1211
 4218TIP3    H212661   3.552   5.601   3.096  0.2946 -0.4552 -0.5884
 4219TIP3   OH212662   5.160   3.010   4.236  0.3507 -0.3013  0.5470
 4219TIP3    H112663   5.131   3.056   4.315 -0.3121  0.2592 -0.0167
 4219TIP3    H212664   5.207   3.075   4.185 -0.4268 -0.2822 -0.1645
 4220TIP3   OH212665   2.841   0.199   0.985  0.5125 -0.1099  0.2922
 4220TIP3    H112666   2.878   0.219   1.071 -0.8944 -0.6032  1.0372
 4220TIP3    H212667   2.764   0.146   1.003 -0.6932  1.0293 -1.1797
 4221TIP3   OH212668   0.356   5.859   2.638 -0.6111  0.6583  0.5902
 4221TIP3    H112669   0.268   5.895   2.630 -0.9440 -0.2729 -0.0592
 4221TIP3    H212670   0.414   5.936   2.638 -1.3447  1.2226 -0.1146
 4222TIP3   OH212671   2.307   0.217   1.609 -0.0321 -0.1460 -0.5931
 4222TIP3    H112672   2.271   0.190   1.693  0.6416 -0.6858 -0.4638
 4222TIP3    H212673   2.400   0.231   1.627  0.2341 -0.8609 -1.3793
 4223TIP3   OH212674   6.132   1.073   0.429 -0.2234 -0.0157  0.1413
 4223TIP3    H112675   6.120   1.119   0.346 -0.5555 -1.5805 -0.7184
 4223TIP3    H212676   6.080   1.122   0.492  2.1841  2.8458  0.1219
 4224TIP3   OH212677   2.561   5.651   4.903  0.6046  0.4499  0.0921
 4224TIP3    H112678   2.565   5.746   4.908  2.1683  0.5550 -1.8999
 4224TIP3    H212679   2.651   5.622   4.919  0.5897 -0.5255 -1.3850
 4225TIP3   OH212680   5.074   0.953   3.340 -0.2436 -0.2945  0.0272
 4225TIP3    H112681   5.151   0.897   3.336 -0.1066 -0.0427 -1.7139
 4225TIP3    H212682   5.104   1.037   3.305 -1.6087 -0.6285 -2.1882
 4226TIP3   OH212683   5.718   1.190   1.684  0.8033 -0.2314 -0.3775
 4226TIP3    H112684   5.678   1.153   1.763  0.7692  0.3618 -0.1101
 4226TIP3    H212685   5.803   1.221   1.713  1.1485 -0.7982 -0.7750
 4227TIP3   OH212686   0.451   0.971   3.304  0.7948 -0.3734  0.0661
 4227TIP3    H112687   0.418   1.042   3.250 -0.1720 -1.5508 -0.9545
 4227TIP3    H212688   0.456   1.008   3.392  0.7078  1.0650 -0.5129
 4228TIP3   OH212689   1.809   2.149   4.797  0.0476  0.5760 -0.3246
 4228TIP3    H112690   1.868   2.225   4.797 -0.3542  0.9061  1.0363
 4228TIP3    H212691   1.825   2.106   4.880 -1.0445  0.2024 -0.2926
 4229TIP3   OH212692   2.932   5.004   3.198 -0.4135 -0.2424 -0.1141
 4229TIP3    H112693   2.896   4.943   3.133 -3.5380  2.7565 -1.4709
 4229TIP3    H212694   2.878   4.990   3.276 -1.2594  0.8222 -0.4889
 4230TIP3   OH212695   3.516   2.813   3.121 -0.8830  0.0232 -0.0439
 4230TIP3    H112696   3.426   2.781   3.120 -0.8703 -0.0831 -2.1181
 4230TIP3    H212697   3.543   2.811   3.029  0.6953  1.5873  0.3338
 4231TIP3   OH212698   2.675   5.422   1.080  0.0845 -0.2126 -0.1517
 4231TIP3    H112699   2.687   5.471   0.998 -0.3078 -0.7479 -0.5345
 4231TIP3    H212700   2.580   5.418   1.091  0.0531 -2.0968 -0.8681
 4232TIP3   OH212701   0.525   0.128   2.251 -0.0369 -0.6174  0.2000
 4232TIP3    H112702   0.526   0.219   2.281 -2.0699 -0.3218 -0.4827
 4232TIP3    H212703   0.524   0.076   2.332  1.1263 -0.0472  0.5909
 4233TIP3   OH212704   2.350   4.716   1.391 -0.0004  0.6599  0.8848
 4233TIP3    H112705   2.381   4.672   1.312  2.1676  2.7080  0.5028
 4233TIP3    H212706   2.422   4.708   1.454 -1.3191 -0.1021  2.3801
 4234TIP3   OH212707   4.594   1.055   2.611 -0.1928  0.0722  0.1924
 4234TIP3    H112708   4.563   1.008   2.689  1.1598 -3.1667 -1.0528
 4234TIP3    H212709   4.683   1.083   2.634 -0.9112  1.9756  0.8454
 4235TIP3   OH212710   0.476   2.437   1.087 -0.6624  0.1421  0.2318
 4235TIP3    H112711   0.419   2.362   1.070 -0.2531 -0.1288  0.0312
 4235TIP3    H212712   0.465   2.494   1.011 -0.0346 -0.3130 -0.2127
 4236TIP3   OH212713   4.342   2.293   4.476  0.1365 -0.3563 -0.3774
 4236TIP3    H112714   4.411   2.358   4.473 -0.9301  0.7947 -1.8477
 4236TIP3    H212715   4.261   2.344   4.482 -0.6156 -1.6726  2.2521
 4237TIP3   OH212716   4.362   0.778   0.538  0.1747  0.1453 -0.0001
 4237TIP3    H112717   4.306   0.728   0.480 -0.1435 -0.5330  0.8699
 4237TIP3    H212718   4.447   0.779   0.494 -0.2229  0.2098 -0.7818
 4238TIP3   OH212719   5.772   5.639   0.912  0.0259 -0.4845  0.0048
 4238TIP3    H112720   5.832   5.578   0.956 -0.8251 -0.9761  0.5056
 4238TIP3    H212721   5.685   5.611   0.939 -0.3809  1.1921  0.5577
 4239TIP3   OH212722   2.016   2.333   4.793  0.6731 -0.3351  0.1650
 4239TIP3    H112723   2.045   2.389   4.720 -0.2600  1.1390  0.8820
 4239TIP3    H212724   2.053   2.375   4.871 -0.1034 -0.6888  0.7282
 4240TIP3   OH212725   4.890   1.984   5.016 -0.1783 -0.3108  0.3141
 4240TIP3    H112726   4.889   1.956   4.924 -1.0362 -1.9050  0.7888
 4240TIP3    H212727   4.930   1.911   5.063  2.2557  1.3283  1.0071
 4241TIP3   OH212728   2.286   1.078   2.218 -0.0106 -0.2888  0.2931
 4241TIP3    H112729   2.196   1.049   2.237  0.2935 -1.1246  0.4805
 4241TIP3    H212730   2.275   1.166   2.181 -0.7430  0.6176  2.4896
 4242TIP3   OH212731   3.500   1.224   2.340 -0.4089  0.6658  0.1843
 4242TIP3    H112732   3.558   1.152   2.312  1.4826  1.8750  0.8169
 4242TIP3    H212733   3.530   1.299   2.289 -1.2710  1.3889  0.7321
 4243TIP3   OH212734   6.213   4.013   4.919 -0.0867 -0.3078  0.4948
 4243TIP3    H112735   6.200   4.092   4.868 -1.7725 -0.3978  0.7378
 4243TIP3    H212736   6.283   3.966   4.873 -0.2644  0.4958 -0.6319
 4244TIP3   OH212737   4.089   5.941   0.435  0.6645  0.0765 -0.5903
 4244TIP3    H112738   4.059   5.983   0.515  2.1352  1.8200 -0.8949
 4244TIP3    H212739   4.178   5.912   0.455  2.3858  3.4808 -2.4591
 4245TIP3   OH212740   5.098   0.303   1.975  0.6646  0.5848 -0.6252
 4245TIP3    H112741   5.052   0.283   1.893  2.4092 -0.6134 -1.3584
 4245TIP3    H212742   5.038   0.272   2.043  0.3700 -1.0108 -1.5453
 4246TIP3   OH212743   5.611   1.095   0.056 -0.4283  0.1500  0.2811
 4246TIP3    H112744   5.678   1.102   0.124 -1.2605  1.2619  1.0293
 4246TIP3    H212745   5.631   1.167  -0.005 -0.2361 -0.2637 -0.1464
 4247TIP3   OH212746   1.567   4.376   0.383  0.1004 -0.0278  0.3880
 4247TIP3    H112747   1.641   4.417   0.338  0.4100 -2.0187 -1.0605
 4247TIP3    H212748   1.559   4.290   0.343 -2.0202 -0.4922  1.6235
 4248TIP3   OH212749   5.994   4.514   3.465 -0.1726 -0.3146 -0.4068
 4248TIP3    H112750   6.009   4.439   3.524 -1.0670  0.2893  0.6193
 4248TIP3    H212751   5.901   4.511   3.446 -0.3267  0.8435  0.0807
 4249TIP3   OH212752   2.879   5.848   0.971  0.1378 -0.0622  0.0311
 4249TIP3    H112753   2.795   5.804   0.959  1.7819 -3.3297 -0.6762
 4249TIP3    H212754   2.915   5.856   0.883  1.8843 -1.7774  0.5006
 4250TIP3   OH212755   2.176   0.643   2.017 -0.1928 -0.1784  0.0490
 4250TIP3    H112756   2.225   0.716   1.981  0.8576 -1.0838 -0.4086
 4250TIP3    H212757   2.106   0.684   2.068  1.6344  1.1826  1.5952
 4251TIP3   OH212758   3.786   0.240   1.688 -0.3790  0.0358 -0.0311
 4251TIP3    H112759   3.692   0.255   1.694 -0.3535  0.4651 -0.6393
 4251TIP3    H212760   3.805   0.244   1.594  0.6564  2.5441  0.2238
 4252TIP3   OH212761   4.957   4.305   1.734  0.5943  0.3736  0.0857
 4252TIP3    H112762   5.044   4.296   1.696  0.9460 -1.0777  1.1192
 4252TIP3    H212763   4.899   4.316   1.659  1.2913 -2.0317 -0.9005
 4253TIP3   OH212764   3.084   1.966   3.778  0.0111 -0.0710  0.2860
 4253TIP3    H112765   3.102   2.054   3.743  0.0040  0.5611  1.7954
 4253TIP3    H212766   3.043   1.982   3.863 -0.1599 -1.5494  0.5067
 4254TIP3   OH212767   5.615   4.674   3.368  0.0873 -0.1884  0.1394
 4254TIP3    H112768   5.622   4.592   3.416 -0.1256 -0.0998  0.3226
 4254TIP3    H212769   5.559   4.653   3.293  0.4443 -0.3340 -0.0920
 4255TIP3   OH212770   0.931   2.244   1.955  0.1975  0.2860 -0.2395
 4255TIP3    H112771   1.003   2.290   1.999  1.6239 -1.2836 -0.8046
 4255TIP3    H212772   0.939   2.271   1.863 -0.7888  1.1159 -0.0934
 4256TIP3   OH212773   5.519   1.419   3.521 -0.4314  0.1311 -0.8943
 4256TIP3    H112774   5.532   1.428   3.426  0.7567 -0.3881 -0.7862
 4256TIP3    H212775   5.490   1.328   3.532 -0.6110  0.2048 -0.7637
 4257TIP3   OH212776   3.192   1.253   3.749  0.1564 -0.2553 -0.0723
 4257TIP3    H112777   3.266   1.210   3.707 -0.0157  0.6515 -1.3621
 4257TIP3    H212778   3.120   1.190   3.742  0.9107 -1.4146  1.7768
 4258TIP3   OH212779   3.266   0.209   2.211  0.0820  0.3102 -0.3804
 4258TIP3    H112780   3.203   0.282   2.214 -0.9371 -0.5241  2.2240
 4258TIP3    H212781   3.291   0.196   2.303 -1.9757 -4.3388 -0.1623
 4259TIP3   OH212782   0.576   3.995   4.667  0.1698  0.0501 -0.3020
 4259TIP3    H112783   0.588   4.040   4.583  0.2520 -0.6181 -0.6579
 4259TIP3    H212784   0.625   3.913   4.657 -1.0434 -0.7220 -0.1552
 4260TIP3   OH212785   6.182   5.277   4.555 -0.3481  0.0371  0.3555
 4260TIP3    H112786   6.188   5.289   4.650 -0.6139 -0.7304  0.4781
 4260TIP3    H212787   6.272   5.284   4.524 -0.4991  2.8119  0.3187
 4261TIP3   OH212788   0.591   3.744   2.022  0.1532 -0.5959  0.1419
 4261TIP3    H112789   0.582   3.839   2.016  1.5960 -0.4179  0.3640
 4261TIP3    H212790   0.503   3.712   2.043  0.0866  0.8823  2.3419
 4262TIP3   OH212791   1.751   0.730   3.573  0.1619  0.2691  0.4641
 4262TIP3    H112792   1.710   0.766   3.652 -1.7027 -2.1297  0.6870
 4262TIP3    H212793   1.725   0.790   3.503 -1.6696  0.1942  1.0259
 4263TIP3   OH212794   3.619   3.677   3.878 -0.0692  0.0539  0.4812
 4263TIP3    H112795   3.545   3.722   3.837 -0.1518 -0.2654  0.2727
 4263TIP3    H212796   3.579   3.623   3.945 -0.2111 -1.3081 -0.6469
 4264TIP3   OH212797   6.097   4.778   4.646 -0.0126  0.0389  0.4888
 4264TIP3    H112798   6.019   4.824   4.616 -1.3428 -2.0133  0.6657
 4264TIP3    H212799   6.087   4.772   4.741  0.5771  0.1178  0.5599
 4265TIP3   OH212800   2.869   0.621   4.599 -0.5579 -0.4608  0.2416
 4265TIP3    H112801   2.795   0.636   4.540 -0.5201 -1.3533 -0.0405
 4265TIP3    H212802   2.841   0.547   4.654  0.5475 -1.5370 -0.6051
 4266TIP3   OH212803   6.185   3.353   0.967 -0.0618  0.8423 -0.3760
 4266TIP3    H112804   6.210   3.265   0.939 -0.2903  0.7168 -0.1816
 4266TIP3    H212805   6.140   3.341   1.050 -1.5219  0.9788 -1.1239
 4267TIP3   OH212806   1.454   1.231   0.045 -0.1585  0.6088  0.1251
 4267TIP3    H112807   1.537   1.217   0.092 -0.4017 -0.0096  0.3756
 4267TIP3    H212808   1.462   1.178  -0.035 -0.6473 -0.1393  0.5585
 4268TIP3   OH212809   2.409   5.613   3.604 -0.1155  0.6430 -0.2701
 4268TIP3    H112810   2.420   5.701   3.569  0.0039  1.2351  1.1686
 4268TIP3    H212811   2.497   5.575   3.601  0.1127  1.0900  0.3545
 4269TIP3   OH212812   4.911   3.019   3.815  0.5302 -0.0482  0.0523
 4269TIP3    H112813   4.948   2.987   3.897  0.7851 -0.2891 -0.1567
 4269TIP3    H212814   4.817   3.026   3.833  0.3091 -1.8657 -0.1842
 4270TIP3   OH212815   0.154   0.294   4.225  0.4477 -0.0211 -0.4047
 4270TIP3    H112816   0.231   0.289   4.282  0.3356 -2.6658 -0.3459
 4270TIP3    H212817   0.112   0.377   4.248  2.6152  0.9426  0.3890
 4271TIP3   OH212818   3.722   5.367   2.037 -0.3112  0.0275  0.3193
 4271TIP3    H112819   3.638   5.379   2.083 -0.2804 -1.5274  0.8582
 4271TIP3    H212820   3.777   5.321   2.100  0.5653  0.0109 -0.4381
 4272TIP3   OH212821   4.813   3.058   0.536  0.5982  0.1737 -0.7320
 4272TIP3    H112822   4.854   2.997   0.476  0.5983  0.7371 -1.3170
 4272TIP3    H212823   4.719   3.046   0.523  0.5984  0.3322 -0.8931
 4273TIP3   OH212824   0.358   2.363   3.004  0.1250 -0.0018 -0.3733
 4273TIP3    H112825   0.409   2.430   2.959 -0.8663  1.3353  0.4443
 4273TIP3    H212826   0.276   2.406   3.027 -2.0067 -2.4017 -2.7792
 4274TIP3   OH212827   3.331   0.981   2.821 -0.2019  0.1629  0.1660
 4274TIP3    H112828   3.323   1.074   2.799 -0.9832  0.1318  0.2984
 4274TIP3    H212829   3.243   0.945   2.807 -0.0461 -0.4348  0.6712
 4275TIP3   OH212830   3.910   0.875   1.805 -0.6702 -0.2736  0.6519
 4275TIP3    H112831   3.886   0.950   1.750 -1.0378 -0.6542  0.2939
 4275TIP3    H212832   3.899   0.799   1.749 -0.8290 -0.6485  1.1874
 4276TIP3   OH212833   3.584   2.358   4.264 -0.1121 -0.5828  0.0240
 4276TIP3    H112834   3.603   2.317   4.180  0.8271 -1.2268  0.5351
 4276TIP3    H212835   3.668   2.361   4.310 -0.6864 -0.6968  1.1301
 4277TIP3   OH212836   5.588   2.350   4.266 -0.6808 -0.3556 -0.4063
 4277TIP3    H112837   5.670   2.304   4.246 -0.4172  0.7580 -2.0806
 4277TIP3    H212838   5.525   2.315   4.203 -1.3641 -0.7779  0.4908
 4278TIP3   OH212839   4.838   5.010   1.935 -0.0144 -0.7287 -0.6136
 4278TIP3    H112840   4.846   5.102   1.912 -0.6014 -0.6796 -0.6356
 4278TIP3    H212841   4.810   4.967   1.854 -1.5809 -0.6340 -0.1502
 4279TIP3   OH212842   5.528   5.791   4.817  0.4018 -0.0873 -0.1382
 4279TIP3    H112843   5.584   5.717   4.842  0.4026 -0.2388 -0.5647
 4279TIP3    H212844   5.442   5.751   4.801  0.5001 -0.0620 -0.7573
 4280TIP3   OH212845   5.517   4.359   3.842 -0.0351  0.2256 -0.2724
 4280TIP3    H112846   5.564   4.373   3.924 -1.0503 -0.5917  0.4707
 4280TIP3    H212847   5.570   4.296   3.794 -0.7587 -1.3797  0.9434
 4281TIP3   OH212848   2.822   5.952   4.094 -0.1346 -0.2077  0.4045
 4281TIP3    H112849   2.843   5.906   4.174  0.5726  0.6392  0.7231
 4281TIP3    H212850   2.736   5.918   4.068  0.3895 -1.7221  0.5727
 4282TIP3   OH212851   5.542   4.514   3.152  0.1323 -0.0301 -0.1039
 4282TIP3    H112852   5.537   4.449   3.082 -0.3124 -0.1954  0.0761
 4282TIP3    H212853   5.523   4.597   3.109 -0.2964 -0.1518 -0.1528
 4283TIP3   OH212854   2.310   1.769   3.814 -0.7993 -0.2457 -0.0570
 4283TIP3    H112855   2.236   1.708   3.823 -0.9159 -0.0280  0.4763
 4283TIP3    H212856   2.381   1.715   3.780 -0.6696 -0.8611  1.1504
 4284TIP3   OH212857   5.022   2.597   2.852 -0.3389 -0.2249  0.2328
 4284TIP3    H112858   5.077   2.623   2.926 -1.8279  2.5302  0.5545
 4284TIP3    H212859   5.081   2.591   2.778  0.8865 -1.0141  1.2350
 4285TIP3   OH212860   4.527   4.300   1.840 -0.6873 -0.3143 -0.1151
 4285TIP3    H112861   4.463   4.371   1.848 -2.0244 -1.4930  0.0477
 4285TIP3    H212862   4.514   4.247   1.918  2.4281  0.8682  1.3521
 4286TIP3   OH212863   3.604   0.660   1.371  0.2080 -0.1675  0.2489
 4286TIP3    H112864   3.630   0.752   1.368  0.5463 -0.2723 -0.2068
 4286TIP3    H212865   3.608   0.636   1.463 -0.9268  0.5684  0.5016
 4287TIP3   OH212866   5.698   5.828   1.782  0.3341  0.3774  0.0296
 4287TIP3    H112867   5.685   5.902   1.840 -2.2320  0.2587 -0.3057
 4287TIP3    H212868   5.717   5.867   1.696 -3.0813  0.8185 -0.6399
 4288TIP3   OH212869   6.254   3.747   3.843 -0.0781 -0.0495 -0.3939
 4288TIP3    H112870   6.201   3.688   3.898 -0.3887 -0.1051 -0.7541
 4288TIP3    H212871   6.312   3.791   3.906 -0.3153 -0.2345 -0.0377
 4289TIP3   OH212872   2.923   2.177   1.038 -0.0472 -0.0752 -0.1310
 4289TIP3    H112873   3.010   2.214   1.046  0.9175 -2.3680  0.7797
 4289TIP3    H212874   2.937   2.083   1.034 -2.4033 -0.4462 -1.5326
 4290TIP3   OH212875   4.021   5.687   1.004  0.0989 -0.3303  0.1845
 4290TIP3    H112876   4.024   5.747   1.079 -1.9672  0.3406 -0.1947
 4290TIP3    H212877   4.112   5.675   0.978  0.6399  1.7946  0.9411
 4291TIP3   OH212878   5.147   1.973   1.533 -0.4031  0.2681 -0.6011
 4291TIP3    H112879   5.087   1.954   1.605 -0.4842  1.6127 -0.2871
 4291TIP3    H212880   5.150   1.892   1.482 -0.9581 -0.4457  0.4679
 4292TIP3   OH212881   4.720   2.389   3.599 -0.1423 -0.1068  0.2888
 4292TIP3    H112882   4.727   2.416   3.508 -0.8009  0.7452  0.4793
 4292TIP3    H212883   4.785   2.319   3.608  1.5737  1.3209 -0.2682
 4293TIP3   OH212884   4.211   5.609   1.869  0.0224 -0.7183 -0.1738
 4293TIP3    H112885   4.138   5.563   1.910 -0.7484 -0.1377 -0.8664
 4293TIP3    H212886   4.258   5.650   1.941  0.3348 -2.0151  0.3906
 4294TIP3   OH212887   4.988   2.412   0.994 -0.4090 -0.5709 -0.0159
 4294TIP3    H112888   4.999   2.359   1.072 -0.8255 -0.1165  0.3636
 4294TIP3    H212889   4.977   2.501   1.027 -0.0910 -0.2987 -0.6189
 4295TIP3   OH212890   0.643   3.952   3.947 -0.5195 -0.1693 -0.7308
 4295TIP3    H112891   0.705   3.943   3.875  0.7001 -1.3405  0.4051
 4295TIP3    H212892   0.637   3.865   3.985 -0.8124  0.4906  0.8242
 4296TIP3   OH212893   0.065   0.496   4.664  0.1018  0.2193 -0.3702
 4296TIP3    H112894   0.044   0.441   4.588  0.9584 -0.3469 -0.2136
 4296TIP3    H212895   0.001   0.473   4.730 -1.7416  1.9147 -1.4338
 4297TIP3   OH212896   4.628   4.036   1.765  0.4382 -0.4511  0.0601
 4297TIP3    H112897   4.716   4.073   1.757  1.0602 -2.0220 -0.8577
 4297TIP3    H212898   4.570   4.107   1.739  1.5717 -0.0329 -1.4856
 4298TIP3   OH212899   2.200   2.864   0.507 -0.1181  0.1283  0.9587
 4298TIP3    H112900   2.226   2.955   0.491  1.9057 -0.5076  0.3493
 4298TIP3    H212901   2.242   2.841   0.590  0.3364 -0.5990  0.5351
 4299TIP3   OH212902   1.043   4.432   4.033  0.1959  0.1063  0.0836
 4299TIP3    H112903   0.996   4.411   4.114  0.0508  0.8119  0.1883
 4299TIP3    H212904   0.989   4.394   3.964 -0.4726  0.7883  0.2156
 4300TIP3   OH212905   6.118   1.313   4.174 -0.0814 -0.0464  0.3147
 4300TIP3    H112906   6.061   1.345   4.105  1.5750  0.1659 -1.0275
 4300TIP3    H212907   6.169   1.389   4.202 -0.5863 -0.1672  1.6683
 4301TIP3   OH212908   2.116   3.116   2.587 -0.1370  0.1915 -0.4668
 4301TIP3    H112909   2.067   3.170   2.525 -2.0792 -1.4183 -0.4508
 4301TIP3    H212910   2.114   3.165   2.669  0.3570  1.2351 -1.0645
 4302TIP3   OH212911   2.655   0.842   3.465 -0.2882 -0.4388 -0.7926
 4302TIP3    H112912   2.749   0.859   3.472 -0.5552  0.7752  0.0958
 4302TIP3    H212913   2.626   0.824   3.554 -0.7491 -1.7483 -1.1865
 4303TIP3   OH212914   1.574   4.841   4.266 -0.2674  0.3371  0.2094
 4303TIP3    H112915   1.597   4.823   4.357 -2.1280  0.0308  0.6740
 4303TIP3    H212916   1.576   4.937   4.259 -1.6493  0.4678  1.0732
 4304TIP3   OH212917   0.917   4.038   1.433 -0.4028  0.5619  0.0553
 4304TIP3    H112918   0.949   3.988   1.508 -0.8750 -0.5283 -0.4550
 4304TIP3    H212919   0.822   4.034   1.440 -0.4508  1.3953  0.0001
 4305TIP3   OH212920   3.910   2.338   4.020  0.3636  0.1673  0.0119
 4305TIP3    H112921   3.996   2.300   4.035  0.2358 -0.4149 -0.6360
 4305TIP3    H212922   3.927   2.416   3.968  0.5173  0.1385  0.0177
 4306TIP3   OH212923   6.194   3.449   1.509  0.3765  0.0749 -0.1932
 4306TIP3    H112924   6.116   3.407   1.544 -1.2190  2.5179 -0.6331
 4306TIP3    H212925   6.236   3.489   1.585  0.2785  0.1991 -0.2051
 4307TIP3   OH212926   2.771   2.741   2.832  0.1628  0.4105 -0.0941
 4307TIP3    H112927   2.811   2.710   2.914  1.8499  1.0043 -0.6691
 4307TIP3    H212928   2.827   2.812   2.803 -0.5846  0.3982 -1.6410
 4308TIP3   OH212929   1.762   0.516   4.784  0.2658  0.1351  0.6782
 4308TIP3    H112930   1.772   0.521   4.879  0.6169  1.6473  0.5881
 4308TIP3    H212931   1.849   0.538   4.750  0.3287 -1.0842 -0.0012
 4309TIP3   OH212932   1.112   5.655   4.791 -0.1209 -0.6077 -0.7961
 4309TIP3    H112933   1.073   5.582   4.743  3.0867 -2.6664 -0.5736
 4309TIP3    H212934   1.188   5.681   4.739  0.2465  0.8894  0.4062
 4310TIP3   OH212935   6.156   1.211   0.184  0.1772  0.1270  0.3322
 4310TIP3    H112936   6.135   1.132   0.135  1.2262 -0.7605  1.2267
 4310TIP3    H212937   6.238   1.241   0.146 -0.7614  1.4493 -0.7265
 4311TIP3   OH212938   6.245   4.981   3.959 -0.4418 -0.4169 -0.2238
 4311TIP3    H112939   6.338   4.964   3.973 -0.6667 -0.7823  0.8696
 4311TIP3    H212940   6.199   4.923   4.020 -1.3811  0.0745 -0.4295
 4312TIP3   OH212941   0.869   2.530   3.250 -0.8737 -0.2089  0.5098
 4312TIP3    H112942   0.904   2.618   3.237 -1.6781 -0.1316 -1.4290
 4312TIP3    H212943   0.947   2.476   3.264 -0.3062  0.6425  0.7522
 4313TIP3   OH212944   3.174   4.092   1.324  0.0462  0.2073  0.1303
 4313TIP3    H112945   3.082   4.073   1.305  0.2845 -1.5444  0.5373
 4313TIP3    H212946   3.192   4.174   1.277 -1.5560  0.2809 -0.4126
 4314TIP3   OH212947   4.678   0.221   1.538  0.5344 -0.1200  0.4833
 4314TIP3    H112948   4.700   0.177   1.456  1.4750 -0.3085  0.8300
 4314TIP3    H212949   4.677   0.151   1.603  0.3984  0.1218  0.7398
 4315TIP3   OH212950   3.318   4.068   4.742 -0.4089 -0.1308  0.1183
 4315TIP3    H112951   3.405   4.079   4.780 -0.8722  1.7705  0.6962
 4315TIP3    H212952   3.335   4.027   4.657  1.1204  0.8731 -0.1086
 4316TIP3   OH212953   4.404   1.948   3.009  0.0354  0.0499 -0.1885
 4316TIP3    H112954   4.331   2.005   2.988  0.7089  1.3086  0.7261
 4316TIP3    H212955   4.412   1.889   2.933 -0.8036  1.0404 -1.0695
 4317TIP3   OH212956   3.442   0.039   1.117  0.4710 -0.6032  0.0449
 4317TIP3    H112957   3.399   0.032   1.032  0.5018  1.1001 -0.1384
 4317TIP3    H212958   3.372   0.028   1.181 -0.3817  2.2982 -0.2438
 4318TIP3   OH212959   0.301   0.138   1.277  0.4641 -0.3099 -0.4137
 4318TIP3    H112960   0.341   0.060   1.314 -0.5047 -0.8089 -0.4036
 4318TIP3    H212961   0.289   0.118   1.184 -1.0638 -0.7448 -0.1551
 4319TIP3   OH212962   2.493   1.955   1.563  0.2060  0.3458  0.1952
 4319TIP3    H112963   2.551   1.879   1.567 -1.0134 -0.5668  1.3009
 4319TIP3    H212964   2.495   1.981   1.471  1.1582 -0.6014 -0.0804
 4320TIP3   OH212965   4.146   5.695   4.264  0.2767  0.0834 -0.0975
 4320TIP3    H112966   4.159   5.758   4.334 -0.0251  0.0162  0.0177
 4320TIP3    H212967   4.162   5.609   4.304  0.0116  0.0385 -0.0879
 4321TIP3   OH212968   0.861   4.926   2.270  0.2380 -0.1175  0.1218
 4321TIP3    H112969   0.861   4.871   2.349 -0.4888 -0.4152 -0.0732
 4321TIP3    H212970   0.887   5.013   2.301 -0.9376 -0.0047  0.8725
 4322TIP3   OH212971   2.221   3.343   4.682  0.6355  0.0350  0.2573
 4322TIP3    H112972   2.223   3.280   4.610 -0.6154 -1.6276  1.5908
 4322TIP3    H212973   2.158   3.409   4.655 -0.0708 -0.7532 -0.0779
 4323TIP3   OH212974   5.708   2.491   1.628 -0.1413  0.4271  0.6277
 4323TIP3    H112975   5.621   2.529   1.635 -0.1181  0.2807  1.7809
 4323TIP3    H212976   5.761   2.560   1.587 -0.4073  1.1516  1.4741
 4324TIP3   OH212977   1.322   5.941   2.123 -0.2957 -0.5228  0.2710
 4324TIP3    H112978   1.390   5.909   2.064  0.6070 -0.7165  1.3894
 4324TIP3    H212979   1.297   6.026   2.087  0.5736 -0.4292 -0.1265
 4325TIP3   OH212980   4.105   2.402   5.153  0.1761  0.0565  0.0194
 4325TIP3    H112981   4.090   2.467   5.085 -2.7128 -0.3916  0.1147
 4325TIP3    H212982   4.019   2.363   5.169  1.2731 -1.7846  1.9924
 4326TIP3   OH212983   1.737   1.309   1.125 -0.6455 -0.7530  0.1568
 4326TIP3    H112984   1.663   1.357   1.162 -0.3502 -0.5486  0.4866
 4326TIP3    H212985   1.737   1.226   1.172  0.5904  0.0497  1.6752
 4327TIP3   OH212986   3.089   4.213   2.148 -0.5950  0.0108  0.3599
 4327TIP3    H112987   3.104   4.286   2.208 -2.6342 -0.5927  1.7407
 4327TIP3    H212988   3.011   4.239   2.098 -0.0069 -0.2851 -0.7394
 4328TIP3   OH212989   2.234   3.537   0.428 -0.3561 -0.1073  0.5363
 4328TIP3    H112990   2.214   3.596   0.356  1.4454 -0.5031 -0.3251
 4328TIP3    H212991   2.286   3.468   0.389 -1.9962 -2.0741  1.6115
 4329TIP3   OH212992   0.018   4.006   3.656 -0.8210 -0.5290 -0.1231
 4329TIP3    H112993  -0.020   4.092   3.636  0.5702 -0.0993 -1.0553
 4329TIP3    H212994   0.059   4.018   3.742 -0.6369 -0.2416 -0.2466
 4330TIP3   OH212995   6.249   0.873   0.273 -0.0023  0.4670  0.5025
 4330TIP3    H112996   6.179   0.921   0.318 -2.2147 -0.7955 -1.3447
 4330TIP3    H212997   6.267   0.798   0.330  0.4440  1.2139  1.3668
 4331TIP3   OH212998   0.393   1.283   2.339 -0.1908 -0.0882  0.0956
 4331TIP3    H112999   0.375   1.375   2.319 -0.7594 -0.2044  0.0495
 4331TIP3    H213000   0.423   1.246   2.256  0.1311  0.0764  0.1374
 4332TIP3   OH213001   1.785   1.243   4.532 -0.2914 -0.4385  0.5702
 4332TIP3    H113002   1.731   1.177   4.488 -0.8825 -0.7162  1.6974
 4332TIP3    H213003   1.723   1.301   4.575  0.2745 -0.2274  1.1234
 4333TIP3   OH213004   0.207   3.854   1.470  0.2766 -0.1606 -0.4835
 4333TIP3    H113005   0.160   3.841   1.552  0.8430  0.9012  0.0303
 4333TIP3    H213006   0.214   3.949   1.461  0.8101 -0.2783 -1.4164
 4334TIP3   OH213007   4.900   4.005   3.222  0.5664 -0.0076  0.4112
 4334TIP3    H113008   4.987   4.034   3.195  0.7236 -0.9727 -0.1639
 4334TIP3    H213009   4.849   4.005   3.141  0.3865 -0.6723  0.5208
 4335TIP3   OH213010   5.739   4.984   3.040 -0.2861  0.2131 -0.2297
 4335TIP3    H113011   5.776   5.064   3.001  2.4017 -0.3680  0.9218
 4335TIP3    H213012   5.679   5.016   3.108  2.0117  1.3554  1.3698
 4336TIP3   OH213013   0.569   5.679   2.249 -1.0053  0.0746 -0.4978
 4336TIP3    H113014   0.564   5.610   2.315 -2.4441 -0.2210 -0.8851
 4336TIP3    H213015   0.641   5.652   2.192  0.3398  0.3914  0.9605
 4337TIP3   OH213016   5.058   5.209   4.260 -0.2670 -0.2111  0.3436
 4337TIP3    H113017   5.046   5.174   4.348  0.2285  2.5432  1.5949
 4337TIP3    H213018   4.973   5.247   4.237  0.0280  0.3997  0.2534
 4338TIP3   OH213019   0.334   2.315   4.916 -0.0715 -0.2428  0.0160
 4338TIP3    H113020   0.281   2.299   4.838 -0.9594  0.6210  0.4185
 4338TIP3    H213021   0.302   2.399   4.949  1.6311  0.3782  0.2102
 4339TIP3   OH213022   4.392   3.043   4.732 -0.6113  0.2727  0.4634
 4339TIP3    H113023   4.388   3.020   4.824  0.4896  0.8838  0.6776
 4339TIP3    H213024   4.398   2.960   4.685  1.2727  0.0282  1.0907
 4340TIP3   OH213025   4.675   2.693   2.704  0.1870  0.0900  0.1198
 4340TIP3    H113026   4.580   2.705   2.708  0.1669  0.0417 -0.2186
 4340TIP3    H213027   4.699   2.666   2.793 -0.1982 -0.5488  0.0313
 4341TIP3   OH213028   0.273   1.204   1.704  0.3226  0.1779  0.7334
 4341TIP3    H113029   0.325   1.142   1.754  1.2694  0.8129  0.5654
 4341TIP3    H213030   0.322   1.217   1.623 -0.0096  0.9229  0.6380
 4342TIP3   OH213031   1.328   4.505   3.359 -0.1688  0.0313  0.0881
 4342TIP3    H113032   1.295   4.575   3.303  1.0635 -0.6492 -1.5851
 4342TIP3    H213033   1.391   4.548   3.417 -1.6934  0.7988  1.2286
 4343TIP3   OH213034   5.050   5.719   1.402  0.2719 -0.2753  0.4631
 4343TIP3    H113035   5.040   5.792   1.463  2.1389  0.1922  0.2688
 4343TIP3    H213036   5.137   5.732   1.364  0.0671 -1.8402 -0.6015
 4344TIP3   OH213037   4.309   3.843   2.325 -0.3318  0.4259  0.2586
 4344TIP3    H113038   4.243   3.829   2.392 -1.1439  0.4415 -0.5229
 4344TIP3    H213039   4.320   3.938   2.321 -0.8835  0.4778 -0.1845
 4345TIP3   OH213040   2.835   5.160   1.084 -0.3203  0.7560 -0.7313
 4345TIP3    H113041   2.791   5.215   1.019  0.5778 -0.6113 -2.6268
 4345TIP3    H213042   2.912   5.210   1.109 -0.1937  0.9341 -1.4420
 4346TIP3   OH213043   5.320   1.533   1.730  0.2446 -0.0841  0.1095
 4346TIP3    H113044   5.280   1.516   1.815  1.5010  0.5918  0.8695
 4346TIP3    H213045   5.398   1.586   1.750  2.2553 -2.3844 -1.1292
 4347TIP3   OH213046   1.831   3.052   1.623 -0.2075 -0.0962 -0.4579
 4347TIP3    H113047   1.895   3.123   1.625 -1.0544  0.6950 -0.6268
 4347TIP3    H213048   1.839   3.015   1.536  1.0321 -0.9727  0.0075
 4348TIP3   OH213049   6.143   5.815   4.255  0.8366  0.2751  0.6790
 4348TIP3    H113050   6.231   5.780   4.270  1.4792  2.1478  1.4918
 4348TIP3    H213051   6.133   5.884   4.321 -1.3110  0.0002  0.7045
 4349TIP3   OH213052   3.333   0.089   3.039 -0.0059  0.0085 -0.6931
 4349TIP3    H113053   3.371   0.079   2.951  1.2308 -3.9773  0.0888
 4349TIP3    H213054   3.407   0.115   3.094 -0.4169  0.8893 -0.5483
 4350TIP3   OH213055   4.719   5.364   0.869  0.2343  0.0275 -0.1310
 4350TIP3    H113056   4.795   5.411   0.903 -0.3790 -0.3481  1.9485
 4350TIP3    H213057   4.645   5.421   0.888 -0.2356 -0.6188  0.0403
 4351TIP3   OH213058   3.580   2.757   1.375  0.3220 -0.3172  0.2639
 4351TIP3    H113059   3.533   2.783   1.453 -1.3739 -0.7781 -0.5621
 4351TIP3    H213060   3.528   2.792   1.302  1.0867 -1.1081 -0.6975
 4352TIP3   OH213061   6.137   1.902   2.134  0.5284 -0.2023  0.0549
 4352TIP3    H113062   6.112   1.903   2.227  1.0438 -1.6517  0.2378
 4352TIP3    H213063   6.144   1.994   2.110  1.5777  0.2239  1.8052
 4353TIP3   OH213064   1.826   2.378   2.601  0.1232  0.4864  0.2592
 4353TIP3    H113065   1.747   2.402   2.552 -0.2909 -2.2936 -0.6486
 4353TIP3    H213066   1.898   2.390   2.538 -0.1661 -1.1524 -0.4338
 4354TIP3   OH213067   4.948   3.515   1.577 -0.4894  0.4636  0.5396
 4354TIP3    H113068   4.869   3.465   1.598  1.7178 -2.6581  2.3444
 4354TIP3    H213069   5.005   3.451   1.534  1.5581  2.1724  0.5883
 4355TIP3   OH213070   3.376   1.398   3.284 -0.1970 -0.3554 -0.4165
 4355TIP3    H113071   3.394   1.461   3.354  0.7919 -1.0843  0.0107
 4355TIP3    H213072   3.284   1.377   3.295 -0.5879  1.0995 -0.6474
 4356TIP3   OH213073   3.414   0.288   4.736  0.1325 -0.2200 -0.4869
 4356TIP3    H113074   3.339   0.340   4.765  1.2258 -0.0531  2.3175
 4356TIP3    H213075   3.489   0.347   4.743  1.4710 -2.0763  3.1446
 4357TIP3   OH213076   1.605   2.575   2.386 -0.1818 -0.4005 -0.1654
 4357TIP3    H113077   1.601   2.642   2.454  1.3414 -1.0162  0.5843
 4357TIP3    H213078   1.589   2.622   2.304 -0.8139  0.5623  0.5027
 4358TIP3   OH213079   3.922   1.127   4.197  0.5738  0.4006 -0.7070
 4358TIP3    H113080   3.986   1.071   4.241  0.3217  0.5807 -0.1033
 4358TIP3    H213081   3.870   1.164   4.268  0.2387  0.7914 -1.1525
 4359TIP3   OH213082   0.973   3.814   3.453  0.3932  0.2900 -0.2395
 4359TIP3    H113083   1.050   3.793   3.506  0.4602 -0.8484 -0.7450
 4359TIP3    H213084   0.981   3.907   3.434  0.8233  0.5320  1.0035
 4360TIP3   OH213085   0.088   4.094   3.101 -0.2987  0.3994  0.3325
 4360TIP3    H113086   0.133   4.023   3.147 -1.4851  0.3061  1.4021
 4360TIP3    H213087   0.124   4.091   3.012  1.5036  0.1013  1.0279
 4361TIP3   OH213088   4.274   4.651   3.472  0.2050  0.5815 -0.2448
 4361TIP3    H113089   4.279   4.562   3.437 -2.0119 -0.8034  2.5944
 4361TIP3    H213090   4.333   4.651   3.548  1.3836  2.1055 -1.0805
 4362TIP3   OH213091   2.521   1.989   3.339  0.0895 -0.3335  0.0128
 4362TIP3    H113092   2.460   2.043   3.389  1.3459 -0.6704  2.0206
 4362TIP3    H213093   2.465   1.941   3.277 -1.6710 -0.5151  1.6415
 4363TIP3   OH213094   3.341   0.889   3.824 -0.0451 -0.0591 -0.2772
 4363TIP3    H113095   3.366   0.879   3.916 -0.7851  1.6990  0.1644
 4363TIP3    H213096   3.255   0.846   3.818 -1.0156  1.6599  0.4353
 4364TIP3   OH213097   3.488   4.717   1.944 -0.0479 -0.1580  0.4413
 4364TIP3    H113098   3.506   4.627   1.918 -0.3750 -0.6371  1.7908
 4364TIP3    H213099   3.401   4.736   1.907 -0.1383 -0.5276  0.4657
 4365TIP3   OH213100   5.251   3.039   0.500 -0.3532 -0.1050 -0.7116
 4365TIP3    H113101   5.336   3.078   0.521 -0.5185  0.4601 -1.0674
 4365TIP3    H213102   5.196   3.113   0.477 -1.6826 -0.1964  1.8876
 4366TIP3   OH213103   3.907   3.425   3.535 -0.4190 -0.8134 -0.5078
 4366TIP3    H113104   3.928   3.506   3.581  0.6075  0.2571 -2.6886
 4366TIP3    H213105   3.992   3.382   3.523 -0.7492 -1.4127 -0.7310
 4367TIP3   OH213106   5.359   1.144   4.975 -0.1138 -0.2915 -0.4687
 4367TIP3    H113107   5.270   1.118   4.999 -1.5115  3.4072 -1.1015
 4367TIP3    H213108   5.415   1.087   5.028 -2.8598 -1.4041  1.4754
 4368TIP3   OH213109   2.230   0.483   4.199  0.7127  0.1556  0.1123
 4368TIP3    H113110   2.167   0.545   4.236  1.5229  1.7452 -1.0482
 4368TIP3    H213111   2.215   0.487   4.105  2.1408  0.1297 -0.1396
 4369TIP3   OH213112   4.326   4.070   3.138  0.3320  0.8878  0.7179
 4369TIP3    H113113   4.270   4.105   3.068 -0.4719  1.1887  1.4886
 4369TIP3    H213114   4.350   3.983   3.108 -1.8716  0.0873  1.0351
 4370TIP3   OH213115   2.915   1.465   5.117  0.3143 -0.1943 -0.0287
 4370TIP3    H113116   2.982   1.433   5.056  0.6762  0.1084  0.2052
 4370TIP3    H213117   2.900   1.393   5.177  2.5281  0.6584  1.6941
 4371TIP3   OH213118   0.821   5.926   4.629 -0.2337 -0.1087 -0.5283
 4371TIP3    H113119   0.820   5.947   4.535  0.5251  2.7677 -0.0128
 4371TIP3    H213120   0.897   5.974   4.663 -1.7847  0.8055  1.9118
 4372TIP3   OH213121   1.485   0.416   1.643 -0.6432 -0.6900  0.0827
 4372TIP3    H113122   1.393   0.395   1.656 -1.3209  1.7284 -0.2684
 4372TIP3    H213123   1.507   0.383   1.556 -0.5527 -3.0420  0.9374
 4373TIP3   OH213124   3.935   3.830   0.810 -0.7990  0.1856  0.0755
 4373TIP3    H113125   3.840   3.834   0.823 -1.2390  1.3461 -2.7454
 4373TIP3    H213126   3.949   3.749   0.761 -0.3043 -0.0629  0.6230
 4374TIP3   OH213127   3.801   5.500   2.295  0.3705  0.1260  0.1526
 4374TIP3    H113128   3.719   5.545   2.316  0.3888  0.2263  0.0191
 4374TIP3    H213129   3.835   5.469   2.378  1.2744  1.9278  0.5249
 4375TIP3   OH213130   5.922   5.425   1.098  0.3922  0.3449 -0.1620
 4375TIP3    H113131   5.934   5.399   1.190 -1.1455  2.2080  0.6466
 4375TIP3    H213132   5.852   5.367   1.067 -0.7130  1.2200  0.6023
 4376TIP3   OH213133   0.788   4.514   2.578  0.5228  0.3915 -0.3565
 4376TIP3    H113134   0.870   4.550   2.612  0.6095  0.5205 -0.7030
 4376TIP3    H213135   0.806   4.420   2.567  0.5475  0.3784 -0.2119
 4377TIP3   OH213136   4.145   4.637   1.801 -0.0690 -0.1615  0.1374
 4377TIP3    H113137   4.203   4.688   1.857  0.4083  0.6034 -1.0326
 4377TIP3    H213138   4.199   4.612   1.726 -1.1174  0.1512 -0.7366
 4378TIP3   OH213139   4.116   2.475   2.250  0.1079  0.1341 -0.4363
 4378TIP3    H113140   4.125   2.474   2.155  0.2248 -0.5384 -0.4230
 4378TIP3    H213141   4.192   2.427   2.283  0.5830  1.1822  0.0510
 4379TIP3   OH213142   0.679   4.072   5.147  0.1937  0.5655  0.2709
 4379TIP3    H113143   0.750   4.127   5.112  0.1993  0.6753  0.4526
 4379TIP3    H213144   0.610   4.077   5.080  0.0652  1.0626  0.4302
 4380TIP3   OH213145   4.192   1.857   0.588  0.3962 -0.1347 -0.3901
 4380TIP3    H113146   4.187   1.762   0.596  1.1122 -0.0554  1.5480
 4380TIP3    H213147   4.286   1.877   0.592  0.1927  0.7266  0.8261
 4381TIP3   OH213148   0.389   4.807   0.294 -0.1639 -0.9060  0.6616
 4381TIP3    H113149   0.403   4.897   0.267  0.2757 -0.7634  1.3265
 4381TIP3    H213150   0.463   4.759   0.257 -1.2713 -1.3201 -1.1069
 4382TIP3   OH213151   2.856   1.102   4.016  0.2960  0.5496  0.1775
 4382TIP3    H113152   2.902   1.184   4.038  1.8506 -0.2660  0.1236
 4382TIP3    H213153   2.869   1.092   3.922  0.3244  0.1165  0.2275
 4383TIP3   OH213154   0.703   1.990   2.955  0.7526 -0.1789  0.7007
 4383TIP3    H113155   0.648   1.965   3.029  0.9034 -1.0998  0.5154
 4383TIP3    H213156   0.785   1.941   2.968  0.9401 -0.0228  0.1584
 4384TIP3   OH213157   1.249   0.498   2.477  0.3736  0.0652  0.4710
 4384TIP3    H113158   1.220   0.493   2.386 -1.8290 -0.4178  1.1168
 4384TIP3    H213159   1.254   0.592   2.495 -0.1461  0.1741  0.0955
 4385TIP3   OH213160   4.930   2.635   4.285 -0.0987 -0.4313 -0.7622
 4385TIP3    H113161   4.947   2.543   4.264  1.1558  0.1375 -2.4718
 4385TIP3    H213162   5.015   2.678   4.276 -0.5648  0.8386  0.4932
 4386TIP3   OH213163   1.033   0.215   0.679  0.1443  0.3986  0.3121
 4386TIP3    H113164   1.092   0.174   0.615 -0.1685  0.2635  0.1061
 4386TIP3    H213165   1.088   0.278   0.725  0.9131 -0.9643  1.3626
 4387TIP3   OH213166   5.546   2.425   4.746  0.0264 -0.4146  0.4662
 4387TIP3    H113167   5.587   2.402   4.830  0.1491 -2.2346 -0.0429
 4387TIP3    H213168   5.611   2.399   4.680 -1.0072 -1.1888 -0.2635
 4388TIP3   OH213169   2.819   2.287   3.778  0.6301  0.0606 -0.1607
 4388TIP3    H113170   2.901   2.281   3.828  0.8824 -0.4714 -0.6284
 4388TIP3    H213171   2.837   2.351   3.710  0.3635  0.6057  0.2726
 4389TIP3   OH213172   1.956   3.943   1.490  0.0224  0.3048 -0.4664
 4389TIP3    H113173   1.915   3.860   1.509  0.5053 -0.2285 -1.6235
 4389TIP3    H213174   1.905   3.980   1.417 -0.7470  1.4689  0.6159
 4390TIP3   OH213175   3.418   3.251   2.518  0.1031  0.4468  0.0221
 4390TIP3    H113176   3.486   3.199   2.476 -0.9340 -0.5023 -0.4989
 4390TIP3    H213177   3.467   3.320   2.564  1.4458 -0.4867  0.0577
 4391TIP3   OH213178   1.931   5.894   0.259  0.1947  0.2929 -0.4081
 4391TIP3    H113179   1.876   5.818   0.241  0.8952 -0.1810 -0.5481
 4391TIP3    H213180   1.870   5.959   0.296 -0.5644 -0.0293 -1.0598
 4392TIP3   OH213181   4.027   4.297   2.647 -0.2468  0.1427 -0.7420
 4392TIP3    H113182   4.012   4.343   2.564  2.8950 -2.1667 -2.8137
 4392TIP3    H213183   4.115   4.324   2.674 -0.5964 -0.3405  1.0831
 4393TIP3   OH213184   5.072   5.156   4.542 -0.2183 -0.1245 -0.2216
 4393TIP3    H113185   5.133   5.229   4.536  1.3024 -1.4546 -1.4726
 4393TIP3    H213186   5.062   5.141   4.636 -0.1424  1.3290  0.0379
 4394TIP3   OH213187   5.459   5.468   0.837 -0.3162  0.0390 -0.1944
 4394TIP3    H113188   5.437   5.463   0.745 -0.6108 -0.4266 -0.1008
 4394TIP3    H213189   5.541   5.420   0.845  0.3180  1.0586 -0.4011
 4395TIP3   OH213190   1.161   4.288   1.753  0.3809  0.0407 -0.5688
 4395TIP3    H113191   1.066   4.274   1.754  0.4669 -0.5783 -0.6394
 4395TIP3    H213192   1.182   4.297   1.660  0.1057  2.3467 -0.4788
 4396TIP3   OH213193   3.281   5.589   4.019  0.2726  0.3015 -0.0124
 4396TIP3    H113194   3.189   5.566   4.026  0.5013 -0.6775 -0.0645
 4396TIP3    H213195   3.312   5.589   4.110  0.2700  0.3960 -0.0122
 4397TIP3   OH213196   3.713   3.268   4.330  0.3776  0.4880 -0.2756
 4397TIP3    H113197   3.740   3.293   4.419 -0.7810  3.2270 -0.6009
 4397TIP3    H213198   3.771   3.318   4.272 -0.4641  0.6376 -1.0171
 4398TIP3   OH213199   5.656   3.954   0.240 -0.7306 -0.3190 -0.1426
 4398TIP3    H113200   5.603   3.892   0.189 -0.1124 -0.5640 -0.4944
 4398TIP3    H213201   5.720   3.987   0.178 -0.9261  0.5349  0.0936
 4399TIP3   OH213202   3.294   3.545   3.345 -0.0063  0.1512 -0.0354
 4399TIP3    H113203   3.281   3.535   3.439 -0.2073 -0.9600 -0.1755
 4399TIP3    H213204   3.386   3.523   3.331 -0.4298 -1.5478 -0.3330
 4400TIP3   OH213205   3.942   3.396   2.865  0.2497  0.3783 -0.4694
 4400TIP3    H113206   3.996   3.317   2.872 -1.4515 -0.9014 -0.9800
 4400TIP3    H213207   3.988   3.461   2.918  1.4968 -1.0682  0.3230
 4401TIP3   OH213208   1.412   4.614   0.666 -0.0428  0.0640 -0.0060
 4401TIP3    H113209   1.493   4.637   0.713  1.0683  0.1564 -1.8441
 4401TIP3    H213210   1.342   4.633   0.729  1.2709  1.3768  1.1688
 4402TIP3   OH213211   4.132   0.539   2.101  0.1455 -0.1487  0.7340
 4402TIP3    H113212   4.160   0.628   2.126  0.6636 -0.1040  0.0212
 4402TIP3    H213213   4.042   0.551   2.071  0.1060  0.0833  0.9344
 4403TIP3   OH213214   1.210   2.536   3.579 -0.3985  0.5703 -0.3629
 4403TIP3    H113215   1.147   2.538   3.507 -0.6499  0.3513 -0.1495
 4403TIP3    H213216   1.283   2.590   3.548  0.7250 -1.6716 -1.8927
 4404TIP3   OH213217   2.375   1.379   1.819  0.2483 -0.7380 -0.1693
 4404TIP3    H113218   2.400   1.343   1.904 -0.6025 -0.5698  0.1676
 4404TIP3    H213219   2.457   1.390   1.772  0.6831 -1.3044  0.4457
 4405TIP3   OH213220   0.480   5.793   1.733  0.2168 -0.0873  0.0580
 4405TIP3    H113221   0.512   5.781   1.822 -0.0715  2.7267  0.6430
 4405TIP3    H213222   0.424   5.717   1.716 -0.8628 -0.0015  2.8310
 4406TIP3   OH213223   4.274   3.031   2.716  0.1772 -0.1120 -0.5826
 4406TIP3    H113224   4.214   2.959   2.736 -1.6862  1.3149 -0.6684
 4406TIP3    H213225   4.255   3.054   2.625  1.0931  0.1725 -0.7138
 4407TIP3   OH213226   1.200   4.451   4.961  0.2072 -0.0673 -0.1996
 4407TIP3    H113227   1.208   4.508   4.885  0.1664  0.6072  0.2903
 4407TIP3    H213228   1.234   4.503   5.034  0.7447 -0.8980  0.1577
 4408TIP3   OH213229   2.716   2.449   4.313 -0.5143  0.3788 -0.0574
 4408TIP3    H113230   2.629   2.474   4.343 -0.8864 -0.8504 -0.0514
 4408TIP3    H213231   2.748   2.387   4.380  0.1296  0.3939 -0.3416
 4409TIP3   OH213232   1.530   2.116   4.820  0.2775 -0.0241 -0.6652
 4409TIP3    H113233   1.515   2.184   4.886  1.0418 -0.6688  0.2005
 4409TIP3    H213234   1.619   2.133   4.788 -0.1201  0.3340 -1.5998
 4410TIP3   OH213235   2.282   5.934   4.381  0.0991 -0.8034  0.1381
 4410TIP3    H113236   2.312   5.936   4.290 -1.6473  1.3855 -0.4869
 4410TIP3    H213237   2.358   5.905   4.431  1.5785 -0.5480 -1.8427
 4411TIP3   OH213238   4.021   4.054   1.121  0.4852 -0.3718  0.0112
 4411TIP3    H113239   3.931   4.026   1.139  0.5136 -0.9591 -0.7282
 4411TIP3    H213240   4.069   3.973   1.105  1.0958 -0.0461  0.1544
 4412TIP3   OH213241   4.864   0.332   4.811  0.0967  0.1013 -0.1226
 4412TIP3    H113242   4.952   0.296   4.821  0.6543  1.2336 -0.7147
 4412TIP3    H213243   4.879   0.422   4.782 -1.2368  0.6408  0.7612
 4413TIP3   OH213244   3.749   3.688   2.266 -0.1285  0.0618 -0.3945
 4413TIP3    H113245   3.756   3.593   2.263 -0.2394  0.0315  0.2964
 4413TIP3    H213246   3.705   3.712   2.184 -1.8810 -0.6333  0.3128
 4414TIP3   OH213247   0.819   0.490   4.451 -0.0240  0.0565  0.3677
 4414TIP3    H113248   0.728   0.463   4.440 -0.3940  0.5080  1.9738
 4414TIP3    H213249   0.854   0.429   4.516  0.3346  0.8874  0.9671
 4415TIP3   OH213250   2.067   0.916   2.976 -0.5696 -0.2959 -0.2380
 4415TIP3    H113251   2.145   0.972   2.975 -0.6802 -0.0766  1.3087
 4415TIP3    H213252   2.015   0.949   3.049 -2.1003 -0.4820 -1.2163
 4416TIP3   OH213253   2.808   5.056   1.650 -0.1331  0.1229 -0.5955
 4416TIP3    H113254   2.757   5.015   1.720  0.4667 -1.0802 -0.8322
 4416TIP3    H213255   2.754   5.129   1.621 -0.8566  0.0242  0.4302
 4417TIP3   OH213256   4.840   5.710   0.087 -0.5521 -0.2249 -0.2864
 4417TIP3    H113257   4.871   5.656   0.013  0.5515  2.3014 -1.8055
 4417TIP3    H213258   4.768   5.761   0.050  0.1316  1.2034  0.2944
 4418TIP3   OH213259   5.311   3.792   0.374  0.3106 -0.0585  0.0756
 4418TIP3    H113260   5.355   3.795   0.289  0.9838 -1.5788  0.3438
 4418TIP3    H213261   5.340   3.710   0.413 -0.0207  0.5988  1.7678
 4419TIP3   OH213262   1.256   0.365   2.091 -0.1782 -0.1150  0.1885
 4419TIP3    H113263   1.226   0.348   2.002  1.7309 -0.8862 -0.3568
 4419TIP3    H213264   1.197   0.433   2.124 -1.4118 -0.3844 -1.3690
 4420TIP3   OH213265   1.374   2.515   1.859  0.1032  0.1051 -0.0480
 4420TIP3    H113266   1.332   2.552   1.937 -1.0475  1.4836 -1.2831
 4420TIP3    H213267   1.309   2.454   1.824  0.6368 -0.5412  0.0584
 4421TIP3   OH213268   3.934   0.246   1.924  0.2740 -0.3210  0.0459
 4421TIP3    H113269   3.876   0.288   1.987  0.3297  0.6887 -0.5523
 4421TIP3    H213270   3.883   0.244   1.843  0.3001 -1.3654  0.0333
 4422TIP3   OH213271   2.362   2.125   2.699  0.3405 -0.1631 -0.4547
 4422TIP3    H113272   2.437   2.150   2.753 -0.2908 -2.7037  1.7909
 4422TIP3    H213273   2.391   2.048   2.651 -1.4052 -2.8652  2.4315
 4423TIP3   OH213274   2.483   1.268   1.282  0.4915  0.2346 -0.0642
 4423TIP3    H113275   2.536   1.326   1.228 -1.6153  1.4062 -0.9811
 4423TIP3    H213276   2.488   1.183   1.239 -1.7580  1.2978 -2.6946
 4424TIP3   OH213277   0.947   5.592   0.342  0.4387  0.3627  0.1818
 4424TIP3    H113278   0.858   5.620   0.359 -0.2216 -0.8101 -1.1551
 4424TIP3    H213279   0.963   5.520   0.403  0.9611  1.3956  1.3096
 4425TIP3   OH213280   4.086   2.662   0.980  0.0940  0.7608  0.0586
 4425TIP3    H113281   4.021   2.729   1.002  0.4907  0.6074  1.8857
 4425TIP3    H213282   4.093   2.609   1.060 -0.1931 -1.4622 -1.3094
 4426TIP3   OH213283   3.152   1.445   2.984 -0.2298  0.5752 -0.6023
 4426TIP3    H113284   3.148   1.458   2.889  1.7508 -0.6788 -0.9343
 4426TIP3    H213285   3.238   1.479   3.009  0.1867 -1.0715  0.3568
 4427TIP3   OH213286   3.382   3.744   3.150 -0.6286 -0.4758 -0.4397
 4427TIP3    H113287   3.468   3.722   3.186  0.1603 -2.4751 -3.1475
 4427TIP3    H213288   3.322   3.681   3.190 -0.6006  0.0936  0.5110
 4428TIP3   OH213289   5.701   1.304   4.148 -0.4732  0.5892 -0.4222
 4428TIP3    H113290   5.680   1.213   4.165  0.1225  0.7779  1.5540
 4428TIP3    H213291   5.716   1.342   4.235  0.9082  2.1674 -1.2928
 4429TIP3   OH213292   0.845   3.456   0.271  0.1076 -0.3693  0.1160
 4429TIP3    H113293   0.879   3.409   0.194  0.2777  1.0452 -0.7115
 4429TIP3    H213294   0.905   3.530   0.282  1.0938 -1.4286  2.6866
 4430TIP3   OH213295   1.882   5.874   2.463  0.2859  0.3785  0.3147
 4430TIP3    H113296   1.874   5.863   2.558 -1.1091 -0.0800  0.1567
 4430TIP3    H213297   1.976   5.886   2.449  0.4572  1.1495  1.8234
 4431TIP3   OH213298   0.336   0.117   3.564  0.1181 -0.5402 -0.7272
 4431TIP3    H113299   0.369   0.137   3.476 -0.2547  1.4121 -0.4629
 4431TIP3    H213300   0.410   0.075   3.608  0.5085 -0.9879 -1.7745
 4432TIP3   OH213301   0.160   3.822   4.057 -0.4442 -0.4224  0.7539
 4432TIP3    H113302   0.228   3.887   4.044 -1.9178  1.1107  0.3545
 4432TIP3    H213303   0.202   3.738   4.038  0.7449  0.6501 -1.6674
 4433TIP3   OH213304   4.404   1.085   0.542  0.2421  0.3697  0.2264
 4433TIP3    H113305   4.483   1.112   0.496 -1.2010  1.8181 -1.5807
 4433TIP3    H213306   4.408   0.989   0.542  2.4083  0.4120  1.0181
 4434TIP3   OH213307   5.029   0.384   2.637 -0.4799  0.1535  0.6773
 4434TIP3    H113308   4.987   0.299   2.624  2.9903 -1.9372  1.8934
 4434TIP3    H213309   5.010   0.433   2.557 -4.0181 -0.9893  0.6481
 4435TIP3   OH213310   0.077   1.273   1.874  0.3495  0.2627 -0.0609
 4435TIP3    H113311   0.123   1.282   1.957 -0.9362 -0.1303  0.7215
 4435TIP3    H213312   0.144   1.244   1.813  0.9584 -1.3015  1.2782
 4436TIP3   OH213313   1.285   5.376   3.762 -0.4095 -0.4341 -0.1744
 4436TIP3    H113314   1.273   5.300   3.820 -0.9303 -1.1982 -1.2537
 4436TIP3    H213315   1.276   5.340   3.674 -2.0665  1.1053 -0.6848
 4437TIP3   OH213316   2.952   1.412   0.815 -0.0600  0.2310 -0.4609
 4437TIP3    H113317   2.928   1.320   0.818  1.5698 -0.2230  0.3565
 4437TIP3    H213318   2.987   1.425   0.727 -0.9622  0.2722 -0.8216
 4438TIP3   OH213319   4.317   2.919   3.977  0.4224 -0.3367 -0.2091
 4438TIP3    H113320   4.367   2.838   3.979  1.2931  0.1918  1.9316
 4438TIP3    H213321   4.340   2.965   4.058  0.3298  2.2727 -1.5313
 4439TIP3   OH213322   2.049   0.082   1.279 -0.2395  0.1523  0.4862
 4439TIP3    H113323   2.134   0.124   1.289 -0.5955  0.7472  1.0761
 4439TIP3    H213324   2.053   0.040   1.193  1.2504 -1.2394  1.1915
 4440TIP3   OH213325   2.477   1.890   3.998 -0.0255  0.1841  0.5988
 4440TIP3    H113326   2.401   1.872   3.942 -0.8854  1.4946  1.2728
 4440TIP3    H213327   2.484   1.986   3.998  3.2788  0.0883 -1.5459
 4441TIP3   OH213328   4.248   1.595   1.746  0.1199 -0.0913  0.5107
 4441TIP3    H113329   4.258   1.524   1.683 -1.0467  0.9980 -0.9627
 4441TIP3    H213330   4.302   1.666   1.710  0.3047  0.1879  1.3212
 4442TIP3   OH213331   4.016   0.621   0.637 -0.5297  0.3097 -0.5424
 4442TIP3    H113332   3.990   0.561   0.568 -0.0236  0.7528 -1.1275
 4442TIP3    H213333   4.034   0.565   0.713 -1.8277 -0.1132 -0.5284
 4443TIP3   OH213334   4.715   1.442   1.931  0.0050  0.0979  0.1007
 4443TIP3    H113335   4.712   1.537   1.934  0.0834  0.2154 -2.3303
 4443TIP3    H213336   4.807   1.420   1.944 -0.2506  0.1775  2.6159
 4444TIP3   OH213337   0.398   5.285   2.777 -0.4012 -0.5685  0.2634
 4444TIP3    H113338   0.354   5.365   2.749  2.1756  0.2402 -1.8555
 4444TIP3    H213339   0.336   5.215   2.756 -1.8048  0.6747  0.1001
 4445TIP3   OH213340   4.339   2.611   1.311  0.4655  0.4141  0.3233
 4445TIP3    H113341   4.406   2.667   1.272  1.5515 -2.9962 -3.4078
 4445TIP3    H213342   4.257   2.643   1.273  0.8868  0.4217 -0.6158
 4446TIP3   OH213343   2.752   2.655   2.540 -0.2884  0.4021  0.7486
 4446TIP3    H113344   2.703   2.654   2.622 -0.6536 -1.0199  0.5248
 4446TIP3    H213345   2.790   2.568   2.533 -0.2670  0.4994 -0.5985
 4447TIP3   OH213346   1.554   4.619   1.571 -0.2322 -0.1085 -0.0122
 4447TIP3    H113347   1.580   4.707   1.596 -0.6718 -0.1612  0.6462
 4447TIP3    H213348   1.627   4.564   1.597  0.6639  0.2145 -1.6958
 4448TIP3   OH213349   3.584   2.696   0.438 -0.3431  0.3448  0.0119
 4448TIP3    H113350   3.603   2.778   0.393  1.2239  0.7772  1.3727
 4448TIP3    H213351   3.668   2.666   0.471 -1.4596  0.6281  3.5267
 4449TIP3   OH213352   5.881   0.878   1.683  0.2623 -0.3078  0.5676
 4449TIP3    H113353   5.920   0.800   1.644  2.9444  0.5866  1.3012
 4449TIP3    H213354   5.926   0.889   1.766 -0.5780  1.6356  0.8230
 4450TIP3   OH213355   2.545   2.400   2.541  0.2477  0.6244 -0.7552
 4450TIP3    H113356   2.463   2.360   2.570  0.3849  1.3397  0.7547
 4450TIP3    H213357   2.575   2.449   2.618  1.3872  1.4943 -1.7260
 4451TIP3   OH213358   6.221   3.520   2.844  0.0126 -0.0004  0.5212
 4451TIP3    H113359   6.304   3.504   2.889 -1.2659 -1.5656  2.4913
 4451TIP3    H213360   6.219   3.456   2.773 -0.0078 -0.8135  1.2358
 4452TIP3   OH213361   3.856   3.428   3.229  0.4119 -0.0296  0.6167
 4452TIP3    H113362   3.853   3.336   3.255  0.3314 -0.3038 -0.3311
 4452TIP3    H213363   3.887   3.474   3.308  0.6343 -0.8814  1.0399
 4453TIP3   OH213364   1.178   2.825   4.517 -0.2098  0.0677 -0.1727
 4453TIP3    H113365   1.168   2.785   4.430  1.4308 -0.7338 -0.0389
 4453TIP3    H213366   1.125   2.769   4.575 -1.3056  0.6002 -0.6292
 4454TIP3   OH213367   2.279   2.432   2.653  0.5833 -0.4277 -0.4617
 4454TIP3    H113368   2.268   2.393   2.740 -0.5902 -0.6196 -0.6801
 4454TIP3    H213369   2.213   2.390   2.599  0.9342  0.0901 -1.3199
 4455TIP3   OH213370   2.843   0.404   2.065  0.2151 -0.0070  0.5147
 4455TIP3    H113371   2.813   0.314   2.069  0.2728 -0.0290  0.4569
 4455TIP3    H213372   2.763   0.456   2.053  0.0707  0.0336  1.5297
 4456TIP3   OH213373   3.115   2.629   5.101  0.3346  0.2310  0.1932
 4456TIP3    H113374   3.041   2.690   5.097 -0.4210 -0.6674  0.0415
 4456TIP3    H213375   3.105   2.584   5.185 -0.0370 -0.7764 -0.3645
 4457TIP3   OH213376   2.072   5.835   2.914 -0.3552 -0.5503 -0.3625
 4457TIP3    H113377   2.079   5.912   2.969 -0.6913  0.1154 -1.2201
 4457TIP3    H213378   2.148   5.781   2.937  0.5532  0.5886 -0.5847
 4458TIP3   OH213379   4.806   1.417   4.566 -0.0446  0.2409  0.1209
 4458TIP3    H113380   4.769   1.503   4.542  0.3411  0.0381 -1.2752
 4458TIP3    H213381   4.867   1.397   4.496  1.4327 -0.2515  1.5022
 4459TIP3   OH213382   0.177   1.430   3.588 -0.6028 -0.3357 -0.1841
 4459TIP3    H113383   0.159   1.347   3.632 -0.5228  0.8985  2.3698
 4459TIP3    H213384   0.094   1.453   3.545 -0.8131 -1.4027 -0.3746
 4460TIP3   OH213385   3.758   4.620   3.461 -0.2724 -1.0394 -0.3451
 4460TIP3    H113386   3.745   4.575   3.377  0.9237 -2.5974  0.2464
 4460TIP3    H213387   3.850   4.648   3.459 -0.4391 -0.4302  0.1553
 4461TIP3   OH213388   5.626   2.988   1.085 -0.2139  0.5724  0.5410
 4461TIP3    H113389   5.535   2.966   1.067  0.0326 -0.3587  0.4065
 4461TIP3    H213390   5.677   2.934   1.024  0.4190  1.3332  0.3783
 4462TIP3   OH213391   5.104   1.170   3.173 -0.1703 -0.1650 -0.5784
 4462TIP3    H113392   5.153   1.222   3.108  0.4364 -0.3047 -0.2413
 4462TIP3    H213393   5.059   1.236   3.226  1.0208  0.0752  0.1857
 4463TIP3   OH213394   1.728   3.067   0.059  0.6134 -0.0034 -0.3034
 4463TIP3    H113395   1.770   3.092   0.142  2.3616  0.0320 -1.1502
 4463TIP3    H213396   1.687   3.148   0.028 -1.7625 -0.4433  1.4051
 4464TIP3   OH213397   6.283   2.765   4.681 -0.0267 -0.0827 -0.4735
 4464TIP3    H113398   6.192   2.793   4.681  0.0577  0.2361  0.9948
 4464TIP3    H213399   6.329   2.831   4.629 -0.5489 -0.0007 -0.8321
 4465TIP3   OH213400   1.855   4.493   0.584 -0.5251  0.0464  0.2931
 4465TIP3    H113401   1.795   4.491   0.659 -0.8767 -0.3399  0.0110
 4465TIP3    H213402   1.935   4.531   0.618 -1.1979  1.3495  0.4935
 4466TIP3   OH213403   5.283   0.285   4.571 -0.3123 -0.1011 -0.0514
 4466TIP3    H113404   5.287   0.371   4.613 -1.8196 -0.1585  0.2723
 4466TIP3    H213405   5.201   0.247   4.602 -1.0944 -0.4855 -2.4201
 4467TIP3   OH213406   0.961   3.728   3.137 -0.1173 -0.2098  0.0626
 4467TIP3    H113407   1.027   3.659   3.140  0.8373  0.6227 -0.9376
 4467TIP3    H213408   0.969   3.773   3.221 -1.3352 -1.7935  1.0887
 4468TIP3   OH213409   5.912   3.282   4.845 -0.4377 -0.3649  0.4941
 4468TIP3    H113410   6.006   3.263   4.840 -0.4349 -0.3980  0.6940
 4468TIP3    H213411   5.904   3.370   4.808 -0.4505 -0.7470 -0.4526
 4469TIP3   OH213412   4.999   0.463   4.159 -0.4411  0.1138 -0.1248
 4469TIP3    H113413   4.952   0.421   4.231  1.1875 -2.5235 -0.4825
 4469TIP3    H213414   5.044   0.391   4.115  2.9064  2.2956 -0.5539
 4470TIP3   OH213415   3.974   1.517   0.870 -0.4155 -0.1150 -0.0388
 4470TIP3    H113416   3.919   1.448   0.908 -0.3114 -0.2231 -0.0844
 4470TIP3    H213417   3.912   1.581   0.836 -0.5768 -1.0590 -1.6663
 4471TIP3   OH213418   4.241   1.652   4.116  0.1180 -0.6667  0.2091
 4471TIP3    H113419   4.189   1.672   4.038 -0.3705 -0.2766  0.6209
 4471TIP3    H213420   4.303   1.725   4.123  0.9784 -1.3147 -0.4852
 4472TIP3   OH213421   4.061   0.935   2.022  0.5784  0.0174 -1.0884
 4472TIP3    H113422   4.007   0.893   1.955  0.3313 -0.5760 -0.5366
 4472TIP3    H213423   4.107   0.863   2.065  1.7453  0.5033 -1.4714
 4473TIP3   OH213424   5.300   2.861   3.006 -0.5089 -0.1404 -0.7349
 4473TIP3    H113425   5.289   2.949   3.044  0.0734 -0.1368 -0.5663
 4473TIP3    H213426   5.296   2.875   2.912  1.8915  0.4249 -0.8123
 4474TIP3   OH213427   4.725   4.474   1.390  0.5154 -0.1280  0.2011
 4474TIP3    H113428   4.696   4.454   1.480  1.0762 -0.5296  0.3029
 4474TIP3    H213429   4.656   4.438   1.335  0.7167 -0.9249  0.4444
 4475TIP3   OH213430   6.077   2.401   2.199 -0.3922  0.3914  0.1328
 4475TIP3    H113431   6.033   2.477   2.237 -0.3873  0.6391 -0.3491
 4475TIP3    H213432   6.161   2.435   2.169 -0.8467  0.4700 -1.1213
 4476TIP3   OH213433   5.215   0.483   0.156 -0.3766 -0.0914 -0.2629
 4476TIP3    H113434   5.219   0.388   0.168 -0.5961 -0.1191 -0.4043
 4476TIP3    H213435   5.225   0.496   0.062  0.5331  0.0795 -0.1538
 4477TIP3   OH213436   5.871   5.803   2.571  0.1581 -0.2778 -0.5355
 4477TIP3    H113437   5.962   5.775   2.582  0.3701  0.4414 -0.4234
 4477TIP3    H213438   5.871   5.895   2.595 -0.7822 -0.4899  0.3606
 4478TIP3   OH213439   0.658   4.108   3.359 -0.5109  0.0888  0.4459
 4478TIP3    H113440   0.735   4.054   3.342  0.3355  1.0528  1.1337
 4478TIP3    H213441   0.588   4.044   3.375  0.1540 -0.7998 -0.0858
 4479TIP3   OH213442   6.321   5.674   4.771 -0.0656  0.0095 -0.0138
 4479TIP3    H113443   6.313   5.693   4.865  2.3206 -1.0894  0.4885
 4479TIP3    H213444   6.402   5.717   4.744  1.3743 -2.8128 -0.5894
 4480TIP3   OH213445   1.598   4.758   0.444 -0.1316  0.0055 -0.3440
 4480TIP3    H113446   1.534   4.705   0.491  0.3159  1.4414  2.1106
 4480TIP3    H213447   1.683   4.732   0.480  0.3411  0.4845 -1.0678
 4481TIP3   OH213448   5.548   0.556   1.673  0.6908 -0.1320 -0.0218
 4481TIP3    H113449   5.585   0.534   1.588  1.4688  0.4279  0.1626
 4481TIP3    H213450   5.573   0.484   1.730  0.8252 -0.1365 -0.0863
 4482TIP3   OH213451   0.961   4.306   1.429  0.6845  0.0376  0.0900
 4482TIP3    H113452   0.879   4.321   1.382  1.1647  1.1620 -0.4372
 4482TIP3    H213453   0.982   4.214   1.412  0.2776  0.1210 -0.9879
 4483TIP3   OH213454   5.029   0.295   1.265  0.7419 -0.5116  0.2045
 4483TIP3    H113455   5.084   0.291   1.343  0.8819  1.5638  0.2757
 4483TIP3    H213456   4.988   0.209   1.260  1.8414 -1.1767  1.7310
 4484TIP3   OH213457   4.030   4.122   0.868  0.0232  0.5227  0.1121
 4484TIP3    H113458   4.053   4.037   0.831  0.5320  1.0114 -0.7394
 4484TIP3    H213459   4.005   4.103   0.959  1.1554 -0.3931  0.2577
 4485TIP3   OH213460   1.653   1.535   2.374 -0.0114  0.7422 -0.2824
 4485TIP3    H113461   1.644   1.445   2.343  0.0867  1.2355 -1.8199
 4485TIP3    H213462   1.605   1.536   2.457  1.1558 -1.0438  0.4748
 4486TIP3   OH213463   3.156   0.258   0.817 -0.3550  0.3408  0.3170
 4486TIP3    H113464   3.135   0.246   0.724 -0.1501  0.2849  0.2775
 4486TIP3    H213465   3.153   0.170   0.854 -1.5034  0.4852  0.5920
 4487TIP3   OH213466   5.334   2.948   1.195 -0.4677 -0.1074 -0.0699
 4487TIP3    H113467   5.262   3.003   1.164  0.7879  1.0424 -1.0619
 4487TIP3    H213468   5.392   3.008   1.242 -0.6306 -1.2101  1.6547
 4488TIP3   OH213469   4.217   1.240   1.337  0.7150 -0.4889 -0.2947
 4488TIP3    H113470   4.268   1.172   1.381  0.5506 -0.8621 -0.6804
 4488TIP3    H213471   4.146   1.193   1.293 -1.3135  0.1711  2.0077
 4489TIP3   OH213472   3.425   0.431   4.300  0.4460  0.5380  0.3051
 4489TIP3    H113473   3.435   0.461   4.391  0.3570 -0.8209  0.7917
 4489TIP3    H213474   3.421   0.336   4.307  2.1265  0.2995 -1.3021
 4490TIP3   OH213475   4.424   2.867   3.309 -0.1510  0.4666 -0.0156
 4490TIP3    H113476   4.480   2.803   3.265 -1.2790  0.2043 -1.1236
 4490TIP3    H213477   4.482   2.911   3.371  1.6823  1.2648 -2.1484
 4491TIP3   OH213478   4.306   4.289   4.223  0.1041  0.4529 -0.1600
 4491TIP3    H113479   4.264   4.216   4.269 -0.8034  1.2721  0.3379
 4491TIP3    H213480   4.259   4.367   4.253  1.3210  1.2937 -0.3756
 4492TIP3   OH213481   1.341   3.351   3.642  0.7861 -0.5956 -0.9091
 4492TIP3    H113482   1.396   3.341   3.720  0.0479 -1.6944 -0.5074
 4492TIP3    H213483   1.403   3.368   3.571  1.5315 -0.3882 -0.2266
 4493TIP3   OH213484   3.295   3.862   0.351 -0.5699 -0.7971 -0.2937
 4493TIP3    H113485   3.341   3.788   0.392  0.5447 -0.4954 -0.9355
 4493TIP3    H213486   3.278   3.832   0.261  0.7852  0.0348 -0.8783
 4494TIP3   OH213487   4.054   5.165   0.527 -0.1966 -0.0752  0.0696
 4494TIP3    H113488   4.078   5.102   0.460 -1.0104 -1.1690  0.7797
 4494TIP3    H213489   3.964   5.143   0.550  0.2741 -0.1560  1.9722
 4495TIP3   OH213490   4.623   0.822   0.355  0.3423  0.0159  0.3808
 4495TIP3    H113491   4.551   0.857   0.303 -0.3120 -0.9003  0.6416
 4495TIP3    H213492   4.702   0.846   0.306 -0.1584  0.6836 -0.1139
 4496TIP3   OH213493   1.001   1.926   3.348  0.3221 -0.6265  0.0155
 4496TIP3    H113494   1.095   1.927   3.366  0.0079 -0.3989  1.8760
 4496TIP3    H213495   0.987   1.999   3.289  1.1742 -0.0039  0.5661
 4497TIP3   OH213496   3.670   4.430   3.261  0.0243 -0.4170  0.1511
 4497TIP3    H113497   3.659   4.457   3.170 -0.4560 -1.1008  0.0020
 4497TIP3    H213498   3.596   4.372   3.278  1.5093 -2.4303  0.1544
 4498TIP3   OH213499   2.314   1.803   0.161 -0.2292 -0.2342  0.3165
 4498TIP3    H113500   2.345   1.714   0.142 -1.4742 -0.2463 -2.0496
 4498TIP3    H213501   2.222   1.792   0.185 -0.7563  0.4475 -1.2242
 4499TIP3   OH213502   4.874   3.556   4.434  0.1896  0.0301 -0.2620
 4499TIP3    H113503   4.917   3.639   4.412  1.1603 -0.5997 -0.8458
 4499TIP3    H213504   4.931   3.518   4.502 -1.6699  1.0132  1.9917
 4500TIP3   OH213505   6.327   2.383   2.701  0.6663  0.7187  0.1620
 4500TIP3    H113506   6.310   2.289   2.696 -1.0030  0.7477  2.8451
 4500TIP3    H213507   6.308   2.416   2.613 -2.9179 -0.9442  0.1124
 4501TIP3   OH213508   6.106   5.226   3.326 -0.2692 -0.2682 -0.1813
 4501TIP3    H113509   6.105   5.213   3.421 -1.4347  0.1912 -0.1105
 4501TIP3    H213510   6.014   5.238   3.303  0.0641  0.3012 -1.2767
 4502TIP3   OH213511   3.962   1.291   0.656  0.0043 -0.7891  0.8666
 4502TIP3    H113512   3.886   1.237   0.633 -0.2141  0.3300 -1.2882
 4502TIP3    H213513   3.927   1.357   0.714 -0.5995 -0.5636  0.2621
 4503TIP3   OH213514   5.980   0.377   0.871 -0.1673  0.0659  0.1205
 4503TIP3    H113515   6.057   0.432   0.874  0.0313 -0.2019 -0.0089
 4503TIP3    H213516   5.963   0.365   0.777  0.3152 -0.8175  0.1372
 4504TIP3   OH213517   2.782   0.658   1.896 -0.4733 -0.8413 -0.3082
 4504TIP3    H113518   2.727   0.668   1.974 -0.1581  2.9670 -0.3732
 4504TIP3    H213519   2.721   0.656   1.823 -0.7265 -3.6171 -0.1211
 4505TIP3   OH213520   4.050   1.285   4.545 -0.3597  0.2890  0.0260
 4505TIP3    H113521   3.997   1.222   4.595 -0.3984  0.6855  0.4855
 4505TIP3    H213522   4.140   1.269   4.574 -0.3077  0.0888 -0.2442
 4506TIP3   OH213523   1.770   0.136   2.615  0.0728 -0.7440 -0.3718
 4506TIP3    H113524   1.811   0.222   2.628 -0.0219 -0.2923 -2.6428
 4506TIP3    H213525   1.678   0.150   2.635  0.2809 -0.6788  0.5856
 4507TIP3   OH213526   0.703   4.511   4.621 -0.4619 -0.3427  0.2627
 4507TIP3    H113527   0.641   4.543   4.686 -1.3850 -1.1638 -0.1980
 4507TIP3    H213528   0.649   4.484   4.547  0.5440  0.2851 -0.7447
 4508TIP3   OH213529   6.018   1.139   2.891  0.6044 -0.5618 -0.0578
 4508TIP3    H113530   6.007   1.052   2.851  3.4059 -2.1243  2.1796
 4508TIP3    H213531   6.016   1.122   2.985 -2.6524  2.4911  0.6353
 4509TIP3   OH213532   1.110   1.528   3.572  0.0808 -0.1545  0.1571
 4509TIP3    H113533   1.072   1.473   3.640 -0.3738 -0.2272 -0.1490
 4509TIP3    H213534   1.169   1.470   3.524  1.0702  0.1181  1.0248
 4510TIP3   OH213535   2.400   5.537   0.459  0.3662  0.0931 -0.4410
 4510TIP3    H113536   2.465   5.530   0.389 -0.3125 -0.6169 -1.0204
 4510TIP3    H213537   2.328   5.588   0.421  0.5463  0.8195  0.1720
 4511TIP3   OH213538   2.341   0.223   2.782  0.4374  0.4122 -0.6098
 4511TIP3    H113539   2.261   0.202   2.735  0.4241  0.1273 -0.4659
 4511TIP3    H213540   2.313   0.280   2.853  0.0239 -1.2899  0.6776
 4512TIP3   OH213541   2.470   3.614   0.925  0.3655  0.0575 -0.4626
 4512TIP3    H113542   2.482   3.535   0.978 -0.7137  1.2514  1.6736
 4512TIP3    H213543   2.376   3.615   0.906  0.5493  0.2897 -1.4173
 4513TIP3   OH213544   3.253   2.101   4.524 -0.6269 -0.5951 -0.0099
 4513TIP3    H113545   3.195   2.049   4.468 -3.0979  1.5925  0.3230
 4513TIP3    H213546   3.307   2.150   4.462 -0.0313 -1.6167 -0.3392
 4514TIP3   OH213547   0.009   1.744   3.422  0.0380 -0.6193 -0.1439
 4514TIP3    H113548  -0.031   1.812   3.476 -0.3493 -0.2820 -0.8441
 4514TIP3    H213549   0.103   1.759   3.431 -0.0425  0.0255 -0.3149
 4515TIP3   OH213550   2.273   4.135   0.044  0.0838  0.1999 -0.0399
 4515TIP3    H113551   2.195   4.102   0.089  0.1745  0.9432  0.6966
 4515TIP3    H213552   2.240   4.205  -0.013  0.3329  1.3045  1.1315
 4516TIP3   OH213553   4.245   4.852   3.787  0.3183 -0.0180  0.0156
 4516TIP3    H113554   4.186   4.882   3.718  0.8585 -0.6825 -0.7518
 4516TIP3    H213555   4.191   4.853   3.867 -0.3260  0.7023 -0.4102
 4517TIP3   OH213556   0.603   3.171   1.624 -0.2384 -0.2570 -0.0512
 4517TIP3    H113557   0.637   3.260   1.634  0.4775 -0.7255  2.3646
 4517TIP3    H213558   0.511   3.177   1.650 -0.2975 -0.1499 -0.2842
 4518TIP3   OH213559   1.118   5.898   1.843 -0.2786  0.4366  0.0295
 4518TIP3    H113560   1.087   5.948   1.919  0.6958  0.9819  0.0905
 4518TIP3    H213561   1.122   5.808   1.874 -0.1829  0.6116  0.5365
 4519TIP3   OH213562   4.804   0.358   0.042  0.4236  0.4847  0.4297
 4519TIP3    H113563   4.792   0.278   0.093 -0.8423  0.7888  0.6424
 4519TIP3    H213564   4.768   0.428   0.097  0.3334  1.0170 -0.2813
 4520TIP3   OH213565   1.956   1.741   4.840 -0.2733 -0.1323  0.3262
 4520TIP3    H113566   1.875   1.776   4.878 -1.1299 -1.5881 -0.0581
 4520TIP3    H213567   1.933   1.652   4.814  1.2309 -0.2938 -0.5677
 4521TIP3   OH213568   5.191   5.444   1.257  0.0156  0.1408  0.3717
 4521TIP3    H113569   5.156   5.518   1.207  1.2689 -0.7966 -2.0437
 4521TIP3    H213570   5.284   5.465   1.268 -0.3486  0.7482  3.2608
 4522TIP3   OH213571   1.702   3.731   0.583  0.0147 -0.3257 -0.2487
 4522TIP3    H113572   1.755   3.779   0.647 -1.6245 -1.4416  2.0870
 4522TIP3    H213573   1.750   3.649   0.569  0.5896  0.0974 -0.8063
 4523TIP3   OH213574   0.222   4.576   3.032 -0.0598  0.5448  0.3161
 4523TIP3    H113575   0.188   4.523   2.960  0.6632 -1.0182  1.0619
 4523TIP3    H213576   0.254   4.656   2.991 -0.6814  0.1766 -0.9355
 4524TIP3   OH213577   2.245   1.084   4.072  0.1903  0.0466 -0.4608
 4524TIP3    H113578   2.314   1.147   4.093 -0.2376  1.4532 -2.9489
 4524TIP3    H213579   2.289   1.017   4.020  0.0771 -0.1840 -0.2627
 4525TIP3   OH213580   5.901   2.162   4.463  0.2490 -0.3080 -0.3963
 4525TIP3    H113581   5.996   2.169   4.470  0.1684 -0.4724  1.0389
 4525TIP3    H213582   5.880   2.076   4.499 -0.5111  0.0460  0.0218
 4526TIP3   OH213583   1.449   0.793   1.885  0.0524 -0.0381  0.1541
 4526TIP3    H113584   1.507   0.868   1.875 -0.5676  0.4964  0.4795
 4526TIP3    H213585   1.363   0.825   1.858 -0.8538  0.2707  3.0804
 4527TIP3   OH213586   4.659   0.488   0.235 -0.3876 -0.0940 -0.0113
 4527TIP3    H113587   4.628   0.572   0.269  0.0909 -0.2620  0.8740
 4527TIP3    H213588   4.731   0.464   0.293 -0.6093 -1.1812 -0.1716
 4528TIP3   OH213589   2.525   0.460   0.457  0.5811  0.7899  0.1096
 4528TIP3    H113590   2.458   0.451   0.525 -0.1335  0.9960 -0.5597
 4528TIP3    H213591   2.489   0.415   0.381  1.4088  0.4947 -0.1230
 4529TIP3   OH213592   4.468   2.946   1.528  0.4913 -0.1938  0.5149
 4529TIP3    H113593   4.471   3.039   1.550 -2.4409 -0.0788  0.9064
 4529TIP3    H213594   4.479   2.901   1.612 -0.4950 -0.0834  0.7173
 4530TIP3   OH213595   6.179   2.126   4.100  0.4778  0.4165 -0.2548
 4530TIP3    H113596   6.124   2.052   4.125  0.1639 -0.3804 -2.9487
 4530TIP3    H213597   6.195   2.173   4.181 -1.1039 -1.4071  1.2025
 4531TIP3   OH213598   0.375   4.063   3.250 -0.1326  0.3023 -0.6007
 4531TIP3    H113599   0.287   4.047   3.287 -0.4556  1.2617 -0.9231
 4531TIP3    H213600   0.429   3.994   3.287 -0.7419  0.4622  0.6572
 4532TIP3   OH213601   1.121   5.888   4.349 -0.0644 -0.0929  0.4188
 4532TIP3    H113602   1.027   5.904   4.353 -0.4078 -1.8058 -0.1292
 4532TIP3    H213603   1.145   5.910   4.259  0.0797  0.3479  0.5598
 4533TIP3   OH213604   0.399   1.295   1.443 -0.0379 -0.1175  0.0139
 4533TIP3    H113605   0.336   1.367   1.447  0.4113  0.2564  0.4930
 4533TIP3    H213606   0.401   1.270   1.351 -1.2407 -0.4548  0.0654
 4534TIP3   OH213607   5.010   3.258   4.330  0.3550  0.3174 -0.0071
 4534TIP3    H113608   4.985   3.306   4.251  0.1924 -0.5637 -0.5088
 4534TIP3    H213609   4.953   3.292   4.399 -2.2511 -1.5230 -1.0721
 4535TIP3   OH213610   0.425   5.774   2.969  0.1261 -0.5253  0.1279
 4535TIP3    H113611   0.337   5.784   2.933  0.2882  0.5620  0.0091
 4535TIP3    H213612   0.473   5.849   2.936  0.9256 -0.7601  0.7272
 4536TIP3   OH213613   2.072   0.600   0.430  0.4853  0.7138  0.1557
 4536TIP3    H113614   2.140   0.608   0.497 -1.0179  0.2539  1.8161
 4536TIP3    H213615   2.106   0.536   0.369  0.7096 -1.1677  2.1236
 4537TIP3   OH213616   2.216   3.714   0.226 -0.5793  0.1641  0.1071
 4537TIP3    H113617   2.305   3.749   0.228  0.8052 -2.7398 -2.4128
 4537TIP3    H213618   2.187   3.727   0.135 -1.1552 -2.2152 -0.1250
 4538TIP3   OH213619   2.744   2.868   3.241 -0.3650  0.5038  0.1592
 4538TIP3    H113620   2.681   2.905   3.179  0.7738  0.4440 -1.0866
 4538TIP3    H213621   2.779   2.945   3.287  0.2980  0.7767 -0.7713
 4539TIP3   OH213622   6.203   3.663   5.046  0.2389 -0.3693 -0.0435
 4539TIP3    H113623   6.295   3.679   5.067  0.4476  0.0967 -1.2280
 4539TIP3    H213624   6.195   3.690   4.955 -1.0613 -0.4738  0.0307
 4540TIP3   OH213625   2.872   4.813   4.412  0.6419 -0.6358  0.3731
 4540TIP3    H113626   2.840   4.810   4.321 -0.3911 -0.3910  0.7103
 4540TIP3    H213627   2.948   4.756   4.412  2.6704  1.8211 -1.3952
 4541TIP3   OH213628   5.348   4.610   3.914  0.4466  0.0475 -0.3963
 4541TIP3    H113629   5.395   4.527   3.911  0.7247  0.2173 -0.9280
 4541TIP3    H213630   5.270   4.592   3.966 -0.0627 -0.8496 -1.4282
 4542TIP3   OH213631   1.857   0.736   1.251  0.3888 -0.6952  0.0224
 4542TIP3    H113632   1.876   0.643   1.263  1.1098 -0.6579 -0.7368
 4542TIP3    H213633   1.799   0.758   1.324  1.1810 -1.4540  0.9127
 4543TIP3   OH213634   3.420   2.000   5.179  0.2057 -0.0947 -0.1433
 4543TIP3    H113635   3.507   1.981   5.215  0.4905  3.2383  1.2642
 4543TIP3    H213636   3.437   2.052   5.101 -0.5627 -1.3399 -1.1817
 4544TIP3   OH213637   4.732   4.218   3.102  0.2146 -0.0964 -0.3972
 4544TIP3    H113638   4.800   4.227   3.169 -1.5887  0.9670  1.4140
 4544TIP3    H213639   4.663   4.167   3.145 -1.1873  1.0014 -1.2414
 4545TIP3   OH213640   5.901   5.605   0.673  0.5326 -0.2690 -0.9555
 4545TIP3    H113641   5.853   5.616   0.591 -1.0590 -3.3836 -0.5952
 4545TIP3    H213642   5.834   5.619   0.741  1.1484 -0.4591 -0.2983
 4546TIP3   OH213643   2.248   2.904   4.009  0.1137 -0.6794 -0.3658
 4546TIP3    H113644   2.338   2.874   4.000  0.1569 -0.8310  0.4787
 4546TIP3    H213645   2.197   2.843   3.956  0.6565  0.3348 -2.1232
 4547TIP3   OH213646   4.877   2.891   0.342 -0.1559  0.4685 -0.3732
 4547TIP3    H113647   4.901   2.799   0.330 -0.8633  0.2126  0.1241
 4547TIP3    H213648   4.886   2.929   0.255 -0.3758 -0.1959 -0.6924
 4548TIP3   OH213649   4.327   1.310   1.039  0.0672  0.5423  0.0936
 4548TIP3    H113650   4.256   1.265   1.086 -0.0340  0.2648 -0.3189
 4548TIP3    H213651   4.323   1.273   0.951  1.2261 -0.0454  0.2739
 4549TIP3   OH213652   0.339   3.870   2.840 -0.4157 -0.2557 -0.4924
 4549TIP3    H113653   0.254   3.913   2.854 -0.8391 -1.3386  0.3840
 4549TIP3    H213654   0.318   3.777   2.835  0.7282 -0.5329 -0.2670
 4550TIP3   OH213655   4.392   4.785   0.323 -0.4634  0.6048 -0.2521
 4550TIP3    H113656   4.311   4.767   0.275 -0.4052 -0.4932  0.0207
 4550TIP3    H213657   4.421   4.698   0.353 -0.9744  1.2895  2.5255
 4551TIP3   OH213658   3.309   0.933   0.427 -0.5996  0.3229 -0.3369
 4551TIP3    H113659   3.295   0.868   0.358 -0.3029  0.1951 -0.2773
 4551TIP3    H213660   3.401   0.922   0.452 -1.0695 -0.6504  1.1121
 4552TIP3   OH213661   0.575   3.613   3.692 -0.0974 -0.1612  0.1254
 4552TIP3    H113662   0.576   3.600   3.597  0.3737  0.1331  0.0838
 4552TIP3    H213663   0.613   3.532   3.727  0.0004 -0.1508  0.0447
 4553TIP3   OH213664   1.214   1.302   0.786  0.0818 -0.4767 -0.1401
 4553TIP3    H113665   1.303   1.289   0.819  0.1838 -1.4940 -0.7901
 4553TIP3    H213666   1.205   1.239   0.715 -1.0560 -0.1632 -0.2918
 4554TIP3   OH213667   1.548   5.225   4.885 -0.7945 -0.1970  0.0836
 4554TIP3    H113668   1.591   5.237   4.800 -0.8140 -0.1887  0.0753
 4554TIP3    H213669   1.455   5.222   4.865 -0.9746  1.9402  0.3142
 4555TIP3   OH213670   0.447   4.230   2.951  0.3846 -0.3231 -0.3880
 4555TIP3    H113671   0.367   4.277   2.928  0.2664 -1.1897 -1.8871
 4555TIP3    H213672   0.504   4.240   2.875  1.4581 -0.2591  0.4008
 4556TIP3   OH213673   6.235   2.509   5.070 -0.0300  0.0480 -0.1458
 4556TIP3    H113674   6.256   2.600   5.089 -0.2364  0.1668 -0.4960
 4556TIP3    H213675   6.266   2.495   4.981 -2.3195  0.5132 -1.0715
 4557TIP3   OH213676   3.178   1.741   3.284  0.1819 -0.4541 -0.2217
 4557TIP3    H113677   3.264   1.717   3.248  0.2404 -0.7097  0.0795
 4557TIP3    H213678   3.128   1.660   3.282 -0.4868 -0.0218 -1.5844
 4558TIP3   OH213679   5.984   1.323   0.374  0.1713 -0.5094 -0.1170
 4558TIP3    H113680   6.009   1.328   0.281 -1.1271 -0.7203 -0.4922
 4558TIP3    H213681   6.035   1.392   0.416  0.1683  0.1271 -1.1360
 4559TIP3   OH213682   1.353   4.563   5.146  1.0665  0.2163  0.5085
 4559TIP3    H113683   1.430   4.582   5.199  0.9676  0.1687  0.6720
 4559TIP3    H213684   1.280   4.598   5.197  1.0140  0.5760  0.1858
 4560TIP3   OH213685   3.757   1.964   4.955 -0.1858 -0.9613  0.6826
 4560TIP3    H113686   3.829   1.915   4.917  0.2848 -0.1236  0.4661
 4560TIP3    H213687   3.685   1.901   4.962 -0.1806 -1.2182 -1.2668
 4561TIP3   OH213688   0.597   0.980   3.818 -0.1077 -0.1758 -0.1432
 4561TIP3    H113689   0.585   1.075   3.810  0.2070 -0.0124  1.1119
 4561TIP3    H213690   0.517   0.949   3.861  0.6842 -0.1478  1.4157
 4562TIP3   OH213691   1.367   2.536   0.233  0.4299 -0.2686  0.4496
 4562TIP3    H113692   1.383   2.555   0.141  0.6461 -0.4995  0.4387
 4562TIP3    H213693   1.416   2.455   0.250 -1.2640 -1.3786  0.2553
 4563TIP3   OH213694   3.707   0.682   4.796  0.0777  0.4315  0.8288
 4563TIP3    H113695   3.675   0.599   4.832 -0.0102  1.0015  2.1015
 4563TIP3    H213696   3.698   0.672   4.701 -1.2190 -0.4919  1.0279
 4564TIP3   OH213697   2.456   5.242   1.235  0.1841  0.1392 -0.7737
 4564TIP3    H113698   2.450   5.152   1.202 -1.6480 -0.2893  0.5817
 4564TIP3    H213699   2.392   5.291   1.183 -0.1219  0.2583 -0.2857
 4565TIP3   OH213700   4.622   3.297   2.391  0.2914 -0.3196  0.0887
 4565TIP3    H113701   4.633   3.389   2.412 -0.5921 -0.4551  1.2299
 4565TIP3    H213702   4.534   3.291   2.353  0.0131 -0.8067  0.7904
 4566TIP3   OH213703   4.294   5.598   4.858 -0.0006 -0.3976 -0.4605
 4566TIP3    H113704   4.204   5.600   4.827 -0.2625 -0.3231  0.2815
 4566TIP3    H213705   4.293   5.650   4.939  1.2094  1.7051 -1.6954
 4567TIP3   OH213706   6.105   5.894   3.849  0.7051  0.3331  0.4211
 4567TIP3    H113707   6.029   5.940   3.812  1.6111  0.2551 -1.6437
 4567TIP3    H213708   6.067   5.837   3.916 -1.2002 -0.4012 -1.1678
 4568TIP3   OH213709   2.117   3.819   4.133 -0.0911 -0.3303  0.0555
 4568TIP3    H113710   2.077   3.828   4.046 -0.7412 -1.4405  0.2178
 4568TIP3    H213711   2.127   3.909   4.164  2.0898  0.2313 -2.0025
 4569TIP3   OH213712   5.149   2.141   0.044 -0.0255 -0.4799  0.1682
 4569TIP3    H113713   5.221   2.088   0.079 -0.2874 -1.2180 -0.3861
 4569TIP3    H213714   5.076   2.079   0.036 -0.2877 -0.0728 -0.6501
 4570TIP3   OH213715   2.896   1.032   3.471 -0.0619  0.3293  0.2680
 4570TIP3    H113716   2.901   1.073   3.385 -0.2008  0.3886  0.2870
 4570TIP3    H213717   2.965   0.966   3.471  0.8934  1.3014  0.6236
 4571TIP3   OH213718   3.528   1.441   4.053 -0.1778  0.0349  0.0903
 4571TIP3    H113719   3.448   1.460   4.004  0.0045 -0.2018 -0.3068
 4571TIP3    H213720   3.578   1.383   3.995 -0.2522 -0.8011  0.8302
 4572TIP3   OH213721   0.611   3.761   0.769  0.2769 -0.6847  0.3253
 4572TIP3    H113722   0.555   3.684   0.759  0.0729 -0.4619 -0.2619
 4572TIP3    H213723   0.673   3.755   0.697 -0.9087  0.6841 -0.8691
 4573TIP3   OH213724   3.582   5.374   4.176  0.0112  0.0375  0.6207
 4573TIP3    H113725   3.529   5.430   4.232 -0.8430 -0.9530  0.8434
 4573TIP3    H213726   3.663   5.423   4.162 -0.4625  1.0433  1.3020
 4574TIP3   OH213727   2.081   5.085   1.929 -0.3470 -0.0200  0.2158
 4574TIP3    H113728   2.117   5.000   1.952 -0.0130 -1.0481 -3.5341
 4574TIP3    H213729   2.150   5.127   1.878 -0.7484  2.3303  1.4426
 4575TIP3   OH213730   0.564   2.217   3.865  0.4364 -0.4104 -0.6409
 4575TIP3    H113731   0.594   2.139   3.818 -0.4603 -0.6747 -0.7993
 4575TIP3    H213732   0.469   2.217   3.854  0.4053  0.6259 -0.5103
 4576TIP3   OH213733   3.065   0.125   3.010  0.1743 -0.3742 -0.3159
 4576TIP3    H113734   3.051   0.207   2.963  1.3837  1.2301  1.9679
 4576TIP3    H213735   3.159   0.108   3.001 -0.2012 -2.1543 -1.6309
 4577TIP3   OH213736   0.790   4.199   3.048  0.3252 -0.2906  0.0797
 4577TIP3    H113737   0.876   4.241   3.051  0.5254 -0.3763 -2.5061
 4577TIP3    H213738   0.801   4.124   2.990 -1.4958 -0.3151 -0.3052
 4578TIP3   OH213739   4.670   2.826   0.943 -0.1909 -0.3443  0.4543
 4578TIP3    H113740   4.748   2.836   0.888  0.2522 -0.0266  1.1245
 4578TIP3    H213741   4.682   2.892   1.012 -0.0505 -1.6638  1.7259
 4579TIP3   OH213742   4.579   2.319   5.126 -0.0378 -0.0899 -0.0135
 4579TIP3    H113743   4.572   2.410   5.154 -0.5570  0.4051 -1.6407
 4579TIP3    H213744   4.625   2.324   5.042 -0.2917 -1.3064 -0.2353
 4580TIP3   OH213745   6.343   5.691   0.903 -0.2826  0.3082 -0.4941
 4580TIP3    H113746   6.342   5.699   0.808  2.2697  1.0539 -0.5337
 4580TIP3    H213747   6.318   5.599   0.919 -0.8528  0.2009 -1.8495
 4581TIP3   OH213748   3.730   3.923   3.804 -0.0123  0.3171  0.1766
 4581TIP3    H113749   3.643   3.949   3.773  0.1375 -0.3856 -0.8930
 4581TIP3    H213750   3.716   3.838   3.844  0.2241  0.0610 -0.2750
 4582TIP3   OH213751   3.270   1.521   3.997  0.2007 -0.1448 -0.1416
 4582TIP3    H113752   3.243   1.578   3.925  1.4632  2.0530  1.0501
 4582TIP3    H213753   3.198   1.525   4.060 -0.1348 -0.6728 -0.4836
 4583TIP3   OH213754   5.759   0.180   2.165  0.0059  0.2465 -0.2564
 4583TIP3    H113755   5.799   0.259   2.129 -1.0939  0.1703 -1.7082
 4583TIP3    H213756   5.665   0.196   2.162 -0.1657  0.1343  2.4369
 4584TIP3   OH213757   3.410   4.885   2.857  0.0654  0.1933  0.0614
 4584TIP3    H113758   3.473   4.907   2.926  1.0856 -0.5573 -0.6084
 4584TIP3    H213759   3.346   4.956   2.860  0.3146  0.3937  1.4946
 4585TIP3   OH213760   5.742   2.678   3.755  0.0071 -0.0718 -0.1460
 4585TIP3    H113761   5.684   2.715   3.822 -0.5773  0.6164 -1.0120
 4585TIP3    H213762   5.826   2.666   3.800 -0.3478  0.4646  0.6797
 4586TIP3   OH213763   3.953   3.056   2.675  0.1517  0.5172 -0.1164
 4586TIP3    H113764   3.993   2.998   2.740  0.4081  0.6991 -0.1087
 4586TIP3    H213765   3.966   3.011   2.591 -0.7557 -0.0256  0.0269
 4587TIP3   OH213766   4.466   5.598   2.566 -0.3166  0.0937 -0.2912
 4587TIP3    H113767   4.486   5.671   2.625  0.1268 -0.4145  0.1966
 4587TIP3    H213768   4.380   5.567   2.593 -0.9441  1.0305 -1.1208
 4588TIP3   OH213769   1.416   3.748   2.795  0.2953 -0.3602 -0.0941
 4588TIP3    H113770   1.366   3.810   2.849 -0.4116 -0.6952 -0.3504
 4588TIP3    H213771   1.414   3.666   2.843 -0.7868 -0.8021 -0.8522
 4589TIP3   OH213772   3.264   3.380   3.568  0.0644  0.5830 -0.0693
 4589TIP3    H113773   3.309   3.303   3.603  0.1336 -1.4667 -4.1088
 4589TIP3    H213774   3.175   3.374   3.603  1.0547  1.0923  2.8669
 4590TIP3   OH213775   6.319   2.021   4.828  0.2526 -0.2169 -0.1304
 4590TIP3    H113776   6.281   2.011   4.915 -0.0063 -1.5405 -0.3793
 4590TIP3    H213777   6.313   2.115   4.810 -1.0631 -0.1310  0.6492
 4591TIP3   OH213778   0.179   0.792   3.945 -0.5673  0.2556 -0.2959
 4591TIP3    H113779   0.189   0.877   3.987 -1.5804 -0.6672  1.9414
 4591TIP3    H213780   0.106   0.804   3.884 -0.2775  1.1312 -0.4880
 4592TIP3   OH213781   2.154   3.761   2.038  0.4951  0.0392  0.3547
 4592TIP3    H113782   2.213   3.832   2.063  0.7385 -0.7068  2.0767
 4592TIP3    H213783   2.212   3.686   2.023  0.1094 -0.2738  0.4167
 4593TIP3   OH213784   0.838   4.703   2.089 -0.3801 -0.3443 -0.3400
 4593TIP3    H113785   0.831   4.772   2.155  1.4022 -1.0798  0.6949
 4593TIP3    H213786   0.892   4.742   2.020 -0.1467 -0.3811 -0.1819
 4594TIP3   OH213787   5.117   1.734   4.346 -0.3139 -0.1428  0.3152
 4594TIP3    H113788   5.124   1.651   4.300  0.9472  0.4841 -0.7053
 4594TIP3    H213789   5.116   1.800   4.276  0.5060  0.7764  1.1406
 4595TIP3   OH213790   4.709   2.602   1.077  0.6385 -0.0096 -0.6192
 4595TIP3    H113791   4.686   2.645   0.995  0.9607 -1.5394 -1.5405
 4595TIP3    H213792   4.684   2.665   1.145 -0.9343  0.7213 -1.8110
 4596TIP3   OH213793   0.062   5.387   1.619 -0.0187 -0.3116 -0.1057
 4596TIP3    H113794   0.027   5.470   1.588  2.7866  0.9051 -0.3634
 4596TIP3    H213795   0.034   5.381   1.710 -0.2112  0.9833 -0.0619
 4597TIP3   OH213796   2.102   2.368   1.874  0.3094 -0.0249  0.2551
 4597TIP3    H113797   2.118   2.429   1.946  1.4997  1.2985 -1.0817
 4597TIP3    H213798   2.021   2.322   1.899 -0.3822  1.7788  1.5035
 4598TIP3   OH213799   0.541   5.842   0.679 -0.4927  0.5352  0.4362
 4598TIP3    H113800   0.592   5.885   0.747  2.1308 -3.4372  1.2667
 4598TIP3    H213801   0.566   5.888   0.598  3.4501 -0.2876  1.0206
 4599TIP3   OH213802   1.532   2.047   2.430  0.1255  0.0760  0.9286
 4599TIP3    H113803   1.607   2.093   2.392  0.7732 -1.0433  0.8261
 4599TIP3    H213804   1.560   2.026   2.519 -0.2183 -0.0059  1.0196
 4600TIP3   OH213805   0.540   3.211   2.557 -0.4507 -0.2444 -0.0347
 4600TIP3    H113806   0.617   3.201   2.613 -0.1448 -0.4155 -0.4797
 4600TIP3    H213807   0.556   3.152   2.483  0.7288  2.3064 -1.9962
 4601TIP3   OH213808   3.320   5.820   4.446 -0.1647 -0.1268  0.2007
 4601TIP3    H113809   3.256   5.755   4.473 -0.3993 -0.3248 -0.8126
 4601TIP3    H213810   3.275   5.874   4.382  1.1860 -1.4058 -1.9488
 4602TIP3   OH213811   2.819   5.475   1.303 -0.2187  0.0925  0.1947
 4602TIP3    H113812   2.862   5.545   1.254 -2.1424  1.0725 -0.2125
 4602TIP3    H213813   2.762   5.433   1.239 -1.7318  0.4903  1.2317
 4603TIP3   OH213814   0.747   2.991   4.328  0.2428  0.0645  0.1665
 4603TIP3    H113815   0.799   2.950   4.259 -0.4410  0.3349 -0.5275
 4603TIP3    H213816   0.810   3.038   4.382  0.6348  1.0113 -1.0880
 4604TIP3   OH213817   1.967   3.767   3.912  0.5807  0.2973 -0.5762
 4604TIP3    H113818   1.925   3.847   3.880 -0.7967  0.3644  1.2310
 4604TIP3    H213819   1.913   3.696   3.878  0.3663  0.2739 -0.2003
 4605TIP3   OH213820   1.918   3.536   2.930 -0.0543  0.0170  0.7421
 4605TIP3    H113821   1.918   3.488   2.847 -1.1882  3.0869 -1.2048
 4605TIP3    H213822   1.835   3.511   2.972  0.1415 -0.9319  0.5900
 4606TIP3   OH213823   1.074   2.338   4.612 -0.3651 -0.0423 -0.3654
 4606TIP3    H113824   1.104   2.255   4.576  2.1539 -0.1023  1.5916
 4606TIP3    H213825   1.155   2.385   4.634 -1.7287  1.7430  1.1405
 4607TIP3   OH213826   3.700   5.075   1.746  0.3737  1.2874  0.3726
 4607TIP3    H113827   3.693   5.077   1.842  0.6420  0.3686  0.4192
 4607TIP3    H213828   3.628   5.017   1.719  0.6159  1.1366  0.0547
 4608TIP3   OH213829   3.404   1.882   2.271  0.2303 -0.7324  0.8645
 4608TIP3    H113830   3.311   1.897   2.288  0.2846 -0.6483  1.0858
 4608TIP3    H213831   3.406   1.805   2.214 -0.0752  0.3711 -0.7079
 4609TIP3   OH213832   4.091   4.420   0.902 -0.0049 -0.2581  0.1418
 4609TIP3    H113833   4.003   4.445   0.874 -1.2568 -1.9565  2.1915
 4609TIP3    H213834   4.102   4.331   0.867  0.6990 -0.2108  0.2430
 4610TIP3   OH213835   4.190   1.635   0.985 -0.1765 -0.3876  0.1113
 4610TIP3    H113836   4.234   1.581   1.050  0.1433 -1.0206 -0.6042
 4610TIP3    H213837   4.128   1.576   0.942  0.1828 -0.1975 -0.6924
 4611TIP3   OH213838   2.023   1.240   2.620  0.0307  0.0384  0.0403
 4611TIP3    H113839   2.112   1.276   2.623 -0.5395  1.4263  0.8542
 4611TIP3    H213840   1.997   1.233   2.712 -1.2274  1.0107 -0.2233
 4612TIP3   OH213841   6.114   5.063   0.151  0.0331 -0.0342 -0.4079
 4612TIP3    H113842   6.091   4.971   0.163  2.7162 -0.6095  1.1861
 4612TIP3    H213843   6.077   5.107   0.227 -0.5945  0.1079 -0.7828
 4613TIP3   OH213844   2.974   2.089   4.647  0.6592  0.3655 -0.1676
 4613TIP3    H113845   2.977   2.004   4.691  2.4946  0.2856 -0.3670
 4613TIP3    H213846   3.003   2.071   4.557  1.0179  1.1776 -0.2272
 4614TIP3   OH213847   3.094   2.231   1.366 -0.0493  0.5297  0.3166
 4614TIP3    H113848   3.131   2.317   1.382 -0.5866  0.7647  0.3339
 4614TIP3    H213849   3.051   2.239   1.280 -0.5650  0.4394  0.5642
 4615TIP3   OH213850   5.342   4.832   0.084 -0.5425  0.1731  0.2322
 4615TIP3    H113851   5.298   4.875   0.011 -0.6018 -0.9370 -0.4033
 4615TIP3    H213852   5.425   4.879   0.093 -0.3534  0.0554 -0.8250
 4616TIP3   OH213853   5.875   4.411   2.984  0.5206 -0.0792 -0.0787
 4616TIP3    H113854   5.921   4.492   2.961  2.6983 -0.9476  0.9674
 4616TIP3    H213855   5.911   4.345   2.924  0.3059 -0.6868  0.4506
 4617TIP3   OH213856   0.711   4.713   4.937  0.1418 -0.1912  0.2350
 4617TIP3    H113857   0.662   4.709   5.020 -1.1977  1.9442 -0.3834
 4617TIP3    H213858   0.647   4.687   4.871  1.2627 -2.0740 -0.1908
 4618TIP3   OH213859   0.944   4.711   4.745  0.0294 -0.1983 -1.0833
 4618TIP3    H113860   0.912   4.736   4.831  0.5093 -1.4728 -0.5154
 4618TIP3    H213861   0.878   4.745   4.684  0.2130  1.6449 -0.3225
 4619TIP3   OH213862   4.352   4.506   3.014  0.3626  0.3380  0.5153
 4619TIP3    H113863   4.389   4.513   3.102  0.7865 -1.5112  0.5268
 4619TIP3    H213864   4.262   4.477   3.027  0.5979 -0.4909  0.3313
 4620TIP3   OH213865   6.077   5.637   1.187 -0.5900  0.3945 -0.4390
 4620TIP3    H113866   6.093   5.587   1.268 -1.4361  2.0301  0.7999
 4620TIP3    H213867   6.011   5.585   1.141  0.4661 -0.9685 -0.4993
 4621TIP3   OH213868   5.374   1.318   1.559 -0.0784  0.2817  0.2562
 4621TIP3    H113869   5.343   1.396   1.606  0.3085  0.6317 -0.0598
 4621TIP3    H213870   5.340   1.328   1.471  1.0850  0.7834 -0.1573
 4622TIP3   OH213871   1.778   2.043   1.693  0.6363  0.1297 -0.1970
 4622TIP3    H113872   1.872   2.027   1.701  0.4557 -2.1522 -1.5393
 4622TIP3    H213873   1.764   2.058   1.599 -0.2202  1.5846  0.1319
 4623TIP3   OH213874   3.488   4.856   4.725  0.0059  0.2134  0.1818
 4623TIP3    H113875   3.551   4.876   4.795  1.2667 -1.2180 -0.4819
 4623TIP3    H213876   3.509   4.766   4.700 -2.8778 -0.6253  0.4804
 4624TIP3   OH213877   4.880   0.782   0.741 -0.4941  0.0452  0.1194
 4624TIP3    H113878   4.956   0.749   0.789 -0.2448 -1.9065 -1.4829
 4624TIP3    H213879   4.904   0.872   0.717  0.8352 -0.1606  0.6011
 4625TIP3   OH213880   0.483   0.965   1.001  0.3687 -0.1838 -0.0804
 4625TIP3    H113881   0.578   0.977   1.012  0.3449 -0.6149  0.6696
 4625TIP3    H213882   0.473   0.874   0.973  0.0849 -0.6864  1.5369
 4626TIP3   OH213883   0.661   5.184   2.789  0.1357 -0.1939  0.1309
 4626TIP3    H113884   0.577   5.229   2.789  0.4109  0.3463 -1.2786
 4626TIP3    H213885   0.643   5.099   2.829 -0.8362  0.3322  0.8470
 4627TIP3   OH213886   1.908   1.523   4.644  0.1306  0.1603 -0.2898
 4627TIP3    H113887   1.913   1.428   4.639  0.0003  0.0958  0.6571
 4627TIP3    H213888   1.987   1.553   4.599  1.1473 -0.4495  1.0473
 4628TIP3   OH213889   4.352   0.790   0.818 -0.0699  0.6635  0.3421
 4628TIP3    H113890   4.446   0.788   0.836 -0.1726 -2.7907  1.1147
 4628TIP3    H213891   4.347   0.809   0.724  1.5511 -0.8155 -0.1067
 4629TIP3   OH213892   4.048   3.081   0.431  0.0370 -0.4098  0.1313
 4629TIP3    H113893   4.059   2.988   0.452  0.9953 -0.4957 -0.6610
 4629TIP3    H213894   3.970   3.107   0.479  0.2191 -1.4218  1.0261
 4630TIP3   OH213895   0.970   5.753   0.616 -0.8121 -0.0963  0.0661
 4630TIP3    H113896   1.014   5.739   0.700  2.0174 -1.0426 -1.4637
 4630TIP3    H213897   0.982   5.670   0.569 -3.3352  0.0097 -0.9095
 4631TIP3   OH213898   4.191   2.070   2.262  0.0400 -0.3078  0.3524
 4631TIP3    H113899   4.148   2.118   2.192  3.6499 -0.0201 -1.9029
 4631TIP3    H213900   4.244   2.136   2.308 -0.1897 -0.9884  1.6617
 4632TIP3   OH213901   1.048   0.743   0.724 -0.2483 -0.2741  0.0118
 4632TIP3    H113902   1.092   0.667   0.685 -1.9662 -1.2792 -0.0755
 4632TIP3    H213903   0.960   0.712   0.744 -0.7415  1.4782  0.7651
 4633TIP3   OH213904   2.348   4.645   0.948  0.0920 -0.1995 -0.1793
 4633TIP3    H113905   2.258   4.619   0.932  0.2315 -1.1086  0.4105
 4633TIP3    H213906   2.364   4.624   1.040  0.7018  0.5797 -0.0929
 4634TIP3   OH213907   5.365   3.902   3.236 -0.2420 -0.2182  0.5189
 4634TIP3    H113908   5.387   3.828   3.179  0.0593 -0.2686  0.6978
 4634TIP3    H213909   5.316   3.863   3.308 -3.6954  0.2516 -1.3642
 4635TIP3   OH213910   4.936   5.103   3.435 -0.9185  0.2217 -0.1250
 4635TIP3    H113911   4.906   5.088   3.345  0.1022 -1.6892 -0.2057
 4635TIP3    H213912   4.882   5.045   3.489 -0.4710  0.1652  0.2724
 4636TIP3   OH213913   4.081   2.756   0.562  0.1789 -0.4309  0.1277
 4636TIP3    H113914   4.129   2.679   0.592 -0.9907 -1.4552 -0.5601
 4636TIP3    H213915   3.999   2.721   0.526 -0.5040  1.1589  0.0703
 4637TIP3   OH213916   1.903   5.322   5.053  0.2123 -0.2606 -0.0158
 4637TIP3    H113917   1.951   5.343   4.973  1.2707 -1.2226  0.3412
 4637TIP3    H213918   1.811   5.328   5.028  0.5043  0.9236 -0.8992
 4638TIP3   OH213919   1.499   2.244   1.592  0.1715 -0.4190  0.4470
 4638TIP3    H113920   1.480   2.152   1.611 -2.1736 -0.0744  0.0517
 4638TIP3    H213921   1.528   2.244   1.501  2.2898 -0.9578  1.0592
 4639TIP3   OH213922   1.085   5.391   0.961 -0.0755 -0.0148  0.3032
 4639TIP3    H113923   1.166   5.347   0.936  0.6702  2.4826 -2.2431
 4639TIP3    H213924   1.105   5.433   1.045  1.8385  1.6995 -0.9163
 4640TIP3   OH213925   5.952   4.356   4.172  0.5775  0.3223 -0.3989
 4640TIP3    H113926   6.032   4.306   4.188 -1.0363 -1.8800  1.8270
 4640TIP3    H213927   5.948   4.367   4.077  1.4006 -3.4938 -1.0645
 4641TIP3   OH213928   5.749   3.732   3.194  0.4690  0.4746  0.2540
 4641TIP3    H113929   5.706   3.656   3.233 -0.1978  1.2429  1.0760
 4641TIP3    H213930   5.687   3.764   3.129  1.3270 -0.4533 -1.0662
 4642TIP3   OH213931   1.021   0.471   4.268  0.1312  0.1922 -0.1782
 4642TIP3    H113932   0.992   0.523   4.193 -0.6302 -1.5897 -1.1777
 4642TIP3    H213933   0.950   0.481   4.332  1.2576  2.5695  0.8273
 4643TIP3   OH213934   1.560   3.090   0.912 -1.0089  0.6507  0.0121
 4643TIP3    H113935   1.581   3.160   0.850 -0.6268  1.3637  0.9286
 4643TIP3    H213936   1.471   3.064   0.889 -0.7577  0.6526 -1.0531
 4644TIP3   OH213937   1.482   1.756   4.747  0.1105 -0.3439 -0.7236
 4644TIP3    H113938   1.550   1.749   4.681  2.2556 -0.9863  1.4124
 4644TIP3    H213939   1.478   1.668   4.787 -0.1163  0.3610  0.9036
 4645TIP3   OH213940   2.271   5.888   0.552 -0.0268 -0.2662  0.2198
 4645TIP3    H113941   2.210   5.962   0.546  0.3604 -0.0469 -1.3509
 4645TIP3    H213942   2.340   5.909   0.489  2.0003 -0.2269  2.3333
 4646TIP3   OH213943   2.933   0.464   0.163  0.0277  0.1352  0.1245
 4646TIP3    H113944   2.979   0.389   0.200 -1.4082 -0.5432  0.6361
 4646TIP3    H213945   2.943   0.454   0.068  1.0893  0.1284  0.2284
 4647TIP3   OH213946   4.917   0.149   2.565  0.2733 -0.2782  0.1552
 4647TIP3    H113947   5.003   0.118   2.538  0.8512  1.0006  0.4640
 4647TIP3    H213948   4.907   0.118   2.655  1.5569  1.7156  1.0545
 4648TIP3   OH213949   0.916   4.348   4.750 -0.2983 -0.5478 -0.1516
 4648TIP3    H113950   0.850   4.374   4.686  0.0791 -0.5956 -0.5637
 4648TIP3    H213951   0.998   4.386   4.718  0.0097 -1.0905 -0.0328
 4649TIP3   OH213952   0.152   4.100   2.374 -0.3372  0.0675  0.0159
 4649TIP3    H113953   0.219   4.096   2.442  0.7006 -2.2152 -1.0140
 4649TIP3    H213954   0.185   4.043   2.305 -1.5748  1.8547 -2.2211
 4650TIP3   OH213955   1.514   1.296   2.365  0.2828  0.1002  0.6102
 4650TIP3    H113956   1.442   1.258   2.415  0.0925 -1.3730 -0.6888
 4650TIP3    H213957   1.474   1.366   2.315 -0.2548 -0.6163  0.0094
 4651TIP3   OH213958   3.854   5.795   2.337 -0.0909  0.2445 -0.1970
 4651TIP3    H113959   3.821   5.818   2.250 -2.9215  0.7156  0.9041
 4651TIP3    H213960   3.788   5.736   2.373  0.2534  1.2034  2.1621
 4652TIP3   OH213961   5.140   3.834   3.499  0.2019  0.5016 -0.0629
 4652TIP3    H113962   5.168   3.924   3.512  1.8432 -0.0352  0.4142
 4652TIP3    H213963   5.139   3.796   3.587  0.0347 -0.0934 -0.3155
 4653TIP3   OH213964   6.199   0.651   1.452  0.0344  0.4746  0.0681
 4653TIP3    H113965   6.157   0.642   1.366  0.8600 -2.9967 -0.0904
 4653TIP3    H213966   6.292   0.642   1.435  0.4032  1.8437  1.1530
 4654TIP3   OH213967   5.580   4.333   2.218 -0.6750  0.4797 -0.3738
 4654TIP3    H113968   5.663   4.341   2.170 -0.2628 -0.9018  0.0519
 4654TIP3    H213969   5.587   4.249   2.262 -2.7119 -0.0893 -1.0668
 4655TIP3   OH213970   1.392   3.402   2.802  0.0751 -0.5775 -0.3894
 4655TIP3    H113971   1.304   3.439   2.800 -0.1355 -1.0840 -0.7266
 4655TIP3    H213972   1.434   3.435   2.723  1.2188  2.0781  1.1998
 4656TIP3   OH213973   2.463   2.637   4.002 -0.3662  0.1711 -0.7607
 4656TIP3    H113974   2.390   2.615   3.944  0.2636 -0.0887 -1.4730
 4656TIP3    H213975   2.527   2.568   3.986 -0.6543 -0.5994  1.1483
 4657TIP3   OH213976   3.745   1.144   2.538 -0.2166  0.0933 -0.2850
 4657TIP3    H113977   3.757   1.104   2.452 -1.3506  2.6053 -1.7442
 4657TIP3    H213978   3.651   1.136   2.556 -0.1764  0.5783  0.1667
 4658TIP3   OH213979   2.369   2.112   1.864  0.2121 -0.0118 -0.1754
 4658TIP3    H113980   2.341   2.062   1.787  0.7631  0.3887 -0.6408
 4658TIP3    H213981   2.360   2.051   1.937 -1.2265 -0.1086 -0.4065
 4659TIP3   OH213982   4.021   3.680   3.950  0.0615  0.0924 -0.2260
 4659TIP3    H113983   4.111   3.661   3.923  0.6142  0.9819  0.8952
 4659TIP3    H213984   3.973   3.689   3.868  1.2489  0.7777 -0.8806
 4660TIP3   OH213985   4.907   1.928   3.588 -0.0375  0.6313  0.1268
 4660TIP3    H113986   4.894   1.869   3.663 -1.0313  0.2838 -0.2984
 4660TIP3    H213987   4.959   1.876   3.526  2.8547  1.7077  1.4566
 4661TIP3   OH213988   1.357   2.059   2.068 -0.1206 -0.4426 -0.3193
 4661TIP3    H113989   1.328   2.142   2.104 -0.3408 -0.5378 -0.2730
 4661TIP3    H213990   1.431   2.081   2.011  0.9806 -0.4172  1.0559
 4662TIP3   OH213991   3.884   0.696   0.047  0.2134  0.0189  0.6731
 4662TIP3    H113992   3.938   0.687  -0.031  0.6430  1.5932  0.7514
 4662TIP3    H213993   3.940   0.744   0.109 -0.6858  0.2125  1.3601
 4663TIP3   OH213994   5.026   3.461   5.069  0.7571  0.1826 -0.1423
 4663TIP3    H113995   5.049   3.546   5.032 -0.6573  0.4453 -0.4856
 4663TIP3    H213996   5.079   3.398   5.021  1.5027  0.8262 -0.1817
 4664TIP3   OH213997   5.748   2.841   0.896  0.1882  0.7059  0.7044
 4664TIP3    H113998   5.832   2.826   0.853 -0.7100 -1.6947 -0.4174
 4664TIP3    H213999   5.693   2.878   0.828 -0.4519 -0.5156  0.5153
 4665TIP3   OH214000   5.530   2.095   3.343 -0.0893 -0.2115 -0.7525
 4665TIP3    H114001   5.599   2.053   3.393 -0.1198 -0.5765 -1.0212
 4665TIP3    H214002   5.530   2.051   3.258 -1.0813 -0.6678 -0.5310
 4666TIP3   OH214003   5.996   1.610   0.951  0.7001  0.3853 -0.1799
 4666TIP3    H114004   5.900   1.604   0.956  0.8243 -1.3906  0.8891
 4666TIP3    H214005   6.012   1.694   0.908 -1.3154  1.2575  0.6207
 4667TIP3   OH214006   3.371   0.024   0.206  0.0968  0.1073 -0.5654
 4667TIP3    H114007   3.368  -0.014   0.118  1.1198  0.2225 -0.6623
 4667TIP3    H214008   3.280   0.024   0.236 -0.6280  2.1084 -2.4977
 4668TIP3   OH214009   5.044   0.804   4.381  0.4026 -0.3916 -0.0815
 4668TIP3    H114010   4.969   0.863   4.388  0.8754  0.0249  2.3949
 4668TIP3    H214011   5.039   0.769   4.292 -1.5890  1.1049 -0.6256
 4669TIP3   OH214012   4.156   0.810   3.062 -0.2080 -0.1776 -0.1589
 4669TIP3    H114013   4.110   0.894   3.069 -0.6446 -0.3216 -1.1142
 4669TIP3    H214014   4.097   0.747   3.103 -0.0466 -0.0840  0.2241
 4670TIP3   OH214015   4.577   0.554   4.429 -0.6095 -0.3653 -0.0819
 4670TIP3    H114016   4.591   0.542   4.336 -1.0876  0.6781 -0.3047
 4670TIP3    H214017   4.482   0.545   4.441 -0.4350 -1.6270  0.4887
 4671TIP3   OH214018   3.721   3.219   3.877  0.1240 -0.8320  0.2036
 4671TIP3    H114019   3.719   3.147   3.815 -0.0596  0.2842 -1.1439
 4671TIP3    H214020   3.707   3.178   3.962 -1.0446 -2.2666 -0.6298
 4672TIP3   OH214021   2.577   1.469   5.047  0.3962  0.4083 -0.1129
 4672TIP3    H114022   2.570   1.563   5.036  1.8084  0.3246 -2.4573
 4672TIP3    H214023   2.594   1.457   5.141 -0.3476  2.4114  0.3220
 4673TIP3   OH214024   4.855   1.184   2.662  0.5738  0.3441  0.1603
 4673TIP3    H114025   4.900   1.100   2.652 -1.5102 -0.8192  0.0457
 4673TIP3    H214026   4.899   1.242   2.601  2.1853 -0.5936  0.3724
 4674TIP3   OH214027   5.869   2.521   0.845 -0.0656  0.4166  0.0030
 4674TIP3    H114028   5.790   2.573   0.831 -0.0695  0.5605  0.5240
 4674TIP3    H214029   5.837   2.435   0.871 -0.0618  0.0810 -1.0509
 4675TIP3   OH214030   1.845   2.881   2.840  0.0360 -0.2019 -0.1823
 4675TIP3    H114031   1.830   2.966   2.883 -1.3708 -0.9729  0.9362
 4675TIP3    H214032   1.922   2.845   2.883 -1.1739 -0.8228  1.5677
 4676TIP3   OH214033   5.893   1.960   5.043 -0.0431  0.0731 -0.1516
 4676TIP3    H114034   5.879   1.866   5.028 -1.5173 -0.0300  1.5410
 4676TIP3    H214035   5.810   1.991   5.077  1.0902  1.5141  1.4718
 4677TIP3   OH214036   0.391   0.662   1.906  0.0161  0.2803 -0.0933
 4677TIP3    H114037   0.354   0.667   1.994 -0.6600 -1.0026 -0.2861
 4677TIP3    H214038   0.328   0.707   1.851  0.8019  1.7482  0.1559
 4678TIP3   OH214039   1.775   2.917   5.188 -0.7547  0.5746 -0.9152
 4678TIP3    H114040   1.863   2.903   5.152  1.0759  1.2248  2.8135
 4678TIP3    H214041   1.760   3.010   5.178  0.1562  0.9247  0.6095
 4679TIP3   OH214042   5.672   5.309   0.876 -0.1906  0.5336 -0.2502
 4679TIP3    H114043   5.746   5.252   0.898 -1.1938  0.2769  2.9737
 4679TIP3    H214044   5.633   5.269   0.799  1.2475 -1.0602 -0.2038
 4680TIP3   OH214045   1.356   2.978   3.422 -0.2777 -0.0504  0.0022
 4680TIP3    H114046   1.262   2.997   3.411 -0.3492 -0.3087  0.1582
 4680TIP3    H214047   1.396   3.012   3.342 -0.8073 -2.0546 -1.1891
 4681TIP3   OH214048   2.796   2.601   3.331  0.4584  0.0648  0.6727
 4681TIP3    H114049   2.880   2.624   3.370  1.1668  0.7504 -1.1298
 4681TIP3    H214050   2.812   2.604   3.237 -1.5116 -0.1072  0.2907
 4682TIP3   OH214051   2.112   1.890   4.093  0.2131  0.3813  0.0667
 4682TIP3    H114052   2.067   1.913   4.012 -0.9868 -1.8324  0.0185
 4682TIP3    H214053   2.164   1.968   4.115 -1.3938  1.9771 -1.4374
 4683TIP3   OH214054   5.073   5.698   3.466 -0.6912  0.3705 -0.1128
 4683TIP3    H114055   5.142   5.634   3.450  0.8799  2.4197 -2.1986
 4683TIP3    H214056   5.042   5.722   3.379 -2.0117  1.6242  0.6666
 4684TIP3   OH214057   2.520   0.801   4.151  0.3808 -0.3525  0.5725
 4684TIP3    H114058   2.557   0.888   4.161  2.0267 -0.8345 -0.8471
 4684TIP3    H214059   2.429   0.810   4.180 -0.1013  2.3429 -1.4230
 4685TIP3   OH214060   0.079   0.520   0.092  0.2932  0.2958 -0.1468
 4685TIP3    H114061  -0.015   0.506   0.104  0.5094 -0.8155  0.4924
 4685TIP3    H214062   0.118   0.486   0.173  1.1997  1.3183 -0.1380
 4686TIP3   OH214063   3.319   3.450   1.869 -0.2675  0.2649  0.6293
 4686TIP3    H114064   3.304   3.545   1.874  2.1785  0.9477 -2.3311
 4686TIP3    H214065   3.400   3.436   1.917  0.1610 -0.0753 -0.1860
 4687TIP3   OH214066   3.473   3.934   1.674  0.0200  0.0738 -0.3114
 4687TIP3    H114067   3.478   4.030   1.675  1.1142  0.0224 -0.4777
 4687TIP3    H214068   3.539   3.906   1.736  0.0214 -0.5919 -0.6110
 4688TIP3   OH214069   2.651   0.492   2.390  0.1632 -0.3592  1.1596
 4688TIP3    H114070   2.681   0.552   2.458 -0.1580 -1.0900  1.9626
 4688TIP3    H214071   2.642   0.407   2.434  2.6655 -1.5666 -0.3746
 4689TIP3   OH214072   0.090   4.514   1.873  0.4123  0.2349  0.6046
 4689TIP3    H114073   0.101   4.599   1.831 -0.9148  0.7861  1.2948
 4689TIP3    H214074  -0.003   4.494   1.863  0.6562 -1.0184  0.6839
 4690TIP3   OH214075   5.851   2.262   4.216  0.1080  0.0155  0.4695
 4690TIP3    H114076   5.911   2.333   4.241 -0.2646  0.2163  0.8056
 4690TIP3    H214077   5.863   2.196   4.284 -0.1137  0.0942  0.5868
 4691TIP3   OH214078   0.658   1.786   1.687 -0.1664  0.5578  0.1483
 4691TIP3    H114079   0.630   1.855   1.746  0.3358  0.8794  0.0143
 4691TIP3    H214080   0.702   1.722   1.744  0.7558  1.1053  0.0614
 4692TIP3   OH214081   1.603   5.752   1.275 -0.5369 -0.2899  0.0176
 4692TIP3    H114082   1.622   5.843   1.252 -0.2143 -0.6081 -1.0375
 4692TIP3    H214083   1.558   5.757   1.359  0.6194  0.7613  0.6033
 4693TIP3   OH214084   2.601   3.483   2.548 -0.2285 -0.2107 -0.0618
 4693TIP3    H114085   2.688   3.459   2.581  0.1476  1.2147  0.0411
 4693TIP3    H214086   2.589   3.429   2.470 -0.5935 -2.7086  1.6103
 4694TIP3   OH214087   5.135   3.278   0.437  0.3118  0.3318 -0.8727
 4694TIP3    H114088   5.141   3.286   0.341  3.4195  1.7718 -0.6881
 4694TIP3    H214089   5.172   3.360   0.470  0.9652 -0.8633  1.5646
 4695TIP3   OH214090   0.964   5.053   1.142 -0.0324 -0.0329 -0.1804
 4695TIP3    H114091   1.029   5.056   1.072  0.7503 -0.1154  0.5324
 4695TIP3    H214092   0.951   4.960   1.159 -0.2090 -0.0125 -0.1998
 4696TIP3   OH214093   3.617   3.044   1.787 -0.4010 -0.6018  0.1070
 4696TIP3    H114094   3.617   2.975   1.720  1.0684 -0.9916  0.4659
 4696TIP3    H214095   3.548   3.020   1.848 -1.1692 -0.7158 -0.7937
 4697TIP3   OH214096   5.733   1.926   0.850  0.0490 -0.3032 -0.6437
 4697TIP3    H114097   5.820   1.928   0.809  0.8281 -0.6904  0.9026
 4697TIP3    H214098   5.675   1.967   0.786  1.7842  2.1275 -0.8135
 4698TIP3   OH214099   0.364   5.606   0.046 -0.5936 -0.0453 -0.3963
 4698TIP3    H114100   0.367   5.617   0.141 -1.9657 -0.2963 -0.3109
 4698TIP3    H214101   0.271   5.601   0.025 -0.3474 -3.3141 -1.3282
 4699TIP3   OH214102   1.712   3.246   0.486  0.3085  0.6263 -1.3544
 4699TIP3    H114103   1.647   3.196   0.437 -1.5035  2.5798 -1.1193
 4699TIP3    H214104   1.731   3.192   0.563 -3.0404  0.9681 -0.0935
 4700TIP3   OH214105   2.819   4.906   2.459  0.5833  0.1805  0.2075
 4700TIP3    H114106   2.770   4.851   2.520  0.2781  1.7071  1.4320
 4700TIP3    H214107   2.827   4.854   2.379 -1.1357 -0.9602  0.7243
 4701TIP3   OH214108   0.664   1.911   2.614 -0.2087 -0.1424  0.5111
 4701TIP3    H114109   0.599   1.868   2.558 -1.7029  0.6810  1.5558
 4701TIP3    H214110   0.629   1.902   2.702  1.2842  0.0301  1.1482
 4702TIP3   OH214111   6.165   1.264   3.320  0.0541  0.4653  0.0754
 4702TIP3    H114112   6.116   1.324   3.265  0.0071  0.3854  0.0285
 4702TIP3    H214113   6.154   1.178   3.278  0.8316  0.5632 -0.3445
 4703TIP3   OH214114   0.263   1.587   1.444 -0.1548  0.2267  0.3071
 4703TIP3    H114115   0.324   1.642   1.492 -0.7432  1.6895 -0.5426
 4703TIP3    H214116   0.177   1.606   1.482 -0.3919  0.0196 -0.1093
 4704TIP3   OH214117   5.798   4.640   3.639  0.1427  0.2383  0.2625
 4704TIP3    H114118   5.720   4.695   3.646  0.7346  1.0744  0.3712
 4704TIP3    H214119   5.842   4.650   3.724 -0.5584 -1.6826  0.9138
 4705TIP3   OH214120   3.625   1.438   4.517 -0.0072  0.3174 -0.6099
 4705TIP3    H114121   3.546   1.423   4.569  0.9299 -1.8022  0.3503
 4705TIP3    H214122   3.597   1.492   4.443 -2.5111 -0.9945 -0.7011
 4706TIP3   OH214123   3.411   2.567   1.908  0.1354 -0.7700  0.1245
 4706TIP3    H114124   3.501   2.564   1.941 -0.2261  0.4095  1.3108
 4706TIP3    H214125   3.362   2.509   1.966 -0.4151  0.9460  1.4415
 4707TIP3   OH214126   4.852   3.329   0.555 -1.1061 -0.8522 -0.5971
 4707TIP3    H114127   4.917   3.359   0.491  0.9324  1.2551  2.2053
 4707TIP3    H214128   4.851   3.234   0.545  2.4002 -1.0019 -0.9308
 4708TIP3   OH214129   4.495   5.185   4.139  0.5083  0.2415  0.4664
 4708TIP3    H114130   4.540   5.166   4.057 -0.3173 -0.8523  0.2375
 4708TIP3    H214131   4.410   5.143   4.130 -0.6419  2.3533  0.8377
 4709TIP3   OH214132   6.147   2.927   2.483  0.0000  0.1555 -0.0011
 4709TIP3    H114133   6.066   2.975   2.501 -1.6771 -0.5719 -4.3451
 4709TIP3    H214134   6.124   2.835   2.499 -0.5515 -0.1685 -2.2268
 4710TIP3   OH214135   5.711   3.206   2.805  0.0773  0.0252  0.1345
 4710TIP3    H114136   5.734   3.265   2.733  0.4920 -0.2644  0.0209
 4710TIP3    H214137   5.776   3.225   2.872 -1.0887  1.2118  0.9670
 4711TIP3   OH214138   0.683   2.863   3.032 -0.1508 -0.1356  0.4135
 4711TIP3    H114139   0.755   2.840   3.091  1.9796 -0.4197 -2.0916
 4711TIP3    H214140   0.726   2.887   2.950 -2.9009  0.9988 -0.8336
 4712TIP3   OH214141   2.955   5.044   0.473 -0.3047 -0.6200 -0.0318
 4712TIP3    H114142   2.924   5.108   0.409 -2.5797 -0.8694  0.7271
 4712TIP3    H214143   3.009   4.984   0.422 -0.7212  0.1230 -1.4005
 4713TIP3   OH214144   4.522   1.397   0.103  0.0703  0.1673  0.0334
 4713TIP3    H114145   4.450   1.348   0.066 -0.2002  0.8245 -0.3239
 4713TIP3    H214146   4.499   1.489   0.089  0.3789  0.4139  1.0279
 4714TIP3   OH214147   0.013   4.674   0.210  0.4572 -0.4264  0.0056
 4714TIP3    H114148  -0.053   4.633   0.154 -0.4192  2.0866 -0.9529
 4714TIP3    H214149   0.096   4.654   0.167 -0.0747  0.1247 -1.3315
 4715TIP3   OH214150   5.424   1.854   4.020  0.0245  0.2423  0.0272
 4715TIP3    H114151   5.482   1.802   3.965  1.3050 -0.1127  1.6299
 4715TIP3    H214152   5.447   1.829   4.110 -3.5878 -0.9935  0.7976
 4716TIP3   OH214153   4.874   5.302   5.086 -0.8818 -0.6753 -0.1926
 4716TIP3    H114154   4.914   5.345   5.011 -0.9555  0.0740  0.1791
 4716TIP3    H214155   4.903   5.211   5.082  0.3824 -0.2817 -0.2478
 4717TIP3   OH214156   3.127   5.589   4.902  0.2780 -0.4286 -0.1273
 4717TIP3    H114157   3.059   5.531   4.936 -1.0764 -0.5452 -2.7956
 4717TIP3    H214158   3.205   5.534   4.898  0.1368 -0.7860  1.3886
 4718TIP3   OH214159   2.321   0.385   4.623  0.0859  0.5392  0.3062
 4718TIP3    H114160   2.287   0.324   4.689  0.9337 -1.1794 -0.7587
 4718TIP3    H214161   2.395   0.428   4.666  1.2075 -1.2319  0.2465
 4719TIP3   OH214162   0.849   2.190   1.210  0.2853  0.5308  0.6546
 4719TIP3    H114163   0.850   2.096   1.228  1.1885  0.7043  1.6083
 4719TIP3    H214164   0.924   2.205   1.153 -0.7351  0.4679 -0.7584
 4720TIP3   OH214165   3.888   1.646   2.484  0.7395  0.3117 -0.2812
 4720TIP3    H114166   3.919   1.707   2.550  2.3279 -1.7193  0.9660
 4720TIP3    H214167   3.964   1.593   2.461 -0.6083 -1.4577 -0.9958
 4721TIP3   OH214168   0.773   0.769   4.478  0.4345 -0.6865 -0.3725
 4721TIP3    H114169   0.819   0.685   4.482  1.1394 -0.2563  0.7733
 4721TIP3    H214170   0.680   0.745   4.485  0.4886 -1.4884 -1.8324
 4722TIP3   OH214171   4.542   4.090   1.410 -0.2028 -0.3411  0.6110
 4722TIP3    H114172   4.470   4.136   1.453 -0.4734  0.2624 -0.4435
 4722TIP3    H214173   4.538   4.119   1.318  1.6403  0.0463  0.6093
 4723TIP3   OH214174   5.674   0.776   1.818  0.4844  0.2051  0.2282
 4723TIP3    H114175   5.748   0.798   1.761  0.0346  0.0754 -0.4187
 4723TIP3    H214176   5.625   0.710   1.770 -0.4152  0.7539  0.3516
 4724TIP3   OH214177   4.939   2.453   3.207 -0.3629 -0.4644 -0.2546
 4724TIP3    H114178   4.857   2.488   3.241  1.0052  1.9728  0.7291
 4724TIP3    H214179   4.988   2.426   3.285 -0.1580 -1.8411 -0.8248
 4725TIP3   OH214180   2.553   1.292   3.140  0.2675 -0.4649 -0.0318
 4725TIP3    H114181   2.483   1.230   3.121  0.9301 -1.8985  1.8852
 4725TIP3    H214182   2.507   1.375   3.157 -0.7692 -0.8234 -0.9372
 4726TIP3   OH214183   3.701   5.365   1.765  0.0031 -0.0019 -0.2716
 4726TIP3    H114184   3.711   5.272   1.748  0.3142 -0.2974  1.3300
 4726TIP3    H214185   3.686   5.371   1.860 -0.3201  1.5497 -0.3798
 4727TIP3   OH214186   4.341   0.964   1.343  0.2143 -0.8499  0.0369
 4727TIP3    H114187   4.310   0.937   1.257  0.2632 -1.6462  0.2550
 4727TIP3    H214188   4.315   0.892   1.401 -0.1469 -0.1541  0.7568
 4728TIP3   OH214189   2.191   4.702   3.268  0.2373  0.0440 -0.5734
 4728TIP3    H114190   2.236   4.746   3.197  0.1335  0.0269 -0.6499
 4728TIP3    H214191   2.172   4.771   3.332  0.3790  0.0491 -0.5373
 4729TIP3   OH214192   0.525   2.360   0.744 -0.0923  0.1123  0.6473
 4729TIP3    H114193   0.562   2.377   0.657 -1.3721 -0.3054 -0.0169
 4729TIP3    H214194   0.498   2.268   0.741 -0.7901  0.2850  1.2260
 4730TIP3   OH214195   4.872   5.295   2.668 -0.4056 -0.2627 -0.6390
 4730TIP3    H114196   4.935   5.225   2.684  0.6629  1.2439  2.6064
 4730TIP3    H214197   4.803   5.281   2.733  0.3502  2.1299  0.8225
 4731TIP3   OH214198   5.350   4.185   4.460 -0.2052 -0.6034  0.1293
 4731TIP3    H114199   5.388   4.234   4.387  0.0416 -1.4532 -0.3265
 4731TIP3    H214200   5.265   4.155   4.427  0.4127 -2.0128 -0.2713
 4732TIP3   OH214201   4.430   0.701   3.937 -0.0292  0.5470 -0.6388
 4732TIP3    H114202   4.340   0.735   3.934 -0.6287 -0.9501 -1.0572
 4732TIP3    H214203   4.455   0.692   3.845 -0.0524 -0.4564 -0.5597
 4733TIP3   OH214204   3.183   5.680   3.118  0.2365  0.1105 -0.0420
 4733TIP3    H114205   3.107   5.634   3.081  1.1288 -0.8607 -0.7281
 4733TIP3    H214206   3.259   5.635   3.081  1.1650  1.5049  0.0754
 4734TIP3   OH214207   3.110   4.108   3.508 -0.3697 -0.3811 -0.5434
 4734TIP3    H114208   3.164   4.167   3.560 -0.9651  0.3155 -0.6822
 4734TIP3    H214209   3.161   4.028   3.499  0.9408  0.5049 -1.2720
 4735TIP3   OH214210   1.431   5.532   0.304 -0.4502 -0.0576  0.9180
 4735TIP3    H114211   1.439   5.614   0.255 -1.3302 -0.0475  0.7803
 4735TIP3    H214212   1.405   5.558   0.392 -2.6490 -0.2655  0.3760
 4736TIP3   OH214213   2.025   4.518   2.916  0.1979 -0.3428  0.2588
 4736TIP3    H114214   1.983   4.495   2.999  1.2616 -0.5384  0.7609
 4736TIP3    H214215   2.057   4.434   2.882 -0.4210 -0.2955 -0.4699
 4737TIP3   OH214216   1.943   4.662   3.755 -0.0833 -0.1291  0.0390
 4737TIP3    H114217   2.011   4.707   3.806 -0.0647  0.7129 -0.6896
 4737TIP3    H214218   1.971   4.675   3.664 -1.6837  1.0293 -0.3227
 4738TIP3   OH214219   3.921   4.010   2.015  0.9788 -0.5114  0.4208
 4738TIP3    H114220   4.012   3.991   1.989  0.7695 -1.2954  0.2198
 4738TIP3    H214221   3.873   4.013   1.932  0.3251 -2.8924  0.6393
 4739TIP3   OH214222   2.245   1.842   4.369  0.0317  0.0379 -0.2434
 4739TIP3    H114223   2.280   1.912   4.425 -0.2206 -0.5895  0.7220
 4739TIP3    H214224   2.156   1.870   4.348  0.1540  0.3149 -0.3926
 4740TIP3   OH214225   1.235   1.157   2.402 -0.3633 -0.6121  0.2105
 4740TIP3    H114226   1.200   1.207   2.476 -0.0145 -1.5276  0.9943
 4740TIP3    H214227   1.165   1.161   2.336 -0.3056  0.9964  0.1931
 4741TIP3   OH214228   5.496   3.793   1.275 -0.6327 -0.3936 -0.7170
 4741TIP3    H114229   5.459   3.881   1.272 -2.0093 -0.9733 -1.8025
 4741TIP3    H214230   5.502   3.766   1.183 -1.3016 -1.8496 -0.3541
 4742TIP3   OH214231   0.813   0.035   0.359  0.2134 -0.0428 -0.1845
 4742TIP3    H114232   0.740   0.060   0.302 -1.5623  0.0053  2.0155
 4742TIP3    H214233   0.799   0.083   0.440  2.7330 -0.0300  0.3275
 4743TIP3   OH214234   3.574   3.818   0.078  0.0783 -0.3540  0.1659
 4743TIP3    H114235   3.632   3.781   0.011 -0.1991 -1.4470  0.5079
 4743TIP3    H214236   3.504   3.754   0.086  0.1444 -0.2641  1.5730
 4744TIP3   OH214237   0.208   2.110   5.093 -0.1406  0.0063  0.3176
 4744TIP3    H114238   0.271   2.149   5.032 -1.0278 -0.4950 -0.9628
 4744TIP3    H214239   0.175   2.184   5.144  0.9817  0.3663  0.5500
 4745TIP3   OH214240   1.373   1.123   0.281 -0.6524  0.1988  0.1132
 4745TIP3    H114241   1.366   1.169   0.198  0.4207 -0.9534 -0.6585
 4745TIP3    H214242   1.289   1.079   0.292 -0.8815  0.5435 -0.2478
 4746TIP3   OH214243   2.752   3.612   2.229 -0.4388 -0.0478  0.0537
 4746TIP3    H114244   2.700   3.535   2.205 -2.8518  1.8658 -1.2941
 4746TIP3    H214245   2.811   3.624   2.154  0.1151 -0.7170  0.3791
 4747TIP3   OH214246   3.406   4.946   0.331  0.1478  0.7925 -0.4190
 4747TIP3    H114247   3.404   5.021   0.271 -0.4250  0.2500 -1.0922
 4747TIP3    H214248   3.348   4.882   0.291  0.9863 -0.1996 -0.0909
 4748TIP3   OH214249   1.765   3.567   3.975 -0.2263 -0.6307  0.5667
 4748TIP3    H114250   1.797   3.478   3.961  0.9340 -0.1709  0.1680
 4748TIP3    H214251   1.827   3.605   4.038 -0.2082  0.1664  0.0811
 4749TIP3   OH214252   0.249   3.639   0.669  0.2339 -0.2903 -0.8148
 4749TIP3    H114253   0.277   3.697   0.739  2.7098 -2.9408  0.6085
 4749TIP3    H214254   0.155   3.656   0.660 -0.0032  0.8730  2.4635
 4750TIP3   OH214255   3.343   3.095   1.324  0.5505  0.1316 -0.0539
 4750TIP3    H114256   3.417   3.042   1.293 -0.0408 -1.4709  1.1053
 4750TIP3    H214257   3.378   3.183   1.334  1.4275  0.1344 -2.6508
 4751TIP3   OH214258   1.933   1.540   0.086  0.4822 -0.0476 -0.0189
 4751TIP3    H114259   1.933   1.465   0.145 -0.0699 -0.5095 -0.5868
 4751TIP3    H214260   1.896   1.506   0.004  0.5425  0.7584 -0.3923
 4752TIP3   OH214261   3.153   5.059   4.856 -0.0678  0.3268  0.3176
 4752TIP3    H114262   3.134   5.152   4.845  1.5390  0.5252 -1.0608
 4752TIP3    H214263   3.227   5.056   4.916 -0.0565 -0.0778  0.2893
 4753TIP3   OH214264   2.255   2.525   2.293  0.3390  0.2312 -0.1481
 4753TIP3    H114265   2.205   2.507   2.213  1.2241 -1.0888 -0.4519
 4753TIP3    H214266   2.204   2.484   2.363 -0.7942  1.9864  0.1117
 4754TIP3   OH214267   6.219   2.862   1.350 -0.2616  0.0130  0.4712
 4754TIP3    H114268   6.205   2.775   1.312 -0.2748  0.3970 -0.4177
 4754TIP3    H214269   6.156   2.866   1.423  1.1786 -1.5122  1.8962
 4755TIP3   OH214270   1.770   2.565   4.842  0.8874  0.0021  0.3935
 4755TIP3    H114271   1.856   2.604   4.827  0.5056  0.4464 -0.7428
 4755TIP3    H214272   1.726   2.627   4.900  0.6244  0.8110 -0.6468
 4756TIP3   OH214273   4.594   1.320   1.100  0.0442  0.2293 -0.7090
 4756TIP3    H114274   4.506   1.298   1.070  0.7917 -0.8560 -2.2911
 4756TIP3    H214275   4.586   1.407   1.137 -1.8343 -0.1505 -0.1284
 4757TIP3   OH214276   3.274   1.608   1.703  0.1235  0.0556  0.4408
 4757TIP3    H114277   3.243   1.526   1.741 -0.3349  0.3209  0.6463
 4757TIP3    H214278   3.197   1.647   1.663  0.2151  0.6580  0.8381
 4758TIP3   OH214279   4.040   3.561   3.052 -0.3799 -0.1506  0.3801
 4758TIP3    H114280   4.030   3.502   3.127  1.1543 -2.1574 -0.9058
 4758TIP3    H214281   4.023   3.648   3.088  0.5048 -1.0061  3.0974
 4759TIP3   OH214282   5.801   5.431   3.025  0.7248  0.1706  0.1089
 4759TIP3    H114283   5.751   5.509   3.047  0.0893 -1.0153  3.3874
 4759TIP3    H214284   5.825   5.444   2.933 -2.6753  2.3732 -0.6815
 4760TIP3   OH214285   2.198   2.697   1.510  0.0978  0.1813 -0.4097
 4760TIP3    H114286   2.170   2.633   1.445 -3.8041  0.2401  0.9733
 4760TIP3    H214287   2.165   2.781   1.476  2.2961  1.0283 -0.6118
 4761TIP3   OH214288   0.380   5.089   0.216  0.4161 -0.3595 -0.3098
 4761TIP3    H114289   0.358   5.151   0.286  0.5642 -1.5763  0.8522
 4761TIP3    H214290   0.309   5.098   0.152  0.1715  0.6261  0.0787
 4762TIP3   OH214291   0.862   0.445   1.449 -0.1071 -0.0751 -0.1661
 4762TIP3    H114292   0.807   0.390   1.393  2.7331 -1.9942 -1.3204
 4762TIP3    H214293   0.831   0.428   1.538 -1.7665 -0.5493 -0.8026
 4763TIP3   OH214294   2.716   4.471   0.612  0.1872  0.5790 -0.3782
 4763TIP3    H114295   2.712   4.390   0.563  0.0600  0.2881  0.1059
 4763TIP3    H214296   2.633   4.474   0.660  0.9355  0.0883  1.0064
 4764TIP3   OH214297   1.013   3.681   1.127  0.1946  0.0432  0.0896
 4764TIP3    H114298   1.064   3.676   1.047  0.2662  0.7851  0.0747
 4764TIP3    H214299   0.922   3.673   1.098  0.0768  2.1205 -0.3299
 4765TIP3   OH214300   3.364   1.934   4.304 -0.2805 -0.1537  0.0099
 4765TIP3    H114301   3.450   1.913   4.339 -0.2389 -0.9539 -0.5447
 4765TIP3    H214302   3.359   2.030   4.306  1.3091  0.0010 -1.5797
 4766TIP3   OH214303   3.326   1.900   3.629 -0.1716 -0.2613 -0.0343
 4766TIP3    H114304   3.242   1.945   3.636  0.1902  0.3817  0.1943
 4766TIP3    H214305   3.354   1.888   3.719 -1.2583 -2.8666  0.0465
 4767TIP3   OH214306   6.142   4.783   0.779 -0.2064  0.2178 -0.6799
 4767TIP3    H114307   6.089   4.754   0.704 -1.4397  0.6016  0.0236
 4767TIP3    H214308   6.115   4.726   0.851  0.8423 -0.0215 -0.4597
 4768TIP3   OH214309   3.761   4.814   2.851 -0.1679 -0.5888  0.0673
 4768TIP3    H114310   3.847   4.794   2.815  0.4056 -0.7310  1.4569
 4768TIP3    H214311   3.726   4.730   2.879  0.2110 -0.2975  1.5299
 4769TIP3   OH214312   2.132   2.149   0.787  0.1996 -0.0594 -0.6376
 4769TIP3    H114313   2.124   2.139   0.881  2.9028 -1.0393 -0.4162
 4769TIP3    H214314   2.083   2.229   0.767  0.5997  0.8912  1.7909
 4770TIP3   OH214315   5.634   5.553   3.756  0.0817 -0.2097 -0.0075
 4770TIP3    H114316   5.616   5.646   3.771  1.6191  0.0560  0.3772
 4770TIP3    H214317   5.569   5.526   3.691  1.0203  1.7375 -1.8740
 4771TIP3   OH214318   3.139   1.944   2.266  0.1873 -0.1636 -0.1270
 4771TIP3    H114319   3.072   1.899   2.214  0.1254  1.5734 -1.6535
 4771TIP3    H214320   3.099   1.956   2.352 -0.8870 -0.4717 -0.5707
 4772TIP3   OH214321   5.455   5.891   5.064  0.2760  0.7646 -0.0681
 4772TIP3    H114322   5.371   5.861   5.030  0.7098  0.0176 -0.5220
 4772TIP3    H214323   5.506   5.915   4.987  1.1352 -0.5954  0.0370
 4773TIP3   OH214324   4.219   4.467   3.932 -0.3989 -0.0710  0.5838
 4773TIP3    H114325   4.293   4.410   3.912  1.0172  0.3342  4.0917
 4773TIP3    H214326   4.143   4.410   3.928  0.2624 -0.9168 -1.2069
 4774TIP3   OH214327   4.474   2.111   2.338 -0.1861  0.0757 -0.1162
 4774TIP3    H114328   4.476   2.039   2.275  0.3068 -0.9735  1.0614
 4774TIP3    H214329   4.537   2.175   2.303 -1.9326  0.8207 -2.1089
 4775TIP3   OH214330   1.414   2.508   3.861 -0.4929  0.3177 -0.3770
 4775TIP3    H114331   1.449   2.483   3.947 -1.2477 -0.2721 -0.2300
 4775TIP3    H214332   1.467   2.583   3.835  0.5365 -0.2237  0.0709
 4776TIP3   OH214333   4.746   2.293   4.439  0.5402  0.1477  0.2367
 4776TIP3    H114334   4.784   2.288   4.352  1.2789 -0.7170  0.5992
 4776TIP3    H214335   4.817   2.325   4.495 -0.6522  3.4624  0.1067
 4777TIP3   OH214336   3.488   2.756   0.713 -0.2623 -0.0534  0.5319
 4777TIP3    H114337   3.575   2.794   0.728 -0.4373  0.5036  0.1924
 4777TIP3    H214338   3.497   2.711   0.629 -0.2664 -0.1003  0.5568
 4778TIP3   OH214339   2.660   0.482   1.354 -0.2694  0.3873  0.3413
 4778TIP3    H114340   2.625   0.473   1.442  0.7731  0.3206  0.7559
 4778TIP3    H214341   2.755   0.473   1.364 -0.2342 -1.5308 -1.0136
 4779TIP3   OH214342   3.854   2.653   2.140  0.3014 -0.3932 -0.0677
 4779TIP3    H114343   3.800   2.585   2.100  0.8669 -0.6077 -0.4772
 4779TIP3    H214344   3.943   2.634   2.110  0.3295  1.1480 -1.0897
 4780TIP3   OH214345   1.095   2.570   0.013 -0.4791 -0.1507 -0.1038
 4780TIP3    H114346   1.070   2.620   0.092 -2.7940  0.9769 -1.4412
 4780TIP3    H214347   1.110   2.637  -0.054  4.6501 -0.8349 -0.0353
 4781TIP3   OH214348   3.477   5.887   4.138  0.0141 -0.0138 -0.1667
 4781TIP3    H114349   3.533   5.819   4.177 -0.2469 -0.3809 -0.4188
 4781TIP3    H214350   3.538   5.949   4.099  0.2428 -0.4408 -0.4904
 4782TIP3   OH214351   4.024   5.878   2.804 -0.5393  0.0500 -0.4342
 4782TIP3    H114352   3.997   5.957   2.851 -0.8218 -0.1742 -0.2227
 4782TIP3    H214353   4.041   5.813   2.872 -0.1200 -0.0147 -0.5990
 4783TIP3   OH214354   4.845   4.345   2.905  0.3455 -0.4021  0.5899
 4783TIP3    H114355   4.935   4.313   2.903  0.1725 -0.8779  0.3828
 4783TIP3    H214356   4.805   4.302   2.981  0.3364 -0.0665  0.7789
 4784TIP3   OH214357   1.851   3.752   4.212 -0.1620  0.4475  0.1855
 4784TIP3    H114358   1.849   3.763   4.307 -0.7914  2.2804 -0.0017
 4784TIP3    H214359   1.942   3.770   4.188  0.2106 -0.8872  0.4934
 4785TIP3   OH214360   5.730   0.541   3.139  0.3014  0.2461  0.4325
 4785TIP3    H114361   5.786   0.568   3.211  1.0676 -0.7426  0.2374
 4785TIP3    H214362   5.677   0.470   3.174  1.2315 -0.7799 -0.1533
 4786TIP3   OH214363   1.679   0.205   1.144  0.2089 -0.1951  0.2257
 4786TIP3    H114364   1.706   0.119   1.178  1.3742 -0.0077 -0.1833
 4786TIP3    H214365   1.761   0.255   1.138 -0.3537  0.6797 -0.2771
 4787TIP3   OH214366   3.686   0.597   5.144 -0.1705 -0.1121 -0.7575
 4787TIP3    H114367   3.745   0.551   5.203 -0.1618  0.9337  0.0770
 4787TIP3    H214368   3.735   0.603   5.061 -0.3658 -1.9778 -1.0471
 4788TIP3   OH214369   2.596   4.411   4.590 -0.6589 -0.3117 -0.3174
 4788TIP3    H114370   2.604   4.318   4.570  0.4909 -0.2659 -0.1390
 4788TIP3    H214371   2.544   4.447   4.517 -0.4428 -0.9454 -0.7938
 4789TIP3   OH214372   3.782   5.158   1.492 -0.3370 -0.2742 -0.1650
 4789TIP3    H114373   3.782   5.073   1.448  0.9266  0.1111 -0.9658
 4789TIP3    H214374   3.742   5.141   1.577  1.1613 -1.9760  0.2541
 4790TIP3   OH214375   0.551   1.341   2.543 -0.1705  0.5624  0.1237
 4790TIP3    H114376   0.477   1.381   2.589  0.6200  1.8535  0.3206
 4790TIP3    H214377   0.517   1.321   2.456 -0.8714  0.7723  0.3437
 4791TIP3   OH214378   1.606   1.374   0.533 -0.1642  0.1042  0.2158
 4791TIP3    H114379   1.533   1.435   0.551 -1.0770 -1.1729  1.0384
 4791TIP3    H214380   1.649   1.364   0.618  0.4020  0.1125 -0.0692
 4792TIP3   OH214381   2.778   3.580   2.942  0.8848  0.4442  0.3733
 4792TIP3    H114382   2.824   3.500   2.965  1.2585  0.4717 -0.2442
 4792TIP3    H214383   2.836   3.651   2.970  1.2366  0.4794 -0.4354
 4793TIP3   OH214384   1.298   4.325   4.590 -0.6908  0.4310 -0.4107
 4793TIP3    H114385   1.372   4.356   4.538 -1.8383 -0.8493 -3.0615
 4793TIP3    H214386   1.244   4.403   4.604  0.8694  1.2894  1.1769
 4794TIP3   OH214387   4.916   4.166   2.037  0.1199 -0.2266 -0.7227
 4794TIP3    H114388   4.873   4.194   1.956  0.6610 -0.5922 -1.1472
 4794TIP3    H214389   4.901   4.238   2.098 -1.8806 -0.7260 -0.5425
 4795TIP3   OH214390   4.331   5.571   4.564  0.0399 -0.2608 -0.2835
 4795TIP3    H114391   4.325   5.589   4.657 -0.4542  3.0280 -0.8467
 4795TIP3    H214392   4.419   5.600   4.539 -0.7447  1.4090 -1.2475
 4796TIP3   OH214393   0.070   3.532   1.651 -0.4756  0.0521  0.3155
 4796TIP3    H114394   0.116   3.537   1.567 -2.0006 -0.4429 -0.5912
 4796TIP3    H214395   0.042   3.621   1.668 -1.7378 -0.1325 -0.6561
 4797TIP3   OH214396   1.895   1.791   3.457 -0.0507 -0.2438  0.6083
 4797TIP3    H114397   1.973   1.812   3.508  0.2277 -1.0350  0.5173
 4797TIP3    H214398   1.929   1.755   3.375 -0.4776 -2.8461  1.4866
 4798TIP3   OH214399   1.161   0.168   2.455 -0.0381 -0.2018 -0.0969
 4798TIP3    H114400   1.207   0.251   2.461 -0.8988  0.2277  0.8734
 4798TIP3    H214401   1.172   0.128   2.541  0.9662 -1.4361 -0.7669
 4799TIP3   OH214402   0.379   3.237   0.690  0.0454  0.3732 -0.4173
 4799TIP3    H114403   0.430   3.157   0.704  1.3295  1.5321  2.3621
 4799TIP3    H214404   0.298   3.222   0.739 -0.3979  0.2169 -1.1833
 4800TIP3   OH214405   3.679   3.066   2.128  0.5962 -0.0682 -0.4812
 4800TIP3    H114406   3.761   3.020   2.110  0.7308 -0.3097  0.6463
 4800TIP3    H214407   3.688   3.096   2.218 -1.0506 -1.1698  0.0978
 4801TIP3   OH214408   5.698   4.234   3.428  0.1556  0.1762 -0.5118
 4801TIP3    H114409   5.733   4.309   3.379  1.3159 -0.4792 -0.7262
 4801TIP3    H214410   5.715   4.158   3.373  2.3062 -0.7104  1.2094
 4802TIP3   OH214411   0.690   5.707   4.725 -0.1639 -0.2995 -0.8367
 4802TIP3    H114412   0.742   5.786   4.709  0.1560 -0.5259 -0.9496
 4802TIP3    H214413   0.641   5.694   4.644 -0.8832  0.2664 -0.5017
 4803TIP3   OH214414   3.044   3.924   3.931 -0.1323 -0.6769  0.2302
 4803TIP3    H114415   3.114   3.880   3.883 -0.6430 -0.8359 -0.3805
 4803TIP3    H214416   2.983   3.954   3.864 -0.4455 -0.1680  0.7251
 4804TIP3   OH214417   2.623   2.542   0.916 -0.6756  0.3709  0.3777
 4804TIP3    H114418   2.650   2.544   1.007  3.7949  0.2901 -0.7430
 4804TIP3    H214419   2.662   2.463   0.880 -2.4269  0.3273 -1.6459
 4805TIP3   OH214420   4.860   2.072   0.503 -0.4116 -0.2526 -0.2844
 4805TIP3    H114421   4.897   2.039   0.585 -0.9680 -0.1110  0.0289
 4805TIP3    H214422   4.793   2.134   0.531 -0.9120 -0.5380 -0.8412
 4806TIP3   OH214423   2.728   4.810   0.874 -0.1038 -0.4027  0.6204
 4806TIP3    H114424   2.789   4.875   0.838  0.6992 -0.9652  0.9463
 4806TIP3    H214425   2.766   4.726   0.852 -1.6649 -0.8244 -0.6971
 4807TIP3   OH214426   5.162   2.983   3.236 -0.3649  0.4117 -0.3992
 4807TIP3    H114427   5.132   3.047   3.300  0.6707 -0.4386  0.9859
 4807TIP3    H214428   5.088   2.924   3.224 -0.0737 -0.3237  1.2237
 4808TIP3   OH214429   1.665   4.787   2.265  0.4311 -0.1828  0.0729
 4808TIP3    H114430   1.617   4.864   2.236 -2.7323 -1.7040  0.8340
 4808TIP3    H214431   1.646   4.781   2.359  2.0667 -0.9450  0.3876
 4809TIP3   OH214432   1.443   1.409   1.453 -0.6326  0.1244 -0.3558
 4809TIP3    H114433   1.500   1.353   1.505  1.1643  0.9073 -1.4060
 4809TIP3    H214434   1.356   1.370   1.463  0.1793 -1.5215  0.7278
 4810TIP3   OH214435   4.279   0.727   1.735  0.1933 -0.1010  0.0571
 4810TIP3    H114436   4.322   0.693   1.814  0.9633  0.1480 -0.2436
 4810TIP3    H214437   4.234   0.651   1.697  1.7705 -0.7903 -0.5272
 4811TIP3   OH214438   1.868   3.260   4.796 -0.1131  0.4518  0.0750
 4811TIP3    H114439   1.881   3.222   4.709 -0.4283 -0.9230  0.5853
 4811TIP3    H214440   1.949   3.307   4.815 -0.0534  0.7953 -0.9631
 4812TIP3   OH214441   3.243   0.355   1.571  0.1608  0.7249  0.2225
 4812TIP3    H114442   3.211   0.363   1.482 -2.0547  0.3892  0.9272
 4812TIP3    H214443   3.237   0.444   1.607 -0.8321  0.5170  0.6024
 4813TIP3   OH214444   6.067   5.745   4.536 -0.1458 -0.2211 -0.7471
 4813TIP3    H114445   6.137   5.701   4.488  1.8141  1.3927  0.4437
 4813TIP3    H214446   6.111   5.816   4.583 -2.6552  1.0803 -0.1560
 4814TIP3   OH214447   0.033   3.464   2.108 -0.0512  0.6845 -0.4790
 4814TIP3    H114448   0.090   3.496   2.178  1.3647 -1.6222 -0.4767
 4814TIP3    H214449   0.092   3.439   2.038 -1.3748  1.8302 -2.1140
 4815TIP3   OH214450   2.745   0.054   3.704 -0.4210 -0.2035 -0.1197
 4815TIP3    H114451   2.703  -0.016   3.654 -1.9129  0.5276  0.0555
 4815TIP3    H214452   2.673   0.100   3.747  0.5999  0.8694  0.5166
 4816TIP3   OH214453   3.042   1.139   2.478  0.2078 -0.5520 -0.3962
 4816TIP3    H114454   3.079   1.168   2.394 -0.7495  0.0975 -0.6116
 4816TIP3    H214455   3.111   1.086   2.518  1.6533  1.2245 -0.4337
 4817TIP3   OH214456   4.919   5.557   1.867  0.0104  0.3737 -0.1577
 4817TIP3    H114457   4.943   5.572   1.958  0.8222 -1.5698  0.0000
 4817TIP3    H214458   4.992   5.593   1.816  0.5744 -0.4089  0.0766
 4818TIP3   OH214459   2.587   5.943   4.348  0.1211  0.0429  0.3917
 4818TIP3    H114460   2.555   6.032   4.363  1.5638  0.5540  0.6457
 4818TIP3    H214461   2.645   5.925   4.422  0.4068 -0.8288 -0.0234
 4819TIP3   OH214462   5.288   3.532   0.867  1.0455 -0.2973  0.4230
 4819TIP3    H114463   5.358   3.551   0.804 -1.6903  1.1850 -2.4557
 4819TIP3    H214464   5.248   3.618   0.884 -0.9978 -1.2453  0.7210
 4820TIP3   OH214465   1.130   1.568   4.947  0.1971 -0.1887 -0.4873
 4820TIP3    H114466   1.219   1.603   4.948  0.1402 -0.0646  0.4804
 4820TIP3    H214467   1.107   1.564   4.854  1.3763 -0.6376 -0.7700
 4821TIP3   OH214468   5.299   0.766   2.690  0.4416  0.3453 -0.0979
 4821TIP3    H114469   5.315   0.826   2.617  1.6420 -0.2526 -0.3479
 4821TIP3    H214470   5.310   0.820   2.768  2.0741  0.3624 -0.3015
 4822TIP3   OH214471   4.351   3.987   1.177  0.7148  0.4927  0.2641
 4822TIP3    H114472   4.344   3.899   1.214 -1.3767  0.5665  0.1582
 4822TIP3    H214473   4.315   4.045   1.245  0.5864  1.0767 -0.2893
 4823TIP3   OH214474   2.404   0.981   2.441  0.2600 -0.4878 -1.0506
 4823TIP3    H114475   2.371   0.893   2.422  0.1843 -0.6229 -0.3278
 4823TIP3    H214476   2.364   1.036   2.374  0.4302 -1.0286 -1.6021
 4824TIP3   OH214477   4.530   5.101   2.865  0.1532 -0.3472  0.2117
 4824TIP3    H114478   4.575   5.041   2.806  0.9460 -0.8197  1.2802
 4824TIP3    H214479   4.481   5.044   2.924 -0.3184  0.1132  0.2726
 4825TIP3   OH214480   1.557   3.032   1.187  0.7141  0.1475 -0.1555
 4825TIP3    H114481   1.560   3.076   1.102  1.7849  0.4167  0.0122
 4825TIP3    H214482   1.622   2.963   1.182  2.3558  1.5244  1.1536
 4826TIP3   OH214483   5.567   0.215   0.089  0.2317 -0.0693  0.3289
 4826TIP3    H114484   5.652   0.193   0.051  0.2296 -1.9972  1.3219
 4826TIP3    H214485   5.540   0.294   0.042  1.1585 -1.1212 -2.1724
 4827TIP3   OH214486   4.423   4.508   2.390  0.1577 -0.5128 -0.2507
 4827TIP3    H114487   4.505   4.520   2.438 -0.2747 -1.1824  0.6854
 4827TIP3    H214488   4.430   4.569   2.316  0.8794  0.4887  0.6006
 4828TIP3   OH214489   3.846   3.176   3.330  0.6882  0.3694  0.0543
 4828TIP3    H114490   3.787   3.225   3.387  0.9827  0.4652  0.2790
 4828TIP3    H214491   3.788   3.122   3.276  0.3334  1.3259 -0.5393
 4829TIP3   OH214492   5.606   2.966   2.673  0.0021  0.3770 -0.2544
 4829TIP3    H114493   5.637   3.039   2.727  0.7031  0.1123 -0.2771
 4829TIP3    H214494   5.512   2.978   2.667  0.0529  1.0154  0.1350
 4830TIP3   OH214495   1.703   1.784   1.766  0.2875  0.1819  0.2147
 4830TIP3    H114496   1.739   1.864   1.727 -1.2880  2.0120  2.3329
 4830TIP3    H214497   1.769   1.757   1.830 -0.0491  0.8882  0.8571
 4831TIP3   OH214498   4.218   0.878   4.726 -0.1939 -0.0511  0.2782
 4831TIP3    H114499   4.296   0.931   4.740  0.2709 -0.3774 -0.9917
 4831TIP3    H214500   4.237   0.795   4.769  1.2806 -1.0990 -2.2080
 4832TIP3   OH214501   4.803   1.558   4.011 -0.5399  0.0295 -0.1721
 4832TIP3    H114502   4.820   1.501   4.086  0.3143 -0.3394 -0.6267
 4832TIP3    H214503   4.835   1.508   3.936  0.8464  1.3642 -0.5184
 4833TIP3   OH214504   5.823   4.977   0.750  0.3123 -0.7325 -0.5616
 4833TIP3    H114505   5.830   4.973   0.845  1.8707 -0.5059 -0.6510
 4833TIP3    H214506   5.744   5.030   0.734  1.8266  2.0771  0.6279
 4834TIP3   OH214507   3.918   2.011   0.144  0.0816 -0.4099 -0.1020
 4834TIP3    H114508   3.893   2.093   0.187  0.3679 -0.9595  1.1498
 4834TIP3    H214509   4.014   2.011   0.146  0.1932  0.3263 -2.2826
 4835TIP3   OH214510   3.424   2.566   1.641 -0.1541  0.5377 -0.0114
 4835TIP3    H114511   3.412   2.567   1.736 -3.9647  1.4087 -0.3401
 4835TIP3    H214512   3.450   2.656   1.619  2.5877 -0.1028  0.2517
 4836TIP3   OH214513   1.175   0.996   0.738 -0.0587  0.5278  0.0459
 4836TIP3    H114514   1.253   0.962   0.782  0.8732  1.8583 -0.5319
 4836TIP3    H214515   1.118   0.919   0.730  0.6447 -0.2063  1.5876
 4837TIP3   OH214516   2.200   5.488   3.495  0.0317  0.0789  0.6856
 4837TIP3    H114517   2.220   5.450   3.410  0.3605 -4.0680  2.3671
 4837TIP3    H214518   2.284   5.514   3.531  0.4705 -2.0577  1.3035
 4838TIP3   OH214519   5.164   5.930   0.909 -0.6608 -0.3582  0.3661
 4838TIP3    H114520   5.102   5.943   0.837  0.3680  2.3741 -0.1681
 4838TIP3    H214521   5.131   5.985   0.980  0.2002 -0.2437  0.6983
 4839TIP3   OH214522   0.126   5.277   0.171  0.3147 -0.5593 -0.2728
 4839TIP3    H114523   0.209   5.297   0.127  0.1235 -1.0874 -0.8907
 4839TIP3    H214524   0.119   5.343   0.241  1.8357 -1.2665  0.5815
 4840TIP3   OH214525   1.844   2.042   5.054  0.0563  0.7023 -0.2900
 4840TIP3    H114526   1.835   2.104   5.127 -0.4598  3.1659 -2.2962
 4840TIP3    H214527   1.938   2.027   5.047  0.2314  1.6124 -0.0287
 4841TIP3   OH214528   1.796   1.292   3.892 -0.1688 -0.3936 -0.0952
 4841TIP3    H114529   1.736   1.221   3.869  1.3768 -2.6243  2.2174
 4841TIP3    H214530   1.883   1.251   3.890  0.6222  0.8458  3.1262
 4842TIP3   OH214531   3.357   3.375   3.915  0.2368 -0.2262  0.0142
 4842TIP3    H114532   3.418   3.401   3.983  0.4177 -0.2195 -0.1483
 4842TIP3    H214533   3.289   3.442   3.916  1.1273  0.7325 -0.9601
 4843TIP3   OH214534   5.724   2.738   0.142 -0.1036 -0.1348 -0.8158
 4843TIP3    H114535   5.638   2.776   0.161  0.2855  0.7900 -0.8274
 4843TIP3    H214536   5.705   2.663   0.086 -0.9875 -0.7259  0.2543
 4844TIP3   OH214537   4.407   0.132   1.351  0.5123 -0.3893  0.0894
 4844TIP3    H114538   4.470   0.189   1.396  0.1991  0.4304 -0.4859
 4844TIP3    H214539   4.438   0.043   1.368  0.8950 -0.0627  1.1865
 4845TIP3   OH214540   3.130   1.667   3.819 -0.0189 -0.1928 -0.1013
 4845TIP3    H114541   3.084   1.751   3.830 -1.3883 -1.0636  1.4201
 4845TIP3    H214542   3.069   1.613   3.769  0.6155 -0.4579 -0.5961
 4846TIP3   OH214543   2.373   1.665   0.735 -0.6509  0.2817  0.3085
 4846TIP3    H114544   2.437   1.646   0.804  1.0734  0.0193 -1.2828
 4846TIP3    H214545   2.426   1.690   0.660 -2.4875  0.9312 -0.8367
 4847TIP3   OH214546   1.412   1.230   3.211  0.3531  0.3057  0.3339
 4847TIP3    H114547   1.362   1.215   3.131 -0.7455 -0.7521  1.1779
 4847TIP3    H214548   1.500   1.197   3.191 -0.1523 -0.7869 -0.1634
 4848TIP3   OH214549   0.076   2.369   1.803  0.2686 -0.0928  0.0120
 4848TIP3    H114550  -0.018   2.376   1.819  0.2215  1.5922 -0.7602
 4848TIP3    H214551   0.083   2.333   1.715  0.3703 -0.6029  0.2232
 4849TIP3   OH214552   1.431   0.840   0.176 -0.1683  0.1909  0.4225
 4849TIP3    H114553   1.429   0.752   0.215  3.7505 -0.1300  0.3179
 4849TIP3    H214554   1.409   0.898   0.249 -2.4515 -0.7810  0.5891
 4850TIP3   OH214555   2.904   1.911   0.126 -0.8697 -0.5960  0.0355
 4850TIP3    H114556   2.862   1.934   0.044 -2.1143 -0.8909  0.5752
 4850TIP3    H214557   2.951   1.990   0.153 -0.5219 -0.4768 -0.9086
 4851TIP3   OH214558   0.302   1.466   2.599  0.2101  0.1095 -0.3630
 4851TIP3    H114559   0.247   1.401   2.643  0.8103 -0.1483  0.0202
 4851TIP3    H214560   0.279   1.458   2.506 -0.5746  0.1823 -0.1870
 4852TIP3   OH214561   1.057   3.306   3.179  0.0554  0.0818 -0.0920
 4852TIP3    H114562   1.024   3.357   3.105 -0.6875 -2.3519 -1.5469
 4852TIP3    H214563   1.146   3.337   3.192 -0.8849  2.9485  0.3212
 4853TIP3   OH214564   2.732   2.282   0.827  0.1083  0.2677  0.0734
 4853TIP3    H114565   2.812   2.231   0.842 -0.2405  0.2275  2.0257
 4853TIP3    H214566   2.667   2.216   0.803  0.3760  0.1643 -0.3811
 4854TIP3   OH214567   6.214   0.085   3.171  0.5594  0.3326 -0.6190
 4854TIP3    H114568   6.128   0.098   3.211 -0.1927  2.6570 -2.6986
 4854TIP3    H214569   6.242  -0.001   3.201 -0.4741  1.2515  3.6561
 4855TIP3   OH214570   2.377   5.015   1.809 -0.0935 -0.2416  0.1897
 4855TIP3    H114571   2.357   5.045   1.898  1.0574 -0.7570  0.6422
 4855TIP3    H214572   2.465   4.977   1.816 -0.4207 -1.2484 -0.9519
 4856TIP3   OH214573   1.783   1.310   4.965 -0.8720 -0.3723  0.4184
 4856TIP3    H114574   1.801   1.352   5.048  1.6091 -2.2816  0.9455
 4856TIP3    H214575   1.694   1.275   4.975 -0.8796  0.0260  1.9829
 4857TIP3   OH214576   4.373   3.331   4.945  0.2191  0.2557  0.1304
 4857TIP3    H114577   4.346   3.418   4.977 -1.0207  0.3264 -1.0024
 4857TIP3    H214578   4.453   3.312   4.993  0.8609  2.2910 -0.0113
 4858TIP3   OH214579   5.601   5.494   0.183  0.2911  0.1918 -0.3231
 4858TIP3    H114580   5.565   5.510   0.096 -0.8445 -0.3829  0.0243
 4858TIP3    H214581   5.545   5.542   0.242  1.1497  0.7037  0.0971
 4859TIP3   OH214582   0.507   1.285   2.865 -0.3896 -0.1305  0.2987
 4859TIP3    H114583   0.447   1.252   2.799 -1.8279  0.4395  1.2541
 4859TIP3    H214584   0.474   1.372   2.886  1.0837  0.4116  0.5217
 4860TIP3   OH214585   4.150   0.187   1.482  0.3890 -0.0418  0.1721
 4860TIP3    H114586   4.076   0.143   1.442 -0.8096  0.6833  1.5106
 4860TIP3    H214587   4.223   0.172   1.421 -1.0256 -0.0844 -1.5887
 4861TIP3   OH214588   5.192   2.078   0.409 -0.0079 -0.1601  0.2052
 4861TIP3    H114589   5.258   2.093   0.340  1.2278 -0.7364  1.2133
 4861TIP3    H214590   5.144   2.000   0.379  1.1129 -0.9533  0.3799
 4862TIP3   OH214591   3.760   1.535   1.164  0.1593  0.0714  0.4121
 4862TIP3    H114592   3.850   1.561   1.186 -0.0920  1.0295  0.3567
 4862TIP3    H214593   3.739   1.587   1.086 -0.1367 -0.8019 -0.0957
 4863TIP3   OH214594   2.966   4.528   1.124  0.3774  0.4939  0.1962
 4863TIP3    H114595   3.022   4.605   1.136  0.2482  0.6440 -0.1584
 4863TIP3    H214596   2.878   4.563   1.115 -0.0229  0.1622  2.3892
 4864TIP3   OH214597   4.301   2.320   3.319 -0.3294 -0.2243 -0.0756
 4864TIP3    H114598   4.275   2.289   3.406  0.5593 -1.0195 -0.0707
 4864TIP3    H214599   4.354   2.248   3.283 -0.2482  0.3109 -1.0622
 4865TIP3   OH214600   2.624   4.635   1.810 -0.0268 -0.2591 -0.2803
 4865TIP3    H114601   2.689   4.564   1.818 -0.4278 -0.6397 -0.3583
 4865TIP3    H214602   2.554   4.598   1.756 -0.1720  0.2501 -0.4453
 4866TIP3   OH214603   0.933   5.816   3.964  0.2164 -0.0241  0.0435
 4866TIP3    H114604   0.885   5.895   3.940  1.0127  0.3413 -0.4214
 4866TIP3    H214605   0.866   5.751   3.981 -0.4390  0.4057 -0.8086
 4867TIP3   OH214606   2.553   3.780   0.719  0.3145  0.6480  0.3499
 4867TIP3    H114607   2.598   3.729   0.652  0.2193  0.2926  0.5520
 4867TIP3    H214608   2.557   3.725   0.798  0.2887  0.9918  0.5932
 4868TIP3   OH214609   1.103   2.699   2.965  0.5033  0.2723  0.4960
 4868TIP3    H114610   1.034   2.638   2.989 -1.7304  1.2900 -2.5784
 4868TIP3    H214611   1.154   2.652   2.899 -0.1410  1.0233 -0.5768
 4869TIP3   OH214612   2.555   2.090   0.736 -0.3383 -0.5752  0.0376
 4869TIP3    H114613   2.530   2.105   0.644  1.7048  0.6685 -0.3651
 4869TIP3    H214614   2.472   2.089   0.783 -1.2813  2.7951 -1.2902
 4870TIP3   OH214615   0.403   1.652   0.086 -0.6031 -0.2913 -0.2715
 4870TIP3    H114616   0.357   1.584   0.035 -0.2570 -0.0327 -0.9407
 4870TIP3    H214617   0.467   1.688   0.025 -0.3851  0.2368  0.2643
 4871TIP3   OH214618   5.930   5.881   0.649 -0.3123  0.3568  0.2712
 4871TIP3    H114619   5.970   5.798   0.673 -1.7198 -0.0923  1.2165
 4871TIP3    H214620   5.851   5.857   0.601 -1.5874  1.0435  1.8996
 4872TIP3   OH214621   2.818   4.713   2.855 -0.2587  0.1164  0.4987
 4872TIP3    H114622   2.761   4.767   2.800 -0.7003 -0.1181  0.7147
 4872TIP3    H214623   2.790   4.733   2.945  1.1710  1.2923  0.7070
 4873TIP3   OH214624   5.682   4.697   0.649 -0.1365  0.5683 -0.2071
 4873TIP3    H114625   5.725   4.782   0.647  0.8839  0.0800  0.3714
 4873TIP3    H214626   5.697   4.665   0.738 -3.3446  1.2091  0.6955
 4874TIP3   OH214627   0.209   1.804   1.204  0.3358 -0.3704  0.3212
 4874TIP3    H114628   0.286   1.757   1.236  0.7094 -0.6678 -0.9783
 4874TIP3    H214629   0.208   1.884   1.256  2.2484  0.2216 -0.4486
 4875TIP3   OH214630   5.798   0.425   2.863 -0.2515 -0.6106 -0.4668
 4875TIP3    H114631   5.734   0.356   2.847  0.3960 -1.0088 -1.4857
 4875TIP3    H214632   5.781   0.454   2.953 -2.3702 -0.1441 -0.9486
 4876TIP3   OH214633   0.050   2.790   1.782 -0.2161  0.0956 -0.3778
 4876TIP3    H114634   0.101   2.717   1.746 -0.8130 -0.0391 -0.9660
 4876TIP3    H214635   0.032   2.765   1.872 -1.2375 -0.9392 -0.8499
 4877TIP3   OH214636   3.736   0.981   0.218 -0.0601  0.4647  0.5114
 4877TIP3    H114637   3.821   1.020   0.239 -0.4920  1.0566  1.2248
 4877TIP3    H214638   3.684   0.995   0.297 -1.0520  0.7752 -0.1847
 4878TIP3   OH214639   2.201   2.096   4.673 -0.0750 -0.3432 -0.0020
 4878TIP3    H114640   2.143   2.169   4.696 -0.5713 -0.7118 -0.0674
 4878TIP3    H214641   2.284   2.138   4.650  0.2945  0.0908  1.8911
 4879TIP3   OH214642   5.187   4.113   1.884  0.3220  0.0602  0.0800
 4879TIP3    H114643   5.093   4.131   1.893  0.3796  0.1412  0.5374
 4879TIP3    H214644   5.204   4.122   1.790 -0.2941 -0.7794 -0.1256
 4880TIP3   OH214645   2.234   2.997   4.572  0.8161  0.1441 -0.1421
 4880TIP3    H114646   2.330   3.000   4.577  0.7873  0.8673  0.0081
 4880TIP3    H214647   2.211   3.069   4.514  0.2456  1.2354  1.3935
 4881TIP3   OH214648   4.759   5.560   4.822 -0.2946 -1.1902 -0.2056
 4881TIP3    H114649   4.695   5.625   4.794  1.8749  0.8630 -0.8008
 4881TIP3    H214650   4.716   5.512   4.892 -1.2062  2.7678  2.2991
 4882TIP3   OH214651   1.269   3.268   1.644 -0.1937 -0.1587  0.7297
 4882TIP3    H114652   1.348   3.311   1.610 -0.1216  0.2943  1.4456
 4882TIP3    H214653   1.302   3.204   1.707 -0.4078  0.4196  1.4505
 4883TIP3   OH214654   5.175   3.342   1.934 -0.2675 -0.3769 -0.0458
 4883TIP3    H114655   5.158   3.321   1.842 -2.3504 -0.1113  0.2125
 4883TIP3    H214656   5.185   3.437   1.935 -0.3561 -0.3672 -0.0021
 4884TIP3   OH214657   1.257   5.752   4.586  0.0765  0.2553  0.1883
 4884TIP3    H114658   1.341   5.797   4.582  0.6655 -0.8884 -1.5294
 4884TIP3    H214659   1.209   5.783   4.509 -0.2906 -0.5328  0.0862
 4885TIP3   OH214660   4.522   2.719   3.959  0.2138  0.3284 -0.0603
 4885TIP3    H114661   4.494   2.630   3.979  0.5067  0.6869  2.2161
 4885TIP3    H214662   4.601   2.732   4.012  0.9430  1.5059 -1.3783
 4886TIP3   OH214663   5.172   2.754   4.296 -0.6650  0.3667 -0.4092
 4886TIP3    H114664   5.208   2.740   4.383  0.3158  0.8757 -0.7119
 4886TIP3    H214665   5.165   2.849   4.288  0.1772  0.3734 -1.2346
 4887TIP3   OH214666   3.776   1.924   3.920 -0.1499  0.2568 -0.4389
 4887TIP3    H114667   3.767   1.940   3.826 -0.3645  0.7327 -0.3445
 4887TIP3    H214668   3.697   1.875   3.944  0.3712 -0.7285 -0.6782
 4888TIP3   OH214669   3.935   5.909   1.162 -0.0856 -0.0154  0.1683
 4888TIP3    H114670   3.862   5.901   1.100 -0.9560  0.7827  1.0577
 4888TIP3    H214671   3.963   6.000   1.154 -0.0183  0.0159  0.7497
 4889TIP3   OH214672   4.705   3.261   3.677 -0.1998 -0.2365  0.5317
 4889TIP3    H114673   4.679   3.185   3.728 -1.7519 -0.0965  0.0028
 4889TIP3    H214674   4.752   3.224   3.602  2.2927 -0.4282  2.0651
 4890TIP3   OH214675   2.204   3.604   0.852 -0.3666  0.2168  0.3647
 4890TIP3    H114676   2.183   3.620   0.760  0.0601  1.8533  0.5103
 4890TIP3    H214677   2.128   3.557   0.887 -0.7009 -0.0700 -0.7254
 4891TIP3   OH214678   2.941   4.902   1.332  0.0512 -0.1972  0.0261
 4891TIP3    H114679   2.973   4.982   1.373 -1.3226 -0.1768  1.1223
 4891TIP3    H214680   2.852   4.923   1.303 -0.2742 -1.2697  0.1861
 4892TIP3   OH214681   0.036   4.337   3.203  0.8177  0.0897  0.0090
 4892TIP3    H114682   0.048   4.253   3.157  0.2570 -0.2500  0.4762
 4892TIP3    H214683   0.019   4.400   3.133  2.0599 -0.0219 -0.4149
 4893TIP3   OH214684   5.213   5.819   0.253 -0.4022  0.1547  0.1588
 4893TIP3    H114685   5.144   5.866   0.300  0.8612  1.2449  0.9848
 4893TIP3    H214686   5.200   5.841   0.161 -1.0998  0.4235  0.3183
 4894TIP3   OH214687   1.285   1.919   0.340  0.6469  0.2542 -0.1383
 4894TIP3    H114688   1.274   1.931   0.245  0.5174  0.2187 -0.1285
 4894TIP3    H214689   1.292   2.007   0.375  0.7258  0.2662 -0.1849
 4895TIP3   OH214690   2.792   2.597   3.045 -0.0669  0.6224  0.1192
 4895TIP3    H114691   2.699   2.599   3.065 -0.0396  0.7873  0.2368
 4895TIP3    H214692   2.813   2.505   3.033 -0.0152  0.4874  1.1797
 4896TIP3   OH214693   4.198   1.840   3.295  0.4808 -0.8446  0.1080
 4896TIP3    H114694   4.225   1.885   3.375  2.5769 -0.7442 -0.5891
 4896TIP3    H214695   4.152   1.906   3.244  1.8682  0.0070 -0.0803
 4897TIP3   OH214696   1.521   2.323   1.048 -0.1710 -0.3681  0.5277
 4897TIP3    H114697   1.534   2.243   1.100 -0.6471 -0.0337  1.1808
 4897TIP3    H214698   1.448   2.301   0.989 -1.0272 -0.0864  1.4474
 4898TIP3   OH214699   0.710   2.691   4.697  0.6404  0.2720  0.1542
 4898TIP3    H114700   0.651   2.635   4.747  1.3333 -0.7490 -0.1247
 4898TIP3    H214701   0.664   2.708   4.615  0.1551  0.6514  0.5037
 4899TIP3   OH214702   2.167   3.583   4.319  0.4395  0.3199 -0.0839
 4899TIP3    H114703   2.258   3.557   4.333  0.7431  0.0316 -2.2853
 4899TIP3    H214704   2.173   3.672   4.283  0.0734 -0.6394 -2.7170
 4900TIP3   OH214705   1.503   0.444   1.288  0.8136  0.9421 -0.0504
 4900TIP3    H114706   1.417   0.470   1.256  0.8243 -1.7417 -2.7251
 4900TIP3    H214707   1.565   0.488   1.231  1.0381  0.0379 -0.5246
 4901TIP3   OH214708   3.446   0.215   2.464  0.2387 -0.0864 -0.4250
 4901TIP3    H114709   3.486   0.302   2.472  2.2673 -0.5591 -3.8709
 4901TIP3    H214710   3.519   0.154   2.462 -1.0433 -1.7096 -0.2271
 4902TIP3   OH214711   0.877   2.116   4.825  0.1621 -0.0071 -0.0372
 4902TIP3    H114712   0.791   2.102   4.863 -1.3253  1.2260 -2.7302
 4902TIP3    H214713   0.876   2.207   4.795  1.6087 -0.5654 -2.0145
 4903TIP3   OH214714   0.702   5.017   0.324  0.7697  0.3904  0.0779
 4903TIP3    H114715   0.767   5.000   0.255  0.1887  0.5815 -0.5285
 4903TIP3    H214716   0.627   5.053   0.277  0.9050  1.9468  0.9789
 4904TIP3   OH214717   1.286   1.876   3.339 -0.1174 -0.1527 -0.0186
 4904TIP3    H114718   1.320   1.954   3.384  0.4047 -0.2189 -0.2919
 4904TIP3    H214719   1.328   1.877   3.253 -1.1129 -0.0238 -0.5269
 4905TIP3   OH214720   3.435   1.079   3.655 -0.1469  0.1634 -0.6213
 4905TIP3    H114721   3.530   1.079   3.647 -0.1834  0.7567 -1.0815
 4905TIP3    H214722   3.417   1.015   3.724  0.6840  1.3561  0.7326
 4906TIP3   OH214723   3.479   4.079   0.048 -0.0929  0.1894  0.9806
 4906TIP3    H114724   3.402   4.093  -0.007  1.1902  0.9433 -0.7374
 4906TIP3    H214725   3.488   3.984   0.055 -0.1003  0.0660 -0.4399
 4907TIP3   OH214726   2.559   0.096   0.471 -0.1298  0.4810 -0.3541
 4907TIP3    H114727   2.600   0.158   0.532 -1.4261  1.5383 -0.5277
 4907TIP3    H214728   2.516   0.150   0.406  0.4558 -0.6349 -1.7290
 4908TIP3   OH214729   0.151   3.869   3.293  0.0034 -0.1024  0.9855
 4908TIP3    H114730   0.165   3.862   3.387  0.6960 -3.4498  0.7523
 4908TIP3    H214731   0.060   3.845   3.280  0.7042 -2.8855  0.6496
 4909TIP3   OH214732   3.644   3.155   2.859 -0.1639  0.4825 -0.3238
 4909TIP3    H114733   3.688   3.107   2.929  3.8896 -0.5228 -3.1990
 4909TIP3    H214734   3.604   3.087   2.805 -2.0989  1.1589  0.1506
 4910TIP3   OH214735   2.974   5.365   2.006  0.8804 -0.8455 -0.1149
 4910TIP3    H114736   2.884   5.336   1.990  0.0786  1.7042 -0.6511
 4910TIP3    H214737   3.003   5.402   1.923  1.7341  0.0853  0.5784
 4911TIP3   OH214738   4.087   5.652   1.624  0.3458  0.1157  0.8078
 4911TIP3    H114739   4.125   5.572   1.589  0.7818  0.2166  1.0520
 4911TIP3    H214740   4.132   5.666   1.707 -0.3563  0.1291  1.1942
 4912TIP3   OH214741   4.027   5.803   0.732  0.0059  0.1339  0.5834
 4912TIP3    H114742   4.031   5.767   0.820  2.4794  1.4208  1.0927
 4912TIP3    H214743   3.936   5.792   0.706 -0.8307 -0.2585  3.3127
 4913TIP3   OH214744   4.757   2.738   4.760  0.0706  0.0597  0.0575
 4913TIP3    H114745   4.748   2.756   4.854 -2.1735 -3.5271  0.7162
 4913TIP3    H214746   4.667   2.723   4.730  0.8284  0.1465 -2.5030
 4914TIP3   OH214747   5.143   1.082   5.138  0.4567 -0.0796  0.1883
 4914TIP3    H114748   5.053   1.069   5.106  0.0185  0.7163  1.0280
 4914TIP3    H214749   5.157   1.011   5.201  0.2038  0.1154  0.4688
 4915TIP3   OH214750   0.014   5.049   1.732 -0.0756 -0.7050 -0.1336
 4915TIP3    H114751   0.082   5.039   1.799 -2.6653  1.4212  3.1273
 4915TIP3    H214752   0.006   5.143   1.720 -0.6017 -0.9966 -2.6001
 4916TIP3   OH214753   1.191   0.594   3.534 -0.7535  0.5543  0.0892
 4916TIP3    H114754   1.166   0.522   3.476 -2.8395 -0.0754  1.6241
 4916TIP3    H214755   1.286   0.585   3.544 -0.3999  0.3940 -2.7374
 4917TIP3   OH214756   2.172   3.582   4.884 -0.3731  0.0893  0.6355
 4917TIP3    H114757   2.128   3.658   4.922 -0.3393 -0.4537  1.8072
 4917TIP3    H214758   2.135   3.574   4.796  1.8407  3.3039 -0.7816
 4918TIP3   OH214759   3.602   4.593   5.084 -0.2201 -0.8439  0.1348
 4918TIP3    H114760   3.658   4.646   5.027 -1.2678  1.0236  0.7541
 4918TIP3    H214761   3.514   4.627   5.069 -0.7479 -1.4724  1.6210
 4919TIP3   OH214762   1.102   3.901   1.254  0.4319  0.7233 -0.2893
 4919TIP3    H114763   1.052   3.823   1.229  1.9596  0.1718 -1.7923
 4919TIP3    H214764   1.047   3.944   1.320 -0.6676 -1.3598  0.2443
 4920TIP3   OH214765   2.253   5.356   4.290  0.0034  0.4498  0.0120
 4920TIP3    H114766   2.175   5.317   4.331  0.5949 -0.5092  0.2526
 4920TIP3    H214767   2.326   5.306   4.326  0.5232 -0.9805 -2.7440
 4921TIP3   OH214768   0.982   0.034   4.794  0.3047  0.4864 -0.4493
 4921TIP3    H114769   0.990   0.128   4.814  1.4166  0.2272  0.4300
 4921TIP3    H214770   1.025   0.024   4.709  0.7852  0.6825 -0.2364
 4922TIP3   OH214771   4.431   1.284   1.822 -0.2326  0.0762  0.0871
 4922TIP3    H114772   4.352   1.293   1.769 -0.4895  0.3112  0.5077
 4922TIP3    H214773   4.429   1.193   1.853 -1.0391  0.4431  1.1834
 4923TIP3   OH214774   1.805   4.480   1.623 -0.7568  0.7445 -0.4224
 4923TIP3    H114775   1.850   4.562   1.643  2.5009 -0.7017 -1.1547
 4923TIP3    H214776   1.822   4.424   1.699  1.3460 -0.7783 -1.8825
 4924TIP3   OH214777   1.456   4.529   2.438  0.9064  0.4984  0.0750
 4924TIP3    H114778   1.537   4.563   2.399  0.3105 -0.1792 -1.8820
 4924TIP3    H214779   1.483   4.448   2.483  1.3361  0.2895 -0.5437
 4925TIP3   OH214780   4.056   2.790   3.979 -0.4081  0.3361 -0.1309
 4925TIP3    H114781   4.024   2.775   4.067  1.0079 -0.2430  0.3106
 4925TIP3    H214782   4.131   2.849   3.990  0.8486 -1.0835 -0.7451
 4926TIP3   OH214783   4.679   3.902   3.045 -0.5262 -0.2424 -0.0126
 4926TIP3    H114784   4.738   3.857   2.984 -2.4928 -1.9592 -0.7929
 4926TIP3    H214785   4.640   3.972   2.992  0.7744  0.9121  0.5118
 4927TIP3   OH214786   5.335   5.443   1.829  0.2368 -0.1137  0.1173
 4927TIP3    H114787   5.319   5.349   1.815  0.3273  0.0411 -1.1465
 4927TIP3    H214788   5.255   5.486   1.800 -0.1516  0.1576  1.5563
 4928TIP3   OH214789   4.167   1.888   0.902  0.0923 -0.0757  0.2908
 4928TIP3    H114790   4.196   1.893   0.810  1.4888 -0.7652  0.6682
 4928TIP3    H214791   4.166   1.795   0.921  2.2980  0.1052  1.6828
 4929TIP3   OH214792   1.092   3.140   0.015 -0.3390 -0.3705 -0.3129
 4929TIP3    H114793   1.030   3.068  -0.001 -2.9979  1.2176  1.9039
 4929TIP3    H214794   1.166   3.099   0.058 -0.7756 -2.0703 -1.0833
 4930TIP3   OH214795   0.181   5.409   3.453 -0.2283 -0.3029 -0.3609
 4930TIP3    H114796   0.238   5.427   3.528  0.5711 -1.0876 -0.7727
 4930TIP3    H214797   0.175   5.314   3.450 -2.8780 -0.2691  0.6442
 4931TIP3   OH214798   3.432   2.072   2.689 -0.5166 -0.0190  0.1519
 4931TIP3    H114799   3.465   1.987   2.661  1.2460  0.8831 -0.6396
 4931TIP3    H214800   3.370   2.097   2.621 -0.4936 -0.3461  0.0093
 4932TIP3   OH214801   2.736   4.351   0.338 -0.6834 -0.8442  0.5736
 4932TIP3    H114802   2.727   4.269   0.291 -2.0483  0.1474 -1.0074
 4932TIP3    H214803   2.651   4.395   0.328  1.0533  2.4220 -1.9906
 4933TIP3   OH214804   3.122   1.849   0.641 -0.0114  0.4999  0.1249
 4933TIP3    H114805   3.086   1.918   0.585  0.7131 -0.8680 -2.1987
 4933TIP3    H214806   3.045   1.800   0.671 -0.3837  0.8734 -0.2024
 4934TIP3   OH214807   1.957   3.426   4.314  0.1325 -0.1580  0.2106
 4934TIP3    H114808   1.935   3.450   4.405  0.5735  0.5784  0.1299
 4934TIP3    H214809   2.033   3.480   4.293 -0.1598 -0.0961 -0.7038
 4935TIP3   OH214810   1.534   3.112   3.951 -0.2154  0.1103 -0.0389
 4935TIP3    H114811   1.492   3.057   3.885 -1.3318  0.8847 -0.0084
 4935TIP3    H214812   1.511   3.201   3.926  0.7427  0.5111  0.4695
 4936TIP3   OH214813   4.850   3.898   1.951 -0.5190 -0.1567 -0.5160
 4936TIP3    H114814   4.865   3.913   1.858  0.8908  0.6602 -0.1848
 4936TIP3    H214815   4.871   3.982   1.993  0.2445 -0.9029  0.6612
 4937TIP3   OH214816   5.328   3.269   0.725  0.3386 -0.4964  0.1543
 4937TIP3    H114817   5.237   3.297   0.726  0.3455 -0.4929  0.5140
 4937TIP3    H214818   5.368   3.322   0.655  0.5998  1.1859  1.5071
 4938TIP3   OH214819   5.426   2.008   4.332 -0.1551  0.3798 -0.0765
 4938TIP3    H114820   5.339   2.048   4.339 -0.4630 -0.0692 -1.0640
 4938TIP3    H214821   5.425   1.938   4.397 -1.7338 -1.6383 -2.0521
 4939TIP3   OH214822   0.648   4.673   1.324  0.7739 -0.1922  0.3768
 4939TIP3    H114823   0.555   4.680   1.303 -0.3120 -1.3966  4.0116
 4939TIP3    H214824   0.671   4.583   1.301  0.1528 -0.8518  2.1867
 4940TIP3   OH214825   2.254   0.052   2.534  0.5981 -0.6850  0.0561
 4940TIP3    H114826   2.215   0.025   2.451  0.8496  0.0805 -0.3217
 4940TIP3    H214827   2.273   0.145   2.523  3.3369 -1.1799 -0.0964
 4941TIP3   OH214828   4.405   0.597   2.635  0.4110 -0.5926 -0.6154
 4941TIP3    H114829   4.382   0.680   2.676 -0.9775 -0.7313 -1.0738
 4941TIP3    H214830   4.477   0.619   2.575  1.4870 -0.1344  0.7743
 4942TIP3   OH214831   5.025   5.794   0.574 -0.7680 -0.5767  0.2383
 4942TIP3    H114832   4.984   5.731   0.515 -1.7455 -1.1341  1.4585
 4942TIP3    H214833   5.024   5.877   0.526  1.3030 -1.6091 -1.7333
 4943TIP3   OH214834   4.695   3.834   4.547 -0.5350 -0.1772 -0.4106
 4943TIP3    H114835   4.655   3.839   4.460 -1.1729  0.5702 -0.0861
 4943TIP3    H214836   4.649   3.901   4.598  1.0433  0.6339  0.0171
 4944TIP3   OH214837   2.266   0.976   5.153  0.1078  0.3391 -0.6487
 4944TIP3    H114838   2.330   1.022   5.207  0.5653  0.1254 -0.9975
 4944TIP3    H214839   2.293   0.994   5.063 -1.5579  1.9994 -0.8814
 4945TIP3   OH214840   1.261   3.443   0.376 -0.4221  0.3101 -0.3997
 4945TIP3    H114841   1.250   3.389   0.455 -1.1900  0.4275 -0.4113
 4945TIP3    H214842   1.344   3.489   0.389  0.5327 -1.2913 -0.6525
 4946TIP3   OH214843   6.087   2.811   0.764 -0.5114 -0.5109  0.0831
 4946TIP3    H114844   6.119   2.775   0.681  1.6499  2.1475 -0.3723
 4946TIP3    H214845   6.051   2.896   0.740 -0.9152 -0.2031  1.7260
 4947TIP3   OH214846   2.389   5.005   1.452  0.1337  0.1863  0.0063
 4947TIP3    H114847   2.328   5.037   1.386  0.6010  1.2710  0.0762
 4947TIP3    H214848   2.334   4.960   1.516 -0.3275 -0.9079 -1.1004
 4948TIP3   OH214849   4.030   4.403   1.922 -0.8344  0.4158 -0.1817
 4948TIP3    H114850   4.085   4.343   1.871 -2.5168  0.3291 -2.0054
 4948TIP3    H214851   4.055   4.491   1.892 -1.0504  0.4245 -0.3373
 4949TIP3   OH214852   0.870   0.880   1.492 -0.2108  0.4063  0.0995
 4949TIP3    H114853   0.824   0.810   1.537 -2.1541  1.5482  0.0051
 4949TIP3    H214854   0.836   0.961   1.531  0.8952  1.3348 -0.7727
 4950TIP3   OH214855   4.225   1.328   1.605  0.0065  0.3624  0.0065
 4950TIP3    H114856   4.249   1.339   1.513 -1.2195  0.5986 -0.3029
 4950TIP3    H214857   4.201   1.236   1.614 -2.2096  0.8308 -0.5266
 4951TIP3   OH214858   4.886   1.439   3.654 -0.2139 -0.1613  0.4310
 4951TIP3    H114859   4.862   1.531   3.657 -0.4986 -0.1565 -1.0533
 4951TIP3    H214860   4.981   1.439   3.645 -0.2815  0.0159 -0.3175
 4952TIP3   OH214861   3.316   4.400   3.363  0.8414  0.0570 -0.1032
 4952TIP3    H114862   3.228   4.381   3.331  1.3100  1.4256 -2.3785
 4952TIP3    H214863   3.372   4.333   3.324  1.0021 -0.1040  0.3838
 4953TIP3   OH214864   5.025   1.971   4.158 -0.0997 -0.2701  0.0309
 4953TIP3    H114865   4.943   1.998   4.119  0.1205  1.0087  0.4176
 4953TIP3    H214866   5.068   2.052   4.185  0.1118 -1.0251  2.2141
 4954TIP3   OH214867   1.122   2.825   2.392  0.1760 -0.0519  0.2092
 4954TIP3    H114868   1.184   2.802   2.461  2.0293  0.5100 -1.1673
 4954TIP3    H214869   1.060   2.753   2.389  0.5675 -0.4847  1.8710
 4955TIP3   OH214870   3.689   1.002   4.263 -0.0469 -0.4055 -0.3969
 4955TIP3    H114871   3.764   1.043   4.221  0.2410 -1.1674 -0.6470
 4955TIP3    H214872   3.622   1.071   4.266 -0.8189 -0.7699 -3.9289
 4956TIP3   OH214873   1.730   3.936   4.004 -0.4709 -0.2533  0.2687
 4956TIP3    H114874   1.796   4.005   3.993  1.0377 -1.8681 -1.5646
 4956TIP3    H214875   1.762   3.883   4.076  0.2314 -0.9794 -0.5563
 4957TIP3   OH214876   2.504   2.816   2.800  0.0229 -0.4709 -0.1204
 4957TIP3    H114877   2.588   2.772   2.810  0.3949  0.5048  1.3736
 4957TIP3    H214878   2.517   2.875   2.725  1.6159  1.6112  1.6682
 4958TIP3   OH214879   4.315   4.723   1.200 -0.3979 -0.0647 -0.0823
 4958TIP3    H114880   4.308   4.688   1.111 -0.8002  1.2497 -0.5811
 4958TIP3    H214881   4.239   4.687   1.246  0.7159 -2.1493  0.2676
 4959TIP3   OH214882   2.000   0.880   3.280 -0.1870  0.5598  0.1340
 4959TIP3    H114883   1.976   0.793   3.313  0.5449  0.1516 -0.3871
 4959TIP3    H214884   1.953   0.941   3.338 -1.2292 -0.1815  0.1042
 4960TIP3   OH214885   1.520   0.794   2.407  0.3193  0.0422  0.0157
 4960TIP3    H114886   1.497   0.802   2.314 -0.3719 -0.9944  0.0734
 4960TIP3    H214887   1.611   0.765   2.407  0.1123 -0.6367 -0.3731
 4961TIP3   OH214888   2.927   2.075   1.781 -0.0776  0.2110  0.0824
 4961TIP3    H114889   2.992   2.061   1.713  0.5718  0.9011  0.5409
 4961TIP3    H214890   2.890   2.161   1.762 -0.3155  0.1488  0.2581
 4962TIP3   OH214891   4.353   3.673   2.934 -0.0453  0.3625 -0.9306
 4962TIP3    H114892   4.373   3.737   3.002 -2.2496  1.7181 -1.4296
 4962TIP3    H214893   4.332   3.593   2.982 -1.7507  1.3449  0.0638
 4963TIP3   OH214894   5.310   4.138   0.129 -0.3976  0.6018  0.3132
 4963TIP3    H114895   5.400   4.138   0.097 -0.4831  0.2297  0.0690
 4963TIP3    H214896   5.283   4.046   0.126 -0.6931  0.6723  0.6505
 4964TIP3   OH214897   5.302   3.567   3.390 -0.9821 -0.1569  0.3125
 4964TIP3    H114898   5.233   3.502   3.374 -0.4151 -0.1340 -3.1252
 4964TIP3    H214899   5.255   3.650   3.397 -1.4965 -0.5403  1.8008
 4965TIP3   OH214900   1.967   5.228   2.770 -0.3703 -0.7283  0.3553
 4965TIP3    H114901   2.040   5.170   2.748 -0.7300 -1.1408  0.2297
 4965TIP3    H214902   1.889   5.182   2.737 -0.5865  0.1977 -0.4611
 4966TIP3   OH214903   6.146   4.494   4.631 -0.1950  0.5003 -0.0055
 4966TIP3    H114904   6.087   4.456   4.566 -0.5827 -0.0877  0.6743
 4966TIP3    H214905   6.123   4.587   4.633  2.0978  1.2760 -3.1139
 4967TIP3   OH214906   2.149   3.071   5.147  0.4880 -0.7056 -0.0572
 4967TIP3    H114907   2.075   3.099   5.201  0.4076 -0.7752 -0.1323
 4967TIP3    H214908   2.182   3.152   5.108 -0.0763 -0.7764 -0.6938
 4968TIP3   OH214909   4.862   2.227   1.569  0.2257  0.3497  0.0155
 4968TIP3    H114910   4.913   2.295   1.525  0.0597 -0.4414 -1.4982
 4968TIP3    H214911   4.797   2.201   1.503 -0.7353 -0.1515  1.1367
 4969TIP3   OH214912   3.364   2.744   0.090  0.6739 -0.1726 -0.0571
 4969TIP3    H114913   3.356   2.789   0.006 -1.2275  0.0726  0.2193
 4969TIP3    H214914   3.429   2.794   0.139  0.1365  1.0075 -0.5368
 4970TIP3   OH214915   6.243   2.079   1.580  0.0405  0.4420 -0.2314
 4970TIP3    H114916   6.199   2.084   1.664 -0.6414  0.4671 -0.5792
 4970TIP3    H214917   6.198   2.008   1.533  0.5628  0.2682 -0.4901
 4971TIP3   OH214918   3.305   3.713   1.917  0.3459  0.3765 -0.2135
 4971TIP3    H114919   3.392   3.720   1.956 -0.2941  1.8191  1.0465
 4971TIP3    H214920   3.267   3.800   1.927 -2.2120 -0.8189  1.6768
 4972TIP3   OH214921   4.105   1.482   2.386 -0.3108  0.2046 -0.3592
 4972TIP3    H114922   4.060   1.491   2.302  0.0767  0.0200 -0.5894
 4972TIP3    H214923   4.080   1.395   2.418 -0.7034  0.3958 -0.1316
 4973TIP3   OH214924   5.855   0.516   1.782 -0.1552  0.3681 -0.2927
 4973TIP3    H114925   5.786   0.467   1.738  0.7815 -0.9233 -0.3965
 4973TIP3    H214926   5.890   0.574   1.715  2.3701 -2.7416 -1.9225
 4974TIP3   OH214927   2.523   0.054   1.753 -0.2672  0.1436  0.1904
 4974TIP3    H114928   2.506   0.065   1.847  0.7819  1.8632  0.2154
 4974TIP3    H214929   2.563  -0.033   1.747  0.5054  0.3797  1.4790
 4975TIP3   OH214930   0.098   5.203   4.162  0.4487  0.3062 -0.0011
 4975TIP3    H114931   0.101   5.295   4.137  0.1216  0.1858 -0.5148
 4975TIP3    H214932   0.013   5.172   4.130 -0.4487  0.3804  2.1991
 4976TIP3   OH214933   1.195   4.342   2.737 -0.9646  0.7929  0.0947
 4976TIP3    H114934   1.206   4.327   2.643  1.6617 -3.3702  0.8068
 4976TIP3    H214935   1.270   4.397   2.761 -2.1658  2.6824 -0.2687
 4977TIP3   OH214936   1.777   3.521   4.602 -0.0044 -0.4373  1.0843
 4977TIP3    H114937   1.733   3.444   4.564 -1.1118  0.2649  0.8857
 4977TIP3    H214938   1.751   3.520   4.694 -0.1860 -0.1864  1.0351
 4978TIP3   OH214939   0.988   0.074   3.002  0.2876 -0.2904 -0.5020
 4978TIP3    H114940   0.980   0.135   2.929 -0.8077 -2.4020 -2.2338
 4978TIP3    H214941   0.941   0.117   3.074  0.3068  1.2772 -1.3712
 4979TIP3   OH214942   4.730   4.571   2.816  0.4813  0.4232  0.1128
 4979TIP3    H114943   4.769   4.484   2.823  1.1618  0.7235  0.0593
 4979TIP3    H214944   4.762   4.618   2.893 -0.4764  0.4024  0.5363
 4980TIP3   OH214945   5.670   3.307   1.061 -0.0514 -0.1714 -0.4528
 4980TIP3    H114946   5.626   3.228   1.028  0.9721 -0.6998 -0.5895
 4980TIP3    H214947   5.659   3.371   0.991 -0.2942 -0.4094 -0.6362
 4981TIP3   OH214948   2.056   3.579   4.629 -0.8947  0.2322  0.0344
 4981TIP3    H114949   2.059   3.670   4.599  0.0135  0.4680  0.8184
 4981TIP3    H214950   1.963   3.562   4.645 -1.2178  0.6090 -1.3356
 4982TIP3   OH214951   1.545   3.067   0.348 -0.2842  0.7011  0.5468
 4982TIP3    H114952   1.538   2.979   0.312 -1.0494  0.8268  0.3703
 4982TIP3    H214953   1.482   3.118   0.298  0.4818  1.4578  0.3313
 4983TIP3   OH214954   4.636   0.222   4.683 -0.4160  0.1554  0.0764
 4983TIP3    H114955   4.717   0.261   4.715  0.1186 -1.4577  0.8134
 4983TIP3    H214956   4.595   0.184   4.762 -0.8520 -0.8194 -0.5960
 4984TIP3   OH214957   1.686   4.434   3.364 -0.2577 -0.2909  0.1829
 4984TIP3    H114958   1.717   4.416   3.453  2.0634  0.0387 -0.4778
 4984TIP3    H214959   1.713   4.524   3.348  2.1210 -1.2516 -1.8471
 4985TIP3   OH214960   0.546   5.673   4.515 -0.0136  0.0909  0.5124
 4985TIP3    H114961   0.544   5.617   4.438 -0.5929 -0.6805  1.0717
 4985TIP3    H214962   0.471   5.732   4.503 -0.5986 -0.5717  0.8740
 4986TIP3   OH214963   1.898   0.066   0.612  0.1039 -0.3745 -0.0377
 4986TIP3    H114964   1.839  -0.008   0.628 -1.6556  1.1189  0.6578
 4986TIP3    H214965   1.938   0.083   0.697  1.8495 -1.5612 -0.5638
 4987TIP3   OH214966   3.867   4.503   0.800  0.0468 -0.3945 -0.0985
 4987TIP3    H114967   3.869   4.463   0.713  0.3064  0.0069 -0.2815
 4987TIP3    H214968   3.826   4.589   0.786  0.0762 -0.3355  0.1771
 4988TIP3   OH214969   5.294   2.944   4.914  0.2897  0.3069  0.2000
 4988TIP3    H114970   5.280   2.921   4.822  1.1576  0.4180  0.0352
 4988TIP3    H214971   5.344   3.026   4.910 -0.4902  0.8236  0.7755
 4989TIP3   OH214972   4.629   1.876   3.122 -0.4159  0.1920 -0.6848
 4989TIP3    H114973   4.621   1.781   3.117 -2.8576  0.3672 -1.3971
 4989TIP3    H214974   4.552   1.909   3.075 -0.9188  2.5122  1.5545
 4990TIP3   OH214975   0.672   3.415   3.203  0.2667  0.0051 -0.1068
 4990TIP3    H114976   0.737   3.408   3.273 -0.2062  1.0355  0.4604
 4990TIP3    H214977   0.703   3.489   3.150 -0.5477  0.6509  0.2971
 4991TIP3   OH214978   5.427   5.239   2.048 -0.5092 -0.1400 -0.5980
 4991TIP3    H114979   5.442   5.198   1.963  1.7224 -0.1684 -0.2451
 4991TIP3    H214980   5.511   5.233   2.093 -1.0365  1.8144  0.7876
 4992TIP3   OH214981   3.489   5.180   0.185  0.0486  0.1647 -0.0080
 4992TIP3    H114982   3.517   5.158   0.096 -0.9602 -0.7504 -0.1240
 4992TIP3    H214983   3.426   5.252   0.172  0.7719  0.8356  0.0860
 4993TIP3   OH214984   1.872   5.504   2.710  0.2802  0.2349 -0.1114
 4993TIP3    H114985   1.900   5.417   2.738  1.7304  0.5251 -0.5745
 4993TIP3    H214986   1.779   5.507   2.731  0.5718 -0.7893  1.4996
 4994TIP3   OH214987   0.049   3.473   4.107 -0.4789 -0.1280  0.7586
 4994TIP3    H114988  -0.042   3.497   4.091 -1.2387  0.0004  4.2923
 4994TIP3    H214989   0.044   3.403   4.172  1.9589 -0.9418  0.1809
 4995TIP3   OH214990   0.541   0.148   1.734 -0.3024 -0.5302 -0.1247
 4995TIP3    H114991   0.508   0.061   1.754  1.4347 -0.6321  2.8743
 4995TIP3    H214992   0.502   0.204   1.801 -0.0516  0.6828 -0.9603
 4996TIP3   OH214993   3.311   5.909   3.248  0.1615  0.0320 -0.0510
 4996TIP3    H114994   3.239   5.853   3.221  0.1375 -0.2180  0.5127
 4996TIP3    H214995   3.319   5.894   3.342 -0.2899  1.4707  0.2422
 4997TIP3   OH214996   4.473   4.340   1.011 -0.3704  0.6496  0.2107
 4997TIP3    H114997   4.381   4.356   1.030 -0.0710  2.0989  0.5927
 4997TIP3    H214998   4.484   4.366   0.919 -0.0663  1.9163  0.5801
 4998TIP3   OH214999   1.216   3.577   1.284 -0.2908 -0.4418  0.5801
 4998TIP3    H115000   1.160   3.646   1.247  1.2024  0.8417  0.5714
 4998TIP3    H215001   1.157   3.523   1.336 -1.9010 -0.4581 -1.1620
 4999TIP3   OH215002   4.792   1.534   2.694 -0.1717 -0.2533 -0.3477
 4999TIP3    H115003   4.729   1.590   2.650  0.2855  0.0688 -0.6088
 4999TIP3    H215004   4.750   1.448   2.699 -1.0256  0.2044  0.3860
 5000TIP3   OH215005   0.220   0.965   0.967  0.3128  0.6566 -0.5622
 5000TIP3    H115006   0.212   1.042   0.910 -1.2782  1.5504  0.7654
 5000TIP3    H215007   0.312   0.964   0.993  0.1575  2.8339  0.2889
 5001TIP3   OH215008   4.870   3.803   2.876  0.3619  0.0003  0.8064
 5001TIP3    H115009   4.836   3.724   2.833 -0.6063 -0.4453  2.3084
 5001TIP3    H215010   4.950   3.773   2.919  2.5082  0.9087 -2.2178
 5002TIP3   OH215011   2.134   5.909   2.358  0.4966 -0.2669  0.3893
 5002TIP3    H115012   2.210   5.952   2.319  0.4777 -0.3029  0.3127
 5002TIP3    H215013   2.164   5.881   2.445  1.0903 -1.7601 -0.2671
 5003TIP3   OH215014   1.294   4.291   3.970  0.5917 -0.2996 -0.5041
 5003TIP3    H115015   1.351   4.281   3.893 -1.7519 -1.3249 -2.2437
 5003TIP3    H215016   1.232   4.360   3.945 -1.4278 -1.9758 -0.4652
 5004TIP3   OH215017   4.504   4.335   4.809 -0.4805 -0.3700  0.0608
 5004TIP3    H115018   4.599   4.331   4.810 -0.3786  1.0091 -1.5276
 5004TIP3    H215019   4.483   4.407   4.751 -2.4875  0.7869  2.0525
 5005TIP3   OH215020   1.975   1.156   3.191  0.6458 -0.1050  0.3963
 5005TIP3    H115021   1.982   1.135   3.284  1.2726  1.2644  0.6816
 5005TIP3    H215022   1.889   1.197   3.182 -0.8120 -3.0576 -0.2582
 5006TIP3   OH215023   4.104   1.281   3.136 -0.2214 -0.1430 -0.1753
 5006TIP3    H115024   4.120   1.265   3.043 -0.5874 -1.2800 -0.0477
 5006TIP3    H215025   4.008   1.283   3.144 -0.2300 -1.6385  0.4178
 5007TIP3   OH215026   3.616   5.505   0.596  0.5341  0.4174  0.3939
 5007TIP3    H115027   3.574   5.432   0.549  1.2866  1.6462 -2.4463
 5007TIP3    H215028   3.545   5.568   0.610 -0.0060 -0.5630  2.3739
 5008TIP3   OH215029   0.714   3.268   4.555  0.7847  0.2928  0.5472
 5008TIP3    H115030   0.787   3.325   4.533 -0.1895  2.2139  1.9239
 5008TIP3    H215031   0.689   3.294   4.644 -1.2126 -0.6706  0.3368
 5009TIP3   OH215032   1.011   1.805   1.912 -0.4009 -0.2802 -0.1518
 5009TIP3    H115033   0.960   1.854   1.976  0.7683 -0.2522  0.8088
 5009TIP3    H215034   1.070   1.751   1.965 -0.2640 -1.2035 -1.2037
 5010TIP3   OH215035   0.461   1.746   1.937 -0.2303 -0.2457  0.1092
 5010TIP3    H115036   0.384   1.727   1.883  0.1572 -0.8977 -0.2299
 5010TIP3    H215037   0.497   1.826   1.898 -1.2181  0.5662  0.8193
 5011TIP3   OH215038   3.672   2.443   0.222 -0.2352  0.1786  0.0953
 5011TIP3    H115039   3.647   2.530   0.189 -0.1290 -0.1799 -0.9562
 5011TIP3    H215040   3.589   2.401   0.243 -0.3087  0.3677  0.1934
 5012TIP3   OH215041   4.893   2.176   3.689 -0.3548 -0.1275 -0.0552
 5012TIP3    H115042   4.889   2.083   3.668  1.7722 -1.4277  4.0943
 5012TIP3    H215043   4.985   2.199   3.683 -0.4454  0.8766  1.6719
 5013TIP3   OH215044   5.920   1.749   1.629  0.1984  0.2213  0.4755
 5013TIP3    H115045   5.844   1.703   1.593  1.1230 -0.3795 -0.7551
 5013TIP3    H215046   5.883   1.826   1.672 -1.0177  0.4556 -0.9354
 5014TIP3   OH215047   4.234   4.138   1.421  0.2472 -0.0126  0.0847
 5014TIP3    H115048   4.154   4.086   1.424 -0.3971  0.6365 -2.5381
 5014TIP3    H215049   4.203   4.228   1.410  1.2291  0.0918 -2.5943
 5015TIP3   OH215050   4.388   2.269   1.666 -0.0940 -0.2371 -0.0288
 5015TIP3    H115051   4.467   2.227   1.700 -0.4183 -0.7282  0.1305
 5015TIP3    H215052   4.352   2.206   1.604  0.9145  0.9645 -1.9372
 5016TIP3   OH215053   1.031   5.915   3.428  0.4778  0.3438 -0.2325
 5016TIP3    H115054   1.054   5.872   3.345  0.4752  2.0923 -1.1791
 5016TIP3    H215055   1.041   5.846   3.493 -0.3318 -1.3284 -1.7674
 5017TIP3   OH215056   5.789   0.419   0.427  0.7764 -0.6018  0.2855
 5017TIP3    H115057   5.717   0.373   0.384  1.0631 -0.8380  0.0518
 5017TIP3    H215058   5.747   0.491   0.475  0.5319  0.2705 -1.1850
 5018TIP3   OH215059   5.124   4.783   4.268 -0.0901  0.0118 -0.3432
 5018TIP3    H115060   5.215   4.804   4.290  0.3411  0.1881 -2.2107
 5018TIP3    H215061   5.075   4.807   4.347  1.4131  0.3305  0.5361
 5019TIP3   OH215062   4.138   5.844   3.324 -0.1623  0.6237  0.7273
 5019TIP3    H115063   4.232   5.825   3.321 -0.1006  0.7283  1.7612
 5019TIP3    H215064   4.122   5.876   3.413 -1.3457 -0.2771  0.8625
 5020TIP3   OH215065   6.047   3.862   3.343 -0.4799  0.3566  0.2064
 5020TIP3    H115066   6.099   3.816   3.277 -2.7122  0.0803 -1.5247
 5020TIP3    H215067   6.102   3.864   3.421  2.1858  0.4341 -1.5664
 5021TIP3   OH215068   5.363   1.852   2.441  0.0050  0.5343  0.1332
 5021TIP3    H115069   5.426   1.825   2.507  0.0094  0.6198  0.1630
 5021TIP3    H215070   5.296   1.783   2.442  2.1585 -1.8661 -2.7652
 5022TIP3   OH215071   5.847   4.619   4.277  0.2489 -0.3981  0.2135
 5022TIP3    H115072   5.893   4.539   4.254  1.5006  0.5225 -0.5741
 5022TIP3    H215073   5.833   4.612   4.372  1.1635 -1.1304  0.3089
 5023TIP3   OH215074   0.609   0.196   2.793  0.5711  0.0415 -0.0325
 5023TIP3    H115075   0.622   0.139   2.717  2.4951  0.5415 -0.1322
 5023TIP3    H215076   0.551   0.146   2.851  1.0892 -1.4309 -0.7318
 5024TIP3   OH215077   4.608   4.764   1.361 -0.5345 -0.0329  0.2483
 5024TIP3    H115078   4.534   4.719   1.319 -0.9970 -0.3476  1.3727
 5024TIP3    H215079   4.677   4.762   1.295 -1.7484  0.9416 -1.1127
 5025TIP3   OH215080   0.673   0.812   0.297 -0.3062  0.3253 -0.2327
 5025TIP3    H115081   0.704   0.902   0.283  0.4946 -0.0106 -0.6469
 5025TIP3    H215082   0.665   0.775   0.210 -2.1174  0.4496 -0.1680
 5026TIP3   OH215083   1.945   2.106   0.547  0.0848  0.2504 -0.3707
 5026TIP3    H115084   1.906   2.106   0.634 -1.8871 -0.9395 -1.1927
 5026TIP3    H215085   1.881   2.152   0.492  1.6744  1.7219 -1.0762
 5027TIP3   OH215086   4.095   1.080   2.273  0.0095  0.1777 -0.1424
 5027TIP3    H115087   4.059   1.042   2.193 -0.9047  1.2840 -0.2832
 5027TIP3    H215088   4.113   1.004   2.329  1.4689 -0.6836 -1.6735
 5028TIP3   OH215089   2.461   0.998   1.250  0.5115  0.0584 -0.4563
 5028TIP3    H115090   2.524   0.926   1.244 -0.1193 -0.5223 -0.3261
 5028TIP3    H215091   2.407   0.976   1.326  0.9418  1.1996  0.1849
 5029TIP3   OH215092   3.922   1.838   2.706  0.0437  0.2646  0.2581
 5029TIP3    H115093   3.943   1.915   2.654  1.3012  0.3953  0.9126
 5029TIP3    H215094   3.964   1.854   2.790  0.0446 -0.9853  0.5126
 5030TIP3   OH215095   0.745   3.039   0.639 -0.1164  0.2063 -0.5511
 5030TIP3    H115096   0.708   2.970   0.584 -1.1014 -0.5187  0.9388
 5030TIP3    H215097   0.770   3.108   0.578 -2.9098  0.2554 -1.7925
 5031TIP3   OH215098   3.151   1.851   1.877 -0.4354 -0.3723 -0.2908
 5031TIP3    H115099   3.148   1.758   1.900  0.0066 -0.5810 -1.0587
 5031TIP3    H215100   3.060   1.874   1.857 -0.4053 -0.8928 -1.0638
 5032TIP3   OH215101   2.561   1.643   3.197 -0.0438  0.9047 -0.0773
 5032TIP3    H115102   2.531   1.644   3.287 -1.8332 -0.3980 -0.6147
 5032TIP3    H215103   2.494   1.692   3.149  0.8643  1.5510 -0.7359
 5033TIP3   OH215104   5.717   0.149   2.817  0.0004 -0.4282 -0.0639
 5033TIP3    H115105   5.635   0.169   2.862  1.3232  1.3037  1.7115
 5033TIP3    H215106   5.748   0.068   2.858 -1.3611 -1.8541 -1.6504
 5034TIP3   OH215107   1.366   1.690   1.471 -0.0353  0.6084 -0.0709
 5034TIP3    H115108   1.398   1.646   1.550  1.3396 -0.2711 -1.0675
 5034TIP3    H215109   1.273   1.668   1.467 -0.0414  0.3611  1.0854
 5035TIP3   OH215110   2.711   5.597   0.845  0.5086 -0.0765  0.1699
 5035TIP3    H115111   2.657   5.674   0.863  0.2091 -0.5778  1.6115
 5035TIP3    H215112   2.677   5.561   0.764  0.9622  1.5509 -0.7869
 5036TIP3   OH215113   3.337   2.123   4.772  0.2943 -0.1777 -0.0633
 5036TIP3    H115114   3.293   2.109   4.688  0.8301 -0.2449 -0.3377
 5036TIP3    H215115   3.333   2.039   4.816 -2.8034  0.5835  1.3799
 5037TIP3   OH215116   5.809   3.650   2.009 -0.5574 -0.5589 -0.2350
 5037TIP3    H115117   5.794   3.596   2.087  0.6193 -0.5681  0.0145
 5037TIP3    H215118   5.848   3.589   1.946 -0.6248 -0.3376 -0.4901
 5038TIP3   OH215119   6.229   0.147   1.380  0.2219 -0.2261  0.2512
 5038TIP3    H115120   6.221   0.099   1.462  0.4160 -2.8212 -1.1217
 5038TIP3    H215121   6.310   0.197   1.388  0.3172 -0.5628  1.5554
 5039TIP3   OH215122   3.779   5.744   1.327  0.2397  0.2427  0.1607
 5039TIP3    H115123   3.742   5.827   1.357  0.9701 -0.0749  2.0680
 5039TIP3    H215124   3.868   5.765   1.300  1.1874 -0.1892  2.6615
 5040TIP3   OH215125   4.265   2.730   4.483 -0.3806  0.3700  0.0813
 5040TIP3    H115126   4.241   2.819   4.459 -1.1227  0.5633  1.4362
 5040TIP3    H215127   4.182   2.682   4.485  0.1474 -0.7301 -1.9653
 5041TIP3   OH215128   5.040   3.547   3.858 -0.5269  0.3295 -0.3507
 5041TIP3    H115129   5.028   3.459   3.823 -0.8741  0.2429 -0.0219
 5041TIP3    H215130   5.028   3.537   3.953 -1.8122  0.9300 -0.4303
 5042TIP3   OH215131   4.175   3.968   1.876  0.0821  0.1375 -0.1410
 5042TIP3    H115132   4.152   4.049   1.829 -0.2646 -0.1937 -0.5511
 5042TIP3    H215133   4.270   3.969   1.879  0.0948  0.3555 -0.5110
 5043TIP3   OH215134   1.572   0.083   1.864  0.1162 -0.2334  0.3197
 5043TIP3    H115135   1.643   0.095   1.927  0.5289  0.9762 -0.3342
 5043TIP3    H215136   1.616   0.058   1.783 -0.2182  0.2817 -0.0236
 5044TIP3   OH215137   5.447   5.089   0.351 -0.4003  0.2550 -0.0731
 5044TIP3    H115138   5.386   5.020   0.322 -0.7893  0.7489 -0.4637
 5044TIP3    H215139   5.427   5.101   0.444 -1.3899  0.8881 -0.3545
 5045TIP3   OH215140   4.946   1.728   1.138 -0.3526 -0.3260  0.5342
 5045TIP3    H115141   4.996   1.683   1.206  0.6679 -0.9195 -0.5539
 5045TIP3    H215142   4.989   1.813   1.129 -0.4189 -0.2898  0.5618
 5046TIP3   OH215143   5.727   2.544   3.523 -0.3589 -0.0632  0.2468
 5046TIP3    H115144   5.738   2.586   3.608  2.0293 -0.0761  0.0128
 5046TIP3    H215145   5.814   2.547   3.483 -1.1244 -1.2176 -1.6580
 5047TIP3   OH215146   0.890   1.730   0.189 -0.2443 -0.3882 -0.3775
 5047TIP3    H115147   0.812   1.758   0.236  1.1067  0.8844  1.2093
 5047TIP3    H215148   0.910   1.803   0.130  0.6215 -0.0237  0.3563
 5048TIP3   OH215149   5.613   1.705   3.911  0.5645 -0.1279  0.6038
 5048TIP3    H115150   5.687   1.696   3.851  0.4595 -0.6126  0.5422
 5048TIP3    H215151   5.575   1.617   3.916 -1.2389  0.4967 -0.9491
 5049TIP3   OH215152   3.935   0.823   4.022 -0.2153  0.3697 -0.2039
 5049TIP3    H115153   3.911   0.736   4.055  0.5313  0.6103  1.0423
 5049TIP3    H215154   3.861   0.849   3.966 -1.7527  0.1028  1.5975
 5050TIP3   OH215155   4.002   5.070   0.990  0.2969 -0.7537  0.0870
 5050TIP3    H115156   3.969   4.991   0.947  0.7863 -0.7342 -0.3462
 5050TIP3    H215157   4.072   5.039   1.047 -0.2382 -0.7573  0.7493
 5051TIP3   OH215158   0.239   1.585   0.856  0.3251 -0.1904  0.1266
 5051TIP3    H115159   0.256   1.678   0.870 -1.1117  0.3584 -1.4365
 5051TIP3    H215160   0.326   1.547   0.842  0.8065  1.4992 -2.2543
 5052TIP3   OH215161   3.967   0.341   4.922 -0.4136 -0.0790  0.6902
 5052TIP3    H115162   3.884   0.303   4.891  0.0411 -1.7398  1.4092
 5052TIP3    H215163   4.013   0.268   4.962  1.0781  1.0002  1.0104
 5053TIP3   OH215164   4.643   0.205   2.458 -0.5671  0.5282 -0.3524
 5053TIP3    H115165   4.712   0.148   2.491 -0.9704  0.5374  0.5367
 5053TIP3    H215166   4.661   0.290   2.499 -0.5415  0.7834 -0.8898
 5054TIP3   OH215167   5.571   0.386   0.794 -0.1720 -0.0108  0.4136
 5054TIP3    H115168   5.608   0.468   0.828 -1.2411  0.9276 -0.6060
 5054TIP3    H215169   5.476   0.397   0.804 -0.3339 -1.0659  0.0931
 5055TIP3   OH215170   0.555   5.554   2.942 -0.5532  0.2123 -0.0508
 5055TIP3    H115171   0.516   5.641   2.954  0.7267  0.8611 -0.3249
 5055TIP3    H215172   0.490   5.493   2.976 -1.1376  1.3335  0.9158
 5056TIP3   OH215173   6.094   4.134   0.844  0.3268 -0.0223 -0.5389
 5056TIP3    H115174   6.124   4.199   0.780  0.6385  0.2158 -0.1517
 5056TIP3    H215175   6.166   4.071   0.849 -0.1014 -0.5733 -1.1433
 5057TIP3   OH215176   5.737   0.784   4.781  0.1969  0.5136 -0.5914
 5057TIP3    H115177   5.649   0.775   4.746 -0.7661  0.6109  1.6052
 5057TIP3    H215178   5.766   0.870   4.751 -0.5218  0.5523 -1.1978
 5058TIP3   OH215179   2.247   0.217   3.814  0.2952  0.2933 -0.0157
 5058TIP3    H115180   2.241   0.300   3.861 -2.8933 -0.3317  0.9445
 5058TIP3    H215181   2.198   0.155   3.868  1.4401 -1.9308 -1.3654
 5059TIP3   OH215182   3.902   3.729   1.528  0.0068 -0.0972  0.3245
 5059TIP3    H115183   3.922   3.729   1.621 -0.3949  0.3818  0.4159
 5059TIP3    H215184   3.812   3.696   1.522  0.3000 -0.8626  0.0396
 5060TIP3   OH215185   3.932   5.716   0.388  0.2216 -0.8358 -0.2469
 5060TIP3    H115186   3.988   5.794   0.385 -0.7027 -0.1879 -1.3385
 5060TIP3    H215187   3.848   5.745   0.352 -1.1352 -1.5600  2.1262
 5061TIP3   OH215188   3.477   0.290   0.532  0.6406  0.3280  0.0083
 5061TIP3    H115189   3.425   0.349   0.477 -0.7927  0.5511  1.5203
 5061TIP3    H215190   3.512   0.225   0.471 -0.0947  1.1007 -1.2912
 5062TIP3   OH215191   1.388   3.023   0.028  1.2247  0.4384  0.0225
 5062TIP3    H115192   1.376   2.965   0.103  1.1400  0.3037 -0.0929
 5062TIP3    H215193   1.390   3.111   0.065  0.6241  0.4118  0.1287
 5063TIP3   OH215194   5.249   0.011   0.553 -0.6064  0.3416  0.0398
 5063TIP3    H115195   5.285   0.019   0.641  0.3839  0.7430 -0.3871
 5063TIP3    H215196   5.320   0.037   0.495 -0.9440 -0.7928 -0.9326
 5064TIP3   OH215197   2.034   1.461   3.123  0.0110 -0.0749  0.5568
 5064TIP3    H115198   2.013   1.555   3.126  0.0526 -0.0825  1.1787
 5064TIP3    H215199   1.955   1.418   3.155 -0.1182 -0.2746 -0.0172
 5065TIP3   OH215200   4.977   4.943   1.371 -0.2719 -0.3846  0.2615
 5065TIP3    H115201   4.955   4.851   1.380 -0.5809 -0.3937 -0.5464
 5065TIP3    H215202   5.002   4.953   1.279  1.0707  0.0567  0.6525
 5066TIP3   OH215203   4.849   3.200   2.302 -0.2363 -0.7918  0.0649
 5066TIP3    H115204   4.766   3.244   2.321 -0.2924 -0.1880 -1.4598
 5066TIP3    H215205   4.912   3.272   2.291  0.9770 -1.2544  2.9928
 5067TIP3   OH215206   5.330   2.135   5.059 -0.5606  0.1433  0.0249
 5067TIP3    H115207   5.300   2.224   5.044  1.3765  0.3257 -4.5945
 5067TIP3    H215208   5.298   2.086   4.983  1.0373 -2.3517  0.8189
 5068TIP3   OH215209   0.366   2.837   1.131  0.4721 -0.2506 -0.8977
 5068TIP3    H115210   0.459   2.824   1.114  1.0578 -1.5509  2.5658
 5068TIP3    H215211   0.327   2.751   1.116  0.5066 -0.6412  1.0316
 5069TIP3   OH215212   5.814   5.949   4.524 -0.5685  0.7744  0.2123
 5069TIP3    H115213   5.906   5.938   4.499 -0.8125  1.4276 -1.0548
 5069TIP3    H215214   5.817   5.994   4.609  0.3265 -2.9451  2.3836
 5070TIP3   OH215215   3.410   2.322   3.733 -0.0204 -0.4589 -0.1674
 5070TIP3    H115216   3.480   2.260   3.711  0.3093  0.0417 -0.5855
 5070TIP3    H215217   3.457   2.403   3.755 -0.4678  0.9623 -3.7488
 5071TIP3   OH215218   5.401  -0.003   0.773 -0.0860 -0.8135  0.3706
 5071TIP3    H115219   5.477   0.053   0.789 -1.1899  0.6995  0.5360
 5071TIP3    H215220   5.335   0.029   0.835 -2.4703  1.1458 -2.8838
 5072TIP3   OH215221   1.109   0.207   4.187 -0.0975  0.0708  0.2158
 5072TIP3    H115222   1.093   0.290   4.230 -2.0717 -0.1748  0.0615
 5072TIP3    H215223   1.032   0.194   4.130  0.5917 -1.4165 -0.4479
 5073TIP3   OH215224   3.760   5.909   0.237  0.5883  0.4058 -0.3970
 5073TIP3    H115225   3.777   6.003   0.239 -1.7028  0.9707 -2.4027
 5073TIP3    H215226   3.809   5.877   0.162  0.4060  0.2215 -0.4383
 5074TIP3   OH215227   1.529   0.135   0.471 -0.4305 -0.5866 -0.1034
 5074TIP3    H115228   1.598   0.075   0.499 -0.2985 -1.1712 -1.5789
 5074TIP3    H215229   1.509   0.108   0.381 -3.1256 -0.9574  0.5169
 5075TIP3   OH215230   5.932   0.066   1.407  0.0006 -0.7523 -0.3543
 5075TIP3    H115231   6.017   0.021   1.408  1.0249  1.0854 -1.0410
 5075TIP3    H215232   5.941   0.133   1.339 -1.9142 -0.3198 -0.2314
 5076TIP3   OH215233   6.014   5.413   3.545 -0.3383  0.4429  0.7014
 5076TIP3    H115234   5.963   5.467   3.486  0.3951 -0.0492 -0.4226
 5076TIP3    H215235   6.103   5.416   3.510 -0.4185 -2.1798  0.0297
 5077TIP3   OH215236   2.754   5.847   3.237 -0.4795 -0.0215  0.5451
 5077TIP3    H115237   2.695   5.923   3.237 -1.6083 -0.8055 -1.6663
 5077TIP3    H215238   2.834   5.878   3.279  0.3937  3.4778 -3.0816
 5078TIP3   OH215239   2.494   3.621   3.596  0.1316  0.4822  0.1931
 5078TIP3    H115240   2.589   3.608   3.597  0.1652  0.7640  1.2064
 5078TIP3    H215241   2.460   3.538   3.562  0.8209  1.1023 -2.1615
 5079TIP3   OH215242   1.473   0.280   2.607  0.0362 -0.0527 -0.1487
 5079TIP3    H115243   1.490   0.361   2.558  2.1671 -0.7462 -0.6762
 5079TIP3    H215244   1.481   0.211   2.541 -3.8827 -0.6756 -0.1825
 5080TIP3   OH215245   1.302   3.824   3.286 -0.0653 -0.2565  0.1567
 5080TIP3    H115246   1.332   3.794   3.372  1.7612  0.7049 -0.1137
 5080TIP3    H215247   1.292   3.918   3.295  0.4717 -0.1030 -0.7843
 5081TIP3   OH215248   3.770   0.161   3.999  0.1384 -0.1954  0.2704
 5081TIP3    H115249   3.824   0.178   3.922  1.5929  3.2038  1.8136
 5081TIP3    H215250   3.681   0.150   3.965  0.8609  0.4010 -1.9407
 5082TIP3   OH215251   0.939   5.278   4.193 -0.1604  0.2530  0.6575
 5082TIP3    H115252   0.928   5.333   4.271  0.2070 -0.6407  1.3563
 5082TIP3    H215253   0.852   5.241   4.177  0.0498 -0.6223  1.4657
 5083TIP3   OH215254   3.972   1.917   0.444 -0.0407 -0.1254 -0.3392
 5083TIP3    H115255   4.014   1.935   0.360  0.2418  0.2902 -0.1155
 5083TIP3    H215256   4.045   1.902   0.504 -0.2475 -2.1481 -0.5152
 5084TIP3   OH215257   4.604   0.949   3.654 -0.2942  0.6198  0.0630
 5084TIP3    H115258   4.660   0.993   3.590 -2.9767  1.4589 -1.9022
 5084TIP3    H215259   4.552   1.019   3.694  1.5260  0.1677  3.5766
 5085TIP3   OH215260   0.029   0.931   1.550  0.5689 -0.0082  0.3751
 5085TIP3    H115261  -0.016   1.014   1.567  0.8140  0.0303  0.8698
 5085TIP3    H215262   0.122   0.952   1.556  0.6792  0.0166 -1.1646
 5086TIP3   OH215263   1.157   4.528   3.045 -0.1657 -0.1078 -0.6911
 5086TIP3    H115264   1.202   4.593   3.098 -3.0675  0.4639  1.2739
 5086TIP3    H215265   1.087   4.576   3.002 -0.5884 -1.4239 -1.5304
 5087TIP3   OH215266   2.100   5.336   2.984 -0.3930 -0.3626 -0.6818
 5087TIP3    H115267   2.071   5.306   2.898 -1.2244 -0.2804 -0.4407
 5087TIP3    H215268   2.022   5.377   3.022 -0.4743 -1.7496  0.7219
 5088TIP3   OH215269   4.993   5.075   2.762  0.1303 -0.7299 -0.2606
 5088TIP3    H115270   5.015   4.983   2.745  2.2022 -0.4943  0.7101
 5088TIP3    H215271   5.016   5.088   2.854 -1.5411  0.4081  0.0328
 5089TIP3   OH215272   4.995   3.939   4.030  0.6031  0.0492  0.3205
 5089TIP3    H115273   5.033   4.026   4.046  0.4944  0.2813 -0.6392
 5089TIP3    H215274   5.071   3.884   4.010  0.5733  0.2119 -0.2768
 5090TIP3   OH215275   5.029   0.689   2.585 -0.2186  0.6185  0.6908
 5090TIP3    H115276   4.967   0.678   2.657  0.6202 -1.1677  1.2054
 5090TIP3    H215277   5.112   0.712   2.628 -0.2906  2.1499  0.0724
 5091TIP3   OH215278   1.025   0.826   2.833 -0.1432 -0.6434  0.2252
 5091TIP3    H115279   0.996   0.892   2.895  0.4341 -1.1449  1.0598
 5091TIP3    H215280   1.067   0.875   2.763  0.5019 -0.1218  0.9548
 5092TIP3   OH215281   4.509   3.244   4.522 -0.3753 -0.0531  0.2274
 5092TIP3    H115282   4.597   3.213   4.501  0.2912  1.6860  0.3263
 5092TIP3    H215283   4.479   3.288   4.443 -0.5439  0.6885  0.6968
 5093TIP3   OH215284   0.686   0.565   3.352 -0.0391 -0.2212  0.3821
 5093TIP3    H115285   0.761   0.519   3.388 -0.1989  0.2359  1.3214
 5093TIP3    H215286   0.681   0.646   3.402  2.3232  2.5768 -3.4126
 5094TIP3   OH215287   5.131   3.764   5.069  0.0255 -0.0841  0.0617
 5094TIP3    H115288   5.117   3.846   5.116 -0.4976  0.5460 -1.1535
 5094TIP3    H215289   5.218   3.774   5.030 -0.7431  0.6884 -1.5673
 5095TIP3   OH215290   4.416   5.237   2.129 -0.2873 -0.5178  0.0127
 5095TIP3    H115291   4.453   5.279   2.052 -3.2318  1.2328 -0.6035
 5095TIP3    H215292   4.492   5.210   2.181  1.7683 -0.3660 -2.7237
 5096TIP3   OH215293   4.109   0.370   3.173  0.1645 -0.0751 -0.1668
 5096TIP3    H115294   4.022   0.330   3.165  0.1833 -0.3720  0.9481
 5096TIP3    H215295   4.169   0.300   3.150  0.1462 -0.2695  0.3627
 5097TIP3   OH215296   1.983   0.888   3.710 -0.0738 -0.4318 -0.1237
 5097TIP3    H115297   2.030   0.833   3.648 -1.1166 -1.5748  0.0706
 5097TIP3    H215298   1.925   0.828   3.758 -1.1832  0.8009  0.1576
 5098TIP3   OH215299   0.024   5.865   2.335  0.1417 -0.3965  0.6984
 5098TIP3    H115300   0.096   5.807   2.310  0.1835 -0.4316  0.8926
 5098TIP3    H215301  -0.045   5.806   2.366 -0.2273 -0.3959 -0.1165
 5099TIP3   OH215302   3.542   2.306   3.236 -0.2824 -0.2163  0.2554
 5099TIP3    H115303   3.496   2.285   3.154 -0.8825  1.1705  0.2147
 5099TIP3    H215304   3.494   2.381   3.272  2.3069  1.7621 -0.1245
 5100TIP3   OH215305   5.979   4.678   2.887  0.3725  0.3164 -0.2349
 5100TIP3    H115306   6.034   4.638   2.820 -1.8472 -0.3577 -1.7529
 5100TIP3    H215307   6.041   4.709   2.953  2.4682 -1.4407 -1.2609
 5101TIP3   OH215308   5.812   1.029   1.360 -0.6928 -0.1536  0.3731
 5101TIP3    H115309   5.731   0.997   1.401 -0.4956 -0.3876  0.5885
 5101TIP3    H215310   5.882   0.994   1.416 -0.3643 -1.2483 -0.6726
 5102TIP3   OH215311   5.738   0.155   3.145 -0.1260  0.2482  0.0787
 5102TIP3    H115312   5.676   0.225   3.167  0.2563  0.3682  0.8200
 5102TIP3    H215313   5.693   0.074   3.170 -0.3632  0.2656 -0.2907
 5103TIP3   OH215314   1.357   0.735   4.240  0.2160  0.1903 -0.1141
 5103TIP3    H115315   1.287   0.800   4.227  0.3116  0.4376  0.5627
 5103TIP3    H215316   1.390   0.717   4.151 -0.7623  0.0038 -0.4501
 5104TIP3   OH215317   0.239   2.596   1.779  0.6927  0.4292  0.4312
 5104TIP3    H115318   0.322   2.584   1.826  1.1340 -0.1666 -0.4868
 5104TIP3    H215319   0.182   2.527   1.813  1.0483 -0.0748  0.0111
 5105TIP3   OH215320   1.778   2.171   2.359  0.1669 -0.2134 -0.4089
 5105TIP3    H115321   1.871   2.164   2.376  0.0380  0.3657  0.5669
 5105TIP3    H215322   1.772   2.209   2.271  0.8390  0.0476 -0.3447
 5106TIP3   OH215323   2.984   1.105   2.781 -0.1345  0.4538  0.0569
 5106TIP3    H115324   2.984   1.114   2.686  0.2433 -2.5487 -0.3246
 5106TIP3    H215325   2.907   1.053   2.801  0.5394 -0.1625  1.2130
 5107TIP3   OH215326   5.462   4.221   4.210 -0.2379  0.0941 -0.2579
 5107TIP3    H115327   5.412   4.140   4.204 -1.0773  0.6938 -2.7645
 5107TIP3    H215328   5.553   4.193   4.213 -0.5529 -0.9581 -0.1295
 5108TIP3   OH215329   2.186   5.670   0.331  0.1228 -0.1460 -0.2257
 5108TIP3    H115330   2.114   5.610   0.354  0.9326 -0.5947  1.2896
 5108TIP3    H215331   2.152   5.757   0.353  0.2846 -0.4264  1.2459
 5109TIP3   OH215332   0.850   0.797   5.092 -0.1048 -0.8385  0.0022
 5109TIP3    H115333   0.906   0.785   5.016 -0.7042  0.1293 -0.6166
 5109TIP3    H215334   0.910   0.812   5.165  0.4941 -2.4605 -0.1367
 5110TIP3   OH215335   1.410   5.688   3.210 -0.0880  0.1355  0.0285
 5110TIP3    H115336   1.356   5.687   3.289  1.9043  0.5161  1.4419
 5110TIP3    H215337   1.347   5.704   3.139 -2.2699 -2.3418  1.2139
 5111TIP3   OH215338   2.334   4.887   3.912 -0.4547 -0.8392  0.1748
 5111TIP3    H115339   2.357   4.936   3.991  0.0514  1.0145 -1.0497
 5111TIP3    H215340   2.356   4.796   3.932  0.5284 -0.2794  1.8145
 5112TIP3   OH215341   3.665   2.168   3.741  0.0724  0.0998  0.2936
 5112TIP3    H115342   3.728   2.231   3.707  0.9892 -0.1740  1.3872
 5112TIP3    H215343   3.625   2.128   3.664 -0.5516  2.0020 -0.4225
 5113TIP3   OH215344   1.981   5.366   0.117 -0.3187 -0.2151  0.4108
 5113TIP3    H115345   1.914   5.315   0.072  1.1738 -0.5531 -1.5925
 5113TIP3    H215346   1.998   5.440   0.058 -0.6840  1.2785  2.0923
 5114TIP3   OH215347   2.141   2.203   2.843 -0.5407  0.5604  0.4789
 5114TIP3    H115348   2.176   2.210   2.931  0.3454  0.4892  0.1417
 5114TIP3    H215349   2.209   2.159   2.793 -0.8206  1.0475 -0.3592
 5115TIP3   OH215350   2.292   1.115   1.706  0.2155 -0.2888 -0.2623
 5115TIP3    H115351   2.255   1.190   1.753  0.8358  0.1593 -0.4756
 5115TIP3    H215352   2.376   1.146   1.674  1.3035 -1.6011  1.1379
 5116TIP3   OH215353   0.801   3.108   4.831  0.2674 -0.2952  0.1455
 5116TIP3    H115354   0.822   3.035   4.773 -0.6456  0.2280 -0.8831
 5116TIP3    H215355   0.856   3.180   4.799  0.4620 -0.2654  0.5441
 5117TIP3   OH215356   0.394   0.584   3.233  0.1600  0.3089  0.3603
 5117TIP3    H115357   0.483   0.583   3.268  0.2482  0.0967  0.1390
 5117TIP3    H215358   0.406   0.595   3.138 -0.0186 -0.3778  0.2526
 5118TIP3   OH215359   2.231   5.284   3.693 -0.0128 -0.0629  0.6183
 5118TIP3    H115360   2.211   5.360   3.639  1.1772 -0.1475  0.0258
 5118TIP3    H215361   2.146   5.250   3.721 -0.8311 -1.2713 -2.9025
 5119TIP3   OH215362   0.030   0.563   3.647  0.3508 -0.1021  0.1429
 5119TIP3    H115363   0.088   0.555   3.571  1.5961  0.5677  0.9799
 5119TIP3    H215364   0.057   0.492   3.706  0.0134 -0.0742  0.3308
 5120TIP3   OH215365   3.482   3.589   1.110 -0.5289  0.2622  0.3192
 5120TIP3    H115366   3.436   3.672   1.095 -0.3205  0.3188 -0.0091
 5120TIP3    H215367   3.463   3.568   1.202 -2.3851 -0.4414 -0.1728
 5121TIP3   OH215368   4.985   4.654   1.841  0.0174 -0.2635  0.4898
 5121TIP3    H115369   5.013   4.729   1.894 -0.6456  1.4570 -1.4666
 5121TIP3    H215370   4.917   4.612   1.893 -0.1453  0.9612  1.3138
 5122TIP3   OH215371   1.571   5.106   4.334 -0.4319 -0.3079  0.0305
 5122TIP3    H115372   1.643   5.162   4.306  1.3954 -2.4113  0.2215
 5122TIP3    H215373   1.554   5.133   4.425 -0.2401  0.5464 -0.1809
 5123TIP3   OH215374   5.331   3.636   1.709 -0.0159 -0.1294  0.3192
 5123TIP3    H115375   5.371   3.556   1.676  0.9620  0.9296 -1.2173
 5123TIP3    H215376   5.374   3.652   1.793  0.4097 -0.7433  0.2262
 5124TIP3   OH215377   3.337   2.470   1.121  0.2087 -0.4129 -0.0269
 5124TIP3    H115378   3.360   2.489   1.211 -1.2642 -1.8987  0.7086
 5124TIP3    H215379   3.386   2.534   1.069  0.0149  1.3780  1.8890
 5125TIP3   OH215380   0.630   5.531  -0.014 -0.3725  0.0870  0.2111
 5125TIP3    H115381   0.542   5.556   0.012 -0.7049 -0.2778 -0.5254
 5125TIP3    H215382   0.658   5.468   0.053 -0.4180  0.6792  0.7937
 5126TIP3   OH215383   4.308   1.388   4.014  0.9230 -0.3539 -0.1078
 5126TIP3    H115384   4.287   1.459   4.074 -1.1926 -0.5207 -0.5685
 5126TIP3    H215385   4.403   1.382   4.016  1.0592  1.4706  1.0965
 5127TIP3   OH215386   1.199   0.955   4.185 -0.4768  0.3165  0.4914
 5127TIP3    H115387   1.268   1.021   4.194  1.2432 -1.3253 -0.0733
 5127TIP3    H215388   1.123   0.994   4.229 -0.2549  3.5970 -1.6083
 5128TIP3   OH215389   2.075   2.829   3.254  0.1554  0.0047 -0.0941
 5128TIP3    H115390   1.992   2.844   3.299 -0.4384 -1.1027 -0.7636
 5128TIP3    H215391   2.107   2.745   3.289  1.2737  0.6631  0.5362
 5129TIP3   OH215392   1.351   3.632   4.953 -0.4044  0.1578  0.2968
 5129TIP3    H115393   1.292   3.671   4.889  0.8472  0.7228 -0.5754
 5129TIP3    H215394   1.403   3.707   4.985  0.3159 -0.4087  0.4865
 5130TIP3   OH215395   1.600   1.425   3.435  0.5764  0.2765 -0.2034
 5130TIP3    H115396   1.538   1.460   3.371 -1.4194 -0.6954  1.1245
 5130TIP3    H215397   1.571   1.459   3.519 -1.1223 -3.7888  1.1122
 5131TIP3   OH215398   2.496   4.936   0.513  0.3986  0.0807  0.1383
 5131TIP3    H115399   2.484   5.027   0.489  1.0551  0.1292 -0.0426
 5131TIP3    H215400   2.451   4.886   0.445  2.0199  0.2206 -1.1037
 5132TIP3   OH215401   1.614   3.950   2.452 -0.5027  0.4634  0.2819
 5132TIP3    H115402   1.695   3.915   2.488 -0.4486  2.2689  2.1030
 5132TIP3    H215403   1.544   3.898   2.493 -0.3322  0.4014  0.4950
 5133TIP3   OH215404   5.129   5.624   2.365 -0.2806  0.4690 -0.6651
 5133TIP3    H115405   5.202   5.618   2.302  0.7803  1.0615  0.4679
 5133TIP3    H215406   5.127   5.539   2.407  1.3484  1.1855  0.9681
 5134TIP3   OH215407   2.481   5.252   4.469  0.0794 -0.1395  0.1245
 5134TIP3    H115408   2.501   5.272   4.561  0.1504  0.3949 -0.0022
 5134TIP3    H215409   2.527   5.320   4.420  1.3893 -1.3593 -0.4060
 5135TIP3   OH215410   0.513   0.017   0.559  0.4682  0.0929  0.1622
 5135TIP3    H115411   0.469  -0.008   0.478  1.2865  0.2645 -0.3421
 5135TIP3    H215412   0.604   0.033   0.533  0.5482  0.9954  0.9497
 5136TIP3   OH215413   6.342   1.467   3.365 -0.1264 -0.3641  0.0085
 5136TIP3    H115414   6.282   1.397   3.340  0.6857 -1.6800  1.5430
 5136TIP3    H215415   6.286   1.544   3.378 -1.1041 -0.8483 -1.2096
 5137TIP3   OH215416   5.016   2.420   0.044 -0.6024 -0.1702  0.0153
 5137TIP3    H115417   5.025   2.347   0.104  0.2237 -0.5360 -0.5428
 5137TIP3    H215418   4.977   2.382  -0.035  1.3048 -0.3625 -0.8825
 5138TIP3   OH215419   3.402   0.748   2.651 -0.1117  0.5100 -0.9904
 5138TIP3    H115420   3.334   0.815   2.650  0.6580  1.3035 -0.9501
 5138TIP3    H215421   3.467   0.779   2.714 -0.1132 -0.6656 -0.3698
 5139TIP3   OH215422   3.986   0.512   2.491  0.5440 -0.2962 -0.6603
 5139TIP3    H115423   3.899   0.486   2.522  0.6326 -1.1079 -1.0557
 5139TIP3    H215424   4.046   0.478   2.558  0.7424 -2.1272 -1.6945
 5140TIP3   OH215425   1.542   1.828   0.110  0.7376  0.4195  0.5273
 5140TIP3    H115426   1.536   1.733   0.118  0.9528  0.5773  3.2758
 5140TIP3    H215427   1.615   1.842   0.049  1.6901 -1.1667  1.2487
 5141TIP3   OH215428   0.901   3.437   2.409  0.1958 -0.8405 -0.3833
 5141TIP3    H115429   0.995   3.430   2.427 -0.3606 -1.8152  2.7831
 5141TIP3    H215430   0.880   3.359   2.357  1.3175  0.1332 -2.3914
 5142TIP3   OH215431   4.723   3.628   0.532  0.1755 -0.1589  0.4759
 5142TIP3    H115432   4.790   3.625   0.601 -0.3451 -0.2143  0.9923
 5142TIP3    H215433   4.640   3.629   0.580 -0.2002 -0.3189 -0.1607
 5143TIP3   OH215434   3.903   4.524   1.193 -0.1179 -0.3796  0.7161
 5143TIP3    H115435   3.810   4.508   1.182  0.3589 -2.6989 -0.4771
 5143TIP3    H215436   3.942   4.438   1.206  1.8154  0.5749  1.7169
 5144TIP3   OH215437   5.060   5.871   0.028 -0.7153  0.6237 -0.4390
 5144TIP3    H115438   4.984   5.822   0.059 -0.2818  1.1389  1.5750
 5144TIP3    H215439   5.038   5.896  -0.062 -2.5116 -0.0519 -0.2183
 5145TIP3   OH215440   2.252   2.497   4.926 -0.0707 -0.0128  0.0748
 5145TIP3    H115441   2.259   2.554   5.003 -1.3073  1.0133 -0.5399
 5145TIP3    H215442   2.255   2.556   4.851 -1.4056 -0.7276 -0.5792
 5146TIP3   OH215443   3.917   0.806   4.942 -0.2915  0.1087  0.4084
 5146TIP3    H115444   3.854   0.785   4.872 -2.4476  0.4611  2.1128
 5146TIP3    H215445   3.952   0.721   4.968  0.2018 -0.0715 -0.7801
 5147TIP3   OH215446   5.839   1.869   2.364  0.3054 -0.1847 -0.1614
 5147TIP3    H115447   5.782   1.821   2.424 -1.5915 -0.8419 -2.3483
 5147TIP3    H215448   5.781   1.930   2.319  1.0052 -1.6840 -3.3229
 5148TIP3   OH215449   3.527   3.994   3.447 -0.0213 -0.3595  0.2501
 5148TIP3    H115450   3.544   4.049   3.524 -0.4982 -1.7205  1.3704
 5148TIP3    H215451   3.593   3.925   3.452 -0.6217 -0.9681 -0.0645
 5149TIP3   OH215452   4.222   4.656   0.899  0.5280 -0.2709  0.0280
 5149TIP3    H115453   4.145   4.711   0.891  0.2900 -0.3770  1.3274
 5149TIP3    H215454   4.188   4.568   0.915  0.9032 -0.3426  0.4760
 5150TIP3   OH215455   3.974   4.386   4.175  0.3249 -0.0258 -0.3848
 5150TIP3    H115456   4.044   4.328   4.205  1.4325  1.1185 -0.6991
 5150TIP3    H215457   3.940   4.344   4.096 -1.5306 -2.2373  1.4248
 5151TIP3   OH215458   0.580   2.143   4.933 -0.2686  1.1326  0.0757
 5151TIP3    H115459   0.545   2.074   4.988  1.0823  1.0325  0.8628
 5151TIP3    H215460   0.510   2.209   4.929 -1.5142 -0.1842 -0.5731
 5152TIP3   OH215461   2.368   0.041   0.706  0.2417  0.5263  0.1018
 5152TIP3    H115462   2.414   0.017   0.626  3.8670  1.6261  1.6330
 5152TIP3    H215463   2.366  -0.039   0.757  1.8587  0.7312  0.5568
 5153TIP3   OH215464   5.590   1.920   2.237 -0.6441 -0.7549  0.6006
 5153TIP3    H115465   5.513   1.956   2.282 -2.0496 -3.2796  0.3689
 5153TIP3    H215466   5.556   1.847   2.186  0.9761  1.3119 -3.9968
 5154TIP3   OH215467   2.085   1.637   1.924  0.2468  0.6388  0.0625
 5154TIP3    H115468   2.129   1.605   2.003 -0.0272 -1.8893 -0.7334
 5154TIP3    H215469   2.014   1.692   1.957 -0.7217 -1.4520  1.7106
 5155TIP3   OH215470   6.156   2.648   2.586  0.5117 -0.0545 -0.3617
 5155TIP3    H115471   6.226   2.589   2.560 -0.8819 -2.6663  1.3825
 5155TIP3    H215472   6.076   2.596   2.579 -0.8299  1.6625  1.1094
 5156TIP3   OH215473   1.912   2.807   0.172 -0.3811  0.8753 -0.2740
 5156TIP3    H115474   1.882   2.718   0.156  1.5045  0.4222 -1.6778
 5156TIP3    H215475   1.837   2.852   0.211 -1.4884 -1.2065  0.0922
 5157TIP3   OH215476   1.664   0.792   5.074 -0.4252 -0.5120 -0.1454
 5157TIP3    H115477   1.744   0.844   5.072 -0.5518 -0.3264 -0.4912
 5157TIP3    H215478   1.694   0.701   5.070 -0.2346 -0.4414 -0.3500
 5158TIP3   OH215479   3.890   5.370   2.537  0.2209  0.4574  0.3667
 5158TIP3    H115480   3.935   5.287   2.523 -0.1647 -0.0744  2.0634
 5158TIP3    H215481   3.936   5.410   2.611  0.1222  1.5814 -0.1463
 5159TIP3   OH215482   3.819   0.102   4.601 -0.3134  0.0436  0.4740
 5159TIP3    H115483   3.892   0.122   4.542  0.5362  0.2297  1.5634
 5159TIP3    H215484   3.848   0.023   4.648 -0.7451  0.2080  1.0176
 5160TIP3   OH215485   3.342   0.626   1.290 -0.2395  0.2408 -0.5594
 5160TIP3    H115486   3.437   0.630   1.300 -0.1674 -1.3875 -0.3619
 5160TIP3    H215487   3.325   0.675   1.210  0.7338  0.7814 -0.4537
 5161TIP3   OH215488   2.426   1.960   5.123 -0.3901 -0.6968  0.0805
 5161TIP3    H115489   2.463   2.003   5.200 -1.1976 -1.2369  0.7944
 5161TIP3    H215490   2.367   2.025   5.085 -1.0174 -0.8879  0.7069
 5162TIP3   OH215491   1.250   4.038   4.615 -0.4435  0.5093  0.1511
 5162TIP3    H115492   1.241   4.105   4.684 -0.1720 -0.3794  1.0687
 5162TIP3    H215493   1.273   4.088   4.537  0.0898  1.4726  0.8959
 5163TIP3   OH215494   1.773   2.035   0.777 -0.0435 -0.6027  0.0912
 5163TIP3    H115495   1.716   1.961   0.799 -1.8305  0.7116  0.1370
 5163TIP3    H215496   1.713   2.106   0.754  1.5747  0.9601  0.3791
 5164TIP3   OH215497   4.284   3.910   4.303  0.1282  0.3367  0.0017
 5164TIP3    H115498   4.232   3.837   4.268  0.6726 -1.6876  3.0203
 5164TIP3    H215499   4.219   3.977   4.324 -0.9218 -0.8307  0.6741
 5165TIP3   OH215500   5.696   0.538   4.285  0.0139 -0.0149 -0.0908
 5165TIP3    H115501   5.694   0.620   4.335 -2.1722  0.6935 -1.2236
 5165TIP3    H215502   5.709   0.565   4.194  0.4561 -1.0468 -0.3520
 5166TIP3   OH215503   5.826   0.606   1.257 -0.1003 -0.2553  0.1032
 5166TIP3    H115504   5.881   0.630   1.182 -0.8646 -0.8739 -0.6753
 5166TIP3    H215505   5.752   0.559   1.219 -1.1536  0.4861  1.1276
 5167TIP3   OH215506   0.133   2.317   4.727  0.2855  1.2405 -0.1219
 5167TIP3    H115507   0.039   2.303   4.727  0.0745  2.5368 -0.2514
 5167TIP3    H215508   0.167   2.256   4.661 -0.5764  1.4796 -0.7978
 5168TIP3   OH215509   1.668   1.316   0.810  0.6183 -0.5522 -0.1563
 5168TIP3    H115510   1.725   1.242   0.833  3.2780  1.1346 -0.8238
 5168TIP3    H215511   1.725   1.392   0.817 -1.3425  1.1864 -1.8613
 5169TIP3   OH215512   4.744   2.780   4.105 -0.2568 -0.1997 -0.7617
 5169TIP3    H115513   4.810   2.826   4.053  1.0342 -0.0860  0.9326
 5169TIP3    H215514   4.793   2.722   4.163 -1.5110  0.7965  1.4297
 5170TIP3   OH215515   3.158   1.853   4.798  0.3397 -0.2637 -0.0120
 5170TIP3    H115516   3.067   1.828   4.783  0.5811 -1.2322  0.0644
 5170TIP3    H215517   3.207   1.805   4.731  0.8179  0.0850  0.0828
 5171TIP3   OH215518   5.184   3.229   2.884 -0.2127 -0.5639  0.0599
 5171TIP3    H115519   5.150   3.144   2.856 -0.1221 -0.4787 -0.3052
 5171TIP3    H215520   5.278   3.216   2.890 -0.1522 -0.3672 -0.4248
 5172TIP3   OH215521   2.029   2.583   2.800  0.1651 -0.0706 -0.7021
 5172TIP3    H115522   1.989   2.500   2.825 -0.6515  0.4132 -0.3751
 5172TIP3    H215523   2.072   2.614   2.879 -2.7603  1.6581  0.3461
 5173TIP3   OH215524   0.024   4.325   2.325  0.3183  0.2650  0.0182
 5173TIP3    H115525   0.070   4.242   2.335 -0.0917  0.0909  0.4717
 5173TIP3    H215526   0.016   4.359   2.414 -2.2702 -0.7082  0.2276
 5174TIP3   OH215527   1.128   4.566   1.685 -0.2331  0.0611 -0.3567
 5174TIP3    H115528   1.171   4.523   1.758  1.1730  0.0684 -1.1261
 5174TIP3    H215529   1.152   4.659   1.695 -0.6949  0.1844 -0.3843
 5175TIP3   OH215530   3.268   1.947   0.136  0.2484  0.6155 -0.6417
 5175TIP3    H115531   3.249   1.994   0.217  1.2985 -1.1127  0.6615
 5175TIP3    H215532   3.203   1.876   0.134  1.9079 -1.0084  0.1702
 5176TIP3   OH215533   0.561   0.065   1.359 -0.0393  0.3718  0.2537
 5176TIP3    H115534   0.501   0.007   1.406 -0.3131  1.6766  1.5718
 5176TIP3    H215535   0.646   0.020   1.364 -0.5616 -0.7205 -0.2475
 5177TIP3   OH215536   2.188   2.051   0.053  0.1803 -0.2367  0.0958
 5177TIP3    H115537   2.266   1.999   0.071 -0.6121 -1.5320 -0.0604
 5177TIP3    H215538   2.138   2.049   0.134 -1.0802 -1.9594 -0.6724
 5178TIP3   OH215539   2.925   0.345   0.637 -0.5047  0.3173 -0.1676
 5178TIP3    H115540   3.002   0.367   0.688 -1.0902  1.4499  0.2588
 5178TIP3    H215541   2.910   0.422   0.581  0.4261 -1.0670 -2.4947
 5179TIP3   OH215542   6.259   4.290   3.470 -0.1742 -0.0923 -0.2159
 5179TIP3    H115543   6.172   4.255   3.451 -0.4123 -0.2438  1.0665
 5179TIP3    H215544   6.296   4.311   3.384 -1.3718 -0.2691 -0.7930
 5180TIP3   OH215545   2.198   5.757   1.949 -0.0150 -0.2895  0.0613
 5180TIP3    H115546   2.122   5.752   1.890 -1.4529  0.5732  1.7555
 5180TIP3    H215547   2.233   5.845   1.936 -1.4603  0.5911  1.7374
 5181TIP3   OH215548   0.026   2.167   0.960  0.1765 -0.2518 -0.3266
 5181TIP3    H115549   0.047   2.109   0.887  0.1739  1.7525 -2.0314
 5181TIP3    H215550  -0.048   2.124   1.005  0.3004 -1.6287 -1.3736
 5182TIP3   OH215551   6.030   2.225   2.518 -0.0306 -0.4509  0.5264
 5182TIP3    H115552   6.022   2.208   2.424 -0.3258 -2.1554  0.8138
 5182TIP3    H215553   6.116   2.190   2.541 -0.1430 -0.4529  0.9577
 5183TIP3   OH215554   6.142   5.252   1.672  0.9035 -0.2845  0.1084
 5183TIP3    H115555   6.147   5.348   1.678  0.6777 -0.3345  1.4209
 5183TIP3    H215556   6.075   5.228   1.736  0.9685 -1.3308 -0.1997
 5184TIP3   OH215557   5.490   5.884   2.353  0.4656 -0.2240  0.0816
 5184TIP3    H115558   5.459   5.795   2.366 -1.2013  0.1301 -1.1082
 5184TIP3    H215559   5.410   5.937   2.351  1.3448  1.1600 -0.2582
 5185TIP3   OH215560   1.054   2.771   0.739 -0.3900 -0.2798  0.0541
 5185TIP3    H115561   1.055   2.714   0.816 -0.7527 -1.6222 -0.9062
 5185TIP3    H215562   1.133   2.824   0.748  0.2759 -1.3406  0.6950
 5186TIP3   OH215563   4.888   4.275   3.321  0.3000  0.1611  0.1515
 5186TIP3    H115564   4.906   4.369   3.320  1.0370  0.0599  1.5624
 5186TIP3    H215565   4.975   4.234   3.315  0.1805 -0.3918  1.7179
 5187TIP3   OH215566   5.110   1.103   1.588 -0.4231  0.5719  0.1360
 5187TIP3    H115567   5.049   1.169   1.621  0.0131  1.6315 -1.0563
 5187TIP3    H215568   5.169   1.152   1.531  2.3548 -0.1860  2.1578
 5188TIP3   OH215569   5.265   2.500   1.195  0.2431 -0.0685  0.5060
 5188TIP3    H115570   5.251   2.493   1.101  1.3735 -0.4060  0.3402
 5188TIP3    H215571   5.241   2.590   1.216  1.4208  0.4939 -0.3981
 5189TIP3   OH215572   4.807   3.903   3.551  0.3832  0.1251  0.2275
 5189TIP3    H115573   4.816   3.998   3.545  0.2029  0.2418  1.4091
 5189TIP3    H215574   4.857   3.879   3.629  0.5343 -0.7723 -0.1271
 5190TIP3   OH215575   3.464   0.123   1.458 -0.0838  0.0510  0.2176
 5190TIP3    H115576   3.371   0.128   1.436 -0.1149  0.2560  0.3955
 5190TIP3    H215577   3.467   0.097   1.550  0.0305  0.2700  0.2769
 5191TIP3   OH215578   6.190   5.987   0.350 -0.4046 -0.4465  0.6131
 5191TIP3    H115579   6.147   6.008   0.434  0.9581 -0.6034  1.3764
 5191TIP3    H215580   6.127   5.931   0.305 -1.3401 -0.0347  1.3525
 5192TIP3   OH215581   3.570   1.413   3.032 -0.4725 -0.4268 -0.0249
 5192TIP3    H115582   3.501   1.476   3.054 -0.9898 -0.6742 -0.9060
 5192TIP3    H215583   3.568   1.407   2.937 -0.2209 -1.5510  0.0275
 5193TIP3   OH215584   4.601   5.332   3.871  0.2993 -0.4896  0.4428
 5193TIP3    H115585   4.559   5.414   3.896 -0.8401 -1.3006  1.3208
 5193TIP3    H215586   4.558   5.307   3.790  2.2271  0.8615 -1.1036
 5194TIP3   OH215587   5.582   1.960   1.364 -0.1452  0.1703 -0.0216
 5194TIP3    H115588   5.638   1.953   1.287 -0.5824 -1.9493 -0.2256
 5194TIP3    H215589   5.609   1.887   1.420 -0.6529  0.9484  1.2715
 5195TIP3   OH215590   0.058   1.765   1.601 -0.0558  0.3080 -0.2924
 5195TIP3    H115591   0.069   1.845   1.652 -2.3781 -0.0866  0.9970
 5195TIP3    H215592  -0.015   1.784   1.542 -2.1072 -1.4042  1.5112
 5196TIP3   OH215593   5.295   0.131   3.412  0.2177 -0.2643  0.1533
 5196TIP3    H115594   5.359   0.087   3.356 -0.4559 -2.1031  0.7559
 5196TIP3    H215595   5.344   0.154   3.491  0.5336 -0.1006 -0.0883
 5197TIP3   OH215596   2.154   0.314   4.402 -0.0158  0.4382 -0.7081
 5197TIP3    H115597   2.157   0.389   4.342 -0.8846  1.3260  0.3233
 5197TIP3    H215598   2.232   0.325   4.457 -0.1123  0.5646 -0.5944
 5198TIP3   OH215599   2.928   1.813   1.536 -0.2045  0.2653  0.2331
 5198TIP3    H115600   3.002   1.768   1.496 -1.4472 -0.8379 -0.9034
 5198TIP3    H215601   2.966   1.891   1.576  1.7666 -0.9356  0.8399
 5199TIP3   OH215602   0.738   2.226   4.086 -0.3399  0.3072  0.7805
 5199TIP3    H115603   0.676   2.247   4.156 -1.0445 -0.0481  0.2781
 5199TIP3    H215604   0.683   2.199   4.013  0.3841  0.6761  0.0802
 5200TIP3   OH215605   0.370   1.998   3.709  0.6697  0.0880  0.5313
 5200TIP3    H115606   0.344   2.085   3.739  0.1589  0.6217 -1.3384
 5200TIP3    H215607   0.312   1.938   3.756 -1.1277  0.9877 -0.4535
 5201TIP3   OH215608   1.905   0.507   3.698 -0.2479 -0.4683 -0.1049
 5201TIP3    H115609   1.866   0.576   3.645 -1.8485 -2.1309 -1.2422
 5201TIP3    H215610   1.833   0.473   3.751  0.2828 -1.8150 -0.2051
 5202TIP3   OH215611   1.159   0.379   3.011 -0.5558 -0.1013  0.1431
 5202TIP3    H115612   1.219   0.332   2.953 -1.3634 -0.4509 -0.4192
 5202TIP3    H215613   1.104   0.431   2.953 -1.4415 -0.5284  0.5688
 5203TIP3   OH215614   2.203   5.597   4.152 -0.8033  0.5378  1.0609
 5203TIP3    H115615   2.272   5.663   4.151  0.9116 -1.1409 -0.5066
 5203TIP3    H215616   2.231   5.535   4.220  0.5124 -1.3017 -1.0396
 5204TIP3   OH215617   1.483   2.133   3.338  0.9399  0.1516  0.3069
 5204TIP3    H115618   1.549   2.119   3.406  0.3960 -1.6740  0.5002
 5204TIP3    H215619   1.400   2.136   3.385  0.6211 -0.5222 -0.1970
 5205TIP3   OH215620   2.362   0.783   3.025  0.0581  0.2696 -0.2456
 5205TIP3    H115621   2.285   0.726   3.038  0.5853 -0.5897 -0.8164
 5205TIP3    H215622   2.434   0.736   3.067  0.6854  0.0575 -1.5139
 5206TIP3   OH215623   1.346   1.987   0.722 -0.1136  0.3594 -0.0013
 5206TIP3    H115624   1.403   2.039   0.779 -1.0988  0.5073  0.8904
 5206TIP3    H215625   1.389   1.989   0.637  0.5379  1.5633  0.3255
 5207TIP3   OH215626   2.367   3.448   3.373 -0.3776  0.3846 -0.5299
 5207TIP3    H115627   2.306   3.419   3.441 -0.2862  1.1417 -0.1027
 5207TIP3    H215628   2.446   3.396   3.387 -0.5118  0.2366 -0.3232
 5208TIP3   OH215629   1.214   1.099   3.891  0.1885 -0.3801  0.9587
 5208TIP3    H115630   1.217   1.071   3.983 -1.2865 -0.1677  1.1031
 5208TIP3    H215631   1.214   1.195   3.895 -0.8223 -0.3651  0.8023
 5209TIP3   OH215632   4.655   0.670   1.591  0.4801  0.3063  0.3480
 5209TIP3    H115633   4.670   0.725   1.668 -2.2876  2.6519 -0.5831
 5209TIP3    H215634   4.620   0.588   1.626  0.7311  0.7287  1.6457
 5210TIP3   OH215635   2.313   2.639   2.844 -0.0213  0.0772 -0.1294
 5210TIP3    H115636   2.369   2.716   2.827 -1.0141  1.0567  0.8849
 5210TIP3    H215637   2.322   2.586   2.765  1.2587  0.8761 -0.5602
 5211TIP3   OH215638   1.260   0.565   1.177  0.2403 -0.3316 -0.0055
 5211TIP3    H115639   1.210   0.586   1.256 -0.1922  3.5781 -1.0951
 5211TIP3    H215640   1.195   0.530   1.115 -0.3832  0.9607 -0.1026
 5212TIP3   OH215641   3.735   3.260   1.623  0.1432  0.0579 -0.2055
 5212TIP3    H115642   3.817   3.213   1.609 -0.1276 -0.1642 -1.1371
 5212TIP3    H215643   3.680   3.198   1.671  1.2408  0.9879  2.4479
 5213TIP3   OH215644   5.307   5.609   4.820  0.2471  0.5630 -0.0047
 5213TIP3    H115645   5.259   5.610   4.737 -0.4519 -0.9139  0.3600
 5213TIP3    H215646   5.263   5.675   4.873 -0.5437  0.1616 -0.1432
 5214TIP3   OH215647   1.982   1.287   4.780 -0.0111 -0.1514 -0.3986
 5214TIP3    H115648   1.972   1.193   4.765 -0.9334  0.2892 -3.1397
 5214TIP3    H215649   1.920   1.307   4.850 -0.3022 -1.5019 -0.2549
 5215TIP3   OH215650   3.954   4.053   2.714 -0.3660 -0.1342  0.3108
 5215TIP3    H115651   3.893   4.031   2.644  0.0352 -1.0114  0.2131
 5215TIP3    H215652   3.991   4.137   2.689 -0.7795 -0.0911 -0.1531
 5216TIP3   OH215653   2.433   5.926   2.524 -0.1101  0.2231  0.5264
 5216TIP3    H115654   2.493   5.934   2.598  0.9852  0.3260 -0.3442
 5216TIP3    H215655   2.490   5.904   2.450 -1.0105  1.3399 -0.5364
 5217TIP3   OH215656   3.758   3.968   0.234  0.2190 -0.6211  0.2636
 5217TIP3    H115657   3.700   3.930   0.168 -1.2083  0.2139  0.9997
 5217TIP3    H215658   3.738   4.061   0.232  0.9197 -0.4436  1.1430
 5218TIP3   OH215659   3.744   3.222   2.624 -0.6148 -0.3893 -0.2225
 5218TIP3    H115660   3.703   3.186   2.703  0.1320 -1.2102 -0.1938
 5218TIP3    H215661   3.836   3.198   2.632 -0.4705 -0.1710 -1.1761
 5219TIP3   OH215662   3.427   0.842   1.717  0.0492 -0.1921  0.1821
 5219TIP3    H115663   3.382   0.813   1.796  0.0126  1.2921  0.7355
 5219TIP3    H215664   3.373   0.913   1.683  0.5220 -0.2447 -0.7057
 5220TIP3   OH215665   5.006   2.617   4.708  0.1669 -0.2459  0.0086
 5220TIP3    H115666   5.034   2.604   4.798  0.4137 -0.6777 -0.1289
 5220TIP3    H215667   4.926   2.669   4.715  1.3792  1.6624  0.3777
 5221TIP3   OH215668   3.979   2.962   4.752 -0.0396 -0.4182 -0.6377
 5221TIP3    H115669   3.888   2.963   4.722 -0.0225 -2.1791 -0.8706
 5221TIP3    H215670   3.973   2.977   4.846 -0.4837  0.4508 -0.7945
 5222TIP3   OH215671   0.583   3.338   4.785  0.3707  0.0134 -0.0015
 5222TIP3    H115672   0.512   3.320   4.847  0.2627 -1.1116 -0.4358
 5222TIP3    H215673   0.622   3.420   4.816 -1.4440  0.9338 -0.0613
 5223TIP3   OH215674   3.086   5.250   0.977  0.2814 -0.7587 -0.1026
 5223TIP3    H115675   3.180   5.241   0.969  0.4463  0.4400  0.2968
 5223TIP3    H215676   3.051   5.214   0.896  1.1490 -0.2190 -0.7291
 5224TIP3   OH215677   5.828   1.262   2.712 -0.2443  0.3626 -0.6359
 5224TIP3    H115678   5.872   1.205   2.775  1.7854 -0.1856 -2.4386
 5224TIP3    H215679   5.768   1.205   2.665  0.1959  0.1813 -0.9806
 5225TIP3   OH215680   1.292   2.202   2.445  0.2457 -0.5258 -0.0731
 5225TIP3    H115681   1.364   2.151   2.482  0.4158 -0.9280 -0.9162
 5225TIP3    H215682   1.228   2.136   2.419  0.1194 -0.2578 -0.4466
 5226TIP3   OH215683   6.271   3.944   0.955  0.0029  0.5757 -0.1307
 5226TIP3    H115684   6.301   3.911   1.039 -0.5679  3.3370  1.2544
 5226TIP3    H215685   6.199   3.886   0.930  1.3894 -1.4274  0.2678
 5227TIP3   OH215686   0.374   5.174   0.487  0.1022 -0.5154  0.1104
 5227TIP3    H115687   0.446   5.206   0.541  0.3661 -0.8674 -0.0312
 5227TIP3    H215688   0.300   5.169   0.547  0.4412 -1.0877  0.4948
 5228TIP3   OH215689   2.312   3.993   4.437 -0.5304  0.5293 -0.0394
 5228TIP3    H115690   2.305   3.996   4.532 -0.8464 -0.4490 -0.0143
 5228TIP3    H215691   2.224   4.014   4.406 -0.5875  0.2242 -0.0904
 5229TIP3   OH215692   4.168   0.767   1.438 -0.0270  0.1078  0.1642
 5229TIP3    H115693   4.196   0.695   1.495  1.0063 -0.0148 -0.4866
 5229TIP3    H215694   4.104   0.727   1.379  0.4154 -0.2435 -0.0853
 5230TIP3   OH215695   3.333   2.802   0.934  0.3741 -0.2567  0.4695
 5230TIP3    H115696   3.255   2.855   0.916 -0.9036 -1.8920  0.8711
 5230TIP3    H215697   3.395   2.825   0.865 -0.9870  0.1144 -0.6819
 5231TIP3   OH215698   0.522   1.011   2.346  0.4806 -0.1621 -0.0104
 5231TIP3    H115699   0.491   1.098   2.371 -0.8241 -0.5803 -0.1049
 5231TIP3    H215700   0.551   0.971   2.428 -1.3646 -0.5794  0.4863
 5232TIP3   OH215701   3.387   5.711   0.285 -0.0591 -0.3425  0.3265
 5232TIP3    H115702   3.478   5.717   0.256 -0.1729 -2.0885 -0.5092
 5232TIP3    H215703   3.337   5.692   0.205 -1.6998  3.7701  0.1307
 5233TIP3   OH215704   2.402   5.145   3.103  0.5102  0.6093 -0.8228
 5233TIP3    H115705   2.434   5.217   3.158  1.1651  1.2738 -2.0306
 5233TIP3    H215706   2.473   5.130   3.040  0.3055 -0.9927 -0.7005
 5234TIP3   OH215707   0.978   3.684   1.608 -0.4224 -0.1387 -0.3723
 5234TIP3    H115708   1.007   3.596   1.582 -0.0788 -0.3030  0.5305
 5234TIP3    H215709   0.950   3.674   1.699  0.8795  0.9490  0.1864
 5235TIP3   OH215710   3.730   1.033   3.705  0.1289 -0.1363  0.5436
 5235TIP3    H115711   3.772   1.077   3.779 -2.0266  0.1370  1.7070
 5235TIP3    H215712   3.749   0.940   3.718 -0.6375 -0.1472  1.7797
 5236TIP3   OH215713   6.021   0.034   4.142  0.1968 -0.1860  0.1805
 5236TIP3    H115714   6.110   0.066   4.158  0.6481 -0.3586 -1.7308
 5236TIP3    H215715   6.004  -0.026   4.214  2.8675 -2.5605 -0.9468
 5237TIP3   OH215716   2.721   3.295   5.117  0.2620 -0.1242  0.3132
 5237TIP3    H115717   2.692   3.364   5.176  0.0006  0.6937 -0.7270
 5237TIP3    H215718   2.798   3.257   5.159  0.2743  0.6586  1.0082
 5238TIP3   OH215719   1.851   2.715   2.050  0.2012  0.2205  0.2309
 5238TIP3    H115720   1.884   2.737   2.137 -0.2145  1.6900  0.0422
 5238TIP3    H215721   1.850   2.798   2.003 -0.8634 -0.3173 -0.7399
 5239TIP3   OH215722   1.701   5.990   0.486 -0.0228  0.0385  0.0505
 5239TIP3    H115723   1.690   5.920   0.550 -0.4188  0.0374 -0.0201
 5239TIP3    H215724   1.619   6.039   0.489 -0.6213 -0.8391 -1.5264
 5240TIP3   OH215725   5.492   5.943   3.973  0.3906  0.5039 -0.0234
 5240TIP3    H115726   5.497   5.874   3.907  0.6493 -0.5979  1.1239
 5240TIP3    H215727   5.514   6.023   3.925 -1.1012  0.0024 -1.6504
 5241TIP3   OH215728   6.024   4.170   3.467 -0.1073 -0.2669  0.2044
 5241TIP3    H115729   5.967   4.116   3.411 -0.5935 -0.3650  0.7813
 5241TIP3    H215730   6.016   4.130   3.553  1.0259 -0.4161  0.2505
 5242TIP3   OH215731   3.105   0.701   4.973 -0.0297 -0.1180 -0.2638
 5242TIP3    H115732   3.049   0.765   4.929  0.2037 -0.2897 -0.8225
 5242TIP3    H215733   3.192   0.718   4.938  0.3034  0.2559  0.7268
 5243TIP3   OH215734   6.333   5.298   2.915 -0.2522 -0.0123 -0.7473
 5243TIP3    H115735   6.386   5.320   2.992 -0.8012 -0.3452 -0.2646
 5243TIP3    H215736   6.247   5.275   2.951 -0.9241  1.1401 -1.5617
 5244TIP3   OH215737   0.855   0.143   1.749 -0.0591  0.0511  0.0774
 5244TIP3    H115738   0.814   0.225   1.721  0.1792  0.5159  1.0795
 5244TIP3    H215739   0.949   0.161   1.745  0.1134 -0.9535 -2.0365
 5245TIP3   OH215740   2.791   3.837   4.106  0.1527  0.1980 -0.3810
 5245TIP3    H115741   2.798   3.932   4.112 -0.2990  0.2304 -0.3056
 5245TIP3    H215742   2.879   3.807   4.083  0.8855  0.4335  1.8797
 5246TIP3   OH215743   4.528   1.082   1.559 -0.7358  0.1165 -0.4397
 5246TIP3    H115744   4.563   1.162   1.519 -2.0554  0.6851 -0.5137
 5246TIP3    H215745   4.463   1.050   1.496 -1.2083 -0.2426  0.2127
 5247TIP3   OH215746   6.053   2.072   1.037  0.6241 -0.0633  0.1292
 5247TIP3    H115747   6.030   2.014   0.964 -2.2968  0.5525  0.4314
 5247TIP3    H215748   6.047   2.017   1.115  0.6045 -0.0187  0.1598
 5248TIP3   OH215749   0.083   1.128   2.145  0.1425 -0.4448  0.2718
 5248TIP3    H115750   0.152   1.064   2.128 -0.2352 -1.4272  2.1902
 5248TIP3    H215751   0.122   1.212   2.123  1.3399 -1.1322 -0.3530
 5249TIP3   OH215752   4.215   4.953   1.127 -0.0990 -0.3084  0.3729
 5249TIP3    H115753   4.236   5.019   1.194 -0.5838 -0.6775  0.9040
 5249TIP3    H215754   4.276   4.881   1.145 -0.5693 -0.6201  0.7552
 5250TIP3   OH215755   4.671   4.277   0.461  0.0825  0.5277  0.5383
 5250TIP3    H115756   4.763   4.287   0.438  0.4125 -0.3569  1.4328
 5250TIP3    H215757   4.670   4.214   0.533 -1.2225  0.5120  0.5376
 5251TIP3   OH215758   6.037   2.763   5.159  0.4153 -0.3358 -0.1931
 5251TIP3    H115759   5.990   2.846   5.171 -2.6135 -2.1167  1.4506
 5251TIP3    H215760   6.122   2.777   5.200  0.0215  1.9395 -0.0083
 5252TIP3   OH215761   4.188   1.313   3.783 -0.2381 -0.3852 -0.3055
 5252TIP3    H115762   4.136   1.377   3.735 -0.4455 -0.0326  0.3738
 5252TIP3    H215763   4.226   1.363   3.855 -1.7918 -1.3689  1.2816
 5253TIP3   OH215764   0.894   2.019   4.164 -0.0321  0.1574 -0.6430
 5253TIP3    H115765   0.872   2.056   4.249 -1.8393 -0.4190 -0.8181
 5253TIP3    H215766   0.846   2.073   4.101 -0.6340 -0.8860 -1.0999
 5254TIP3   OH215767   5.724   5.813   3.284  0.1735 -0.5829 -0.1361
 5254TIP3    H115768   5.752   5.884   3.226  4.0855 -1.0082  0.9290
 5254TIP3    H215769   5.644   5.845   3.325  1.5028  3.0847 -0.0549
 5255TIP3   OH215770   0.363   3.628   4.211 -0.6399  0.0312  0.2536
 5255TIP3    H115771   0.446   3.652   4.170 -0.9280 -0.1923 -0.4820
 5255TIP3    H215772   0.353   3.535   4.193  0.2006 -0.5733  2.6044
 5256TIP3   OH215773   0.988   5.156   4.743 -0.0099 -0.6636 -0.0715
 5256TIP3    H115774   0.919   5.166   4.808 -0.7480  0.4569 -0.9862
 5256TIP3    H215775   0.944   5.116   4.668 -0.3838  2.4450 -1.6709
 5257TIP3   OH215776   5.475   1.096   4.703 -0.0725  0.2489  0.2429
 5257TIP3    H115777   5.568   1.077   4.719  0.7524  3.3242 -0.3209
 5257TIP3    H215778   5.435   1.094   4.790  0.8402  0.3911  0.6772
 5258TIP3   OH215779   6.330   4.815   4.827 -0.0114 -0.1640 -0.6830
 5258TIP3    H115780   6.399   4.849   4.771  0.4782 -2.1360 -1.3636
 5258TIP3    H215781   6.250   4.856   4.796  0.6640  1.1523 -0.7372
 5259TIP3   OH215782   1.429   1.000   0.904  0.0015 -0.6162 -0.2341
 5259TIP3    H115783   1.495   0.957   0.958  0.4938  1.2249  0.7053
 5259TIP3    H215784   1.418   1.087   0.943 -1.6687 -0.2194 -1.4508
 5260TIP3   OH215785   4.722   4.655   4.210 -0.0933 -0.3275  0.1097
 5260TIP3    H115786   4.649   4.593   4.222  0.8192 -1.4700 -0.0753
 5260TIP3    H215787   4.758   4.667   4.298 -0.6962  0.5145  0.2581
 5261TIP3   OH215788   6.130   4.283   4.801  0.0859 -0.0627 -0.3468
 5261TIP3    H115789   6.105   4.357   4.745 -0.3561 -0.4010 -0.5988
 5261TIP3    H215790   6.050   4.260   4.848 -0.4070 -1.8038 -1.9007
 5262TIP3   OH215791   3.318   4.031   4.282  0.1388 -0.5299 -0.2078
 5262TIP3    H115792   3.354   4.113   4.247 -0.4149  0.1831  0.8278
 5262TIP3    H215793   3.348   4.029   4.373  0.2189 -1.5332 -0.2497
 5263TIP3   OH215794   2.865   2.306   1.650  0.6572 -0.2295 -0.0515
 5263TIP3    H115795   2.889   2.396   1.627 -0.6785  0.1719  0.0536
 5263TIP3    H215796   2.831   2.270   1.568  4.7895 -2.0252 -1.2750
 5264TIP3   OH215797   1.686   0.447   3.429  0.1186 -0.6659 -0.5120
 5264TIP3    H115798   1.745   0.518   3.405  1.5684 -1.8922 -0.7467
 5264TIP3    H215799   1.610   0.459   3.372 -1.2130  2.5286  1.6349
 5265TIP3   OH215800   1.001   2.485   2.754  0.5465  0.4080 -0.4570
 5265TIP3    H115801   0.930   2.540   2.722 -0.8313 -0.9097  0.2123
 5265TIP3    H215802   0.973   2.460   2.843  1.2307 -1.1495 -0.6541
 5266TIP3   OH215803   1.155   4.494   3.662  0.3977 -0.6515 -0.0069
 5266TIP3    H115804   1.208   4.540   3.727  0.0288 -2.3103  1.5418
 5266TIP3    H215805   1.153   4.553   3.586  0.3041  1.6378  1.6818
 5267TIP3   OH215806   5.083   5.937   1.546 -0.0829 -0.4483 -0.0653
 5267TIP3    H115807   5.172   5.970   1.530 -0.5651  0.1896 -1.5629
 5267TIP3    H215808   5.053   5.988   1.621  0.2493  0.4890 -0.5496
 5268TIP3   OH215809   0.447   5.762   3.978  0.0419 -0.6943  0.2274
 5268TIP3    H115810   0.380   5.813   4.024 -0.1142 -1.4208  0.8186
 5268TIP3    H215811   0.426   5.774   3.885 -0.2920 -0.0931  0.3709
 5269TIP3   OH215812   2.914   3.952   0.263 -0.5844  0.9524  0.5174
 5269TIP3    H115813   2.974   3.937   0.336 -0.0705 -2.8657 -0.4693
 5269TIP3    H215814   2.831   3.916   0.293 -1.5963  3.2026  0.6461
 5270TIP3   OH215815   0.508   0.373   2.999 -0.4668 -0.6396 -0.0857
 5270TIP3    H115816   0.529   0.321   2.920  0.8436  0.6915 -0.6617
 5270TIP3    H215817   0.502   0.463   2.967  0.3806 -0.0374  1.3663
 5271TIP3   OH215818   0.748   1.282   3.001  0.2883  0.0886 -0.0318
 5271TIP3    H115819   0.705   1.288   3.087  1.3877 -0.0566  0.5493
 5271TIP3    H215820   0.677   1.298   2.938 -0.9300 -1.6240  0.8060
 5272TIP3   OH215821   5.907   5.251   4.608 -0.2861 -0.1431 -0.3481
 5272TIP3    H115822   5.937   5.324   4.663  0.1123 -1.0119  0.6351
 5272TIP3    H215823   5.987   5.219   4.567 -0.5354  0.2777 -1.1860
 5273TIP3   OH215824   2.507   1.513   0.322 -0.2222  0.4501  0.1258
 5273TIP3    H115825   2.419   1.516   0.283 -0.0733  0.8410 -0.1808
 5273TIP3    H215826   2.508   1.430   0.370 -1.1614  0.9728  1.0948
 5274TIP3   OH215827   5.694   1.433   1.169 -1.0270  0.2470 -0.6557
 5274TIP3    H115828   5.629   1.363   1.157  0.1117 -1.2944  1.4462
 5274TIP3    H215829   5.763   1.392   1.220  1.4912  1.9260 -2.4825
 5275TIP3   OH215830   3.305   1.389   4.464  0.1571 -0.3015 -0.0723
 5275TIP3    H115831   3.258   1.349   4.390  0.0049  1.6104 -1.0795
 5275TIP3    H215832   3.276   1.480   4.463  2.8711  0.6283  0.1199
 5276TIP3   OH215833   1.782   5.568   0.628 -0.3296  0.3847 -0.6403
 5276TIP3    H115834   1.711   5.524   0.674 -0.8090  1.2534 -0.5142
 5276TIP3    H215835   1.780   5.658   0.662  1.1153  0.3169 -0.3119
 5277TIP3   OH215836   1.982   1.540   2.798  0.0188  0.3750  0.0453
 5277TIP3    H115837   1.999   1.581   2.883  0.6358 -0.5805  0.3933
 5277TIP3    H215838   2.018   1.452   2.806 -1.3982 -0.3009 -0.6312
 5278TIP3   OH215839   1.064   4.280   0.449  0.5578  0.0283 -0.1931
 5278TIP3    H115840   1.067   4.217   0.377 -0.8455 -1.7038  1.1544
 5278TIP3    H215841   1.061   4.365   0.407 -2.4542 -0.9545 -2.3145
 5279TIP3   OH215842   5.791   2.838   1.674  0.4860  0.5805  1.0042
 5279TIP3    H115843   5.827   2.845   1.585 -0.0354 -0.6428  0.6884
 5279TIP3    H215844   5.850   2.778   1.719 -1.8759 -2.6922  0.0360
 5280TIP3   OH215845   2.020   0.537   4.636 -0.2562 -0.2374  0.0396
 5280TIP3    H115846   2.081   0.527   4.563  0.2392 -1.1513  0.5540
 5280TIP3    H215847   1.956   0.467   4.623  1.2461 -2.0524  1.7942
 5281TIP3   OH215848   3.258   3.144   1.832 -0.2766  0.0787  0.3742
 5281TIP3    H115849   3.301   3.229   1.821 -1.0680  0.3826 -0.5221
 5281TIP3    H215850   3.324   3.089   1.875  0.3800  1.0318  0.6172
 5282TIP3   OH215851   1.994   2.616   1.754  0.0102  0.2499  0.0614
 5282TIP3    H115852   1.914   2.648   1.712 -0.9229 -0.4388  1.2336
 5282TIP3    H215853   1.996   2.522   1.733  0.4002  0.2249  0.2088
 5283TIP3   OH215854   6.265   4.361   3.742  0.3626 -0.0223 -0.4436
 5283TIP3    H115855   6.265   4.352   3.647 -0.1477  0.3496 -0.4838
 5283TIP3    H215856   6.218   4.285   3.774 -0.5676  0.4872 -0.5646
 5284TIP3   OH215857   1.422   0.358   0.612  0.5464 -0.5308  0.3465
 5284TIP3    H115858   1.382   0.349   0.526 -2.8654  0.0781  1.7059
 5284TIP3    H215859   1.490   0.290   0.614  1.2536 -0.1161 -2.9620
 5285TIP3   OH215860   1.298   2.971   2.254 -0.8223  0.0583  0.2498
 5285TIP3    H115861   1.295   3.062   2.283  0.1085 -0.0943  0.8638
 5285TIP3    H215862   1.237   2.925   2.311  1.7799 -0.4410  2.8402
 5286TIP3   OH215863   1.827   3.120   4.004  0.2437  0.1850 -0.4309
 5286TIP3    H115864   1.746   3.118   3.954  0.2339  2.6383 -0.6668
 5286TIP3    H215865   1.817   3.195   4.063  1.8285 -0.2358  0.4422
 5287TIP3   OH215866   3.841   5.661   3.704  0.0311 -0.2562 -0.2121
 5287TIP3    H115867   3.805   5.679   3.617 -1.9181  0.1603  0.6307
 5287TIP3    H215868   3.911   5.598   3.688  0.8220  1.0373 -2.2541
 5288TIP3   OH215869   5.113   0.459   3.381  0.0495  0.0333  0.0580
 5288TIP3    H115870   5.062   0.385   3.415 -2.8169  1.2513 -1.2033
 5288TIP3    H215871   5.124   0.517   3.456  0.0923 -0.5211  0.4872
 5289TIP3   OH215872   4.562   5.647   3.616 -0.0119 -0.8260 -0.0933
 5289TIP3    H115873   4.531   5.737   3.611  0.3987 -0.7570 -1.7490
 5289TIP3    H215874   4.536   5.607   3.533  2.1362 -1.4470 -0.5310
 5290TIP3   OH215875   6.253   1.039   0.902  0.0386 -0.5089  0.3380
 5290TIP3    H115876   6.282   1.039   0.993  0.3292 -0.8158  0.2499
 5290TIP3    H215877   6.325   1.079   0.854 -0.8670  1.3723  0.4495
 5291TIP3   OH215878   2.980   2.316   4.788 -0.1045 -0.1460  0.1819
 5291TIP3    H115879   3.064   2.295   4.828 -0.3270 -0.5079  0.4561
 5291TIP3    H215880   2.972   2.254   4.716 -0.0643 -0.0034  0.0532
 5292TIP3   OH215881   3.433   2.235   1.820 -0.3536  0.0995 -0.4106
 5292TIP3    H115882   3.515   2.202   1.785 -1.6344 -1.3340 -2.3030
 5292TIP3    H215883   3.408   2.171   1.887  0.5353  1.1074  0.9295
 5293TIP3   OH215884   3.740   3.494   1.003 -0.3264  0.0344  0.0569
 5293TIP3    H115885   3.804   3.443   1.052  1.1000  2.3816  0.8046
 5293TIP3    H215886   3.670   3.511   1.065 -0.6529 -0.7130 -0.0995
 5294TIP3   OH215887   5.469   3.539   2.848 -0.7418  0.1035 -0.5667
 5294TIP3    H115888   5.396   3.598   2.867 -0.4558  0.1550  0.4099
 5294TIP3    H215889   5.547   3.588   2.874 -0.3822 -0.1095 -1.2181
 5295TIP3   OH215890   3.405   1.446   0.108  0.6003 -0.0915 -0.2607
 5295TIP3    H115891   3.363   1.504   0.171  0.0468 -0.5786 -0.1654
 5295TIP3    H215892   3.457   1.504   0.052 -0.3054  0.5558 -0.4577
 5296TIP3   OH215893   5.515   0.028   2.232  0.3934 -0.5874 -0.3657
 5296TIP3    H115894   5.463  -0.024   2.293  1.2092 -1.7619 -0.6300
 5296TIP3    H215895   5.458   0.040   2.156 -0.0745 -0.4374  0.0030
 5297TIP3   OH215896   1.721   5.522   2.070  0.3231 -0.2582  0.3578
 5297TIP3    H115897   1.760   5.504   1.984 -1.1042  0.3988 -0.4621
 5297TIP3    H215898   1.796   5.537   2.127  1.3091 -0.8476 -0.7378
 5298TIP3   OH215899   4.508   0.906   4.420 -0.1160  0.4539 -0.0981
 5298TIP3    H115900   4.452   0.864   4.485  2.1714 -2.5947  0.1291
 5298TIP3    H215901   4.485   0.864   4.337 -0.0753  1.2454 -0.5268
 5299TIP3   OH215902   1.748   4.040   5.203 -0.2634  0.0278 -0.6825
 5299TIP3    H115903   1.770   4.075   5.116  1.2293  1.1537  0.1068
 5299TIP3    H215904   1.747   3.945   5.191  2.0967  0.0398 -1.4898
 5300TIP3   OH215905   4.401   2.816   2.276 -0.1857  0.4619 -0.1416
 5300TIP3    H115906   4.471   2.797   2.338 -0.6010 -0.0098  0.1849
 5300TIP3    H215907   4.374   2.730   2.243 -0.3132  0.6723 -0.5989
 5301TIP3   OH215908   2.030   5.924   4.559 -0.2452 -0.1608  0.1740
 5301TIP3    H115909   1.961   5.861   4.576 -0.4206 -0.1363 -0.4176
 5301TIP3    H215910   2.063   5.901   4.472  0.6391 -0.3060  0.5331
 5302TIP3   OH215911   2.509   2.560   2.310  0.0447  0.1913  0.4149
 5302TIP3    H115912   2.416   2.540   2.297 -0.0039  0.9181 -0.3604
 5302TIP3    H215913   2.529   2.522   2.396 -0.9653  0.0235  0.5886
 5303TIP3   OH215914   0.041   1.740   2.943  0.0908  0.5301  0.8487
 5303TIP3    H115915   0.022   1.782   3.027  0.2615 -1.5923  2.0151
 5303TIP3    H215916   0.034   1.646   2.961  0.0033  0.0098 -1.5546
 5304TIP3   OH215917   2.922   0.188   0.410  0.4309  0.0226  0.2675
 5304TIP3    H115918   2.874   0.105   0.406  1.6293 -0.7611  1.1899
 5304TIP3    H215919   2.897   0.226   0.495 -0.6054  0.9390 -0.4310
 5305TIP3   OH215920   5.506   4.651   1.247 -0.5223  0.0592  0.3963
 5305TIP3    H115921   5.580   4.598   1.218 -0.1185  0.0179  1.4406
 5305TIP3    H215922   5.455   4.667   1.168  1.3239  1.2648 -0.6012
 5306TIP3   OH215923   1.520   3.408   3.333 -0.0950 -0.3158  0.1403
 5306TIP3    H115924   1.526   3.480   3.397  1.1364 -0.1317 -0.1480
 5306TIP3    H215925   1.544   3.330   3.383  1.6289 -0.0635 -0.2394
 5307TIP3   OH215926   4.185   1.056   1.609 -0.7106 -0.7442  0.7332
 5307TIP3    H115927   4.137   1.009   1.677 -3.9088 -1.2684 -1.6431
 5307TIP3    H215928   4.188   0.996   1.535 -0.2982  0.9159 -0.6821
 5308TIP3   OH215929   3.605   0.371   3.116 -0.3516 -0.8252  0.0744
 5308TIP3    H115930   3.698   0.362   3.096 -0.4154  0.5112 -0.9783
 5308TIP3    H215931   3.584   0.462   3.092 -2.1036 -1.3447 -0.5248
 5309TIP3   OH215932   4.341   1.518   1.984  0.2069 -0.3014 -0.2167
 5309TIP3    H115933   4.289   1.542   1.907 -2.4702 -2.6572  0.6656
 5309TIP3    H215934   4.422   1.482   1.947 -0.1501  0.4262 -1.8261
 5310TIP3   OH215935   0.891   0.534   0.769  0.3428 -0.3252  0.2029
 5310TIP3    H115936   0.874   0.498   0.682  0.5617  1.0147 -0.4298
 5310TIP3    H215937   0.843   0.478   0.829  0.7588 -1.7071 -0.7051
 5311TIP3   OH215938   3.042   0.092   0.156 -0.0019 -0.1391 -0.2365
 5311TIP3    H115939   2.957   0.054   0.134 -0.0295 -0.1533 -0.1087
 5311TIP3    H215940   3.023   0.152   0.228  0.1327 -0.3245 -0.0445
 5312TIP3   OH215941   0.792   2.596   2.054 -0.0513 -0.4205  0.0214
 5312TIP3    H115942   0.750   2.581   1.969  0.1663  0.8474 -0.3283
 5312TIP3    H215943   0.830   2.684   2.047  0.0876 -0.3498  1.3807
 5313TIP3   OH215944   3.902   4.955   4.681 -0.0807  0.1617  0.2649
 5313TIP3    H115945   3.977   5.006   4.711 -1.1905  1.9805  0.0757
 5313TIP3    H215946   3.843   4.951   4.756 -0.1930 -0.5164  0.1491
 5314TIP3   OH215947   5.266   4.360   3.561 -0.4239 -0.5506 -0.1143
 5314TIP3    H115948   5.292   4.291   3.623  1.6607  0.2306 -0.0445
 5314TIP3    H215949   5.303   4.332   3.478  0.0245  0.2333 -0.1853
 5315TIP3   OH215950   5.413   5.082   2.760  0.1018  0.3663 -0.0964
 5315TIP3    H115951   5.367   5.033   2.828  0.9478  0.2638  0.4089
 5315TIP3    H215952   5.346   5.141   2.723 -0.6940 -0.5249 -0.1020
 5316TIP3   OH215953   1.991   0.978   4.138 -0.9803 -0.3300  0.5975
 5316TIP3    H115954   1.938   1.052   4.168 -1.6678 -0.1127 -1.0747
 5316TIP3    H215955   2.065   1.019   4.092 -0.6087 -0.6759  0.8824
 5317TIP3   OH215956   0.320   2.782   0.836  0.2293 -0.0854 -0.0828
 5317TIP3    H115957   0.403   2.734   0.834  0.3331  0.1008 -0.4183
 5317TIP3    H215958   0.269   2.738   0.904  0.6503 -0.1194  0.2220
 5318TIP3   OH215959   2.544   1.197   1.539  0.3640 -0.4087 -0.3621
 5318TIP3    H115960   2.544   1.282   1.584 -2.0127 -0.9042  0.6981
 5318TIP3    H215961   2.510   1.217   1.452 -0.4295 -0.2919 -0.0334
 5319TIP3   OH215962   5.313   0.552   3.226 -0.2783 -0.3200  0.1883
 5319TIP3    H115963   5.235   0.511   3.264 -2.9045  3.7262 -0.1307
 5319TIP3    H215964   5.368   0.574   3.301  0.0360 -2.1314  0.5300
 5320TIP3   OH215965   1.656   2.762   4.979  0.6075 -0.0509  0.3213
 5320TIP3    H115966   1.690   2.775   5.067 -0.0884  0.6742  0.4984
 5320TIP3    H215967   1.691   2.836   4.929 -3.0008  2.4885  1.2148
 5321TIP3   OH215968   3.293   2.131   2.434  0.2914 -0.1737  0.3688
 5321TIP3    H115969   3.240   2.211   2.425 -0.5532 -0.2657  3.2942
 5321TIP3    H215970   3.377   2.153   2.393 -0.1734  1.9714  0.4378
 5322TIP3   OH215971   5.298   0.674   2.177  0.4700 -0.2520  0.4337
 5322TIP3    H115972   5.329   0.676   2.087 -1.7928  0.2837 -0.3962
 5322TIP3    H215973   5.335   0.753   2.217  1.0563 -0.2199 -0.1620
 5323TIP3   OH215974   2.302   5.724   5.085  0.1006  0.5118  0.0041
 5323TIP3    H115975   2.338   5.744   4.998  0.2333 -0.0322 -0.0699
 5323TIP3    H215976   2.324   5.800   5.138  0.9602  0.3834 -0.1636
 5324TIP3   OH215977   4.194   2.073   1.115 -0.2228 -0.0799  0.0752
 5324TIP3    H115978   4.180   2.006   1.047  0.3119  1.1233 -1.2755
 5324TIP3    H215979   4.286   2.099   1.104 -0.7785  1.8479 -0.3865
 5325TIP3   OH215980   3.740   0.152   2.681  0.4325 -0.4135  0.2178
 5325TIP3    H115981   3.812   0.109   2.727  0.2357 -0.9689  0.0134
 5325TIP3    H215982   3.688   0.192   2.750  1.9115  1.5922  0.2878
 5326TIP3   OH215983   2.993   3.724   2.490  0.2449  0.3637  0.0030
 5326TIP3    H115984   2.920   3.706   2.549 -1.6653  3.4352 -1.1560
 5326TIP3    H215985   3.069   3.736   2.548 -0.3924 -1.6234  1.3379
 5327TIP3   OH215986   6.067   5.095   1.195  0.5347 -0.3382 -0.0267
 5327TIP3    H115987   6.055   5.074   1.288 -0.5958 -1.5329 -0.4202
 5327TIP3    H215988   6.130   5.167   1.195  1.7489 -1.3308  1.5890
 5328TIP3   OH215989   5.488   3.435   0.580  0.6203  0.2618 -0.2697
 5328TIP3    H115990   5.550   3.397   0.517  0.1984 -0.0029 -0.5277
 5328TIP3    H215991   5.521   3.523   0.596  1.9185 -0.3645  0.7336
 5329TIP3   OH215992   0.826   0.203   2.374 -0.1412 -0.1417 -0.5392
 5329TIP3    H115993   0.859   0.188   2.463 -1.1324 -0.6421 -0.2479
 5329TIP3    H215994   0.898   0.175   2.317 -0.1647 -1.5344  0.0801
 5330TIP3   OH215995   2.518   4.645   3.003  0.2732  0.0822  0.1060
 5330TIP3    H115996   2.528   4.709   3.074  2.0056 -0.5463  0.4796
 5330TIP3    H215997   2.455   4.685   2.943  0.3850  1.5822  0.9486
 5331TIP3   OH215998   0.732   4.803   3.705 -0.2886 -0.4081 -0.2517
 5331TIP3    H115999   0.685   4.795   3.622  1.0311 -2.4653 -0.8679
 5331TIP3    H216000   0.721   4.719   3.748 -0.5372  0.4607  1.4866
 5332TIP3   OH216001   5.507   1.246   0.643 -0.4886 -0.1631  0.2551
 5332TIP3    H116002   5.539   1.222   0.730 -1.3066  0.3628  0.7171
 5332TIP3    H216003   5.585   1.271   0.594 -0.1812  1.1822  1.3799
 5333TIP3   OH216004   3.981   4.436   3.652  0.1470 -0.2422 -0.4158
 5333TIP3    H116005   3.988   4.363   3.590  2.4040  0.7922 -1.5127
 5333TIP3    H216006   3.970   4.514   3.598 -0.7050  0.4235  0.6583
 5334TIP3   OH216007   4.890   0.291   2.190  0.1642 -0.4436 -0.4681
 5334TIP3    H116008   4.927   0.299   2.278 -0.1325 -0.7008 -0.3155
 5334TIP3    H216009   4.895   0.379   2.153  0.9186 -0.4719 -0.4530
 5335TIP3   OH216010   4.046   5.386   3.042  0.1400  0.7261 -0.7457
 5335TIP3    H116011   3.983   5.362   2.974  1.1604 -0.0768 -1.4190
 5335TIP3    H216012   4.057   5.306   3.094  0.0797  1.0697 -0.1907
 5336TIP3   OH216013   0.271   2.413   4.313  0.3268  0.2946  0.2569
 5336TIP3    H116014   0.261   2.499   4.272 -1.5951  0.3476  0.7473
 5336TIP3    H216015   0.294   2.432   4.404  0.8161  0.2567  0.1446
 5337TIP3   OH216016   1.604   5.044   2.208 -0.3722  0.7952 -0.3465
 5337TIP3    H116017   1.636   5.122   2.161  2.1155 -0.2040 -0.4669
 5337TIP3    H216018   1.661   5.038   2.284  0.3682 -1.5907 -1.0174
 5338TIP3   OH216019   4.489   2.311   4.214 -0.2716  0.1791  0.3169
 5338TIP3    H116020   4.469   2.388   4.267 -1.0149 -0.5360  1.1260
 5338TIP3    H216021   4.496   2.343   4.125  0.5043  1.3452  0.7789
 5339TIP3   OH216022   5.539   0.310   2.020 -0.2177  0.1487  0.2974
 5339TIP3    H116023   5.475   0.359   2.072 -0.9346 -0.3194 -0.1415
 5339TIP3    H216024   5.489   0.273   1.948  0.5906 -0.0412 -0.1828
 5340TIP3   OH216025   3.539   2.552   3.804 -0.0971 -0.2054  0.0325
 5340TIP3    H116026   3.595   2.508   3.867  0.8779  2.9103  1.5562
 5340TIP3    H216027   3.599   2.582   3.736 -0.2206  1.1857  0.5067
 5341TIP3   OH216028   1.469   1.561   0.796  0.7235 -0.1024  0.3105
 5341TIP3    H116029   1.431   1.549   0.709  2.0360  1.3352 -0.5200
 5341TIP3    H216030   1.540   1.497   0.801 -1.0071 -2.0269  1.4270
 5342TIP3   OH216031   4.372   3.501   1.374  0.7808 -0.6652 -0.0659
 5342TIP3    H116032   4.341   3.587   1.347 -0.2988 -1.1566 -0.4318
 5342TIP3    H216033   4.433   3.518   1.446  0.5393  0.3896 -0.1082
 5343TIP3   OH216034   5.383   1.988   3.654 -0.1141  0.3319 -0.1227
 5343TIP3    H116035   5.424   1.904   3.633 -1.5592 -0.4904  0.2376
 5343TIP3    H216036   5.448   2.032   3.710  0.0366 -1.2096  0.9882
 5344TIP3   OH216037   2.445   3.725   4.301 -0.1612  0.0099  0.3544
 5344TIP3    H116038   2.444   3.750   4.209  0.6910  1.0952  0.6244
 5344TIP3    H216039   2.403   3.797   4.347 -1.3986 -0.9227  0.7528
 5345TIP3   OH216040   2.352   3.359   3.824  0.1920  0.2748  0.1394
 5345TIP3    H116041   2.323   3.433   3.878 -1.7695  0.2397 -0.7831
 5345TIP3    H216042   2.289   3.289   3.845 -0.2285  0.0665 -1.7139
 5346TIP3   OH216043   3.305   5.355   0.100 -0.1677 -0.0478  0.3556
 5346TIP3    H116044   3.235   5.398   0.149  0.7205  1.6732  0.1664
 5346TIP3    H216045   3.270   5.346   0.011 -0.6975 -0.6128  0.6030
 5347TIP3   OH216046   0.990   1.407   2.436 -0.4853 -0.1544 -0.0254
 5347TIP3    H116047   0.995   1.502   2.424  0.1304 -0.3257 -1.1699
 5347TIP3    H216048   1.060   1.388   2.498  0.1048  0.0111 -0.6277
 5348TIP3   OH216049   5.531   1.305   2.798 -0.5378  0.6211  0.1102
 5348TIP3    H116050   5.471   1.348   2.737 -1.4424 -0.7086  0.0310
 5348TIP3    H216051   5.545   1.218   2.761  2.9430  1.4292 -0.8830
 5349TIP3   OH216052   0.342   0.459   0.657  0.1407 -0.0244 -0.5938
 5349TIP3    H116053   0.311   0.372   0.631  0.7080 -0.6722  0.7845
 5349TIP3    H216054   0.422   0.442   0.707 -1.9541  0.8229  3.4951
 5350TIP3   OH216055   0.827   4.794   0.502 -0.5012 -0.2310  0.7075
 5350TIP3    H116056   0.766   4.856   0.462 -1.4521 -0.6986  1.3917
 5350TIP3    H216057   0.839   4.826   0.592  2.4636  1.4353 -0.1316
 5351TIP3   OH216058   2.509   3.985   0.004  0.1737  0.4740  0.2253
 5351TIP3    H116059   2.490   3.899   0.042  0.1585  0.7152  0.7684
 5351TIP3    H216060   2.425   4.031   0.005  0.0331  0.2569 -0.7010
 5352TIP3   OH216061   5.233   2.824   2.725  0.2763  0.3944  0.4164
 5352TIP3    H116062   5.200   2.754   2.669  1.1033 -0.8084  1.3542
 5352TIP3    H216063   5.259   2.893   2.665  3.8407 -1.9558 -1.0742
 5353TIP3   OH216064   0.410   3.296   3.710 -0.6229 -0.2021  0.2018
 5353TIP3    H116065   0.340   3.361   3.708  1.0137  1.6743  0.5892
 5353TIP3    H216066   0.429   3.278   3.618  0.2291  1.4560  0.0079
 5354TIP3   OH216067   4.654   1.704   2.532  0.4803 -0.1569 -0.1747
 5354TIP3    H116068   4.612   1.790   2.529 -0.3413 -0.4498  1.7237
 5354TIP3    H216069   4.634   1.665   2.446  2.5929  2.2616 -1.8859
 5355TIP3   OH216070   4.370   2.443   2.062 -0.1004  0.5278 -0.4595
 5355TIP3    H116071   4.431   2.509   2.029 -1.8942  2.0294 -0.9312
 5355TIP3    H216072   4.411   2.411   2.142  1.6862  0.8716 -1.1939
 5356TIP3   OH216073   1.674   0.966   2.882 -0.7764 -0.0207 -0.4419
 5356TIP3    H116074   1.662   0.960   2.787  0.5804  1.6481 -0.7738
 5356TIP3    H216075   1.670   0.875   2.913 -1.4086 -0.5770 -2.0601
 5357TIP3   OH216076   2.667   1.557   2.634  0.1109  0.0103  0.3458
 5357TIP3    H116077   2.685   1.530   2.544 -0.2323  0.9558 -0.0140
 5357TIP3    H216078   2.749   1.540   2.681  0.1494 -0.9099 -0.0334
 5358TIP3   OH216079   4.512   2.177   3.569 -0.4055  0.1350  0.0993
 5358TIP3    H116080   4.533   2.123   3.494  0.2608  0.6280 -0.0785
 5358TIP3    H216081   4.593   2.225   3.588 -0.8077  0.6324  0.6117
 5359TIP3   OH216082   0.481   5.626   4.882 -0.3151 -0.1569 -0.5375
 5359TIP3    H116083   0.549   5.666   4.829  0.1404  1.4951  1.1896
 5359TIP3    H216084   0.525   5.603   4.964 -1.6323  0.2061  0.3094
 5360TIP3   OH216085   5.497   1.378   5.044  0.4188 -0.5565  0.4539
 5360TIP3    H116086   5.501   1.374   5.140  0.9527 -1.9849  0.3845
 5360TIP3    H216087   5.459   1.295   5.018 -0.1496  0.0049 -0.5760
 5361TIP3   OH216088   5.887   2.440   2.589  0.6608  0.6508  0.2229
 5361TIP3    H116089   5.798   2.406   2.594 -0.1111  2.3052 -1.3967
 5361TIP3    H216090   5.940   2.365   2.560 -0.3473 -0.0756  0.2141
 5362TIP3   OH216091   3.683   0.926   4.538  0.1666 -0.4975  0.0152
 5362TIP3    H116092   3.766   0.951   4.578  0.0625 -0.0991 -0.0133
 5362TIP3    H216093   3.694   0.949   4.445 -0.0456 -0.2520  0.0484
 5363TIP3   OH216094   6.221   3.392   3.781 -0.1500 -0.4084 -0.3036
 5363TIP3    H116095   6.134   3.391   3.741 -1.5769 -2.7485  2.4415
 5363TIP3    H216096   6.214   3.330   3.854  4.3334 -2.0668 -0.9543
 5364TIP3   OH216097   3.498   4.507   0.257 -0.3332  0.5552  0.2948
 5364TIP3    H116098   3.549   4.588   0.247  0.3429 -0.0927 -1.7720
 5364TIP3    H216099   3.461   4.490   0.171 -0.4149 -1.4049  0.6771
 5365TIP3   OH216100   5.263   4.914   2.908  0.2865 -0.1379  0.2193
 5365TIP3    H116101   5.261   4.859   2.986 -1.1445 -0.3637  0.0590
 5365TIP3    H216102   5.206   4.869   2.846  1.1784  0.1869 -0.8575
 5366TIP3   OH216103   3.265   2.345   2.840 -0.0731 -0.3752 -0.0740
 5366TIP3    H116104   3.184   2.305   2.808  0.4935 -0.9605 -0.8517
 5366TIP3    H216105   3.329   2.326   2.771  1.0738 -1.1662  1.1456
 5367TIP3   OH216106   6.263   1.947   4.403 -0.3778  0.2623 -0.3306
 5367TIP3    H116107   6.320   1.871   4.393  0.2298  0.8002 -1.1333
 5367TIP3    H216108   6.178   1.911   4.428  0.1043 -0.6142  0.0889
 5368TIP3   OH216109   4.364   0.050   1.844 -0.5185  0.1111 -0.0601
 5368TIP3    H116110   4.310   0.018   1.771 -0.2318  0.1860 -0.3086
 5368TIP3    H216111   4.401   0.132   1.812  0.9992 -0.7120 -0.5018
 5369TIP3   OH216112   1.329   0.066   4.704 -0.2411 -0.2565 -0.3200
 5369TIP3    H116113   1.333  -0.028   4.719  0.1828 -0.3835 -1.1539
 5369TIP3    H216114   1.305   0.075   4.612 -0.3601  0.4509 -0.2263
 5370TIP3   OH216115   4.369   2.378   0.708 -0.3946 -0.2036 -0.1772
 5370TIP3    H116116   4.296   2.440   0.708  0.5507  0.9736  0.9796
 5370TIP3    H216117   4.352   2.323   0.785  0.5551  0.9191  0.8925
 5371TIP3   OH216118   0.390   0.071   4.477 -0.0548 -0.4292 -0.4856
 5371TIP3    H116119   0.318   0.118   4.518  1.2987  1.4047 -0.0550
 5371TIP3    H216120   0.467   0.093   4.530  0.8586 -2.2824 -0.9371
 5372TIP3   OH216121   5.001   0.637   1.850 -0.7551 -0.5116  0.0806
 5372TIP3    H116122   4.919   0.670   1.814 -0.9168  0.0620  0.9416
 5372TIP3    H216123   5.044   0.715   1.887 -0.4554 -1.0235  0.8318
 5373TIP3   OH216124   1.068   1.483   4.686 -0.1370  0.2775 -0.0908
 5373TIP3    H116125   1.110   1.446   4.609 -0.0759  0.8510 -0.3374
 5373TIP3    H216126   1.034   1.408   4.734 -0.8286 -0.0329 -1.0586
 5374TIP3   OH216127   3.956   5.188   4.006  0.0192 -0.2791  0.5077
 5374TIP3    H116128   3.930   5.100   4.034 -1.2036 -0.1508 -0.1270
 5374TIP3    H216129   3.953   5.241   4.085  1.6911 -0.9811  1.0815
 5375TIP3   OH216130   5.974   3.304   2.311  0.0927 -0.4784  0.7944
 5375TIP3    H116131   6.025   3.303   2.230 -0.0399 -2.4208  0.6945
 5375TIP3    H216132   5.934   3.218   2.316 -0.8505  0.0006  2.3593
 5376TIP3   OH216133   5.565   3.975   4.465  0.7139  0.6643 -0.0270
 5376TIP3    H116134   5.643   4.023   4.493 -0.3812  3.1150 -0.8639
 5376TIP3    H216135   5.492   4.035   4.483 -0.6795 -0.3915 -1.7618
 5377TIP3   OH216136   4.567   0.732   3.372 -0.3837  0.4202  0.2588
 5377TIP3    H116137   4.539   0.666   3.308  0.6903 -0.4237  0.6159
 5377TIP3    H216138   4.499   0.799   3.369 -1.7996 -0.9530  0.2608
 5378TIP3   OH216139   5.712   5.008   1.230 -0.9873  0.2855  0.0084
 5378TIP3    H116140   5.726   5.055   1.312  0.6472  1.3010 -0.8025
 5378TIP3    H216141   5.734   4.917   1.251  1.5763  0.8879  0.2239
 5379TIP3   OH216142   4.770   1.910   3.882 -0.3025  1.0200  0.4087
 5379TIP3    H116143   4.719   1.952   3.952  0.4891  0.2438  1.4928
 5379TIP3    H216144   4.761   1.816   3.899 -2.3035  0.6680 -2.1644
 5380TIP3   OH216145   0.324   5.776   3.737 -0.2684  0.1527  0.2857
 5380TIP3    H116146   0.406   5.777   3.686 -0.0886  2.2582  0.5491
 5380TIP3    H216147   0.255   5.779   3.670 -0.0326  3.6879 -0.0033
 5381TIP3   OH216148   4.511   1.281   4.428 -0.2965 -0.3943 -0.0079
 5381TIP3    H116149   4.545   1.335   4.357 -0.5169  1.4245  1.1996
 5381TIP3    H216150   4.453   1.218   4.386  0.5544 -0.1982 -1.5413
 5382TIP3   OH216151   0.640   2.224   1.968 -0.0891 -0.4111  0.3308
 5382TIP3    H116152   0.586   2.212   2.046  0.8952 -0.2741  1.0458
 5382TIP3    H216153   0.730   2.216   1.999  0.3346  0.0455 -0.7219
 5383TIP3   OH216154   0.491   1.292   0.091 -0.5505  0.1195 -0.0007
 5383TIP3    H116155   0.519   1.294   0.183 -0.9583  1.8635  0.1192
 5383TIP3    H216156   0.527   1.372   0.053 -2.2069  0.5445 -0.7841
 5384TIP3   OH216157   2.540   1.619   0.939  0.6394  0.1918  0.0646
 5384TIP3    H116158   2.602   1.560   0.981 -0.6779 -0.0189  1.8224
 5384TIP3    H216159   2.562   1.706   0.973 -0.2528  0.0606  1.0126
 5385TIP3   OH216160   6.053   4.379   0.332  0.5362 -0.9774  0.9675
 5385TIP3    H116161   6.088   4.460   0.367 -0.8055  0.0025  0.1405
 5385TIP3    H216162   6.049   4.393   0.237 -0.0188 -1.8702  0.8447
 5386TIP3   OH216163   2.326   5.371   2.256 -0.3311  0.0452 -0.5011
 5386TIP3    H116164   2.309   5.424   2.178  0.7997  0.7417 -0.3001
 5386TIP3    H216165   2.242   5.369   2.303 -0.9787 -0.2453 -1.6355
 5387TIP3   OH216166   2.050   4.775   2.836 -0.3809  0.9385  0.3228
 5387TIP3    H116167   2.025   4.822   2.916  0.1869  0.1548  0.9699
 5387TIP3    H216168   2.040   4.683   2.859  3.9417  0.4257  0.9878
 5388TIP3   OH216169   0.430   0.277   1.934  0.2828 -0.3353 -0.0804
 5388TIP3    H116170   0.374   0.243   2.004 -0.7924  0.8719 -0.3223
 5388TIP3    H216171   0.517   0.281   1.974 -0.1244 -0.6218  0.8714
 5389TIP3   OH216172   5.477   2.495   3.164  0.3829 -0.3564  0.5037
 5389TIP3    H116173   5.455   2.428   3.228  0.5604 -1.4147 -0.5187
 5389TIP3    H216174   5.499   2.447   3.084 -0.0213  0.9263 -0.4281
 5390TIP3   OH216175   3.244   4.727   1.761 -0.4246 -0.2801  0.0491
 5390TIP3    H116176   3.226   4.790   1.691 -1.5117  1.2187  1.5934
 5390TIP3    H216177   3.158   4.710   1.801  0.0635 -1.6655  0.5856
 5391TIP3   OH216178   2.117   5.855   1.207  0.0457  0.4787 -0.3226
 5391TIP3    H116179   2.065   5.780   1.179 -0.4056  0.2850  0.9630
 5391TIP3    H216180   2.147   5.896   1.126 -0.8626 -0.2830 -1.0571
 5392TIP3   OH216181   5.833   5.577   3.327  0.6720  0.2111 -0.1767
 5392TIP3    H116182   5.790   5.662   3.333 -0.4341 -0.4140  1.1892
 5392TIP3    H216183   5.891   5.585   3.251 -1.2190  1.3674 -1.5766
 5393TIP3   OH216184   1.100   0.829   1.332 -0.1019  0.0069 -0.2548
 5393TIP3    H116185   1.106   0.743   1.373 -0.6503 -0.0608 -0.3025
 5393TIP3    H216186   1.018   0.866   1.366 -0.5078 -0.0052 -1.1793
 5394TIP3   OH216187   3.645   4.955   4.264 -0.1400  0.2644  0.1687
 5394TIP3    H116188   3.727   4.953   4.216 -0.1702 -0.5781  0.1359
 5394TIP3    H216189   3.646   4.876   4.318 -1.9443 -1.0350 -1.5478
 5395TIP3   OH216190   3.021   3.312   2.458  0.2557 -0.6885 -0.3890
 5395TIP3    H116191   3.106   3.354   2.448 -0.3103  0.3397 -1.1159
 5395TIP3    H216192   3.010   3.259   2.379  1.6193 -3.5569  1.1802
 5396TIP3   OH216193   3.171   3.852   4.535 -0.0700  0.1804  0.3392
 5396TIP3    H116194   3.175   3.789   4.463 -1.2827 -0.0484  0.4485
 5396TIP3    H216195   3.252   3.837   4.585 -0.5340 -1.6174  0.6130
 5397TIP3   OH216196   0.798   3.727   0.561  0.2300 -0.2090 -0.1656
 5397TIP3    H116197   0.869   3.696   0.618 -1.4872 -0.5825  1.8720
 5397TIP3    H216198   0.807   3.822   0.562  1.3355 -0.2818 -0.8386
 5398TIP3   OH216199   3.423   2.575   3.289  0.2054 -0.3140 -0.0986
 5398TIP3    H116200   3.412   2.650   3.348  2.2371  0.8805 -1.1568
 5398TIP3    H216201   3.371   2.597   3.212  3.3759  1.6954 -1.8319
 5399TIP3   OH216202   4.350   0.302   1.129 -0.0094 -0.1097 -0.0812
 5399TIP3    H116203   4.292   0.279   1.057 -0.1354 -0.6887  0.2012
 5399TIP3    H216204   4.376   0.219   1.167 -0.2853  0.2067  0.8165
 5400TIP3   OH216205   0.618   4.650   3.203 -0.2034 -0.5384 -0.5346
 5400TIP3    H116206   0.542   4.637   3.261  0.2478 -1.8381 -0.2102
 5400TIP3    H216207   0.648   4.738   3.223  0.6990 -1.3675  2.1634
 5401TIP3   OH216208   3.761   3.245   4.938  0.6589  0.2217  0.1604
 5401TIP3    H116209   3.704   3.320   4.954 -0.7428 -0.8313  0.3146
 5401TIP3    H216210   3.847   3.283   4.921 -0.6086  2.0872 -3.0778
 5402TIP3   OH216211   6.003   0.626   0.511  0.1425  0.1387 -0.2092
 5402TIP3    H116212   5.976   0.680   0.438 -1.4245 -0.4665 -0.1166
 5402TIP3    H216213   5.955   0.544   0.500  2.9028 -1.5550 -0.7170
 5403TIP3   OH216214   2.898   1.115   3.747 -0.2706 -0.8819  0.2828
 5403TIP3    H116215   2.833   1.184   3.737  1.1952  0.7426  1.5030
 5403TIP3    H216216   2.909   1.079   3.658 -2.6787 -1.1410  0.0210
 5404TIP3   OH216217   6.081   0.543   4.314  0.6229  0.0748  0.1203
 5404TIP3    H116218   6.172   0.516   4.304  0.6359  0.1098  0.1474
 5404TIP3    H216219   6.064   0.598   4.237 -0.0226 -1.7326 -1.1004
 5405TIP3   OH216220   2.541   3.785   2.083  0.7786  0.3723 -0.1686
 5405TIP3    H116221   2.490   3.706   2.103  1.0809  0.1692 -0.1975
 5405TIP3    H216222   2.610   3.786   2.149 -0.2742  1.5951  1.0038
 5406TIP3   OH216223   1.523   3.692   2.129  0.8584  0.1306  0.2559
 5406TIP3    H116224   1.457   3.646   2.181  1.1318 -0.2169  0.3001
 5406TIP3    H216225   1.597   3.703   2.188  1.1401 -0.1916 -0.0289
 5407TIP3   OH216226   3.272   5.863   2.469 -0.6343  0.5877  1.0561
 5407TIP3    H116227   3.358   5.836   2.504 -0.9156 -0.8604  0.6769
 5407TIP3    H216228   3.227   5.781   2.449 -2.0447  1.3313  1.0513
 5408TIP3   OH216229   2.811   5.528   3.876  0.0095 -0.6196 -0.2972
 5408TIP3    H116230   2.867   5.495   3.806 -2.2719 -0.9917 -2.0862
 5408TIP3    H216231   2.740   5.464   3.881 -0.2882 -0.1780  1.8784
 5409TIP3   OH216232   1.166   5.842   1.522  0.3417 -0.1950  0.1858
 5409TIP3    H116233   1.089   5.787   1.526  0.9537 -1.1241 -0.4411
 5409TIP3    H216234   1.140   5.924   1.565 -0.8596 -0.6252  0.2965
 5410TIP3   OH216235   3.403   5.288   2.806  0.0062  0.4071  0.2168
 5410TIP3    H116236   3.341   5.215   2.801  0.0287  0.4276 -0.4337
 5410TIP3    H216237   3.464   5.262   2.876 -0.0758 -0.1278  0.0967
 5411TIP3   OH216238   1.085   1.947   2.573  0.3490  0.0549  0.2177
 5411TIP3    H116239   1.054   1.865   2.612 -1.7584  0.2576 -0.8526
 5411TIP3    H216240   1.161   1.921   2.520 -0.0746 -1.1695  0.1664
 5412TIP3   OH216241   1.658   5.453   4.993 -0.0300  0.0621  0.3352
 5412TIP3    H116242   1.697   5.483   4.911  1.8563 -2.2720  0.2801
 5412TIP3    H216243   1.609   5.374   4.969 -0.6400  0.1459  1.2386
 5413TIP3   OH216244   4.980   3.756   3.291 -0.1222 -0.1021  0.7379
 5413TIP3    H116245   4.914   3.820   3.264  0.4549  0.0715 -0.3631
 5413TIP3    H216246   5.027   3.799   3.362 -0.4897  0.2235  0.7860
 5414TIP3   OH216247   4.689   3.820   0.269  0.0291  0.4910 -0.5563
 5414TIP3    H116248   4.599   3.816   0.236 -0.1148 -1.6793 -0.0174
 5414TIP3    H216249   4.682   3.801   0.362  1.1336 -0.9827 -0.7365
 5415TIP3   OH216250   1.662   3.434   2.383  0.2297 -0.4829  0.2550
 5415TIP3    H116251   1.696   3.524   2.373 -0.3081 -0.2653  0.3422
 5415TIP3    H216252   1.682   3.392   2.300  2.1925 -0.8772  0.8807
 5416TIP3   OH216253   5.170   4.085   3.588  0.6602 -0.1015  0.1197
 5416TIP3    H116254   5.094   4.140   3.572  0.4384 -0.2072  0.8143
 5416TIP3    H216255   5.204   4.114   3.673  0.8291 -0.7048  0.2631
 5417TIP3   OH216256   0.458   2.997   4.073 -0.3806  0.0872  0.2473
 5417TIP3    H116257   0.523   3.063   4.101  0.0374 -0.7780  1.3779
 5417TIP3    H216258   0.511   2.926   4.036 -0.7122 -0.4151  0.7352
 5418TIP3   OH216259   0.599   4.512   0.631  0.1001  0.2178 -0.3567
 5418TIP3    H116260   0.644   4.511   0.547  0.3262  0.4257 -0.2390
 5418TIP3    H216261   0.508   4.534   0.610 -0.0638 -0.6776 -0.6465
 5419TIP3   OH216262   3.703   1.345   3.565 -0.3019 -0.4303  0.6554
 5419TIP3    H116263   3.794   1.316   3.568 -0.3585 -0.6134  0.6252
 5419TIP3    H216264   3.658   1.278   3.513 -0.3727 -0.1137  0.3130
 5420TIP3   OH216265   5.297   3.579   1.323 -0.7085  0.3752  0.1464
 5420TIP3    H116266   5.284   3.599   1.415 -1.3987 -0.1502  0.1668
 5420TIP3    H216267   5.363   3.642   1.294 -0.5186  0.5664  0.9849
 5421TIP3   OH216268   6.320   2.862   3.500  0.2913  0.3940 -0.0445
 5421TIP3    H116269   6.263   2.825   3.432 -1.5210  0.6085  1.2841
 5421TIP3    H216270   6.356   2.786   3.545  2.2388  0.2234 -1.7286
 5422TIP3   OH216271   3.898   1.157   1.412  0.0199  0.5483 -0.4372
 5422TIP3    H116272   3.928   1.141   1.322 -0.0107  1.5877 -0.6480
 5422TIP3    H216273   3.843   1.235   1.405  1.1006  1.4468  0.6974
 5423TIP3   OH216274   5.996   5.699   4.029  0.1922  0.0018  0.6290
 5423TIP3    H116275   6.040   5.619   4.057 -1.0285 -0.3688  1.5991
 5423TIP3    H216276   5.985   5.750   4.110 -0.9637  0.1502  0.4002
 5424TIP3   OH216277   1.202   3.707   2.373  0.2426 -0.3787  0.3723
 5424TIP3    H116278   1.236   3.656   2.299  0.3069  0.3107 -0.0787
 5424TIP3    H216279   1.280   3.731   2.423  0.2787 -0.1796  0.2254
 5425TIP3   OH216280   2.851   5.560   4.404  0.7053  0.1844 -0.0332
 5425TIP3    H116281   2.906   5.484   4.426  0.8285  0.6738  1.4897
 5425TIP3    H216282   2.906   5.613   4.346  0.2767 -1.2962 -1.9023
 5426TIP3   OH216283   0.056   1.253   0.778 -0.0517 -0.0001 -0.0220
 5426TIP3    H116284   0.070   1.331   0.725  2.2312  0.4479  1.1266
 5426TIP3    H216285  -0.008   1.279   0.844 -1.8423 -0.1530 -1.6224
 5427TIP3   OH216286   1.090   3.093   3.391 -0.5278  0.6925  0.3955
 5427TIP3    H116287   1.004   3.054   3.377 -0.3594  0.9862 -1.8380
 5427TIP3    H216288   1.105   3.146   3.312  2.1930 -0.3270  0.1268
 5428TIP3   OH216289   0.751   3.562   4.836  0.2717 -0.4634  0.2330
 5428TIP3    H116290   0.764   3.646   4.880  0.0862 -1.5525  2.5004
 5428TIP3    H216291   0.835   3.543   4.795  0.1300  1.0927 -0.8519
 5429TIP3   OH216292   4.704   1.293   2.363 -0.2592 -0.1138  0.8702
 5429TIP3    H116293   4.656   1.281   2.445 -0.7275 -1.5843  0.4101
 5429TIP3    H216294   4.794   1.311   2.391 -0.6305  0.4956  1.7144
 5430TIP3   OH216295   2.300   5.770   4.807  0.2222  0.1691 -0.1705
 5430TIP3    H116296   2.380   5.775   4.755  1.2956 -0.2094  1.3826
 5430TIP3    H216297   2.270   5.680   4.796  1.8656 -0.6915  1.8124
 5431TIP3   OH216298   5.697   2.055   3.734  0.5071  0.2675  0.3695
 5431TIP3    H116299   5.783   2.078   3.770  0.4341  1.3386 -0.0993
 5431TIP3    H216300   5.713   2.040   3.641  0.2151  0.3242  0.3083
 5432TIP3   OH216301   3.416   4.763   0.768 -0.3846 -0.0960 -0.1242
 5432TIP3    H116302   3.508   4.737   0.768 -0.6114 -0.9164  0.7251
 5432TIP3    H216303   3.376   4.709   0.700 -0.1946  0.4592 -0.6869
 5433TIP3   OH216304   3.115   4.848   2.978  0.3137 -0.0764 -0.1357
 5433TIP3    H116305   3.032   4.838   2.932 -1.2319 -0.0844  2.4598
 5433TIP3    H216306   3.136   4.760   3.010  0.1004  0.3041  1.1159
 5434TIP3   OH216307   3.159   2.948   4.782  0.7681 -0.0788  0.4384
 5434TIP3    H116308   3.110   3.025   4.812  0.8515 -0.0674  0.5435
 5434TIP3    H216309   3.097   2.902   4.725  0.5295 -0.2203  0.8074
 5435TIP3   OH216310   4.462   0.050   3.334 -0.1256  0.0335  0.1079
 5435TIP3    H116311   4.556   0.066   3.333  0.3191 -2.2480 -1.0798
 5435TIP3    H216312   4.444   0.017   3.422  0.3444 -0.3523  0.0586
 5436TIP3   OH216313   1.244   0.562   4.425 -0.1461 -0.2570 -0.2517
 5436TIP3    H116314   1.175   0.549   4.361 -0.0852  1.4731 -0.7245
 5436TIP3    H216315   1.309   0.616   4.380  0.0989  0.6451  1.1192
 5437TIP3   OH216316   0.803   4.015   0.573  0.3511 -0.0257 -0.4507
 5437TIP3    H116317   0.741   4.078   0.608  2.3232  2.1289 -0.5865
 5437TIP3    H216318   0.860   3.994   0.647 -0.8822 -2.5694 -0.1173
 5438TIP3   OH216319   5.706   3.313   0.442 -0.5551 -0.2994  0.2332
 5438TIP3    H116320   5.754   3.320   0.360 -1.8811  0.8475 -0.4971
 5438TIP3    H216321   5.770   3.332   0.510  0.5065 -1.0137 -0.5431
 5439TIP3   OH216322   2.072   3.279   3.279 -0.3908  0.4139  0.1048
 5439TIP3    H116323   2.123   3.200   3.259 -1.4898 -0.0701 -0.8644
 5439TIP3    H216324   2.121   3.321   3.349 -0.6146 -1.9473  1.7868
 5440TIP3   OH216325   1.018   3.226   4.180  0.1187 -0.0671 -0.7990
 5440TIP3    H116326   1.092   3.276   4.148  1.4384 -1.0327  0.5890
 5440TIP3    H216327   1.057   3.159   4.237 -1.8314 -0.3577  0.2937
 5441TIP3   OH216328   4.345   0.056  -0.003  0.3965  0.1667  0.1279
 5441TIP3    H116329   4.350   0.117   0.071 -1.2751  1.7799 -0.9972
 5441TIP3    H216330   4.271   0.088  -0.055 -1.1994 -3.3980 -0.0717
 5442TIP3   OH216331   4.570   3.112   2.885 -0.5394 -0.3055  0.1759
 5442TIP3    H116332   4.556   3.108   2.790 -1.7925 -1.6818  0.3677
 5442TIP3    H216333   4.513   3.043   2.920  0.2364 -0.1252  1.8978
 5443TIP3   OH216334   0.321   0.908   1.551 -0.2574  0.8686 -0.4817
 5443TIP3    H116335   0.379   0.976   1.516  0.1548  0.6927 -0.1527
 5443TIP3    H216336   0.377   0.831   1.560 -1.2455 -0.2683 -3.1167
 5444TIP3   OH216337   1.880   4.863   3.294  0.1055  0.2767 -0.1525
 5444TIP3    H116338   1.790   4.839   3.274  0.0009  0.3596  0.2246
 5444TIP3    H216339   1.919   4.883   3.208 -0.8617  2.4486 -0.1556
 5445TIP3   OH216340   0.654   1.887   4.265  0.4602  0.3554 -0.0030
 5445TIP3    H116341   0.674   1.959   4.325 -0.3907  0.7676 -0.1821
 5445TIP3    H216342   0.680   1.920   4.179  0.2943  0.3590 -0.0528
 5446TIP3   OH216343   1.122   1.909   4.063  0.3424 -0.4267 -0.4848
 5446TIP3    H116344   1.071   1.877   3.988 -0.6734  0.1256 -0.0605
 5446TIP3    H216345   1.056   1.946   4.122  1.3296  1.1596 -0.3303
 5447TIP3   OH216346   0.594   1.506   0.509 -0.2905 -0.2255 -0.7063
 5447TIP3    H116347   0.576   1.436   0.447 -1.1454  0.8794 -1.7365
 5447TIP3    H216348   0.516   1.560   0.508  0.9126  1.6011 -1.1069
 5448TIP3   OH216349   2.802   3.458   3.319  0.2700 -0.2345  0.2033
 5448TIP3    H116350   2.818   3.387   3.257  0.4325  0.2305 -0.2944
 5448TIP3    H216351   2.831   3.537   3.273 -0.3083  0.2062  0.5839
 5449TIP3   OH216352   0.850   1.006   3.301  0.0049 -0.4216 -0.6562
 5449TIP3    H116353   0.922   1.068   3.286 -0.3713 -0.0136 -0.7834
 5449TIP3    H216354   0.871   0.965   3.385  0.6722 -0.7031 -0.9551
 5450TIP3   OH216355   0.249   0.814   3.383  0.5045 -0.2519  0.0787
 5450TIP3    H116356   0.235   0.735   3.330  0.0328  0.1054 -0.3405
 5450TIP3    H216357   0.310   0.867   3.332 -0.2266  0.2524 -0.2800
 5451TIP3   OH216358   1.958   4.757   4.578 -0.5537  0.0915 -0.4958
 5451TIP3    H116359   1.982   4.781   4.668  2.5019 -3.1143 -0.2037
 5451TIP3    H216360   2.002   4.822   4.523  0.8599 -0.1136  0.3410
 5452TIP3   OH216361   1.714   3.446   1.696 -0.1262  0.0688  0.2167
 5452TIP3    H116362   1.804   3.476   1.699 -0.1055  0.1002 -0.4639
 5452TIP3    H216363   1.666   3.507   1.751  0.7437 -1.8339  3.3631
 5453TIP3   OH216364   4.058   5.652   1.325 -0.2104 -0.0290 -0.2371
 5453TIP3    H116365   4.109   5.588   1.275 -0.1327 -0.7127  0.6826
 5453TIP3    H216366   4.124   5.710   1.364 -0.2248  0.0254 -0.2934
 5454TIP3   OH216367   4.401   5.203   0.535  0.0610  0.1709 -0.1076
 5454TIP3    H116368   4.389   5.113   0.504  0.9679  0.7141 -2.2399
 5454TIP3    H216369   4.404   5.195   0.630 -0.8188 -1.9256 -0.1871
 5455TIP3   OH216370   2.225   4.406   3.614  0.5067 -0.9540  0.0628
 5455TIP3    H116371   2.241   4.464   3.689 -1.2750 -1.3370  0.7904
 5455TIP3    H216372   2.199   4.323   3.653 -2.1364 -0.6842 -0.8963
 5456TIP3   OH216373   2.282   1.539   0.145 -0.1821  0.5184  0.6306
 5456TIP3    H116374   2.277   1.521   0.051 -1.4339 -1.5865  1.0300
 5456TIP3    H216375   2.245   1.461   0.186  0.5196  1.3010  2.8983
 5457TIP3   OH216376   3.502   1.025   2.546  0.4152 -0.2490 -0.1879
 5457TIP3    H116377   3.414   1.000   2.515  0.4168  0.4678 -0.8041
 5457TIP3    H216378   3.503   0.997   2.637 -1.3535  1.8342  0.5686
 5458TIP3   OH216379   5.905   3.058   2.549  0.1088 -0.1834  0.0383
 5458TIP3    H116380   5.871   3.000   2.481 -0.2033  0.7476 -0.6264
 5458TIP3    H216381   5.840   3.128   2.556  0.0975 -0.2979  1.3618
 5459TIP3   OH216382   0.575   4.940   2.927  0.1024 -0.0478 -0.2762
 5459TIP3    H116383   0.618   4.855   2.916 -0.4879 -0.2074 -1.5496
 5459TIP3    H216384   0.482   4.919   2.932  0.1027  0.2570  2.8830
 5460TIP3   OH216385   4.834   1.517   3.253  0.4229 -0.2213  0.1961
 5460TIP3    H116386   4.753   1.535   3.204  0.9059 -0.0729 -0.5732
 5460TIP3    H216387   4.886   1.597   3.244  1.7689 -1.2035 -1.6094
 5461TIP3   OH216388   1.258   2.148   1.260  0.0618  0.1022 -0.1401
 5461TIP3    H116389   1.346   2.135   1.226  0.6736  1.1049  1.0058
 5461TIP3    H216390   1.271   2.191   1.344 -1.5368  0.4684 -0.0564
 5462TIP3   OH216391   3.753   5.568   0.193  0.2589  0.0195  0.0430
 5462TIP3    H116392   3.836   5.599   0.157  0.3357 -1.3873 -1.0858
 5462TIP3    H216393   3.779   5.508   0.264  0.2881 -1.3287 -1.0614
 5463TIP3   OH216394   4.650   3.582   5.079  0.6390  0.3878 -0.6356
 5463TIP3    H116395   4.717   3.646   5.056  0.9865 -0.3345 -1.7544
 5463TIP3    H216396   4.589   3.629   5.136  1.0544  1.6076 -1.1655
 5464TIP3   OH216397   2.816   4.890   0.263  0.7338 -0.2829 -0.3357
 5464TIP3    H116398   2.788   4.962   0.320  0.0458 -0.3260 -0.6130
 5464TIP3    H216399   2.842   4.933   0.182  0.7810 -0.3039 -0.3312
 5465TIP3   OH216400   2.643   0.891   0.278  0.5090 -0.5313 -0.3656
 5465TIP3    H116401   2.657   0.829   0.349  2.0302  0.5003  0.2912
 5465TIP3    H216402   2.552   0.919   0.288  0.0910 -1.8816 -0.0841
 5466TIP3   OH216403   3.067   4.832   4.993 -0.1228  0.1285 -0.0360
 5466TIP3    H116404   3.081   4.906   4.933 -0.6608  0.3173  0.0674
 5466TIP3    H216405   3.045   4.759   4.935  0.7416 -0.0441 -0.1643
 5467TIP3   OH216406   6.162   2.305   0.144 -0.0038  0.3658 -0.0738
 5467TIP3    H116407   6.204   2.386   0.174  0.5648 -0.0929  0.3970
 5467TIP3    H216408   6.141   2.322   0.052 -1.1315  1.5399  0.3758
 5468TIP3   OH216409   3.380   5.993   2.941 -0.4954  0.0898 -0.0238
 5468TIP3    H116410   3.340   5.907   2.940 -2.9673  1.0533  2.5251
 5468TIP3    H216411   3.342   6.038   2.865 -2.3904  0.1509  0.9061
 5469TIP3   OH216412   1.517   3.667   4.511  0.1419  0.2291  0.1746
 5469TIP3    H116413   1.510   3.701   4.422 -1.4299 -1.2032 -0.3141
 5469TIP3    H216414   1.600   3.619   4.511  0.7654  1.2640 -0.1063
 5470TIP3   OH216415   0.998   5.200   3.413  0.1897  0.0988 -0.6093
 5470TIP3    H116416   0.908   5.169   3.424 -0.1328  1.1274 -0.1522
 5470TIP3    H216417   0.998   5.246   3.329  0.1829  0.4429 -0.4219
 5471TIP3   OH216418   1.827   0.116   2.316 -0.1567  0.2800  0.0548
 5471TIP3    H116419   1.885   0.192   2.308 -0.1419  0.1489 -1.1338
 5471TIP3    H216420   1.804   0.114   2.409  0.0085  1.6219  0.1469
 5472TIP3   OH216421   1.762   1.839   3.815 -0.3484  0.6363  0.1290
 5472TIP3    H116422   1.809   1.766   3.853  0.8732  1.7719  0.8699
 5472TIP3    H216423   1.671   1.827   3.843 -0.2122 -0.7167  0.0200
 5473TIP3   OH216424   3.584   2.474   5.078 -0.0210  0.0007  0.1343
 5473TIP3    H116425   3.647   2.544   5.092  1.2632 -1.1302  0.2727
 5473TIP3    H216426   3.519   2.511   5.019  1.1853  0.9803 -0.6209
 5474TIP3   OH216427   2.187   3.744   1.742  0.4541  0.4840 -0.2000
 5474TIP3    H116428   2.270   3.775   1.778  0.4256  0.1271  0.1895
 5474TIP3    H216429   2.121   3.791   1.792  0.4149  0.0482  0.1676
 5475TIP3   OH216430   0.938   1.091   2.946 -0.2612 -0.2284  0.2823
 5475TIP3    H116431   0.968   1.140   2.869  0.7955  0.9493  1.3957
 5475TIP3    H216432   0.871   1.146   2.985 -0.4313 -0.5802  0.4876
 5476TIP3   OH216433   4.774   3.646   2.083  0.1563 -0.1213  0.1307
 5476TIP3    H116434   4.706   3.673   2.145 -1.0905 -1.1956 -0.6923
 5476TIP3    H216435   4.816   3.727   2.057 -0.5504  0.5412  0.9723
 5477TIP3   OH216436   1.546   1.382   4.541 -0.8662 -0.7003 -0.0842
 5477TIP3    H116437   1.523   1.466   4.501 -0.1858  0.0582  1.0518
 5477TIP3    H216438   1.463   1.335   4.547 -2.0651  1.4880  2.8113
 5478TIP3   OH216439   2.554   1.585   3.463 -0.0560  0.3890  0.4396
 5478TIP3    H116440   2.474   1.579   3.514 -1.5265 -0.4954 -1.8075
 5478TIP3    H216441   2.568   1.496   3.430  2.4250  0.2829  1.5125
 5479TIP3   OH216442   4.960   3.286   3.799 -0.3765  0.1344 -0.0680
 5479TIP3    H116443   4.868   3.302   3.779 -0.2793  0.0746 -0.5622
 5479TIP3    H216444   4.965   3.192   3.815 -0.6492  0.3244  1.2909
 5480TIP3   OH216445   3.751   3.766   2.700 -0.7899 -0.0264 -0.0209
 5480TIP3    H116446   3.836   3.768   2.743  0.4609  2.6170 -2.3000
 5480TIP3    H216447   3.752   3.685   2.648 -0.2305 -0.6300  0.9052
 5481TIP3   OH216448   2.801   0.482   0.439  0.3923 -0.2769 -0.2321
 5481TIP3    H116449   2.843   0.479   0.353  1.9611  0.8082  0.4546
 5481TIP3    H216450   2.709   0.461   0.421 -0.0458  2.9912 -2.6411
 5482TIP3   OH216451   4.946   3.052   0.144  0.0257  0.5331  0.3012
 5482TIP3    H116452   5.013   3.121   0.148 -0.6996  1.2893 -0.2023
 5482TIP3    H216453   4.866   3.095   0.174 -0.5346  0.0311 -0.4407
 5483TIP3   OH216454   5.429   4.048   0.441  1.1060  0.3064 -0.0336
 5483TIP3    H116455   5.387   3.973   0.400 -0.5161  0.3951  1.3609
 5483TIP3    H216456   5.482   4.087   0.371  0.8387 -1.2732 -1.1678
 5484TIP3   OH216457   0.597   0.374   1.380  0.7719 -0.0511  0.2307
 5484TIP3    H116458   0.609   0.282   1.358 -1.0559 -0.2401 -0.1867
 5484TIP3    H216459   0.521   0.375   1.438 -0.4046  1.3301 -1.2416
 5485TIP3   OH216460   4.367   1.096   2.414 -0.2548 -0.0871  0.4330
 5485TIP3    H116461   4.294   1.096   2.476 -1.3098 -2.1325 -0.7225
 5485TIP3    H216462   4.444   1.078   2.468 -0.6630  1.3693  1.5645
 5486TIP3   OH216463   2.537   2.544   5.050  0.1757 -0.0596 -0.1201
 5486TIP3    H116464   2.540   2.470   5.110  1.1831 -2.1888 -2.5773
 5486TIP3    H216465   2.556   2.505   4.964 -1.9527  2.6183 -1.9723
 5487TIP3   OH216466   6.006   2.569   0.063 -0.4975 -0.3760 -0.3591
 5487TIP3    H116467   6.055   2.623   0.002 -2.6930  2.3737  0.1091
 5487TIP3    H216468   5.944   2.521   0.008 -0.6017 -0.0327 -0.5448
 5488TIP3   OH216469   2.552   1.862   0.326 -0.2426  0.3785 -0.0434
 5488TIP3    H116470   2.470   1.865   0.275 -1.0746 -0.0548  1.2239
 5488TIP3    H216471   2.605   1.795   0.281 -0.2283  1.2281 -1.3518
 5489TIP3   OH216472   4.170   5.833   3.763  0.2026  0.2085  0.1913
 5489TIP3    H116473   4.159   5.739   3.782  1.2314  0.0162 -0.1033
 5489TIP3    H216474   4.111   5.848   3.689  1.5330 -0.7028 -1.1118
 5490TIP3   OH216475   1.231   5.148   3.897 -0.6034  0.1923  0.1711
 5490TIP3    H116476   1.279   5.114   3.972 -0.0467  1.2640  0.3114
 5490TIP3    H216477   1.209   5.070   3.845  0.2453 -0.4154  0.7079
 5491TIP3   OH216478   1.214   0.920   1.781  0.4147 -1.0315  0.0903
 5491TIP3    H116479   1.283   0.945   1.719  2.5914 -2.7685  1.6275
 5491TIP3    H216480   1.152   0.993   1.779  2.5058  0.8433 -1.0672
 5492TIP3   OH216481   1.408   5.506   0.980  0.2309 -0.2198 -0.3454
 5492TIP3    H116482   1.415   5.434   1.042 -1.5395 -1.4160 -1.4436
 5492TIP3    H216483   1.433   5.468   0.895  0.6289  0.8352 -0.7185
 5493TIP3   OH216484   2.361   4.420   2.716 -0.6052  0.6463  0.3571
 5493TIP3    H116485   2.440   4.456   2.757  0.3041  0.1309 -0.8750
 5493TIP3    H216486   2.316   4.373   2.786  0.9300 -0.2646  0.7649
 5494TIP3   OH216487   3.829   0.259   2.438 -0.0821 -0.0145  0.4751
 5494TIP3    H116488   3.922   0.236   2.432 -0.2501 -0.8203  0.8501
 5494TIP3    H216489   3.802   0.228   2.525 -0.5945  0.6120  0.5455
 5495TIP3   OH216490   5.941   3.890   2.011  0.6469  0.2307 -0.3061
 5495TIP3    H116491   5.887   3.816   1.984  2.2329 -0.6199 -1.3190
 5495TIP3    H216492   5.882   3.947   2.059 -0.6219 -1.7245  0.5684
 5496TIP3   OH216493   6.314   2.459   2.429 -0.1924  0.1472 -0.1013
 5496TIP3    H116494   6.270   2.391   2.378 -1.2083  1.4078 -0.9824
 5496TIP3    H216495   6.399   2.471   2.386 -0.1073 -0.3835 -0.0853
 5497TIP3   OH216496   6.275   4.025   0.169  0.0509  0.0553  0.2201
 5497TIP3    H116497   6.267   3.938   0.129 -1.1277  0.6044 -0.7982
 5497TIP3    H216498   6.328   4.075   0.107  0.1089  0.2763  0.4472
 5498TIP3   OH216499   5.607   3.541   4.792 -0.2897 -0.0108 -0.2020
 5498TIP3    H116500   5.635   3.461   4.747 -0.3861 -0.2159  0.1040
 5498TIP3    H216501   5.676   3.557   4.857 -1.5724 -1.3236  1.5547
 5499TIP3   OH216502   5.677   0.460   3.818  0.0635  0.4012  0.6239
 5499TIP3    H116503   5.741   0.513   3.865 -0.7095  1.3316  0.6462
 5499TIP3    H216504   5.610   0.522   3.790  0.2911 -0.1911 -1.3871
 5500TIP3   OH216505   4.629   0.215   4.414  0.1645  0.0187  0.3595
 5500TIP3    H116506   4.598   0.228   4.503  0.1765  1.2622  0.2121
 5500TIP3    H216507   4.706   0.272   4.407  0.7930 -0.8742 -0.1239
 5501TIP3   OH216508   0.873   5.682   1.228  0.4074 -0.0062  0.1781
 5501TIP3    H116509   0.892   5.627   1.304  0.7760  1.2730  1.0369
 5501TIP3    H216510   0.787   5.718   1.246  0.1735 -0.2820 -0.3777
 5502TIP3   OH216511   3.606   1.794   2.982  0.0942  0.0115  0.2474
 5502TIP3    H116512   3.546   1.719   2.988 -1.4396  1.2233  0.7238
 5502TIP3    H216513   3.625   1.802   2.888  1.0539 -1.5169  0.2783
 5503TIP3   OH216514   5.045   5.113   0.024 -0.2488 -0.6012 -0.3053
 5503TIP3    H116515   4.976   5.173   0.054 -0.1608 -0.3688 -0.5609
 5503TIP3    H216516   5.072   5.066   0.103 -1.8689 -1.8983 -0.4614
 5504TIP3   OH216517   2.898   1.626   3.479 -0.6692 -0.1052  0.1811
 5504TIP3    H116518   2.922   1.573   3.403 -1.6200 -0.1281 -0.1104
 5504TIP3    H216519   2.878   1.712   3.442 -2.1005 -0.3792  0.2556
 5505TIP3   OH216520   0.564   5.361   1.550  0.1212  0.2440  0.0235
 5505TIP3    H116521   0.580   5.343   1.458 -2.7347  0.7076 -0.6569
 5505TIP3    H216522   0.511   5.288   1.581  1.4484 -0.1618  1.4831
 5506TIP3   OH216523   0.950   0.696   2.003 -0.2505  1.0057  0.0752
 5506TIP3    H116524   0.866   0.654   1.983 -0.5607  1.7332 -0.1759
 5506TIP3    H216525   0.933   0.789   1.997  0.4471  1.1781  0.5890
 5507TIP3   OH216526   4.187   2.507   3.639  0.1087  0.5772  0.2216
 5507TIP3    H116527   4.275   2.526   3.669  0.7658  0.3075 -1.4029
 5507TIP3    H216528   4.192   2.416   3.609 -0.6254  0.6606 -0.1725
 5508TIP3   OH216529   2.589   0.683   1.714 -0.1124  0.4887  0.2418
 5508TIP3    H116530   2.509   0.687   1.767  0.8179  1.9733  1.6096
 5508TIP3    H216531   2.592   0.767   1.668 -0.2608 -0.2936 -1.2771
 5509TIP3   OH216532   1.483   2.113   0.018 -0.5047  0.5541 -0.6750
 5509TIP3    H116533   1.508   2.079  -0.068  0.9392  1.0354 -0.4793
 5509TIP3    H216534   1.485   2.037   0.076 -1.7230  0.1828 -1.0902
 5510TIP3   OH216535   3.168   2.056   0.366 -0.5375  0.4094 -0.3789
 5510TIP3    H116536   3.079   2.073   0.397  0.0960  2.3649  0.5104
 5510TIP3    H216537   3.174   2.103   0.283  0.0342  1.4371  0.2142
 5511TIP3   OH216538   3.846   3.226   4.599  0.5140 -0.4606  0.0821
 5511TIP3    H116539   3.784   3.160   4.628  0.0672 -0.3146 -0.5250
 5511TIP3    H216540   3.887   3.258   4.679  0.5110 -1.2521  0.4013
 5512TIP3   OH216541   3.950   0.694   3.425 -0.6914 -0.1360  0.2189
 5512TIP3    H116542   3.906   0.779   3.431  0.6307  0.7128 -1.3298
 5512TIP3    H216543   4.043   0.715   3.431 -0.3893 -1.6643  1.3501
 5513TIP3   OH216544   3.587   2.044   0.511  0.9454  0.1063  0.1438
 5513TIP3    H116545   3.555   1.961   0.546 -1.0865 -0.3665 -2.5279
 5513TIP3    H216546   3.640   2.019   0.436  2.1033  1.2040  0.5581
 5514TIP3   OH216547   0.989   2.792   3.576 -0.0214  0.3560 -0.2680
 5514TIP3    H116548   1.021   2.865   3.628  0.2027  0.2789 -0.2977
 5514TIP3    H216549   0.899   2.779   3.606  0.2528  0.0197  0.4364
 5515TIP3   OH216550   6.023   5.537   2.384  0.3233  0.1024  0.0107
 5515TIP3    H116551   6.027   5.553   2.479  1.5197  4.0533 -0.5271
 5515TIP3    H216552   5.933   5.559   2.360 -0.4095 -2.2682  0.2931
 5516TIP3   OH216553   3.519   3.385   3.216 -0.6966 -0.2476  0.0416
 5516TIP3    H116554   3.603   3.403   3.173 -0.4463 -0.4955  0.4275
 5516TIP3    H216555   3.542   3.361   3.305 -0.8876 -3.6452 -0.6844
 5517TIP3   OH216556   6.083   1.575   1.786 -0.2105 -0.5157  0.0016
 5517TIP3    H116557   6.021   1.508   1.814  0.2862 -1.2432 -0.6328
 5517TIP3    H216558   6.034   1.628   1.723 -0.5692 -0.3163  0.4333
 5518TIP3   OH216559   1.552   0.460   2.159  0.0567  0.1741 -0.4193
 5518TIP3    H116560   1.579   0.552   2.155 -1.6508  0.8540  1.6337
 5518TIP3    H216561   1.492   0.449   2.085  1.0702  0.3951 -1.2902
 5519TIP3   OH216562   5.991   4.858   3.177 -0.1837 -0.5983 -0.2363
 5519TIP3    H116563   5.935   4.835   3.251 -0.9597  0.5572 -0.4391
 5519TIP3    H216564   5.932   4.900   3.114  0.4839 -1.4243 -1.4662
 5520TIP3   OH216565   1.297   2.712   2.551 -0.3482  0.4428 -0.5971
 5520TIP3    H116566   1.388   2.731   2.576 -0.5479 -0.4480  0.9606
 5520TIP3    H216567   1.285   2.620   2.573 -2.3147  1.1091  1.6402
 5521TIP3   OH216568   3.731   1.350   3.893 -0.0684  0.0122  0.0170
 5521TIP3    H116569   3.728   1.395   3.808  0.4361  0.0563  0.0157
 5521TIP3    H216570   3.815   1.304   3.893 -0.6714 -1.1189 -0.0665
 5522TIP3   OH216571   2.259   3.839   4.824 -0.4122  1.0621  0.4484
 5522TIP3    H116572   2.297   3.772   4.767 -0.3070  0.4880  1.1807
 5522TIP3    H216573   2.298   3.823   4.910  0.1761  2.5357  0.4807
 5523TIP3   OH216574   5.125   5.249   1.978 -0.0018 -0.1644 -0.4380
 5523TIP3    H116575   5.207   5.221   1.937 -0.0821  0.0365 -0.7383
 5523TIP3    H216576   5.141   5.241   2.072 -0.0436 -1.2952 -0.5140
 5524TIP3   OH216577   3.545   1.239   0.223  0.1997  0.1532 -0.6643
 5524TIP3    H116578   3.500   1.309   0.176 -0.7842 -0.1671 -0.2400
 5524TIP3    H216579   3.600   1.197   0.157  0.9134  1.4034 -0.8869
 5525TIP3   OH216580   3.166   2.207   3.674  0.5570 -0.2181  0.3649
 5525TIP3    H116581   3.099   2.250   3.726 -1.1239 -0.8835 -1.1317
 5525TIP3    H216582   3.249   2.245   3.705 -0.6342  2.2917  0.7492
 5526TIP3   OH216583   5.924   0.318   4.002  0.0656  0.4839 -0.3729
 5526TIP3    H116584   5.893   0.405   4.029  0.0474  0.5084 -0.4707
 5526TIP3    H216585   5.848   0.261   4.014 -0.4106  0.7770 -1.7803
 5527TIP3   OH216586   0.531   5.334   3.944 -0.0162  0.5041 -0.0237
 5527TIP3    H116587   0.445   5.352   3.982  0.0202  1.7113 -0.4648
 5527TIP3    H216588   0.516   5.262   3.883 -1.2082  2.1343 -1.7628
 5528TIP3   OH216589   5.471   3.895   2.686  0.1763  0.3745 -0.0234
 5528TIP3    H116590   5.381   3.905   2.655  0.7458  2.6151 -1.1532
 5528TIP3    H216591   5.489   3.801   2.676 -2.5611 -0.4809  1.9409
 5529TIP3   OH216592   3.807   1.294   3.140 -0.0454  0.1288  0.0008
 5529TIP3    H116593   3.721   1.336   3.139 -0.9279 -1.5816  0.6293
 5529TIP3    H216594   3.818   1.261   3.051 -0.3514 -0.2398  0.0974
 5530TIP3   OH216595   1.400   4.898   0.229  0.1505 -0.0180 -0.0036
 5530TIP3    H116596   1.444   4.871   0.309 -1.1365 -2.5981 -0.0872
 5530TIP3    H216597   1.462   4.878   0.159  0.0075 -0.8430  0.1043
 5531TIP3   OH216598   0.791   3.688   4.400  0.2767  0.2101 -0.5252
 5531TIP3    H116599   0.807   3.732   4.483 -1.7873  2.0754 -1.0471
 5531TIP3    H216600   0.720   3.626   4.419 -0.3788  0.8248 -0.9264
 5532TIP3   OH216601   1.248   4.976   2.451  0.3763 -0.0658 -0.1264
 5532TIP3    H116602   1.242   4.952   2.358 -1.6600 -1.0060  0.2015
 5532TIP3    H216603   1.266   4.894   2.496 -1.9567 -0.2678  0.5659
 5533TIP3   OH216604   0.344   0.822   2.709 -0.2668  0.1209  0.2288
 5533TIP3    H116605   0.431   0.861   2.711 -0.1438 -0.1543  2.7893
 5533TIP3    H216606   0.326   0.808   2.616  2.1352  0.7637 -0.3856
 5534TIP3   OH216607   6.235   1.179   1.458 -0.4420  0.5074 -0.5486
 5534TIP3    H116608   6.234   1.246   1.526 -0.3822  1.9256 -1.8829
 5534TIP3    H216609   6.157   1.198   1.405 -1.6867 -1.8842  0.3030
 5535TIP3   OH216610   2.116   4.926   3.708 -0.0823 -0.0559 -0.0911
 5535TIP3    H116611   2.079   5.013   3.724  0.1743  0.2084 -0.8824
 5535TIP3    H216612   2.191   4.920   3.768  1.1992  1.1234 -1.4988
 5536TIP3   OH216613   0.063   3.911   0.494  0.5622  0.1634 -0.1242
 5536TIP3    H116614   0.059   3.868   0.409 -3.1529  1.4528 -0.7817
 5536TIP3    H216615   0.047   3.841   0.557 -1.1992 -0.1760 -0.8835
 5537TIP3   OH216616   4.583   5.920   1.507 -0.0082 -0.2646 -0.5609
 5537TIP3    H116617   4.616   5.832   1.527 -0.4596 -0.0926  1.0894
 5537TIP3    H216618   4.566   5.959   1.592 -0.2442  1.2766 -1.2836
 5538TIP3   OH216619   3.498   0.440   2.775 -0.1346  0.2914  0.0905
 5538TIP3    H116620   3.446   0.494   2.835 -0.4574  0.8912 -0.7066
 5538TIP3    H216621   3.461   0.458   2.689  0.5934 -0.2380 -0.3459
 5539TIP3   OH216622   3.230   5.973   0.097  0.2159  0.0738  0.1993
 5539TIP3    H116623   3.197   5.903   0.041  0.9844  0.2416 -0.4834
 5539TIP3    H216624   3.325   5.958   0.101  0.2491  0.4336  0.9460
 5540TIP3   OH216625   4.027   2.321   0.297  0.2867 -0.2206  0.2421
 5540TIP3    H116626   4.005   2.383   0.365 -0.2988 -0.9256  0.7102
 5540TIP3    H216627   3.947   2.269   0.285  1.0325 -1.4539  0.4869
 5541TIP3   OH216628   0.243   5.703   4.442 -1.0563  0.4399 -0.0417
 5541TIP3    H116629   0.170   5.662   4.395 -1.7247  1.2646  0.2625
 5541TIP3    H216630   0.256   5.787   4.398 -1.7098  1.2387  1.2174
 5542TIP3   OH216631   4.111   3.416   2.620 -0.0976 -0.2759 -0.0789
 5542TIP3    H116632   4.111   3.333   2.573  1.0178 -0.7679  0.7302
 5542TIP3    H216633   4.097   3.392   2.712  0.1074  0.4407  0.1520
 5543TIP3   OH216634   5.797   1.706   1.220 -0.1406 -0.0363  0.2681
 5543TIP3    H116635   5.781   1.709   1.315  2.2649  0.7147  0.7287
 5543TIP3    H216636   5.774   1.617   1.195 -1.5044 -0.0404  1.4014
 5544TIP3   OH216637   2.036   0.984   2.288 -0.1463  0.1246  0.1538
 5544TIP3    H116638   2.036   0.921   2.361  1.4808  0.3269  0.3762
 5544TIP3    H216639   1.984   0.941   2.220  0.6740 -1.3832  0.4084
 5545TIP3   OH216640   5.460   3.774   3.014 -0.4744  0.0734 -0.0098
 5545TIP3    H116641   5.512   3.847   2.981  1.1432 -1.1239 -0.2374
 5545TIP3    H216642   5.391   3.763   2.949  0.0363  0.5712 -0.6549
 5546TIP3   OH216643   2.663   1.253   2.691  0.6147  0.1062 -0.2714
 5546TIP3    H116644   2.642   1.163   2.664 -2.3119  0.5391  0.2426
 5546TIP3    H216645   2.690   1.244   2.783  0.0716 -0.2513 -0.1389
 5547TIP3   OH216646   6.129   0.287   3.374  0.1735 -0.0831  0.0487
 5547TIP3    H116647   6.051   0.233   3.391 -0.5933  1.0569  0.2507
 5547TIP3    H216648   6.126   0.302   3.279 -0.9528  1.5122  0.2838
 5548TIP3   OH216649   3.793   4.715   4.864 -0.5906  0.7659  0.0945
 5548TIP3    H116650   3.754   4.802   4.875  1.2828  1.4007  2.6483
 5548TIP3    H216651   3.887   4.731   4.863 -0.0903 -1.3184  2.4959
 5549TIP3   OH216652   5.586   0.217   0.377  0.2061  0.1062  0.5000
 5549TIP3    H116653   5.572   0.205   0.283  0.5578  2.5945  0.0636
 5549TIP3    H216654   5.600   0.129   0.410  0.9360 -0.7729 -1.9264
 5550TIP3   OH216655   4.825   3.523   3.435 -0.0502  0.3751  0.4310
 5550TIP3    H116656   4.851   3.605   3.395  2.1421  0.8187  2.5226
 5550TIP3    H216657   4.780   3.549   3.515  0.1481 -0.4443  0.8227
 5551TIP3   OH216658   4.136   1.763   4.645  0.1429 -0.0892  0.1724
 5551TIP3    H116659   4.138   1.711   4.565  0.6516 -0.1315  0.2114
 5551TIP3    H216660   4.153   1.853   4.616  0.4710 -0.1261  0.2496
 5552TIP3   OH216661   3.031   1.475   4.527 -0.7407 -0.4977  0.1323
 5552TIP3    H116662   3.015   1.461   4.434  1.8712 -0.2215 -0.4190
 5552TIP3    H216663   3.046   1.388   4.563 -0.8891 -0.5217  0.1396
 5553TIP3   OH216664   1.685   0.461   0.872 -0.0398 -0.0560 -0.4882
 5553TIP3    H116665   1.654   0.371   0.869 -0.1402  0.0008 -2.1351
 5553TIP3    H216666   1.699   0.485   0.780  1.8706  0.9763  0.0163
 5554TIP3   OH216667   0.670   0.224   2.060 -0.1275 -0.3605 -0.4262
 5554TIP3    H116668   0.614   0.182   2.124 -1.4129  0.4131 -1.0042
 5554TIP3    H216669   0.730   0.155   2.031 -0.6924 -1.1722  0.3043
 5555TIP3   OH216670   4.397   5.235   5.038 -0.4048 -0.1530  0.0178
 5555TIP3    H116671   4.347   5.307   5.075 -0.5538 -1.4320  2.5023
 5555TIP3    H216672   4.388   5.164   5.101  0.0834 -2.2466 -2.1087
 5556TIP3   OH216673   5.356   0.749   1.902 -0.5235 -0.6358 -0.6745
 5556TIP3    H116674   5.347   0.657   1.878  2.0407 -0.6579 -1.8411
 5556TIP3    H216675   5.450   0.764   1.905 -0.7342  1.1123  3.0313
 5557TIP3   OH216676   4.511   1.869   2.175 -0.0043 -0.4381  0.1741
 5557TIP3    H116677   4.424   1.832   2.188 -0.6886  1.2577  0.7156
 5557TIP3    H216678   4.519   1.879   2.080 -0.9793  0.6236  0.1797
 5558TIP3   OH216679   4.688   3.144   2.608  0.2054  0.3682  0.1074
 5558TIP3    H116680   4.679   3.199   2.531  0.5704  0.9695  0.4868
 5558TIP3    H216681   4.768   3.173   2.650 -0.4688  0.6880  1.2131
 5559TIP3   OH216682   1.032   5.421   4.640  0.2040 -0.3006  0.2446
 5559TIP3    H116683   1.114   5.401   4.596  1.9001 -1.0348  3.4335
 5559TIP3    H216684   1.021   5.350   4.704 -3.0359 -0.3011 -0.1065
 5560TIP3   OH216685   2.518   2.555   3.041  0.0508  0.0774  0.2916
 5560TIP3    H116686   2.437   2.579   2.996  0.1219  0.5244  0.4041
 5560TIP3    H216687   2.491   2.539   3.132  0.5672  3.3681  1.1293
 5561TIP3   OH216688   6.192   2.464   4.562  0.3593  0.1141  0.3060
 5561TIP3    H116689   6.102   2.471   4.592  0.7457 -0.0246  1.5285
 5561TIP3    H216690   6.233   2.546   4.588  0.8894 -0.3066  0.8195
 5562TIP3   OH216691   2.252   1.298   0.295  0.2433  0.1719 -0.3215
 5562TIP3    H116692   2.243   1.248   0.376  0.2367  0.0679 -0.3867
 5562TIP3    H216693   2.311   1.246   0.240  1.7577  1.1349  0.3232
 5563TIP3   OH216694   4.146   2.539   0.750 -0.2227  0.2410  0.1316
 5563TIP3    H116695   4.163   2.572   0.838 -1.3315  0.0066  0.4429
 5563TIP3    H216696   4.053   2.520   0.749  0.1403 -1.7944 -0.3983
 5564TIP3   OH216697   4.355   1.878   4.411  0.1333 -0.1192 -0.5488
 5564TIP3    H116698   4.449   1.892   4.400  0.6654 -0.7851  2.4427
 5564TIP3    H216699   4.330   1.934   4.484 -1.6029 -0.7094 -0.6413
 5565TIP3   OH216700   2.223   0.924   0.752  0.1019 -0.2842 -0.0224
 5565TIP3    H116701   2.273   0.902   0.830  0.6378  3.2758  0.7885
 5565TIP3    H216702   2.136   0.887   0.768  0.7141 -1.2249  1.3639
 5566TIP3   OH216703   1.489   3.923   1.940  0.0874  0.2155  0.0144
 5566TIP3    H116704   1.482   3.906   1.846 -1.4624 -1.3686  0.3800
 5566TIP3    H216705   1.550   3.856   1.972 -0.2228  0.0732  0.3097
 5567TIP3   OH216706   1.614   2.526   1.489  0.2308 -0.2073  0.2430
 5567TIP3    H116707   1.584   2.616   1.476  1.7779  0.1955 -0.8607
 5567TIP3    H216708   1.542   2.483   1.534 -0.8663  1.3787  0.0891
 5568TIP3   OH216709   4.379   0.767   4.217 -0.2828 -0.3927  0.2719
 5568TIP3    H116710   4.382   0.746   4.124 -1.6653  0.8588 -0.1082
 5568TIP3    H216711   4.304   0.717   4.251  0.1020 -0.7021  0.6776
 5569TIP3   OH216712   6.184   2.472   2.932  0.2008 -0.6088 -0.2892
 5569TIP3    H116713   6.223   2.426   2.858  0.5073 -0.5218 -0.1848
 5569TIP3    H216714   6.121   2.532   2.892 -0.3534 -1.2633 -0.4108
 5570TIP3   OH216715   0.025   2.708   4.939  0.4244  0.0452 -0.1884
 5570TIP3    H116716   0.029   2.717   4.844  2.6265 -0.5915 -0.2034
 5570TIP3    H216717  -0.035   2.777   4.967  0.9643  1.2868 -1.9211
 5571TIP3   OH216718   3.968   1.829   3.008 -0.1379  0.1675  0.7904
 5571TIP3    H116719   3.920   1.782   3.076 -1.4322  1.7148  1.0109
 5571TIP3    H216720   3.996   1.910   3.051  1.7906 -0.2295  0.3478
 5572TIP3   OH216721   5.266   1.910   1.949  0.7670 -0.1141  0.2951
 5572TIP3    H116722   5.231   1.932   2.035  0.7435  0.5753  0.1196
 5572TIP3    H216723   5.196   1.862   1.906  1.0316 -1.0699  0.9009
 5573TIP3   OH216724   5.794   2.619   0.582 -0.1177  0.3238 -0.2523
 5573TIP3    H116725   5.849   2.542   0.569  0.4323  0.9744 -2.1498
 5573TIP3    H216726   5.725   2.611   0.516 -1.1005  0.5808  0.7108
 5574TIP3   OH216727   2.689   1.461   0.642  0.4884 -0.0267 -0.5512
 5574TIP3    H116728   2.639   1.418   0.711  0.0694  1.1380 -0.0969
 5574TIP3    H216729   2.658   1.421   0.561 -0.7171  0.2000 -0.2267
 5575TIP3   OH216730   2.085   2.674   2.532  0.9002  0.0925 -0.2397
 5575TIP3    H116731   2.038   2.670   2.615  0.4023 -0.4778 -0.5503
 5575TIP3    H216732   2.141   2.596   2.532 -0.8118 -1.1953 -1.4544
 5576TIP3   OH216733   2.241   2.028   3.832 -0.2223  0.1672  0.1310
 5576TIP3    H116734   2.146   2.027   3.827 -0.1655 -0.6375 -1.1518
 5576TIP3    H216735   2.266   1.936   3.837  0.5134  0.3436 -0.1675
 5577TIP3   OH216736   2.193   4.941   1.628  0.1250 -0.5372 -0.0242
 5577TIP3    H116737   2.119   5.001   1.629  0.9214  0.4701  0.2609
 5577TIP3    H216738   2.253   4.975   1.695  1.2651 -0.7742 -0.8839
 5578TIP3   OH216739   5.270   0.862   3.737  0.5008 -0.5119 -0.0795
 5578TIP3    H116740   5.291   0.940   3.788 -2.3772  0.1573  0.2620
 5578TIP3    H216741   5.306   0.790   3.788  1.1520  0.4072  0.8098
 5579TIP3   OH216742   2.976   4.443   0.295  0.2121 -0.0770 -0.0059
 5579TIP3    H116743   3.013   4.450   0.383  0.6968 -2.5750  0.0711
 5579TIP3    H216744   2.886   4.413   0.310 -0.6283  2.1007 -0.3329
 5580TIP3   OH216745   4.103   0.636   4.337  0.4973 -0.2216  0.3386
 5580TIP3    H116746   4.032   0.574   4.355  0.1334 -0.8120 -2.6492
 5580TIP3    H216747   4.182   0.591   4.367  0.0736 -1.4794 -0.3627
 5581TIP3   OH216748   5.425   5.362   4.750  0.6895  0.1021 -0.0712
 5581TIP3    H116749   5.363   5.336   4.681  0.4195 -0.2683  0.3051
 5581TIP3    H216750   5.385   5.439   4.790 -0.3600 -1.0661  1.2352
 5582TIP3   OH216751   4.347   0.205   4.521  0.0118  0.2873  0.4608
 5582TIP3    H116752   4.411   0.175   4.586  0.7643  0.6455 -0.1022
 5582TIP3    H216753   4.348   0.137   4.453 -0.9994 -0.2424  0.9436
 5583TIP3   OH216754   5.499   4.533   3.575  0.4496 -0.5453 -0.4471
 5583TIP3    H116755   5.416   4.492   3.551  1.5157 -2.0384 -1.8457
 5583TIP3    H216756   5.524   4.489   3.657 -0.1902  0.0143  0.0565
 5584TIP3   OH216757   5.934   2.549   4.582  0.0690 -0.0251  0.5311
 5584TIP3    H116758   5.849   2.510   4.565  0.3994  0.4308 -2.9313
 5584TIP3    H216759   5.917   2.643   4.584  0.4346  0.0652 -0.1140
 5585TIP3   OH216760   6.239   1.618   4.546 -0.1774  0.6478 -0.0948
 5585TIP3    H116761   6.310   1.586   4.491 -0.0248 -2.8070  1.8541
 5585TIP3    H216762   6.282   1.674   4.610  0.7537 -0.9067  0.6825
 5586TIP3   OH216763   3.804   5.505   4.163 -0.0001  0.0576 -0.4543
 5586TIP3    H116764   3.870   5.543   4.105 -0.3824 -1.5319 -2.0321
 5586TIP3    H216765   3.846   5.428   4.200 -0.9480 -1.0826 -1.6281
 5587TIP3   OH216766   5.788   2.268   0.941 -0.1945  0.3347  0.5727
 5587TIP3    H116767   5.787   2.260   1.037  0.0472  0.8264  0.6163
 5587TIP3    H216768   5.704   2.230   0.914 -0.2836  0.2291  0.9822
 5588TIP3   OH216769   6.254   4.637   3.548  0.1077 -0.6158  0.6423
 5588TIP3    H116770   6.161   4.616   3.543  0.2184 -1.0788  0.4390
 5588TIP3    H216771   6.257   4.725   3.586 -0.4351 -0.3477  0.0848
 5589TIP3   OH216772   3.022   5.875   2.206  0.0687 -0.0802  0.9031
 5589TIP3    H116773   3.021   5.791   2.251  1.3277 -0.6185 -0.0141
 5589TIP3    H216774   2.986   5.937   2.270  0.1745 -1.1144  1.9941
 5590TIP3   OH216775   2.886   0.354   1.746  0.8867  0.4712  0.6947
 5590TIP3    H116776   2.912   0.408   1.820 -1.2933  2.2193  0.3240
 5590TIP3    H216777   2.875   0.416   1.674  0.4670 -0.7993 -0.3820
 5591TIP3   OH216778   4.342   0.399   4.131 -0.1339 -0.2607  0.1603
 5591TIP3    H116779   4.368   0.471   4.074  2.2172 -2.6193 -1.9283
 5591TIP3    H216780   4.269   0.357   4.085 -0.9033  0.1660  0.9425
 5592TIP3   OH216781   4.131   0.534   1.614  0.4887 -0.3863 -0.7115
 5592TIP3    H116782   4.074   0.511   1.540 -0.3518  0.7978 -0.4617
 5592TIP3    H216783   4.081   0.507   1.691  1.0071 -0.8707 -0.5419
 5593TIP3   OH216784   5.805   5.282   3.254 -0.3560  0.2229  0.3457
 5593TIP3    H116785   5.768   5.323   3.175 -0.7685 -0.5841  0.1089
 5593TIP3    H216786   5.843   5.355   3.303  3.0799  0.4236 -2.2331
 5594TIP3   OH216787   2.323   5.113   0.294  0.0786 -0.0091  0.2390
 5594TIP3    H116788   2.362   5.146   0.375  1.2471  1.3994 -0.8489
 5594TIP3    H216789   2.310   5.191   0.240 -1.9011 -0.7611 -0.4495
 5595TIP3   OH216790   5.317   4.411   5.095 -0.1399  0.2390 -0.1314
 5595TIP3    H116791   5.238   4.451   5.132 -0.1011 -0.4189  0.6867
 5595TIP3    H216792   5.380   4.411   5.167  0.3715  0.1100 -0.5723
 5596TIP3   OH216793   5.528   3.296   2.267 -0.4994  0.2054 -0.5460
 5596TIP3    H116794   5.518   3.296   2.172 -0.0201  0.4702 -0.5977
 5596TIP3    H216795   5.481   3.373   2.297  0.5294  0.9065 -0.7000
 5597TIP3   OH216796   0.241   3.514   2.336  0.8497 -0.3351  0.2836
 5597TIP3    H116797   0.330   3.484   2.349  1.6599  1.8013  0.1812
 5597TIP3    H216798   0.224   3.573   2.410 -1.1857 -2.0969  1.3143
 5598TIP3   OH216799   1.454   5.852   0.541  0.2947  0.0724  0.1847
 5598TIP3    H116800   1.466   5.879   0.632  1.8793  0.5395 -0.1320
 5598TIP3    H216801   1.418   5.763   0.547 -0.4635  0.4280  1.2451
 5599TIP3   OH216802   5.992   4.155   1.104  0.3516 -0.1472 -0.0986
 5599TIP3    H116803   6.016   4.137   1.013  0.3551 -0.6973  0.0050
 5599TIP3    H216804   5.987   4.068   1.145 -3.2526 -0.2667 -0.4820
 5600TIP3   OH216805   5.805   0.554   4.647  0.3345 -0.1084 -0.3324
 5600TIP3    H116806   5.897   0.535   4.669  0.1892  0.3103  0.7091
 5600TIP3    H216807   5.784   0.632   4.699 -1.2885 -1.5126  1.2670
 5601TIP3   OH216808   2.081   1.032   0.222  0.5945  0.2610 -0.1030
 5601TIP3    H116809   2.052   1.096   0.286  0.1424  0.0664 -0.1041
 5601TIP3    H216810   2.087   0.949   0.270  2.2923  0.5105  0.1642
 5602TIP3   OH216811   1.605   3.181   2.452 -0.7875 -0.3187  0.4489
 5602TIP3    H116812   1.648   3.266   2.437 -0.5596 -0.4004  0.6349
 5602TIP3    H216813   1.677   3.122   2.475 -0.7850 -0.8442 -0.8126
 5603TIP3   OH216814   2.186   4.139   3.408 -0.0908 -0.2693  0.4331
 5603TIP3    H116815   2.232   4.119   3.489 -1.3761 -1.6672  0.8676
 5603TIP3    H216816   2.256   4.151   3.343  1.0472  2.5363  1.9948
 5604TIP3   OH216817   2.772   5.662   2.449  0.3531 -0.4587  0.2203
 5604TIP3    H116818   2.717   5.586   2.430  1.5685 -1.0152 -1.2958
 5604TIP3    H216819   2.742   5.729   2.386  1.1292 -0.6335 -0.3439
 5605TIP3   OH216820   0.108   0.675   1.397 -0.3701 -0.2803  0.1524
 5605TIP3    H116821   0.103   0.763   1.434  1.5838  0.1345 -0.4682
 5605TIP3    H216822   0.142   0.687   1.309  0.5572 -1.6792  0.2800
 5606TIP3   OH216823   1.095   3.840   2.673  0.0791 -0.4809  0.0220
 5606TIP3    H116824   1.105   3.908   2.740  0.3029  0.0888 -0.5687
 5606TIP3    H216825   1.032   3.878   2.611  2.1854  0.3762 -1.7316
 5607TIP3   OH216826   5.096   4.170   4.167  0.0207  0.4109  0.1912
 5607TIP3    H116827   5.015   4.217   4.188 -0.7839 -1.3907  1.4100
 5607TIP3    H216828   5.157   4.238   4.138 -1.3256  2.0657  1.0722
 5608TIP3   OH216829   5.555   1.557   2.902 -0.5908 -0.3808 -0.0129
 5608TIP3    H116830   5.540   1.463   2.889  2.4236 -1.1828  1.3288
 5608TIP3    H216831   5.547   1.570   2.996 -0.8534  0.7253 -0.1715
 5609TIP3   OH216832   3.400   1.887   1.760 -0.3740  0.0860 -0.3294
 5609TIP3    H116833   3.358   1.846   1.684  0.9561  0.4789 -1.3004
 5609TIP3    H216834   3.342   1.866   1.833 -1.1754 -1.1431 -1.2797
 5610TIP3   OH216835   5.759   0.957   4.045  0.6600 -0.0601 -0.2428
 5610TIP3    H116836   5.832   0.955   4.107  0.8551  3.1569 -0.2102
 5610TIP3    H216837   5.681   0.971   4.099  0.5454  0.5128 -0.5493
 5611TIP3   OH216838   3.775   1.101   0.583  0.0965 -0.6777 -0.5938
 5611TIP3    H116839   3.785   1.067   0.672 -3.4865 -0.5213  0.0526
 5611TIP3    H216840   3.711   1.042   0.543 -1.9587  1.8894 -1.3672
 5612TIP3   OH216841   5.579   4.605   2.276  0.8261 -0.0712  0.0837
 5612TIP3    H116842   5.599   4.521   2.235  2.2470  0.5232 -0.5103
 5612TIP3    H216843   5.601   4.592   2.369  0.9192 -0.4039  0.0146
 5613TIP3   OH216844   5.711   2.073   2.668 -0.2258 -0.1820 -0.0265
 5613TIP3    H116845   5.693   1.989   2.625 -0.7427 -0.6510  1.0702
 5613TIP3    H216846   5.626   2.117   2.669 -0.3218 -0.3699  0.8979
 5614TIP3   OH216847   1.655   2.438   2.944 -0.4571 -0.0218  0.4460
 5614TIP3    H116848   1.614   2.389   2.873  0.0772  0.2425 -0.0546
 5614TIP3    H216849   1.749   2.420   2.935 -0.2733  0.8723  0.4071
 5615TIP3   OH216850   5.167   2.443   4.285  0.5421 -0.4291  0.0629
 5615TIP3    H116851   5.199   2.507   4.348  0.3457 -0.2894  0.0232
 5615TIP3    H216852   5.147   2.494   4.207 -0.8959 -0.3135  0.4676
 5616TIP3   OH216853   6.082   4.459   0.734  0.0074  0.1614 -0.5919
 5616TIP3    H116854   6.040   4.401   0.671  1.2710 -1.3134 -0.1447
 5616TIP3    H216855   6.066   4.547   0.699 -2.7858 -0.3288 -0.7771
 5617TIP3   OH216856   2.613   5.837   2.286  0.2723  0.0119  0.6242
 5617TIP3    H116857   2.601   5.922   2.244  0.8227 -1.2359 -2.2921
 5617TIP3    H216858   2.527   5.794   2.277 -0.4483  0.6952  3.3861
 5618TIP3   OH216859   2.463   5.268   0.487 -0.3730 -0.2607 -0.0842
 5618TIP3    H116860   2.476   5.246   0.579 -1.4207 -2.7866 -0.4699
 5618TIP3    H216861   2.416   5.352   0.488  0.2358  0.0928  1.6279
 5619TIP3   OH216862   1.066   4.513   0.265 -0.2462  0.2978 -0.0087
 5619TIP3    H116863   1.147   4.549   0.300 -0.0664 -0.5330  0.4606
 5619TIP3    H216864   1.055   4.556   0.180  0.6330  0.4857 -0.0317
 5620TIP3   OH216865   1.603   1.376   1.849  0.2859  0.4053 -0.0099
 5620TIP3    H116866   1.692   1.348   1.832 -0.0578 -1.2515  0.7386
 5620TIP3    H216867   1.606   1.412   1.938  0.4289  1.4444 -0.4240
 5621TIP3   OH216868   4.125   4.934   2.209  0.4062  0.6488 -0.0872
 5621TIP3    H116869   4.149   4.846   2.181 -2.1122 -0.1417 -0.0101
 5621TIP3    H216870   4.097   4.979   2.129  0.2958  0.8886  0.0828
 5622TIP3   OH216871   1.695   5.252   2.629  0.3409  0.3510 -0.1760
 5622TIP3    H116872   1.716   5.178   2.686 -1.5716  0.8365  1.2356
 5622TIP3    H216873   1.723   5.223   2.542  4.6516  0.0977  1.0381
 5623TIP3   OH216874   1.453   5.283   3.120  0.6466 -0.4265 -0.8807
 5623TIP3    H116875   1.444   5.266   3.214  0.9202 -1.4137 -1.0176
 5623TIP3    H216876   1.505   5.363   3.114  0.2029 -0.0800 -0.1923
 5624TIP3   OH216877   3.023   5.731   1.835  0.2222 -0.3301  0.4732
 5624TIP3    H116878   2.968   5.740   1.913 -0.1816 -1.2779  0.3129
 5624TIP3    H216879   2.968   5.762   1.763  0.0976 -0.7335  0.3907
 5625TIP3   OH216880   1.956   4.185   0.936 -0.2599 -0.4996  0.2657
 5625TIP3    H116881   1.970   4.273   0.969  0.7382  0.4536 -2.4752
 5625TIP3    H216882   2.039   4.140   0.952  1.3911  0.8841 -3.3137
 5626TIP3   OH216883   6.001   5.668   5.048 -0.5541  0.0087 -0.1075
 5626TIP3    H116884   5.963   5.694   4.965 -1.8850 -0.1330  0.4372
 5626TIP3    H216885   6.091   5.701   5.045 -0.9373  1.0101 -1.1185
 5627TIP3   OH216886   2.947   4.664   3.347  0.5415  0.1345 -0.3953
 5627TIP3    H116887   2.982   4.598   3.406 -0.5771 -0.7812 -0.7091
 5627TIP3    H216888   2.963   4.747   3.391 -1.7170 -0.5885  2.0683
 5628TIP3   OH216889   4.530   4.542   4.543 -0.1788  0.0911  0.4834
 5628TIP3    H116890   4.453   4.543   4.600  0.4907  1.5150  1.3972
 5628TIP3    H216891   4.589   4.606   4.581  2.2682 -2.2383  0.8454
 5629TIP3   OH216892   3.276   2.387   2.066  0.3372 -1.0025  0.2624
 5629TIP3    H116893   3.260   2.320   2.000 -0.1303 -0.8260  0.1902
 5629TIP3    H216894   3.189   2.420   2.088  0.6376  0.9997 -1.2098
 5630TIP3   OH216895   1.938   4.253   1.764 -0.0443  0.3104 -0.2490
 5630TIP3    H116896   1.943   4.189   1.835 -0.5198 -1.6940 -1.8890
 5630TIP3    H216897   1.878   4.213   1.701  2.0270  0.8908 -2.7764
 5631TIP3   OH216898   0.141   2.025   1.716  0.1110  0.0606 -0.5459
 5631TIP3    H116899   0.076   2.059   1.655 -0.0978  0.3619 -0.1527
 5631TIP3    H216900   0.224   2.064   1.687 -0.2014  1.3418  0.2172
 5632TIP3   OH216901   3.272   0.072   3.783 -0.0978  0.0699  0.2185
 5632TIP3    H116902   3.310  -0.016   3.779  0.2036  0.1911  0.3535
 5632TIP3    H216903   3.343   0.130   3.757  0.0992  0.3728  1.3770
 5633TIP3   OH216904   3.995   5.375   0.233  0.3687 -0.0504  0.1141
 5633TIP3    H116905   4.082   5.353   0.269 -0.2189 -0.2521  1.4918
 5633TIP3    H216906   3.948   5.412   0.308 -0.7919 -0.0913 -0.5831
 5634TIP3   OH216907   5.513   2.179   1.752  0.4294 -0.1752  0.0269
 5634TIP3    H116908   5.514   2.085   1.774 -1.9841  0.0058  1.3544
 5634TIP3    H216909   5.477   2.183   1.664  0.3137 -0.5040  0.0577
 5635TIP3   OH216910   4.311   2.798   3.633 -0.4652 -0.6050 -0.3458
 5635TIP3    H116911   4.257   2.730   3.594 -0.0537 -0.7209 -0.7251
 5635TIP3    H216912   4.273   2.881   3.603 -0.0627 -0.6934 -1.1366
 5636TIP3   OH216913   5.003   3.850   1.050 -0.6928 -0.0116 -0.6744
 5636TIP3    H116914   4.951   3.898   1.114 -0.4792  0.8382 -1.1332
 5636TIP3    H216915   4.943   3.837   0.976 -0.6261 -0.1108 -0.7105
 5637TIP3   OH216916   1.793   0.155   1.428  0.5459 -0.4039  0.1633
 5637TIP3    H116917   1.886   0.143   1.409  1.5584  0.6274  3.5931
 5637TIP3    H216918   1.773   0.243   1.397  0.7752 -0.5555 -0.4171
 5638TIP3   OH216919   3.842   4.896   3.114  0.1018 -0.0258  0.0944
 5638TIP3    H116920   3.919   4.840   3.117  0.5188  0.5279 -0.1803
 5638TIP3    H216921   3.830   4.915   3.021  0.2606  0.7539  0.2317
 5639TIP3   OH216922   5.491   1.550   0.222  0.2187 -0.6886 -0.6727
 5639TIP3    H116923   5.583   1.541   0.244  0.0662  0.7831  0.7568
 5639TIP3    H216924   5.444   1.515   0.298 -0.3236  4.2888  1.7321
 5640TIP3   OH216925   2.969   5.853   3.676  0.2140  0.0320  0.2959
 5640TIP3    H116926   2.879   5.828   3.659  0.7251 -1.8507  0.1003
 5640TIP3    H216927   3.021   5.779   3.645  1.7750  0.6643  1.2471
 5641TIP3   OH216928   2.005   1.739   3.128  0.3134 -0.3109  0.6052
 5641TIP3    H116929   1.935   1.804   3.124  0.2326 -0.4422 -0.2621
 5641TIP3    H216930   2.086   1.791   3.130  0.2482 -0.1752 -0.0574
 5642TIP3   OH216931   2.994   4.675   1.830  0.4091  0.2999 -0.0446
 5642TIP3    H116932   2.948   4.698   1.749  0.5530  0.5345 -0.0606
 5642TIP3    H216933   2.972   4.583   1.844  2.1764 -0.4128 -1.5697
 5643TIP3   OH216934   4.744   2.162   2.399 -0.1727 -0.6595  0.3758
 5643TIP3    H116935   4.839   2.152   2.404  0.0343  1.3263  2.1786
 5643TIP3    H216936   4.727   2.249   2.437 -2.5564 -0.0719 -1.7277
 5644TIP3   OH216937   5.095   3.653   1.980  0.1791  0.0817  0.0621
 5644TIP3    H116938   5.046   3.685   2.056 -0.4939 -0.2785 -0.2087
 5644TIP3    H216939   5.048   3.689   1.904  1.4541  1.3153 -0.1905
 5645TIP3   OH216940   6.186   4.852   1.526 -0.5765  0.1981 -0.4494
 5645TIP3    H116941   6.092   4.867   1.539 -0.4367  0.0283  0.9280
 5645TIP3    H216942   6.223   4.940   1.519 -0.7900  0.2713 -0.6890
 5646TIP3   OH216943   3.157   1.238   0.360  0.4678 -0.6599 -0.7938
 5646TIP3    H116944   3.081   1.295   0.348  1.1943  1.1503  2.3033
 5646TIP3    H216945   3.233   1.293   0.342  1.1450 -1.0862  0.5965
 5647TIP3   OH216946   2.587   5.119   2.908  0.1887 -0.1289 -0.1347
 5647TIP3    H116947   2.680   5.099   2.891 -0.2122 -1.1218 -1.4017
 5647TIP3    H216948   2.541   5.079   2.834 -1.2629  0.3182  0.4960
 5648TIP3   OH216949   2.572   2.970   3.500  0.1211 -0.4499 -0.8249
 5648TIP3    H116950   2.633   2.955   3.572  0.4717  1.2116 -0.7439
 5648TIP3    H216951   2.611   2.923   3.426  1.5212  0.5603 -0.7715
 5649TIP3   OH216952   0.785   2.741   1.381 -0.4342  0.0793  0.0017
 5649TIP3    H116953   0.697   2.722   1.349  0.0271  1.2690 -2.1832
 5649TIP3    H216954   0.771   2.787   1.464 -1.8046 -0.9582  0.3815
 5650TIP3   OH216955   4.426   0.405   0.045 -0.4444 -0.2800 -0.1303
 5650TIP3    H116956   4.510   0.426   0.086 -0.5629 -1.3328  0.6897
 5650TIP3    H216957   4.383   0.345   0.106 -1.8460  0.3151 -0.4976
 5651TIP3   OH216958   0.227   3.804   0.230  0.3707 -0.5067 -0.2511
 5651TIP3    H116959   0.283   3.855   0.171 -0.1801 -1.2442 -1.4437
 5651TIP3    H216960   0.288   3.751   0.281  0.9191  0.8788  0.6027
 5652TIP3   OH216961   4.711   2.842   3.080  0.1993 -0.4165  0.7350
 5652TIP3    H116962   4.706   2.754   3.041  2.0586 -0.3488  0.2150
 5652TIP3    H216963   4.629   2.884   3.054 -0.7166 -1.9711  0.9620
 5653TIP3   OH216964   4.185   2.272   3.978 -0.4194  0.0227 -0.1033
 5653TIP3    H116965   4.200   2.228   4.062  0.1126 -0.7214 -0.5729
 5653TIP3    H216966   4.220   2.211   3.912  1.1516  1.5112 -0.7377
 5654TIP3   OH216967   2.531   3.610   2.825  0.0504 -0.4323  0.5678
 5654TIP3    H116968   2.563   3.582   2.739 -0.5149 -2.1178  0.8849
 5654TIP3    H216969   2.604   3.594   2.885  0.2309  0.1812  0.5271
 5655TIP3   OH216970   1.613   2.826   0.208 -0.1888 -0.2721 -0.0528
 5655TIP3    H116971   1.646   2.895   0.150 -1.5197  1.0462  0.6822
 5655TIP3    H216972   1.538   2.790   0.162 -1.6892  1.2578  1.0473
 5656TIP3   OH216973   5.641   1.689   0.473 -0.2507 -0.1092 -0.2351
 5656TIP3    H116974   5.688   1.642   0.405  0.9079 -1.5898  1.4930
 5656TIP3    H216975   5.707   1.741   0.517 -0.7177 -0.1597  0.5509
 5657TIP3   OH216976   2.536   3.196   0.734 -0.2888 -0.3000 -0.5110
 5657TIP3    H116977   2.581   3.272   0.770  0.3689 -0.0677 -1.7618
 5657TIP3    H216978   2.545   3.129   0.801 -0.2949  0.5187  0.3263
 5658TIP3   OH216979   3.739   1.625   1.672  0.3212 -0.1452 -0.0939
 5658TIP3    H116980   3.721   1.713   1.705 -1.5503 -0.4444 -0.2057
 5658TIP3    H216981   3.695   1.621   1.587 -0.3593 -1.4321  0.2794
 5659TIP3   OH216982   3.575   2.106   0.182  0.7214  0.3099  0.2693
 5659TIP3    H116983   3.495   2.136   0.225 -0.0520 -0.5803 -0.5105
 5659TIP3    H216984   3.583   2.162   0.104 -0.4885 -1.1460 -0.9547
 5660TIP3   OH216985   4.741   1.607   0.279  0.1426 -0.6354 -0.1514
 5660TIP3    H116986   4.649   1.604   0.255  0.0152 -2.0937  0.3924
 5660TIP3    H216987   4.751   1.687   0.330 -0.8685 -0.5801 -0.0267
 5661TIP3   OH216988   6.008   2.564   3.131  0.1295  0.9155  0.3190
 5661TIP3    H116989   6.056   2.515   3.064 -0.8570  0.0353  0.2236
 5661TIP3    H216990   5.933   2.508   3.152 -0.6340  2.0670  0.7488
 5662TIP3   OH216991   2.206   4.277   1.672 -0.2396 -0.6203 -0.2105
 5662TIP3    H116992   2.244   4.189   1.672  0.6667 -0.2915  1.4301
 5662TIP3    H216993   2.119   4.266   1.710 -0.1371 -0.8284 -0.0310
 5663TIP3   OH216994   1.248   3.608   4.517  0.4483  0.0934  0.7764
 5663TIP3    H116995   1.329   3.638   4.558  0.3465  1.0690  0.2944
 5663TIP3    H216996   1.194   3.687   4.511  0.0550 -0.2491 -0.2922
 5664TIP3   OH216997   4.738   3.441   3.982  0.4816  0.0246 -0.0598
 5664TIP3    H116998   4.661   3.385   3.992  0.5952  0.0062  0.8407
 5664TIP3    H216999   4.703   3.529   3.971  0.3152  0.2721  2.0719
 5665TIP3   OH217000   3.365   3.251   4.200  0.0709 -0.3994 -0.3717
 5665TIP3    H117001   3.448   3.220   4.164  0.9289  1.3179  0.0214
 5665TIP3    H217002   3.389   3.299   4.279 -1.0640  1.6050 -1.1646
 5666TIP3   OH217003   1.638   5.385   0.161 -0.5837  0.2323 -0.3477
 5666TIP3    H117004   1.568   5.434   0.204 -1.3483 -0.7941 -0.4122
 5666TIP3    H217005   1.665   5.320   0.225  1.7133  1.8509  0.4604
 5667TIP3   OH217006   4.790   0.170   0.247  0.2995  0.0108 -0.0820
 5667TIP3    H117007   4.809   0.228   0.321  3.2948 -0.4577 -0.3567
 5667TIP3    H217008   4.868   0.116   0.239 -1.5723 -2.7314 -1.1042
 5668TIP3   OH217009   0.658   5.079   4.975 -0.4702  0.0202  0.3179
 5668TIP3    H117010   0.702   5.163   4.993 -0.9224  0.1551  0.8206
 5668TIP3    H217011   0.698   5.018   5.037 -0.0875 -0.1546 -0.1004
 5669TIP3   OH217012   1.135   5.685   2.205  0.5410 -0.6787 -0.2698
 5669TIP3    H117013   1.171   5.760   2.253  0.6210 -1.6468  1.2718
 5669TIP3    H217014   1.084   5.724   2.135  1.5207  0.7922 -0.2172
 5670TIP3   OH217015   5.512   0.582   2.632 -0.1393 -0.0359 -0.3880
 5670TIP3    H117016   5.443   0.641   2.662  0.2705  0.8459 -1.1437
 5670TIP3    H217017   5.466   0.500   2.613 -0.8891  0.3643 -0.3299
 5671TIP3   OH217018   3.599   4.753   1.160  0.3584  0.2030  0.3528
 5671TIP3    H117019   3.508   4.773   1.138  0.1756 -0.8596  0.1113
 5671TIP3    H217020   3.603   4.658   1.164  1.2063  0.2634  1.4983
 5672TIP3   OH217021   4.531   3.051   0.582  0.1466 -0.1609 -0.6547
 5672TIP3    H117022   4.527   3.146   0.590  0.3624 -0.2917  1.7966
 5672TIP3    H217023   4.444   3.026   0.552  0.0839  0.7673 -1.3212
 5673TIP3   OH217024   4.980   3.418   4.109 -0.8537 -0.5474  0.2320
 5673TIP3    H117025   4.951   3.351   4.047  1.3818 -0.6005 -0.8443
 5673TIP3    H217026   4.899   3.459   4.139 -2.2015 -2.7812 -0.1266
 5674TIP3   OH217027   6.050   2.688   4.882 -0.2230 -0.2793 -0.4440
 5674TIP3    H117028   5.966   2.653   4.854 -0.4916  0.2268 -0.2723
 5674TIP3    H217029   6.052   2.670   4.977  1.1441 -2.9798 -0.8731
 5675TIP3   OH217030   3.360   5.283   4.027 -0.5433  0.3014  0.2460
 5675TIP3    H117031   3.438   5.320   4.069  1.5614 -1.4817 -1.8478
 5675TIP3    H217032   3.301   5.264   4.100  1.7912 -0.1361  2.1516
 5676TIP3   OH217033   1.994   2.277   4.121  0.1351 -0.2937  0.3681
 5676TIP3    H117034   1.959   2.260   4.034 -1.8319 -1.1962  1.2719
 5676TIP3    H217035   2.082   2.239   4.120  0.4396  0.3765 -1.4219
 5677TIP3   OH217036   0.446   3.433   3.440  0.1607 -0.0292  0.3521
 5677TIP3    H117037   0.496   3.372   3.385 -0.6839 -0.9930  0.6248
 5677TIP3    H217038   0.438   3.512   3.386 -0.5079 -0.8892 -0.8659
 5678TIP3   OH217039   4.054   5.056   4.370  0.5306 -0.4462 -0.1989
 5678TIP3    H117040   4.029   4.976   4.416  0.2345  0.3702  1.0992
 5678TIP3    H217041   4.128   5.090   4.420 -0.3378  0.9088  0.2009
 5679TIP3   OH217042   5.735   4.290   4.373 -0.0671  0.5354 -0.1971
 5679TIP3    H117043   5.765   4.236   4.445  1.1852  0.3524 -0.8175
 5679TIP3    H217044   5.816   4.320   4.330 -0.7600  0.4675 -1.6348
 5680TIP3   OH217045   5.083   4.969   4.771 -0.3611 -0.3611 -0.0784
 5680TIP3    H117046   5.131   4.990   4.851  0.0266  0.0412 -0.4109
 5680TIP3    H217047   5.150   4.960   4.703 -0.6601 -1.0094 -0.2979
 5681TIP3   OH217048   4.626   0.304   1.923  0.1160  0.1771 -0.5028
 5681TIP3    H117049   4.605   0.369   1.855 -1.9291  0.5390  0.3869
 5681TIP3    H217050   4.547   0.299   1.976  1.7061  0.0691  2.0192
 5682TIP3   OH217051   1.589   4.101   2.754 -0.3858  0.2017  0.1207
 5682TIP3    H117052   1.646   4.040   2.707 -0.4186 -0.2529  0.6731
 5682TIP3    H217053   1.601   4.080   2.846 -0.7176  0.7492  0.2946
 5683TIP3   OH217054   3.708   0.701   4.152  0.6367  0.1273 -0.4022
 5683TIP3    H117055   3.670   0.623   4.110 -0.6160  0.3051  0.3680
 5683TIP3    H217056   3.640   0.768   4.144  0.7624  0.4484  1.0379
 5684TIP3   OH217057   3.000   4.066   0.025 -0.9592  0.2872  0.1292
 5684TIP3    H117058   2.916   4.112   0.018 -2.3952 -2.1714  0.0954
 5684TIP3    H217059   2.985   4.000   0.093  0.7811 -0.5495 -0.2579
 5685TIP3   OH217060   2.576   5.932   4.891  0.8459 -0.1191  0.1833
 5685TIP3    H117061   2.631   5.928   4.812  1.5621  0.5308  0.6313
 5685TIP3    H217062   2.606   6.011   4.936 -0.3384  0.1446  0.5388
 5686TIP3   OH217063   1.557   2.927   2.179  0.1583 -0.3856  0.1872
 5686TIP3    H117064   1.468   2.950   2.206  0.2142  0.0083  0.0339
 5686TIP3    H217065   1.548   2.842   2.135  0.2188 -1.6804  2.4855
 5687TIP3   OH217066   4.220   1.694   3.022 -0.2487 -0.5945  0.1403
 5687TIP3    H117067   4.255   1.712   3.109  1.4616 -3.2168  0.1344
 5687TIP3    H217068   4.135   1.737   3.020  0.0798  0.3309  2.7483
 5688TIP3   OH217069   5.532   5.860   4.480 -0.8060  0.0394 -0.2495
 5688TIP3    H117070   5.615   5.890   4.445 -0.1319 -0.4243  0.8937
 5688TIP3    H217071   5.553   5.778   4.525 -1.3551  1.2071  2.2902
 5689TIP3   OH217072   4.958   1.309   2.421 -0.1031 -0.2487 -0.1505
 5689TIP3    H117073   5.049   1.285   2.438 -0.3667  0.1095  2.0909
 5689TIP3    H217074   4.961   1.403   2.402 -0.1659  0.3558  2.3940
 5690TIP3   OH217075   2.030   1.517   2.263 -0.2455  0.6330 -0.0560
 5690TIP3    H117076   2.006   1.428   2.289 -1.6823  0.3347 -2.1280
 5690TIP3    H217077   1.982   1.574   2.323 -0.8116  0.0022  0.0995
 5691TIP3   OH217078   1.134   4.752   5.083 -0.6990 -0.7769  0.1131
 5691TIP3    H117079   1.077   4.827   5.062 -0.5617 -0.6261  0.2786
 5691TIP3    H217080   1.195   4.748   5.009 -1.9132 -1.9277 -0.8786
 5692TIP3   OH217081   2.077   5.778   0.015  0.2458  0.1828  0.7959
 5692TIP3    H117082   2.036   5.842   0.074  1.6882  1.1802  0.7532
 5692TIP3    H217083   2.161   5.816  -0.008  0.7137 -1.2745 -0.0662
 5693TIP3   OH217084   1.115   3.837   4.494 -0.1712 -0.2887 -0.1796
 5693TIP3    H117085   1.066   3.873   4.420  1.7513  0.4689 -1.1730
 5693TIP3    H217086   1.155   3.913   4.535 -1.4936 -0.6510  1.9441
 5694TIP3   OH217087   1.132   5.965   4.095  0.0079 -0.0526 -0.3755
 5694TIP3    H117088   1.068   5.929   4.034  0.5078  0.9918 -1.5809
 5694TIP3    H217089   1.165   6.044   4.051  1.3054  0.0476  0.6980
 5695TIP3   OH217090   0.315   0.213   0.513 -0.1013 -0.0191  0.2172
 5695TIP3    H117091   0.387   0.154   0.535  0.4123 -0.0091 -1.3320
 5695TIP3    H217092   0.236   0.168   0.545  0.4579 -0.6354  0.7643
 5696TIP3   OH217093   0.753   4.156   4.132 -0.1261  0.2071  0.5445
 5696TIP3    H117094   0.846   4.155   4.109 -0.6797  0.5437 -2.0377
 5696TIP3    H217095   0.717   4.080   4.086 -1.7883  2.3592 -1.9512
 5697TIP3   OH217096   0.181   1.381   2.111  0.3247  0.6175  0.6372
 5697TIP3    H117097   0.144   1.444   2.172  1.2663  0.2910  1.5717
 5697TIP3    H217098   0.259   1.424   2.077 -1.0140  1.4505 -1.5861
 5698TIP3   OH217099   1.518   0.079   3.124  0.0667 -0.2104  0.2979
 5698TIP3    H117100   1.584   0.127   3.074  0.1227 -0.3980  0.1907
 5698TIP3    H217101   1.549   0.082   3.215 -0.2520  0.4915  0.3844
 5699TIP3   OH217102   0.161   4.905   4.002  0.2934 -0.1808 -0.8699
 5699TIP3    H117103   0.212   4.880   4.079  1.6398  0.2534 -1.5965
 5699TIP3    H217104   0.208   4.979   3.964 -0.4106 -0.2961 -2.0395
 5700TIP3   OH217105   4.749   1.694   0.933 -0.6560  0.2591 -0.2522
 5700TIP3    H117106   4.820   1.725   0.988 -1.6173  1.7208  0.2139
 5700TIP3    H217107   4.670   1.731   0.971 -1.5549 -0.2957 -1.4863
 5701TIP3   OH217108   5.165   4.238   3.274 -0.3647 -0.2013  0.2560
 5701TIP3    H117109   5.239   4.205   3.325 -0.6410 -0.6005  0.4086
 5701TIP3    H217110   5.199   4.315   3.229  0.4678 -1.0178 -0.5484
 5702TIP3   OH217111   5.641   1.794   2.539 -0.2761  0.1704 -0.0525
 5702TIP3    H117112   5.617   1.725   2.476 -0.9190  0.8072 -0.5283
 5702TIP3    H217113   5.663   1.746   2.619  3.1226 -0.8857 -1.4273
 5703TIP3   OH217114   2.451   3.442   4.392  0.4490 -0.9670 -0.4608
 5703TIP3    H117115   2.464   3.536   4.376  0.5700 -1.3246 -2.6997
 5703TIP3    H217116   2.539   3.406   4.398  0.4036 -1.0428 -0.2299
 5704TIP3   OH217117   4.300   3.621   3.835 -0.3091  0.1451  0.0489
 5704TIP3    H117118   4.377   3.627   3.779 -0.6576  1.0017 -0.3612
 5704TIP3    H217119   4.270   3.530   3.825  0.4238 -0.0844 -0.0827
 5705TIP3   OH217120   6.272   3.905   2.046 -0.2504 -0.1668  0.1467
 5705TIP3    H117121   6.221   3.946   2.115 -0.1502 -1.7431  1.1951
 5705TIP3    H217122   6.360   3.895   2.084  0.5866  1.4198 -1.2070
 5706TIP3   OH217123   5.929   0.268   0.612  0.3092 -0.3539  0.2888
 5706TIP3    H117124   5.890   0.182   0.603 -1.2102  0.3225  0.0919
 5706TIP3    H217125   5.888   0.321   0.543  0.5595  0.7454  0.9494
 5707TIP3   OH217126   0.437   5.180   2.089  0.0100  0.3745 -0.3115
 5707TIP3    H117127   0.471   5.269   2.087  0.9349  0.0326 -0.2772
 5707TIP3    H217128   0.476   5.142   2.168 -1.6475  0.4210  0.5853
 5708TIP3   OH217129   4.928   1.965   0.039 -0.0979  0.5447  0.0963
 5708TIP3    H117130   4.987   1.897   0.069  0.3969  1.1808  0.6088
 5708TIP3    H217131   4.860   1.969   0.105  0.4942  1.3144  0.6853
 5709TIP3   OH217132   5.940   0.728   0.988 -0.0620 -0.2608  0.5873
 5709TIP3    H117133   5.949   0.817   1.021  3.9823 -0.4925  0.5818
 5709TIP3    H217134   5.961   0.735   0.895  0.7043 -1.2488  0.6694
 5710TIP3   OH217135   3.185   2.310   5.011  0.3758 -0.5261  0.4496
 5710TIP3    H117136   3.137   2.382   5.053  0.9674 -0.2739  0.7107
 5710TIP3    H217137   3.251   2.285   5.075  1.5573  0.1330 -0.4698
 5711TIP3   OH217138   0.613   2.594   3.419 -0.6133 -0.5044 -0.1900
 5711TIP3    H117139   0.552   2.625   3.352 -1.5313 -0.0134  0.8340
 5711TIP3    H217140   0.698   2.592   3.375 -1.0412  0.6266 -1.1266
 5712TIP3   OH217141   4.160   3.369   3.520 -0.9699  0.4882 -0.0151
 5712TIP3    H117142   4.151   3.319   3.440  0.7114  1.8254 -1.1168
 5712TIP3    H217143   4.247   3.408   3.515 -0.4172 -0.1141  2.9151
 5713TIP3   OH217144   5.355   2.089   2.334  0.2195 -0.3030 -0.2240
 5713TIP3    H117145   5.379   2.006   2.375  1.6148  0.1464 -0.0929
 5713TIP3    H217146   5.275   2.068   2.285 -0.5309 -1.2626  1.3008
 5714TIP3   OH217147   0.828   1.320   3.546 -0.0187 -0.3083  0.8050
 5714TIP3    H117148   0.803   1.229   3.529  2.0019 -0.7392 -0.2284
 5714TIP3    H217149   0.857   1.352   3.460  0.2802  0.9653  1.3716
 5715TIP3   OH217150   5.182   1.628   2.426  0.5650 -0.2927  0.1815
 5715TIP3    H117151   5.206   1.553   2.479  0.0479 -0.5341  0.0810
 5715TIP3    H217152   5.087   1.622   2.417  0.5697  0.1225 -0.2016
 5716TIP3   OH217153   1.060   1.790   3.593  0.3179  0.0067 -0.3588
 5716TIP3    H117154   1.093   1.701   3.580 -0.4412 -0.0807 -1.8187
 5716TIP3    H217155   1.049   1.825   3.505 -0.8275  1.0194  0.1626
 5717TIP3   OH217156   0.658   1.346   4.563 -0.2977 -0.2730  0.3278
 5717TIP3    H117157   0.627   1.283   4.629 -0.0693  0.5331  1.2250
 5717TIP3    H217158   0.577   1.383   4.526 -0.5004  1.2673  2.1251
 5718TIP3   OH217159   0.723   0.650   1.041 -0.2011  0.1475  0.7904
 5718TIP3    H117160   0.762   0.563   1.029 -0.7606 -0.4168  2.7068
 5718TIP3    H217161   0.793   0.711   1.016 -0.0091 -0.8028 -1.2130
 5719TIP3   OH217162   3.196   5.941   4.758  0.0240  0.2804  0.2084
 5719TIP3    H117163   3.254   5.895   4.697  0.1236  1.0930 -0.3369
 5719TIP3    H217164   3.243   6.022   4.779  0.3612 -0.3444  2.0308
 5720TIP3   OH217165   4.688   4.604   4.955 -0.5899  0.7804  0.2838
 5720TIP3    H117166   4.766   4.570   4.910 -1.1506  0.9287 -0.8219
 5720TIP3    H217167   4.661   4.679   4.902 -2.6306 -0.4310 -0.4811
 5721TIP3   OH217168   3.094   4.163   2.578  0.0010 -0.0701 -0.0102
 5721TIP3    H117169   3.081   4.087   2.636  0.7127 -1.3736 -1.4839
 5721TIP3    H217170   3.102   4.125   2.491 -0.3697  1.7948 -0.8982
 5722TIP3   OH217171   4.774   1.036   0.531  0.0350 -0.4457 -0.0613
 5722TIP3    H117172   4.769   0.945   0.499  1.1640 -0.0803 -1.3511
 5722TIP3    H217173   4.858   1.041   0.575  0.6316  0.3297 -1.2366
 5723TIP3   OH217174   3.828   3.399   4.096  0.2942  0.1773 -0.2143
 5723TIP3    H117175   3.861   3.358   4.017  0.1756 -0.7746  0.2168
 5723TIP3    H217176   3.898   3.457   4.125  0.6073  0.0168 -0.6482
 5724TIP3   OH217177   0.862   2.110   2.514 -0.2654 -0.1537  0.0401
 5724TIP3    H117178   0.823   2.060   2.587 -0.2179  0.1791  0.2970
 5724TIP3    H217179   0.951   2.077   2.507 -0.5254 -0.7698 -0.4103
 5725TIP3   OH217180   6.339   2.199   0.336  0.0956 -0.6018 -1.1014
 5725TIP3    H117181   6.279   2.153   0.395 -0.2078  0.9531 -0.1578
 5725TIP3    H217182   6.287   2.218   0.258 -0.7549  0.9914 -0.1740
 5726TIP3   OH217183   0.124   3.026   2.125  0.1335  0.0788  0.4764
 5726TIP3    H117184   0.200   3.037   2.183  0.0438  1.6918  0.3168
 5726TIP3    H217185   0.049   3.032   2.184  0.0864 -0.1287  0.4389
 5727TIP3   OH217186   0.650   5.978   2.316 -0.1206  0.5324  0.0146
 5727TIP3    H117187   0.739   5.950   2.294 -0.3089  0.4203 -0.6186
 5727TIP3    H217188   0.598   5.898   2.313 -0.1604  0.5176  0.8548
 5728TIP3   OH217189   1.235   4.003   0.439  0.0520 -0.0072 -0.0879
 5728TIP3    H117190   1.238   3.939   0.511  1.6174 -0.6311 -0.6555
 5728TIP3    H217191   1.274   4.082   0.476 -1.5299  0.5288  0.4988
 5729TIP3   OH217192   0.150   2.117   4.516 -0.4813 -0.1737 -0.5211
 5729TIP3    H117193   0.073   2.062   4.505 -0.9817  0.3467  0.2740
 5729TIP3    H217194   0.208   2.066   4.572 -1.5847  0.6805  1.4910
 5730TIP3   OH217195   1.221   4.506   1.954 -0.2686 -0.3589 -0.4468
 5730TIP3    H117196   1.310   4.483   1.980 -0.1326 -2.5997 -2.5516
 5730TIP3    H217197   1.192   4.569   2.020  1.0999 -3.1949  3.1639
 5731TIP3   OH217198   2.390   1.409   2.613  0.0795 -0.1294  0.3771
 5731TIP3    H117199   2.389   1.313   2.622  0.4091 -0.2681 -0.8913
 5731TIP3    H217200   2.477   1.435   2.642 -0.8535  0.1103  3.2940
 5732TIP3   OH217201   5.853   4.185   2.272  0.0679 -0.2359 -0.2557
 5732TIP3    H117202   5.849   4.257   2.209 -0.9531 -1.1931 -1.3292
 5732TIP3    H217203   5.818   4.221   2.353 -1.8396  0.0965 -1.1887
 5733TIP3   OH217204   5.577   4.828   3.616 -0.1062 -0.3750 -0.8358
 5733TIP3    H117205   5.549   4.745   3.578 -0.0046 -0.4602 -0.7257
 5733TIP3    H217206   5.502   4.856   3.670 -0.3430 -0.1374 -1.2808
 5734TIP3   OH217207   0.483   3.132   1.085 -0.0729  0.3099 -0.0031
 5734TIP3    H117208   0.527   3.176   1.158  0.2562  2.1454 -1.2441
 5734TIP3    H217209   0.548   3.130   1.015 -0.7283 -0.4394 -0.6110
 5735TIP3   OH217210   5.721   3.491   3.634 -0.0053 -0.3595 -0.2405
 5735TIP3    H117211   5.802   3.520   3.592 -0.2757 -0.1266 -0.6069
 5735TIP3    H217212   5.715   3.543   3.714 -0.9244  1.2266 -1.3095
 5736TIP3   OH217213   4.298   2.524   1.641  0.0420  0.6044  0.1653
 5736TIP3    H117214   4.262   2.519   1.553 -1.5440  3.1556  0.5637
 5736TIP3    H217215   4.296   2.434   1.674 -0.9866 -0.1151 -1.7504
 5737TIP3   OH217216   2.856   1.715   1.261 -0.0696  0.5899 -0.1936
 5737TIP3    H117217   2.948   1.693   1.248  0.2370  1.8316 -0.2700
 5737TIP3    H217218   2.850   1.808   1.239 -2.0295 -0.2014 -3.5969
 5738TIP3   OH217219   2.866   3.848   5.074  0.0133 -0.3672  0.0858
 5738TIP3    H117220   2.863   3.910   5.147 -0.0929  0.2475 -0.4365
 5738TIP3    H217221   2.852   3.763   5.115 -0.0875 -0.0265  0.7804
 5739TIP3   OH217222   1.096   0.070   0.361  0.0364 -0.0184 -0.1062
 5739TIP3    H117223   1.122  -0.022   0.364  0.9954  0.2329 -0.3894
 5739TIP3    H217224   1.002   0.067   0.344  0.2135 -0.9360 -1.0348
 5740TIP3   OH217225   5.662   2.658   2.532 -0.1510  0.1293  0.1876
 5740TIP3    H117226   5.682   2.734   2.477 -0.6188  0.9605  1.1342
 5740TIP3    H217227   5.748   2.620   2.552 -0.0014 -0.6997 -1.7598
 5741TIP3   OH217228   0.716   3.426   0.889  0.0139  0.2274 -0.4307
 5741TIP3    H117229   0.734   3.506   0.937 -1.0349  0.3278 -0.1936
 5741TIP3    H217230   0.626   3.435   0.859  0.2858 -0.3218 -1.4753
 5742TIP3   OH217231   2.427   4.099   4.022 -0.0199  0.1670 -0.2531
 5742TIP3    H117232   2.427   4.188   4.057  0.4569 -0.3639  1.1801
 5742TIP3    H217233   2.436   4.110   3.928  0.7850  1.6190 -0.0360
 5743TIP3   OH217234   2.584   2.723   0.705  0.5779  0.2172 -0.7913
 5743TIP3    H117235   2.542   2.680   0.631 -2.5523  0.9307  0.4340
 5743TIP3    H217236   2.603   2.652   0.766  0.5573 -0.0448 -1.0856
 5744TIP3   OH217237   5.198   5.081   3.626 -0.1329  0.2959  0.1021
 5744TIP3    H117238   5.140   5.085   3.702  0.3309 -2.6249  0.7268
 5744TIP3    H217239   5.138   5.080   3.551 -0.6507  1.6807  0.4571
 5745TIP3   OH217240   0.802   1.239   2.580  0.9013  0.1374  0.7778
 5745TIP3    H117241   0.709   1.261   2.577  0.7697 -0.4742 -0.0156
 5745TIP3    H217242   0.846   1.313   2.538  0.6329 -0.2107 -0.1493
 5746TIP3   OH217243   3.553   4.931   3.099  0.2802 -0.2974  0.4856
 5746TIP3    H117244   3.528   4.931   3.192  1.2304 -0.7881  0.7533
 5746TIP3    H217245   3.622   4.865   3.093  0.8638  0.3726 -0.4064
 5747TIP3   OH217246   3.355   0.515   0.868 -0.1626 -0.2982 -0.3371
 5747TIP3    H117247   3.298   0.442   0.848  1.8285 -2.1018  0.1971
 5747TIP3    H217248   3.386   0.546   0.783 -0.0665 -0.8838 -0.5161
 5748TIP3   OH217249   6.108   0.761   0.050 -0.3574 -0.5658 -0.3640
 5748TIP3    H117250   6.153   0.754  -0.034 -0.6262  0.1488 -0.5731
 5748TIP3    H217251   6.178   0.777   0.113 -0.2983  0.5361 -0.6866
 5749TIP3   OH217252   4.292   5.912   4.954 -0.9830  0.4038  0.0444
 5749TIP3    H117253   4.247   5.994   4.975 -1.4607 -0.0673  0.8937
 5749TIP3    H217254   4.249   5.846   5.008 -1.6471 -0.7182 -1.7413
 5750TIP3   OH217255   0.074   4.731   1.683 -0.1622 -0.1275 -0.1777
 5750TIP3    H117256   0.002   4.779   1.642 -1.2692  0.3992  2.2305
 5750TIP3    H217257   0.091   4.777   1.765  2.7770 -0.4218 -0.5112
 5751TIP3   OH217258   1.189   4.217   3.609  1.1090 -0.4266 -0.0995
 5751TIP3    H117259   1.176   4.312   3.597 -0.8867 -0.5497  0.7238
 5751TIP3    H217260   1.247   4.210   3.685  1.4850  0.1354 -0.3298
 5752TIP3   OH217261   4.315   4.775   4.994  0.3069 -0.1107 -0.3176
 5752TIP3    H117262   4.314   4.802   5.086 -1.3456 -1.6416  0.1648
 5752TIP3    H217263   4.232   4.806   4.959  0.5711 -0.2563 -1.0939
 5753TIP3   OH217264   4.919   1.610   2.385  0.0299  0.4838  0.5133
 5753TIP3    H117265   4.851   1.633   2.322 -0.1138 -2.0417 -0.3757
 5753TIP3    H217266   4.884   1.637   2.470 -2.4940 -1.4033  0.1814
 5754TIP3   OH217267   1.090   5.828   3.174 -0.1999  0.0259 -0.4774
 5754TIP3    H117268   1.136   5.804   3.094 -0.7257  1.0975 -1.1252
 5754TIP3    H217269   1.104   5.923   3.182  0.0800 -0.1135  0.8548
 5755TIP3   OH217270   6.076   2.193   1.314 -0.3141  0.1846 -0.3740
 5755TIP3    H117271   6.139   2.121   1.312  0.9613  1.2689 -0.9947
 5755TIP3    H217272   6.104   2.252   1.243 -1.2011  1.3724  0.2159
 5756TIP3   OH217273   0.641   0.979   5.047  0.0263  0.5364 -0.2275
 5756TIP3    H117274   0.700   0.921   5.096 -0.6087  0.1039  0.0401
 5756TIP3    H217275   0.557   0.971   5.092 -0.3454  0.8229 -0.8558
 5757TIP3   OH217276   0.730   5.899   5.122  0.6809  0.3687  0.4509
 5757TIP3    H117277   0.703   5.943   5.203  0.7213  0.9334  0.1604
 5757TIP3    H217278   0.824   5.916   5.116  0.7402  0.0510  0.4502
 5758TIP3   OH217279   2.509   2.549   1.438  0.0518 -0.1558 -0.4538
 5758TIP3    H117280   2.416   2.568   1.442  0.4881  2.2198  0.4768
 5758TIP3    H217281   2.527   2.497   1.516 -0.6220 -1.4616 -1.1478
 5759TIP3   OH217282   1.419   0.114   1.494 -0.4225 -0.6725 -0.0957
 5759TIP3    H117283   1.426   0.120   1.399 -0.6092  2.0952 -0.0344
 5759TIP3    H217284   1.506   0.087   1.523  0.2961  0.5506 -0.9927
 5760TIP3   OH217285   1.445   0.531   3.606  0.0608  0.0432  0.1456
 5760TIP3    H117286   1.469   0.545   3.698  1.7807 -1.4336 -0.0278
 5760TIP3    H217287   1.527   0.511   3.563 -0.7909  0.2482 -1.6525
 5761TIP3   OH217288   1.922   1.352   3.605 -0.0869  0.2294  0.3665
 5761TIP3    H117289   1.853   1.287   3.597 -0.4239  0.7059 -0.9008
 5761TIP3    H217290   1.880   1.435   3.582  1.1128  0.3792 -1.5807
 5762TIP3   OH217291   4.141   2.416   2.932 -0.0247 -0.0575 -0.9317
 5762TIP3    H117292   4.079   2.356   2.891 -0.0525 -0.4041 -0.4003
 5762TIP3    H217293   4.106   2.430   3.020  1.5965 -1.7412  0.0554
 5763TIP3   OH217294   6.258   2.324   1.492 -0.5015 -0.2821  0.2378
 5763TIP3    H117295   6.260   2.232   1.517  0.7998 -0.2821  0.2174
 5763TIP3    H217296   6.213   2.325   1.407 -0.4424 -0.9079  0.1953
 5764TIP3   OH217297   4.183   2.812   1.897  0.3841 -0.0740 -0.2525
 5764TIP3    H117298   4.165   2.823   1.803 -0.3416 -1.2073 -0.2739
 5764TIP3    H217299   4.276   2.790   1.901  0.1802 -1.1721 -0.8495
 5765TIP3   OH217300   3.148   4.330   1.159 -0.1105 -0.4693 -0.2151
 5765TIP3    H117301   3.076   4.393   1.154  0.6182  0.4699  0.7181
 5765TIP3    H217302   3.148   4.287   1.073 -1.8260 -0.5630 -0.1990
 5766TIP3   OH217303   4.830   4.961   4.177 -0.5505  0.2634 -0.5299
 5766TIP3    H117304   4.829   4.872   4.142  0.4148 -0.1248  0.3863
 5766TIP3    H217305   4.833   5.017   4.100 -1.3226 -0.4860 -1.1261
 5767TIP3   OH217306   3.093   2.586   1.028 -0.2974 -0.3887  0.3012
 5767TIP3    H117307   3.147   2.515   1.063 -0.4597 -0.4159  0.5006
 5767TIP3    H217308   3.064   2.555   0.942 -1.0903 -0.9440  0.7503
 5768TIP3   OH217309   3.521   5.709   1.524 -0.6495 -0.2799 -0.0206
 5768TIP3    H117310   3.485   5.620   1.524 -0.6928 -0.3152  1.8439
 5768TIP3    H217311   3.616   5.696   1.522 -0.6688 -0.3073 -1.1794
 5769TIP3   OH217312   1.096   0.082   1.923 -0.8178  0.1330 -0.0755
 5769TIP3    H117313   1.084  -0.013   1.925  0.7345 -0.1698  3.2656
 5769TIP3    H217314   1.181   0.094   1.881  0.5322 -0.3888  2.2593
 5770TIP3   OH217315   0.771   0.555   3.697 -0.7440  0.1784 -0.6413
 5770TIP3    H117316   0.773   0.648   3.722 -0.3809  0.2329 -0.8648
 5770TIP3    H217317   0.683   0.542   3.663 -1.6488 -0.1656  1.6428
 5771TIP3   OH217318   0.535   1.231   4.025  0.0858 -0.1079  0.1905
 5771TIP3    H117319   0.629   1.250   4.030 -0.2613  1.4526  1.4106
 5771TIP3    H217320   0.517   1.176   4.101 -0.2971  1.1379  1.0292
 5772TIP3   OH217321   3.588   4.206   2.706 -0.1905 -0.6411 -0.4710
 5772TIP3    H117322   3.648   4.190   2.778 -1.8746  1.5914  1.5722
 5772TIP3    H217323   3.644   4.236   2.634  1.2070  1.4231  1.3698
 5773TIP3   OH217324   3.438   5.240   5.030  0.1323 -0.2470  0.3217
 5773TIP3    H117325   3.489   5.225   5.110  0.2456 -0.1353  0.2716
 5773TIP3    H217326   3.426   5.153   4.993  0.3889 -0.2627  0.2737
 5774TIP3   OH217327   0.619   5.139   0.068  0.0948 -0.2753  0.1077
 5774TIP3    H117328   0.638   5.079  -0.004  0.6975  0.4762 -0.3832
 5774TIP3    H217329   0.525   5.128   0.083  0.0027 -0.6254 -0.6412
 5775TIP3   OH217330   4.478   3.461   1.118  0.0972 -0.2057 -0.6754
 5775TIP3    H117331   4.406   3.523   1.120  1.5835  1.5908  1.4072
 5775TIP3    H217332   4.464   3.406   1.195  1.8159  1.3408  0.8406
 5776TIP3   OH217333   0.201   2.685   4.271 -0.4115  0.4917  0.0976
 5776TIP3    H117334   0.248   2.738   4.335  0.6352  1.0934 -1.1109
 5776TIP3    H217335   0.195   2.741   4.193 -1.7504 -0.1662 -0.3068
 5777TIP3   OH217336   0.749   5.655   3.381 -0.3638  0.3685 -0.2030
 5777TIP3    H117337   0.802   5.664   3.301 -2.1097 -2.2580 -1.8295
 5777TIP3    H217338   0.668   5.613   3.351 -2.0698  1.3634  2.6470
 5778TIP3   OH217339   6.002   2.471   4.316 -0.2033  0.3950 -0.5785
 5778TIP3    H117340   5.955   2.551   4.341  0.4046  0.7776 -0.6306
 5778TIP3    H217341   6.095   2.496   4.319  0.0128 -0.4234 -0.1985
 5779TIP3   OH217342   2.974   3.986   2.740 -0.5223 -0.9614  0.1191
 5779TIP3    H117343   2.901   3.957   2.686 -0.7434 -0.6280  0.2352
 5779TIP3    H217344   2.935   4.047   2.803 -0.2672 -1.3422  0.6566
 5780TIP3   OH217345   1.826   3.472   0.603  0.0729 -0.3017 -0.3951
 5780TIP3    H117346   1.779   3.396   0.569 -0.8333 -0.7399  1.6840
 5780TIP3    H217347   1.915   3.441   0.619 -0.1732 -0.8006  0.0135
 5781TIP3   OH217348   3.933   0.522   1.419 -0.0162 -0.8845  0.2127
 5781TIP3    H117349   3.975   0.571   1.348  0.1699 -2.2003 -0.6341
 5781TIP3    H217350   3.844   0.505   1.387  0.2616 -2.0300 -0.0292
 5782TIP3   OH217351   4.332   5.725   2.094 -0.1836 -0.2076 -0.0748
 5782TIP3    H117352   4.416   5.713   2.137 -0.3541  2.9019  1.4219
 5782TIP3    H217353   4.273   5.755   2.164 -2.1478 -0.8608 -1.3582
 5783TIP3   OH217354   3.424   0.598   2.216 -0.1293  0.2505 -0.2222
 5783TIP3    H117355   3.408   0.504   2.226  2.1640 -0.1206  0.5383
 5783TIP3    H217356   3.337   0.638   2.222 -1.2789 -1.8770 -1.5896
 5784TIP3   OH217357   3.956   4.703   4.238  0.2889  0.5046 -0.1657
 5784TIP3    H117358   3.956   4.716   4.333 -0.4468  3.3865 -0.4752
 5784TIP3    H217359   3.934   4.611   4.227 -0.5559  0.3095  2.4459
 5785TIP3   OH217360   3.725   1.362   0.436  1.0683 -0.1678 -0.2409
 5785TIP3    H117361   3.721   1.268   0.455  0.6612 -0.1064 -0.0118
 5785TIP3    H217362   3.651   1.378   0.378  0.4903  0.2062  0.5832
 5786TIP3   OH217363   4.671   4.882   2.501  0.3419 -0.5068 -0.3417
 5786TIP3    H117364   4.717   4.879   2.417  0.0211 -0.5455 -0.5185
 5786TIP3    H217365   4.584   4.915   2.479  0.5255  0.2959  0.0967
 5787TIP3   OH217366   2.587   0.519   3.728 -0.0106 -0.3907  0.3410
 5787TIP3    H117367   2.582   0.455   3.799  0.5079 -1.1926 -0.3258
 5787TIP3    H217368   2.651   0.482   3.667  1.5710  1.5496  0.7217
 5788TIP3   OH217369   2.382   0.978   0.277 -0.2038 -0.1837  0.1971
 5788TIP3    H117370   2.304   1.000   0.328  0.8883  1.7865  1.1498
 5788TIP3    H217371   2.384   1.042   0.206  1.3165  0.8529  1.1016
 5789TIP3   OH217372   5.201   1.863   3.504  1.0618 -0.6536  0.6116
 5789TIP3    H117373   5.265   1.893   3.569  1.2196  1.7991 -0.5706
 5789TIP3    H217374   5.164   1.943   3.469 -1.4379 -1.9911 -0.0019
 5790TIP3   OH217375   1.453   3.856   4.709 -0.0988 -0.3337 -0.3203
 5790TIP3    H117376   1.489   3.793   4.646  1.9356  1.3803 -0.9762
 5790TIP3    H217377   1.383   3.900   4.661 -1.3143 -1.7883  0.0337
 5791TIP3   OH217378   5.981   2.550   3.404  0.6020  0.2831  0.1841
 5791TIP3    H117379   6.047   2.572   3.470  0.0847  3.9814 -0.3197
 5791TIP3    H217380   6.018   2.583   3.322 -0.9050  0.4134 -0.4641
 5792TIP3   OH217381   3.175   3.717   4.883 -0.1909 -0.1304 -0.6376
 5792TIP3    H117382   3.223   3.669   4.814 -2.2419  0.6529 -2.7223
 5792TIP3    H217383   3.098   3.663   4.900 -0.8446  0.8074 -0.5948
 5793TIP3   OH217384   5.465   1.900   1.782 -0.1774  0.0482  0.2259
 5793TIP3    H117385   5.402   1.924   1.850 -0.1046  0.5538  0.1187
 5793TIP3    H217386   5.411   1.876   1.707 -0.2887 -1.5002  0.7662
 5794TIP3   OH217387   3.855   1.148   1.700  0.2127 -0.0654  0.1096
 5794TIP3    H117388   3.893   1.151   1.613  0.5449  3.6819  0.2286
 5794TIP3    H217389   3.764   1.176   1.687  0.1279  0.0526  0.9015
 5795TIP3   OH217390   4.299   5.553   0.275  0.0210  0.3179  0.3971
 5795TIP3    H117391   4.261   5.475   0.316  1.8611 -0.4584  0.7032
 5795TIP3    H217392   4.289   5.622   0.341  0.2132 -0.1620  0.9326
 5796TIP3   OH217393   3.510   1.862   4.903  0.1583 -0.0721  0.1658
 5796TIP3    H117394   3.431   1.865   4.957  1.4879  1.6006  2.1560
 5796TIP3    H217395   3.539   1.771   4.908 -0.7818 -0.3533  0.6811
 5797TIP3   OH217396   2.993   0.502   3.914 -0.2902  0.1612 -0.1024
 5797TIP3    H117397   2.899   0.511   3.906 -0.0851  1.7454 -1.1670
 5797TIP3    H217398   3.014   0.423   3.864 -1.1459 -0.8685  1.1162
 5798TIP3   OH217399   2.753   2.403   4.863  0.3476  0.3977  0.2023
 5798TIP3    H117400   2.691   2.330   4.860  0.2774  0.4054  1.1199
 5798TIP3    H217401   2.837   2.363   4.838  0.2010  0.1208  0.1455
 5799TIP3   OH217402   1.447   4.214   0.951 -0.0924 -0.1151  0.3076
 5799TIP3    H117403   1.388   4.277   0.909 -0.2859 -0.4477  0.0822
 5799TIP3    H217404   1.421   4.129   0.916  0.9929 -0.1956 -0.3370
 5800TIP3   OH217405   3.922   1.440   4.867  0.0845  0.3412  0.1654
 5800TIP3    H117406   3.857   1.488   4.815 -0.5286 -0.2125  0.4092
 5800TIP3    H217407   3.873   1.407   4.943  1.1164  1.7947  1.5350
 5801TIP3   OH217408   1.683   5.627   3.772  0.1863 -0.7463 -0.4939
 5801TIP3    H117409   1.637   5.686   3.833  2.4510  0.2712  0.3430
 5801TIP3    H217410   1.666   5.664   3.686  1.3928  1.1035  0.0019
 5802TIP3   OH217411   0.043   3.347   1.325  0.3769 -0.8583  0.0872
 5802TIP3    H117412   0.093   3.416   1.369 -0.0124 -0.1634 -0.5343
 5802TIP3    H217413  -0.048   3.371   1.338  0.2476 -0.9185 -0.6521
 5803TIP3   OH217414   3.003   5.904   3.409 -0.2435  0.0452  0.1710
 5803TIP3    H117415   3.014   5.904   3.504  5.2943  0.2705 -0.1485
 5803TIP3    H217416   3.057   5.978   3.378 -0.6920 -0.8419 -3.2053
 5804TIP3   OH217417   3.359   0.685   4.450  0.4895  0.2992  0.5015
 5804TIP3    H117418   3.342   0.716   4.539 -0.2476  0.4411  0.3216
 5804TIP3    H217419   3.454   0.692   4.439  0.6561 -0.2909  1.4823
 5805TIP3   OH217420   2.822   3.126   3.337 -0.0805  0.1921 -0.1356
 5805TIP3    H117421   2.781   3.210   3.357 -1.2675 -0.8527  2.2605
 5805TIP3    H217422   2.902   3.125   3.390 -0.3181 -0.3407  0.2294
 5806TIP3   OH217423   2.920   2.027   2.988 -0.0918  0.4579  0.5429
 5806TIP3    H117424   2.827   2.020   2.968  0.5253 -1.7575 -1.9744
 5806TIP3    H217425   2.927   2.000   3.080 -2.0438  2.2348  1.2941
 5807TIP3   OH217426   4.466   2.115   3.235 -0.4571 -0.3861 -0.3372
 5807TIP3    H117427   4.542   2.072   3.274  1.2780  1.0213 -1.9596
 5807TIP3    H217428   4.440   2.057   3.164 -1.1943 -1.0543  0.4498
 5808TIP3   OH217429   3.106   1.666   1.164 -0.1640 -0.0874  0.6186
 5808TIP3    H117430   3.179   1.603   1.159 -0.5486 -0.5086  0.1574
 5808TIP3    H217431   3.148   1.749   1.188  0.1194 -0.9396  3.5360
 5809TIP3   OH217432   3.959   3.754   2.854 -0.1885  0.0415  0.6571
 5809TIP3    H117433   3.928   3.701   2.928 -0.0684 -0.5900  0.2583
 5809TIP3    H217434   4.053   3.761   2.868 -0.1478 -0.1807  0.5023
 5810TIP3   OH217435   1.132   4.564   4.634 -0.0994  0.5289  0.2559
 5810TIP3    H117436   1.182   4.630   4.587 -1.1939 -0.6773 -2.8527
 5810TIP3    H217437   1.068   4.615   4.684 -0.5530  1.9104 -1.5976
 5811TIP3   OH217438   3.974   4.147   3.152  0.3487 -0.0092  0.1460
 5811TIP3    H117439   4.030   4.125   3.077  0.2367 -1.8973  0.5675
 5811TIP3    H217440   3.894   4.097   3.138  1.2256 -2.3145  2.6368
 5812TIP3   OH217441   2.980   5.771   4.235 -0.2329 -0.1354  0.4498
 5812TIP3    H117442   2.972   5.693   4.181 -1.6616  0.8769 -0.8831
 5812TIP3    H217443   3.063   5.811   4.207  0.1611 -0.7831  0.6521
 5813TIP3   OH217444   1.632   5.827   4.034  0.4912 -0.2079  0.1776
 5813TIP3    H117445   1.538   5.813   4.033  0.6889 -1.6429 -0.0501
 5813TIP3    H217446   1.642   5.921   4.018 -0.8743 -0.1384 -0.4230
 5814TIP3   OH217447   0.877   2.925   0.268  0.1160  0.4232 -0.0955
 5814TIP3    H117448   0.930   2.907   0.345 -1.4880 -1.5572  0.6454
 5814TIP3    H217449   0.816   2.993   0.296 -0.6227 -0.4610  0.5044
 5815TIP3   OH217450   4.621   1.598   3.060 -0.1494  0.4216 -0.2066
 5815TIP3    H117451   4.539   1.569   3.100  0.2567 -0.7769 -0.1916
 5815TIP3    H217452   4.605   1.593   2.966  0.3452 -1.3142 -0.2479
 5816TIP3   OH217453   2.114   5.968   4.829  0.1189 -0.0636 -0.2817
 5816TIP3    H117454   2.172   5.893   4.838  0.9347  0.7938  2.5439
 5816TIP3    H217455   2.084   5.964   4.738  0.6470 -3.3726 -0.4266
 5817TIP3   OH217456   2.190   0.444   1.479  0.0266 -0.2721 -0.0989
 5817TIP3    H117457   2.263   0.383   1.470  0.6568  0.2081  1.4711
 5817TIP3    H217458   2.137   0.410   1.551  0.0109  0.6408  0.3447
 5818TIP3   OH217459   4.335   4.768   4.310  0.2199  0.3690 -0.0748
 5818TIP3    H117460   4.400   4.724   4.255  0.5009  1.5633 -0.7553
 5818TIP3    H217461   4.257   4.772   4.255  0.2420  0.8332 -0.0765
 5819TIP3   OH217462   0.272   0.442   1.727 -0.1394  0.7995  0.1980
 5819TIP3    H117463   0.339   0.477   1.786 -0.0513  1.1018 -0.0771
 5819TIP3    H217464   0.295   0.350   1.717  1.0754  1.1996 -0.9920
 5820TIP3   OH217465   4.461   3.687   4.892 -0.4732  0.2102  0.0684
 5820TIP3    H117466   4.527   3.631   4.934  1.6552  1.1655 -1.7893
 5820TIP3    H217467   4.475   3.773   4.931 -1.3219  0.2127  0.3741
 5821TIP3   OH217468   6.317   3.761   2.935 -0.4111  0.2843  0.0584
 5821TIP3    H117469   6.335   3.810   2.855 -0.9710  1.2234  0.4819
 5821TIP3    H217470   6.275   3.680   2.906 -1.2186  0.9105 -0.5695
 5822TIP3   OH217471   2.610   2.811   1.484 -0.5041 -0.2749  0.3791
 5822TIP3    H117472   2.562   2.728   1.481 -0.4426 -0.3223  0.6836
 5822TIP3    H217473   2.701   2.787   1.465 -0.3879 -0.3600  0.9964
 5823TIP3   OH217474   6.099   0.387   3.047 -0.0593 -0.1301 -0.1489
 5823TIP3    H117475   6.187   0.352   3.035  0.2433  0.5890 -0.1196
 5823TIP3    H217476   6.047   0.344   2.980  0.5247  0.1083 -0.7712
 5824TIP3   OH217477   0.834   3.696   1.855  0.9058  0.4300 -0.6572
 5824TIP3    H117478   0.803   3.754   1.925  0.6705  2.6164 -2.4523
 5824TIP3    H217479   0.777   3.620   1.859  0.8527  0.5325  1.4488
 5825TIP3   OH217480   2.217   0.171   4.830  0.2553  0.2306 -0.1776
 5825TIP3    H117481   2.299   0.123   4.821  0.5526  1.0133 -2.1339
 5825TIP3    H217482   2.236   0.241   4.892  0.9777  0.1896 -0.3428
 5826TIP3   OH217483   0.611   0.198   5.069 -0.3058 -0.0711  0.0588
 5826TIP3    H117484   0.612   0.275   5.012  0.7161 -1.0655 -1.3653
 5826TIP3    H217485   0.635   0.126   5.011 -2.3004 -1.6711  1.0812
 5827TIP3   OH217486   2.120   0.650   3.088  0.2237 -0.1717  0.1162
 5827TIP3    H117487   2.077   0.735   3.099 -0.8803 -0.8638  1.4355
 5827TIP3    H217488   2.122   0.613   3.176  1.6550 -1.0803 -0.2703
 5828TIP3   OH217489   3.084   1.488   0.581  0.0492 -0.4507 -0.0347
 5828TIP3    H117490   3.176   1.503   0.558 -0.4029 -0.3603 -1.9123
 5828TIP3    H217491   3.078   1.393   0.594  0.5320 -0.3820  0.8042
 5829TIP3   OH217492   0.614   0.664   5.144  0.3059 -0.2555 -0.0798
 5829TIP3    H117493   0.696   0.714   5.135  0.7394 -0.6218  1.6094
 5829TIP3    H217494   0.630   0.604   5.216 -1.8289  0.4076  1.0082
 5830TIP3   OH217495   5.127   4.878   0.522 -0.3295 -0.1730 -0.0340
 5830TIP3    H117496   5.151   4.971   0.515  0.5653 -0.3007  0.9512
 5830TIP3    H217497   5.139   4.843   0.434 -0.2233  0.5473 -0.3144
 5831TIP3   OH217498   1.969   5.037   5.072 -0.0062 -0.3587 -0.6628
 5831TIP3    H117499   2.042   5.019   5.131 -0.6878 -1.6044 -0.1700
 5831TIP3    H217500   1.935   5.122   5.103 -0.0952 -0.7962  0.4855
 5832TIP3   OH217501   5.863   4.087   0.077  0.9127  0.4132  0.0158
 5832TIP3    H117502   5.893   3.996   0.086  0.3764  0.3745  1.7770
 5832TIP3    H217503   5.932   4.130   0.026  0.0942 -1.4563 -2.9313
 5833TIP3   OH217504   5.542   4.974   1.923  0.3922  0.0639 -0.1116
 5833TIP3    H117505   5.637   4.990   1.922  0.4925 -0.4592  0.3044
 5833TIP3    H217506   5.533   4.882   1.899 -0.2124  0.8464 -3.2528
 5834TIP3   OH217507   4.903   2.445   1.400 -0.3482 -0.3317 -0.0086
 5834TIP3    H117508   4.812   2.474   1.410 -0.3288 -0.5818  0.9641
 5834TIP3    H217509   4.954   2.525   1.406 -0.4964 -0.1903 -0.5523
 5835TIP3   OH217510   4.746   0.087   3.314 -0.5248  0.0787 -0.3106
 5835TIP3    H117511   4.729   0.148   3.386 -0.3279 -1.2050  0.8541
 5835TIP3    H217512   4.763   0.143   3.239 -1.7752  1.4585  0.3889
 5836TIP3   OH217513   2.561   1.655   4.121  0.0820 -0.4578  0.2194
 5836TIP3    H117514   2.645   1.628   4.083 -0.0705 -1.2525  0.4176
 5836TIP3    H217515   2.552   1.747   4.097  0.8181 -0.4744 -0.1549
 5837TIP3   OH217516   5.974   3.761   3.027  1.0369  0.3622  0.0901
 5837TIP3    H117517   5.923   3.790   3.103  0.1241 -0.0880 -0.3382
 5837TIP3    H217518   5.977   3.665   3.035 -2.0887 -0.0888 -2.2292
 5838TIP3   OH217519   4.178   4.210   1.730  0.1593 -0.1919 -0.2664
 5838TIP3    H117520   4.107   4.259   1.690  0.3436 -0.6297 -1.1546
 5838TIP3    H217521   4.245   4.204   1.662  0.8215 -0.2540  0.3746
 5839TIP3   OH217522   1.915   2.335   2.883 -0.0713 -0.2247 -0.4601
 5839TIP3    H117523   1.997   2.286   2.878  1.1096  1.5899  0.1676
 5839TIP3    H217524   1.884   2.340   2.792  2.0690  1.4982 -1.1725
 5840TIP3   OH217525   4.413   4.130   3.740 -0.1450 -0.4860 -0.8502
 5840TIP3    H117526   4.429   4.186   3.816 -4.0719 -0.9485  0.5206
 5840TIP3    H217527   4.381   4.190   3.673  0.6819 -0.4434 -1.2157
 5841TIP3   OH217528   4.238   0.324   2.309 -0.2429  0.2467  0.3817
 5841TIP3    H117529   4.327   0.337   2.275  0.2027  2.3065  2.1081
 5841TIP3    H217530   4.191   0.402   2.280 -1.7491 -1.1399 -1.0929
 5842TIP3   OH217531   2.743   4.990   0.641  0.6079 -0.1641 -0.2072
 5842TIP3    H117532   2.814   4.990   0.576  1.4525  0.3647  0.6769
 5842TIP3    H217533   2.665   4.967   0.591  1.0838  1.0293 -1.5771
 5843TIP3   OH217534   3.457   0.413   5.139  0.1099 -0.2224 -0.4821
 5843TIP3    H117535   3.483   0.501   5.167 -1.3063 -0.5571  2.1751
 5843TIP3    H217536   3.481   0.356   5.212 -1.1549 -1.6610 -1.1271
 5844TIP3   OH217537   1.564   5.357   3.652  0.5758 -0.6067  0.0371
 5844TIP3    H117538   1.540   5.422   3.719  2.5915 -2.2113  2.5409
 5844TIP3    H217539   1.491   5.295   3.653 -0.5843  0.6494 -1.1815
 5845TIP3   OH217540   1.965   1.357   0.286  0.1200 -0.2301 -0.3286
 5845TIP3    H117541   2.056   1.328   0.278 -0.0261 -0.8200  0.0468
 5845TIP3    H217542   1.938   1.326   0.372 -0.5479 -0.3921 -0.5875
 5846TIP3   OH217543   2.073   5.406   4.840  0.2846 -0.0739  0.2574
 5846TIP3    H117544   2.168   5.404   4.856  0.2041 -0.1383  0.7487
 5846TIP3    H217545   2.060   5.343   4.769  0.5859 -0.2318  0.3365
 5847TIP3   OH217546   2.104   4.951   4.130 -0.3593  0.8117 -0.3187
 5847TIP3    H117547   2.120   4.862   4.100  0.3429  1.6028 -2.4765
 5847TIP3    H217548   2.189   4.994   4.124 -1.0149  2.0557 -0.8845
 5848TIP3   OH217549   5.997   3.154   1.987  0.1835  0.0635  0.5731
 5848TIP3    H117550   6.042   3.234   2.016  1.2803  0.4051 -1.7842
 5848TIP3    H217551   5.930   3.185   1.926  0.9872 -0.7979 -0.8005
 5849TIP3   OH217552   4.958   4.651   1.392 -0.1015  0.8302 -0.0229
 5849TIP3    H117553   4.998   4.586   1.334  0.5679 -0.9820  2.3197
 5849TIP3    H217554   4.881   4.608   1.427  1.1479  0.6230  2.6955
 5850TIP3   OH217555   3.032   5.070   0.759  0.0781 -0.0385  0.2713
 5850TIP3    H117556   3.030   4.978   0.783  0.1838 -0.4848 -1.3057
 5850TIP3    H217557   3.001   5.072   0.668  0.1879  1.4642  0.2372
 5851TIP3   OH217558   4.036   5.334   1.024  0.3475 -0.4117 -0.2204
 5851TIP3    H117559   4.028   5.244   0.994  3.7830 -0.7984 -0.3025
 5851TIP3    H217560   4.010   5.387   0.949 -0.8598 -1.3023 -0.4568
 5852TIP3   OH217561   5.962   0.219   0.229 -0.3662 -0.2839 -0.1441
 5852TIP3    H117562   5.979   0.280   0.301 -1.1416 -0.4502  0.1972
 5852TIP3    H217563   5.931   0.274   0.157  2.3030  0.1345 -1.0829
 5853TIP3   OH217564   3.347   4.286   0.440 -0.7029  0.2162  0.4212
 5853TIP3    H117565   3.364   4.378   0.422  0.4874  0.3365  1.9555
 5853TIP3    H217566   3.273   4.264   0.383 -0.4671  1.8694 -0.6025
 5854TIP3   OH217567   5.529   2.905   0.645 -0.5080  0.4322 -0.3137
 5854TIP3    H117568   5.526   2.815   0.612 -0.8221 -0.4829  2.0260
 5854TIP3    H217569   5.450   2.913   0.699  1.7215  0.4997  3.2347
 5855TIP3   OH217570   1.323   2.817   1.704  0.3075 -0.1891  0.0099
 5855TIP3    H117571   1.315   2.803   1.798 -0.1122  0.3120  0.0540
 5855TIP3    H217572   1.242   2.861   1.679  0.3538 -0.4395 -0.6113
 5856TIP3   OH217573   5.132   4.454   4.325  0.3471 -0.2099 -0.5978
 5856TIP3    H117574   5.131   4.526   4.388  1.1081  0.2255 -1.0572
 5856TIP3    H217575   5.050   4.462   4.277 -0.5495 -0.9576  0.7711
 5857TIP3   OH217576   2.532   0.173   3.820  0.2463 -0.1081 -0.5730
 5857TIP3    H117577   2.467   0.228   3.774  0.1783  0.4121  0.1356
 5857TIP3    H217578   2.557   0.224   3.896  1.8939 -0.0764 -1.1004
 5858TIP3   OH217579   2.753   0.937   0.681 -0.2308 -0.3215 -0.3873
 5858TIP3    H117580   2.683   1.000   0.666  1.0880  1.1393 -0.6582
 5858TIP3    H217581   2.833   0.981   0.651  0.7102 -2.2769 -0.9654
 5859TIP3   OH217582   2.426   0.985   0.933  0.0387  0.2947 -0.4111
 5859TIP3    H117583   2.361   1.054   0.946 -1.3742 -0.6040 -2.2242
 5859TIP3    H217584   2.390   0.909   0.980  1.4534  0.6634  1.3525
 5860TIP3   OH217585   2.046   2.122   2.398  0.2811  0.0220 -0.0533
 5860TIP3    H117586   2.109   2.067   2.444 -1.1236 -0.9424  0.8032
 5860TIP3    H217587   1.986   2.060   2.355 -2.2435  0.7405  2.1552
 5861TIP3   OH217588   0.536   2.513   5.046 -0.4314 -0.7185 -0.4012
 5861TIP3    H117589   0.619   2.479   5.011  0.1682  0.2797 -0.0018
 5861TIP3    H217590   0.472   2.496   4.977  0.2327 -0.9578 -0.9740
 5862TIP3   OH217591   0.858   5.470   4.423  0.2795  0.1778  0.1737
 5862TIP3    H117592   0.895   5.551   4.388 -0.0024  0.6078  0.8549
 5862TIP3    H217593   0.892   5.465   4.513 -1.9651  1.0502  1.1399
 5863TIP3   OH217594   3.312   4.311   0.756  0.0848 -0.2625  0.0216
 5863TIP3    H117595   3.403   4.317   0.727  0.0095 -1.8935 -0.6718
 5863TIP3    H217596   3.263   4.295   0.675 -0.4901 -1.9164  0.6465
 5864TIP3   OH217597   2.789   3.818   3.755  0.1503  0.2947 -0.6336
 5864TIP3    H117598   2.807   3.910   3.776  0.5853 -0.1943  1.3695
 5864TIP3    H217599   2.719   3.822   3.690 -0.5943  2.0335  0.2006
 5865TIP3   OH217600   1.896   3.820   0.806 -0.2543 -0.0483 -0.0066
 5865TIP3    H117601   1.820   3.872   0.832 -0.8990 -1.5186  1.2237
 5865TIP3    H217602   1.942   3.801   0.888  2.5892  2.3714 -0.8745
 5866TIP3   OH217603   5.225   5.811   2.042 -0.4094  0.5760 -0.5214
 5866TIP3    H117604   5.279   5.873   2.091 -0.8127  0.1585  0.4636
 5866TIP3    H217605   5.288   5.757   1.994 -0.0388  1.3956 -0.9818
 5867TIP3   OH217606   2.653   3.586   4.966  0.2529  0.1667 -0.4272
 5867TIP3    H117607   2.600   3.507   4.976 -0.7804  0.9256  0.3448
 5867TIP3    H217608   2.591   3.652   4.935  0.9052  0.8961 -0.1907
 5868TIP3   OH217609   2.294   0.196   0.950  0.1508 -0.1140 -0.1825
 5868TIP3    H117610   2.358   0.208   1.020  0.7509  0.6606 -0.8385
 5868TIP3    H217611   2.343   0.153   0.879 -0.0672  0.4036 -0.6574
 5869TIP3   OH217612   5.651   5.578   4.173  0.2167 -0.3134  0.3426
 5869TIP3    H117613   5.710   5.550   4.243  0.6429 -0.1355  0.0595
 5869TIP3    H217614   5.696   5.554   4.093 -1.0630 -2.1500  0.1099
 5870TIP3   OH217615   0.221   5.672   1.082  0.0475 -0.4455 -0.4388
 5870TIP3    H117616   0.196   5.718   1.002  1.5960  1.0743 -0.1046
 5870TIP3    H217617   0.159   5.705   1.148 -1.3814 -1.8757 -0.9853
 5871TIP3   OH217618   2.549   0.854   0.002  0.0303 -0.3047 -0.2766
 5871TIP3    H117619   2.563   0.836   0.095 -0.4774 -0.2501 -0.1872
 5871TIP3    H217620   2.637   0.849  -0.037  0.3495  0.4224  0.3292
 5872TIP3   OH217621   4.283   1.787   2.100 -0.1454 -0.2359  0.7393
 5872TIP3    H117622   4.308   1.708   2.053 -0.6998 -1.3622  2.2658
 5872TIP3    H217623   4.264   1.851   2.031 -0.4491 -1.6589 -0.5435
 5873TIP3   OH217624   5.230   5.341   5.076  0.0754  0.0275  0.4866
 5873TIP3    H117625   5.309   5.395   5.080  0.1400 -0.0979  1.0033
 5873TIP3    H217626   5.190   5.364   4.992  1.6227 -1.2793 -0.6734
 5874TIP3   OH217627   0.547   3.119   3.207  0.0425  0.1747  0.3485
 5874TIP3    H117628   0.561   3.204   3.167  1.2015 -0.7884 -1.4008
 5874TIP3    H217629   0.488   3.073   3.146  1.6997 -1.2552 -0.2436
 5875TIP3   OH217630   1.432   2.558   4.120  0.1772 -0.3964  0.1016
 5875TIP3    H117631   1.447   2.538   4.213 -1.2901 -1.1427  0.1957
 5875TIP3    H217632   1.409   2.651   4.120 -1.9319 -0.8653  0.7892
 5876TIP3   OH217633   3.086   0.824   3.521 -0.0419 -0.1222  0.9958
 5876TIP3    H117634   3.154   0.892   3.519  0.5495 -0.6713  1.6815
 5876TIP3    H217635   3.064   0.815   3.614 -0.9714 -0.0456  0.7914
 5877TIP3   OH217636   0.532   1.994   1.839 -0.2938  0.6966 -0.7508
 5877TIP3    H117637   0.497   2.045   1.766  0.1048  1.3663 -0.4869
 5877TIP3    H217638   0.558   2.060   1.903 -0.1604  0.1349 -0.2199
 5878TIP3   OH217639   1.755   3.775   4.733 -0.3326 -0.1293 -0.1645
 5878TIP3    H117640   1.685   3.776   4.798  0.5312 -0.3383  0.7888
 5878TIP3    H217641   1.765   3.867   4.708 -0.0361  0.0871  0.7065
 5879TIP3   OH217642   5.418   5.579   2.395 -0.1351 -0.0933  0.2337
 5879TIP3    H117643   5.438   5.514   2.462 -0.8597  0.8163  1.3841
 5879TIP3    H217644   5.410   5.529   2.314 -0.6100 -1.4282  1.0670
 5880TIP3   OH217645   2.950   5.734   0.194 -0.1020  0.6926 -0.1507
 5880TIP3    H117646   2.918   5.697   0.276 -0.4175 -4.2382 -2.1637
 5880TIP3    H217647   3.044   5.747   0.208  0.4924 -3.0756  0.2659
 5881TIP3   OH217648   2.363   3.419   0.196 -0.3393  0.2036 -0.1015
 5881TIP3    H117649   2.440   3.372   0.165 -1.9840 -2.2830 -0.6570
 5881TIP3    H217650   2.323   3.456   0.117 -0.3658  0.4584  0.0301
 5882TIP3   OH217651   4.999   2.876   1.886 -0.3246  0.2510  0.3715
 5882TIP3    H117652   4.988   2.848   1.976  1.1196  0.7246  0.7139
 5882TIP3    H217653   5.051   2.956   1.891 -1.6179  1.2090 -0.7875
 5883TIP3   OH217654   1.348   0.735   2.611  0.7446  0.2727 -0.1512
 5883TIP3    H117655   1.407   0.706   2.541 -0.4699  0.7593 -1.4199
 5883TIP3    H217656   1.344   0.830   2.601  0.5093  0.3421  0.5520
 5884TIP3   OH217657   2.663   2.310   1.121  0.4383  0.2134 -0.1546
 5884TIP3    H117658   2.609   2.249   1.171 -0.1405  0.0951 -0.8946
 5884TIP3    H217659   2.714   2.254   1.062  0.2031  0.4092 -0.5538
 5885TIP3   OH217660   3.324   3.563   0.287  0.1040 -0.9927 -0.6516
 5885TIP3    H117661   3.409   3.527   0.261  1.1562  0.9236  0.0063
 5885TIP3    H217662   3.309   3.528   0.374 -0.3009 -2.1400 -1.1551
 5886TIP3   OH217663   4.959   2.175   2.063  0.9438  0.7217  0.5073
 5886TIP3    H117664   4.959   2.242   1.995 -0.8798  0.6229  0.3714
 5886TIP3    H217665   4.985   2.222   2.142 -1.9561  2.0888  0.7909
 5887TIP3   OH217666   1.093   1.679   2.144 -0.0192  0.8025 -0.2133
 5887TIP3    H117667   1.028   1.694   2.213 -0.4062  0.6806 -0.5461
 5887TIP3    H217668   1.104   1.584   2.143  1.5894  0.9176  1.1263
 5888TIP3   OH217669   2.462   4.818   2.373 -0.4535 -0.0402  0.7449
 5888TIP3    H117670   2.424   4.905   2.389  0.0097  0.1286  0.9492
 5888TIP3    H217671   2.528   4.832   2.305 -1.6636 -0.5708 -0.5956
 5889TIP3   OH217672   3.764   4.582   2.495 -0.6341  0.4977  0.4488
 5889TIP3    H117673   3.809   4.601   2.413 -1.5333  1.6696  0.2108
 5889TIP3    H217674   3.825   4.611   2.563 -0.2856  0.4069  0.1771
 5890TIP3   OH217675   0.778   2.832   0.817 -0.3031  0.0478 -0.2129
 5890TIP3    H117676   0.756   2.912   0.769  0.0752  0.3546  0.1149
 5890TIP3    H217677   0.871   2.820   0.801  0.2169  1.0702  1.7487
 5891TIP3   OH217678   3.266   3.286   0.257 -0.1041  0.1955 -0.7529
 5891TIP3    H117679   3.254   3.374   0.223  0.7979  0.2394 -0.9777
 5891TIP3    H217680   3.260   3.229   0.179  0.4763  0.1659 -0.7803
 5892TIP3   OH217681   3.948   1.636   0.333 -0.1566  0.1133  0.3514
 5892TIP3    H117682   4.015   1.588   0.383 -0.6042 -0.5913  0.2809
 5892TIP3    H217683   3.943   1.722   0.377 -0.0057 -0.2235  1.0471
 5893TIP3   OH217684   0.693   5.606   4.076 -0.3838 -0.2489  0.0029
 5893TIP3    H117685   0.740   5.539   4.027  1.1404 -1.1984  2.5749
 5893TIP3    H217686   0.621   5.631   4.018  0.8954 -1.6864 -2.4162
 5894TIP3   OH217687   3.044   3.188   4.860  0.3264 -0.2212 -0.4299
 5894TIP3    H117688   3.103   3.236   4.802  0.0133  0.5604 -0.1035
 5894TIP3    H217689   2.957   3.222   4.841 -0.3720 -2.7512 -2.3532
 5895TIP3   OH217690   1.629   4.538   3.996  0.1507 -0.2061  0.3484
 5895TIP3    H117691   1.683   4.574   4.066  0.3691  1.2637 -0.5421
 5895TIP3    H217692   1.541   4.570   4.015 -0.0495 -0.9293  0.6807
 5896TIP3   OH217693   1.455   1.168   3.668  0.7146 -0.0489  0.2419
 5896TIP3    H117694   1.398   1.160   3.744  0.6229  1.2278  0.3382
 5896TIP3    H217695   1.399   1.205   3.600  0.7376 -1.3906 -0.5434
 5897TIP3   OH217696   1.433   3.080   1.407 -0.0065 -0.2969 -0.4135
 5897TIP3    H117697   1.480   3.074   1.323 -0.3855  0.1408 -0.6655
 5897TIP3    H217698   1.464   3.163   1.444 -0.7050  0.0883 -0.6679
 5898TIP3   OH217699   4.531   5.612   1.831  0.1816 -0.5833  0.2099
 5898TIP3    H117700   4.468   5.683   1.818 -1.5346 -1.4182  2.9455
 5898TIP3    H217701   4.605   5.654   1.877 -1.1711 -0.5732  2.5405
 5899TIP3   OH217702   4.266   5.055   2.003 -0.1725  0.5216 -0.0226
 5899TIP3    H117703   4.326   4.982   1.987 -0.2899  0.2015  0.9782
 5899TIP3    H217704   4.322   5.125   2.035 -0.4260 -0.0953  1.8801
 5900TIP3   OH217705   1.528   3.322   0.779  0.0011 -0.1945 -0.3033
 5900TIP3    H117706   1.609   3.364   0.751 -0.8465  1.1667 -0.7800
 5900TIP3    H217707   1.515   3.352   0.869  1.3751 -2.5489  0.8036
 5901TIP3   OH217708   3.278   3.418   5.027  0.0848 -0.1705  0.1371
 5901TIP3    H117709   3.251   3.380   4.943 -1.6838  0.4795  0.3707
 5901TIP3    H217710   3.335   3.351   5.066 -0.9486 -1.4981 -0.5436
 5902TIP3   OH217711   4.804   0.217   4.107 -0.8843  0.2797 -0.1590
 5902TIP3    H117712   4.874   0.163   4.071  0.0530  2.2845 -1.5471
 5902TIP3    H217713   4.822   0.221   4.200 -0.1016 -0.5490 -0.2605
 5903TIP3   OH217714   1.008   4.548   2.729 -0.5016 -0.6650 -0.3681
 5903TIP3    H117715   1.095   4.508   2.726  0.3916  1.0067  1.1664
 5903TIP3    H217716   0.963   4.502   2.800 -0.6830 -1.1447 -0.7865
 5904TIP3   OH217717   4.749   4.899   2.227 -0.4636  0.5285 -0.5062
 5904TIP3    H117718   4.762   4.933   2.138  0.9751 -0.4396 -0.7116
 5904TIP3    H217719   4.747   4.804   2.216  2.0550  0.2627  0.7005
 5905TIP3   OH217720   2.458   3.131   2.629 -0.1106 -0.1495 -0.4452
 5905TIP3    H117721   2.391   3.095   2.687  0.0559  0.1307 -0.0774
 5905TIP3    H217722   2.418   3.127   2.542  0.2609 -2.1083 -0.5674
 5906TIP3   OH217723   4.079   0.941   4.353 -0.5507 -0.0160 -0.4984
 5906TIP3    H117724   4.055   0.856   4.318 -2.0431 -0.0944  0.6098
 5906TIP3    H217725   4.067   0.933   4.448 -1.2795  1.5799 -0.4202
 5907TIP3   OH217726   3.581   5.887   3.231  0.1128  0.6512 -0.7288
 5907TIP3    H117727   3.603   5.795   3.220  1.1185  0.6606  0.8668
 5907TIP3    H217728   3.485   5.890   3.230  0.0797 -0.2927 -1.5190
 5908TIP3   OH217729   3.144   2.901   1.709 -0.3187 -0.0594 -0.5217
 5908TIP3    H117730   3.178   2.969   1.767 -1.4598 -1.7635  2.3767
 5908TIP3    H217731   3.056   2.931   1.687  0.2001  0.7020 -1.6164
 5909TIP3   OH217732   1.976   5.024   0.170 -0.3216  0.8701  0.4661
 5909TIP3    H117733   2.069   5.033   0.149 -0.6248 -1.4759 -2.7083
 5909TIP3    H217734   1.967   4.934   0.202 -1.3341  1.5442  2.2222
 5910TIP3   OH217735   5.443   5.101   4.127  0.1483 -0.6073 -0.0669
 5910TIP3    H117736   5.453   5.196   4.121  1.4747 -0.7521 -0.4154
 5910TIP3    H217737   5.474   5.068   4.043  0.7086 -1.4135  0.4460
 5911TIP3   OH217738   3.674   2.152   2.355 -0.1053  0.4523 -0.3564
 5911TIP3    H117739   3.635   2.132   2.270 -0.9273 -1.7256  0.4747
 5911TIP3    H217740   3.756   2.102   2.356 -1.2754 -1.5869  1.0197
 5912TIP3   OH217741   2.040   4.712   1.359  0.3649 -1.0046 -0.0103
 5912TIP3    H117742   2.119   4.759   1.384  0.3307 -0.1288 -1.4548
 5912TIP3    H217743   2.069   4.621   1.348  0.6408 -1.1659  1.7954
 5913TIP3   OH217744   2.885   0.103   1.860  0.2672 -0.1267 -0.0872
 5913TIP3    H117745   2.962   0.109   1.918  0.7994 -1.1823 -0.6498
 5913TIP3    H217746   2.890   0.181   1.805  1.2401 -0.4356 -0.4573
 5914TIP3   OH217747   0.344   1.335   0.446 -0.0293  0.1931 -0.2591
 5914TIP3    H117748   0.255   1.300   0.454 -0.3080  0.8884 -0.2739
 5914TIP3    H217749   0.394   1.288   0.513 -0.4269 -0.1360 -0.1879
 5915TIP3   OH217750   2.249   0.346   2.522  0.7320 -0.1396  0.1845
 5915TIP3    H117751   2.254   0.392   2.438 -0.3592 -1.4073 -0.6187
 5915TIP3    H217752   2.290   0.405   2.585 -0.6561  1.9378 -0.7749
 5916TIP3   OH217753   0.204   4.715   2.644 -0.1354  0.0972 -0.3028
 5916TIP3    H117754   0.187   4.765   2.564  0.3897  0.4062 -0.2257
 5916TIP3    H217755   0.214   4.781   2.712 -2.4321 -0.2060  0.4251
 5917TIP3   OH217756   5.220   5.300   0.810 -0.0845  0.3718 -0.7427
 5917TIP3    H117757   5.279   5.237   0.769  1.6272  0.4196  1.4252
 5917TIP3    H217758   5.276   5.377   0.826 -0.9130  0.6887  0.7692
 5918TIP3   OH217759   0.718   5.278   0.428  0.5490 -0.0072  0.3468
 5918TIP3    H117760   0.679   5.283   0.515 -0.6236 -1.2924 -0.0614
 5918TIP3    H217761   0.708   5.186   0.403  2.6183 -0.0801 -0.3671
 5919TIP3   OH217762   2.637   4.298   4.855  0.1070  0.2978 -0.1532
 5919TIP3    H117763   2.631   4.346   4.773 -1.5971  2.3893  1.0805
 5919TIP3    H217764   2.730   4.303   4.878  0.1608  2.2597 -0.5794
 5920TIP3   OH217765   4.012   5.362   1.524  0.4174  0.8417 -0.0626
 5920TIP3    H117766   4.080   5.320   1.576  0.6783 -0.9975 -1.7536
 5920TIP3    H217767   3.950   5.291   1.505  0.6928  1.2243 -2.7444
 5921TIP3   OH217768   0.031   0.590   4.296  0.6927 -0.0775  0.2649
 5921TIP3    H117769   0.005   0.679   4.322 -0.3003 -0.8638  2.1301
 5921TIP3    H217770   0.115   0.602   4.251  0.8286  1.7466  0.9073
 5922TIP3   OH217771   1.921   0.335   0.613  0.7504  0.6052  0.0850
 5922TIP3    H117772   1.904   0.241   0.612  1.6666  0.4170 -1.4305
 5922TIP3    H217773   2.015   0.343   0.600  0.5183  1.7472 -1.1341
 5923TIP3   OH217774   4.837   3.353   1.310 -0.5455 -0.2145 -0.6294
 5923TIP3    H117775   4.923   3.392   1.294  0.2791 -0.9883  1.5408
 5923TIP3    H217776   4.786   3.422   1.353 -0.2424 -0.4209  0.0808
 5924TIP3   OH217777   3.580   1.472   2.171 -0.2320  0.1710  0.3583
 5924TIP3    H117778   3.646   1.498   2.106  1.4737 -1.0378  1.5163
 5924TIP3    H217779   3.598   1.525   2.248 -1.2962  0.5516  0.3640
 5925TIP3   OH217780   2.601   5.129   2.144 -0.3654  0.2935  0.5444
 5925TIP3    H117781   2.645   5.097   2.222  0.7347  1.4021  0.4188
 5925TIP3    H217782   2.635   5.218   2.132 -0.2004  0.0288 -1.3959
 5926TIP3   OH217783   2.711   5.594   4.645 -0.7587 -0.4202 -0.0830
 5926TIP3    H117784   2.669   5.514   4.678 -1.1195 -0.0179  0.4465
 5926TIP3    H217785   2.775   5.563   4.581  0.0830 -1.2313  1.1216
 5927TIP3   OH217786   3.236   2.100   0.825 -0.1879  0.1235  0.4087
 5927TIP3    H117787   3.209   2.017   0.786  0.1764  0.0730  0.2632
 5927TIP3    H217788   3.253   2.157   0.751 -0.3009  0.2852  0.5072
 5928TIP3   OH217789   1.283   4.178   1.411 -0.1060 -0.4631  0.0484
 5928TIP3    H117790   1.228   4.241   1.364  0.8664  0.0841 -0.3675
 5928TIP3    H217791   1.351   4.231   1.453 -0.6822 -0.9786  1.7431
 5929TIP3   OH217792   0.900   0.141   5.123 -0.0134  0.4042  0.5994
 5929TIP3    H117793   0.846   0.062   5.132 -0.3160  0.5251 -0.0913
 5929TIP3    H217794   0.838   0.214   5.130  0.3071  0.5997  1.5349
 5930TIP3   OH217795   1.259   1.692   2.879  1.0523  0.5324 -0.0216
 5930TIP3    H117796   1.168   1.708   2.854  0.7402 -1.0342  0.0068
 5930TIP3    H217797   1.256   1.679   2.974  1.5077  1.6967  0.1647
 5931TIP3   OH217798   3.070   5.687   4.656 -0.5841 -0.2095 -0.0058
 5931TIP3    H117799   3.062   5.651   4.744  2.5827  0.7839  0.8331
 5931TIP3    H217800   3.139   5.634   4.615 -1.4701 -0.1611 -1.6627
 5932TIP3   OH217801   0.141   3.244   0.854 -0.6353 -0.0020  0.1524
 5932TIP3    H117802   0.128   3.199   0.938  1.2813  1.9929  1.6341
 5932TIP3    H217803   0.160   3.335   0.879  2.1747  0.2175 -2.2843
 5933TIP3   OH217804   6.109   3.597   4.035 -0.0216 -0.1408  0.1348
 5933TIP3    H117805   6.063   3.628   4.113 -0.3194 -0.6311  0.1547
 5933TIP3    H217806   6.067   3.515   4.013  0.1209 -0.0510 -0.4961
 5934TIP3   OH217807   3.610  -0.001   4.424  0.2567  0.2274 -0.2875
 5934TIP3    H117808   3.670   0.074   4.418  0.5154  0.0503  0.0942
 5934TIP3    H217809   3.654  -0.071   4.376  0.2191  0.1831 -0.2569
 5935TIP3   OH217810   4.639   3.460   0.138 -0.0310 -0.6509 -0.1158
 5935TIP3    H117811   4.564   3.415   0.178  0.5276 -0.0670  1.6704
 5935TIP3    H217812   4.610   3.551   0.129 -0.2139 -0.8113 -1.2522
 5936TIP3   OH217813   4.395   4.863   4.738 -0.6101 -0.4953  0.4927
 5936TIP3    H117814   4.490   4.876   4.736 -0.7285  0.4184  0.1929
 5936TIP3    H217815   4.374   4.857   4.831 -0.3703  0.2361  0.6025
 5937TIP3   OH217816   2.410   2.214   4.516 -0.2041  1.0066  0.3541
 5937TIP3    H117817   2.424   2.152   4.444 -0.8022 -0.0232  1.0891
 5937TIP3    H217818   2.498   2.242   4.541  0.2406 -0.8345  1.0664
 5938TIP3   OH217819   2.743   4.689   4.914 -0.0965 -0.0608  0.3338
 5938TIP3    H117820   2.734   4.731   4.999 -2.0958  0.0122  0.1444
 5938TIP3    H217821   2.836   4.672   4.904  0.5108  2.3350  1.3706
 5939TIP3   OH217822   0.055   0.643   3.196 -0.1546  0.4742 -0.6030
 5939TIP3    H117823   0.127   0.579   3.202 -0.3523  0.0418 -2.3714
 5939TIP3    H217824  -0.007   0.603   3.135 -2.5613  0.2470  1.7853
 5940TIP3   OH217825   0.186   4.971   1.150 -0.1505 -0.2699  0.0740
 5940TIP3    H117826   0.192   5.065   1.131 -1.2929 -0.0936  0.4880
 5940TIP3    H217827   0.132   4.936   1.079 -1.1259 -0.2961  0.7936
 5941TIP3   OH217828   4.185   5.535   2.599 -0.1790  0.2905  0.4369
 5941TIP3    H117829   4.161   5.495   2.515 -0.1865 -0.0442  0.5944
 5941TIP3    H217830   4.148   5.623   2.595 -0.6551  0.0899  0.3072
 5942TIP3   OH217831   6.109   3.703   4.428  0.0456 -0.4509  0.0041
 5942TIP3    H117832   6.045   3.719   4.359  0.8221 -2.0127 -1.1186
 5942TIP3    H217833   6.187   3.751   4.401 -0.7096  1.9338  1.6561
 5943TIP3   OH217834   1.150   5.617   0.802  0.2944  0.2147  0.1363
 5943TIP3    H117835   1.123   5.531   0.834 -3.3983  1.4467  0.6961
 5943TIP3    H217836   1.182   5.663   0.880 -0.1305  0.2098  0.3119
 5944TIP3   OH217837   2.044   3.494   1.187 -0.2533 -0.1983  0.2241
 5944TIP3    H117838   2.133   3.458   1.190  0.2256  0.8516 -0.8172
 5944TIP3    H217839   2.008   3.473   1.273  1.7532  1.2221  1.5115
 5945TIP3   OH217840   0.106   5.610   3.124  0.5774 -0.7641 -0.2497
 5945TIP3    H117841   0.015   5.579   3.128 -1.3445  3.6864 -2.3284
 5945TIP3    H217842   0.113   5.672   3.196  2.1607 -1.3416  0.1176
 5946TIP3   OH217843   2.019   0.130   5.058  0.4996 -0.5751 -0.0163
 5946TIP3    H117844   2.071   0.184   5.117  0.9675 -1.1367  0.0924
 5946TIP3    H217845   2.064   0.136   4.973  0.5782 -0.8257  0.0060
 5947TIP3   OH217846   3.683   5.818   2.769 -0.2649  0.0637  0.2515
 5947TIP3    H117847   3.717   5.728   2.775  3.9012  1.3368 -0.7705
 5947TIP3    H217848   3.722   5.863   2.843 -0.0407  1.6032 -0.7541
 5948TIP3   OH217849   4.410   0.385   5.008  0.1182  0.1625  0.2538
 5948TIP3    H117850   4.357   0.434   4.945 -1.7014 -0.9747  0.8186
 5948TIP3    H217851   4.447   0.313   4.957  3.7354  2.5247 -0.8546
 5949TIP3   OH217852   2.707   5.175   0.346 -0.0166  0.5744  0.0590
 5949TIP3    H117853   2.660   5.158   0.265  1.3779  2.1328 -1.1541
 5949TIP3    H217854   2.640   5.206   0.407 -1.0800 -0.5850 -0.4830
 5950TIP3   OH217855   5.467   5.459   5.152  0.3516  0.0317 -0.2941
 5950TIP3    H117856   5.440   5.537   5.201  1.7625  0.2124  0.2759
 5950TIP3    H217857   5.550   5.485   5.111  0.0523 -0.6809 -1.3906
 5951TIP3   OH217858   5.578   3.593   0.347 -0.2367 -0.0484 -0.4692
 5951TIP3    H117859   5.567   3.660   0.415  0.7421 -1.1582  0.8391
 5951TIP3    H217860   5.671   3.592   0.329 -0.0996 -1.5812  0.1435
 5952TIP3   OH217861   1.274   4.074   4.275  0.1398 -0.2205 -0.5210
 5952TIP3    H117862   1.235   4.159   4.295 -0.9683 -0.0221 -3.1410
 5952TIP3    H217863   1.366   4.094   4.256 -0.5876  0.9316 -3.4991
 5953TIP3   OH217864   0.942   1.886   1.588 -0.3920  0.3412 -0.2883
 5953TIP3    H117865   0.864   1.887   1.643  1.1954 -0.5357  2.1952
 5953TIP3    H217866   0.998   1.954   1.625  0.5541  0.0738 -1.1730
 5954TIP3   OH217867   3.398   5.844   3.550 -0.0527  0.2422 -0.5705
 5954TIP3    H117868   3.417   5.803   3.634  0.0338 -1.6494 -1.4566
 5954TIP3    H217869   3.432   5.933   3.558  1.6854 -0.4761  0.7483
 5955TIP3   OH217870   0.611   4.298   2.732  0.1398 -0.3175 -0.3943
 5955TIP3    H117871   0.671   4.227   2.710  0.3548 -0.0619 -0.6430
 5955TIP3    H217872   0.589   4.338   2.648  0.2221  0.0706 -0.2347
 5956TIP3   OH217873   1.014   2.127   3.631 -0.1010  0.2290 -0.1050
 5956TIP3    H117874   0.960   2.204   3.617 -0.6708 -0.0681  0.3863
 5956TIP3    H217875   0.957   2.053   3.610  0.3955 -0.0659 -0.4452
 5957TIP3   OH217876   3.453   2.893   1.163  0.4476 -0.3753 -0.1230
 5957TIP3    H117877   3.486   2.941   1.088 -1.4709  0.8347 -0.2784
 5957TIP3    H217878   3.368   2.859   1.134  0.9938 -2.4596  0.5584
 5958TIP3   OH217879   3.046   0.969   0.255 -0.1298 -0.5247  0.8984
 5958TIP3    H117880   3.001   1.008   0.180 -2.0921 -2.5210  0.9357
 5958TIP3    H217881   3.124   1.023   0.267 -0.9144  1.1998 -1.1610
 5959TIP3   OH217882   1.699   2.233   3.620  0.2279  0.6020  0.1104
 5959TIP3    H117883   1.604   2.226   3.631 -0.1913  1.3884 -2.4274
 5959TIP3    H217884   1.728   2.144   3.599  0.5754 -0.2347  3.4837
 5960TIP3   OH217885   3.246   5.569   3.662 -0.4151 -0.2765  0.0516
 5960TIP3    H117886   3.227   5.622   3.585 -1.5806 -0.4263  0.2219
 5960TIP3    H217887   3.277   5.633   3.727 -0.8212  0.0631 -0.0790
 5961TIP3   OH217888   1.278   3.327   0.627  0.3892 -0.4955  0.1930
 5961TIP3    H117889   1.366   3.308   0.660  0.2704 -0.6644  0.4165
 5961TIP3    H217890   1.233   3.242   0.628 -0.4720 -0.0655  2.1536
 5962TIP3   OH217891   3.416   0.858   3.088  0.0984  0.3977 -0.7150
 5962TIP3    H117892   3.404   0.902   3.004  0.5080 -1.2695 -1.6945
 5962TIP3    H217893   3.502   0.888   3.118  0.8799 -0.4905 -1.9128
 5963TIP3   OH217894   3.491   3.591   2.232 -0.4924 -0.3191  0.2382
 5963TIP3    H117895   3.509   3.555   2.319 -0.6164  1.1019  0.8817
 5963TIP3    H217896   3.515   3.521   2.171  0.2982 -1.0729  1.3837
 5964TIP3   OH217897   2.592   4.341   3.643  0.1003  0.2540 -0.0268
 5964TIP3    H117898   2.612   4.352   3.551  0.6837  1.1251  0.1900
 5964TIP3    H217899   2.622   4.422   3.684 -1.8560  0.6871  0.6516
 5965TIP3   OH217900   4.873   2.737   3.734 -0.1355  0.0407  0.3140
 5965TIP3    H117901   4.787   2.746   3.693 -0.8750  0.0415  1.7983
 5965TIP3    H217902   4.921   2.814   3.704 -1.3209  1.0920  0.9678
 5966TIP3   OH217903   2.562   3.621   3.245 -0.2134  0.4016 -0.0993
 5966TIP3    H117904   2.634   3.561   3.263 -0.8374 -0.1807  0.5623
 5966TIP3    H217905   2.505   3.613   3.322 -0.1063  2.1736  0.2041
 5967TIP3   OH217906   5.626   3.700   4.541 -0.2433 -0.3537 -0.1125
 5967TIP3    H117907   5.603   3.792   4.534  2.7020  0.5643  1.1490
 5967TIP3    H217908   5.623   3.681   4.635 -0.7725 -1.5566 -0.3528
 5968TIP3   OH217909   5.697   5.179   0.468  0.2184 -0.0578  0.3053
 5968TIP3    H117910   5.620   5.151   0.420  0.1325  0.4750  0.1295
 5968TIP3    H217911   5.682   5.149   0.558 -0.8545  1.2892  0.6000
 5969TIP3   OH217912   2.273   0.575   5.143  0.1782 -0.2267  0.0878
 5969TIP3    H117913   2.300   0.644   5.204 -0.1191 -0.9789  1.0960
 5969TIP3    H217914   2.189   0.606   5.108 -0.7540 -0.7677  1.7338
 5970TIP3   OH217915   2.799   2.905   3.655 -0.2020  0.4705 -0.1450
 5970TIP3    H117916   2.774   2.818   3.686  1.0108 -0.0656 -0.6049
 5970TIP3    H217917   2.893   2.910   3.673 -0.4940  2.2357  1.1380
 5971TIP3   OH217918   6.090   1.616   3.593  0.6467 -0.3714  0.5330
 5971TIP3    H117919   6.174   1.661   3.594 -0.1471  1.3453 -1.4801
 5971TIP3    H217920   6.029   1.678   3.631 -0.0488 -0.7902  0.1281
 5972TIP3   OH217921   5.091   0.193   3.215  0.0549  0.3803 -0.2874
 5972TIP3    H117922   5.093   0.230   3.303  0.5955  1.2420 -0.6370
 5972TIP3    H217923   5.044   0.110   3.224  0.0315  0.4950  0.7874
 5973TIP3   OH217924   3.835   0.555   4.356  0.1736 -0.0236 -1.1582
 5973TIP3    H117925   3.794   0.619   4.299 -0.2307  0.3520 -0.4525
 5973TIP3    H217926   3.837   0.474   4.305  0.1179  0.3919 -1.8174
 5974TIP3   OH217927   0.301   4.460   1.695 -0.1584 -0.4940 -0.6216
 5974TIP3    H117928   0.303   4.377   1.648  0.1204 -0.9522  0.1663
 5974TIP3    H217929   0.208   4.472   1.718  0.1249 -2.1187  1.8056
 5975TIP3   OH217930   3.279   3.200   0.754 -0.2695 -0.1210 -0.1471
 5975TIP3    H117931   3.286   3.144   0.677 -0.5752 -0.1046 -0.1882
 5975TIP3    H217932   3.363   3.190   0.799 -1.2926 -2.9185  1.4220
 5976TIP3   OH217933   2.934   4.012   4.528  0.2538 -0.3258 -0.3427
 5976TIP3    H117934   2.875   3.960   4.473 -0.4742  0.7800 -0.6384
 5976TIP3    H217935   3.012   3.957   4.537 -0.7016 -1.7104 -0.1598
 5977TIP3   OH217936   2.689   4.986   1.254 -0.7646 -0.0294  0.0591
 5977TIP3    H117937   2.601   4.967   1.221  0.0881 -2.5441 -1.0402
 5977TIP3    H217938   2.725   5.049   1.192 -0.4031 -2.1318 -2.0171
 5978TIP3   OH217939   1.945   3.778   4.953 -0.4132 -0.3346 -0.1405
 5978TIP3    H117940   1.878   3.773   4.885 -0.4380 -0.8272 -0.0857
 5978TIP3    H217941   1.952   3.871   4.973 -2.7232 -0.4290  1.4807
 5979TIP3   OH217942   5.820   4.859   0.995  0.1856  0.4604 -0.0451
 5979TIP3    H117943   5.805   4.886   1.085 -0.6039 -1.9456  0.6230
 5979TIP3    H217944   5.744   4.805   0.973  2.0246 -2.0005 -0.8250
 5980TIP3   OH217945   2.879   0.973   1.159  0.4851  0.1217  0.1613
 5980TIP3    H117946   2.801   0.950   1.108 -0.5947 -0.4653  1.9893
 5980TIP3    H217947   2.857   1.054   1.203  0.4136 -0.6664  1.6360
 5981TIP3   OH217948   5.019   1.845   0.297  0.5341  0.0014 -0.0579
 5981TIP3    H117949   5.098   1.809   0.337 -0.3748 -1.4950  0.4708
 5981TIP3    H217950   4.951   1.834   0.363 -0.5491 -0.5922 -1.2200
 5982TIP3   OH217951   0.267   1.837   3.478 -0.2160  0.0206 -0.0768
 5982TIP3    H117952   0.274   1.913   3.535  0.1502 -0.8684  1.1026
 5982TIP3    H217953   0.354   1.827   3.440  0.4261 -1.1715  1.6076
 5983TIP3   OH217954   1.047   1.231   3.276  1.2376 -0.4943 -0.1206
 5983TIP3    H117955   0.991   1.293   3.323 -1.5244 -1.0482 -2.4149
 5983TIP3    H217956   1.048   1.262   3.186  1.2254 -2.7658 -0.9798
 5984TIP3   OH217957   5.598   3.088   4.539  0.0722  0.1861 -0.5959
 5984TIP3    H117958   5.540   3.027   4.494 -1.2900  1.1464 -0.2178
 5984TIP3    H217959   5.685   3.070   4.503 -0.3514 -1.6724 -0.7772
 5985TIP3   OH217960   0.604   5.072   3.850  0.4379 -0.3144 -0.1370
 5985TIP3    H117961   0.672   5.087   3.784  1.1194 -0.2151  0.5646
 5985TIP3    H217962   0.649   5.022   3.919 -0.3897 -0.8562  0.0197
 5986TIP3   OH217963   5.204   1.238   2.369  0.3339 -0.1002 -0.1965
 5986TIP3    H117964   5.282   1.287   2.343  0.8101 -0.9561 -0.4298
 5986TIP3    H217965   5.216   1.151   2.331 -0.8323 -0.1981 -0.3936
 5987TIP3   OH217966   2.046   2.005   1.712  0.3594  0.2586  0.2591
 5987TIP3    H117967   2.095   1.922   1.713  0.0445  0.0708 -0.0145
 5987TIP3    H217968   2.079   2.051   1.634 -0.8881 -0.4662 -0.7341
 5988TIP3   OH217969   2.868   2.146   3.407  0.1645 -0.7637 -0.4087
 5988TIP3    H117970   2.846   2.071   3.462 -1.3733 -0.8073 -1.0421
 5988TIP3    H217971   2.938   2.114   3.350  0.4559 -1.2947  0.2360
 5989TIP3   OH217972   5.021   5.648   4.800 -0.0689 -0.4746 -0.1284
 5989TIP3    H117973   5.013   5.739   4.773  1.6303 -0.3417 -0.3104
 5989TIP3    H217974   4.936   5.609   4.780  0.0502  0.3861 -2.6836
 5990TIP3   OH217975   5.934   3.165   0.169 -0.2984  0.1993 -0.4345
 5990TIP3    H117976   5.996   3.151   0.241  0.8696  1.5936 -1.0955
 5990TIP3    H217977   5.954   3.094   0.107 -0.6253 -0.4193  0.1518
 5991TIP3   OH217978   6.305   1.796   0.635 -0.4895  0.0254 -0.2001
 5991TIP3    H117979   6.219   1.794   0.677 -0.6077 -0.5223 -0.4605
 5991TIP3    H217980   6.352   1.867   0.680 -1.4028  0.9804 -0.7155
 5992TIP3   OH217981   6.094   1.240   5.182 -0.0462  0.2830 -0.0271
 5992TIP3    H117982   6.062   1.193   5.106  0.4366 -0.9792  0.5323
 5992TIP3    H217983   6.015   1.269   5.228 -0.3600 -0.6915  0.0558
 5993TIP3   OH217984   1.409   0.544   5.196  0.0948  0.1052  0.4120
 5993TIP3    H117985   1.497   0.518   5.221  0.0747  0.9882  1.4810
 5993TIP3    H217986   1.406   0.533   5.101  1.0691 -0.7374  0.4621
 5994TIP3   OH217987   0.672   1.469   3.725  0.0494 -0.0893  0.7275
 5994TIP3    H117988   0.740   1.493   3.788 -0.4221  3.3309  0.1136
 5994TIP3    H217989   0.719   1.423   3.656  1.0835 -1.0563  2.0164
 5995TIP3   OH217990   0.442   2.975   0.693 -0.1064 -0.1358 -0.0723
 5995TIP3    H117991   0.399   2.921   0.759  2.2418 -2.4091 -0.2252
 5995TIP3    H217992   0.511   2.918   0.657  0.1221  1.7510 -2.9311
 5996TIP3   OH217993   5.986   5.675   0.378 -0.2815  0.0173 -0.3129
 5996TIP3    H117994   5.893   5.653   0.384 -0.1309 -0.3481  0.8874
 5996TIP3    H217995   5.991   5.737   0.305 -1.6417  0.9268  0.3114
 5997TIP3   OH217996   1.521   3.560   1.277 -0.1337  0.2708  0.2989
 5997TIP3    H117997   1.566   3.642   1.297 -0.0129  1.0634 -2.7121
 5997TIP3    H217998   1.433   3.588   1.251  0.2110 -0.4038 -1.7099
 5998TIP3   OH217999   0.371   0.434   3.502  0.0657 -0.1535 -0.6064
 5998TIP3    H118000   0.362   0.477   3.417  0.0847 -1.3934 -1.2593
 5998TIP3    H218001   0.290   0.384   3.512  0.7571 -1.3222 -0.6680
 5999TIP3   OH218002   5.505   0.264   4.390 -0.0096 -0.1082  0.6929
 5999TIP3    H118003   5.582   0.243   4.444  0.7021 -0.8894 -0.5712
 5999TIP3    H218004   5.430   0.250   4.449  0.8133  1.5369  2.2167
 6000TIP3   OH218005   5.438   5.291   3.904  1.0835 -0.3257  0.6715
 6000TIP3    H118006   5.430   5.386   3.900 -0.0159 -0.4565 -2.1185
 6000TIP3    H218007   5.349   5.260   3.916  1.0201 -1.0427 -1.3531
 6001TIP3   OH218008   1.795   1.583   3.595  0.3962 -0.4562  0.2338
 6001TIP3    H118009   1.818   1.666   3.553  3.1683 -2.0773 -1.7922
 6001TIP3    H218010   1.840   1.586   3.680  0.4999  0.0842  0.1642
 6002TIP3   OH218011   1.807   2.250   3.871 -0.3619  0.1616  0.5329
 6002TIP3    H118012   1.784   2.335   3.909 -0.7709 -0.0148  0.6806
 6002TIP3    H218013   1.760   2.247   3.788 -0.7054 -0.1076  0.7345
 6003TIP3   OH218014   6.140   0.540   1.975 -0.3651 -0.1218 -0.9629
 6003TIP3    H118015   6.124   0.565   1.884  1.7492  0.5228 -1.2039
 6003TIP3    H218016   6.222   0.583   1.998 -0.4477 -0.9106  1.0208
 6004TIP3   OH218017   3.880   5.461   4.589 -0.0690 -0.5438 -0.7262
 6004TIP3    H118018   3.867   5.390   4.526  0.3739  0.7972 -2.4043
 6004TIP3    H218019   3.816   5.528   4.565  0.4385  0.2061 -0.0631
 6005TIP3   OH218020   3.499   3.468   4.354  0.1858  0.1590  0.3181
 6005TIP3    H118021   3.514   3.547   4.406 -0.6467 -0.0203  0.8460
 6005TIP3    H218022   3.511   3.396   4.416 -1.0078 -0.0498  0.3210
 6006TIP3   OH218023   5.430   2.671   4.715 -0.4996  0.4519  0.0526
 6006TIP3    H118024   5.501   2.608   4.728 -1.2873 -0.8142 -1.3655
 6006TIP3    H218025   5.428   2.722   4.796  1.5806  0.1062  0.3887
 6007TIP3   OH218026   1.228   5.318   0.218  0.3340 -0.0867 -0.0673
 6007TIP3    H118027   1.220   5.325   0.313  0.3199 -0.9310  0.0021
 6007TIP3    H218028   1.299   5.377   0.196 -0.5314  1.1303  0.3050
 6008TIP3   OH218029   0.215   0.971   4.946  0.1399  0.6350  0.3229
 6008TIP3    H118030   0.290   0.995   5.000  1.6185 -1.8942 -0.4779
 6008TIP3    H218031   0.181   0.891   4.985 -1.4485  1.1037 -0.0272
 6009TIP3   OH218032   1.944   0.109   0.864 -0.0313 -0.1842 -0.3073
 6009TIP3    H118033   2.011   0.079   0.926 -0.3001  0.5859  0.3645
 6009TIP3    H218034   1.865   0.118   0.917 -0.1040  1.1200 -0.6169
 6010TIP3   OH218035   2.680   4.152   1.690 -0.3804  0.0056  0.0284
 6010TIP3    H118036   2.617   4.143   1.762 -1.9670  0.4435 -1.2420
 6010TIP3    H218037   2.633   4.202   1.623  0.8373 -0.8529 -1.5435
 6011TIP3   OH218038   4.812   2.967   1.122 -0.4441 -0.5498  0.5773
 6011TIP3    H118039   4.874   3.034   1.094 -0.2287 -2.1692 -3.5328
 6011TIP3    H218040   4.850   2.932   1.203  3.0405 -0.1293 -0.6898
 6012TIP3   OH218041   6.195   5.089   0.674  0.0861  0.2410  0.4094
 6012TIP3    H118042   6.122   5.062   0.618  0.6055  0.2307 -0.2783
 6012TIP3    H218043   6.155   5.145   0.740 -0.7065 -0.6084  0.6821
 6013TIP3   OH218044   1.469   2.266   2.819  0.1982 -0.5679 -0.6351
 6013TIP3    H118045   1.509   2.188   2.782 -0.9696 -0.3603 -2.4393
 6013TIP3    H218046   1.393   2.284   2.763  0.5966  2.0150 -0.4872
 6014TIP3   OH218047   5.442   3.027   3.263  0.0625  0.5868 -0.1724
 6014TIP3    H118048   5.491   2.945   3.258  0.8862  1.1093 -0.8110
 6014TIP3    H218049   5.353   3.003   3.236  0.2622 -0.1215 -0.2126
 6015TIP3   OH218050   0.614   4.202   0.660  0.0906 -0.0397 -0.3728
 6015TIP3    H118051   0.527   4.234   0.639 -0.2807 -1.0280 -0.3746
 6015TIP3    H218052   0.663   4.281   0.684 -0.7382  0.5478 -0.5615
 6016TIP3   OH218053   6.338   5.562   1.223 -0.2727 -0.1790 -0.0978
 6016TIP3    H118054   6.255   5.581   1.179  0.5092  1.2445 -1.0330
 6016TIP3    H218055   6.369   5.647   1.254  2.0241 -0.2240 -1.9896
 6017TIP3   OH218056   0.774   3.310   5.034 -0.3055  0.1157 -0.2104
 6017TIP3    H118057   0.759   3.280   4.944 -1.2644 -1.8943  0.5536
 6017TIP3    H218058   0.686   3.334   5.066 -0.1306 -0.1618  0.4971
 6018TIP3   OH218059   2.831   1.940   3.581 -0.2487 -0.1495 -0.1493
 6018TIP3    H118060   2.755   1.930   3.638 -0.5445  0.3299 -0.4534
 6018TIP3    H218061   2.906   1.916   3.636 -0.3428  1.8574  0.9620
 6019TIP3   OH218062   5.365   3.427   0.270  0.1977  0.5217 -0.2979
 6019TIP3    H118063   5.325   3.482   0.201  1.9247  1.7029 -0.4104
 6019TIP3    H218064   5.444   3.475   0.296  0.4041 -0.6849  1.4309
 6020TIP3   OH218065   2.164   1.788   3.548 -0.3825 -0.0166 -0.0890
 6020TIP3    H118066   2.187   1.718   3.487  0.5580 -1.3146  1.6682
 6020TIP3    H218067   2.239   1.794   3.607 -0.8114  1.9195  0.3297
 6021TIP3   OH218068   5.558   3.539   3.253 -0.9500  0.0384 -0.1861
 6021TIP3    H118069   5.473   3.578   3.273 -1.1298 -0.0338 -0.7935
 6021TIP3    H218070   5.537   3.460   3.204 -0.5309  0.0759 -0.4314
 6022TIP3   OH218071   3.042   0.256   3.793 -0.0867  0.0203  0.0268
 6022TIP3    H118072   3.116   0.195   3.793 -0.1415 -0.1170 -1.7090
 6022TIP3    H218073   3.008   0.252   3.703 -1.8706  0.4893  0.6288
 6023TIP3   OH218074   2.218   3.046   3.314  0.2911  0.2002 -0.1083
 6023TIP3    H118075   2.303   3.003   3.315  0.2989  0.1574  2.2941
 6023TIP3    H218076   2.155   2.974   3.312  0.3085  0.1871 -0.1880
 6024TIP3   OH218077   1.841   3.210   3.407 -0.5133  0.0430 -0.4767
 6024TIP3    H118078   1.844   3.306   3.412  1.2571 -0.0098  0.3574
 6024TIP3    H218079   1.932   3.185   3.391 -0.9863 -1.5005 -0.8457
 6025TIP3   OH218080   2.849   0.564   3.088  0.1913  0.0771 -0.5912
 6025TIP3    H118081   2.807   0.529   3.167  1.4873  2.4336  1.2885
 6025TIP3    H218082   2.784   0.623   3.051  1.1487  2.6479  1.5269
 6026TIP3   OH218083   5.380   0.480   1.201 -0.6806 -0.4427  0.2115
 6026TIP3    H118084   5.305   0.446   1.153 -0.9753 -1.3663  1.2881
 6026TIP3    H218085   5.343   0.539   1.266 -0.2226  1.4591 -1.1636
 6027TIP3   OH218086   0.430   2.002   4.129  0.0858 -0.2869  0.0617
 6027TIP3    H118087   0.397   2.082   4.089  1.9542  0.2789 -0.4569
 6027TIP3    H218088   0.468   2.031   4.212  1.9280 -0.3781 -0.7098
 6028TIP3   OH218089   2.764   1.981   1.244 -0.6282  0.2659  0.3510
 6028TIP3    H118090   2.687   2.036   1.230  0.2086  1.7125  1.1991
 6028TIP3    H218091   2.770   1.972   1.339  0.5645  0.6936  0.3348
 6029TIP3   OH218092   6.059   1.070   3.157 -0.1618  0.5660 -0.2153
 6029TIP3    H118093   6.136   1.017   3.135 -0.9294 -0.3189 -0.8982
 6029TIP3    H218094   6.018   1.023   3.229  0.5054  1.6270  0.8787
 6030TIP3   OH218095   5.061   5.217   1.233  0.5219 -0.0334 -0.3633
 6030TIP3    H118096   5.065   5.209   1.138  0.0777  1.9937 -0.5894
 6030TIP3    H218097   5.105   5.300   1.252 -1.3350  0.7148  0.9756
 6031TIP3   OH218098   2.194   4.679   4.073  0.0124  0.2180 -0.3631
 6031TIP3    H118099   2.254   4.704   4.143  0.3349 -0.4614 -0.3950
 6031TIP3    H218100   2.162   4.593   4.098 -1.8710  1.0392  0.2513
 6032TIP3   OH218101   3.962   5.101   2.434 -0.1491 -0.2075 -0.0160
 6032TIP3    H118102   3.871   5.073   2.431 -0.7888  1.7310 -0.9011
 6032TIP3    H218103   4.010   5.037   2.381 -1.2639 -0.4317 -0.7736
 6033TIP3   OH218104   4.864   1.129   5.014 -0.5099 -0.4561 -0.6981
 6033TIP3    H118105   4.832   1.205   4.967  1.7437 -0.2110 -1.9566
 6033TIP3    H218106   4.805   1.058   4.988 -1.6514  0.4861 -0.7715
 6034TIP3   OH218107   6.342   3.109   3.099 -0.6409  0.4406  0.5522
 6034TIP3    H118108   6.340   3.143   3.189 -0.4739 -0.6968  1.0092
 6034TIP3    H218109   6.250   3.102   3.074 -0.8323 -1.5404  1.5791
 6035TIP3   OH218110   0.959   4.111   3.325 -0.0762  0.0411  1.0035
 6035TIP3    H118111   1.055   4.109   3.329  0.0449 -1.4740 -1.2244
 6035TIP3    H218112   0.938   4.203   3.309  1.0157  0.3446  1.2385
 6036TIP3   OH218113   4.253   5.460   3.591 -0.0886 -0.2601 -0.0097
 6036TIP3    H118114   4.247   5.499   3.678  0.2753  3.2223 -1.3398
 6036TIP3    H218115   4.167   5.422   3.575 -0.0640 -1.2245  1.9166
 6037TIP3   OH218116   3.595   5.191   2.957  1.0107  0.6894  0.7042
 6037TIP3    H118117   3.582   5.123   3.023 -0.0591  0.1261 -0.0568
 6037TIP3    H218118   3.629   5.145   2.880  0.2300  0.9850  0.1668
 6038TIP3   OH218119   4.681   1.183   0.148  0.0688  0.0048  0.2916
 6038TIP3    H118120   4.622   1.257   0.133 -0.9423 -0.1962  2.8378
 6038TIP3    H218121   4.628   1.106   0.129 -0.4480 -0.1636  2.2235
 6039TIP3   OH218122   5.245   4.640   4.569 -0.1044  0.0313 -0.2212
 6039TIP3    H118123   5.327   4.591   4.571  0.3437  0.7638  1.7006
 6039TIP3    H218124   5.188   4.592   4.629  0.9350  2.6387  3.2129
 6040TIP3   OH218125   2.130   0.582   4.885 -0.5815  0.5141  0.0009
 6040TIP3    H118126   2.108   0.607   4.795  0.2598 -0.0861 -0.3890
 6040TIP3    H218127   2.149   0.488   4.879  0.3072  0.6439  0.6352
 6041TIP3   OH218128   6.148   5.384   0.311 -0.1703  0.8176  0.1221
 6041TIP3    H118129   6.081   5.430   0.260 -0.7933  0.4068  0.5620
 6041TIP3    H218130   6.104   5.305   0.342  0.8462 -0.0175 -0.5111
 6042TIP3   OH218131   4.324   1.117   4.318  0.3788 -0.5140  0.2313
 6042TIP3    H118132   4.248   1.063   4.340  0.3603 -1.3984 -1.8136
 6042TIP3    H218133   4.398   1.056   4.320  0.6836 -0.1617 -0.0585
 6043TIP3   OH218134   5.203   5.293   2.353  0.6528  0.4598 -0.4907
 6043TIP3    H118135   5.187   5.344   2.433 -0.0390 -0.4453 -0.0307
 6043TIP3    H218136   5.296   5.272   2.356  0.9265  1.5757 -0.6272
 6044TIP3   OH218137   1.919  -0.003   3.082  0.2040 -0.2046  0.0962
 6044TIP3    H118138   1.929   0.009   3.177  0.9157  2.4399 -0.2238
 6044TIP3    H218139   1.874   0.077   3.053 -0.6172 -1.2796 -1.7257
 6045TIP3   OH218140   1.908   5.478   3.141 -0.1292  0.3615  0.1372
 6045TIP3    H118141   1.864   5.461   3.224 -0.6129  1.0007  0.0187
 6045TIP3    H218142   1.961   5.557   3.156  0.6297 -0.1320  0.1425
 6046TIP3   OH218143   1.725   1.423   2.107 -0.0993 -0.4007  0.1712
 6046TIP3    H118144   1.734   1.339   2.153  0.8617 -0.9164 -0.8851
 6046TIP3    H218145   1.749   1.489   2.172  1.4436 -1.1248  0.3812
 6047TIP3   OH218146   0.080   5.671   2.168  0.2127 -0.1296 -0.2336
 6047TIP3    H118147   0.114   5.748   2.121 -1.0150  1.2865  1.0710
 6047TIP3    H218148  -0.014   5.675   2.154 -0.0601 -0.3160  1.3665
 6048TIP3   OH218149   1.379   0.169   4.241  0.2410 -0.0820  0.4342
 6048TIP3    H118150   1.375   0.075   4.261  0.6387  0.0162  0.9939
 6048TIP3    H218151   1.292   0.190   4.208 -0.4238 -0.2663  1.9804
 6049TIP3   OH218152   5.014   2.329   2.959  0.0183 -0.4625 -0.1137
 6049TIP3    H118153   4.990   2.377   3.039  0.5823 -1.0127  0.3884
 6049TIP3    H218154   5.103   2.299   2.974 -0.2340 -1.4625 -0.5240
 6050TIP3   OH218155   0.039   3.532   0.359  0.1285  0.2286  0.0257
 6050TIP3    H118156   0.066   3.448   0.397 -0.8701  0.1887  0.6756
 6050TIP3    H218157   0.103   3.548   0.290 -0.3152 -1.6360 -0.8802
 6051TIP3   OH218158   2.209   1.816   4.715 -0.1991  0.1259 -0.1927
 6051TIP3    H118159   2.183   1.908   4.709  0.1322  0.3168  1.0350
 6051TIP3    H218160   2.129   1.771   4.742  0.2636  0.4777  1.9469
 6052TIP3   OH218161   1.519   5.742   4.937 -0.3418  0.0517  0.0513
 6052TIP3    H118162   1.484   5.758   4.849 -0.2296 -1.0290 -0.2050
 6052TIP3    H218163   1.613   5.758   4.929 -0.4288  0.6496  0.1599
 6053TIP3   OH218164   3.254   3.874   3.495  0.1812  0.1130 -0.2395
 6053TIP3    H118165   3.279   3.803   3.555 -0.4300 -0.6173 -0.8269
 6053TIP3    H218166   3.338   3.912   3.468  0.4588  0.9465  1.6031
 6054TIP3   OH218167   0.580   4.051   0.885  0.1046  0.2947 -0.2600
 6054TIP3    H118168   0.615   4.111   0.819 -1.5010  2.4520  0.7220
 6054TIP3    H218169   0.525   3.990   0.836  2.3177 -0.9310 -1.3699
 6055TIP3   OH218170   3.992   4.289   1.270  0.0046 -0.2137  0.4131
 6055TIP3    H118171   3.918   4.255   1.321  0.9305 -1.6507  0.8763
 6055TIP3    H218172   4.014   4.218   1.210  1.2806  0.0049  0.5900
 6056TIP3   OH218173   2.307   4.580   3.823 -0.8962 -0.0311  0.5767
 6056TIP3    H118174   2.246   4.605   3.892  0.3857 -0.9939  2.1240
 6056TIP3    H218175   2.346   4.498   3.853  0.3780 -0.0047 -0.8521
 6057TIP3   OH218176   2.556   3.463   1.139  0.6849  0.3481  0.2524
 6057TIP3    H118177   2.524   3.464   1.229  1.6134  0.3674  0.5918
 6057TIP3    H218178   2.627   3.527   1.138 -1.0856  2.4440 -1.2006
 6058TIP3   OH218179   4.605   3.804   1.350 -0.0951 -0.4584  0.0379
 6058TIP3    H118180   4.592   3.894   1.381 -1.5449 -0.0388 -1.6583
 6058TIP3    H218181   4.659   3.813   1.272  0.1827 -1.1388  0.1411
 6059TIP3   OH218182   0.518   1.204   2.086 -0.2765 -0.7202 -0.5178
 6059TIP3    H118183   0.601   1.166   2.115 -0.4979 -1.1617 -0.4552
 6059TIP3    H218184   0.543   1.288   2.047  0.4743 -1.7646 -2.4226
 6060TIP3   OH218185   4.039   3.225   2.140  0.0022 -0.1635 -0.0181
 6060TIP3    H118186   4.060   3.266   2.056  0.0469 -0.2322 -0.0404
 6060TIP3    H218187   3.989   3.146   2.116 -1.4003  0.6614  0.0767
 6061TIP3   OH218188   5.925   1.620   4.701 -0.0745  0.0392  0.1223
 6061TIP3    H118189   6.015   1.647   4.721 -0.1719  1.2084 -0.8852
 6061TIP3    H218190   5.872   1.668   4.764 -0.0184 -0.4247  0.5270
 6062TIP3   OH218191   2.969   4.280   4.626  0.2033  0.5190 -0.0394
 6062TIP3    H118192   2.950   4.287   4.720  0.8363  0.6377  0.0825
 6062TIP3    H218193   2.970   4.186   4.608  0.2846  0.4913  0.1115
 6063TIP3   OH218194   4.791   4.827   3.724 -0.0560 -1.0801  0.1127
 6063TIP3    H118195   4.723   4.892   3.707 -0.6720 -1.5562  0.6765
 6063TIP3    H218196   4.766   4.787   3.807  0.5237 -1.7614 -0.0241
 6064TIP3   OH218197   2.710   3.116   3.850  0.5120 -0.3315  0.0648
 6064TIP3    H118198   2.778   3.063   3.811 -1.0204 -1.7768 -0.7652
 6064TIP3    H218199   2.664   3.057   3.910 -0.7217  0.2589 -0.2537
 6065TIP3   OH218200   1.446   1.273   0.947 -0.1753  0.7896  0.1596
 6065TIP3    H118201   1.530   1.295   0.908  0.3024  1.2508  1.3738
 6065TIP3    H218202   1.438   1.334   1.021 -1.2855  0.3387  0.4263
 6066TIP3   OH218203   2.480   0.932   2.085  0.3352 -0.2152  0.1927
 6066TIP3    H118204   2.411   0.968   2.141 -0.0338 -2.6403  1.4281
 6066TIP3    H218205   2.433   0.876   2.024  1.1460 -1.9624  1.1062
 6067TIP3   OH218206   0.923   1.377  -0.034  0.2787 -0.1948 -0.1010
 6067TIP3    H118207   1.005   1.355   0.010 -0.9012 -2.2695  1.2636
 6067TIP3    H218208   0.870   1.420   0.034 -0.3172 -0.2416 -0.5225
 6068TIP3   OH218209   0.563   2.791   4.434 -0.1121  0.5119  0.1242
 6068TIP3    H118210   0.477   2.824   4.407 -0.0723  1.3278  0.9574
 6068TIP3    H218211   0.625   2.835   4.376 -0.2247  0.1804 -0.2520
 6069TIP3   OH218212   5.662   5.548   4.814 -0.3426  0.5825 -0.6594
 6069TIP3    H118213   5.589   5.490   4.794  0.5332 -0.6269 -0.4642
 6069TIP3    H218214   5.707   5.560   4.730  0.1657 -0.0115 -0.4784
 6070TIP3   OH218215   1.025   0.300   4.882  0.0137  0.1769 -0.4945
 6070TIP3    H118216   0.984   0.307   4.969 -1.6583  2.0972 -1.3595
 6070TIP3    H218217   1.114   0.332   4.895 -0.3867  0.9800  0.4406
 6071TIP3   OH218218   0.759   2.820   4.991 -0.1734  0.0347  0.0816
 6071TIP3    H118219   0.800   2.738   5.017  1.0900  0.9302  1.0290
 6071TIP3    H218220   0.750   2.813   4.896  0.7811 -0.8137  0.0392
 6072TIP3   OH218221   4.217   3.050   0.788 -0.1567  0.4454 -0.4556
 6072TIP3    H118222   4.171   3.130   0.815 -0.7690  0.5180 -1.6357
 6072TIP3    H218223   4.183   3.032   0.700 -0.9227 -1.7617  0.2217
 6073TIP3   OH218224   3.225   0.065   1.282  0.0004  0.7402 -0.2417
 6073TIP3    H118225   3.219   0.160   1.280  0.8447  0.8034 -0.2227
 6073TIP3    H218226   3.140   0.036   1.317 -0.9757  1.3678 -2.0002
 6074TIP3   OH218227   5.276   5.765   1.244  0.2436 -0.1207  0.5738
 6074TIP3    H118228   5.236   5.852   1.246 -0.4784 -0.3553 -1.1769
 6074TIP3    H218229   5.369   5.781   1.227  0.2427  0.3328  0.9939
 6075TIP3   OH218230   5.972   0.762   0.726 -0.4554  0.3255  0.1962
 6075TIP3    H118231   5.963   0.848   0.684 -0.4225 -0.0642 -0.6278
 6075TIP3    H218232   5.972   0.700   0.654 -1.2342 -0.4315  0.8320
 6076TIP3   OH218233   4.570   3.880   4.293 -0.0148  0.0534 -0.2690
 6076TIP3    H118234   4.475   3.892   4.296 -0.0881 -0.2834 -0.9942
 6076TIP3    H218235   4.605   3.969   4.282 -0.2942  0.1107 -0.7695
 6077TIP3   OH218236   5.548   3.096   3.595 -0.1530 -0.3255 -0.0152
 6077TIP3    H118237   5.485   3.025   3.582  0.0878 -0.7329  0.9515
 6077TIP3    H218238   5.535   3.153   3.520 -0.9210 -0.9685 -0.3913
 6078TIP3   OH218239   0.929   4.733   3.013 -0.4630 -0.2068  0.5903
 6078TIP3    H118240   0.880   4.653   2.994  1.2675 -1.6243  1.8073
 6078TIP3    H218241   0.919   4.747   3.107  1.6979 -0.7718  0.9685
 6079TIP3   OH218242   3.290   5.435   1.913 -0.2697 -1.0356  0.0806
 6079TIP3    H118243   3.218   5.439   1.851 -0.3618 -0.1647  0.2252
 6079TIP3    H218244   3.344   5.512   1.891  0.3051 -1.3620  0.3387
 6080TIP3   OH218245   1.355   4.716   4.910  0.5340  0.0640  0.4084
 6080TIP3    H118246   1.440   4.675   4.919  1.2272  1.5665  1.0771
 6080TIP3    H218247   1.354   4.751   4.821  0.5048 -0.1809  0.3121
 6081TIP3   OH218248   2.608   4.554   1.444 -0.5902 -0.2805  0.4961
 6081TIP3    H118249   2.693   4.519   1.415  0.3641  0.5098  2.2048
 6081TIP3    H218250   2.627   4.644   1.469 -1.9240 -0.1377  1.0343
 6082TIP3   OH218251   2.633   3.266   0.120 -0.0141  0.2330 -0.1043
 6082TIP3    H118252   2.666   3.221   0.043  1.1284  0.1606  0.4091
 6082TIP3    H218253   2.613   3.196   0.182 -0.9528  0.2895 -0.3201
 6083TIP3   OH218254   6.145   2.844   4.401 -0.3638 -0.0111 -0.4302
 6083TIP3    H118255   6.158   2.828   4.308 -1.8722 -0.2507 -0.6172
 6083TIP3    H218256   6.197   2.776   4.444 -0.0583 -0.2093 -1.0930
 6084TIP3   OH218257   0.483   2.680   3.161  0.2204 -0.4047 -0.2393
 6084TIP3    H118258   0.511   2.641   3.078  0.5140 -0.4177 -0.1361
 6084TIP3    H218259   0.520   2.768   3.159  0.0991 -0.3529 -0.1880
 6085TIP3   OH218260   5.862   5.724   1.523  0.1449  0.7507  0.7057
 6085TIP3    H118261   5.954   5.720   1.497  0.4883  0.2648  1.9204
 6085TIP3    H218262   5.814   5.685   1.450  0.8995  0.9873  0.0732
 6086TIP3   OH218263   3.136   5.310   4.777 -0.3756 -0.5059  0.2353
 6086TIP3    H118264   3.203   5.375   4.799 -0.0254 -1.3520  1.8033
 6086TIP3    H218265   3.166   5.271   4.695  0.1356  0.3292  0.0168
 6087TIP3   OH218266   0.949   3.039   2.193  0.4770  0.0516 -0.2238
 6087TIP3    H118267   0.905   3.124   2.197 -1.4706 -0.7689 -2.3031
 6087TIP3    H218268   0.944   3.005   2.282 -0.2742  1.3688  0.2631
 6088TIP3   OH218269   1.520   2.282   5.034 -0.4276  0.3682 -0.4847
 6088TIP3    H118270   1.605   2.295   5.076 -0.4276  0.7184 -0.5972
 6088TIP3    H218271   1.471   2.362   5.052 -1.2776 -0.4161  0.8656
 6089TIP3   OH218272   0.609   2.239   2.865  0.1562 -0.0450 -0.0084
 6089TIP3    H118273   0.701   2.253   2.844  0.1232 -1.4162 -1.1911
 6089TIP3    H218274   0.609   2.164   2.924 -0.2444 -0.4300 -0.4970
 6090TIP3   OH218275   0.892   0.041   1.211 -0.0634 -0.0458  0.0212
 6090TIP3    H118276   0.813   0.047   1.157  1.0230 -0.6793 -1.7187
 6090TIP3    H218277   0.946   0.115   1.185  0.8587 -0.8546 -0.4571
 6091TIP3   OH218278   4.674   2.709   2.390  0.2353 -0.5319  0.4798
 6091TIP3    H118279   4.648   2.680   2.477 -2.1668  0.3175  0.1155
 6091TIP3    H218280   4.718   2.793   2.404 -0.4870 -0.2138  0.8501
 6092TIP3   OH218281   1.983   4.935   3.054  0.8573  0.1753  0.1213
 6092TIP3    H118282   1.961   5.024   3.028  0.2367  0.9038  2.8037
 6092TIP3    H218283   2.078   4.934   3.057  0.8676  0.7735  0.1665
 6093TIP3   OH218284   5.981   3.701   1.572 -0.2146 -0.1955 -0.5311
 6093TIP3    H118285   6.032   3.778   1.596  0.7857 -1.0650  0.2385
 6093TIP3    H218286   5.941   3.723   1.488 -0.2573  1.2865 -0.1387
 6094TIP3   OH218287   1.802   2.847   4.462 -0.0337  0.3872  0.1804
 6094TIP3    H118288   1.886   2.819   4.426 -0.2812  0.3691 -0.3809
 6094TIP3    H218289   1.825   2.889   4.545  0.6031  1.0715 -0.3305
 6095TIP3   OH218290   1.115   2.437   0.549  0.4715  0.1763  1.0033
 6095TIP3    H118291   1.024   2.454   0.525  0.6119 -0.2186  0.1571
 6095TIP3    H218292   1.120   2.342   0.557  1.1193  0.0714 -0.3131
 6096TIP3   OH218293   5.511   5.739   2.957 -0.0192  0.2763 -0.1299
 6096TIP3    H118294   5.494   5.833   2.959 -1.3871  0.0568  0.0996
 6096TIP3    H218295   5.600   5.730   2.924  0.3513  1.6719  0.4355
 6097TIP3   OH218296   1.913   2.010   3.206  0.0339 -0.2661  0.1213
 6097TIP3    H118297   1.874   2.089   3.244 -1.1781 -0.4432 -0.7027
 6097TIP3    H218298   1.852   1.983   3.137  0.9124 -1.3791 -0.2626
 6098TIP3   OH218299   6.115   4.901   3.430 -0.2183 -0.2132  0.0483
 6098TIP3    H118300   6.023   4.879   3.445  0.4644 -2.6984  1.1637
 6098TIP3    H218301   6.128   4.889   3.336 -1.4136  2.0625 -0.4761
 6099TIP3   OH218302   4.104   4.977   5.002 -0.0570 -0.3725  0.2722
 6099TIP3    H118303   4.115   5.013   4.914  0.8891 -1.5136 -0.1110
 6099TIP3    H218304   4.161   5.030   5.057  1.8102 -1.5901 -0.3928
 6100TIP3   OH218305   4.332   5.526   2.853  0.6048 -0.5595  0.2543
 6100TIP3    H118306   4.320   5.485   2.767  2.1597  0.4926 -0.5096
 6100TIP3    H218307   4.400   5.592   2.839  0.3917  0.1256  2.1487
 6101TIP3   OH218308   4.626   1.235   0.420 -0.3646  0.9648 -0.2671
 6101TIP3    H118309   4.652   1.238   0.328 -0.7234 -0.4848 -0.4350
 6101TIP3    H218310   4.689   1.175   0.460 -1.7198 -0.3987 -0.1074
 6102TIP3   OH218311   3.413   4.621   2.749 -0.0166  0.1891  0.6150
 6102TIP3    H118312   3.387   4.635   2.658 -2.0581 -0.0291  1.1180
 6102TIP3    H218313   3.375   4.695   2.796 -2.1241 -1.5201  1.7774
 6103TIP3   OH218314   3.970   5.298   4.264  0.1286 -0.6941 -0.7028
 6103TIP3    H118315   3.999   5.216   4.305 -1.8590 -1.3282 -0.4774
 6103TIP3    H218316   4.052   5.343   4.242  1.2777 -2.4556 -0.3010
 6104TIP3   OH218317   0.534   2.920   1.417 -0.1435  0.1416  0.3242
 6104TIP3    H118318   0.609   2.964   1.377 -0.0948  1.1946  1.5063
 6104TIP3    H218319   0.512   2.850   1.356  1.9900 -0.3822  0.0885
 6105TIP3   OH218320   3.958   5.668   3.289  1.0679  0.5442 -0.4625
 6105TIP3    H118321   4.011   5.589   3.280  0.7747  0.4302 -1.2133
 6105TIP3    H218322   4.022   5.740   3.292  1.3175  0.3119 -0.0832
 6106TIP3   OH218323   2.685   4.007   0.509 -0.0386  0.4685 -0.0744
 6106TIP3    H118324   2.607   3.958   0.484  1.5308 -2.0524 -0.4368
 6106TIP3    H218325   2.657   4.061   0.582 -1.8289 -1.3543  0.6821
 6107TIP3   OH218326   5.512   4.432   4.421  0.0537  0.2075 -0.0451
 6107TIP3    H118327   5.490   4.500   4.358 -2.1049 -1.2296 -0.9956
 6107TIP3    H218328   5.593   4.393   4.388  1.1139  1.9844  0.3172
 6108TIP3   OH218329   2.461   5.590   0.720 -0.4867  0.6781  0.2960
 6108TIP3    H118330   2.434   5.593   0.629  0.3524  1.3885  0.0603
 6108TIP3    H218331   2.474   5.497   0.738  0.8214  0.6389 -0.7599
 6109TIP3   OH218332   3.515   0.168   3.266 -0.4583  0.1338  0.4872
 6109TIP3    H118333   3.549   0.240   3.212  0.7887 -1.1974 -0.5939
 6109TIP3    H218334   3.428   0.197   3.293 -1.0852  0.9426 -2.1260
 6110TIP3   OH218335   2.190   2.922   2.436  0.3738 -0.4567 -0.3251
 6110TIP3    H118336   2.147   2.840   2.461 -3.4315  1.2347 -0.5253
 6110TIP3    H218337   2.166   2.983   2.506  0.2269  1.2546 -1.7890
 6111TIP3   OH218338   4.436   1.832   2.765 -0.0965 -0.2971  0.0828
 6111TIP3    H118339   4.516   1.846   2.716 -0.6169 -1.9031 -1.3267
 6111TIP3    H218340   4.375   1.794   2.702 -1.1552 -1.4532  1.7118
 6112TIP3   OH218341   4.300   0.215   5.209 -0.1308 -0.4449 -0.8940
 6112TIP3    H118342   4.232   0.179   5.152  0.1372 -0.5753 -1.1303
 6112TIP3    H218343   4.348   0.276   5.154 -0.8162  0.5785 -0.3961
 6113TIP3   OH218344   1.848   0.989   5.014 -0.6696  0.5766  1.3139
 6113TIP3    H118345   1.839   1.013   4.922  3.1253 -0.0423  0.5887
 6113TIP3    H218346   1.887   1.067   5.055 -0.6896  0.2505  1.9694
 6114TIP3   OH218347   3.451   1.780   3.272  1.0312  0.3260 -0.2471
 6114TIP3    H118348   3.529   1.835   3.280  3.3496 -2.7370 -0.0943
 6114TIP3    H218349   3.451   1.725   3.350 -2.2952  1.2126  0.5710
 6115TIP3   OH218350   5.769   5.468   4.365 -0.1234 -0.5207 -0.1158
 6115TIP3    H118351   5.732   5.381   4.378 -1.0729 -0.3330 -1.3654
 6115TIP3    H218352   5.863   5.456   4.374 -0.3254 -1.3382  1.4441
 6116TIP3   OH218353   4.182   5.326   0.008 -0.3508 -0.6951 -0.4142
 6116TIP3    H118354   4.232   5.406  -0.007  2.2003 -2.1497 -0.1232
 6116TIP3    H218355   4.095   5.357   0.035  0.1582  1.9307 -1.5302
 6117TIP3   OH218356   0.343   0.066   2.575  0.2097  0.3776 -0.7238
 6117TIP3    H118357   0.340  -0.005   2.511 -0.6400 -0.7372  0.4834
 6117TIP3    H218358   0.436   0.084   2.587  0.7018 -2.6336  1.0709
 6118TIP3   OH218359   4.536   5.739   4.737  0.5894 -0.0457 -0.6890
 6118TIP3    H118360   4.521   5.743   4.642 -1.8468  1.4185 -0.3213
 6118TIP3    H218361   4.533   5.830   4.766  0.3669 -0.5375  0.9226
 6119TIP3   OH218362   0.621   5.694   1.956  0.3071 -0.5055 -0.4030
 6119TIP3    H118363   0.631   5.630   1.885 -1.0915  0.1174 -1.1950
 6119TIP3    H218364   0.542   5.666   2.002 -0.1315  0.4560 -0.5522
 6120TIP3   OH218365   1.163   0.976   3.045 -0.0978 -0.1581  0.2580
 6120TIP3    H118366   1.088   1.021   3.005  0.4437 -0.5535 -1.2696
 6120TIP3    H218367   1.172   1.018   3.131 -1.1003  0.9766 -0.1503
 6121TIP3   OH218368   0.176   2.468   0.523 -0.5055  0.0275  0.8142
 6121TIP3    H118369   0.237   2.410   0.477 -1.5773 -0.3394 -0.1760
 6121TIP3    H218370   0.097   2.416   0.535 -1.2487  1.0660  0.5137
 6122TIP3   OH218371   2.352   3.065   4.217  0.0372 -0.2222 -0.0570
 6122TIP3    H118372   2.285   3.009   4.179 -1.2212  0.0264  1.6608
 6122TIP3    H218373   2.427   3.006   4.232  0.8397 -0.2045 -3.2793
 6123TIP3   OH218374   1.910   1.881   2.326  0.3075  0.5443  0.2537
 6123TIP3    H118375   1.906   1.792   2.359  0.6302  0.2078 -0.5839
 6123TIP3    H218376   1.821   1.901   2.298 -0.0698  0.9957  1.6984
 6124TIP3   OH218377   6.210   2.849   2.776  0.1056 -0.4063 -0.1096
 6124TIP3    H118378   6.175   2.777   2.724 -1.0761 -0.9949  1.4118
 6124TIP3    H218379   6.200   2.926   2.720  0.0211 -1.1911 -1.2110
 6125TIP3   OH218380   1.453   4.249   3.732  0.1446  0.9737 -0.0636
 6125TIP3    H118381   1.540   4.210   3.740 -0.3704 -0.1458  0.2665
 6125TIP3    H218382   1.414   4.205   3.656 -0.3724  0.9846  0.1904
 6126TIP3   OH218383   2.170   2.986   0.226 -0.3836  0.3998 -0.1722
 6126TIP3    H118384   2.085   2.942   0.222 -0.7705  1.1187 -0.0082
 6126TIP3    H218385   2.223   2.940   0.161 -1.1950  0.5509 -0.9743
 6127TIP3   OH218386   1.653   3.241   2.750  0.5707 -0.7499 -0.0885
 6127TIP3    H118387   1.577   3.273   2.800  1.7982  0.7411  0.9439
 6127TIP3    H218388   1.620   3.230   2.661 -0.6374  0.8914  0.0911
 6128TIP3   OH218389   1.327   2.431   4.659 -0.1898 -0.2077  0.4780
 6128TIP3    H118390   1.302   2.457   4.748 -2.6057 -1.7885  0.3631
 6128TIP3    H218391   1.422   2.437   4.658 -0.2303  2.8771  2.1524
 6129TIP3   OH218392   3.027   0.322   3.250 -0.5422  0.4387 -0.4543
 6129TIP3    H118393   2.963   0.390   3.232 -1.1936 -0.0195  0.0484
 6129TIP3    H218394   3.043   0.279   3.166 -1.2526  0.2610 -0.5034
 6130TIP3   OH218395   3.612   0.837   2.836 -0.3148 -0.0211  0.4102
 6130TIP3    H118396   3.611   0.927   2.869  0.0079 -0.3195  1.2640
 6130TIP3    H218397   3.695   0.801   2.866  0.4591 -0.0164 -1.6186
 6131TIP3   OH218398   4.376   5.472   1.442  0.3229  0.4095 -0.6330
 6131TIP3    H118399   4.460   5.464   1.396  0.0966  0.6182 -1.0867
 6131TIP3    H218400   4.310   5.455   1.375  0.0037 -0.0725 -0.2035
 6132TIP3   OH218401   0.905   4.206   1.720  0.4743 -0.2888 -0.2264
 6132TIP3    H118402   0.899   4.203   1.624 -0.2177 -2.0603 -0.1682
 6132TIP3    H218403   0.862   4.125   1.749 -0.4095  0.7921  1.6424
 6133TIP3   OH218404   0.260   4.471   1.396  0.2595 -0.3432  0.1923
 6133TIP3    H118405   0.270   4.562   1.424  0.1994 -0.0069 -0.8186
 6133TIP3    H218406   0.165   4.456   1.399  0.0626  0.2927 -1.5354
 6134TIP3   OH218407   2.950   0.467   1.337 -0.4482 -0.0639 -0.5761
 6134TIP3    H118408   2.990   0.519   1.408 -1.4654 -1.0972  0.8145
 6134TIP3    H218409   2.977   0.512   1.257  2.3296  0.0751  0.3269
 6135TIP3   OH218410   4.220   1.666   0.194  0.0208 -0.2444  0.0187
 6135TIP3    H118411   4.186   1.581   0.220 -0.4025 -0.1883 -0.3259
 6135TIP3    H218412   4.199   1.672   0.101  0.0840  0.2172  0.0326
 6136TIP3   OH218413   4.835   0.471   1.276  0.4546  0.0421  0.5971
 6136TIP3    H118414   4.913   0.415   1.267 -0.9170 -2.6087  3.3437
 6136TIP3    H218415   4.855   0.526   1.352 -0.6148 -1.3385  1.9371
 6137TIP3   OH218416   0.979   3.130   1.682 -0.2161 -0.7544  0.2059
 6137TIP3    H118417   0.944   3.207   1.726 -1.5584 -1.1604 -0.1174
 6137TIP3    H218418   1.049   3.099   1.740 -0.4030  0.0567  0.8834
 6138TIP3   OH218419   4.159   0.057   0.646 -0.1159  0.1332 -0.1865
 6138TIP3    H118420   4.165  -0.030   0.686 -0.2249 -0.4358 -1.3455
 6138TIP3    H218421   4.066   0.078   0.648 -0.0740  0.2835  0.2150
 6139TIP3   OH218422   0.014   2.089   2.255  0.3409 -0.0914  0.7082
 6139TIP3    H118423   0.079   2.113   2.322 -0.0057  3.2092  0.0493
 6139TIP3    H218424   0.014   1.993   2.255  2.6249 -0.2268  3.1940
 6140TIP3   OH218425   5.255   5.652   0.695  0.2374 -0.1517 -0.6369
 6140TIP3    H118426   5.194   5.727   0.697  1.8798  1.2302  1.0208
 6140TIP3    H218427   5.256   5.620   0.785  0.0955 -1.7557 -1.1881
 6141TIP3   OH218428   2.512   5.368   1.796  0.6539  1.0261 -0.4310
 6141TIP3    H118429   2.524   5.309   1.721  1.5123  0.3810  0.1893
 6141TIP3    H218430   2.450   5.434   1.766 -0.9373 -0.6293 -0.9141
 6142TIP3   OH218431   5.773   0.775   4.399 -0.5963 -0.3754 -0.4120
 6142TIP3    H118432   5.835   0.827   4.348 -0.6592 -0.3053 -0.4179
 6142TIP3    H218433   5.819   0.754   4.480 -0.0720 -1.4641 -0.9749
 6143TIP3   OH218434   0.450   5.307   4.440  0.3576  0.3958 -0.4021
 6143TIP3    H118435   0.398   5.354   4.505 -0.4699 -1.3888  0.2924
 6143TIP3    H218436   0.496   5.376   4.392  0.5488  1.8244  1.6687
 6144TIP3   OH218437   0.675   4.901   4.716 -0.4628  0.5131  0.4901
 6144TIP3    H118438   0.666   4.994   4.697  0.2374  0.5658  0.3825
 6144TIP3    H218439   0.659   4.894   4.810  0.5564  0.9108  0.7140
 6145TIP3   OH218440   1.451   0.276   4.838 -0.2920  0.3996  0.3448
 6145TIP3    H118441   1.535   0.273   4.793  0.5120 -0.7772  1.8168
 6145TIP3    H218442   1.405   0.197   4.809  0.4723 -0.6862  1.9231
 6146TIP3   OH218443   4.156   3.339   0.491  0.1620 -0.0071  0.1965
 6146TIP3    H118444   4.098   3.414   0.509  0.4728 -0.2231  2.3694
 6146TIP3    H218445   4.097   3.270   0.462 -0.3675  0.5309 -0.0249
 6147TIP3   OH218446   5.695   5.243   4.010 -0.1278  0.1732 -0.3926
 6147TIP3    H118447   5.765   5.302   3.983 -0.1818 -0.1431 -1.2793
 6147TIP3    H218448   5.618   5.273   3.962 -0.5290  0.3319  0.3439
 6148TIP3   OH218449   5.874   4.798   3.426 -0.2340 -0.4958 -0.2065
 6148TIP3    H118450   5.878   4.711   3.466 -0.0243 -1.1849 -1.6551
 6148TIP3    H218451   5.781   4.822   3.429 -0.2351 -0.5869  0.5672
 6149TIP3   OH218452   2.266   5.003   4.625  0.4028 -0.2003  0.1101
 6149TIP3    H118453   2.353   5.011   4.663 -0.3856  0.5771  1.8366
 6149TIP3    H218454   2.218   4.946   4.685 -0.8341  0.9363  0.2486
 6150TIP3   OH218455   1.883   1.587   3.870  0.4263 -0.5858  0.0512
 6150TIP3    H118456   1.976   1.564   3.865  0.0690 -1.9947 -0.3223
 6150TIP3    H218457   1.838   1.504   3.887 -0.5480  0.4187  3.1509
 6151TIP3   OH218458   1.245   2.563   0.918 -1.3506  0.5251 -0.1934
 6151TIP3    H118459   1.294   2.615   0.854 -0.2067 -0.9645 -0.5725
 6151TIP3    H218460   1.167   2.616   0.935 -1.3122  1.3560 -2.2093
 6152TIP3   OH218461   0.675   3.522   2.172  0.2860  0.3642 -0.1462
 6152TIP3    H118462   0.616   3.523   2.248  0.5318 -0.7817  0.0848
 6152TIP3    H218463   0.688   3.614   2.150  1.3673  0.8196  2.1206
 6153TIP3   OH218464   1.217   0.029   2.703  0.2227  0.5551 -0.2921
 6153TIP3    H118465   1.172  -0.049   2.735  1.9987 -0.0366  0.9281
 6153TIP3    H218466   1.203   0.095   2.771 -0.1669  0.9040 -0.6991
 6154TIP3   OH218467   6.134   4.132   2.335 -0.5542  0.4231 -0.4246
 6154TIP3    H118468   6.042   4.156   2.325 -0.5043  0.4455 -0.8386
 6154TIP3    H218469   6.132   4.043   2.369 -0.7363  0.8215  0.6593
 6155TIP3   OH218470   2.309   0.709   2.438  0.4948  0.1656  0.1267
 6155TIP3    H118471   2.312   0.632   2.381 -1.1030 -0.1087  0.3672
 6155TIP3    H218472   2.366   0.687   2.512  2.6798  0.5602 -1.3425
 6156TIP3   OH218473   0.400   1.051   1.885 -0.2115 -0.4613  0.3049
 6156TIP3    H118474   0.407   1.105   1.964 -1.5910  0.1065  0.0643
 6156TIP3    H218475   0.483   1.003   1.882  1.1261  1.7114  0.4754
 6157TIP3   OH218476   5.967   2.589   2.821 -0.6060 -0.0719 -0.2666
 6157TIP3    H118477   5.929   2.528   2.758 -1.2679 -0.0905  0.1407
 6157TIP3    H218478   5.936   2.675   2.793 -1.1921 -0.1165  0.2346
 6158TIP3   OH218479   5.858   2.788   3.074  0.5801  0.1646  0.3491
 6158TIP3    H118480   5.910   2.710   3.091  0.2066 -0.2360 -0.3107
 6158TIP3    H218481   5.771   2.756   3.054 -0.0901  0.8605  1.9985
 6159TIP3   OH218482   1.812   2.271   3.308 -0.4880 -0.5590  0.1104
 6159TIP3    H118483   1.877   2.332   3.274  0.0338 -1.4933 -0.6090
 6159TIP3    H218484   1.729   2.318   3.300 -0.2249 -0.3005 -1.3716
 6160TIP3   OH218485   4.338   5.837   0.386  0.3269  0.3143 -0.3099
 6160TIP3    H118486   4.353   5.843   0.292  2.1366 -0.1217 -0.0893
 6160TIP3    H218487   4.422   5.860   0.425 -0.9216  2.4809  1.2945
 6161TIP3   OH218488   6.210   5.095   3.566  0.4698 -0.1450 -0.3825
 6161TIP3    H118489   6.150   5.100   3.641  0.4238  0.8237 -0.4779
 6161TIP3    H218490   6.188   5.011   3.525 -0.1189 -0.2776  0.1730
 6162TIP3   OH218491   0.487   4.643   1.583 -0.2858  0.3006  0.3474
 6162TIP3    H118492   0.447   4.577   1.638  0.0850 -0.6717 -0.5157
 6162TIP3    H218493   0.417   4.706   1.565 -0.8917 -0.3440  0.4283
 6163TIP3   OH218494   0.298   0.393   0.284  0.1040 -0.7506  0.3579
 6163TIP3    H118495   0.242   0.339   0.340  1.1818 -0.7233  1.4984
 6163TIP3    H218496   0.341   0.454   0.344 -0.4572  0.8651 -0.7914
 6164TIP3   OH218497   4.508   2.820   1.252 -0.0151 -0.1979 -0.2549
 6164TIP3    H118498   4.506   2.872   1.332 -0.6690  0.2444 -0.5484
 6164TIP3    H218499   4.486   2.882   1.182 -0.2245 -0.7393 -0.6790
 6165TIP3   OH218500   0.523   5.427   2.067 -0.2891  0.7668  0.2974
 6165TIP3    H118501   0.449   5.488   2.066 -1.3886 -0.5154  0.8002
 6165TIP3    H218502   0.573   5.450   2.146  1.7745  3.7486 -1.6412
 6166TIP3   OH218503   5.883   4.735   2.504 -0.1089  0.2215  0.0210
 6166TIP3    H118504   5.943   4.686   2.560 -1.5153  0.4330  1.7748
 6166TIP3    H218505   5.875   4.680   2.425 -0.9139 -1.9770  1.5241
 6167TIP3   OH218506   3.217   5.191   2.552 -1.2036  0.3223  0.5603
 6167TIP3    H118507   3.277   5.266   2.555  0.0416 -0.5623 -0.8657
 6167TIP3    H218508   3.139   5.225   2.508 -1.6401  1.3776  2.0569
 6168TIP3   OH218509   3.250   4.931   4.577  0.5919 -0.4815 -0.3091
 6168TIP3    H118510   3.300   4.917   4.496  1.0613 -0.4354 -0.0309
 6168TIP3    H218511   3.315   4.920   4.647  0.0230 -1.3106  0.0969
 6169TIP3   OH218512   1.850   5.724   1.495 -0.0660  0.4055  0.0176
 6169TIP3    H118513   1.794   5.750   1.569  0.4476  1.7912 -0.0397
 6169TIP3    H218514   1.843   5.797   1.434  1.6217  0.5232 -0.0887
 6170TIP3   OH218515   3.555   1.067   0.424 -0.6303 -0.3942  0.2678
 6170TIP3    H118516   3.509   1.107   0.350 -1.5869 -0.4067  0.8386
 6170TIP3    H218517   3.506   1.095   0.501 -0.2683 -1.2367  0.8207
 6171TIP3   OH218518   5.726   1.959   1.143 -0.1908  0.1876 -0.7083
 6171TIP3    H118519   5.728   1.868   1.174 -0.0123  0.3801 -0.1473
 6171TIP3    H218520   5.749   1.953   1.050 -0.3851 -0.3598 -0.7261
 6172TIP3   OH218521   4.628   0.665   4.700  0.6048  0.0775 -0.5167
 6172TIP3    H118522   4.591   0.675   4.613 -0.2336 -0.3354 -0.2246
 6172TIP3    H218523   4.717   0.633   4.686  0.7410  0.7741 -1.2327
 6173TIP3   OH218524   5.605   0.661   2.900  0.1685  0.5064  0.3661
 6173TIP3    H118525   5.612   0.592   2.966 -3.3480 -1.5570 -1.1188
 6173TIP3    H218526   5.649   0.624   2.823  0.9744  1.2987  0.4336
 6174TIP3   OH218527   5.102   0.888   1.885  0.2944  0.5308  0.0986
 6174TIP3    H118528   5.186   0.863   1.922 -0.0315 -0.8070 -0.0337
 6174TIP3    H218529   5.078   0.968   1.932  0.8455 -0.0040  1.3262
 6175TIP3   OH218530   4.894   0.351   3.882 -0.2031  0.0995  0.2984
 6175TIP3    H118531   4.855   0.314   3.961 -0.3638 -0.1029  0.1238
 6175TIP3    H218532   4.836   0.424   3.859  0.0030  0.3433  0.5276
 6176TIP3   OH218533   5.247   3.839   1.514 -0.7569  0.0887 -0.0067
 6176TIP3    H118534   5.321   3.787   1.543 -0.4957  0.1353 -0.5772
 6176TIP3    H218535   5.183   3.832   1.585 -0.2765 -0.0868  0.4129
 6177TIP3   OH218536   0.603   0.456   0.729 -0.1849  0.3766  0.3150
 6177TIP3    H118537   0.593   0.551   0.727  2.1002  0.6855  0.1684
 6177TIP3    H218538   0.625   0.433   0.639  0.8128 -0.0509  0.6561
 6178TIP3   OH218539   4.171   0.355   1.832 -0.5964  0.1014  0.4669
 6178TIP3    H118540   4.109   0.307   1.887 -2.8337  1.7783 -0.4383
 6178TIP3    H218541   4.190   0.434   1.883 -1.3993  0.8828 -0.4090
 6179TIP3   OH218542   3.540   1.817   4.619  0.7395  0.0020  0.1854
 6179TIP3    H118543   3.578   1.802   4.532 -0.1089  1.0333 -0.3835
 6179TIP3    H218544   3.557   1.909   4.637 -1.9849  0.6961 -0.3769
 6180TIP3   OH218545   5.228   0.728   5.015  0.6239 -0.5584  0.4982
 6180TIP3    H118546   5.174   0.717   5.093  1.2907  1.6305  1.3152
 6180TIP3    H218547   5.165   0.736   4.943 -0.0057 -1.6935  0.8939
 6181TIP3   OH218548   3.472   2.332   0.762  0.4883  0.2908 -0.4033
 6181TIP3    H118549   3.427   2.392   0.821  1.5601  0.2379  0.4995
 6181TIP3    H218550   3.411   2.319   0.690 -0.1712  1.6728 -0.1276
 6182TIP3   OH218551   3.552   5.843   0.079 -0.2641 -0.1411 -0.0626
 6182TIP3    H118552   3.603   5.772   0.040  1.2822  0.7999  0.1649
 6182TIP3    H218553   3.601   5.867   0.158 -0.9133  0.9974  0.0080
 6183TIP3   OH218554   4.807   3.253   4.546 -0.0822 -0.2414 -0.4810
 6183TIP3    H118555   4.812   3.184   4.612  0.4986 -0.1736 -0.4482
 6183TIP3    H218556   4.832   3.333   4.594  0.6029 -0.2335 -0.8324
 6184TIP3   OH218557   4.826   2.756   3.420 -0.5346  0.4425  0.4702
 6184TIP3    H118558   4.779   2.673   3.422 -0.4996  0.4157  0.2624
 6184TIP3    H218559   4.876   2.753   3.338  0.1264  0.3089  0.8688
 6185TIP3   OH218560   4.417   1.372   3.492 -0.0097 -0.2627  0.5864
 6185TIP3    H118561   4.376   1.444   3.541 -0.3912  1.6849 -2.2972
 6185TIP3    H218562   4.509   1.398   3.484 -0.3609  0.5798 -1.3769
 6186TIP3   OH218563   1.648   1.635   0.377  0.2447  0.5693  0.1793
 6186TIP3    H118564   1.637   1.591   0.293 -0.7130  0.3705  0.4026
 6186TIP3    H218565   1.646   1.565   0.442 -2.5026  0.9902  0.6338
 6187TIP3   OH218566   3.166   3.081   4.075 -0.1800  0.4181  1.0154
 6187TIP3    H118567   3.143   3.126   3.994 -0.8555 -1.1072  0.3289
 6187TIP3    H218568   3.218   3.145   4.124 -2.2855  2.4754  0.7492
 6188TIP3   OH218569   2.544   4.094   5.024  0.4642  0.0874 -0.1366
 6188TIP3    H118570   2.570   4.131   4.940  1.1982 -1.6445 -0.7091
 6188TIP3    H218571   2.614   4.119   5.084 -1.0123  3.0708  0.5608
 6189TIP3   OH218572   1.292   2.861   0.220  0.0099 -0.0555 -0.5820
 6189TIP3    H118573   1.275   2.766   0.224 -1.5139  0.2143  1.0561
 6189TIP3    H218574   1.252   2.895   0.301  0.9699  1.9275 -0.8928
 6190TIP3   OH218575   4.189   5.756   2.317  0.2486  0.1482 -0.2538
 6190TIP3    H118576   4.112   5.788   2.362  0.3643 -0.3080  0.2750
 6190TIP3    H218577   4.191   5.662   2.334  0.4579  0.0105 -0.9645
 6191TIP3   OH218578   5.848   4.962   4.637  0.9343  0.6752  0.3858
 6191TIP3    H118579   5.793   4.928   4.708  2.2839 -1.7345  0.3861
 6191TIP3    H218580   5.840   5.057   4.644 -0.6178  0.4730  2.4181
 6192TIP3   OH218581   0.170   4.994   1.451  0.3955 -0.1460  0.2783
 6192TIP3    H118582   0.152   4.971   1.360 -0.5805  1.4461  0.0368
 6192TIP3    H218583   0.096   5.049   1.477  0.9590 -0.0923  1.8467
 6193TIP3   OH218584   5.732   1.732   4.154 -0.4775 -0.2905  0.4867
 6193TIP3    H118585   5.673   1.751   4.080  0.8846 -0.7884 -0.7844
 6193TIP3    H218586   5.752   1.817   4.192  0.1615  0.1715 -0.8250
 6194TIP3   OH218587   6.178   3.293   2.112 -0.2584  0.2161 -0.0651
 6194TIP3    H118588   6.234   3.358   2.068  0.4525 -0.3377  0.0032
 6194TIP3    H218589   6.236   3.253   2.178 -0.9878  0.2451  0.6045
 6195TIP3   OH218590   0.738   0.784   2.726 -0.1066 -0.3996  0.3808
 6195TIP3    H118591   0.829   0.807   2.709  0.3298 -0.7848  2.0287
 6195TIP3    H218592   0.703   0.859   2.774 -0.3222 -0.7424  0.7650
 6196TIP3   OH218593   1.759   3.676   2.305 -0.4629 -0.1510  0.3888
 6196TIP3    H118594   1.832   3.714   2.354 -1.2091  0.9667  0.6618
 6196TIP3    H218595   1.789   3.676   2.214  0.1472 -0.3557  0.5875
 6197TIP3   OH218596   3.328   3.761   3.989 -0.4931 -0.1385 -0.3541
 6197TIP3    H118597   3.340   3.736   4.081 -2.9932  0.9834  0.3551
 6197TIP3    H218598   3.280   3.688   3.950 -0.7001  0.0213 -0.3976
 6198TIP3   OH218599   2.090   1.332   1.803 -0.5943  0.5496 -1.0412
 6198TIP3    H118600   2.051   1.287   1.878 -0.8203 -0.7404 -1.8972
 6198TIP3    H218601   2.171   1.369   1.836 -0.3782 -0.5515 -0.3088
 6199TIP3   OH218602   1.034   5.592   1.851 -0.4488  0.2762 -0.2737
 6199TIP3    H118603   1.117   5.593   1.899 -0.8549 -1.6401  0.5613
 6199TIP3    H218604   1.048   5.529   1.780 -0.8559  0.7660 -0.7984
 6200TIP3   OH218605   1.373   4.976   3.327  0.5916  0.6208  0.6584
 6200TIP3    H118606   1.388   5.017   3.412  1.9931  1.4182  0.0501
 6200TIP3    H218607   1.441   5.011   3.270  2.2292 -2.8490  0.1799
 6201TIP3   OH218608   6.270   0.949   2.723  0.4609 -0.5316  0.0520
 6201TIP3    H118609   6.185   0.946   2.767  0.3906  0.1862 -0.0169
 6201TIP3    H218610   6.297   0.858   2.715 -0.1951 -0.7479  0.2892
 6202TIP3   OH218611   2.564   2.350   1.626 -0.5821 -0.0729  0.2915
 6202TIP3    H118612   2.587   2.372   1.716 -0.5164  2.9637 -0.3494
 6202TIP3    H218613   2.645   2.365   1.576 -1.0486 -0.1134 -0.5000
 6203TIP3   OH218614   3.446   3.250   5.179  0.2015 -0.0744 -0.0286
 6203TIP3    H118615   3.516   3.191   5.151 -0.5591 -0.6091 -0.8475
 6203TIP3    H218616   3.492   3.333   5.198  0.9486 -0.0917 -1.5627
 6204TIP3   OH218617   2.609   0.157   1.511  0.4920  0.4638 -0.3258
 6204TIP3    H118618   2.631   0.246   1.538  3.2267 -0.1580 -0.1348
 6204TIP3    H218619   2.601   0.109   1.594 -0.3315  0.4003 -0.4411
 6205TIP3   OH218620   0.289   2.094   2.969  0.2623 -0.0669  0.2525
 6205TIP3    H118621   0.239   2.081   3.049 -0.6192  0.7883 -0.1370
 6205TIP3    H218622   0.326   2.182   2.978  1.7460 -0.6908  0.5448
 6206TIP3   OH218623   1.286   0.064   0.612 -0.7008  0.3195  0.2101
 6206TIP3    H118624   1.373   0.073   0.574 -0.7933  0.5077  0.0497
 6206TIP3    H218625   1.293   0.108   0.697 -0.7372  0.6308  0.0523
 6207TIP3   OH218626   2.559   4.774   3.249 -0.1713  0.1349  0.4112
 6207TIP3    H118627   2.524   4.847   3.300 -2.6316 -0.3096 -0.4861
 6207TIP3    H218628   2.546   4.697   3.305 -0.1887  0.0189  0.2476
 6208TIP3   OH218629   0.332   0.119   5.058  0.5462 -0.2309  0.2732
 6208TIP3    H118630   0.412   0.166   5.036  1.3236 -1.9352 -0.7079
 6208TIP3    H218631   0.361   0.046   5.113 -0.0268 -1.9277 -1.5631
 6209TIP3   OH218632   4.870   5.731   4.005  0.2462 -0.4394  0.4245
 6209TIP3    H118633   4.925   5.665   4.046 -0.2634  0.0785  2.0026
 6209TIP3    H218634   4.867   5.706   3.913  1.4577 -1.6162  0.6816
 6210TIP3   OH218635   4.784   0.086   2.053 -0.4766 -0.0745  0.1399
 6210TIP3    H118636   4.740   0.135   1.983 -1.4760 -1.0735  0.0406
 6210TIP3    H218637   4.817   0.154   2.112  1.2230  0.8504 -1.7376
 6211TIP3   OH218638   1.949   5.795   1.859  0.1662  0.1251 -0.2217
 6211TIP3    H118639   1.937   5.877   1.811 -0.0503  0.2227 -0.0051
 6211TIP3    H218640   1.929   5.818   1.950  2.0226  0.3087  0.1823
 6212TIP3   OH218641   4.948   3.652   0.370  0.4066 -0.2563 -0.0344
 6212TIP3    H118642   4.856   3.664   0.390  0.4058 -0.8539  0.3328
 6212TIP3    H218643   4.994   3.694   0.443  0.4169 -0.7470  0.2433
 6213TIP3   OH218644   3.835   5.434   0.427  0.0119 -0.0695 -0.2238
 6213TIP3    H118645   3.901   5.481   0.479  0.1144 -1.1073  0.6075
 6213TIP3    H218646   3.752   5.457   0.469 -0.0324  0.1845 -0.4511
 6214TIP3   OH218647   6.175   3.653   1.971 -0.2103 -0.1385 -0.0331
 6214TIP3    H118648   6.260   3.612   1.985  0.3476  0.9085 -0.1964
 6214TIP3    H218649   6.189   3.745   1.996 -1.1405  0.1654 -0.5874
 6215TIP3   OH218650   4.864   5.359   4.678  0.4351 -0.0469  0.3066
 6215TIP3    H118651   4.839   5.358   4.586 -0.8326 -2.8715  0.5764
 6215TIP3    H218652   4.814   5.432   4.716  0.1101  0.4468 -1.0317
 6216TIP3   OH218653   4.622   3.123   0.852  0.0525 -0.1633 -0.2986
 6216TIP3    H118654   4.694   3.113   0.790  0.3308 -1.1405  0.1605
 6216TIP3    H218655   4.589   3.034   0.866 -2.2916  0.4025 -1.6810
 6217TIP3   OH218656   0.725   0.859   1.269 -0.2282 -0.4722  0.3583
 6217TIP3    H118657   0.771   0.828   1.346  0.5741  0.4601  0.2712
 6217TIP3    H218658   0.683   0.781   1.233  2.2322 -1.6514 -0.2137
 6218TIP3   OH218659   5.978   1.689   0.294  0.0884 -0.0659 -0.1377
 6218TIP3    H118660   6.038   1.686   0.220  3.4619  0.1092  2.3133
 6218TIP3    H218661   5.966   1.782   0.313 -0.0490 -0.1177  0.0417
 6219TIP3   OH218662   3.449   2.380   4.670  0.6149 -0.2831 -0.3294
 6219TIP3    H118663   3.420   2.317   4.736 -1.1070  1.3028  0.5451
 6219TIP3    H218664   3.468   2.460   4.720 -1.8075  1.3276 -1.7456
 6220TIP3   OH218665   5.538   3.068   0.417 -0.8432 -0.1775 -0.2447
 6220TIP3    H118666   5.593   3.147   0.413 -0.3081 -0.4742  0.9821
 6220TIP3    H218667   5.576   3.015   0.487 -2.4074 -0.6126  0.3192
 6221TIP3   OH218668   2.307   5.408   1.069 -0.2796  0.1593 -0.3291
 6221TIP3    H118669   2.327   5.354   0.992 -0.0657 -0.0079 -0.1596
 6221TIP3    H218670   2.309   5.498   1.036 -0.3656  0.0791 -0.5566
 6222TIP3   OH218671   5.959   1.665   3.364 -0.1290  0.0790  0.1260
 6222TIP3    H118672   5.968   1.619   3.280 -0.1941  0.8618 -0.3118
 6222TIP3    H218673   6.024   1.624   3.421 -1.7146 -2.1631  0.4722
 6223TIP3   OH218674   1.405   0.478   4.031 -0.7190 -0.7944  0.6061
 6223TIP3    H118675   1.349   0.406   4.002 -1.0074 -1.3331  2.3339
 6223TIP3    H218676   1.487   0.435   4.057 -0.4546 -0.3497  0.5036
 6224TIP3   OH218677   2.678   2.571   1.198  0.4880 -0.2440 -0.1077
 6224TIP3    H118678   2.612   2.591   1.264  0.9212 -0.6009  0.4517
 6224TIP3    H218679   2.662   2.479   1.176  1.7743 -0.8298  1.2187
 6225TIP3   OH218680   3.091   4.516   0.059 -0.2277  0.0592 -0.6429
 6225TIP3    H118681   3.039   4.498  -0.019 -0.1665 -2.6176 -0.1555
 6225TIP3    H218682   3.033   4.497   0.132  0.1772  1.0877 -0.0305
 6226TIP3   OH218683   2.848   3.038   0.882  0.2884 -0.1883  0.0687
 6226TIP3    H118684   2.766   3.080   0.909 -0.2268 -0.3455 -1.1858
 6226TIP3    H218685   2.915   3.105   0.898 -0.5357  1.2437 -2.0596
 6227TIP3   OH218686   0.407   5.961   4.317 -0.4734  0.1690  0.6480
 6227TIP3    H118687   0.493   5.937   4.283  0.6102  2.9956  1.1376
 6227TIP3    H218688   0.388   6.046   4.278 -1.7921  0.8555  2.6192
 6228TIP3   OH218689   3.480   0.231   3.713  0.0150 -0.5537  0.4662
 6228TIP3    H118690   3.531   0.308   3.689  0.6805 -0.2909  2.5144
 6228TIP3    H218691   3.545   0.161   3.724 -0.6516 -1.7411 -2.2481
 6229TIP3   OH218692   5.482   4.400   1.534  0.1516  0.3031  0.2932
 6229TIP3    H118693   5.559   4.349   1.508  0.0941  0.2166  0.2932
 6229TIP3    H218694   5.515   4.460   1.601  0.1234 -0.0389  0.6136
 6230TIP3   OH218695   2.219   4.888   0.040 -0.1754 -0.3308 -0.2473
 6230TIP3    H118696   2.245   4.968  -0.004 -1.3364  0.0950 -0.1865
 6230TIP3    H218697   2.165   4.841  -0.024 -1.5481  0.1085  0.5504
 6231TIP3   OH218698   4.980   2.404   4.551  0.3236 -0.3383  0.0112
 6231TIP3    H118699   5.055   2.440   4.504 -0.0318  0.0251 -0.2825
 6231TIP3    H218700   4.960   2.471   4.617 -2.1960  1.5153 -2.4028
 6232TIP3   OH218701   4.817   3.392   4.871  0.1655 -0.2876  0.1057
 6232TIP3    H118702   4.896   3.403   4.923  0.3525 -1.5557  0.1244
 6232TIP3    H218703   4.807   3.476   4.825  2.6559 -0.7471 -1.4787
 6233TIP3   OH218704   5.217   0.218   0.158 -0.2149 -0.7125 -0.3490
 6233TIP3    H118705   5.273   0.141   0.146 -0.3124 -0.7194 -0.7749
 6233TIP3    H218706   5.146   0.207   0.095 -0.0504 -0.1117 -0.6506
 6234TIP3   OH218707   0.763   5.042   2.498 -0.3065  0.2015  0.5293
 6234TIP3    H118708   0.855   5.034   2.523  0.1097 -2.7816 -1.4915
 6234TIP3    H218709   0.717   4.986   2.560 -0.6879  0.9609  0.9534
 6235TIP3   OH218710   4.299   1.630   4.857  0.2926  0.6004  0.5350
 6235TIP3    H118711   4.252   1.706   4.823 -0.5293 -0.1293  0.0146
 6235TIP3    H218712   4.284   1.561   4.793  1.4055  0.1141  0.7745
 6236TIP3   OH218713   2.588   5.452   4.306 -0.0049  0.9558 -0.3810
 6236TIP3    H118714   2.671   5.499   4.306  0.3410  0.3549 -0.8878
 6236TIP3    H218715   2.533   5.500   4.243  0.6636  0.1580 -1.6183
 6237TIP3   OH218716   6.146   5.698   2.607 -0.4201  0.2783 -0.1390
 6237TIP3    H118717   6.215   5.641   2.641 -0.7251 -0.1496 -0.2339
 6237TIP3    H218718   6.189   5.783   2.598 -0.2369  0.3265  0.9793
 6238TIP3   OH218719   1.181   2.968   3.096  0.2457 -0.0595 -0.1730
 6238TIP3    H118720   1.146   2.900   3.039  0.1887  1.1905 -1.6966
 6238TIP3    H218721   1.268   2.986   3.061  1.0452 -0.6562  1.4012
 6239TIP3   OH218722   4.798   5.502   3.593  0.1473  0.5048  0.3513
 6239TIP3    H118723   4.710   5.511   3.629  0.6476 -1.3450  2.2736
 6239TIP3    H218724   4.845   5.578   3.625 -0.1404  0.2613  1.4090
 6240TIP3   OH218725   0.681   0.925   0.765  0.2463  0.0613 -0.7687
 6240TIP3    H118726   0.721   0.949   0.849 -1.1117 -0.2558 -0.0007
 6240TIP3    H218727   0.687   1.005   0.713  2.1108 -0.0572 -0.8037
 6241TIP3   OH218728   0.077   2.592   3.520  0.1680  0.3303  0.3152
 6241TIP3    H118729   0.107   2.635   3.440 -0.1548  2.6446  1.3558
 6241TIP3    H218730   0.132   2.514   3.527 -0.3251 -0.3823 -2.5163
 6242TIP3   OH218731   3.487   1.414   4.851 -0.3306 -0.1121  0.5017
 6242TIP3    H118732   3.400   1.420   4.813 -1.5168 -1.4744  2.8093
 6242TIP3    H218733   3.486   1.472   4.927  0.2364 -1.2187  1.4057
 6243TIP3   OH218734   0.705   0.430   2.602 -0.1452  0.5258  0.0191
 6243TIP3    H118735   0.668   0.461   2.685 -3.1288 -2.4592  0.0245
 6243TIP3    H218736   0.721   0.337   2.616 -1.1929 -0.1847 -2.8130
 6244TIP3   OH218737   5.450   0.387   0.540  0.5308  0.4606 -0.6372
 6244TIP3    H118738   5.494   0.309   0.507  0.5199 -0.8103  2.1054
 6244TIP3    H218739   5.508   0.421   0.607  0.4005  2.7330 -1.5709
 6245TIP3   OH218740   4.983   2.835   2.148  0.2830  0.6038 -0.4254
 6245TIP3    H118741   5.062   2.889   2.154  0.9706 -0.5121  1.5264
 6245TIP3    H218742   4.930   2.861   2.224 -0.6257  0.4281 -0.9850
 6246TIP3   OH218743   5.495   4.715   4.774  0.1972 -0.4457  0.1752
 6246TIP3    H118744   5.522   4.765   4.697 -0.1817 -1.5614 -0.7198
 6246TIP3    H218745   5.458   4.634   4.738 -2.4506  0.1230  1.4063
 6247TIP3   OH218746   3.523   0.490   4.051  0.0134 -0.2541  0.0512
 6247TIP3    H118747   3.439   0.485   4.006 -0.1411 -1.0604  0.4099
 6247TIP3    H218748   3.501   0.495   4.144  0.3529 -1.0402  0.1859
 6248TIP3   OH218749   2.124   2.960   1.442  0.5065  0.5464 -0.1356
 6248TIP3    H118750   2.142   3.030   1.504  0.5171  0.2363  0.2167
 6248TIP3    H218751   2.041   2.985   1.401  0.1818  0.4517  0.4484
 6249TIP3   OH218752   1.048   5.375   5.152 -0.3113  0.1306 -0.4646
 6249TIP3    H118753   1.002   5.298   5.185  0.5550 -0.1953  0.0133
 6249TIP3    H218754   0.982   5.444   5.151 -1.0173 -0.5409 -0.6093
 6250TIP3   OH218755   0.080   2.905   1.067 -0.1821  0.0357 -0.3055
 6250TIP3    H118756  -0.011   2.875   1.057 -0.1577 -0.5566  1.0439
 6250TIP3    H218757   0.128   2.826   1.093  0.2193  0.8491  1.5664
 6251TIP3   OH218758   5.969   4.655   0.582 -0.0163 -0.0323 -0.4349
 6251TIP3    H118759   5.888   4.631   0.537 -0.0632  3.0065 -2.1924
 6251TIP3    H218760   6.038   4.641   0.517  0.5571 -0.1881  0.1949
 6252TIP3   OH218761   1.015   4.518   1.267  0.3394  0.3061 -0.2996
 6252TIP3    H118762   1.002   4.464   1.345 -0.1200  1.1494  0.2218
 6252TIP3    H218763   1.018   4.456   1.194 -1.3918 -0.3342  0.1441
 6253TIP3   OH218764   3.331   0.226   1.875 -0.6080  0.9328 -0.3857
 6253TIP3    H118765   3.236   0.218   1.875 -0.6293  1.1688 -0.0661
 6253TIP3    H218766   3.352   0.264   1.790 -0.6469 -0.7807 -1.1982
 6254TIP3   OH218767   3.016   4.342   4.361 -0.1023  0.2140  0.2031
 6254TIP3    H118768   2.996   4.287   4.437 -1.7439 -0.8517 -0.9415
 6254TIP3    H218769   3.012   4.283   4.287  0.0955  1.5043 -0.8780
 6255TIP3   OH218770   2.273   5.865   3.143  0.0688 -0.0409  0.0562
 6255TIP3    H118771   2.313   5.910   3.069 -1.6708  1.3231 -0.1128
 6255TIP3    H218772   2.289   5.924   3.217  0.2291 -0.5375  0.4249
 6256TIP3   OH218773   3.154   5.381   3.874  0.2446 -0.6106  0.1996
 6256TIP3    H118774   3.183   5.448   3.812 -1.4199 -1.2935 -1.4028
 6256TIP3    H218775   3.229   5.369   3.932  2.1043 -0.2691 -1.9615
 6257TIP3   OH218776   3.234   2.114   1.991 -0.0426  0.0717 -0.7021
 6257TIP3    H118777   3.179   2.042   1.961  0.1284 -0.2219 -0.3194
 6257TIP3    H218778   3.224   2.115   2.086 -1.9400  2.0999 -0.8557
 6258TIP3   OH218779   5.247   1.389   4.703 -0.0426  0.2089 -0.1124
 6258TIP3    H118780   5.278   1.302   4.729 -0.0513 -0.0606 -0.9570
 6258TIP3    H218781   5.214   1.376   4.614  0.0056  1.0896 -0.2638
 6259TIP3   OH218782   0.011   0.877   3.064 -0.0871 -0.2625  0.1854
 6259TIP3    H118783   0.020   0.806   3.127  0.8437  0.0702  0.4378
 6259TIP3    H218784  -0.029   0.835   2.987  1.9518 -1.4717 -0.3082
 6260TIP3   OH218785   3.889   4.385   2.884  0.1918  0.3530 -0.1389
 6260TIP3    H118786   3.924   4.396   2.796  0.4757 -1.4250 -0.2763
 6260TIP3    H218787   3.841   4.302   2.881 -0.0527  0.4151  1.3020
 6261TIP3   OH218788   0.780   0.129   0.602  0.1127  0.1140 -0.3407
 6261TIP3    H118789   0.723   0.191   0.647  0.6969  0.9176 -0.6775
 6261TIP3    H218790   0.869   0.161   0.621  0.3991 -0.2502 -1.0527
 6262TIP3   OH218791   3.546   0.045   5.040  0.5922  0.1638  0.8749
 6262TIP3    H118792   3.546  -0.050   5.028  0.9826  0.4015 -1.4945
 6262TIP3    H218793   3.483   0.078   4.975  0.2027  1.5204  1.8838
 6263TIP3   OH218794   4.302   0.861   1.069 -0.7113  0.2774  0.2654
 6263TIP3    H118795   4.348   0.798   1.126 -0.7695  1.0611  1.2135
 6263TIP3    H218796   4.326   0.835   0.980  0.4954 -0.1597  0.6899
 6264TIP3   OH218797   1.958   0.366   2.571  0.3071  0.0248  0.3297
 6264TIP3    H118798   1.948   0.411   2.487 -2.0036 -2.4077 -0.8645
 6264TIP3    H218799   2.048   0.335   2.571  0.2612 -0.2259 -1.4677
 6265TIP3   OH218800   5.984   1.023   4.540  0.1672  0.3672 -0.0979
 6265TIP3    H118801   6.021   0.985   4.461  0.4993 -0.4311  0.4278
 6265TIP3    H218802   5.942   1.104   4.511  1.6013  0.8860 -0.8493
 6266TIP3   OH218803   0.694   4.726   4.313 -0.0575  0.4300  0.2605
 6266TIP3    H118804   0.709   4.634   4.292 -0.8596  0.5369 -0.8429
 6266TIP3    H218805   0.604   4.729   4.346  0.1253  0.7559  0.7558
 6267TIP3   OH218806   4.305  -0.023   3.887 -1.0716 -0.4681 -0.8548
 6267TIP3    H118807   4.295   0.069   3.912  0.2907 -0.5302  0.0281
 6267TIP3    H218808   4.373  -0.023   3.820  0.0901 -0.9687  0.2925
 6268TIP3   OH218809   2.478   5.699   4.524 -0.0714 -0.5220  0.3962
 6268TIP3    H118810   2.532   5.642   4.578  0.5927  1.1383  1.5588
 6268TIP3    H218811   2.522   5.701   4.439  1.9071  1.0119  1.3992
 6269TIP3   OH218812   3.062   3.311   4.244 -0.4290 -0.1795  0.0473
 6269TIP3    H118813   3.088   3.326   4.335 -0.2284  0.4705 -0.1170
 6269TIP3    H218814   3.141   3.324   4.193 -0.5188 -0.6418 -0.2192
 6270TIP3   OH218815   5.073   3.401   3.072 -0.0384  0.0047  0.6250
 6270TIP3    H118816   4.992   3.352   3.088  1.1004 -2.0180  0.5138
 6270TIP3    H218817   5.123   3.345   3.013  0.9993  1.7307 -0.1949
 6271TIP3   OH218818   3.761   1.878   1.038  0.1684 -0.9561 -0.0601
 6271TIP3    H118819   3.712   1.948   0.995 -0.2247 -0.2580  1.4395
 6271TIP3    H218820   3.794   1.823   0.967  0.3735  0.6796 -1.2725
 6272TIP3   OH218821   4.228   5.394   4.340 -0.0492  0.2994  0.1585
 6272TIP3    H118822   4.284   5.317   4.327 -1.5370 -0.8582  0.3147
 6272TIP3    H218823   4.239   5.416   4.433  0.4513  0.3384  0.0936
 6273TIP3   OH218824   1.809   3.705   1.473 -0.1377 -0.7981  0.6973
 6273TIP3    H118825   1.750   3.733   1.403  0.0726  1.3809  1.3429
 6273TIP3    H218826   1.825   3.612   1.455 -0.7484 -0.4961 -1.6427
 6274TIP3   OH218827   6.296   0.601   0.371 -0.1040  0.1054 -0.6218
 6274TIP3    H118828   6.207   0.574   0.396  0.0480  0.2455  0.1171
 6274TIP3    H218829   6.343   0.605   0.454  0.8622 -0.9073 -1.0987
 6275TIP3   OH218830   1.050   4.147   4.024 -0.1698  0.3390  0.1661
 6275TIP3    H118831   1.139   4.179   4.013  0.6687 -2.0798 -0.6736
 6275TIP3    H218832   1.004   4.179   3.946  0.5011  0.0094 -0.3828
 6276TIP3   OH218833   1.997   3.317   5.062 -0.1505  0.5808 -0.2297
 6276TIP3    H118834   1.913   3.271   5.050  0.1056  0.4984 -1.8307
 6276TIP3    H218835   1.988   3.360   5.147 -1.2680 -0.5875  0.2808
 6277TIP3   OH218836   1.537   2.811   1.545 -0.2100 -0.1013  0.4466
 6277TIP3    H118837   1.532   2.895   1.498  1.3245  0.5505  1.3971
 6277TIP3    H218838   1.458   2.810   1.600 -1.1633 -0.1226 -0.8648
 6278TIP3   OH218839   1.193   5.394   1.648  0.7234  0.0084 -0.6495
 6278TIP3    H118840   1.226   5.307   1.627  2.0780  0.0622  0.9948
 6278TIP3    H218841   1.256   5.454   1.608  1.3671  0.1466  0.4987
 6279TIP3   OH218842   3.218   5.292   0.661  0.0195  0.1790  0.4299
 6279TIP3    H118843   3.181   5.204   0.668  1.5718 -0.9419 -3.1627
 6279TIP3    H218844   3.310   5.281   0.688  0.0891  0.8534  0.4840
 6280TIP3   OH218845   3.341   2.189   0.564  0.2835 -0.0833 -0.5988
 6280TIP3    H118846   3.298   2.155   0.485 -0.9828  1.1662 -0.4770
 6280TIP3    H218847   3.419   2.134   0.573 -1.5275 -2.8758 -0.4966
 6281TIP3   OH218848   3.164   4.175   0.935  0.5261  0.3199 -0.4941
 6281TIP3    H118849   3.124   4.116   0.871  0.9754  0.2678 -0.7269
 6281TIP3    H218850   3.228   4.226   0.886 -1.1236  2.3423 -0.7005
 6282TIP3   OH218851   1.362   3.910   1.408  0.0204 -0.3626  0.1676
 6282TIP3    H118852   1.331   3.996   1.438  0.9811  0.5040 -1.2288
 6282TIP3    H218853   1.292   3.877   1.352  0.5173  0.4871 -0.9946
 6283TIP3   OH218854   5.356   1.553   3.734  0.0149  0.0233  0.0388
 6283TIP3    H118855   5.426   1.493   3.708 -0.4439  0.1628 -1.6011
 6283TIP3    H218856   5.387   1.639   3.707  0.3907  0.4902  1.8125
 6284TIP3   OH218857   0.402   5.271   3.666  0.3910 -0.0975  0.4632
 6284TIP3    H118858   0.377   5.359   3.695 -2.3266 -0.4018 -0.6545
 6284TIP3    H218859   0.478   5.285   3.610 -0.2401  1.6504 -0.0390
 6285TIP3   OH218860   3.567   1.614   0.276  0.0348  0.1632  0.1653
 6285TIP3    H118861   3.521   1.694   0.302  2.0690  1.4406  0.0564
 6285TIP3    H218862   3.644   1.645   0.230 -0.4190 -1.9599 -2.2108
 6286TIP3   OH218863   0.268   0.436   2.341 -0.0933 -0.5069  0.2751
 6286TIP3    H118864   0.231   0.383   2.411 -0.2009 -1.1383 -0.2542
 6286TIP3    H218865   0.195   0.448   2.279 -0.1484  0.4701  0.5008
 6287TIP3   OH218866   3.802   4.538   1.626 -0.2492  0.2579 -0.1372
 6287TIP3    H118867   3.737   4.584   1.680 -0.2103  0.6026 -0.3806
 6287TIP3    H218868   3.881   4.591   1.635 -0.3075  0.4494 -0.7185
 6288TIP3   OH218869   2.699   0.967   0.958  0.3166  0.3651 -0.2962
 6288TIP3    H118870   2.605   0.987   0.953 -0.3864 -2.4788 -0.3388
 6288TIP3    H218871   2.716   0.913   0.881  1.5970 -0.4773  0.5496
 6289TIP3   OH218872   3.614   5.138   1.005 -0.8293 -0.2017  0.3712
 6289TIP3    H118873   3.673   5.062   1.000  1.0949  1.0969  1.8343
 6289TIP3    H218874   3.643   5.186   1.083 -1.4055  2.4735 -0.9456
 6290TIP3   OH218875   1.960   3.111   2.078  0.4898  0.0669 -0.2986
 6290TIP3    H118876   2.053   3.092   2.076  0.3326 -0.6831 -0.7571
 6290TIP3    H218877   1.950   3.191   2.025  1.0046  0.7898  0.6792
 6291TIP3   OH218878   4.883   1.943   0.747  0.1937  0.0194  0.2350
 6291TIP3    H118879   4.958   1.943   0.807  1.6297 -1.3825 -1.4739
 6291TIP3    H218880   4.887   1.859   0.702 -1.4894  0.5629 -1.0717
 6292TIP3   OH218881   0.345   5.249   1.805  0.0266 -0.4690  0.1074
 6292TIP3    H118882   0.395   5.174   1.773 -1.6450 -0.7507 -2.0269
 6292TIP3    H218883   0.289   5.214   1.874  1.4490 -0.4962  1.2947
 6293TIP3   OH218884   1.284   5.183   0.960  0.4447 -0.2366  0.1946
 6293TIP3    H118885   1.267   5.111   1.021 -2.9885 -0.2950 -0.6222
 6293TIP3    H218886   1.293   5.140   0.875  0.1814  0.1787 -0.0434
 6294TIP3   OH218887   2.105   3.112   2.996  0.2162  0.8970 -0.6532
 6294TIP3    H118888   2.112   3.017   2.984 -2.0619  0.9065 -2.7766
 6294TIP3    H218889   2.011   3.129   3.001  0.5869  2.8293  2.6175
 6295TIP3   OH218890   0.927   5.273   2.924  0.0843 -0.0151 -0.1640
 6295TIP3    H118891   0.898   5.203   2.865 -2.1856 -0.8621  1.7542
 6295TIP3    H218892   0.889   5.352   2.887  0.4369 -0.2016 -0.9402
 6296TIP3   OH218893   1.769   3.363   3.144 -0.2963 -0.2669 -0.2930
 6296TIP3    H118894   1.686   3.397   3.179 -0.8328 -1.2677 -0.5626
 6296TIP3    H218895   1.835   3.397   3.204 -0.7851  1.3075 -0.5849
 6297TIP3   OH218896   1.410   5.542   4.171  0.7433 -0.5847  0.2047
 6297TIP3    H118897   1.345   5.586   4.116  1.0435  0.1340  0.4014
 6297TIP3    H218898   1.392   5.449   4.161 -1.0985 -0.3781  1.2054
 6298TIP3   OH218899   4.060   2.085   5.028  0.2622  0.1799 -0.3480
 6298TIP3    H118900   4.095   2.098   4.940  0.0625  1.3005 -0.2790
 6298TIP3    H218901   3.967   2.070   5.015  0.4944 -1.2804 -0.4275
 6299TIP3   OH218902   2.424   1.733   2.690 -0.3440 -1.1826 -0.6657
 6299TIP3    H118903   2.473   1.666   2.641  0.5314  0.2746 -1.8665
 6299TIP3    H218904   2.480   1.811   2.686 -2.1320  0.1424 -0.8609
 6300TIP3   OH218905   4.331   5.423   3.162  0.2927  0.6301 -0.0636
 6300TIP3    H118906   4.293   5.472   3.089  0.1976 -0.7749 -0.9935
 6300TIP3    H218907   4.296   5.335   3.153 -0.6781  0.6867  2.4113
 6301TIP3   OH218908   1.456   5.325   1.259 -0.6128  0.5392  0.0093
 6301TIP3    H118909   1.464   5.237   1.220  0.7927  1.3409 -1.6518
 6301TIP3    H218910   1.363   5.346   1.250 -0.7165 -0.2127 -0.9181
 6302TIP3   OH218911   6.224   5.944   2.661 -0.4289 -0.1264  0.3056
 6302TIP3    H118912   6.152   6.008   2.664 -1.4637 -1.1752 -0.9023
 6302TIP3    H218913   6.303   5.998   2.648 -1.2134  0.9518 -0.1808
 6303TIP3   OH218914   5.448   4.481   4.667  0.2174 -0.0563 -0.4245
 6303TIP3    H118915   5.438   4.401   4.720 -1.8192  0.0429 -0.5739
 6303TIP3    H218916   5.464   4.449   4.579 -1.4460 -0.3743 -0.6486
 6304TIP3   OH218917   0.127   4.665   2.389 -1.0835 -0.0572 -0.0790
 6304TIP3    H118918   0.136   4.592   2.328  0.5545  0.3087 -0.3169
 6304TIP3    H218919   0.043   4.650   2.432 -0.5916 -2.3350  0.2106
 6305TIP3   OH218920   3.029   2.863   3.111 -0.7523  0.2736 -0.0466
 6305TIP3    H118921   2.957   2.807   3.138 -1.8038  1.2791 -0.6670
 6305TIP3    H218922   2.987   2.942   3.077  0.6793  1.9906  1.9524
 6306TIP3   OH218923   0.081   5.805   1.302  0.2329 -0.5664  0.2582
 6306TIP3    H118924   0.145   5.797   1.373 -1.4796 -0.7439  1.8502
 6306TIP3    H218925   0.052   5.897   1.307  0.2410 -0.5280 -0.3526
 6307TIP3   OH218926   1.002   5.990   2.331  0.3468 -0.0126 -0.4524
 6307TIP3    H118927   1.078   5.934   2.348 -0.0325 -0.6250 -0.7410
 6307TIP3    H218928   0.973   6.018   2.418  1.7194  1.3530 -0.3991
 6308TIP3   OH218929   4.630   4.954   0.952 -0.1743 -0.2594  0.2449
 6308TIP3    H118930   4.656   4.886   1.014  0.2185 -1.7882 -1.4952
 6308TIP3    H218931   4.555   4.917   0.906  1.0743 -0.3082 -1.9069
 6309TIP3   OH218932   4.340   0.191   2.545  0.3962  0.3154 -0.5169
 6309TIP3    H118933   4.429   0.166   2.522  0.2062 -0.0781 -0.8479
 6309TIP3    H218934   4.293   0.193   2.461 -0.4455 -1.7024 -0.1671
 6310TIP3   OH218935   0.113   1.967   0.769  0.6839 -0.1257 -0.1364
 6310TIP3    H118936   0.180   2.014   0.719  1.0935 -1.0188 -0.4536
 6310TIP3    H218937   0.161   1.900   0.818 -0.1229 -2.5471 -2.3523
 6311TIP3   OH218938   1.206   1.609   1.783 -0.5208  0.2665 -0.1458
 6311TIP3    H118939   1.289   1.644   1.815 -0.7537  0.2278  0.5229
 6311TIP3    H218940   1.156   1.686   1.755  0.3248  0.1801 -2.0406
 6312TIP3   OH218941   4.970   5.573   2.735  0.3104  0.0009 -1.0530
 6312TIP3    H118942   4.895   5.607   2.784  1.3357 -1.1081  1.4601
 6312TIP3    H218943   4.947   5.481   2.717  1.4788 -0.7132  0.8203
 6313TIP3   OH218944   5.834   4.093   2.716  0.2240  0.7212 -0.2983
 6313TIP3    H118945   5.917   4.062   2.751 -0.1338  0.3447  0.2547
 6313TIP3    H218946   5.854   4.177   2.675  0.4912  1.7588  1.8032
 6314TIP3   OH218947   5.723   5.518   1.631 -0.3874 -0.3188  0.6128
 6314TIP3    H118948   5.789   5.586   1.618 -0.6821  0.0925  1.2181
 6314TIP3    H218949   5.690   5.533   1.720  0.1790 -1.8023  1.1081
 6315TIP3   OH218950   4.007   1.846   1.210  0.5420 -0.0596 -1.1641
 6315TIP3    H118951   4.058   1.925   1.228 -1.9560  1.5325 -0.4009
 6315TIP3    H218952   3.934   1.877   1.156 -0.9765 -1.6471 -0.1229
 6316TIP3   OH218953   2.223   3.338   2.238  0.1862 -0.5076  0.5975
 6316TIP3    H118954   2.130   3.357   2.254  0.1058  2.2394 -2.3673
 6316TIP3    H218955   2.268   3.378   2.312 -0.7538  3.0180 -0.5314
 6317TIP3   OH218956   0.324   1.543   2.853  0.3186  0.0854 -0.6697
 6317TIP3    H118957   0.232   1.529   2.875  0.5185 -0.1480  0.0266
 6317TIP3    H218958   0.329   1.525   2.759 -0.1260 -1.1088 -0.4863
 6318TIP3   OH218959   1.740   2.394   0.856  0.4546 -0.0125  0.0613
 6318TIP3    H118960   1.690   2.383   0.937  1.4081  2.0354  1.0225
 6318TIP3    H218961   1.825   2.354   0.874  0.8446  0.8862  0.3059
 6319TIP3   OH218962   2.313   3.882   0.781 -0.4934 -0.2781  0.2265
 6319TIP3    H118963   2.299   3.803   0.833 -1.2233 -0.2413  0.1002
 6319TIP3    H218964   2.402   3.873   0.748  1.3929  1.3283  4.2634
 6320TIP3   OH218965   3.925   4.789   1.762 -0.1033 -0.1477  0.2001
 6320TIP3    H118966   3.928   4.870   1.813 -2.3118 -0.1119  0.3316
 6320TIP3    H218967   4.005   4.742   1.789  1.6873  2.2832 -0.4996
 6321TIP3   OH218968   4.099   3.337   4.039 -0.1503  0.7639 -0.0110
 6321TIP3    H118969   4.178   3.303   4.082 -1.0354  0.2433  1.2492
 6321TIP3    H218970   4.122   3.338   3.946  0.3799 -2.1193 -0.0199
 6322TIP3   OH218971   5.632   5.088   3.386  0.4365  0.1311 -0.4002
 6322TIP3    H118972   5.687   5.158   3.352 -0.2533  0.4762 -0.8340
 6322TIP3    H218973   5.562   5.079   3.321 -1.7033  1.7579  1.4921
 6323TIP3   OH218974   0.286   0.117   0.998  0.4336 -0.4103 -0.1092
 6323TIP3    H118975   0.354   0.082   0.940  0.9057  1.0771 -0.4823
 6323TIP3    H218976   0.248   0.190   0.949 -0.5938 -0.4262  0.6236
 6324TIP3   OH218977   3.464   1.522   1.512 -0.2267  0.3592 -0.1276
 6324TIP3    H118978   3.402   1.529   1.585  2.0598  0.5964  1.9393
 6324TIP3    H218979   3.518   1.447   1.534  0.1921  0.1024 -1.9135
 6325TIP3   OH218980   4.977   5.780   2.546  0.2372 -0.2194  0.4301
 6325TIP3    H118981   4.966   5.721   2.621 -1.1241 -0.7536 -0.1562
 6325TIP3    H218982   5.047   5.740   2.494  0.1348 -0.6672  0.6345
 6326TIP3   OH218983   2.060   5.521   1.294  0.4783  0.5658 -0.5107
 6326TIP3    H118984   1.970   5.493   1.277  0.2279  0.1711  1.3157
 6326TIP3    H218985   2.052   5.590   1.360  1.4500  1.3879 -1.2219
 6327TIP3   OH218986   1.122   3.105   0.660 -0.0544  0.0272  0.4037
 6327TIP3    H118987   1.071   3.165   0.714  0.8295 -0.1895  1.4919
 6327TIP3    H218988   1.160   3.043   0.722 -1.5700 -2.1699 -0.7360
 6328TIP3   OH218989   0.520   2.514   0.020  0.1037  0.3911 -0.0020
 6328TIP3    H118990   0.561   2.541  -0.062 -2.2992  1.8692 -0.8513
 6328TIP3    H218991   0.569   2.560   0.088  1.9082 -0.5765 -0.6053
 6329TIP3   OH218992   1.780   4.595   0.060 -0.0658 -0.2719 -0.2196
 6329TIP3    H118993   1.759   4.555   0.144 -1.8847  1.4335  0.2136
 6329TIP3    H218994   1.802   4.522   0.003 -0.9785 -1.6629  1.1345
 6330TIP3   OH218995   0.184   0.766   1.759  0.2737  0.4342  0.3905
 6330TIP3    H118996   0.178   0.851   1.714  1.4681 -0.5221 -1.6972
 6330TIP3    H218997   0.119   0.711   1.714  1.3086 -0.4726 -0.0172
 6331TIP3   OH218998   0.944   3.784   4.048  0.8617 -0.1793 -0.4978
 6331TIP3    H118999   0.981   3.870   4.068  2.1009 -0.4412 -1.5881
 6331TIP3    H219000   0.942   3.740   4.133  2.6635  0.0081 -0.3169
 6332TIP3   OH219001   0.692   2.667   0.212  0.0554 -0.0977  0.3495
 6332TIP3    H119002   0.756   2.617   0.263 -0.4238 -0.0125  1.0595
 6332TIP3    H219003   0.715   2.758   0.229 -0.0339 -0.0700  0.3201
 6333TIP3   OH219004   0.977   3.123   4.492 -0.2932  1.3433  0.1793
 6333TIP3    H119005   1.032   3.152   4.565  0.2652 -2.0957  1.2992
 6333TIP3    H219006   1.039   3.088   4.428 -0.9736  0.3373  0.0440
 6334TIP3   OH219007   2.259   2.093   4.200 -0.3736 -0.2019 -0.5046
 6334TIP3    H119008   2.279   2.140   4.119  0.3418  1.2651  0.4955
 6334TIP3    H219009   2.344   2.063   4.232 -0.4051  0.8656  0.6556
 6335TIP3   OH219010   5.998   1.452   3.155  0.2476  0.1426 -0.0237
 6335TIP3    H119011   6.001   1.467   3.060 -1.1777  3.2093  0.3058
 6335TIP3    H219012   5.910   1.418   3.171 -0.0131  0.9659  0.3283
 6336TIP3   OH219013   2.489   5.303   0.818  0.0596  0.0578 -0.6496
 6336TIP3    H119014   2.440   5.230   0.780 -0.9044  0.1098  0.4535
 6336TIP3    H219015   2.572   5.264   0.846  0.4333 -0.1587 -1.9426
 6337TIP3   OH219016   5.302   4.103   5.122  0.0132  0.0573 -0.2695
 6337TIP3    H119017   5.219   4.074   5.160  1.2675 -1.1759  1.7416
 6337TIP3    H219018   5.282   4.188   5.083 -2.0886  0.0101  0.5641
 6338TIP3   OH219019   1.109   4.980   4.246 -0.3847 -0.0363 -0.1476
 6338TIP3    H119020   1.045   5.047   4.225 -0.2555 -0.1695 -1.0255
 6338TIP3    H219021   1.060   4.898   4.244 -0.2651 -0.1020 -0.4529
 6339TIP3   OH219022   3.722   1.860   0.340 -0.1743  0.5356 -0.0569
 6339TIP3    H119023   3.736   1.915   0.263 -2.3544  0.8792 -0.2893
 6339TIP3    H219024   3.801   1.869   0.392  0.7712  1.4062 -1.5954
 6340TIP3   OH219025   4.771   0.219   0.717 -0.0686  0.3536  0.9327
 6340TIP3    H119026   4.852   0.167   0.726 -0.0385  0.3465  0.6295
 6340TIP3    H219027   4.717   0.168   0.657 -0.1767  0.5071  0.9005
 6341TIP3   OH219028   5.317   5.002   4.347  0.0755  0.1519  0.1246
 6341TIP3    H119029   5.355   5.040   4.268  0.4570  1.3189  0.8502
 6341TIP3    H219030   5.223   4.997   4.328  0.2862 -0.6132 -0.8070
 6342TIP3   OH219031   3.073   4.284   3.311 -0.6232  0.3260  0.1573
 6342TIP3    H119032   3.083   4.214   3.375 -0.8198  1.8068  1.8748
 6342TIP3    H219033   3.083   4.241   3.226 -1.7061 -1.9344  1.1139
 6343TIP3   OH219034   3.085   4.433   0.569  0.4435 -0.7964 -0.1305
 6343TIP3    H119035   3.043   4.499   0.623  0.7744 -1.6580  1.2300
 6343TIP3    H219036   3.052   4.350   0.603 -1.2949 -1.3529 -2.9003
 6344TIP3   OH219037   5.919   5.314   0.659 -0.5783 -0.3907  0.0853
 6344TIP3    H119038   5.862   5.274   0.593  0.2103 -1.1888 -0.1391
 6344TIP3    H219039   5.895   5.407   0.659 -1.5143 -0.6221 -0.3626
 6345TIP3   OH219040   2.802   5.188   5.148  0.1547 -0.0996 -0.4027
 6345TIP3    H119041   2.748   5.180   5.069 -0.9722  1.4755  0.1512
 6345TIP3    H219042   2.740   5.216   5.216  0.5683 -3.8025  1.7206
 6346TIP3   OH219043   1.582   3.474   0.119  0.9378  0.4469  0.5249
 6346TIP3    H119044   1.509   3.521   0.080  0.6286 -0.4696 -0.0189
 6346TIP3    H219045   1.619   3.422   0.047  0.9943 -0.4775  1.1986
 6347TIP3   OH219046   4.773   2.162   0.956 -0.1876 -0.3118 -1.0801
 6347TIP3    H119047   4.730   2.077   0.961 -0.6854  0.0126  2.3836
 6347TIP3    H219048   4.866   2.143   0.965 -0.1733 -0.5333 -1.6244
 6348TIP3   OH219049   3.457   4.000   0.772 -0.2414  0.4975  0.1159
 6348TIP3    H119050   3.447   4.094   0.790  0.6450  0.4837  0.7660
 6348TIP3    H219051   3.451   3.994   0.677 -1.0173  1.1147  0.1097
 6349TIP3   OH219052   3.661   5.954   3.521 -0.0161  0.5592 -0.1565
 6349TIP3    H119053   3.616   5.931   3.440 -0.3321  1.2544 -0.1882
 6349TIP3    H219054   3.658   5.874   3.574  0.3740  0.0378 -0.9075
 6350TIP3   OH219055   5.973   3.285   3.618  0.2012  0.4943 -0.0350
 6350TIP3    H119056   6.057   3.242   3.637  0.9576  1.0753 -1.8577
 6350TIP3    H219057   5.989   3.377   3.637 -0.8466  0.3006  2.0514
 6351TIP3   OH219058   6.063   2.346   1.108 -0.1590  0.3728 -0.4847
 6351TIP3    H119059   6.033   2.267   1.064 -0.1512  0.1352 -0.0767
 6351TIP3    H219060   6.046   2.416   1.046  0.3563 -0.0176 -1.0772
 6352TIP3   OH219061   4.092   2.587   2.007  0.3361  0.3597  0.3333
 6352TIP3    H119062   4.161   2.541   1.960  0.1735  0.5432 -0.0864
 6352TIP3    H219063   4.078   2.667   1.957  0.6307  0.8856  1.0679
 6353TIP3   OH219064   3.510   1.157   3.181 -0.4601 -0.3281 -0.8383
 6353TIP3    H119065   3.432   1.181   3.233 -0.5807  0.7367 -1.4774
 6353TIP3    H219066   3.545   1.241   3.151  1.1783 -0.7643 -0.2353
 6354TIP3   OH219067   0.097   3.808   4.689 -0.1669  0.3493 -0.3560
 6354TIP3    H119068   0.134   3.881   4.739  1.3293 -0.9614  0.5345
 6354TIP3    H219069   0.161   3.793   4.619 -0.7224  0.2043 -0.8339
 6355TIP3   OH219070   4.230   3.011   3.189  0.2384  0.1530 -0.2277
 6355TIP3    H119071   4.183   2.931   3.165  1.0922 -0.0774 -1.2031
 6355TIP3    H219072   4.312   2.981   3.227  0.8778  0.5572 -1.2584
 6356TIP3   OH219073   2.843   1.496   4.302 -0.0049  0.2412 -0.2106
 6356TIP3    H119074   2.795   1.423   4.263 -0.1583  0.7823 -1.0725
 6356TIP3    H219075   2.775   1.560   4.323  0.2517  0.6921 -0.7250
 6357TIP3   OH219076   3.469   3.820   2.632 -0.3130 -0.4818 -0.2559
 6357TIP3    H119077   3.556   3.818   2.672 -0.1875  1.7790 -0.2640
 6357TIP3    H219078   3.486   3.833   2.538 -0.5697  1.8514 -0.0581
 6358TIP3   OH219079   3.358   5.462   4.883  0.2082 -0.2737 -0.4451
 6358TIP3    H119080   3.401   5.399   4.941  2.0461  1.9373  0.7515
 6358TIP3    H219081   3.427   5.491   4.824 -0.7411  0.2376 -1.3332
 6359TIP3   OH219082   5.989   1.446   2.893  0.2429 -0.9652  0.3267
 6359TIP3    H119083   6.030   1.360   2.887  2.5137  0.1205 -1.4203
 6359TIP3    H219084   5.901   1.434   2.857  0.1636 -2.7304  1.0491
 6360TIP3   OH219085   0.964   0.588   0.427  0.1833 -0.4819 -0.1528
 6360TIP3    H119086   1.053   0.586   0.462 -0.0526 -0.5185  0.4462
 6360TIP3    H219087   0.933   0.677   0.447 -0.4995 -0.9796  1.1239
 6361TIP3   OH219088   5.120   1.592   1.334  0.1945 -0.1212  0.5201
 6361TIP3    H119089   5.184   1.569   1.267  0.0652 -0.3891  0.4868
 6361TIP3    H219090   5.054   1.522   1.330  1.0388 -1.0483  2.0508
 6362TIP3   OH219091   2.343   2.932   3.652 -0.5850 -0.3503  0.3817
 6362TIP3    H119092   2.410   2.967   3.593 -0.4324 -0.8492  0.2529
 6362TIP3    H219093   2.361   2.838   3.655  1.1658 -0.0435  3.3968
 6363TIP3   OH219094   4.639   3.040   3.876  0.1514  0.3437  0.3695
 6363TIP3    H119095   4.553   2.998   3.877  0.8316 -1.1159 -0.0983
 6363TIP3    H219096   4.649   3.074   3.965 -1.2892  1.4032  0.1738
 6364TIP3   OH219097   0.673   1.291   0.906 -0.1890 -0.2959 -0.3223
 6364TIP3    H119098   0.741   1.344   0.950 -0.9266  0.0125  0.4709
 6364TIP3    H219099   0.678   1.206   0.949 -0.5706 -0.1489  0.0197
 6365TIP3   OH219100   4.411   3.094   4.183 -0.2107 -0.2410 -0.1694
 6365TIP3    H119101   4.374   3.158   4.243  1.2185 -0.8043  1.3916
 6365TIP3    H219102   4.410   3.012   4.232 -0.6744 -1.1318 -1.6031
 6366TIP3   OH219103   4.118   4.739   0.250 -0.7318 -0.4428 -0.4614
 6366TIP3    H119104   4.163   4.656   0.240 -1.7569 -1.2040  0.7883
 6366TIP3    H219105   4.025   4.717   0.241 -0.9786  0.7038 -0.8863
 6367TIP3   OH219106   6.277   4.217   1.089 -0.1945 -0.3681  0.0631
 6367TIP3    H119107   6.301   4.125   1.095  0.5772 -0.2672 -1.0428
 6367TIP3    H219108   6.183   4.219   1.108  0.0391 -1.1947  1.4008
 6368TIP3   OH219109   4.787   1.817   2.209 -0.0453  0.3146  0.1732
 6368TIP3    H119110   4.692   1.805   2.208 -0.0852  0.4209  1.2663
 6368TIP3    H219111   4.801   1.903   2.170 -0.3537  0.1118 -0.4012
 6369TIP3   OH219112   5.755   5.601   2.425 -0.3831  0.7895 -0.4386
 6369TIP3    H119113   5.672   5.572   2.463  0.7336 -0.9023  0.8616
 6369TIP3    H219114   5.779   5.678   2.478 -0.6335  0.6728 -0.1505
 6370TIP3   OH219115   6.225   4.074   1.489 -0.0687  0.3562 -0.0238
 6370TIP3    H119116   6.268   4.036   1.566  1.1183 -1.6263 -1.5830
 6370TIP3    H219117   6.258   4.163   1.485  2.3670 -0.4679  0.0381
 6371TIP3   OH219118   0.666   2.826   1.087 -0.3594  0.1962  0.0949
 6371TIP3    H119119   0.676   2.796   0.996  1.0836 -1.3400  0.7130
 6371TIP3    H219120   0.732   2.894   1.098 -0.6903  0.5482 -0.0488
 6372TIP3   OH219121   4.903   0.538   2.092  0.1853  0.4274 -0.2117
 6372TIP3    H119122   4.922   0.579   2.008 -0.8464  1.1886 -0.0944
 6372TIP3    H219123   4.919   0.607   2.157 -2.4495  1.0166 -0.0778
 6373TIP3   OH219124   4.273   4.571   0.574 -0.0405  0.2598  0.2494
 6373TIP3    H119125   4.304   4.599   0.660 -0.8879  1.5929  0.1567
 6373TIP3    H219126   4.339   4.604   0.513  0.6792 -0.8823  0.3767
 6374TIP3   OH219127   0.875   3.228   0.488  0.3400 -0.1364 -0.2062
 6374TIP3    H119128   0.909   3.279   0.562  0.2324 -0.8518  0.3520
 6374TIP3    H219129   0.862   3.292   0.419 -0.7678  0.7705  0.8018
 6375TIP3   OH219130   4.528   5.213   3.209  0.0182  0.5450  0.0221
 6375TIP3    H119131   4.617   5.203   3.177  0.6349  3.1848  0.6400
 6375TIP3    H219132   4.506   5.305   3.191 -1.4645  0.7824  2.5192
 6376TIP3   OH219133   3.723   0.491   3.875  0.0913 -0.3069 -0.1273
 6376TIP3    H119134   3.707   0.438   3.798 -1.5490  0.4619 -0.3463
 6376TIP3    H219135   3.641   0.490   3.924  0.8443 -0.1321  1.2158
 6377TIP3   OH219136   5.519   0.971   0.866 -0.1059 -0.6390  0.5700
 6377TIP3    H119137   5.594   1.008   0.818 -0.2259 -1.8008 -0.5669
 6377TIP3    H219138   5.559   0.920   0.936  0.1532 -0.7429  0.3521
 6378TIP3   OH219139   5.999   2.863   3.647 -0.0430  0.6164 -0.2189
 6378TIP3    H119140   5.971   2.801   3.579  1.2202  0.1238 -0.3215
 6378TIP3    H219141   5.925   2.923   3.657 -1.0680 -0.5725 -0.5218
 6379TIP3   OH219142   1.579   0.534   1.871 -0.1909 -0.1847  0.3853
 6379TIP3    H119143   1.552   0.514   1.781  0.6139  1.7258 -0.3239
 6379TIP3    H219144   1.550   0.624   1.885 -1.2545 -0.7825  2.4643
 6380TIP3   OH219145   2.012   5.681   5.069  0.4702  0.1746 -0.1457
 6380TIP3    H119146   2.098   5.714   5.096  0.0521  1.5890 -0.5018
 6380TIP3    H219147   2.031   5.595   5.030  2.1400  1.6409 -2.8568
 6381TIP3   OH219148   0.300   4.333   3.314 -0.3440 -0.2278 -0.5644
 6381TIP3    H119149   0.221   4.346   3.262 -1.1501 -1.4636  0.3028
 6381TIP3    H219150   0.319   4.240   3.306 -0.4157 -0.4304  1.2175
 6382TIP3   OH219151   4.725   4.351   4.440 -0.4618  0.5216  0.6010
 6382TIP3    H119152   4.762   4.364   4.527 -0.9431  0.2503  0.8440
 6382TIP3    H219153   4.668   4.427   4.427 -0.3700  0.5754  0.5117
 6383TIP3   OH219154   1.460   0.339   4.465 -0.1779  0.1538  0.5708
 6383TIP3    H119155   1.381   0.393   4.458 -0.0145  0.5212  1.5046
 6383TIP3    H219156   1.459   0.286   4.385 -0.1336  1.7981 -0.5757
 6384TIP3   OH219157   3.771   1.673   5.146 -0.2148  0.4849 -0.4889
 6384TIP3    H119158   3.820   1.599   5.180 -0.2229 -0.1235 -1.7174
 6384TIP3    H219159   3.831   1.747   5.150  1.1203 -0.3765 -2.5697
 6385TIP3   OH219160   5.835   1.466   2.349  0.5263 -0.5034 -0.3230
 6385TIP3    H119161   5.839   1.513   2.432  1.7219  0.2440 -0.7731
 6385TIP3    H219162   5.888   1.388   2.363  1.9390  0.3303 -0.7761
 6386TIP3   OH219163   5.686   0.197   3.779  0.0777 -0.4220 -0.8560
 6386TIP3    H119164   5.693   0.293   3.777  0.4355 -0.3837  0.7106
 6386TIP3    H219165   5.734   0.171   3.858  0.6722 -1.9730 -1.6958
 6387TIP3   OH219166   5.906   5.695   1.872 -0.0948 -0.0982  1.0967
 6387TIP3    H119167   5.844   5.754   1.828  0.1378 -0.0215  0.8662
 6387TIP3    H219168   5.867   5.678   1.957 -0.8823 -0.7798  0.6123
 6388TIP3   OH219169   0.175   0.198   2.083 -0.1702 -0.3758 -0.3890
 6388TIP3    H119170   0.169   0.293   2.089  2.4854  0.1743 -3.3472
 6388TIP3    H219171   0.086   0.169   2.065 -0.9721  1.5685  0.1641
 6389TIP3   OH219172   2.446   4.415   3.077 -0.0568  0.4429 -0.6153
 6389TIP3    H119173   2.379   4.436   3.143  0.2410  0.1510 -0.2153
 6389TIP3    H219174   2.488   4.498   3.058  1.9517  0.1003  1.8664
 6390TIP3   OH219175   6.039   3.531   2.515 -0.0878  0.1531  0.0387
 6390TIP3    H119176   6.125   3.495   2.539 -0.9614 -1.1099  1.4983
 6390TIP3    H219177   6.005   3.470   2.449  0.3397  0.9622 -0.9510
 6391TIP3   OH219178   5.228   4.673   1.150  0.7079 -0.5894  0.1742
 6391TIP3    H119179   5.261   4.640   1.066 -1.2711 -1.6613 -0.2452
 6391TIP3    H219180   5.149   4.622   1.166 -1.4483  2.5982  0.5314
 6392TIP3   OH219181   0.882   0.386   3.459  0.0280  0.5768  0.0476
 6392TIP3    H119182   0.972   0.381   3.427 -0.4076  0.8600 -1.3237
 6392TIP3    H219183   0.889   0.377   3.554  1.2876 -2.0811 -0.2048
 6393TIP3   OH219184   3.506   3.086   0.953 -0.1095 -0.2522  0.3139
 6393TIP3    H119185   3.433   3.138   0.986  1.4662  0.9327  2.1847
 6393TIP3    H219186   3.561   3.149   0.907 -0.1299 -1.0865 -0.8937
 6394TIP3   OH219187   5.524   2.581   2.760  0.2999  0.0173  0.6448
 6394TIP3    H119188   5.555   2.628   2.682  3.8080 -0.3169  1.6404
 6394TIP3    H219189   5.546   2.639   2.833 -0.8168 -0.6537  1.5471
 6395TIP3   OH219190   0.341   1.935   2.249 -0.1056 -0.1319 -0.7224
 6395TIP3    H119191   0.358   1.876   2.323  0.5104  0.5067 -0.3480
 6395TIP3    H219192   0.277   1.888   2.196 -0.9875 -0.3738  0.5032
 6396TIP3   OH219193   6.091   5.118   2.069  0.5276 -0.5881 -0.9012
 6396TIP3    H119194   6.068   5.209   2.052 -0.2992 -0.5099  0.5076
 6396TIP3    H219195   6.146   5.121   2.147  0.5757 -1.2885 -0.9002
 6397TIP3   OH219196   5.728   1.890   0.139 -0.2432  0.0353  0.2856
 6397TIP3    H119197   5.701   1.940   0.062  1.8078  4.2581  1.9523
 6397TIP3    H219198   5.793   1.828   0.106  1.5246  2.5821 -1.3973
 6398TIP3   OH219199   0.728   5.079   3.442 -0.6319  0.0075  0.3069
 6398TIP3    H119200   0.676   5.021   3.497 -2.1295 -0.3832 -1.4138
 6398TIP3    H219201   0.766   5.022   3.375 -0.7287  0.7374 -0.3969
 6399TIP3   OH219202   0.327   3.190   1.610  0.2420 -0.0746  0.3246
 6399TIP3    H119203   0.277   3.174   1.530  0.7826 -0.4421  0.0540
 6399TIP3    H219204   0.273   3.152   1.680  0.4531 -1.0957 -0.0483
 6400TIP3   OH219205   5.831   4.584   4.568 -0.9088  0.5720 -0.5556
 6400TIP3    H119206   5.759   4.521   4.578  0.6853 -1.2064  0.5164
 6400TIP3    H219207   5.827   4.638   4.646 -1.0580  0.4320 -0.4655
 6401TIP3   OH219208   5.906   2.546   5.087 -0.3129 -0.0970 -0.2617
 6401TIP3    H119209   5.937   2.630   5.121 -2.5539  0.5645  0.3012
 6401TIP3    H219210   5.925   2.483   5.157  0.2846  0.1583 -0.1882
 6402TIP3   OH219211   5.044   1.354   2.860 -0.6459 -0.7934  0.4064
 6402TIP3    H119212   4.950   1.341   2.873 -1.0989 -0.3810 -1.9845
 6402TIP3    H219213   5.081   1.265   2.863 -1.7526 -1.4797 -2.4663
 6403TIP3   OH219214   5.950   2.954   4.572  0.2624  0.7640 -0.2177
 6403TIP3    H119215   5.865   2.917   4.594  1.0802 -1.1818 -0.0558
 6403TIP3    H219216   5.976   2.907   4.492  0.5717  2.3691 -1.1032
 6404TIP3   OH219217   1.490   3.206   5.027  0.2133  0.4552 -0.3646
 6404TIP3    H119218   1.417   3.146   5.015 -0.4858  1.2214 -0.0475
 6404TIP3    H219219   1.510   3.239   4.939 -1.0350  1.6196 -0.2357
 6405TIP3   OH219220   5.058   0.193   3.720  0.4008 -1.2718  0.0696
 6405TIP3    H119221   5.103   0.139   3.785  0.3471 -0.9059  0.4170
 6405TIP3    H219222   5.001   0.250   3.772 -0.4685 -1.7218 -0.3654
 6406TIP3   OH219223   2.900   3.096   3.036  0.2479  0.1489 -0.1435
 6406TIP3    H119224   2.947   3.179   3.029  1.5533 -0.3323  2.0332
 6406TIP3    H219225   2.829   3.114   3.099  0.7849 -0.4442  0.6591
 6407TIP3   OH219226   5.199   1.132   2.900  0.1023 -0.0653  0.3607
 6407TIP3    H119227   5.224   1.114   2.809  0.4803 -0.6980  0.5855
 6407TIP3    H219228   5.270   1.096   2.952 -0.6244 -0.6624  0.9611
 6408TIP3   OH219229   1.355   1.811   2.168 -0.2044 -0.2644 -0.1263
 6408TIP3    H119230   1.339   1.904   2.153  0.9320  0.3177  1.8893
 6408TIP3    H219231   1.277   1.767   2.133 -0.7177  1.4186 -1.1991
 6409TIP3   OH219232   2.351   2.809   2.243 -0.2228 -0.3931  0.4599
 6409TIP3    H119233   2.349   2.718   2.273 -1.3090 -0.2541  0.8598
 6409TIP3    H219234   2.265   2.843   2.266  0.0703  0.6547  0.0420
 6410TIP3   OH219235   0.319   1.951   0.389  0.0178  0.4853 -0.3589
 6410TIP3    H119236   0.266   1.874   0.369 -2.1975  1.8147 -0.0260
 6410TIP3    H219237   0.379   1.922   0.457 -2.5292 -0.4071  1.6916
 6411TIP3   OH219238   0.451   0.701   0.954  0.1848  0.0572  0.0691
 6411TIP3    H119239   0.536   0.676   0.990  0.3775 -0.4371 -0.7041
 6411TIP3    H219240   0.391   0.632   0.981 -0.1819  0.8352  1.3413
 6412TIP3   OH219241   6.226   5.808   5.047 -0.7482  0.4754 -0.1330
 6412TIP3    H119242   6.235   5.900   5.071  1.5220  0.1199  0.6487
 6412TIP3    H219243   6.282   5.761   5.110 -3.3398 -1.6896  0.7794
 6413TIP3   OH219244   2.325   1.527   4.044 -0.3920 -0.3004 -0.2243
 6413TIP3    H119245   2.262   1.543   4.115  0.5666  0.9014  0.3985
 6413TIP3    H219246   2.383   1.603   4.046  1.0107 -1.3044 -0.8542
 6414TIP3   OH219247   0.079   1.094   3.247 -0.1702  0.1029 -0.3113
 6414TIP3    H119248   0.156   1.150   3.231  0.4534 -0.7888 -0.4763
 6414TIP3    H219249   0.077   1.033   3.173 -0.6889 -0.2736  0.0049
 6415TIP3   OH219250   0.005   5.519   2.667  0.0706  0.2416  0.3233
 6415TIP3    H119251   0.094   5.517   2.700 -0.1388 -2.1048  0.9274
 6415TIP3    H219252  -0.046   5.471   2.732 -1.0428 -1.2583 -1.5514
 6416TIP3   OH219253   5.360   4.719   5.028  0.2348 -0.1909 -0.1656
 6416TIP3    H119254   5.338   4.626   5.031 -1.0162  0.0775 -0.2210
 6416TIP3    H219255   5.395   4.733   4.940  2.0680 -0.9187  0.3981
 6417TIP3   OH219256   3.556   1.810   0.690 -0.5568  0.2599 -0.5530
 6417TIP3    H119257   3.568   1.786   0.782  0.5671 -1.6363 -1.1364
 6417TIP3    H219258   3.495   1.745   0.656 -1.0796  1.0350 -1.1284
 6418TIP3   OH219259   2.279   1.301   4.467 -0.0303 -0.2597  0.0883
 6418TIP3    H119260   2.310   1.288   4.557  0.4256 -2.7539 -0.3303
 6418TIP3    H219261   2.203   1.243   4.460 -0.3708  0.3002 -0.9879
 6419TIP3   OH219262   2.839   5.043   2.801 -0.2439  0.4014  0.0747
 6419TIP3    H119263   2.899   4.998   2.742 -1.8375 -0.5102 -0.9508
 6419TIP3    H219264   2.809   5.119   2.751 -0.3277  0.5610  0.3692
 6420TIP3   OH219265   0.345   1.248   0.880  0.4891  0.2736 -0.4370
 6420TIP3    H119266   0.256   1.254   0.846  1.2316  0.1321 -2.5207
 6420TIP3    H219267   0.352   1.322   0.942 -0.5222  1.3776 -1.5860
 6421TIP3   OH219268   3.242   2.022   4.070  0.1756  0.5042 -0.1806
 6421TIP3    H119269   3.279   1.992   4.153 -0.1457 -0.6309 -0.4230
 6421TIP3    H219270   3.173   1.958   4.051  2.6928 -1.6277 -3.2133
 6422TIP3   OH219271   1.688   4.644   2.996 -0.1717 -0.6037  0.4522
 6422TIP3    H119272   1.753   4.579   3.023 -1.2730 -1.2518  1.6700
 6422TIP3    H219273   1.651   4.676   3.078  0.5329  1.8359 -0.0889
 6423TIP3   OH219274   5.705   2.005   4.235 -0.1493  0.2038  0.4033
 6423TIP3    H119275   5.705   2.083   4.180 -1.0126 -0.2233 -0.2203
 6423TIP3    H219276   5.624   2.012   4.287  0.0932  0.0441  0.8096
 6424TIP3   OH219277   3.253   3.731   1.295  0.0362  0.4153  0.2943
 6424TIP3    H119278   3.284   3.809   1.248 -1.9264  1.1893  0.2166
 6424TIP3    H219279   3.213   3.765   1.375 -2.8179 -0.2321 -0.7461
 6425TIP3   OH219280   2.325   3.662   4.585  0.7242 -0.1598  0.4890
 6425TIP3    H119281   2.269   3.739   4.580 -0.3189 -0.9496 -1.0845
 6425TIP3    H219282   2.264   3.588   4.591  1.6989 -0.8634  3.2021
 6426TIP3   OH219283   5.380   4.308   1.919 -0.3813  0.2493 -0.0842
 6426TIP3    H119284   5.427   4.280   1.997 -0.8078 -0.3249 -0.0339
 6426TIP3    H219285   5.294   4.268   1.926 -0.4302  0.2050 -0.8432
 6427TIP3   OH219286   5.582   1.196   4.463 -0.4250  0.1371  1.3114
 6427TIP3    H119287   5.613   1.278   4.502  0.5915 -0.1952  1.2287
 6427TIP3    H219288   5.553   1.143   4.537 -2.5879  1.1395  1.2627
 6428TIP3   OH219289   1.536   1.884   1.381  0.0468 -0.2788  0.1213
 6428TIP3    H119290   1.482   1.806   1.369  0.6846 -0.7072 -0.0013
 6428TIP3    H219291   1.479   1.946   1.428 -0.7084 -0.5342 -0.4438
 6429TIP3   OH219292   4.670   5.428   4.455  0.0631 -0.5539  0.1170
 6429TIP3    H119293   4.654   5.436   4.361  0.6197 -1.1017 -0.0338
 6429TIP3    H219294   4.663   5.334   4.473 -2.4210 -0.2474  1.0886
 6430TIP3   OH219295   3.899   4.156   3.568  0.1150  0.1640  0.1266
 6430TIP3    H119296   3.954   4.132   3.493 -0.0336  0.0881  0.0431
 6430TIP3    H219297   3.933   4.103   3.641  0.1694  0.1369  0.0809
 6431TIP3   OH219298   4.572   5.022   3.674 -0.0058  0.1972  0.0289
 6431TIP3    H119299   4.496   5.013   3.617 -0.9769  0.2291  1.2696
 6431TIP3    H219300   4.577   5.116   3.692  1.1691  0.3849 -1.1113
 6432TIP3   OH219301   4.159   5.159   2.798  0.2575 -0.5018  0.2753
 6432TIP3    H119302   4.210   5.081   2.817  1.3268  0.0681 -0.1937
 6432TIP3    H219303   4.222   5.222   2.763 -0.9261 -0.0801 -1.1791
 6433TIP3   OH219304   5.202   2.384   0.368 -0.4875 -0.7534 -0.2199
 6433TIP3    H119305   5.113   2.355   0.347 -0.6001 -2.0363  1.7497
 6433TIP3    H219306   5.230   2.325   0.437  1.6184  0.1499 -0.2439
 6434TIP3   OH219307   1.396   0.742   3.945 -0.5521  0.1066 -0.6407
 6434TIP3    H119308   1.407   0.649   3.962  0.9167  0.0172 -1.8281
 6434TIP3    H219309   1.329   0.746   3.877 -0.3164 -0.1372 -0.8942
 6435TIP3   OH219310   3.279   0.610   3.711  0.3964  0.2484  0.0366
 6435TIP3    H119311   3.266   0.675   3.641  0.1377 -0.0293 -0.1750
 6435TIP3    H219312   3.285   0.526   3.665  2.6285  0.2982  0.1426
 6436TIP3   OH219313   0.956   2.644   4.598  0.0248 -0.1224  0.1039
 6436TIP3    H119314   0.868   2.653   4.633  0.3921 -1.8718  1.6213
 6436TIP3    H219315   0.953   2.565   4.544  0.8706 -0.7662  0.9625
 6437TIP3   OH219316   1.045   5.131   0.661  0.3546  0.0575 -0.4934
 6437TIP3    H119317   1.064   5.169   0.575 -0.0030 -0.6433 -0.8883
 6437TIP3    H219318   1.123   5.079   0.681  1.3838  1.8803  0.5951
 6438TIP3   OH219319   1.404   1.920   3.066  0.0308  0.0938  0.0155
 6438TIP3    H119320   1.316   1.953   3.050  0.4035  0.7745 -0.7099
 6438TIP3    H219321   1.462   1.987   3.029  0.8543 -0.3413  0.4791
 6439TIP3   OH219322   5.119   1.349   4.472 -0.0014 -0.3169  0.0626
 6439TIP3    H119323   5.040   1.302   4.446  0.5214 -2.6090  2.2273
 6439TIP3    H219324   5.189   1.312   4.419  0.0242 -0.1353 -0.0327
 6440TIP3   OH219325   1.982   0.883   4.755  0.2747  0.4687  0.4850
 6440TIP3    H119326   1.994   0.812   4.692 -0.4845  0.9290 -0.2021
 6440TIP3    H219327   1.890   0.909   4.745  1.3951  4.2427 -2.2381
 6441TIP3   OH219328   3.881   4.449   5.079 -0.2834 -0.3263 -0.2884
 6441TIP3    H119329   3.862   4.363   5.116  0.0538 -0.3974 -0.2742
 6441TIP3    H219330   3.795   4.489   5.065 -0.4260 -0.4206  0.2889
 6442TIP3   OH219331   0.702   5.940   0.104 -0.1905  0.3235  0.3339
 6442TIP3    H119332   0.628   5.898   0.148 -1.7862  0.1392 -2.3120
 6442TIP3    H219333   0.668   5.964   0.017  2.4928  1.4186 -0.5154
 6443TIP3   OH219334   4.778   4.251   0.840 -0.3279  0.1441 -0.1857
 6443TIP3    H119335   4.809   4.160   0.840 -0.4420  0.0647  1.8039
 6443TIP3    H219336   4.686   4.245   0.815 -0.9382 -0.5964  1.9550
 6444TIP3   OH219337   0.094   0.575   0.642 -0.2456 -0.3022  0.4949
 6444TIP3    H119338   0.186   0.552   0.627 -0.1383  1.6684 -2.8309
 6444TIP3    H219339   0.095   0.666   0.670 -1.1902 -0.3729  0.8124
 6445TIP3   OH219340   4.188   3.374   3.788 -0.1394  0.3452  0.3927
 6445TIP3    H119341   4.157   3.371   3.698 -1.2973 -0.4039  0.7989
 6445TIP3    H219342   4.264   3.315   3.790  0.1414  0.6778 -0.1688
 6446TIP3   OH219343   6.025   3.899   2.458 -0.4839  0.0733  0.0609
 6446TIP3    H119344   6.066   3.861   2.536 -1.0104 -1.9956 -0.6215
 6446TIP3    H219345   6.019   3.827   2.396 -2.6080  0.9819 -0.8817
 6447TIP3   OH219346   3.794   0.789   0.702  0.0539 -0.8979 -0.1931
 6447TIP3    H119347   3.827   0.859   0.759  0.8209 -2.2014  1.0338
 6447TIP3    H219348   3.868   0.728   0.694 -0.9651 -2.1819 -0.2070
 6448TIP3   OH219349   1.624   2.699   4.316 -1.4799 -0.2118 -0.2368
 6448TIP3    H119350   1.629   2.733   4.227 -1.7349 -0.4040 -0.3271
 6448TIP3    H219351   1.681   2.757   4.368  1.2649 -1.9674 -1.0801
 6449TIP3   OH219352   3.703   2.270   1.557 -0.1664 -0.3260  0.1936
 6449TIP3    H119353   3.775   2.260   1.494  1.1705  2.0598  1.2070
 6449TIP3    H219354   3.650   2.341   1.520 -0.1466  0.1430  1.0486
 6450TIP3   OH219355   4.145   4.661   2.123 -0.3078 -0.0588  0.3826
 6450TIP3    H119356   4.225   4.697   2.083 -0.6942  1.0415  0.5827
 6450TIP3    H219357   4.173   4.577   2.160  1.0074  0.7857  1.3617
 6451TIP3   OH219358   0.461   2.795   5.040  0.3029  0.3886  0.1020
 6451TIP3    H119359   0.488   2.707   5.066 -0.0795 -0.8039 -3.0594
 6451TIP3    H219360   0.542   2.839   5.016  0.2857 -0.0864 -0.8815
 6452TIP3   OH219361   5.157   0.046   2.487  0.3058  0.5102 -0.5567
 6452TIP3    H119362   5.226  -0.020   2.495  1.6092  1.8674 -0.2599
 6452TIP3    H219363   5.181   0.097   2.410 -0.2264  1.1513 -0.3103
 6453TIP3   OH219364   2.774   0.448   4.772 -0.0757  0.0960  0.4913
 6453TIP3    H119365   2.767   0.480   4.862  1.2906  0.3953  0.5104
 6453TIP3    H219366   2.726   0.365   4.772  0.2474 -0.1090  1.6000
 6454TIP3   OH219367   4.289   3.551   5.046  0.4976  0.5261  0.0034
 6454TIP3    H119368   4.331   3.579   5.128  0.2523  0.5154  0.1367
 6454TIP3    H219369   4.286   3.630   4.992 -1.3201  1.1024  0.8625
 6455TIP3   OH219370   6.230   5.191   2.301 -0.1397 -0.1032 -0.2118
 6455TIP3    H119371   6.246   5.151   2.387  1.3429  1.4478  0.2904
 6455TIP3    H219372   6.210   5.282   2.320  0.7803  0.4058 -1.5246
 6456TIP3   OH219373   0.971   0.276   1.087  0.0801 -0.3513  0.1868
 6456TIP3    H119374   1.003   0.357   1.126  0.0466  0.6910 -1.8087
 6456TIP3    H219375   0.904   0.304   1.025  0.7642 -1.7755 -1.2843
 6457TIP3   OH219376   3.619   1.374   2.731  0.1990  0.6784  0.0194
 6457TIP3    H119377   3.681   1.306   2.707  1.1468  1.9364 -1.3015
 6457TIP3    H219378   3.575   1.396   2.649 -1.2208  0.5770  0.7287
 6458TIP3   OH219379   1.220   2.727   3.766  0.0038  0.5561  0.2193
 6458TIP3    H119380   1.286   2.726   3.697  0.3409 -0.3999  0.5458
 6458TIP3    H219381   1.138   2.744   3.720  0.4433  1.5960 -0.2090
 6459TIP3   OH219382   4.496   3.432   3.756 -0.3939  0.4872  0.0018
 6459TIP3    H119383   4.574   3.394   3.714  0.1080  2.4160 -0.9276
 6459TIP3    H219384   4.482   3.377   3.833  1.6306 -0.2043 -0.0492
 6460TIP3   OH219385   5.934   3.331   1.142 -0.0173 -0.5939  0.2065
 6460TIP3    H119386   5.839   3.337   1.132 -0.1758 -1.6139  0.9507
 6460TIP3    H219387   5.961   3.419   1.169 -0.5763  0.0307 -1.1451
 6461TIP3   OH219388   1.836   4.430   3.115 -0.2778  0.0822  0.7357
 6461TIP3    H119389   1.854   4.401   3.204  0.4787 -0.0307  0.5615
 6461TIP3    H219390   1.747   4.401   3.097 -0.7157  0.7980  1.7168
 6462TIP3   OH219391   3.022   0.507   3.592  0.0566  0.0397 -0.2874
 6462TIP3    H119392   3.085   0.441   3.621  1.7099  1.7992  0.3299
 6462TIP3    H219393   3.052   0.531   3.504 -0.5963 -0.0969 -0.5507
 6463TIP3   OH219394   0.728   1.561   2.570  0.2340 -0.3829 -0.3095
 6463TIP3    H119395   0.715   1.579   2.663  1.4637 -1.5076  0.1100
 6463TIP3    H219396   0.686   1.476   2.556  1.4040 -0.9697 -0.3968
 6464TIP3   OH219397   1.514   2.125   1.228  0.4634 -0.1254  0.1153
 6464TIP3    H119398   1.564   2.167   1.298  1.5347  0.6838 -1.0993
 6464TIP3    H219399   1.551   2.036   1.222  0.4231 -0.1700  0.5181
 6465TIP3   OH219400   4.807   3.564   2.699 -0.3830 -0.0070 -0.1632
 6465TIP3    H119401   4.728   3.537   2.746  0.0877  1.3180  1.4950
 6465TIP3    H219402   4.869   3.492   2.714 -0.4969  0.0449  0.5993
 6466TIP3   OH219403   2.809   2.083   4.934  0.3615 -0.3606  0.4429
 6466TIP3    H119404   2.821   2.047   5.022  0.0219  0.4531  0.8372
 6466TIP3    H219405   2.874   2.152   4.928  0.7455 -0.7739 -0.1539
 6467TIP3   OH219406   2.728   3.653   1.832 -0.5446 -0.2444  0.1511
 6467TIP3    H119407   2.689   3.708   1.764 -1.8986 -0.3464  0.8139
 6467TIP3    H219408   2.817   3.635   1.801 -1.3693 -0.9309 -1.9541
 6468TIP3   OH219409   6.207   4.902   1.039  0.0312 -0.0481 -0.2102
 6468TIP3    H119410   6.180   4.950   1.118  2.1543  1.3285 -0.2349
 6468TIP3    H219411   6.133   4.844   1.020 -0.1291 -1.3608  3.5005
 6469TIP3   OH219412   1.989   5.062   2.252 -0.4519 -0.3089  0.0013
 6469TIP3    H119413   2.025   4.979   2.219  1.7436  0.2754  0.7608
 6469TIP3    H219414   1.988   5.120   2.175 -1.1689 -0.7602 -0.3392
 6470TIP3   OH219415   5.322   2.648   0.376 -0.7711  0.0764 -0.0499
 6470TIP3    H119416   5.404   2.671   0.332  1.0199 -2.2178  1.7560
 6470TIP3    H219417   5.258   2.637   0.306  0.1221  2.8782 -1.4582
 6471TIP3   OH219418   2.543   3.228   1.355  0.3010  1.0778 -0.1676
 6471TIP3    H119419   2.484   3.183   1.295  0.8298  1.5523 -1.0667
 6471TIP3    H219420   2.560   3.165   1.424 -0.9109  0.7839 -0.1148
 6472TIP3   OH219421   4.702   5.141   0.583  0.6464 -0.5772  0.2136
 6472TIP3    H119422   4.654   5.067   0.544  0.4949  0.6109 -2.0361
 6472TIP3    H219423   4.653   5.218   0.557  0.0791  0.3500  3.6031
 6473TIP3   OH219424   5.254   3.005   1.551  0.2727  0.8140 -0.3268
 6473TIP3    H119425   5.170   2.959   1.542  0.2471  0.6768  0.4887
 6473TIP3    H219426   5.320   2.935   1.545  0.2877  0.8174 -0.2087
 6474TIP3   OH219427   2.646   3.026   4.842  0.3074  0.5308  0.0787
 6474TIP3    H119428   2.655   3.120   4.825 -0.6236  0.4015 -1.3652
 6474TIP3    H219429   2.557   3.016   4.876  0.0797  0.1029 -0.6013
 6475TIP3   OH219430   5.656   2.301   2.389  0.1458 -0.5850  0.1183
 6475TIP3    H119431   5.568   2.334   2.407  0.8891  1.1560  0.7110
 6475TIP3    H219432   5.664   2.223   2.443  0.2938  1.3705  3.1093
 6476TIP3   OH219433   1.663   4.733   5.178  0.1514  0.2483  0.3965
 6476TIP3    H119434   1.752   4.740   5.213  1.0228  0.7471 -1.7603
 6476TIP3    H219435   1.673   4.683   5.097 -1.3447  1.2437 -0.4543
 6477TIP3   OH219436   1.109   4.805   0.583 -0.0208 -0.9776  0.1230
 6477TIP3    H119437   1.023   4.811   0.541  0.3082 -1.7474 -0.7049
 6477TIP3    H219438   1.161   4.874   0.542 -0.4040 -0.0805  1.0874
 6478TIP3   OH219439   4.331   0.267   1.650 -0.0303  0.1523 -0.0420
 6478TIP3    H119440   4.284   0.241   1.570  0.7051  0.0778 -0.4525
 6478TIP3    H219441   4.265   0.313   1.702 -0.0472  1.9169 -1.5173
 6479TIP3   OH219442   4.571   5.371   1.939 -0.4776  0.5612 -0.3281
 6479TIP3    H119443   4.554   5.464   1.926 -0.0497  0.8338  0.9036
 6479TIP3    H219444   4.629   5.368   2.015 -1.3578 -0.7596  0.3314
 6480TIP3   OH219445   3.079   4.793   3.804 -0.2517 -1.1803 -0.4767
 6480TIP3    H119446   3.105   4.880   3.833 -0.2325 -1.1096 -0.7011
 6480TIP3    H219447   3.162   4.747   3.789 -0.2529 -0.9971 -1.0670
 6481TIP3   OH219448   4.512   0.295   2.213  0.0376 -0.0082 -0.3858
 6481TIP3    H119449   4.464   0.219   2.179 -1.0870  0.1057  0.8868
 6481TIP3    H219450   4.570   0.258   2.280  0.7795  0.0406 -0.9869
 6482TIP3   OH219451   5.423   1.437   2.564 -0.0310 -0.1212  0.0681
 6482TIP3    H119452   5.383   1.403   2.484  3.1612 -1.2427 -1.2233
 6482TIP3    H219453   5.472   1.514   2.535  0.1528  0.2062  1.2178
 6483TIP3   OH219454   3.968   4.822   0.692 -0.1064 -0.4043 -0.0929
 6483TIP3    H119455   3.932   4.907   0.666  0.2371 -0.0879  0.4481
 6483TIP3    H219456   3.902   4.784   0.750  0.0423 -0.2075  0.2055
 6484TIP3   OH219457   2.898   4.379   3.815  0.4954 -0.3891  0.0561
 6484TIP3    H119458   2.927   4.358   3.903  0.0491 -0.0142  0.2979
 6484TIP3    H219459   2.830   4.445   3.827  0.8266  0.0924 -0.5947
 6485TIP3   OH219460   0.151   4.137   3.910 -0.3263  0.1168 -0.9473
 6485TIP3    H119461   0.223   4.075   3.913 -0.0315  0.3949 -1.9567
 6485TIP3    H219462   0.135   4.159   4.002 -0.3059 -1.2734 -0.5914
 6486TIP3   OH219463   0.492   2.132   1.082 -0.0876 -0.1952  0.1476
 6486TIP3    H119464   0.565   2.073   1.064  1.5644  0.9093  2.6598
 6486TIP3    H219465   0.435   2.124   1.005  1.2874 -3.1193 -0.7061
 6487TIP3   OH219466   6.031   0.393   4.541 -0.2185  0.1139  0.1987
 6487TIP3    H119467   6.057   0.447   4.466  1.5833 -1.2596 -0.2491
 6487TIP3    H219468   5.937   0.379   4.530 -0.6878  2.7906  0.1407
 6488TIP3   OH219469   4.408   2.358   1.365 -0.1282  0.2546 -0.1358
 6488TIP3    H119470   4.399   2.444   1.325  0.2664 -0.6445 -2.2948
 6488TIP3    H219471   4.321   2.340   1.401 -0.1000  1.7028  0.7214
 6489TIP3   OH219472   0.151   4.703   4.426 -0.0636  0.0776 -0.2609
 6489TIP3    H119473   0.069   4.752   4.427 -0.4692 -0.5963  0.1190
 6489TIP3    H219474   0.157   4.666   4.514  0.9044  0.5364 -0.1230
 6490TIP3   OH219475   5.354   0.732   1.035  0.2551  0.3919 -0.1531
 6490TIP3    H119476   5.435   0.784   1.034 -0.0989  0.9619 -0.0496
 6490TIP3    H219477   5.382   0.645   1.063  0.3455  1.4665  3.6568
 6491TIP3   OH219478   5.926   4.293   0.566  0.2448 -0.1288 -0.1489
 6491TIP3    H119479   5.904   4.200   0.576  0.9426 -0.0984  2.1010
 6491TIP3    H219480   5.967   4.298   0.479 -3.6843 -1.0710 -2.3140
 6492TIP3   OH219481   2.401   3.481   3.075 -0.1434  0.4169  0.0282
 6492TIP3    H119482   2.444   3.542   3.135  0.8298 -0.8004  0.6180
 6492TIP3    H219483   2.456   3.481   2.996 -0.5002  0.7768 -0.2238
 6493TIP3   OH219484   6.052   0.524   3.583  0.3448 -0.3462 -0.6707
 6493TIP3    H119485   6.055   0.450   3.643  1.1463  0.1321 -0.1105
 6493TIP3    H219486   6.088   0.490   3.501  1.3753 -0.3851 -0.2067
 6494TIP3   OH219487   4.274   1.216   5.151 -0.4468 -0.3722  0.0233
 6494TIP3    H119488   4.223   1.235   5.071 -0.1763 -1.4732 -0.4245
 6494TIP3    H219489   4.365   1.233   5.126 -0.3800 -0.5195  0.1671
 6495TIP3   OH219490   3.572   5.613   1.209 -0.2816  0.0692 -0.1342
 6495TIP3    H119491   3.510   5.680   1.238 -0.0655  0.4528 -0.5479
 6495TIP3    H219492   3.657   5.644   1.239 -0.0303  0.5644 -1.3133
 6496TIP3   OH219493   2.220   1.378   2.828 -0.0517 -0.0542  0.4110
 6496TIP3    H119494   2.284   1.379   2.757  1.3378 -2.4125  1.5113
 6496TIP3    H219495   2.218   1.468   2.860  0.6587  0.6456 -1.4104
 6497TIP3   OH219496   3.221   5.327   3.041 -0.0198  0.0330 -0.1111
 6497TIP3    H119497   3.232   5.258   3.107  1.1230 -0.3756 -0.6999
 6497TIP3    H219498   3.164   5.288   2.975 -0.3934  0.1076  0.1619
 6498TIP3   OH219499   3.518   5.875   4.988  0.1551  0.1335 -0.0337
 6498TIP3    H119500   3.430   5.847   5.013  0.3426  0.0256  0.5249
 6498TIP3    H219501   3.532   5.956   5.035  0.8469 -0.5228  0.9361
 6499TIP3   OH219502   5.700   4.861   4.906  0.1980  0.1080 -0.0064
 6499TIP3    H119503   5.705   4.832   4.997  0.2620  0.7440  0.1993
 6499TIP3    H219504   5.654   4.791   4.861 -1.1613  0.4310  0.8152
 6500TIP3   OH219505   5.858   0.426   0.041  0.2337  0.1773 -0.2585
 6500TIP3    H119506   5.823   0.432  -0.048 -1.1630  0.4247  0.2769
 6500TIP3    H219507   5.817   0.499   0.088 -0.6834 -1.1654  1.1087
 6501TIP3   OH219508   3.085   1.597   1.958 -0.4062  0.1502  0.3025
 6501TIP3    H119509   2.993   1.614   1.977 -0.1376  0.1857  1.6559
 6501TIP3    H219510   3.086   1.509   1.921 -1.0175  0.3006 -0.0849
 6502TIP3   OH219511   1.617   2.806   4.058 -0.5517  0.1979 -0.6895
 6502TIP3    H119512   1.595   2.897   4.078  0.1887  0.8278 -2.5268
 6502TIP3    H219513   1.571   2.789   3.976 -0.9397 -1.2189 -0.2010
 6503TIP3   OH219514   1.099   2.849   4.970 -0.0819  0.0604  0.1410
 6503TIP3    H119515   1.053   2.878   4.891  1.5008 -0.2648 -0.9553
 6503TIP3    H219516   1.145   2.927   5.001  0.4954 -0.1563 -0.1486
 6504TIP3   OH219517   1.205   2.264   3.861  0.1584 -0.3793  0.7330
 6504TIP3    H119518   1.201   2.220   3.946 -1.0900 -0.3365  0.7087
 6504TIP3    H219519   1.140   2.219   3.807  0.9038 -0.3734 -0.1895
 6505TIP3   OH219520   6.341   3.769   0.722  0.4078 -0.2527  0.1529
 6505TIP3    H119521   6.296   3.843   0.763  2.8007  0.9780  0.7819
 6505TIP3    H219522   6.344   3.702   0.790 -0.0918 -0.1721  0.2525
 6506TIP3   OH219523   4.313   2.890   0.563 -0.2372  0.7029 -0.3426
 6506TIP3    H119524   4.226   2.849   0.558 -0.7711  1.5469  1.1769
 6506TIP3    H219525   4.337   2.883   0.656  1.5135  0.1336 -0.8066
 6507TIP3   OH219526   5.094   2.638   2.559 -0.3207  0.5910 -0.1106
 6507TIP3    H119527   5.025   2.597   2.507 -0.6489  0.2594  0.5827
 6507TIP3    H219528   5.174   2.593   2.533 -0.7409 -0.9000  1.0247
 6508TIP3   OH219529   5.240   4.970   5.036 -0.4533  0.2352 -0.0379
 6508TIP3    H119530   5.260   5.022   5.114  0.9930  0.6029 -0.6160
 6508TIP3    H219531   5.285   4.887   5.051 -0.4019  0.2055 -0.3504
 6509TIP3   OH219532   1.316   4.394   4.253 -0.0259 -0.2328 -0.2182
 6509TIP3    H119533   1.330   4.339   4.176  0.0173  0.2848 -0.5856
 6509TIP3    H219534   1.240   4.354   4.297  0.0662 -0.6427 -0.4236
 6510TIP3   OH219535   0.623   5.790   1.307 -0.0147  0.1866  0.4556
 6510TIP3    H119536   0.573   5.871   1.303  1.3640  1.0406 -0.7820
 6510TIP3    H219537   0.611   5.750   1.221  0.9539  0.1294  0.3355
 6511TIP3   OH219538   0.420   4.569   2.704  0.1213 -0.4385  0.4995
 6511TIP3    H119539   0.338   4.615   2.687 -0.2659 -1.1616  0.3885
 6511TIP3    H219540   0.478   4.596   2.633 -0.6224 -1.3640 -0.4845
 6512TIP3   OH219541   2.952   3.093   1.635 -0.3898  0.0104 -0.2240
 6512TIP3    H119542   2.896   3.074   1.559 -1.3501  0.0905  0.4419
 6512TIP3    H219543   2.890   3.111   1.706  0.4937  0.0804  0.5439
 6513TIP3   OH219544   0.661   5.656   0.370 -0.1909 -0.3812 -0.1769
 6513TIP3    H119545   0.638   5.581   0.316 -0.3939 -1.7049  1.6376
 6513TIP3    H219546   0.688   5.618   0.454  0.1426  1.5526  0.6569
 6514TIP3   OH219547   3.037   0.708   1.214 -0.0687  0.5127 -0.2601
 6514TIP3    H119548   2.980   0.784   1.202  1.8456  2.2952  1.1320
 6514TIP3    H219549   3.111   0.724   1.156  0.8971  0.3234  0.8831
 6515TIP3   OH219550   3.898   3.984   4.798 -0.1722  0.6525  0.2134
 6515TIP3    H119551   3.978   3.942   4.767  0.9658  2.4980  0.4650
 6515TIP3    H219552   3.830   3.917   4.789  1.1541 -0.5840 -1.1516
 6516TIP3   OH219553   3.138   2.524   3.653  0.6981  0.1653 -0.2291
 6516TIP3    H119554   3.055   2.480   3.635  0.5136  0.2907  0.2976
 6516TIP3    H219555   3.204   2.467   3.614  0.5743 -1.2685  1.5162
 6517TIP3   OH219556   1.900   4.307   4.819 -0.3958 -0.0043  0.1196
 6517TIP3    H119557   1.909   4.352   4.735  2.0585  0.5683  0.6388
 6517TIP3    H219558   1.828   4.353   4.863 -0.4636  0.9047 -0.8975
 6518TIP3   OH219559   5.422   0.549   4.125  0.1307 -0.0975 -0.3352
 6518TIP3    H119560   5.345   0.568   4.179  0.4583  2.4273 -0.6097
 6518TIP3    H219561   5.486   0.514   4.186 -1.2565 -2.5622 -0.1538
 6519TIP3   OH219562   2.192   2.645   3.916 -0.0123 -0.1214  0.5332
 6519TIP3    H119563   2.132   2.617   3.847  0.2133 -0.4033  0.4490
 6519TIP3    H219564   2.165   2.595   3.993  1.6557 -2.1730 -0.0982
 6520TIP3   OH219565   0.255   1.168   0.052 -0.3606 -0.2646  0.2621
 6520TIP3    H119566   0.267   1.131  -0.036  0.7237  1.0957 -0.2120
 6520TIP3    H219567   0.332   1.224   0.065 -1.0799  0.4706  1.6060
 6521TIP3   OH219568   0.385   2.100   3.438 -0.1410  0.6116 -0.0163
 6521TIP3    H119569   0.439   2.104   3.517 -0.6460  1.5765  0.3014
 6521TIP3    H219570   0.438   2.143   3.371  1.0334 -1.7257 -0.7129
 6522TIP3   OH219571   5.455   0.168   4.112 -0.5057 -0.2641  0.4164
 6522TIP3    H119572   5.498   0.210   4.187  2.5767 -1.3544 -0.5498
 6522TIP3    H219573   5.479   0.075   4.121  0.7591 -0.2996 -2.2906
 6523TIP3   OH219574   3.322   5.154   1.918  0.2767  0.4683  0.0147
 6523TIP3    H119575   3.328   5.238   1.962  1.2244 -1.4455  4.0107
 6523TIP3    H219576   3.395   5.103   1.953 -1.2941 -2.5976 -0.7976
 6524TIP3   OH219577   5.368   2.765   2.102  0.1044  0.0886  0.6193
 6524TIP3    H119578   5.463   2.777   2.102  0.1816  1.0529 -3.2561
 6524TIP3    H219579   5.355   2.678   2.138  2.3345  0.3035  2.1840
 6525TIP3   OH219580   4.491   4.636   0.734 -0.1113  0.0753  0.5503
 6525TIP3    H119581   4.582   4.651   0.708 -0.2321 -0.1062  0.0045
 6525TIP3    H219582   4.458   4.722   0.759 -0.3052  0.4530 -0.9417
 6526TIP3   OH219583   3.189   5.052   2.828 -0.2995 -0.2348 -0.0974
 6526TIP3    H119584   3.156   4.998   2.900  0.9977 -0.8402  0.0810
 6526TIP3    H219585   3.149   5.015   2.749  1.3745 -2.2205 -0.1071
 6527TIP3   OH219586   1.987   4.379   1.442  0.6170  0.3697  0.4079
 6527TIP3    H119587   1.899   4.408   1.465 -0.0356 -2.5278  2.1041
 6527TIP3    H219588   2.039   4.396   1.521  0.8377 -0.5951  0.4799
 6528TIP3   OH219589   5.790   4.765   1.288  0.0676 -0.5848  0.0721
 6528TIP3    H119590   5.772   4.717   1.369 -0.3016 -1.0111 -0.2581
 6528TIP3    H219591   5.876   4.733   1.260  0.0688 -0.6443  0.1445
 6529TIP3   OH219592   1.288   3.029   5.022 -0.2386  0.2426 -0.4049
 6529TIP3    H119593   1.297   3.028   5.117 -2.8362 -1.6489 -0.0611
 6529TIP3    H219594   1.235   3.106   5.003  0.7386  0.9256 -0.4055
 6530TIP3   OH219595   1.765   0.543   4.240 -0.0985 -0.8105  0.1460
 6530TIP3    H119596   1.845   0.500   4.208  0.9153 -0.0174  1.5315
 6530TIP3    H219597   1.700   0.472   4.245  1.2027 -1.9751  1.2687
 6531TIP3   OH219598   0.194   0.211   4.593 -0.2897 -0.7056  0.2065
 6531TIP3    H119599   0.098   0.214   4.587 -0.4085 -1.6726  1.3151
 6531TIP3    H219600   0.212   0.164   4.674  1.1350 -0.6296 -0.0348
 6532TIP3   OH219601   1.089   2.409   3.341  0.0331  0.4154  0.0025
 6532TIP3    H119602   1.170   2.380   3.383 -0.3874  0.0815  0.6056
 6532TIP3    H219603   1.065   2.337   3.283  0.0867  0.4456 -0.0569
 6533TIP3   OH219604   0.531   3.861   3.421 -0.1669  0.1006  0.4098
 6533TIP3    H119605   0.480   3.861   3.502  1.5679 -0.5204  1.5448
 6533TIP3    H219606   0.573   3.776   3.419  1.0581  0.7017 -0.3265
 6534TIP3   OH219607   4.303   4.127   2.275  0.5705 -0.4466 -0.8457
 6534TIP3    H119608   4.335   4.151   2.362 -1.7952  1.3293 -0.3833
 6534TIP3    H219609   4.212   4.103   2.289  0.6542 -1.9872 -2.6020
 6535TIP3   OH219610   1.929   3.317   3.690  0.1646 -0.2360 -0.4300
 6535TIP3    H119611   1.915   3.318   3.785  0.9825  0.5851 -0.2997
 6535TIP3    H219612   1.877   3.243   3.659  0.7741 -1.2336  0.8045
 6536TIP3   OH219613   0.517   3.155   4.397 -0.0123  0.3567  0.2075
 6536TIP3    H119614   0.583   3.179   4.462  0.9853 -0.1643 -0.5906
 6536TIP3    H219615   0.566   3.112   4.327 -1.3226 -0.9282  0.0372
 6537TIP3   OH219616   2.278   0.662   0.080  0.5885  0.1817  0.1467
 6537TIP3    H119617   2.333   0.659   0.159 -0.9733  0.3673  1.2853
 6537TIP3    H219618   2.189   0.649   0.112 -0.0447 -0.2256 -1.6630
 6538TIP3   OH219619   5.572   2.654   4.279 -0.1757 -0.5084  0.0222
 6538TIP3    H119620   5.571   2.564   4.312 -0.0394 -2.2119 -4.0652
 6538TIP3    H219621   5.584   2.645   4.185 -0.1755  3.8585 -0.5967
 6539TIP3   OH219622   1.662   0.920   3.388 -0.2315 -0.2114  0.6058
 6539TIP3    H119623   1.609   0.936   3.310 -3.0753  0.3820  2.5049
 6539TIP3    H219624   1.700   1.006   3.409 -2.3839  0.5143  1.7896
 6540TIP3   OH219625   4.079   3.476   1.964 -0.1560 -0.3170 -0.4457
 6540TIP3    H119626   4.112   3.453   1.877 -0.6065 -2.0723 -0.2023
 6540TIP3    H219627   4.154   3.463   2.022 -0.4808 -1.5675 -0.2706
 6541TIP3   OH219628   4.143   4.123   2.926 -0.2559 -0.3337 -0.0543
 6541TIP3    H119629   4.140   4.210   2.885 -2.0218 -1.3827 -2.3904
 6541TIP3    H219630   4.134   4.062   2.853 -1.4464 -2.4465  1.7406
 6542TIP3   OH219631   1.657   1.538   4.820  0.3596  0.3544  0.2270
 6542TIP3    H119632   1.708   1.462   4.851  1.3627  0.4086 -1.2105
 6542TIP3    H219633   1.709   1.574   4.749 -0.2867  2.2071  0.6521
 6543TIP3   OH219634   0.844   4.528   0.811 -0.2187  0.7220 -0.3257
 6543TIP3    H119635   0.907   4.471   0.768 -0.7620  0.0035 -0.1843
 6543TIP3    H219636   0.764   4.476   0.816 -0.5211  1.2444  0.4339
 6544TIP3   OH219637   2.884   3.342   3.907 -0.1083  0.3763 -0.2530
 6544TIP3    H119638   2.908   3.401   3.979  0.0752  1.1407 -0.9297
 6544TIP3    H219639   2.821   3.282   3.946  1.4189 -0.4371  1.0553
 6545TIP3   OH219640   6.281   3.499   3.265  0.1723 -0.5635 -1.2653
 6545TIP3    H119641   6.242   3.417   3.294 -0.5955 -0.0447 -0.7890
 6545TIP3    H219642   6.363   3.506   3.313  0.2474 -1.0596 -1.3243
 6546TIP3   OH219643   2.168   1.660   4.987 -0.0721  0.2897 -0.1838
 6546TIP3    H119644   2.238   1.639   4.924  0.0588  1.5877 -0.4893
 6546TIP3    H219645   2.103   1.708   4.935  1.0114  3.3163  1.0310
 6547TIP3   OH219646   4.547   0.679   2.402 -0.2992  0.7124  0.1243
 6547TIP3    H119647   4.543   0.775   2.397  1.2038  0.7301 -1.5602
 6547TIP3    H219648   4.601   0.653   2.328 -1.7269 -1.5625 -0.2092
 6548TIP3   OH219649   0.174   2.828   4.012 -0.1178  0.3366 -0.0968
 6548TIP3    H119650   0.138   2.916   4.016 -0.9225  0.0212 -0.0993
 6548TIP3    H219651   0.179   2.808   3.919  0.4809  0.5397 -0.1111
 6549TIP3   OH219652   1.598   4.254   4.096 -0.4909 -0.4661  0.4961
 6549TIP3    H119653   1.686   4.216   4.089 -0.8276 -1.2448  0.3703
 6549TIP3    H219654   1.604   4.338   4.050  0.2052 -0.4669  0.5703
 6550TIP3   OH219655   1.522   5.223   1.857  0.6362 -0.4029 -0.3060
 6550TIP3    H119656   1.443   5.193   1.901 -0.0725  0.5851 -0.8644
 6550TIP3    H219657   1.508   5.316   1.843  1.6173 -0.3437 -1.0142
 6551TIP3   OH219658   4.048   3.911   0.512  0.6666 -0.3962 -0.0359
 6551TIP3    H119659   4.042   3.979   0.445  0.1410 -0.1144  0.2890
 6551TIP3    H219660   3.957   3.885   0.529  0.9315 -2.1593 -1.1276
 6552TIP3   OH219661   4.533   4.439   3.807  0.1553 -0.5999 -0.0338
 6552TIP3    H119662   4.572   4.527   3.802  0.6944 -0.8537 -0.3608
 6552TIP3    H219663   4.481   4.431   3.727  0.9244 -0.9571 -0.5090
 6553TIP3   OH219664   0.345   4.789   4.693 -0.6420  0.1540 -0.3890
 6553TIP3    H119665   0.382   4.838   4.766 -1.7865 -1.4601  1.3900
 6553TIP3    H219666   0.275   4.845   4.659 -0.5217  0.6641  0.1880
 6554TIP3   OH219667   3.868   5.190   0.073 -0.4473  0.7945 -0.6039
 6554TIP3    H119668   3.912   5.218   0.153 -0.3556  1.2258 -0.7961
 6554TIP3    H219669   3.861   5.271   0.021  1.7852  0.1212 -2.1294
 6555TIP3   OH219670   1.824   4.613   4.192 -0.1527  0.5643  0.0515
 6555TIP3    H119671   1.818   4.540   4.254  0.9973 -0.9518 -1.5200
 6555TIP3    H219672   1.842   4.690   4.247  0.5155 -0.6603  1.6221
 6556TIP3   OH219673   4.275   1.899   3.587  0.4731 -0.0773  0.0089
 6556TIP3    H119674   4.216   1.825   3.601 -0.7858  0.9660  0.3759
 6556TIP3    H219675   4.299   1.928   3.675  0.8822  0.0230 -0.1333
 6557TIP3   OH219676   2.505   3.138   5.183 -0.2686  0.1394  0.1977
 6557TIP3    H119677   2.565   3.208   5.156 -0.1317  0.1253  0.4687
 6557TIP3    H219678   2.418   3.177   5.171 -0.3323 -0.6097 -2.4461
 6558TIP3   OH219679   1.921   4.426   1.094  0.0213  0.0413  0.6155
 6558TIP3    H119680   1.966   4.403   1.176  0.8021 -0.7969 -0.0334
 6558TIP3    H219681   1.828   4.413   1.114  0.3368 -3.8766  0.3437
 6559TIP3   OH219682   1.802   3.500   3.427 -0.0451 -0.1499  0.2914
 6559TIP3    H119683   1.715   3.539   3.436 -0.2096 -0.1542 -1.1762
 6559TIP3    H219684   1.861   3.566   3.464 -0.5322  0.5297 -0.1126
 6560TIP3   OH219685   4.231   2.352   1.029 -0.1828  0.1978  0.6076
 6560TIP3    H119686   4.301   2.300   1.069 -0.6575 -0.0674  1.1046
 6560TIP3    H219687   4.193   2.402   1.101 -0.7554  0.0468  0.4212
 6561TIP3   OH219688   2.176   1.954   0.624 -0.8548 -0.3006  0.0484
 6561TIP3    H119689   2.107   1.992   0.570  1.4543  0.2557 -2.7889
 6561TIP3    H219690   2.186   2.015   0.697 -0.2338  2.3201 -2.0665
 6562TIP3   OH219691   0.328   4.180   4.993 -0.2041 -0.2393 -0.2803
 6562TIP3    H119692   0.320   4.268   4.957 -0.3947 -0.5853 -1.1166
 6562TIP3    H219693   0.258   4.174   5.058  1.7420  1.2998  2.1490
 6563TIP3   OH219694   3.059   1.492   1.513  0.7918 -0.1265  0.1288
 6563TIP3    H119695   3.101   1.417   1.471  0.2543  0.1153 -0.8768
 6563TIP3    H219696   3.096   1.568   1.468  0.6527  0.1750  0.5170
 6564TIP3   OH219697   1.498   2.299   0.280 -0.3172 -0.4711 -0.1450
 6564TIP3    H119698   1.552   2.311   0.202  0.0222  1.6904  0.3606
 6564TIP3    H219699   1.494   2.204   0.292  0.8451 -0.7923 -1.9250
 6565TIP3   OH219700   2.686   5.561   3.196  0.3236 -0.3579  0.8378
 6565TIP3    H119701   2.716   5.650   3.175 -0.2995 -0.4767 -0.6827
 6565TIP3    H219702   2.689   5.514   3.112  1.0584 -1.9087  1.6919
 6566TIP3   OH219703   0.216   4.891   3.415 -0.7012 -0.5299  0.2651
 6566TIP3    H119704   0.133   4.854   3.384  0.8042 -2.7685 -1.4015
 6566TIP3    H219705   0.247   4.830   3.482 -0.1939  0.0567  0.5801
 6567TIP3   OH219706   2.954   5.898   4.892  0.0518  0.5646 -0.3273
 6567TIP3    H119707   2.894   5.891   4.818  0.9387 -2.0828 -0.8963
 6567TIP3    H219708   3.041   5.892   4.853  0.5340 -2.2094  0.9101
 6568TIP3   OH219709   4.029   1.800   5.098  0.2165  0.4228 -0.0850
 6568TIP3    H119710   3.989   1.773   5.015  1.8167 -0.2596 -0.6759
 6568TIP3    H219711   4.060   1.889   5.081  1.1552  0.0346 -0.4709
 6569TIP3   OH219712   0.986   0.058   3.319  0.1882  0.2078 -0.0070
 6569TIP3    H119713   0.906   0.047   3.370  0.3035  0.7297  0.2878
 6569TIP3    H219714   1.011  -0.031   3.294 -0.2106  0.0049  0.3156
 6570TIP3   OH219715   2.936   3.813   2.962  0.2919  0.3411  0.1435
 6570TIP3    H119716   2.938   3.841   2.871 -0.7003 -0.4918 -0.1477
 6570TIP3    H219717   2.912   3.892   3.011 -0.2449  0.5461 -0.4338
 6571TIP3   OH219718   2.321   4.307   4.349 -0.6905  0.0968  0.3908
 6571TIP3    H119719   2.256   4.243   4.319  1.4255 -2.0223  0.0083
 6571TIP3    H219720   2.382   4.315   4.276 -0.3884  1.9115  0.7967
 6572TIP3   OH219721   0.329   4.204   4.328  0.0752 -0.8499  0.0372
 6572TIP3    H119722   0.407   4.166   4.287  0.9672  1.3060 -0.3660
 6572TIP3    H219723   0.318   4.289   4.286 -0.2673  0.5305  2.6996
 6573TIP3   OH219724   4.489   2.654   0.307 -0.6165 -0.4607  0.3913
 6573TIP3    H119725   4.501   2.738   0.262 -0.6739 -0.9361 -0.5296
 6573TIP3    H219726   4.518   2.671   0.397  1.5167 -0.0343 -0.3099
 6574TIP3   OH219727   4.758   5.534   3.337 -0.2485 -0.1265  0.0017
 6574TIP3    H119728   4.821   5.603   3.358  1.9311 -2.0293  0.1310
 6574TIP3    H219729   4.756   5.479   3.414 -2.5987  0.1611  0.2140
 6575TIP3   OH219730   2.867   4.741   1.596 -0.2976 -0.1367  0.3276
 6575TIP3    H119731   2.859   4.651   1.564 -0.2326  0.2081 -0.7264
 6575TIP3    H219732   2.781   4.780   1.579 -0.0570  0.2426 -0.0552
 6576TIP3   OH219733   1.551   2.183   0.728  0.4958  0.4548 -0.1552
 6576TIP3    H119734   1.579   2.255   0.786 -0.9817  0.4680  0.5868
 6576TIP3    H219735   1.493   2.225   0.664 -0.7875 -0.1159  0.5895
 6577TIP3   OH219736   2.299   4.845   0.290  0.1015 -0.2345  0.4512
 6577TIP3    H119737   2.290   4.939   0.275  2.0499 -0.2456 -1.1466
 6577TIP3    H219738   2.271   4.804   0.208  0.5059 -0.9801  0.6756
 6578TIP3   OH219739   0.781   2.027   3.528  0.5110  0.3848 -0.3421
 6578TIP3    H119740   0.797   1.969   3.453  0.6429  0.3432 -0.2822
 6578TIP3    H219741   0.739   2.104   3.490 -0.3989 -0.0814 -0.3248
 6579TIP3   OH219742   1.139   0.383   3.916  0.1365 -0.0403  0.2436
 6579TIP3    H119743   1.146   0.472   3.882  1.5485 -0.1420  0.2205
 6579TIP3    H219744   1.052   0.380   3.956 -0.4751  0.9183 -0.9465
 6580TIP3   OH219745   0.764   4.373   3.460 -0.1925  0.6139  0.0806
 6580TIP3    H119746   0.693   4.336   3.406 -1.0291  0.4891  1.2402
 6580TIP3    H219747   0.842   4.362   3.406 -0.9604  0.2294 -0.9974
 6581TIP3   OH219748   5.289   0.467   1.911  0.2348  0.5541 -0.2358
 6581TIP3    H119749   5.212   0.429   1.954  1.1262 -0.9104  0.1672
 6581TIP3    H219750   5.271   0.458   1.817  0.1163 -0.2402 -0.1436
 6582TIP3   OH219751   2.276   1.271   4.771 -0.0554 -0.4504  0.3452
 6582TIP3    H119752   2.182   1.290   4.765 -0.6651 -1.8650  3.2831
 6582TIP3    H219753   2.282   1.176   4.767  1.4597 -0.3236 -1.2659
 6583TIP3   OH219754   1.472   4.249   3.313  0.1859 -0.0912 -0.0522
 6583TIP3    H119755   1.408   4.318   3.298  0.8628  0.1416 -2.4418
 6583TIP3    H219756   1.556   4.295   3.317  0.3916 -0.5486  1.2197
 6584TIP3   OH219757   3.119   1.425   2.706  0.3218 -0.1527  0.3777
 6584TIP3    H119758   3.041   1.424   2.651 -0.2349  1.1617  1.1105
 6584TIP3    H219759   3.172   1.498   2.671 -0.1949  0.9266  1.7517
 6585TIP3   OH219760   4.847   0.749   3.238 -0.2594  0.5068 -0.3287
 6585TIP3    H119761   4.767   0.741   3.289  1.4951 -0.2174  2.5720
 6585TIP3    H219762   4.903   0.807   3.290  2.0073 -1.0224 -0.8846
 6586TIP3   OH219763   2.058   5.836   0.816  0.2709 -1.0131 -0.3168
 6586TIP3    H119764   2.008   5.779   0.876  0.1422 -0.2417  0.3199
 6586TIP3    H219765   2.108   5.893   0.873  0.4765 -0.5485 -0.9531
 6587TIP3   OH219766   2.242   2.267   0.455 -0.1262  0.2227  0.2788
 6587TIP3    H119767   2.173   2.208   0.485  0.3796  0.5559  2.2592
 6587TIP3    H219768   2.255   2.327   0.528  0.9333  1.3668 -0.8119
 6588TIP3   OH219769   3.360   1.191   4.671  0.0200 -0.2514 -0.0093
 6588TIP3    H119770   3.408   1.226   4.746 -0.4447  0.7000 -0.1500
 6588TIP3    H219771   3.341   1.267   4.617 -0.9882 -0.7279 -0.3402
 6589TIP3   OH219772   0.277   4.854   2.863 -0.4086 -0.2303 -0.4557
 6589TIP3    H119773   0.239   4.853   2.951 -0.7892 -2.3035 -0.5940
 6589TIP3    H219774   0.255   4.941   2.828 -1.4871  0.1028  0.9686
 6590TIP3   OH219775   1.773   4.063   4.617 -0.3517 -0.5911  0.4772
 6590TIP3    H119776   1.845   4.115   4.652 -0.6506  0.7085 -0.7262
 6590TIP3    H219777   1.771   4.085   4.524 -1.0825 -2.0921  0.1111
 6591TIP3   OH219778   1.682   0.580   2.731 -0.5146 -0.1447 -0.4492
 6591TIP3    H119779   1.628   0.573   2.810 -0.0360  1.1245  0.0219
 6591TIP3    H219780   1.644   0.518   2.670 -1.3891 -0.5742  0.5051
 6592TIP3   OH219781   2.897   4.210   4.034 -0.2765  0.5975 -0.4736
 6592TIP3    H119782   2.857   4.163   4.107 -0.2485  1.1955 -0.0716
 6592TIP3    H219783   2.986   4.174   4.029  0.3311  1.7839  0.9417
 6593TIP3   OH219784   6.187   2.818   0.181  0.0092 -0.0734  0.3380
 6593TIP3    H119785   6.129   2.743   0.195  0.0785  0.1618  2.0785
 6593TIP3    H219786   6.166   2.878   0.252  0.2261  1.4110 -0.7983
 6594TIP3   OH219787   0.038   1.969   4.009 -0.0276 -0.3123 -0.5264
 6594TIP3    H119788  -0.033   2.022   4.047 -0.9462 -0.9589 -1.2966
 6594TIP3    H219789   0.004   1.880   4.009  1.2221 -0.8108  0.0727
 6595TIP3   OH219790   5.594   3.597   5.148 -0.2965 -0.4133  0.1206
 6595TIP3    H119791   5.622   3.658   5.216 -0.8551  0.4700 -0.4220
 6595TIP3    H219792   5.666   3.534   5.141 -0.5616 -1.0068  2.0645
 6596TIP3   OH219793   2.599   5.650   1.880  0.0103  0.5958 -0.3180
 6596TIP3    H119794   2.665   5.717   1.896  1.0681 -0.4421 -0.1615
 6596TIP3    H219795   2.562   5.672   1.795  0.9745  0.8805 -0.6710
 6597TIP3   OH219796   0.825   5.084   0.840  0.3087  0.3666 -0.7560
 6597TIP3    H119797   0.777   5.001   0.841  1.2647 -0.2177  1.1622
 6597TIP3    H219798   0.905   5.065   0.792  0.3760  0.2623 -0.6040
 6598TIP3   OH219799   5.734   3.942   4.234 -0.5098  1.1963 -0.1671
 6598TIP3    H119800   5.783   3.992   4.300 -2.1012  0.3086  1.8168
 6598TIP3    H219801   5.643   3.949   4.263 -0.7615 -3.6340  0.9302
 6599TIP3   OH219802   0.988   1.345   3.778 -0.4507  0.3284 -0.4397
 6599TIP3    H119803   0.983   1.296   3.860  0.1412 -0.6403 -0.9564
 6599TIP3    H219804   0.951   1.286   3.713  0.8641  0.2990 -1.1896
 6600TIP3   OH219805   2.793   0.849   3.087  0.2536  0.1916 -0.1020
 6600TIP3    H119806   2.856   0.909   3.126  0.2003  0.8973 -1.0872
 6600TIP3    H219807   2.815   0.846   2.994 -0.2250 -0.7235 -0.2039
 6601TIP3   OH219808   5.011   0.807   0.065  0.2503 -0.0576 -0.2628
 6601TIP3    H119809   4.968   0.760   0.136  1.2591  0.2970  0.6039
 6601TIP3    H219810   4.948   0.876   0.041 -0.4069 -0.6364 -0.2328
 6602TIP3   OH219811   2.711   2.256   0.440  0.0828 -0.1063 -0.3924
 6602TIP3    H119812   2.717   2.287   0.349  1.5468  0.4030 -0.1433
 6602TIP3    H219813   2.635   2.197   0.440  0.1869 -0.2850 -1.9931
 6603TIP3   OH219814   1.443   4.021   3.983  0.1425 -0.3609 -0.2340
 6603TIP3    H119815   1.418   4.112   4.000  0.3801  0.1325 -2.2523
 6603TIP3    H219816   1.539   4.023   3.979  0.2243 -0.9677  0.9301
 6604TIP3   OH219817   6.013   3.853   0.044 -0.4242  0.1648 -0.2423
 6604TIP3    H119818   6.032   3.823  -0.044  1.5817  1.9419 -0.5101
 6604TIP3    H219819   6.063   3.795   0.101  0.5600  0.7264 -0.5075
 6605TIP3   OH219820   0.128   5.197   3.156  0.0979  0.1582  0.0473
 6605TIP3    H119821   0.097   5.167   3.241  0.3100  1.3744  0.5685
 6605TIP3    H219822   0.206   5.145   3.139 -1.1498 -1.6420 -0.4394
 6606TIP3   OH219823   0.137   4.883   3.088  0.1165 -0.1966  0.4941
 6606TIP3    H119824   0.126   4.803   3.140  0.8589 -0.5508  0.1208
 6606TIP3    H219825   0.048   4.915   3.075 -0.2265 -1.1933  0.2953
 6607TIP3   OH219826   1.816   0.937   0.403  0.7223 -0.0237 -0.2871
 6607TIP3    H119827   1.746   0.995   0.374  1.4908  0.9442 -0.2613
 6607TIP3    H219828   1.825   0.872   0.333 -0.8155 -0.7225  0.1397
 6608TIP3   OH219829   4.816   3.727   0.026  0.1868  0.1114  0.2419
 6608TIP3    H119830   4.767   3.763   0.100 -0.1989  1.0005 -0.4314
 6608TIP3    H219831   4.830   3.801  -0.033  3.0648  0.1065  0.7489
 6609TIP3   OH219832   0.334   1.505   4.937 -0.0441 -0.6635 -0.4974
 6609TIP3    H119833   0.276   1.547   5.001 -0.7056 -0.0658 -1.4617
 6609TIP3    H219834   0.422   1.528   4.967 -0.3488 -0.0715 -0.0120
 6610TIP3   OH219835   2.466   0.597   4.760  0.4994 -0.4167  0.2788
 6610TIP3    H119836   2.542   0.595   4.702  1.5115 -0.0405  1.5410
 6610TIP3    H219837   2.503   0.589   4.848 -1.0020 -1.1603  0.8777
 6611TIP3   OH219838   3.763   5.049   2.016  0.2641  0.2963  0.5727
 6611TIP3    H119839   3.846   5.021   1.978 -0.1931  0.2219 -0.3939
 6611TIP3    H219840   3.787   5.119   2.077  1.0950 -0.1300  0.7444
 6612TIP3   OH219841   5.325   3.685   4.399  0.5418 -0.0273 -0.2144
 6612TIP3    H119842   5.390   3.752   4.418 -0.1488  0.5413  0.1958
 6612TIP3    H219843   5.358   3.606   4.441  2.3591 -0.5112 -2.3243
 6613TIP3   OH219844   4.316   5.513   4.116 -0.4117  0.2860 -0.2359
 6613TIP3    H119845   4.301   5.490   4.208  0.9409 -0.6231 -0.2085
 6613TIP3    H219846   4.307   5.608   4.113  3.0342  0.8432  1.6455
 6614TIP3   OH219847   1.540   0.711   4.433 -0.2112 -0.3989 -0.4628
 6614TIP3    H119848   1.632   0.727   4.412  0.2256 -0.0437  1.4622
 6614TIP3    H219849   1.493   0.735   4.354  1.3053 -0.0508 -1.3106
 6615TIP3   OH219850   1.780   0.220   3.128 -0.4587  0.1051  0.0186
 6615TIP3    H119851   1.747   0.309   3.113  1.4904  0.7902 -0.6620
 6615TIP3    H219852   1.828   0.226   3.211 -1.1399 -0.5835  0.4709
 6616TIP3   OH219853   1.725   5.267   0.944 -0.2468  0.2403 -0.1832
 6616TIP3    H119854   1.706   5.175   0.965  0.4715 -0.0904 -0.9528
 6616TIP3    H219855   1.656   5.292   0.883 -1.5719  0.8141  1.4524
 6617TIP3   OH219856   2.739   2.281   4.522 -0.2482  0.0912 -0.2669
 6617TIP3    H119857   2.714   2.239   4.604 -1.5836 -0.5550 -0.9680
 6617TIP3    H219858   2.797   2.218   4.479 -1.0272 -0.3890 -0.6316
 6618TIP3   OH219859   1.263   1.236   4.752  0.1702  0.1863 -0.5408
 6618TIP3    H119860   1.318   1.306   4.787 -0.2249  0.6481 -0.8337
 6618TIP3    H219861   1.175   1.257   4.783  0.0994 -0.3748 -0.3421
 6619TIP3   OH219862   1.684   1.124   0.153 -0.1926  0.0724  0.0547
 6619TIP3    H119863   1.718   1.095   0.068 -0.9780  0.9284 -0.5698
 6619TIP3    H219864   1.737   1.200   0.176 -0.2343  0.0756  0.1411
 6620TIP3   OH219865   5.646   0.433   2.258 -0.1034 -0.1950  0.9640
 6620TIP3    H119866   5.721   0.432   2.317  0.5422  0.6675  0.1942
 6620TIP3    H219867   5.684   0.427   2.171 -0.7632  1.9442  0.4560
 6621TIP3   OH219868   4.122   2.160   0.674  0.3871 -0.6729  0.3180
 6621TIP3    H119869   4.070   2.111   0.610 -0.2041  0.5148 -0.1396
 6621TIP3    H219870   4.078   2.144   0.758  0.6056 -1.4676  0.2855
 6622TIP3   OH219871   4.887   1.854   2.653 -0.5343 -0.0561 -0.8791
 6622TIP3    H119872   4.887   1.791   2.726  0.6352 -1.1124 -1.7394
 6622TIP3    H219873   4.931   1.931   2.689 -0.1516 -0.4868 -0.3870
 6623TIP3   OH219874   4.876   3.063   3.080  0.1640 -0.2425 -0.7448
 6623TIP3    H119875   4.817   2.987   3.080 -0.8081  0.4937 -0.6003
 6623TIP3    H219876   4.928   3.052   3.001 -0.3173 -0.7979 -0.9959
 6624TIP3   OH219877   2.976   2.949   0.465  0.2346 -0.0776  0.3336
 6624TIP3    H119878   2.979   2.879   0.399  0.4715 -0.7738  1.0617
 6624TIP3    H219879   2.905   2.923   0.523  1.2522 -0.4936  1.4327
 6625TIP3   OH219880   3.086   3.358   3.267 -0.2978  0.2396  0.3840
 6625TIP3    H119881   3.055   3.321   3.350  1.2370  1.1930  1.4441
 6625TIP3    H219882   3.126   3.442   3.292  0.2769  0.5146 -1.3136
 6626TIP3   OH219883   4.318   5.562   0.013  0.4022 -0.3452  0.5972
 6626TIP3    H119884   4.382   5.631   0.000  0.7627 -0.7469  0.2073
 6626TIP3    H219885   4.316   5.548   0.108 -0.1768  0.6672  0.7439
 6627TIP3   OH219886   5.212   5.446   0.202 -0.3144  0.1250  0.0393
 6627TIP3    H119887   5.214   5.464   0.296 -1.6099 -1.1280  0.3384
 6627TIP3    H219888   5.283   5.383   0.188  1.3669  2.0077 -0.2556
 6628TIP3   OH219889   1.400   1.699   3.556 -0.2734  0.1049 -0.4179
 6628TIP3    H119890   1.387   1.771   3.618 -0.4178  0.2053 -0.5653
 6628TIP3    H219891   1.362   1.731   3.474 -1.5314 -0.6487 -0.1512
 6629TIP3   OH219892   0.445   4.043   2.025  0.0101  0.1871 -0.0868
 6629TIP3    H119893   0.379   4.112   2.031  1.1159  1.2423  0.4978
 6629TIP3    H219894   0.463   4.020   2.116 -1.1730 -1.7515 -0.2822
 6630TIP3   OH219895   0.926   3.745   2.421 -0.2576  0.0211  0.1314
 6630TIP3    H119896   0.910   3.651   2.429  0.9299 -0.0963  1.4502
 6630TIP3    H219897   1.020   3.753   2.406 -0.2023  1.0380  0.8995
 6631TIP3   OH219898   1.931   0.549   0.964 -0.3621  0.7120  0.5253
 6631TIP3    H119899   1.845   0.515   0.941 -0.2482 -1.6539  3.0931
 6631TIP3    H219900   1.992   0.497   0.911 -0.4044  1.0055  0.1813
 6632TIP3   OH219901   5.677   3.193   0.109 -0.1689  0.1843  0.6424
 6632TIP3    H119902   5.767   3.185   0.142 -0.4383 -0.8223  1.1700
 6632TIP3    H219903   5.672   3.128   0.039 -0.0344  1.3240 -0.4640
 6633TIP3   OH219904   2.551   2.169   3.950 -0.0425  0.3769 -0.0463
 6633TIP3    H119905   2.585   2.250   3.912  1.4397  0.5104  1.4211
 6633TIP3    H219906   2.617   2.143   4.014 -1.3793 -0.9845  0.8637
 6634TIP3   OH219907   0.769   0.418   0.490  0.1674 -0.2765  0.7888
 6634TIP3    H119908   0.839   0.482   0.479 -0.1523 -0.2601 -1.7560
 6634TIP3    H219909   0.746   0.391   0.401 -0.5603 -3.0332  1.6901
 6635TIP3   OH219910   2.421   0.576   4.395  0.3442  0.3421 -0.0380
 6635TIP3    H119911   2.378   0.535   4.320 -2.1977  2.2913  0.2353
 6635TIP3    H219912   2.391   0.525   4.470  1.5887 -0.6042 -0.1574
 6636TIP3   OH219913   4.101   0.113   5.039  0.1445  0.2242 -0.0368
 6636TIP3    H119914   4.023   0.067   5.067  0.9818 -0.9268  0.4855
 6636TIP3    H219915   4.145   0.052   4.980  1.0886  0.5038  0.3614
 6637TIP3   OH219916   2.384   3.010   4.933  0.2287 -0.0942 -0.4278
 6637TIP3    H119917   2.307   3.054   4.898  1.3974  1.1881 -1.4940
 6637TIP3    H219918   2.417   3.068   5.001  2.0229  0.9857 -2.1303
 6638TIP3   OH219919   3.885   1.517   3.302 -0.4613 -0.3145 -0.4026
 6638TIP3    H119920   3.848   1.592   3.257 -0.1225  0.3717  0.4346
 6638TIP3    H219921   3.861   1.442   3.248  0.4005  0.5183 -2.0141
 6639TIP3   OH219922   1.813   4.486   0.322  0.0111 -0.4218 -0.5176
 6639TIP3    H119923   1.878   4.418   0.308 -0.3129 -0.7738 -0.3311
 6639TIP3    H219924   1.829   4.517   0.411  0.7211  0.3588 -0.9080
 6640TIP3   OH219925   3.994   2.698   5.015  0.0274  0.1541 -0.1115
 6640TIP3    H119926   4.000   2.792   5.034 -0.5887  0.4933 -1.5171
 6640TIP3    H219927   3.933   2.664   5.081 -0.3126  0.8727 -0.0489
   6.35009   5.98692   5.18483   0.00000   0.00000  -2.11669   0.00000  -2.11669  -2.99347
