Title
19927
    1ASP      N    1   1.874   0.273   0.382 -0.3959  0.2442  0.0474
    1ASP    HT1    2   1.816   0.240   0.302  0.6626 -0.9339 -0.2616
    1ASP    HT2    3   1.957   0.315   0.337 -0.5243  0.0178 -0.4086
    1ASP    HT3    4   1.817   0.340   0.437  0.4079 -1.7134  3.5472
    1ASP     CA    5   1.891   0.158   0.476 -0.8153 -0.6831  0.4496
    1ASP     HA    6   1.958   0.193   0.554 -1.3765 -1.1704  1.1668
    1ASP     CB    7   1.754   0.134   0.545  0.0769 -0.9949  0.0591
    1ASP    HB1    8   1.762   0.051   0.619 -1.6890 -2.0679 -0.8749
    1ASP    HB2    9   1.674   0.100   0.476  0.9481  2.0227 -2.6839
    1ASP     CG   10   1.707   0.255   0.625 -0.3640  0.4203 -0.3126
    1ASP    OD1   11   1.612   0.240   0.701  0.0882  0.2847 -0.3905
    1ASP    OD2   12   1.764   0.363   0.614  0.5899 -0.2184 -0.2296
    1ASP      C   13   1.953   0.044   0.397  0.2597  0.6547  0.5174
    1ASP      O   14   2.057   0.065   0.323  0.1062  0.0626 -0.5267
    2ALA      N   15   1.897  -0.081   0.410 -0.3209  0.1998  1.0224
    2ALA     HN   16   1.817  -0.100   0.466  0.8044  0.9935  2.9946
    2ALA     CA   17   1.948  -0.194   0.330  0.3101 -0.1661  0.2118
    2ALA     HA   18   2.054  -0.209   0.342  0.2060 -1.0593  0.0318
    2ALA     CB   19   1.878  -0.321   0.384  0.7055 -0.0863 -0.2577
    2ALA    HB1   20   1.927  -0.409   0.338  0.3566  0.4945 -1.7956
    2ALA    HB2   21   1.768  -0.318   0.366  0.4552 -2.6962  0.4501
    2ALA    HB3   22   1.906  -0.323   0.491  1.2829  0.1527 -0.4011
    2ALA      C   23   1.920  -0.174   0.185 -0.1725 -0.5227 -0.4335
    2ALA      O   24   1.817  -0.122   0.142  0.1291 -0.3362 -0.5252
    3ASP      N   25   2.020  -0.213   0.106  0.3750 -0.6316  0.6021
    3ASP     HN   26   2.110  -0.238   0.143  0.0033 -0.6360  1.5424
    3ASP     CA   27   2.008  -0.210  -0.036 -0.9522  0.1883  0.2797
    3ASP     HA   28   1.987  -0.112  -0.075  1.5551  0.9563  0.6896
    3ASP     CB   29   2.146  -0.264  -0.101  0.1511 -0.1011  1.3187
    3ASP    HB1   30   2.135  -0.286  -0.209  2.7429 -0.9951  1.1889
    3ASP    HB2   31   2.185  -0.355  -0.050 -0.9600 -0.8059  0.9722
    3ASP     CG   32   2.256  -0.156  -0.090 -0.2598  0.0452 -0.0414
    3ASP    OD1   33   2.369  -0.180  -0.140 -0.8780  0.1613 -0.0300
    3ASP    OD2   34   2.237  -0.051  -0.024  0.3598  0.4493 -0.1794
    3ASP      C   35   1.888  -0.301  -0.069 -0.1486  0.7950 -0.4754
    3ASP      O   36   1.867  -0.395   0.004  0.1849  0.3407  0.6711
    4GLY      N   37   1.808  -0.272  -0.170  0.2632 -0.4141  0.2211
    4GLY     HN   38   1.839  -0.207  -0.240  0.8812 -0.0375  0.8254
    4GLY     CA   39   1.690  -0.352  -0.203  0.1387 -0.2672 -0.8677
    4GLY    HA1   40   1.616  -0.288  -0.246  0.0359 -0.0644 -0.3977
    4GLY    HA2   41   1.653  -0.386  -0.107 -0.4396  1.0961 -0.5882
    4GLY      C   42   1.716  -0.467  -0.298  0.2512 -0.2727  0.2590
    4GLY      O   43   1.823  -0.495  -0.344  0.2741  0.4446 -0.5191
    5PRO      N   44   1.609  -0.540  -0.325 -0.0838 -0.6632 -0.7107
    5PRO     CD   45   1.504  -0.567  -0.223 -0.7151 -0.4132 -0.1008
    5PRO    HD1   46   1.430  -0.484  -0.227  1.1324  1.2663 -2.0363
    5PRO    HD2   47   1.541  -0.596  -0.123  0.7243 -1.3626 -0.8786
    5PRO     CA   48   1.599  -0.619  -0.442  0.1650  0.4708 -0.1841
    5PRO     HA   49   1.675  -0.695  -0.432  0.2151  0.6072  0.4702
    5PRO     CB   50   1.461  -0.688  -0.433  0.4405  0.1831  0.0215
    5PRO    HB1   51   1.452  -0.780  -0.494 -1.8342  1.3504 -1.5453
    5PRO    HB2   52   1.379  -0.619  -0.464 -0.3074  0.5681  2.6071
    5PRO     CG   53   1.435  -0.691  -0.278  0.0347  0.2854  0.2024
    5PRO    HG1   54   1.326  -0.705  -0.264  0.0971 -1.8894 -1.0071
    5PRO    HG2   55   1.471  -0.783  -0.226 -1.2840 -0.0241  0.5958
    5PRO      C   56   1.613  -0.540  -0.572  0.6199 -0.4046  0.5275
    5PRO      O   57   1.606  -0.414  -0.573  0.2160  0.3395  0.5275
    6GLY      N   58   1.632  -0.611  -0.684 -0.3882  0.0356 -0.0166
    6GLY     HN   59   1.645  -0.710  -0.679 -0.7795 -0.0420 -0.4503
    6GLY     CA   60   1.640  -0.550  -0.819 -1.0948 -0.6418 -0.6548
    6GLY    HA1   61   1.697  -0.617  -0.882  0.6742 -1.2205  1.4505
    6GLY    HA2   62   1.693  -0.456  -0.816  1.1206 -1.7475 -2.0101
    6GLY      C   63   1.511  -0.524  -0.885  0.3751  0.6859  0.0653
    6GLY      O   64   1.407  -0.522  -0.819 -0.2787 -0.2505 -0.1501
    7ASP      N   65   1.521  -0.501  -1.020  0.1256  0.6126 -0.0788
    7ASP     HN   66   1.610  -0.502  -1.065  0.1098  1.1046 -0.1323
    7ASP     CA   67   1.413  -0.463  -1.108 -0.4596 -0.6617  0.4509
    7ASP     HA   68   1.366  -0.381  -1.055  1.7969  1.4716 -0.6602
    7ASP     CB   69   1.462  -0.418  -1.261 -0.1171 -0.0964 -0.9826
    7ASP    HB1   70   1.368  -0.406  -1.318 -0.3764  0.3719 -0.4648
    7ASP    HB2   71   1.529  -0.502  -1.291  0.9138  0.3804 -0.1253
    7ASP     CG   72   1.542  -0.287  -1.265  0.7859  0.0369  0.3156
    7ASP    OD1   73   1.551  -0.220  -1.163  0.4856  0.2636 -0.0168
    7ASP    OD2   74   1.591  -0.244  -1.372 -0.2495  0.0458  0.1690
    7ASP      C   75   1.319  -0.569  -1.126  0.5909 -0.0580  0.9795
    7ASP      O   76   1.360  -0.687  -1.133 -0.0570  0.3218 -0.1464
    8PRO      N   77   1.186  -0.540  -1.140 -0.1785 -0.3465 -0.0068
    8PRO     CD   78   1.125  -0.406  -1.127 -0.2416 -0.3718 -0.7291
    8PRO    HD1   79   1.104  -0.350  -1.220 -1.8375  0.3446  0.0273
    8PRO    HD2   80   1.185  -0.344  -1.057  0.9323 -0.4304 -1.6400
    8PRO     CA   81   1.079  -0.649  -1.151  0.2208  0.2203 -0.0175
    8PRO     HA   82   1.092  -0.718  -1.069 -2.0883  0.1862  0.3807
    8PRO     CB   83   0.950  -0.565  -1.143  0.2363 -0.2932  0.4154
    8PRO    HB1   84   0.861  -0.625  -1.115 -1.5438  0.4980 -2.9999
    8PRO    HB2   85   0.921  -0.533  -1.245  0.3641 -0.0929  0.4401
    8PRO     CG   86   0.991  -0.439  -1.066  0.1643  0.2868  0.1530
    8PRO    HG1   87   0.915  -0.358  -1.072  0.2700  0.4287  0.7085
    8PRO    HG2   88   1.007  -0.461  -0.959 -1.8897 -2.6041 -0.0411
    8PRO      C   89   1.079  -0.729  -1.286 -0.1953 -0.6047 -0.3104
    8PRO      O   90   1.083  -0.671  -1.392 -0.5010 -0.5864  0.3991
    9ASP      N   91   1.082  -0.860  -1.278 -0.4328  0.1398  0.0211
    9ASP     HN   92   1.111  -0.901  -1.192 -3.2347 -1.9404  0.1079
    9ASP     CA   93   1.084  -0.941  -1.394 -0.8448 -0.3277 -0.2701
    9ASP     HA   94   1.137  -0.891  -1.473  0.9613 -0.5778  0.7206
    9ASP     CB   95   1.157  -1.086  -1.362 -0.8401  0.3409  0.6112
    9ASP    HB1   96   1.104  -1.138  -1.280  1.0730 -1.0361  1.0507
    9ASP    HB2   97   1.260  -1.071  -1.323 -1.0095  1.0013  0.8137
    9ASP     CG   98   1.159  -1.190  -1.474 -0.1188  0.3400 -0.6277
    9ASP    OD1   99   1.185  -1.311  -1.449 -0.9569 -0.2837  0.1918
    9ASP    OD2  100   1.132  -1.153  -1.591  0.0663 -0.0205  0.2898
    9ASP      C  101   0.941  -0.964  -1.457  0.2001 -1.1447 -0.4811
    9ASP      O  102   0.843  -0.968  -1.382 -0.1268  0.0618  0.1371
   10ALA      N  103   0.926  -0.960  -1.591 -0.5892 -0.1072 -0.2366
   10ALA     HN  104   1.009  -0.955  -1.646 -0.8818 -0.2731 -0.7053
   10ALA     CA  105   0.798  -0.980  -1.651  0.0334 -0.3801  0.5064
   10ALA     HA  106   0.718  -0.952  -1.584 -1.1987 -1.4262 -0.4654
   10ALA     CB  107   0.779  -0.883  -1.771  0.1033 -0.2446  0.2157
   10ALA    HB1  108   0.676  -0.887  -1.813  1.5734  0.7387 -4.0355
   10ALA    HB2  109   0.840  -0.922  -1.856  1.4533  1.8460  0.1603
   10ALA    HB3  110   0.808  -0.779  -1.744 -0.7603  0.0265  0.1266
   10ALA      C  111   0.768  -1.118  -1.704  0.5464 -0.2453 -0.0381
   10ALA      O  112   0.663  -1.150  -1.753 -0.6932  0.1371  0.7981
   11GLY      N  113   0.864  -1.209  -1.680 -0.3751 -0.1147  0.0971
   11GLY     HN  114   0.941  -1.171  -1.629 -0.8667  1.5582 -0.3624
   11GLY     CA  115   0.861  -1.350  -1.718 -0.5088  0.0024 -0.7016
   11GLY    HA1  116   0.962  -1.379  -1.690 -0.1868  0.2437 -1.6053
   11GLY    HA2  117   0.836  -1.363  -1.822 -0.3121  0.2478 -0.7805
   11GLY      C  118   0.769  -1.422  -1.622  0.5366  0.4951  0.4100
   11GLY    OT1  119   0.671  -1.487  -1.666  0.5067  0.2663  0.5999
   11GLY    OT2  120   0.796  -1.417  -1.500 -0.5793  0.2159  0.2833
   12SOD    SOD  121   4.765   3.829   1.483  0.2820  0.1648  0.0602
   13SOD    SOD  122   0.594   2.562   0.526  0.3490  0.5134  0.0479
   14SOD    SOD  123   1.449   4.420   1.997 -0.1890  0.2108  0.0802
   15SOD    SOD  124   5.877   4.614   4.561  0.6014 -0.7738 -0.6168
   16SOD    SOD  125   6.320   4.094   3.059  0.0330  0.3907  0.1477
   17SOD    SOD  126   3.069   5.254   3.594 -0.0234 -0.0058 -0.2804
   18SOD    SOD  127   5.819   1.960   4.018 -0.1525  0.2954  0.2345
   19SOD    SOD  128   5.693   4.432   5.174  0.4206 -0.2149 -0.0061
   20SOD    SOD  129   1.281   2.586   0.028  0.1553 -0.3583 -0.1639
   21SOD    SOD  130   4.816   2.695   3.030 -0.3444 -0.5242  0.0614
   22SOD    SOD  131   0.587   2.131   3.929  0.1097 -0.1642 -0.0446
   23SOD    SOD  132   4.592   3.851   0.147  0.4334  0.5578 -0.0821
   24SOD    SOD  133   0.221   2.084   0.400  0.3809  0.1407 -0.1859
   25SOD    SOD  134   4.502   5.137   0.913  0.2060 -0.1423 -0.1444
   26SOD    SOD  135   1.644   2.398   3.506  0.2330  0.0308 -0.1969
   27SOD    SOD  136   3.967   1.565   2.969 -0.0272  0.3469  0.0313
   28SOD    SOD  137   2.561   4.107   1.823 -0.2029 -0.4219 -0.1138
   29SOD    SOD  138   2.076   4.953   1.129 -0.0750 -0.1234  0.2128
   30SOD    SOD  139   3.928   4.610   3.015 -0.0440 -0.4331 -0.0674
   31SOD    SOD  140   5.140   0.598   1.259 -0.2783 -0.2518 -0.4480
   32SOD    SOD  141   2.328   3.200   3.888  0.1350 -0.0407  0.1843
   33SOD    SOD  142   3.156   1.250   3.353  0.4164 -0.5460 -0.0371
   34CLA    CLA  143   2.643   5.405   3.830  0.1691 -0.2408  0.0408
   35CLA    CLA  144   5.970   4.071   2.348 -0.3054  0.2671  0.1605
   36CLA    CLA  145   6.172   0.247   2.954 -0.2802 -0.1338  0.1988
   37CLA    CLA  146   1.499   2.125   0.493 -0.1271 -0.0790 -0.1828
   38CLA    CLA  147   0.676   4.860   4.356 -0.1928  0.1312 -0.0651
   39CLA    CLA  148   4.199   2.007   3.266  0.0303 -0.1783  0.2611
   40CLA    CLA  149   5.479   4.370   3.982  0.2147 -0.2583 -0.4478
   41CLA    CLA  150   5.938   4.618   0.567  0.0095  0.1278  0.3677
   42CLA    CLA  151   6.076   1.907   2.125 -0.0594  0.5114  0.4962
   43CLA    CLA  152   2.297   5.147   0.455 -0.2197 -0.2519 -0.8210
   44CLA    CLA  153   0.641   3.208   3.784  0.2722  0.1380  0.5003
   45CLA    CLA  154   3.013   0.380   4.057  0.2362 -0.0536 -0.0991
   46CLA    CLA  155   5.489   3.670   4.613  0.1843  0.2636 -0.3680
   47CLA    CLA  156   0.015   3.575   1.916 -0.2166 -0.0483 -0.3459
   48CLA    CLA  157   3.379   3.971   0.228  0.2656  0.3292 -0.4021
   49CLA    CLA  158   0.280   4.580   1.331  0.0442  0.0878  0.3225
   50CLA    CLA  159   3.431   4.284   2.024  0.1643  0.4621  0.1542
   51CLA    CLA  160   1.931   4.481   2.596 -0.0794  0.1928  0.3449
   52TIP3   OH2  161   0.867   0.953   0.614  0.8740  0.1362 -0.2392
   52TIP3    H1  162   0.872   1.042   0.647  0.4588  0.8255 -1.9086
   52TIP3    H2  163   0.942   0.944   0.556  0.1775 -0.1204 -1.1316
   53TIP3   OH2  164   6.326   5.489   0.658 -0.2497  0.5870 -0.2585
   53TIP3    H1  165   6.244   5.456   0.694 -0.9236  2.0153 -0.4196
   53TIP3    H2  166   6.332   5.447   0.572 -0.7388  0.3792 -0.1977
   54TIP3   OH2  167   2.611   4.470   3.338 -0.2594 -0.0213  0.1329
   54TIP3    H1  168   2.567   4.416   3.404 -0.0512 -1.7670 -1.0749
   54TIP3    H2  169   2.696   4.427   3.326 -0.3989  0.0935 -1.4301
   55TIP3   OH2  170   0.282   4.126   3.396  0.2199  0.0200  0.7797
   55TIP3    H1  171   0.288   4.033   3.377  2.2446  0.0724  0.8908
   55TIP3    H2  172   0.311   4.134   3.487  1.9783  0.8952  0.2010
   56TIP3   OH2  173   1.419   4.712   5.027  0.6227 -0.4409  0.1547
   56TIP3    H1  174   1.397   4.668   4.945 -0.9908 -0.8429  0.7729
   56TIP3    H2  175   1.370   4.794   5.024 -0.9819 -1.2969  1.5119
   57TIP3   OH2  176   0.789   4.703   3.498 -0.3838 -0.6314  0.8870
   57TIP3    H1  177   0.851   4.658   3.555  0.6319 -0.5252 -0.0906
   57TIP3    H2  178   0.837   4.781   3.468 -0.9992 -0.5334  0.1316
   58TIP3   OH2  179   1.128   2.718   0.110  0.8407 -0.2418  0.1434
   58TIP3    H1  180   1.167   2.758   0.188 -1.7960 -1.2169  2.1263
   58TIP3    H2  181   1.063   2.782   0.080  0.5582 -0.6443 -0.1166
   59TIP3   OH2  182   5.597   1.064   5.103  0.2500  0.0641  0.4978
   59TIP3    H1  183   5.582   0.971   5.085  1.0533  0.0509 -0.1792
   59TIP3    H2  184   5.561   1.110   5.028  0.8896  0.2184  0.2785
   60TIP3   OH2  185   4.346   0.100   2.399 -0.5604  0.3822  0.5186
   60TIP3    H1  186   4.262   0.057   2.411 -0.9022  0.9050  0.0519
   60TIP3    H2  187   4.336   0.185   2.444 -0.5868  0.8016 -0.2596
   61TIP3   OH2  188   2.401   0.499   3.795  0.8679 -0.6742 -0.7543
   61TIP3    H1  189   2.310   0.491   3.767  0.2921  2.2246 -0.0461
   61TIP3    H2  190   2.440   0.558   3.730  1.7439 -0.4636 -0.0478
   62TIP3   OH2  191   4.889   0.112   0.097  0.0788 -0.1356 -0.3949
   62TIP3    H1  192   4.839   0.156   0.167 -0.4852  0.9555 -1.4443
   62TIP3    H2  193   4.900   0.023   0.129 -2.8745 -0.5398 -0.2286
   63TIP3   OH2  194   4.707   4.775   4.712  0.0577 -0.1975 -0.5343
   63TIP3    H1  195   4.760   4.826   4.773 -1.7557  1.0178  0.1171
   63TIP3    H2  196   4.758   4.774   4.631  1.2372  0.5635  0.1622
   64TIP3   OH2  197   3.966   1.680   0.659 -0.1534 -0.1894 -0.2008
   64TIP3    H1  198   3.956   1.774   0.677 -1.1999 -0.6996  2.2570
   64TIP3    H2  199   4.035   1.651   0.719 -0.5772 -1.1927 -0.1743
   65TIP3   OH2  200   5.085   2.480   2.247  0.6654 -0.3658  0.1522
   65TIP3    H1  201   5.070   2.527   2.165  0.1691 -1.1109 -0.1880
   65TIP3    H2  202   5.072   2.388   2.226 -1.2033 -0.4420  1.4409
   66TIP3   OH2  203   4.195   2.252   2.564 -0.2798 -0.1168  0.3368
   66TIP3    H1  204   4.223   2.330   2.516  0.1322  0.0256  0.7977
   66TIP3    H2  205   4.143   2.202   2.501  0.8304 -0.2758 -0.4819
   67TIP3   OH2  206   1.096   5.655   2.803 -0.4763 -0.1357  0.2469
   67TIP3    H1  207   1.134   5.607   2.729  0.7453 -0.9432  1.3642
   67TIP3    H2  208   1.168   5.664   2.865 -1.6740 -0.1442  1.6825
   68TIP3   OH2  209   5.405   5.413   3.141  0.1466 -0.0083 -0.1313
   68TIP3    H1  210   5.476   5.383   3.084 -0.5616 -1.2170 -0.4343
   68TIP3    H2  211   5.422   5.371   3.225  0.5205  0.7858  0.1947
   69TIP3   OH2  212   4.725   4.745   3.206 -0.1714  0.0386 -0.0482
   69TIP3    H1  213   4.660   4.807   3.172 -0.4335 -0.2723 -0.1216
   69TIP3    H2  214   4.687   4.659   3.188  0.4737 -0.1545 -0.5189
   70TIP3   OH2  215   4.748   2.543   0.844 -0.2053  0.3693  0.6047
   70TIP3    H1  216   4.777   2.624   0.801  2.7850 -0.1399  1.4630
   70TIP3    H2  217   4.733   2.482   0.772  0.7841  0.7302  0.0642
   71TIP3   OH2  218   5.662   4.678   1.327  0.3964  0.3273 -0.3414
   71TIP3    H1  219   5.750   4.702   1.355  0.2562  0.0761  0.3349
   71TIP3    H2  220   5.605   4.709   1.398 -0.0644  0.5101 -0.7802
   72TIP3   OH2  221   3.914   5.700   2.053 -0.0113 -0.3608 -0.8813
   72TIP3    H1  222   3.827   5.734   2.033 -0.0348  0.9169  1.1976
   72TIP3    H2  223   3.973   5.774   2.040  0.7170 -1.0469 -1.6465
   73TIP3   OH2  224   5.386   0.838   4.893 -0.0382 -0.0250 -0.0542
   73TIP3    H1  225   5.464   0.808   4.939  0.7469  1.2555 -0.4961
   73TIP3    H2  226   5.325   0.863   4.963  0.1244 -0.5763  0.2907
   74TIP3   OH2  227   2.974   1.791   4.970 -0.0294 -0.5530  0.3646
   74TIP3    H1  228   2.941   1.705   4.946 -2.1375  0.6536 -1.5229
   74TIP3    H2  229   3.064   1.793   4.939 -1.7004 -0.0798 -5.7621
   75TIP3   OH2  230   4.836   0.605   2.758  0.0127  0.2210 -0.1265
   75TIP3    H1  231   4.795   0.524   2.788  0.8528  0.3298  1.4417
   75TIP3    H2  232   4.796   0.674   2.811  0.1370  0.6822 -0.6240
   76TIP3   OH2  233   4.891   5.855   2.389 -0.3281 -0.4235 -0.1776
   76TIP3    H1  234   4.909   5.797   2.314  2.4414  0.7423 -0.5254
   76TIP3    H2  235   4.830   5.920   2.355 -3.4893 -2.9610  0.2082
   77TIP3   OH2  236   3.428   3.292   1.903  0.3846 -0.3986  0.0938
   77TIP3    H1  237   3.389   3.302   1.816 -1.3730  0.0947  0.8935
   77TIP3    H2  238   3.506   3.348   1.901  0.3007 -0.2982 -1.1112
   78TIP3   OH2  239   2.683   1.768   3.757 -0.7725 -0.1187  0.0190
   78TIP3    H1  240   2.738   1.731   3.687 -0.7117  0.1968 -0.0986
   78TIP3    H2  241   2.623   1.697   3.780 -1.1419 -0.0478 -0.7191
   79TIP3   OH2  242   3.705   4.550   2.971 -0.2377 -0.2511  0.4393
   79TIP3    H1  243   3.641   4.619   2.956 -0.0324  0.1318  1.2698
   79TIP3    H2  244   3.660   4.488   3.028  0.2352  0.2027  1.3276
   80TIP3   OH2  245   4.754   4.452   1.521 -0.4281  0.3436  0.2742
   80TIP3    H1  246   4.700   4.434   1.444 -1.7965 -0.0221  1.2716
   80TIP3    H2  247   4.698   4.429   1.596  0.0873  2.5572  1.4500
   81TIP3   OH2  248   0.219   0.180   2.028  0.6261  0.6659 -0.1425
   81TIP3    H1  249   0.206   0.086   2.043 -0.6407  0.7734 -0.4366
   81TIP3    H2  250   0.131   0.217   2.031  1.0359  1.7356 -0.7740
   82TIP3   OH2  251   0.381   5.538   3.771 -0.2234  0.5951 -0.0301
   82TIP3    H1  252   0.416   5.463   3.818 -1.7813 -0.1161  0.0821
   82TIP3    H2  253   0.457   5.593   3.752  0.5874  0.4982  2.5581
   83TIP3   OH2  254   4.422   4.378   0.433 -0.0581 -0.0180  0.3155
   83TIP3    H1  255   4.352   4.337   0.485 -1.4013  1.7125 -0.0672
   83TIP3    H2  256   4.490   4.310   0.429 -2.4311 -2.5200 -0.8988
   84TIP3   OH2  257   0.294   5.656   2.901 -0.6756  0.2769  0.7050
   84TIP3    H1  258   0.281   5.747   2.925 -1.2818  0.1950  0.7148
   84TIP3    H2  259   0.384   5.637   2.926 -0.3805  1.0147  0.2278
   85TIP3   OH2  260   6.231   0.542   1.982  0.1737 -0.3253 -0.2396
   85TIP3    H1  261   6.315   0.525   1.939  0.1700 -1.2724  0.0888
   85TIP3    H2  262   6.176   0.579   1.914  0.0199 -2.2345 -1.2305
   86TIP3   OH2  263   4.357   1.372   3.641  0.1379  0.3422 -0.5440
   86TIP3    H1  264   4.387   1.442   3.700 -1.5975  0.1305  0.6479
   86TIP3    H2  265   4.437   1.343   3.597  1.5786  0.3643  1.8708
   87TIP3   OH2  266   4.855   2.261   4.841  0.2156  0.0700 -0.2595
   87TIP3    H1  267   4.800   2.192   4.804 -0.7621 -0.6300  2.3346
   87TIP3    H2  268   4.794   2.321   4.882  1.2555  0.2675  1.0700
   88TIP3   OH2  269   4.861   3.137   2.350 -0.2900  0.9294  0.2059
   88TIP3    H1  270   4.933   3.173   2.403  0.2884 -0.2135  0.2202
   88TIP3    H2  271   4.901   3.123   2.264 -0.3813 -0.0916  0.3267
   89TIP3   OH2  272   5.772   1.851   4.526 -0.2944 -0.1129  0.1622
   89TIP3    H1  273   5.809   1.908   4.593 -0.4987  2.1222 -1.5376
   89TIP3    H2  274   5.679   1.846   4.548 -0.3551  0.5747  0.0752
   90TIP3   OH2  275   1.988   4.770   2.369  0.5682 -0.0506  0.0995
   90TIP3    H1  276   1.972   4.700   2.432 -1.3752 -0.6374 -0.9561
   90TIP3    H2  277   2.055   4.734   2.310 -0.3083 -0.9822 -0.3467
   91TIP3   OH2  278   1.622   2.423   1.281 -0.0057 -0.2881  0.1838
   91TIP3    H1  279   1.645   2.469   1.200 -1.2252  3.1923  1.6060
   91TIP3    H2  280   1.707   2.396   1.317  0.9103  1.4133 -0.5328
   92TIP3   OH2  281   5.802   2.974   1.105  0.5375 -0.3512 -0.5185
   92TIP3    H1  282   5.835   2.885   1.094  2.9928  0.7161 -2.7939
   92TIP3    H2  283   5.874   3.021   1.147 -0.2820  0.8532 -0.4150
   93TIP3   OH2  284   3.797   1.715   3.024 -0.0836 -0.0862  0.0125
   93TIP3    H1  285   3.762   1.792   2.978  1.6368  0.9978  0.4427
   93TIP3    H2  286   3.820   1.747   3.111  0.1930 -1.2286  0.3828
   94TIP3   OH2  287   4.395   5.701   2.646  0.0901  0.1855  0.3728
   94TIP3    H1  288   4.373   5.747   2.727  1.7529  0.1762  0.8487
   94TIP3    H2  289   4.460   5.636   2.672 -0.0263 -0.4289 -0.8188
   95TIP3   OH2  290   4.292   0.199   2.876  0.0660  0.1117 -0.7831
   95TIP3    H1  291   4.337   0.123   2.840  1.0002  0.4152 -0.2770
   95TIP3    H2  292   4.353   0.271   2.863 -0.3024  0.5433 -0.1460
   96TIP3   OH2  293   3.763   3.334   3.277 -0.6574 -0.5834  0.4195
   96TIP3    H1  294   3.802   3.358   3.193 -1.9606 -1.8521 -0.6065
   96TIP3    H2  295   3.814   3.381   3.342  1.2167 -0.5587 -0.9961
   97TIP3   OH2  296   2.491   4.798   0.305  0.1177 -0.1062  0.6626
   97TIP3    H1  297   2.479   4.889   0.331 -0.0797 -0.9680  4.1179
   97TIP3    H2  298   2.584   4.792   0.282  0.4242  0.7616  1.5706
   98TIP3   OH2  299   5.238   0.714   1.451 -0.5784  0.4638  0.3065
   98TIP3    H1  300   5.189   0.759   1.519 -0.2329  1.0623  0.1694
   98TIP3    H2  301   5.274   0.637   1.493  0.6789  1.4722  1.1512
   99TIP3   OH2  302   4.616   4.081   3.983 -0.0493 -0.0726 -0.0143
   99TIP3    H1  303   4.523   4.100   3.994  0.0389  1.1262 -1.0364
   99TIP3    H2  304   4.618   4.000   3.931 -0.5659  0.6681 -1.2334
  100TIP3   OH2  305   0.974   6.024   4.533 -0.1033  0.8978  0.2101
  100TIP3    H1  306   1.052   6.005   4.481 -2.3246  0.6678 -3.4494
  100TIP3    H2  307   0.934   5.938   4.548 -0.2961  1.1083  0.9150
  101TIP3   OH2  308   4.733   3.633   3.234 -0.1357 -0.4704 -0.5826
  101TIP3    H1  309   4.658   3.689   3.216 -1.3091 -2.0734 -0.9484
  101TIP3    H2  310   4.698   3.563   3.289  1.3251 -0.7496  0.0559
  102TIP3   OH2  311   2.596   4.671   1.114  0.4301  0.2086  0.0369
  102TIP3    H1  312   2.678   4.706   1.150  0.4476  0.7474 -0.5201
  102TIP3    H2  313   2.532   4.683   1.184  0.4574  1.2848 -0.1024
  103TIP3   OH2  314   1.595   0.568   1.337 -0.0547  0.0190  0.3535
  103TIP3    H1  315   1.536   0.506   1.378 -0.1354  0.4136  0.8457
  103TIP3    H2  316   1.539   0.625   1.285 -0.0710  0.1677  0.5317
  104TIP3   OH2  317   2.455   2.736   1.785 -0.2172  0.6323  0.3828
  104TIP3    H1  318   2.453   2.823   1.745  0.0642  0.7650  0.6572
  104TIP3    H2  319   2.485   2.751   1.874 -0.6340  0.3094  0.5807
  105TIP3   OH2  320   3.678   5.930   1.402  0.2921  0.3364 -0.0937
  105TIP3    H1  321   3.669   6.004   1.461 -0.6642  0.7164 -0.6972
  105TIP3    H2  322   3.669   5.968   1.314 -1.6338 -0.6673 -0.3757
  106TIP3   OH2  323   5.973   4.992   4.286 -0.2694  0.0688 -0.3440
  106TIP3    H1  324   6.046   5.055   4.288 -0.5618  0.3914  0.6368
  106TIP3    H2  325   5.916   5.025   4.216 -0.5163  1.0207  0.2863
  107TIP3   OH2  326   4.647   0.375   4.185  0.1058  0.1635  0.1595
  107TIP3    H1  327   4.640   0.290   4.141 -0.0167  0.1336  0.2389
  107TIP3    H2  328   4.703   0.358   4.261  1.5565  0.5152 -0.7778
  108TIP3   OH2  329   5.354   3.005   0.518 -0.3848  0.3420 -0.5506
  108TIP3    H1  330   5.298   3.033   0.446 -1.1651 -0.8762 -0.4532
  108TIP3    H2  331   5.427   2.959   0.476 -1.7875 -2.0313 -0.5748
  109TIP3   OH2  332   2.326   3.725   4.288 -0.4271 -0.3937 -0.0663
  109TIP3    H1  333   2.404   3.726   4.345 -0.0325 -0.0134 -0.6041
  109TIP3    H2  334   2.349   3.783   4.216 -0.9309 -0.8684 -0.6119
  110TIP3   OH2  335   1.849   3.245   3.858  0.4151  0.5107 -0.1886
  110TIP3    H1  336   1.830   3.200   3.775  0.6268  0.0689 -0.0022
  110TIP3    H2  337   1.851   3.338   3.835 -0.6172  0.4752 -0.4674
  111TIP3   OH2  338   3.093   4.393   0.045  0.1770 -0.4519  0.4666
  111TIP3    H1  339   3.119   4.431   0.129  1.1139 -0.0862  0.0310
  111TIP3    H2  340   3.149   4.317   0.034 -1.9440 -2.2720  1.5013
  112TIP3   OH2  341   1.800   3.151   3.608  0.5366 -0.4786  0.5130
  112TIP3    H1  342   1.793   3.199   3.526  1.1097 -0.5214  0.4334
  112TIP3    H2  343   1.752   3.069   3.592  2.4141 -1.4483 -0.5290
  113TIP3   OH2  344   0.256   5.274   1.796  0.1038 -0.3956 -0.0605
  113TIP3    H1  345   0.328   5.269   1.859  1.5083 -3.8992 -1.6175
  113TIP3    H2  346   0.299   5.297   1.713 -0.5053 -2.1954 -0.9455
  114TIP3   OH2  347   2.075   5.871   1.568 -0.4156 -0.5518  0.0275
  114TIP3    H1  348   2.029   5.849   1.649 -0.5555 -0.3520  0.0030
  114TIP3    H2  349   2.135   5.798   1.555 -0.8170 -0.8806 -0.0105
  115TIP3   OH2  350   4.801   2.408   0.059  0.0408  0.0410  0.1411
  115TIP3    H1  351   4.723   2.464   0.057 -0.6347 -0.8635 -1.2849
  115TIP3    H2  352   4.825   2.398  -0.034  0.8347 -1.0619  0.4408
  116TIP3   OH2  353   2.360   3.424   1.957 -0.5297 -0.0681 -0.5863
  116TIP3    H1  354   2.440   3.421   2.009 -0.1480 -1.8287 -1.2249
  116TIP3    H2  355   2.388   3.405   1.868 -1.2766  2.2292 -1.3788
  117TIP3   OH2  356   5.339   3.185   2.566 -0.4209 -0.2275  0.5862
  117TIP3    H1  357   5.288   3.198   2.646 -0.7784 -2.8529  0.8722
  117TIP3    H2  358   5.427   3.217   2.588 -0.6016 -0.5954  1.9260
  118TIP3   OH2  359   4.116   0.178   5.085  0.1536  0.2947 -0.4409
  118TIP3    H1  360   4.129   0.263   5.045  3.1959  0.2937  0.2950
  118TIP3    H2  361   4.088   0.121   5.013  0.3998  1.4185 -1.4448
  119TIP3   OH2  362   1.044   3.848   2.440  0.0146 -0.2622  0.1816
  119TIP3    H1  363   1.084   3.842   2.527  0.1227  1.0702  0.2334
  119TIP3    H2  364   1.001   3.763   2.428  0.7946 -0.8091  1.1387
  120TIP3   OH2  365   2.029   2.280   3.681  0.1549  0.3583 -0.0319
  120TIP3    H1  366   2.059   2.198   3.642 -0.9329  0.1088 -0.4023
  120TIP3    H2  367   1.965   2.314   3.618 -0.2776  0.8788  0.6707
  121TIP3   OH2  368   1.546   5.708   0.044 -0.4261  0.0867 -0.2243
  121TIP3    H1  369   1.461   5.752   0.041 -1.0244 -0.8357  1.8324
  121TIP3    H2  370   1.609   5.776   0.018 -1.6950  1.0156 -0.9667
  122TIP3   OH2  371   2.417   2.492   3.982  0.0741  0.2200 -0.0899
  122TIP3    H1  372   2.424   2.429   3.910  1.2453 -1.4013  1.3654
  122TIP3    H2  373   2.483   2.558   3.962 -1.4669  1.3537 -1.8652
  123TIP3   OH2  374   4.728   3.823   2.881 -0.2781  0.7070  0.0575
  123TIP3    H1  375   4.813   3.820   2.924 -1.0602 -0.0829  1.6067
  123TIP3    H2  376   4.698   3.912   2.894 -0.4574  0.5043  1.0598
  124TIP3   OH2  377   0.783   2.746   4.908 -0.1637  0.1062 -0.1439
  124TIP3    H1  378   0.767   2.652   4.897  0.6733 -0.0493 -0.0541
  124TIP3    H2  379   0.877   2.756   4.898 -0.5122  1.4042 -3.5741
  125TIP3   OH2  380   4.514   4.635   3.591 -0.5932 -0.1610  0.2108
  125TIP3    H1  381   4.596   4.651   3.544 -1.2684  0.3681 -0.8463
  125TIP3    H2  382   4.532   4.659   3.681  0.3523  0.1464 -0.0505
  126TIP3   OH2  383   3.364   0.961   1.795 -0.2027 -0.5366  0.7731
  126TIP3    H1  384   3.298   1.029   1.785 -0.5054 -0.8348  0.7357
  126TIP3    H2  385   3.414   0.988   1.873 -0.2225 -0.1945  0.6695
  127TIP3   OH2  386   2.338   0.659   4.127  0.3815  0.3567  0.0269
  127TIP3    H1  387   2.375   0.619   4.206  1.1047 -1.5916 -1.2173
  127TIP3    H2  388   2.285   0.732   4.159  1.0934 -0.0346  2.2540
  128TIP3   OH2  389   1.994   2.629   0.190 -0.0353 -0.1049  0.6491
  128TIP3    H1  390   1.971   2.645   0.282  2.2693 -0.0095  1.2815
  128TIP3    H2  391   1.998   2.716   0.151 -0.4334 -0.1052  0.6023
  129TIP3   OH2  392   3.641   0.090   3.527 -0.0348 -0.0926 -0.0467
  129TIP3    H1  393   3.612   0.140   3.451 -1.9532  0.6439  1.1044
  129TIP3    H2  394   3.622   0.146   3.602  1.7783 -0.8032  1.0263
  130TIP3   OH2  395   2.819   1.177   2.036 -0.3716 -0.0130  0.2475
  130TIP3    H1  396   2.812   1.267   2.003 -0.2966 -0.0192  0.2154
  130TIP3    H2  397   2.754   1.129   1.984  0.7565 -0.3242 -0.9414
  131TIP3   OH2  398   1.233   1.572   0.497 -0.5951 -0.0415 -0.5488
  131TIP3    H1  399   1.322   1.581   0.464 -0.4475 -0.8975 -0.4048
  131TIP3    H2  400   1.238   1.603   0.588 -0.8572  1.6633 -1.0812
  132TIP3   OH2  401   3.757   5.818   3.674  0.0656  0.9495  0.1546
  132TIP3    H1  402   3.838   5.798   3.722  0.8882  0.7868 -1.2675
  132TIP3    H2  403   3.703   5.864   3.738 -0.5968 -2.7482  2.5899
  133TIP3   OH2  404   6.082   2.770   3.528 -0.3288 -0.5176 -0.6497
  133TIP3    H1  405   6.120   2.757   3.442  1.7631 -0.6181  0.2277
  133TIP3    H2  406   6.141   2.723   3.588  1.5435  3.9145  1.4677
  134TIP3   OH2  407   4.240   3.819   1.837 -0.1113 -0.1723  0.9723
  134TIP3    H1  408   4.190   3.877   1.780 -2.4539 -0.7317  2.3537
  134TIP3    H2  409   4.264   3.746   1.780  1.7582  1.4150 -0.4488
  135TIP3   OH2  410   0.672   0.498   0.624  0.1310 -0.0899  0.4135
  135TIP3    H1  411   0.694   0.527   0.712 -0.2969  2.3194 -0.1928
  135TIP3    H2  412   0.756   0.497   0.578  0.0949  0.8374  0.3010
  136TIP3   OH2  413   5.752   4.089   4.960 -0.0201  0.5870  0.1836
  136TIP3    H1  414   5.732   4.009   4.912  1.5074  0.2852 -0.0062
  136TIP3    H2  415   5.722   4.073   5.049  0.3515 -0.2411  0.1653
  137TIP3   OH2  416   2.350   5.291   1.638  0.2710  0.2783  0.2973
  137TIP3    H1  417   2.274   5.232   1.645  0.9795 -0.9945 -1.9454
  137TIP3    H2  418   2.324   5.368   1.688 -2.1993 -0.4141  0.2332
  138TIP3   OH2  419   0.607   1.466   2.837  0.1631 -0.5079  0.6969
  138TIP3    H1  420   0.638   1.417   2.913 -0.8853 -1.3190  0.6252
  138TIP3    H2  421   0.615   1.558   2.862 -1.4561 -0.7578  2.3459
  139TIP3   OH2  422   4.109   2.696   4.333 -0.3923 -0.2980 -0.0367
  139TIP3    H1  423   4.150   2.780   4.311  0.4794 -0.4915  0.8248
  139TIP3    H2  424   4.110   2.647   4.251  2.2219 -0.7694  0.2091
  140TIP3   OH2  425   1.168   0.609   1.172 -0.6241  0.5250 -0.1206
  140TIP3    H1  426   1.119   0.528   1.187  0.4958  0.0173  0.9826
  140TIP3    H2  427   1.116   0.658   1.109 -2.2813 -0.2177  0.6268
  141TIP3   OH2  428   0.586   5.271   4.744 -0.0883 -0.2608  0.7399
  141TIP3    H1  429   0.567   5.196   4.688 -1.8961 -0.9457  2.1577
  141TIP3    H2  430   0.682   5.273   4.750  0.1179 -0.6432 -1.6448
  142TIP3   OH2  431   5.767   0.165   0.507  0.4092 -0.4145  0.3777
  142TIP3    H1  432   5.697   0.139   0.567  0.8908 -2.4414  0.1334
  142TIP3    H2  433   5.811   0.083   0.485  2.8942  0.7791  0.5344
  143TIP3   OH2  434   6.299   0.802   2.424  0.0304  1.1099 -0.2059
  143TIP3    H1  435   6.366   0.819   2.489  1.3559 -2.0988 -0.5760
  143TIP3    H2  436   6.347   0.785   2.343 -1.2145 -0.4797 -0.6687
  144TIP3   OH2  437   5.408   0.379   2.574  0.0258  0.1798 -0.1374
  144TIP3    H1  438   5.367   0.439   2.637  0.8173 -0.3469  0.9254
  144TIP3    H2  439   5.412   0.295   2.620  0.6366 -0.2212 -0.8887
  145TIP3   OH2  440   1.429   0.846   3.014 -0.2795  0.5964 -0.0033
  145TIP3    H1  441   1.509   0.817   3.057 -0.2005 -0.2304 -0.6783
  145TIP3    H2  442   1.363   0.845   3.083  0.1456  0.6517  0.4088
  146TIP3   OH2  443   3.376   5.348   4.908  0.5907 -0.2369 -0.2346
  146TIP3    H1  444   3.326   5.266   4.911  0.3141 -0.0507  0.8043
  146TIP3    H2  445   3.379   5.371   4.816  1.1491 -1.7077 -0.6095
  147TIP3   OH2  446   3.709   0.634   1.252 -0.0759 -0.0146  0.4537
  147TIP3    H1  447   3.653   0.605   1.180  0.3182 -0.7495  0.4334
  147TIP3    H2  448   3.773   0.692   1.212 -0.5088  0.4306  0.3956
  148TIP3   OH2  449   2.123   1.843   5.194  0.4616  0.3290  0.0991
  148TIP3    H1  450   2.092   1.885   5.114  0.6435 -0.7785 -0.5774
  148TIP3    H2  451   2.119   1.749   5.175 -0.0170  0.0285  1.5972
  149TIP3   OH2  452   1.585   4.902   0.254 -0.2937  0.1100 -0.0668
  149TIP3    H1  453   1.582   4.825   0.312  1.2464  1.4534  1.9265
  149TIP3    H2  454   1.499   4.943   0.265 -0.0565  0.3099  1.3049
  150TIP3   OH2  455   2.190   3.601   1.054 -0.9049 -1.0310  0.5261
  150TIP3    H1  456   2.182   3.517   1.009 -0.4787 -0.8635  0.1288
  150TIP3    H2  457   2.245   3.654   0.996  1.3989 -1.4766  2.1377
  151TIP3   OH2  458   3.376   4.208   0.410 -0.2907 -0.6489 -0.5581
  151TIP3    H1  459   3.306   4.199   0.475 -0.4303 -0.3095 -0.6642
  151TIP3    H2  460   3.372   4.127   0.360  0.0788 -1.0991  0.1160
  152TIP3   OH2  461   0.177   5.360   2.875 -0.6651  0.2021  0.3322
  152TIP3    H1  462   0.176   5.417   2.799 -2.0540  1.3252  1.1488
  152TIP3    H2  463   0.266   5.324   2.877 -0.6495 -0.0204 -1.8979
  153TIP3   OH2  464   0.278   4.251   2.417  0.1214  0.0333  0.2577
  153TIP3    H1  465   0.187   4.279   2.420  0.6264  1.8146  0.2199
  153TIP3    H2  466   0.322   4.318   2.364  1.4104 -0.9208  0.0729
  154TIP3   OH2  467   3.105   0.042   1.307  0.1897  0.8280  0.1536
  154TIP3    H1  468   3.108   0.030   1.402 -0.1552 -0.6056  0.0033
  154TIP3    H2  469   3.012   0.039   1.285  0.2647  1.2307 -0.2217
  155TIP3   OH2  470   0.492   3.475   2.590  0.0690 -0.0415  0.5648
  155TIP3    H1  471   0.403   3.488   2.622 -0.3164  1.6598 -1.0143
  155TIP3    H2  472   0.530   3.411   2.649 -2.6801 -1.9805  0.4019
  156TIP3   OH2  473   4.007   3.296   5.169  0.0695  0.2999  0.3284
  156TIP3    H1  474   4.080   3.238   5.191  0.6575  0.6510 -0.6633
  156TIP3    H2  475   4.048   3.372   5.129 -0.8574  0.4240 -0.4119
  157TIP3   OH2  476   5.618   0.409   1.601 -0.4313 -0.4234 -0.0769
  157TIP3    H1  477   5.600   0.354   1.526 -0.3901 -0.4060 -0.0996
  157TIP3    H2  478   5.678   0.357   1.655  0.7317  0.1414 -0.7700
  158TIP3   OH2  479   1.555   2.976   3.649 -0.4531  0.3989 -0.1872
  158TIP3    H1  480   1.531   3.009   3.736 -2.6385  1.6378 -1.1772
  158TIP3    H2  481   1.478   2.927   3.620  0.5604 -0.6921 -1.1031
  159TIP3   OH2  482   0.752   5.658   0.331  0.0654 -0.1188 -0.3279
  159TIP3    H1  483   0.811   5.734   0.338 -0.4474  0.1925  0.8122
  159TIP3    H2  484   0.667   5.691   0.360 -0.4162 -0.8581 -0.8786
  160TIP3   OH2  485   5.315   1.932   3.491  0.3613  0.0736  0.3858
  160TIP3    H1  486   5.372   1.976   3.428 -0.8540  1.7891  0.4326
  160TIP3    H2  487   5.269   2.003   3.536  0.4912 -1.1456  2.5621
  161TIP3   OH2  488   1.968   5.723   2.405 -0.1651  0.1936  0.1203
  161TIP3    H1  489   1.991   5.686   2.490 -0.0876 -0.2956 -0.1082
  161TIP3    H2  490   2.046   5.771   2.378  0.1521 -0.4298 -0.0926
  162TIP3   OH2  491   0.650   1.936   3.698 -0.3776 -0.1392  0.3809
  162TIP3    H1  492   0.626   1.887   3.776 -1.1738 -0.6803 -0.1884
  162TIP3    H2  493   0.619   1.882   3.625  0.9562  0.0219 -0.3378
  163TIP3   OH2  494   3.231   4.593   5.032 -0.1778 -0.3153 -0.2246
  163TIP3    H1  495   3.280   4.531   4.977  0.6737  0.4003 -0.2834
  163TIP3    H2  496   3.228   4.551   5.118  2.9471  0.8034  0.5390
  164TIP3   OH2  497   4.498   5.140   4.591 -0.1043 -0.4886 -0.1089
  164TIP3    H1  498   4.500   5.230   4.559 -0.7545 -0.9174 -1.4304
  164TIP3    H2  499   4.589   5.112   4.593  0.0276 -0.0943 -0.5927
  165TIP3   OH2  500   1.042   4.030   4.735 -0.2337  0.5485  0.2861
  165TIP3    H1  501   1.059   3.937   4.752  0.3887  0.5611 -0.2577
  165TIP3    H2  502   0.967   4.051   4.791 -2.8573 -1.2327 -2.3097
  166TIP3   OH2  503   3.041   2.006   0.944  0.5113 -0.1030  0.3275
  166TIP3    H1  504   2.965   1.987   0.890 -2.5423  2.9502  3.0287
  166TIP3    H2  505   3.059   1.924   0.990  0.4811 -1.5305 -2.0414
  167TIP3   OH2  506   5.594   5.955   2.604  0.2146 -0.0117  0.0563
  167TIP3    H1  507   5.538   6.028   2.631  0.1612 -0.3658  0.9359
  167TIP3    H2  508   5.532   5.883   2.587  0.3091 -0.0273 -0.2164
  168TIP3   OH2  509   0.535   3.756   1.516  0.1586  0.3875 -0.3390
  168TIP3    H1  510   0.452   3.804   1.520 -0.9570 -1.3953 -0.9431
  168TIP3    H2  511   0.560   3.745   1.608 -1.6838 -1.2956  0.0360
  169TIP3   OH2  512   6.194   1.087   3.094 -0.0130  0.4171 -0.3662
  169TIP3    H1  513   6.106   1.055   3.115 -0.2072  0.2205 -1.4285
  169TIP3    H2  514   6.215   1.147   3.166 -0.9100  0.2746  0.0339
  170TIP3   OH2  515   0.445   0.909   2.699  0.2370 -0.6916 -0.0185
  170TIP3    H1  516   0.440   0.938   2.608 -0.3015  0.6124  0.4076
  170TIP3    H2  517   0.381   0.963   2.745  1.5294 -0.2854  1.3912
  171TIP3   OH2  518   3.509   4.961   0.212 -0.6732  0.5293 -0.3015
  171TIP3    H1  519   3.489   4.883   0.161 -1.3359  0.9964 -0.7748
  171TIP3    H2  520   3.604   4.973   0.201 -0.6143 -0.0524 -0.4369
  172TIP3   OH2  521   3.033   4.256   2.778 -0.4742 -0.0185 -0.6758
  172TIP3    H1  522   2.980   4.200   2.835 -0.7125  0.0655 -0.8163
  172TIP3    H2  523   3.086   4.308   2.839 -0.4452 -0.2051 -0.5390
  173TIP3   OH2  524   5.037   5.878   1.196  0.0957  0.1324 -0.1297
  173TIP3    H1  525   5.055   5.933   1.272  0.7399  0.5830 -0.5919
  173TIP3    H2  526   4.954   5.911   1.161 -1.3378 -1.4657  1.5846
  174TIP3   OH2  527   3.721   1.746   1.063  0.1240 -0.1557 -0.2895
  174TIP3    H1  528   3.795   1.709   1.014  0.8388  0.4244  0.3297
  174TIP3    H2  529   3.761   1.809   1.123 -0.9725  0.8774 -0.6088
  175TIP3   OH2  530   3.552   3.128   4.115 -0.1552 -0.0926  0.0188
  175TIP3    H1  531   3.505   3.060   4.164 -0.6351  1.9518  2.5755
  175TIP3    H2  532   3.626   3.082   4.076 -2.2095 -2.7028 -1.1364
  176TIP3   OH2  533   5.692   0.443   1.936 -0.3034  0.0721 -0.0689
  176TIP3    H1  534   5.610   0.486   1.909  0.7549  2.0301 -0.3569
  176TIP3    H2  535   5.689   0.444   2.031 -0.9355 -0.5598 -0.0725
  177TIP3   OH2  536   2.858   1.916   5.185 -0.4008  0.0829 -0.6058
  177TIP3    H1  537   2.891   1.863   5.112  1.8149  1.2286 -0.5063
  177TIP3    H2  538   2.858   1.856   5.260 -1.0955 -0.6400 -1.1645
  178TIP3   OH2  539   3.583   0.062   1.684  0.4373 -0.1422  0.3157
  178TIP3    H1  540   3.506   0.084   1.630  0.6197 -0.9429 -0.2932
  178TIP3    H2  541   3.655   0.109   1.642  0.7393 -1.4497 -0.6962
  179TIP3   OH2  542   2.844   3.264   0.509  0.2224  0.1441 -1.1467
  179TIP3    H1  543   2.801   3.301   0.586  0.9645 -1.9644  0.4006
  179TIP3    H2  544   2.927   3.229   0.542  0.7200 -0.5399 -2.9669
  180TIP3   OH2  545   3.833   5.315   0.831 -0.4792 -0.5714  0.6518
  180TIP3    H1  546   3.827   5.226   0.797 -0.8239  0.0668 -1.0643
  180TIP3    H2  547   3.863   5.368   0.757 -0.6072  0.8070  1.5286
  181TIP3   OH2  548   1.349   4.443   1.379  0.5887  0.4785  0.0164
  181TIP3    H1  549   1.350   4.425   1.285  0.0738 -0.5969  0.2047
  181TIP3    H2  550   1.365   4.358   1.420  0.6061  0.8971  0.9087
  182TIP3   OH2  551   3.624   1.873   5.139  0.3771  0.2952 -0.0820
  182TIP3    H1  552   3.555   1.914   5.192  1.9062 -1.7564  3.9265
  182TIP3    H2  553   3.577   1.814   5.080 -1.4105  0.9962  0.5705
  183TIP3   OH2  554   1.912   4.005   3.392  0.5142 -0.3301 -0.1695
  183TIP3    H1  555   1.998   3.968   3.413  0.1293 -1.2974 -0.2423
  183TIP3    H2  556   1.874   4.025   3.478  1.1821  1.0259 -0.1595
  184TIP3   OH2  557   5.284   5.775   1.050 -0.3165 -0.7419  0.6597
  184TIP3    H1  558   5.206   5.797   1.101 -0.6455  2.5557 -0.9787
  184TIP3    H2  559   5.348   5.842   1.076  0.0245  0.0717 -1.9961
  185TIP3   OH2  560   0.391   0.616   2.174 -0.2939 -0.2835 -0.2715
  185TIP3    H1  561   0.348   0.553   2.232 -1.3068  0.5372 -0.0910
  185TIP3    H2  562   0.332   0.692   2.173  2.1139  1.7626  1.5913
  186TIP3   OH2  563   3.784   0.722   3.882 -0.5377  0.4891  0.4096
  186TIP3    H1  564   3.750   0.689   3.965  1.1256  2.5149  2.0137
  186TIP3    H2  565   3.725   0.793   3.859 -0.1892  0.8711  0.6647
  187TIP3   OH2  566   0.806   2.927   1.976  0.2513  0.1522  0.2411
  187TIP3    H1  567   0.841   2.919   2.065 -1.5938  0.9807  1.0957
  187TIP3    H2  568   0.762   2.844   1.960 -2.1202  1.0646  1.4242
  188TIP3   OH2  569   0.941   2.816   0.611  0.4517 -0.6015 -0.1274
  188TIP3    H1  570   1.027   2.838   0.645 -0.5466 -0.6164  2.6052
  188TIP3    H2  571   0.889   2.896   0.621 -0.5070 -1.2893  0.5603
  189TIP3   OH2  572   5.758   5.056   0.673  0.2396  0.2849  0.1167
  189TIP3    H1  573   5.728   5.105   0.750 -2.1928 -2.7892  1.3081
  189TIP3    H2  574   5.840   5.016   0.701  0.7192  1.2585  0.1516
  190TIP3   OH2  575   5.225   3.693   4.282 -0.1898  0.8393  0.3201
  190TIP3    H1  576   5.207   3.747   4.205  0.4644  0.9197  0.2180
  190TIP3    H2  577   5.320   3.690   4.287 -0.2102 -0.6317  0.0960
  191TIP3   OH2  578   3.289   2.588   4.996 -0.2434  0.5118 -0.1743
  191TIP3    H1  579   3.355   2.653   4.971 -0.4635  0.5913 -0.5538
  191TIP3    H2  580   3.226   2.638   5.049 -0.7392  0.7528 -0.9761
  192TIP3   OH2  581   2.285   3.252   2.434 -0.4905  0.6474  0.1966
  192TIP3    H1  582   2.374   3.229   2.408  0.5218  3.2684  0.9893
  192TIP3    H2  583   2.245   3.287   2.355 -1.4992 -2.0687 -0.6050
  193TIP3   OH2  584   5.464   0.810   2.265 -0.2491  0.4576  0.2881
  193TIP3    H1  585   5.533   0.764   2.312 -0.4378  0.1024  0.2200
  193TIP3    H2  586   5.501   0.896   2.246  1.0724 -0.4989 -1.7770
  194TIP3   OH2  587   4.343   3.384   3.914 -0.2333  0.1358  0.4864
  194TIP3    H1  588   4.285   3.316   3.878  2.0914 -2.5018  1.3468
  194TIP3    H2  589   4.318   3.390   4.007  1.0109 -1.2731  0.9457
  195TIP3   OH2  590   1.836   3.772   5.081  0.5882  0.0888 -0.7238
  195TIP3    H1  591   1.828   3.697   5.140  2.1631  0.1850 -0.3409
  195TIP3    H2  592   1.786   3.747   5.003  0.4377 -1.0262 -0.2844
  196TIP3   OH2  593   1.170   5.175   3.622 -0.0514  0.2750 -0.9300
  196TIP3    H1  594   1.137   5.260   3.651 -0.2859  0.1952 -0.9660
  196TIP3    H2  595   1.243   5.156   3.682  0.1562  0.6117 -1.0708
  197TIP3   OH2  596   3.334   2.362   5.155  0.5259 -0.1415 -0.2612
  197TIP3    H1  597   3.307   2.415   5.080 -0.2263 -1.3397 -0.8673
  197TIP3    H2  598   3.399   2.416   5.200  0.5268  0.8676 -1.4128
  198TIP3   OH2  599   4.992   4.465   3.524  0.2964  0.3386 -0.3327
  198TIP3    H1  600   4.921   4.529   3.524 -0.8392 -0.8573  0.2670
  198TIP3    H2  601   4.997   4.435   3.615 -0.0415 -1.2679 -0.8082
  199TIP3   OH2  602   0.188   0.225   1.460  0.4436  0.6260  0.3003
  199TIP3    H1  603   0.126   0.246   1.530 -1.2581  0.7682 -1.1631
  199TIP3    H2  604   0.136   0.232   1.380  2.4930  1.2094 -1.0513
  200TIP3   OH2  605   5.465   1.722   2.392 -0.4447 -0.4990 -0.3229
  200TIP3    H1  606   5.430   1.643   2.434 -1.2584  0.6335  1.2285
  200TIP3    H2  607   5.437   1.714   2.301 -1.1302 -1.6637 -0.0426
  201TIP3   OH2  608   5.367   4.724   4.420  0.1529  0.5031  0.4114
  201TIP3    H1  609   5.448   4.773   4.404 -0.3311  1.0843 -0.3417
  201TIP3    H2  610   5.387   4.635   4.392  0.6467  0.5521  0.5844
  202TIP3   OH2  611   5.757   0.807   0.834 -0.1073 -0.0685  0.5783
  202TIP3    H1  612   5.833   0.753   0.811 -0.6808 -0.6421 -0.0041
  202TIP3    H2  613   5.794   0.893   0.854  0.7987 -0.5961  1.2675
  203TIP3   OH2  614   3.031   2.463   3.591  0.4231 -0.6811  0.1945
  203TIP3    H1  615   3.086   2.500   3.660 -0.7853  1.8444 -0.0939
  203TIP3    H2  616   3.090   2.406   3.541  2.3175  0.5432  0.9375
  204TIP3   OH2  617   5.591   1.766   3.589 -0.1552  0.2053 -0.0096
  204TIP3    H1  618   5.566   1.751   3.498  0.0184  0.1798 -0.0549
  204TIP3    H2  619   5.521   1.820   3.626 -1.0364 -1.1155  0.2914
  205TIP3   OH2  620   6.065   1.086   2.327 -0.5529  0.2488 -0.6337
  205TIP3    H1  621   5.972   1.065   2.332 -0.2691 -0.7469  0.6899
  205TIP3    H2  622   6.110   1.004   2.347  0.5811  1.3322  1.6509
  206TIP3   OH2  623   5.946   5.804   0.623 -0.1059  0.5662 -0.1664
  206TIP3    H1  624   5.912   5.716   0.640  0.1273  0.2140 -1.4113
  206TIP3    H2  625   6.022   5.811   0.680 -0.6828  0.3395  0.6558
  207TIP3   OH2  626   5.129   2.182   2.509  0.5691  0.2085 -0.0552
  207TIP3    H1  627   5.116   2.119   2.579 -0.6848  1.4629  0.9003
  207TIP3    H2  628   5.212   2.225   2.530  0.4345  0.2491  0.4087
  208TIP3   OH2  629   5.194   4.402   4.095 -0.7358  0.1045  0.1381
  208TIP3    H1  630   5.286   4.395   4.069 -1.1168  1.0855 -1.6871
  208TIP3    H2  631   5.164   4.311   4.102  0.4494 -0.2390  1.1898
  209TIP3   OH2  632   6.232   2.669   0.976 -0.3497 -0.2008  0.1186
  209TIP3    H1  633   6.227   2.631   0.888 -0.7174 -0.3109  0.1874
  209TIP3    H2  634   6.178   2.612   1.030  0.6434 -0.6882  0.6188
  210TIP3   OH2  635   1.681   4.748   1.718  0.2787 -0.0285 -0.0565
  210TIP3    H1  636   1.623   4.812   1.679 -1.4138 -1.3076  0.2551
  210TIP3    H2  637   1.700   4.685   1.648 -2.6410 -2.2413  0.9236
  211TIP3   OH2  638   6.051   0.946   1.980 -0.4900  1.0759 -0.0663
  211TIP3    H1  639   6.019   1.037   1.987  0.0243  1.1420  2.7202
  211TIP3    H2  640   6.147   0.955   1.980 -0.4414  0.5424  0.1566
  212TIP3   OH2  641   1.249   4.241   3.321  0.2837 -0.6379  0.7978
  212TIP3    H1  642   1.218   4.163   3.367 -0.7673 -0.9642 -0.4005
  212TIP3    H2  643   1.241   4.219   3.228 -1.5712  1.4083  0.3860
  213TIP3   OH2  644   0.429   3.611   4.909  0.0573 -0.6784  0.1875
  213TIP3    H1  645   0.472   3.675   4.852  0.9167 -0.4991  1.0113
  213TIP3    H2  646   0.362   3.571   4.854  1.3271 -1.0222 -1.1680
  214TIP3   OH2  647   5.327   2.215   1.149  0.0609 -0.0359 -0.7002
  214TIP3    H1  648   5.408   2.240   1.105 -0.4214 -1.3002 -2.3916
  214TIP3    H2  649   5.355   2.155   1.218  0.6554  0.4873 -0.4720
  215TIP3   OH2  650   5.894   3.888   3.209  0.1606 -0.4865 -0.3969
  215TIP3    H1  651   5.901   3.814   3.269  0.5975 -0.8055 -0.8333
  215TIP3    H2  652   5.888   3.848   3.122 -3.2617 -0.1752 -0.4556
  216TIP3   OH2  653   4.205   4.913   1.747 -0.5755 -0.3750 -0.8264
  216TIP3    H1  654   4.264   4.895   1.674 -0.6313 -1.7554 -0.5519
  216TIP3    H2  655   4.218   4.840   1.807  0.1348  1.1866  1.0005
  217TIP3   OH2  656   6.233   4.451   5.097 -0.1406 -0.2784  0.4041
  217TIP3    H1  657   6.298   4.508   5.055 -0.0355 -0.6138  0.1094
  217TIP3    H2  658   6.180   4.511   5.150  0.2676  0.0293  0.4740
  218TIP3   OH2  659   4.850   4.837   1.098  0.3078  0.7351  0.6012
  218TIP3    H1  660   4.944   4.826   1.114  0.1373  0.2250  1.3353
  218TIP3    H2  661   4.834   4.785   1.019  0.7632  1.4025  0.0611
  219TIP3   OH2  662   0.710   2.465   0.321  0.3495  0.2195 -0.5198
  219TIP3    H1  663   0.802   2.460   0.292  0.2551 -0.3397 -0.7357
  219TIP3    H2  664   0.660   2.457   0.240  0.1093  2.1801 -0.6206
  220TIP3   OH2  665   5.939   3.346   1.861  0.0153  0.2821  0.4754
  220TIP3    H1  666   5.850   3.328   1.832  0.0406 -1.1768  1.2137
  220TIP3    H2  667   5.970   3.416   1.803 -1.8781  1.3927  0.7515
  221TIP3   OH2  668   1.799   5.136   0.754 -0.4680  0.3411  0.4283
  221TIP3    H1  669   1.826   5.109   0.666 -0.8495 -0.0307  0.4222
  221TIP3    H2  670   1.796   5.232   0.751  0.1253  0.3568  0.2185
  222TIP3   OH2  671   1.216   4.943   1.150 -0.0511 -0.4169  0.1151
  222TIP3    H1  672   1.236   4.930   1.058 -0.2056 -3.0229  0.3802
  222TIP3    H2  673   1.268   4.877   1.196 -1.7302 -0.7283  1.6809
  223TIP3   OH2  674   5.176   5.946   2.266 -1.0200 -0.6854  0.2704
  223TIP3    H1  675   5.226   5.866   2.277 -1.1037 -0.7423  0.2358
  223TIP3    H2  676   5.179   5.964   2.172 -0.1675 -0.1096  0.4024
  224TIP3   OH2  677   0.947   0.439   4.097 -0.3308 -0.0066  0.4952
  224TIP3    H1  678   0.859   0.403   4.082 -0.5308  0.1379  1.2387
  224TIP3    H2  679   1.007   0.372   4.064 -0.7174  0.2707 -0.8358
  225TIP3   OH2  680   3.070   0.032   1.591 -0.3251 -0.4587 -0.0594
  225TIP3    H1  681   3.004   0.098   1.570  0.7510  0.7488  0.2290
  225TIP3    H2  682   3.037  -0.010   1.670 -0.7384  0.1459  0.0960
  226TIP3   OH2  683   6.216   5.529   1.484 -0.1044 -0.1274 -0.2535
  226TIP3    H1  684   6.199   5.617   1.448  3.4834  1.3327  1.1710
  226TIP3    H2  685   6.232   5.544   1.577  1.6256 -2.1132 -0.1568
  227TIP3   OH2  686   5.860   4.614   2.592  0.2632 -0.5942 -0.3058
  227TIP3    H1  687   5.772   4.635   2.559  0.3103  0.2744  0.0919
  227TIP3    H2  688   5.909   4.697   2.583  0.9668 -0.9991 -0.2790
  228TIP3   OH2  689   0.421   0.194   3.182 -0.0953  0.2206  0.5386
  228TIP3    H1  690   0.371   0.223   3.106 -0.7753 -0.9606  0.5148
  228TIP3    H2  691   0.432   0.100   3.170  1.4941  0.3343  0.9358
  229TIP3   OH2  692   0.901   1.658   0.653 -0.1952  0.1675 -0.2359
  229TIP3    H1  693   0.860   1.645   0.568 -1.7773  1.8244  0.2083
  229TIP3    H2  694   0.956   1.735   0.642  1.2375 -0.8116 -0.2555
  230TIP3   OH2  695   1.986   3.090   2.010  0.0608 -0.6761 -0.2783
  230TIP3    H1  696   2.062   3.033   2.018  0.2594 -0.4296 -0.4036
  230TIP3    H2  697   1.927   3.043   1.952  0.7921 -0.1633 -1.4733
  231TIP3   OH2  698   0.360   4.220   0.310 -0.0300  0.0797  0.0242
  231TIP3    H1  699   0.427   4.156   0.334 -0.1054  0.1859  0.5290
  231TIP3    H2  700   0.407   4.286   0.259  0.0622 -0.3363 -0.4410
  232TIP3   OH2  701   4.722   5.022   0.579  0.0816 -0.1395  0.6450
  232TIP3    H1  702   4.817   5.024   0.568  0.0648 -1.4614  0.1285
  232TIP3    H2  703   4.687   5.060   0.498  0.1356 -2.6280 -0.6392
  233TIP3   OH2  704   1.771   2.788   3.679  0.1384  0.5647  0.1214
  233TIP3    H1  705   1.828   2.852   3.722  1.3005 -0.5303  0.2626
  233TIP3    H2  706   1.693   2.838   3.654  0.2344  1.6476  1.8243
  234TIP3   OH2  707   1.859   0.531   2.400  0.0859 -0.1530 -0.4146
  234TIP3    H1  708   1.918   0.457   2.384 -0.2132 -0.3149 -0.7883
  234TIP3    H2  709   1.771   0.494   2.394 -0.1871 -0.8417  4.3494
  235TIP3   OH2  710   2.031   4.953   1.824  0.3000 -0.1141 -0.1436
  235TIP3    H1  711   1.989   4.893   1.885  0.7180  0.7893  1.0674
  235TIP3    H2  712   1.973   4.953   1.747 -0.2462 -1.2443  0.2530
  236TIP3   OH2  713   4.650   1.991   1.227 -0.4171  0.2659  0.1030
  236TIP3    H1  714   4.621   1.913   1.275 -1.3621 -0.7830 -2.0415
  236TIP3    H2  715   4.741   1.973   1.206 -0.3848  0.1373  0.3371
  237TIP3   OH2  716   5.793   2.542   4.289  0.2706 -0.0785  0.1138
  237TIP3    H1  717   5.724   2.560   4.225 -0.0930 -0.4018  0.4066
  237TIP3    H2  718   5.848   2.620   4.287  1.6700 -1.0271 -2.3404
  238TIP3   OH2  719   1.818   5.250   3.522  0.1044  0.7389  0.3423
  238TIP3    H1  720   1.837   5.166   3.481  1.8943  0.8278  0.9079
  238TIP3    H2  721   1.891   5.307   3.495 -1.3474  2.3054 -0.4963
  239TIP3   OH2  722   5.605   5.245   2.998  0.0136 -0.3065 -0.0369
  239TIP3    H1  723   5.624   5.248   2.904  1.1879  1.4721  0.2052
  239TIP3    H2  724   5.679   5.291   3.039 -0.9974 -0.1094  1.6593
  240TIP3   OH2  725   0.120   5.342   3.198  0.1972  0.1830 -0.4660
  240TIP3    H1  726   0.094   5.304   3.114  1.4585  2.4432 -1.9541
  240TIP3    H2  727   0.060   5.415   3.212  0.5942  0.4061  0.1387
  241TIP3   OH2  728   1.013   3.065   2.521  0.1385 -0.3825 -0.0932
  241TIP3    H1  729   0.999   2.970   2.514 -0.9105 -0.2653  0.3182
  241TIP3    H2  730   1.018   3.081   2.615  0.6809 -0.0709 -0.1715
  242TIP3   OH2  731   5.126   1.683   0.771 -0.0888 -0.2821 -0.0036
  242TIP3    H1  732   5.197   1.619   0.777  0.1411  0.0108  0.3844
  242TIP3    H2  733   5.122   1.705   0.677  0.6485  0.0547  0.0360
  243TIP3   OH2  734   0.153   4.198   2.937 -0.4411 -0.2534  0.7096
  243TIP3    H1  735   0.139   4.208   2.843  0.8066  0.9686  0.6066
  243TIP3    H2  736   0.146   4.287   2.972 -0.4152 -0.6265  1.7007
  244TIP3   OH2  737   3.014   3.580   3.769  0.0221 -0.1798  0.0196
  244TIP3    H1  738   3.088   3.624   3.810 -1.4575  0.5198  2.1098
  244TIP3    H2  739   2.990   3.511   3.830 -0.6417 -0.8428 -0.9544
  245TIP3   OH2  740   3.955   3.774   2.983 -0.2470 -0.6110  0.6203
  245TIP3    H1  741   3.870   3.790   3.023  0.0078 -0.8758  1.2816
  245TIP3    H2  742   3.957   3.832   2.907 -1.1373 -0.8332  0.4255
  246TIP3   OH2  743   3.957   1.424   2.780 -0.3369  0.5719 -0.1031
  246TIP3    H1  744   3.950   1.404   2.687 -0.3934 -0.6813  0.1535
  246TIP3    H2  745   3.914   1.351   2.824 -1.6007  1.8348  0.8787
  247TIP3   OH2  746   4.516   3.172   0.139 -0.2954  0.1176  0.3236
  247TIP3    H1  747   4.486   3.164   0.048  0.0025 -0.1757  0.2481
  247TIP3    H2  748   4.485   3.258   0.167  0.3727  0.5964 -0.3530
  248TIP3   OH2  749   6.323   3.359   2.197  0.4673 -0.0655  0.2882
  248TIP3    H1  750   6.323   3.426   2.129 -0.4732 -0.6246 -0.2834
  248TIP3    H2  751   6.237   3.317   2.190  0.4958 -0.3779  1.5838
  249TIP3   OH2  752   2.387   3.076   2.169  0.4866 -0.2152  0.3858
  249TIP3    H1  753   2.367   3.022   2.093 -0.7685 -1.8153  1.7487
  249TIP3    H2  754   2.312   3.135   2.178  2.5814  3.1736 -2.0773
  250TIP3   OH2  755   5.962   4.443   4.675 -0.0495  0.4168  0.2752
  250TIP3    H1  756   6.037   4.410   4.627 -0.9480 -0.9230 -0.2663
  250TIP3    H2  757   5.962   4.394   4.757  1.1329  2.2718  1.4594
  251TIP3   OH2  758   6.177   2.104   2.402 -0.0317  0.2408  0.0579
  251TIP3    H1  759   6.147   2.075   2.488  0.4570  2.2477  0.9584
  251TIP3    H2  760   6.152   2.033   2.343  1.4064 -2.1696  2.1225
  252TIP3   OH2  761   4.584   0.605   0.452 -0.1867  0.0639  0.5868
  252TIP3    H1  762   4.532   0.684   0.440 -0.6542 -0.3028  0.1650
  252TIP3    H2  763   4.624   0.589   0.366 -0.5692 -0.4831  0.5046
  253TIP3   OH2  764   1.721   2.438   0.893 -0.2875  0.4137 -0.6114
  253TIP3    H1  765   1.707   2.483   0.977 -2.4028 -0.2431 -0.5590
  253TIP3    H2  766   1.766   2.503   0.838  0.0145  1.2863  0.6189
  254TIP3   OH2  767   4.875   0.852   5.099  0.1150 -0.1194 -0.4881
  254TIP3    H1  768   4.890   0.782   5.035 -1.0193  1.9292 -3.2055
  254TIP3    H2  769   4.782   0.873   5.090  0.4355  1.7915  0.1488
  255TIP3   OH2  770   3.974   4.563   0.328  0.3978 -0.3011  0.2792
  255TIP3    H1  771   4.051   4.514   0.298  1.0317  0.6670  0.2663
  255TIP3    H2  772   4.008   4.618   0.398 -0.6829 -1.2092  1.5676
  256TIP3   OH2  773   2.955   1.477   4.923  0.1213  0.1224 -0.1838
  256TIP3    H1  774   2.969   1.413   4.993 -0.4799 -1.1220 -1.1570
  256TIP3    H2  775   3.035   1.472   4.870  0.3822  0.7335  0.1335
  257TIP3   OH2  776   1.880   1.268   0.748 -0.3116 -0.4328  0.1252
  257TIP3    H1  777   1.976   1.271   0.751 -0.3165  2.4648  0.6138
  257TIP3    H2  778   1.857   1.304   0.663 -0.9313  1.3924  1.0152
  258TIP3   OH2  779   0.949   4.099   4.361 -0.1314  0.7458  0.3410
  258TIP3    H1  780   0.895   4.176   4.375 -1.9045  0.0830 -2.2542
  258TIP3    H2  781   0.996   4.117   4.280  0.1402 -0.5356  0.1988
  259TIP3   OH2  782   0.262   5.177   1.122 -0.6890  0.1270  0.0410
  259TIP3    H1  783   0.167   5.188   1.111 -0.7431 -0.1033  0.2764
  259TIP3    H2  784   0.272   5.088   1.153 -0.3843  0.1218 -0.0758
  260TIP3   OH2  785   2.798   0.414   1.529 -0.2600  0.1449 -0.1155
  260TIP3    H1  786   2.852   0.334   1.526  0.4463  0.5859  0.4431
  260TIP3    H2  787   2.860   0.485   1.520 -0.9956  0.6362 -1.6042
  261TIP3   OH2  788   6.248   3.012   4.709 -0.0907 -0.3341  0.1513
  261TIP3    H1  789   6.182   3.027   4.777  1.2272  1.6664  1.0808
  261TIP3    H2  790   6.231   3.081   4.644  0.8366 -0.0332  0.2209
  262TIP3   OH2  791   2.112   5.852   0.619 -0.4118  0.3450 -0.1408
  262TIP3    H1  792   2.176   5.829   0.551  0.6650  0.3485  0.8577
  262TIP3    H2  793   2.138   5.939   0.648 -1.5982  0.8609 -0.5295
  263TIP3   OH2  794   1.529   5.959   1.116  0.3148  0.1493 -0.4967
  263TIP3    H1  795   1.587   5.896   1.159 -1.3344 -0.3012  1.2182
  263TIP3    H2  796   1.560   6.044   1.146  0.2576 -0.0734  0.2252
  264TIP3   OH2  797   1.730   5.141   4.153  0.2551  0.1470 -0.6327
  264TIP3    H1  798   1.770   5.205   4.094  1.6423  0.0708  0.1576
  264TIP3    H2  799   1.788   5.140   4.230 -1.0594 -0.3220  0.3950
  265TIP3   OH2  800   3.553   0.746   4.293  0.0414 -0.1491 -0.0412
  265TIP3    H1  801   3.611   0.823   4.298 -0.2115  0.0064  0.6554
  265TIP3    H2  802   3.467   0.783   4.271  0.2678 -0.4134 -1.4139
  266TIP3   OH2  803   2.883   5.868   3.008  1.1719 -0.0404 -0.4510
  266TIP3    H1  804   2.862   5.782   3.044 -0.0061  0.1093 -0.7652
  266TIP3    H2  805   2.912   5.919   3.084  1.9625 -0.7194 -0.2745
  267TIP3   OH2  806   5.644   3.838   2.629  0.1144  0.2479  0.1469
  267TIP3    H1  807   5.660   3.777   2.557  2.1303  0.2252  0.5504
  267TIP3    H2  808   5.727   3.884   2.640 -1.5470  3.8586 -0.7865
  268TIP3   OH2  809   2.409   1.298   4.465 -0.1833 -0.1960 -0.3835
  268TIP3    H1  810   2.396   1.209   4.497  0.1270  0.1047  0.6058
  268TIP3    H2  811   2.413   1.352   4.544  0.5288  0.5765 -0.9277
  269TIP3   OH2  812   4.440   1.454   1.882  0.4331 -0.3373  0.3436
  269TIP3    H1  813   4.419   1.547   1.876  1.3518 -0.0435  1.5022
  269TIP3    H2  814   4.468   1.430   1.793 -2.4258 -0.2045 -0.6833
  270TIP3   OH2  815   5.896   5.579   4.060  0.4891 -0.2087 -0.7264
  270TIP3    H1  816   5.896   5.640   3.986 -0.6181  2.0218  0.9818
  270TIP3    H2  817   5.806   5.545   4.062  0.1829  0.5894  0.1690
  271TIP3   OH2  818   0.321   3.779   2.644 -0.0384 -0.5595 -0.3125
  271TIP3    H1  819   0.321   3.685   2.661 -1.7198 -0.6575 -0.7354
  271TIP3    H2  820   0.236   3.797   2.604 -0.3540  1.3791  1.0666
  272TIP3   OH2  821   3.569   1.201   1.494 -0.5845  0.1478  0.7390
  272TIP3    H1  822   3.521   1.168   1.418 -0.5474  1.5296  0.0885
  272TIP3    H2  823   3.501   1.225   1.557 -0.6122 -1.1226  1.2321
  273TIP3   OH2  824   3.863   5.410   2.038 -0.2050 -0.2308 -0.3527
  273TIP3    H1  825   3.902   5.497   2.051 -2.2965  0.4732  2.0473
  273TIP3    H2  826   3.812   5.419   1.956  2.2228 -0.3228 -1.9683
  274TIP3   OH2  827   3.624   3.483   1.944 -0.2134  0.1568 -0.3642
  274TIP3    H1  828   3.604   3.574   1.962 -2.1621  0.1887 -2.2912
  274TIP3    H2  829   3.702   3.486   1.888  0.0233  0.6056 -0.0113
  275TIP3   OH2  830   0.056   3.248   4.245 -0.1657  0.4141 -0.4878
  275TIP3    H1  831  -0.031   3.288   4.248  0.6943  2.2936  0.5726
  275TIP3    H2  832   0.116   3.321   4.232  1.5366 -0.4078  2.1408
  276TIP3   OH2  833   5.485   3.928   2.835 -0.0481 -0.3018 -0.5029
  276TIP3    H1  834   5.540   3.876   2.776 -0.8067 -0.5320 -1.0359
  276TIP3    H2  835   5.512   4.018   2.821  2.8323 -0.6253  2.0433
  277TIP3   OH2  836   4.967   0.567   1.412  0.1131 -0.4385 -0.1654
  277TIP3    H1  837   4.894   0.507   1.427 -0.4740  0.1160 -0.7272
  277TIP3    H2  838   4.987   0.604   1.498  1.3236 -2.3520  0.4382
  278TIP3   OH2  839   4.143   5.513   0.781 -0.0187  0.3278 -0.2434
  278TIP3    H1  840   4.064   5.560   0.809  0.6470  0.3728  1.7549
  278TIP3    H2  841   4.191   5.577   0.728 -1.3149  0.2683 -1.5738
  279TIP3   OH2  842   2.988   5.378   2.639 -0.2427  0.0291  0.0979
  279TIP3    H1  843   3.059   5.387   2.703 -1.2507 -0.3204  1.3104
  279TIP3    H2  844   2.962   5.468   2.620  0.9705  0.1971 -0.9170
  280TIP3   OH2  845   2.479   2.296   1.557  0.0164 -0.2859 -0.3681
  280TIP3    H1  846   2.483   2.390   1.538  0.6258 -0.3615 -0.6518
  280TIP3    H2  847   2.464   2.255   1.472  0.6607 -0.4963 -0.3857
  281TIP3   OH2  848   0.280   5.764   3.889  0.2981 -0.1659  0.5255
  281TIP3    H1  849   0.301   5.681   3.846  1.1969  0.2492  0.1488
  281TIP3    H2  850   0.209   5.801   3.836  0.2359 -0.4537  0.4043
  282TIP3   OH2  851   2.015   2.591   0.684  0.3211 -0.6537  0.2543
  282TIP3    H1  852   1.979   2.626   0.766  1.1482  1.0125 -0.0558
  282TIP3    H2  853   2.100   2.555   0.709  1.2398  1.1879 -0.0795
  283TIP3   OH2  854   5.458   5.143   4.962  0.3895  0.1373  0.2056
  283TIP3    H1  855   5.406   5.181   4.891  0.9319 -1.3276 -1.0294
  283TIP3    H2  856   5.393   5.110   5.024 -0.1516 -0.4970 -0.6800
  284TIP3   OH2  857   3.897   4.904   4.458 -0.1284  0.2549  0.2094
  284TIP3    H1  858   3.942   4.820   4.461 -0.1192  0.2775  0.7401
  284TIP3    H2  859   3.804   4.881   4.446  0.1569  0.2360 -2.8833
  285TIP3   OH2  860  -0.029   5.893   2.721 -0.0004 -0.4011 -0.2155
  285TIP3    H1  861   0.022   5.970   2.698  0.6810 -0.4535  1.0051
  285TIP3    H2  862   0.015   5.821   2.675 -0.2799 -0.1566 -0.8785
  286TIP3   OH2  863   1.053   3.140   4.464  0.4083 -0.3761  0.0971
  286TIP3    H1  864   1.056   3.230   4.430 -0.9682 -0.6279 -0.7857
  286TIP3    H2  865   1.124   3.094   4.419  0.8437  0.1574  0.2311
  287TIP3   OH2  866   3.695   3.673   0.692  0.4147 -0.4555 -0.3895
  287TIP3    H1  867   3.688   3.757   0.737  1.4234 -0.4629 -0.2036
  287TIP3    H2  868   3.692   3.695   0.599  1.4892 -0.1204 -0.3541
  288TIP3   OH2  869   6.153   2.090   0.107  0.0216 -0.3496  0.3242
  288TIP3    H1  870   6.128   2.038   0.031 -0.8877 -0.3490  0.6046
  288TIP3    H2  871   6.207   2.161   0.071 -1.5499  0.4665 -0.5359
  289TIP3   OH2  872   2.612   5.462   1.902  0.3815  0.1791  0.2762
  289TIP3    H1  873   2.618   5.541   1.956  0.4048  1.1931 -1.1534
  289TIP3    H2  874   2.632   5.390   1.962 -2.2478  0.9582  2.2894
  290TIP3   OH2  875   0.376   0.345   3.664 -0.2246  0.2336  0.4674
  290TIP3    H1  876   0.329   0.359   3.582  0.1329  2.8951  0.6244
  290TIP3    H2  877   0.443   0.281   3.642 -0.9697 -0.1068 -0.9718
  291TIP3   OH2  878   5.875   0.674   0.121  0.0994  1.0495  0.4033
  291TIP3    H1  879   5.804   0.738   0.125 -1.5899 -0.6873  0.0262
  291TIP3    H2  880   5.906   0.668   0.212 -2.4292 -0.3838  1.2909
  292TIP3   OH2  881   0.125   5.315   1.541  0.4932  0.2892  0.2487
  292TIP3    H1  882   0.080   5.248   1.491  0.8959  0.1595  0.0534
  292TIP3    H2  883   0.110   5.291   1.632 -0.7333  0.8533  0.2132
  293TIP3   OH2  884   6.188   0.469   0.291 -0.1932 -0.6043  0.4907
  293TIP3    H1  885   6.158   0.462   0.381 -1.4221 -0.3218  0.1166
  293TIP3    H2  886   6.116   0.510   0.244  1.1674  1.0737 -0.2619
  294TIP3   OH2  887   0.945   1.100   4.908 -0.3394  0.0832 -0.1286
  294TIP3    H1  888   0.942   1.195   4.922 -0.5178  0.0177  0.2723
  294TIP3    H2  889   1.033   1.074   4.938  0.1621  0.2955 -1.3518
  295TIP3   OH2  890   3.763   5.429   3.187 -0.0384  0.0861 -0.3630
  295TIP3    H1  891   3.753   5.463   3.276 -0.9880 -0.6161 -0.1848
  295TIP3    H2  892   3.713   5.347   3.187 -0.5643  0.3791 -1.7081
  296TIP3   OH2  893   1.269   5.504   2.142 -0.1698  0.0555 -0.2822
  296TIP3    H1  894   1.327   5.553   2.202 -0.1058 -1.9382  1.4031
  296TIP3    H2  895   1.328   5.457   2.085 -0.1813  0.0209 -0.2654
  297TIP3   OH2  896   0.979   1.675   3.608  0.0700  0.0826  0.3785
  297TIP3    H1  897   1.014   1.605   3.663  0.6356 -0.4930 -0.6664
  297TIP3    H2  898   1.023   1.754   3.639  0.9601 -0.3545  0.2711
  298TIP3   OH2  899   4.767   1.884   1.689  0.1065 -0.2648 -0.4702
  298TIP3    H1  900   4.688   1.938   1.688 -0.1394 -0.5688  0.8859
  298TIP3    H2  901   4.740   1.803   1.732  0.8038 -0.9708 -1.3122
  299TIP3   OH2  902   5.960   4.963   1.962 -0.4662  0.2610  0.4011
  299TIP3    H1  903   6.017   4.886   1.963  1.7593  1.8005  0.7492
  299TIP3    H2  904   5.894   4.946   2.029 -0.2376 -1.4853  0.2086
  300TIP3   OH2  905   3.995   5.431   2.384 -0.1867  0.2193 -0.3011
  300TIP3    H1  906   4.038   5.467   2.461  0.3343  0.7470 -0.8334
  300TIP3    H2  907   3.986   5.505   2.325 -3.3296  0.5585  0.4171
  301TIP3   OH2  908   0.282   2.281   0.779 -0.0513 -0.2123  0.0798
  301TIP3    H1  909   0.309   2.372   0.789  1.9527 -0.8357  0.8931
  301TIP3    H2  910   0.362   2.231   0.789 -0.7381 -2.0099 -2.3128
  302TIP3   OH2  911   6.116   3.330   3.673 -0.3511  0.3749 -0.1798
  302TIP3    H1  912   6.182   3.333   3.743  0.2864  0.7805 -0.7762
  302TIP3    H2  913   6.113   3.238   3.648 -0.3954  0.2683  0.2068
  303TIP3   OH2  914   1.503   4.619   1.914 -1.0044  0.2111  0.6891
  303TIP3    H1  915   1.451   4.696   1.936  0.7424  1.3164  1.1008
  303TIP3    H2  916   1.547   4.642   1.832  0.1180 -0.0215  1.2071
  304TIP3   OH2  917   3.470   5.078   1.853  0.6266  0.2989 -0.2164
  304TIP3    H1  918   3.485   5.099   1.761 -0.2182  0.5040 -0.3166
  304TIP3    H2  919   3.557   5.082   1.893  1.0147  0.0916 -1.0238
  305TIP3   OH2  920   1.519   3.257   2.296 -0.1709  0.0759 -0.0045
  305TIP3    H1  921   1.446   3.258   2.358 -2.0769 -2.9717 -1.9313
  305TIP3    H2  922   1.581   3.193   2.333 -0.4929 -0.4626 -0.3878
  306TIP3   OH2  923   5.424   0.205   2.087  0.0646 -0.2708 -0.3002
  306TIP3    H1  924   5.382   0.197   2.173  0.9664 -2.1884  0.0275
  306TIP3    H2  925   5.453   0.296   2.082 -1.3687  0.2794  0.7596
  307TIP3   OH2  926   1.439   5.330   2.003  0.3901  0.2133  0.1279
  307TIP3    H1  927   1.520   5.301   2.044  0.6806  2.6034  1.3908
  307TIP3    H2  928   1.445   5.297   1.913  2.9960  0.6962  0.0432
  308TIP3   OH2  929   3.195   5.118   4.305  0.0082 -0.0748  0.3931
  308TIP3    H1  930   3.176   5.181   4.376 -1.6085  0.9985 -0.8902
  308TIP3    H2  931   3.122   5.056   4.310 -0.1230  0.0197 -0.3118
  309TIP3   OH2  932   3.920   3.276   1.679  0.2407 -0.7219  0.6744
  309TIP3    H1  933   3.995   3.325   1.645 -0.7745  0.9593  0.7048
  309TIP3    H2  934   3.950   3.186   1.684  1.3672 -0.5770 -1.9519
  310TIP3   OH2  935   0.860   5.263   4.817 -0.1377  0.8129 -0.6316
  310TIP3    H1  936   0.899   5.216   4.743  2.4231  0.8196  0.6008
  310TIP3    H2  937   0.915   5.240   4.892 -3.0087  0.2691  1.4836
  311TIP3   OH2  938   6.174   4.388   1.881 -0.3831  0.0231  0.4767
  311TIP3    H1  939   6.226   4.418   1.806  0.5452 -1.1674  0.6133
  311TIP3    H2  940   6.240   4.357   1.943 -1.2034 -0.0153  1.3388
  312TIP3   OH2  941   3.834   3.402   3.013 -0.0028 -0.1118  0.0464
  312TIP3    H1  942   3.743   3.388   2.987 -0.2342  0.5776  0.4798
  312TIP3    H2  943   3.878   3.429   2.932 -0.1036 -0.7554 -0.2340
  313TIP3   OH2  944   2.057   5.757   4.897 -0.1036  0.1483 -0.4436
  313TIP3    H1  945   2.100   5.680   4.859 -0.0767 -0.0326 -0.0495
  313TIP3    H2  946   2.064   5.745   4.991  0.7853  1.1325 -0.3659
  314TIP3   OH2  947   1.341   0.999   0.956  0.7733 -0.1370  0.2906
  314TIP3    H1  948   1.407   0.957   0.902  0.8416 -0.5529  0.6890
  314TIP3    H2  949   1.381   1.004   1.043  0.5425  0.2323  0.3787
  315TIP3   OH2  950   2.487   0.166   0.353 -0.6318  0.2709 -0.0701
  315TIP3    H1  951   2.518   0.214   0.276  0.6540 -0.3783  0.0105
  315TIP3    H2  952   2.404   0.126   0.325 -0.3450  0.3138 -1.0120
  316TIP3   OH2  953   4.835   4.893   1.714  0.2561 -0.1119 -0.4367
  316TIP3    H1  954   4.784   4.870   1.636  1.2107 -2.8435 -0.3790
  316TIP3    H2  955   4.922   4.855   1.697  0.5760 -0.5406  1.8338
  317TIP3   OH2  956   1.485   5.669   2.748  0.0759  0.0778 -0.0620
  317TIP3    H1  957   1.453   5.656   2.838  1.8013 -1.9919  0.3268
  317TIP3    H2  958   1.465   5.586   2.704  1.7407  0.0120 -0.7560
  318TIP3   OH2  959   4.601   4.165   0.456 -0.2572  0.0981  0.6893
  318TIP3    H1  960   4.684   4.172   0.408 -0.5836  0.2032  0.1339
  318TIP3    H2  961   4.627   4.149   0.547  0.3577 -1.5195  0.2655
  319TIP3   OH2  962   5.085   5.648   5.168 -0.6794  0.8454  1.0743
  319TIP3    H1  963   5.149   5.700   5.119 -0.5240 -1.1116 -0.9481
  319TIP3    H2  964   5.019   5.712   5.196  0.5368  2.4246  0.5074
  320TIP3   OH2  965   4.684   2.382   3.940  0.8704 -0.4019 -0.3488
  320TIP3    H1  966   4.771   2.408   3.910  1.6998 -2.1038  0.4661
  320TIP3    H2  967   4.685   2.287   3.939  0.0971 -0.5359  2.6451
  321TIP3   OH2  968   4.661   0.170   1.818 -0.3808  0.2251  0.0294
  321TIP3    H1  969   4.738   0.218   1.850 -0.6191  1.3343 -0.9982
  321TIP3    H2  970   4.697   0.090   1.780  0.3187  0.9267 -0.8229
  322TIP3   OH2  971   6.314   5.533   2.519 -0.6319  0.4657 -0.8472
  322TIP3    H1  972   6.319   5.441   2.547  1.3144  0.7465 -0.0970
  322TIP3    H2  973   6.388   5.575   2.564 -0.9560  2.2121 -1.8756
  323TIP3   OH2  974   4.372   2.523   3.217  0.1117 -0.1714  0.3868
  323TIP3    H1  975   4.405   2.496   3.131  0.3332 -0.3490  0.5276
  323TIP3    H2  976   4.353   2.441   3.263  0.0370 -0.0777  0.5243
  324TIP3   OH2  977   2.955   4.695   4.635  0.2961  0.1626 -0.3670
  324TIP3    H1  978   2.897   4.664   4.704 -0.4692 -1.3162 -1.6196
  324TIP3    H2  979   3.028   4.633   4.635  0.9733  0.9372 -0.0289
  325TIP3   OH2  980   6.301   3.474   4.438  0.5723  0.0348 -0.0652
  325TIP3    H1  981   6.379   3.470   4.383  0.2835 -1.1014 -0.4280
  325TIP3    H2  982   6.244   3.538   4.394  0.5916 -0.4154 -0.7713
  326TIP3   OH2  983   4.953   5.187   0.455 -0.2676 -0.0155 -0.3008
  326TIP3    H1  984   4.942   5.137   0.375  2.1832 -1.0048 -0.1008
  326TIP3    H2  985   5.021   5.251   0.434 -0.3625  0.4202  0.6730
  327TIP3   OH2  986   5.790   1.823   1.622 -0.1400  0.2057 -0.1464
  327TIP3    H1  987   5.771   1.806   1.714 -2.0152 -2.0626 -0.8507
  327TIP3    H2  988   5.765   1.915   1.608  1.7567  1.1095  1.9020
  328TIP3   OH2  989   4.335   1.088   4.894 -0.2019  1.3724 -0.4899
  328TIP3    H1  990   4.332   1.118   4.984 -2.2501  1.4600 -0.5613
  328TIP3    H2  991   4.252   1.114   4.856  0.2109  0.4627 -2.1306
  329TIP3   OH2  992   6.033   0.123   2.200  0.0840  0.1597 -0.5084
  329TIP3    H1  993   6.106   0.123   2.262  0.8769  1.4542 -1.3891
  329TIP3    H2  994   5.982   0.200   2.223 -0.3146 -0.0486 -0.6838
  330TIP3   OH2  995   3.362   1.164   3.073 -0.3473  0.4107  0.4236
  330TIP3    H1  996   3.404   1.127   2.995  0.8491  1.0739  0.7282
  330TIP3    H2  997   3.269   1.143   3.062 -0.4484  1.6857 -1.9066
  331TIP3   OH2  998   0.258   3.190   4.645  0.2148  0.4743 -0.2028
  331TIP3    H1  999   0.219   3.134   4.578 -0.0205  1.3317 -0.7931
  331TIP3    H2 1000   0.313   3.131   4.697 -0.1497 -0.3276 -0.7207
  332TIP3   OH2 1001   0.726   2.984   4.784  0.0418  0.1475 -0.1623
  332TIP3    H1 1002   0.754   3.023   4.701 -0.4710 -1.3397 -1.0821
  332TIP3    H2 1003   0.765   2.896   4.783 -0.3495 -0.0518  0.9623
  333TIP3   OH2 1004   6.272   5.786   1.105 -0.2149 -0.1229 -0.1945
  333TIP3    H1 1005   6.361   5.798   1.139  0.0618 -1.1228 -0.5274
  333TIP3    H2 1006   6.282   5.724   1.033 -1.0191  0.7029 -1.0432
  334TIP3   OH2 1007   5.161   5.140   1.317  0.1062 -0.3156  0.3184
  334TIP3    H1 1008   5.077   5.187   1.315  1.3164  1.9768 -0.9990
  334TIP3    H2 1009   5.145   5.064   1.373 -2.0970  1.5141  2.3692
  335TIP3   OH2 1010   3.034   0.952   1.692 -0.5604 -0.3754  0.1580
  335TIP3    H1 1011   3.017   0.998   1.775  1.9772  2.4713 -0.6975
  335TIP3    H2 1012   3.064   0.865   1.719 -1.0879  0.0029  2.1524
  336TIP3   OH2 1013   5.519   2.263   0.453  0.1790 -0.0573  0.6530
  336TIP3    H1 1014   5.514   2.319   0.375  0.4027  0.0554  0.7198
  336TIP3    H2 1015   5.476   2.313   0.522  0.6304  0.1514  0.7825
  337TIP3   OH2 1016   3.695   1.322   4.972 -0.5021  0.0325  0.0369
  337TIP3    H1 1017   3.697   1.376   4.894  1.4497 -0.9207 -0.6388
  337TIP3    H2 1018   3.718   1.234   4.941 -1.8881 -0.8604  1.3547
  338TIP3   OH2 1019   5.387   1.334   0.993 -0.7249  0.2047  0.1493
  338TIP3    H1 1020   5.471   1.289   0.988 -1.3679 -1.0563  0.0530
  338TIP3    H2 1021   5.358   1.321   1.083 -1.3199 -0.3626 -0.1136
  339TIP3   OH2 1022   1.370   5.928   0.711 -0.0456 -0.9457  0.2365
  339TIP3    H1 1023   1.354   5.956   0.801 -1.1559 -0.6911 -0.0311
  339TIP3    H2 1024   1.452   5.878   0.716  1.4408  1.3877  0.9076
  340TIP3   OH2 1025   4.642   3.551   2.895  0.4232 -0.0287  0.3441
  340TIP3    H1 1026   4.666   3.644   2.890 -0.2870  0.2557  1.7610
  340TIP3    H2 1027   4.698   3.516   2.964  1.4505 -0.9432 -0.8986
  341TIP3   OH2 1028   1.340   1.152   4.788  0.4259  0.1046 -0.1452
  341TIP3    H1 1029   1.334   1.062   4.755 -0.8487  0.0599  0.1761
  341TIP3    H2 1030   1.425   1.183   4.757  0.5446 -0.9465 -0.9149
  342TIP3   OH2 1031   3.763   3.426   4.751 -0.0119 -0.0246  0.8506
  342TIP3    H1 1032   3.709   3.448   4.827 -1.6932 -0.8414 -0.0742
  342TIP3    H2 1033   3.781   3.332   4.761  0.6469  0.0892  0.7742
  343TIP3   OH2 1034   3.775   4.097   1.938  0.3160 -0.0766  0.0591
  343TIP3    H1 1035   3.794   4.187   1.962  2.1951 -0.7350  1.2802
  343TIP3    H2 1036   3.690   4.078   1.976  0.1798  0.9969  0.2966
  344TIP3   OH2 1037   5.240   3.112   3.748  0.2268  0.1390  0.2337
  344TIP3    H1 1038   5.218   3.181   3.810 -0.5178  0.2788 -0.1804
  344TIP3    H2 1039   5.176   3.121   3.677  1.7308  0.6807 -1.1105
  345TIP3   OH2 1040   0.524   1.336   0.222 -0.8026  0.3193  0.1341
  345TIP3    H1 1041   0.498   1.307   0.310 -2.2790  1.5639  0.1462
  345TIP3    H2 1042   0.446   1.321   0.169  0.2232 -0.8486 -1.1094
  346TIP3   OH2 1043   4.363   5.340   2.080 -0.0149 -0.4449 -0.3838
  346TIP3    H1 1044   4.295   5.377   2.025  0.6280  0.9290 -0.3177
  346TIP3    H2 1045   4.330   5.351   2.170  1.2316  2.4975 -0.1710
  347TIP3   OH2 1046   0.663   2.353   0.623 -0.4337 -0.1086  0.4967
  347TIP3    H1 1047   0.671   2.267   0.664  1.0772 -1.1084 -1.7227
  347TIP3    H2 1048   0.753   2.383   0.613 -0.7353  0.1794 -1.8014
  348TIP3   OH2 1049   2.623   1.681   0.485 -0.3656 -0.0157  0.1232
  348TIP3    H1 1050   2.663   1.710   0.567  2.2933 -0.5004 -0.8895
  348TIP3    H2 1051   2.692   1.632   0.441 -2.2957 -1.3225 -1.6211
  349TIP3   OH2 1052   4.083   2.219   4.532 -0.0895  0.1666  1.0947
  349TIP3    H1 1053   4.086   2.312   4.512 -0.8532  0.0249  0.2561
  349TIP3    H2 1054   4.147   2.179   4.472 -0.5385  0.0369  0.6935
  350TIP3   OH2 1055   0.164   3.600   0.243 -0.1448  0.0065  0.1405
  350TIP3    H1 1056   0.131   3.650   0.318  0.5155  0.4697  0.1278
  350TIP3    H2 1057   0.213   3.528   0.283  1.1361  0.8656  0.1795
  351TIP3   OH2 1058   3.875   3.065   3.225  0.3100  1.2936 -0.5189
  351TIP3    H1 1059   3.831   3.148   3.245  0.2276  1.2299 -0.4379
  351TIP3    H2 1060   3.807   3.012   3.183 -0.0653  0.7004  0.8074
  352TIP3   OH2 1061   2.298   0.646   0.118 -0.0208 -0.0161  0.2560
  352TIP3    H1 1062   2.225   0.703   0.141  0.0683 -0.4637  1.6966
  352TIP3    H2 1063   2.269   0.601   0.038  0.5255  3.1316 -1.9038
  353TIP3   OH2 1064   1.182   5.966   4.374 -0.4184  0.2145  0.0744
  353TIP3    H1 1065   1.171   5.957   4.279  0.0557  0.4885 -0.0097
  353TIP3    H2 1066   1.272   5.940   4.391 -0.8706 -1.0592  0.6311
  354TIP3   OH2 1067   2.100   4.646   4.241  0.0314  0.0267  0.3127
  354TIP3    H1 1068   2.119   4.661   4.149 -0.1607 -2.7862 -0.2799
  354TIP3    H2 1069   2.083   4.733   4.277  0.4551  1.2315 -2.1985
  355TIP3   OH2 1070   5.872   3.903   1.359  0.0578 -0.1943  0.1174
  355TIP3    H1 1071   5.816   3.945   1.424  0.2536  2.7213 -1.4216
  355TIP3    H2 1072   5.958   3.898   1.400  0.3539  2.2886 -0.0633
  356TIP3   OH2 1073   2.154   3.564   2.060 -0.0777  0.2204 -0.2556
  356TIP3    H1 1074   2.229   3.517   2.024 -0.2162  0.3140 -0.6774
  356TIP3    H2 1075   2.192   3.635   2.112  0.1601 -1.2095  1.6034
  357TIP3   OH2 1076   6.010   1.841   2.431 -0.0219 -0.0399 -0.7723
  357TIP3    H1 1077   5.973   1.925   2.460  1.6261  1.0189 -1.6081
  357TIP3    H2 1078   6.040   1.857   2.342  3.0043 -0.5799  0.0197
  358TIP3   OH2 1079   3.484   2.700   3.301 -0.5087 -0.3649 -0.7960
  358TIP3    H1 1080   3.516   2.611   3.287  1.2658 -0.0156  0.7716
  358TIP3    H2 1081   3.553   2.744   3.349 -1.8631  1.5340 -0.4575
  359TIP3   OH2 1082   4.201   5.531   3.204  0.1373  0.4499  0.0328
  359TIP3    H1 1083   4.274   5.511   3.145  1.1721  1.1542  1.0050
  359TIP3    H2 1084   4.200   5.459   3.267 -0.8280 -0.1947 -0.7082
  360TIP3   OH2 1085   1.166   0.143   1.865  0.3892 -0.2847 -0.3121
  360TIP3    H1 1086   1.109   0.196   1.809 -0.3428 -1.0372 -0.3045
  360TIP3    H2 1087   1.235   0.112   1.806  0.5657  0.2939 -0.4168
  361TIP3   OH2 1088   4.004   1.170   3.208 -0.2522 -0.4900  0.0492
  361TIP3    H1 1089   3.974   1.129   3.289 -1.1491 -1.0994 -0.5581
  361TIP3    H2 1090   4.033   1.096   3.154  1.4073 -0.0008  0.2160
  362TIP3   OH2 1091   5.666   0.525   2.652  0.0857 -0.3038 -0.6365
  362TIP3    H1 1092   5.646   0.432   2.635 -1.0605 -0.1276 -0.3873
  362TIP3    H2 1093   5.700   0.525   2.742 -0.2803 -0.4503 -0.4929
  363TIP3   OH2 1094   2.234   4.205   2.871  0.3967 -0.0054  0.3677
  363TIP3    H1 1095   2.174   4.280   2.867  0.7276  0.3909  2.0460
  363TIP3    H2 1096   2.306   4.230   2.814  1.7335  2.1714  2.7831
  364TIP3   OH2 1097   4.150   4.631   3.011  0.0444  0.3770  0.1074
  364TIP3    H1 1098   4.199   4.695   2.960 -0.2527  0.1546 -0.4723
  364TIP3    H2 1099   4.190   4.633   3.098  0.6756  0.6409 -0.1833
  365TIP3   OH2 1100   6.323   5.503   4.696 -0.1370  0.0969  0.1311
  365TIP3    H1 1101   6.378   5.463   4.764  0.7007  0.6523 -0.2018
  365TIP3    H2 1102   6.310   5.433   4.632 -1.2767 -0.5606  1.0332
  366TIP3   OH2 1103   2.902   3.797   4.650  0.5034 -0.7398  0.0702
  366TIP3    H1 1104   2.996   3.788   4.661  0.3040 -2.3111  0.8866
  366TIP3    H2 1105   2.867   3.789   4.739 -0.4772 -1.8373 -0.3868
  367TIP3   OH2 1106   5.885   0.711   5.198 -0.0746  0.2621 -0.2734
  367TIP3    H1 1107   5.904   0.771   5.127 -0.4857 -0.5874 -1.1168
  367TIP3    H2 1108   5.840   0.638   5.157  0.6568 -0.7606  0.6869
  368TIP3   OH2 1109   0.045   1.806   0.904  0.2504  0.0904 -0.0075
  368TIP3    H1 1110   0.071   1.786   0.994 -2.4144 -0.3388  0.7568
  368TIP3    H2 1111   0.036   1.902   0.903 -0.0179  0.0682  0.2722
  369TIP3   OH2 1112   4.909   4.514   1.041  0.4426  0.3144 -0.0066
  369TIP3    H1 1113   4.903   4.429   0.996 -0.8507  0.4815 -0.1863
  369TIP3    H2 1114   4.865   4.575   0.982 -1.1702  0.5718  1.4096
  370TIP3   OH2 1115   5.259   0.406   1.294 -0.0332 -0.1725  0.3167
  370TIP3    H1 1116   5.251   0.368   1.382  0.7915  0.4136  0.6478
  370TIP3    H2 1117   5.339   0.367   1.258  1.0654  1.5365  0.8230
  371TIP3   OH2 1118   1.759   2.435   3.269  0.3879  0.0410 -0.1314
  371TIP3    H1 1119   1.848   2.416   3.297  0.7836  1.8068 -0.0356
  371TIP3    H2 1120   1.768   2.462   3.177 -0.1641 -0.4941 -0.3521
  372TIP3   OH2 1121   2.489   2.300   5.105  0.3607  0.0630 -0.2569
  372TIP3    H1 1122   2.479   2.385   5.149  3.3170  0.4573 -0.1282
  372TIP3    H2 1123   2.471   2.319   5.013  0.0174  0.5923 -0.0894
  373TIP3   OH2 1124   0.957   2.558   2.762  0.2183  0.2096 -0.5492
  373TIP3    H1 1125   0.942   2.525   2.673 -3.7239 -1.0359  0.3885
  373TIP3    H2 1126   0.947   2.653   2.754  1.7500  0.3202 -1.6491
  374TIP3   OH2 1127   4.775   0.023   2.511  0.1137 -0.1916 -0.1260
  374TIP3    H1 1128   4.853  -0.029   2.489 -0.8055 -1.8654  0.3731
  374TIP3    H2 1129   4.720   0.018   2.432 -0.4170 -0.8465  0.2758
  375TIP3   OH2 1130   6.226   2.952   0.942  0.2784  0.6851  0.2490
  375TIP3    H1 1131   6.228   2.856   0.939  0.5082  0.7119 -0.7618
  375TIP3    H2 1132   6.133   2.974   0.950  0.0707  0.3871 -1.0233
  376TIP3   OH2 1133   4.403   0.796   0.684  0.4237 -0.2530  0.3978
  376TIP3    H1 1134   4.322   0.846   0.681  0.5614 -0.0365  0.3182
  376TIP3    H2 1135   4.375   0.707   0.709 -0.1759 -0.8711 -2.1560
  377TIP3   OH2 1136  -0.006   1.296   4.076 -0.1981  0.1376  0.2267
  377TIP3    H1 1137   0.084   1.315   4.049  0.0122  0.9300  1.4023
  377TIP3    H2 1138  -0.006   1.308   4.171 -1.2069 -1.2956  0.4378
  378TIP3   OH2 1139   1.987   5.907   1.288  0.1243  0.1144  0.4298
  378TIP3    H1 1140   1.992   5.904   1.384  0.8346  0.7036  0.4207
  378TIP3    H2 1141   2.062   5.961   1.262 -0.2723  0.2602 -0.4398
  379TIP3   OH2 1142   1.898   1.507   3.294  0.3377  0.3772  0.2633
  379TIP3    H1 1143   1.859   1.563   3.361 -0.2799  0.8277 -0.4540
  379TIP3    H2 1144   1.945   1.440   3.343  0.3852  1.0327  1.1469
  380TIP3   OH2 1145   2.006   2.718   4.316 -0.1674  0.0458  0.1875
  380TIP3    H1 1146   2.046   2.632   4.309 -0.2759  0.1496 -2.7163
  380TIP3    H2 1147   1.914   2.705   4.293 -0.4178  0.7740  0.7384
  381TIP3   OH2 1148   6.147   3.163   1.898  0.3061 -0.7191  0.4343
  381TIP3    H1 1149   6.109   3.103   1.962 -0.8310 -0.1363  0.3186
  381TIP3    H2 1150   6.074   3.214   1.865  1.0040 -0.3807 -0.6823
  382TIP3   OH2 1151   1.020   3.110   0.819 -0.5145 -0.2923  0.5338
  382TIP3    H1 1152   1.076   3.152   0.754 -0.4130 -0.7680  0.3158
  382TIP3    H2 1153   0.933   3.108   0.779 -0.5722 -0.0707  0.6442
  383TIP3   OH2 1154   4.573   2.826   1.337 -0.0900 -0.3748 -0.2594
  383TIP3    H1 1155   4.628   2.814   1.414 -1.4354  1.7563  1.1181
  383TIP3    H2 1156   4.622   2.888   1.282  0.8017 -1.7846 -1.1297
  384TIP3   OH2 1157   4.330   0.281   2.168  0.2766  0.4425 -0.7784
  384TIP3    H1 1158   4.314   0.367   2.206 -0.2101  0.7660 -1.6842
  384TIP3    H2 1159   4.374   0.232   2.237  1.5967  1.7760 -0.6309
  385TIP3   OH2 1160   5.492   5.553   3.470 -0.8180 -0.4149 -0.2818
  385TIP3    H1 1161   5.582   5.549   3.437 -0.3341  1.2301  0.7234
  385TIP3    H2 1162   5.444   5.601   3.403 -0.9151 -1.1452 -0.7401
  386TIP3   OH2 1163   2.805   1.480   3.137 -0.5256 -0.2557 -0.0534
  386TIP3    H1 1164   2.870   1.464   3.069  0.2239  0.2391  0.5300
  386TIP3    H2 1165   2.804   1.575   3.148 -0.9106 -0.3039  0.3599
  387TIP3   OH2 1166   1.516   0.702   1.926  0.0384 -0.3870 -0.9310
  387TIP3    H1 1167   1.610   0.723   1.922  0.2662 -1.5905 -2.8835
  387TIP3    H2 1168   1.513   0.614   1.964 -0.7228  1.4302  4.0594
  388TIP3   OH2 1169   3.194   2.198   0.651 -0.6141 -0.1213 -0.1541
  388TIP3    H1 1170   3.188   2.109   0.615 -0.9300 -0.1631  0.0015
  388TIP3    H2 1171   3.165   2.254   0.579 -0.0326 -0.1091 -0.3903
  389TIP3   OH2 1172   1.556   2.562   0.629  0.1673  0.7439 -0.3876
  389TIP3    H1 1173   1.593   2.620   0.696 -0.0241 -0.5702  0.8874
  389TIP3    H2 1174   1.509   2.621   0.570 -0.5765  1.8420  1.2292
  390TIP3   OH2 1175   2.699   5.240   1.313 -0.0678 -0.2401 -0.0400
  390TIP3    H1 1176   2.688   5.330   1.344  0.6195 -0.7209  1.7294
  390TIP3    H2 1177   2.611   5.203   1.317 -0.0207 -0.2510  1.3222
  391TIP3   OH2 1178   5.454   5.274   2.639  0.0872  0.5273 -0.1835
  391TIP3    H1 1179   5.539   5.280   2.683 -0.3271  1.3594  0.5415
  391TIP3    H2 1180   5.447   5.183   2.611  0.8276  0.2416  0.5401
  392TIP3   OH2 1181   0.449   0.126   3.985  0.0410  0.2084  0.8970
  392TIP3    H1 1182   0.527   0.090   3.945 -0.5191  0.0920 -0.1073
  392TIP3    H2 1183   0.380   0.115   3.920 -0.7324  0.6639  1.6081
  393TIP3   OH2 1184   2.686   3.315   3.774 -0.1884  0.1318 -0.4291
  393TIP3    H1 1185   2.765   3.310   3.720  0.7049 -1.3932  0.9425
  393TIP3    H2 1186   2.718   3.333   3.863 -1.2695 -1.4701  0.3390
  394TIP3   OH2 1187   0.736   2.217   3.769  0.0570 -0.3250  0.7294
  394TIP3    H1 1188   0.748   2.152   3.699 -0.2007 -1.2149  1.4924
  394TIP3    H2 1189   0.772   2.298   3.733  1.9407 -1.2726  0.3689
  395TIP3   OH2 1190   0.571   5.032   2.859  0.5055 -0.2261  0.3172
  395TIP3    H1 1191   0.622   4.980   2.921  0.2146 -0.2675  0.5260
  395TIP3    H2 1192   0.542   5.108   2.910  2.1188  0.8886 -0.3538
  396TIP3   OH2 1193   4.030   2.098   2.403  0.3005  0.1498  0.2164
  396TIP3    H1 1194   4.102   2.043   2.371  1.5359  1.4361  0.6681
  396TIP3    H2 1195   3.956   2.076   2.348  1.3036 -0.5543 -0.8890
  397TIP3   OH2 1196   0.989   2.485   0.206 -0.4191 -0.3913  0.3083
  397TIP3    H1 1197   0.978   2.558   0.145  0.1517 -0.2475  0.3746
  397TIP3    H2 1198   1.047   2.519   0.274  0.6335 -1.1892 -0.1525
  398TIP3   OH2 1199   2.539   3.598   3.327 -0.6893 -0.1378 -0.2155
  398TIP3    H1 1200   2.576   3.561   3.407 -2.2394  1.1056  1.1595
  398TIP3    H2 1201   2.602   3.666   3.302 -0.4358 -0.1914  0.2487
  399TIP3   OH2 1202   1.906   2.637   4.766 -0.7921  0.2964  0.3254
  399TIP3    H1 1203   1.920   2.695   4.691 -1.3782 -1.3527 -1.1230
  399TIP3    H2 1204   1.821   2.663   4.801 -0.9397  0.4837 -0.1604
  400TIP3   OH2 1205   6.348   0.276   0.179 -0.7276 -0.1628 -0.3232
  400TIP3    H1 1206   6.343   0.299   0.087 -0.1851 -0.5626 -0.4579
  400TIP3    H2 1207   6.297   0.344   0.224 -2.5859 -0.9797 -1.0762
  401TIP3   OH2 1208   2.614   4.278   4.417  0.1749 -0.2432  0.7963
  401TIP3    H1 1209   2.526   4.241   4.407 -0.6021  1.4543  1.1581
  401TIP3    H2 1210   2.649   4.235   4.496 -0.0504 -1.3884  0.3042
  402TIP3   OH2 1211   0.631   1.969   1.092 -0.1509  0.1300  0.1744
  402TIP3    H1 1212   0.717   2.011   1.089  0.0611 -0.3667 -1.2838
  402TIP3    H2 1213   0.570   2.036   1.062 -0.0504 -0.0153 -0.3670
  403TIP3   OH2 1214   3.960   1.121   1.464  0.0608  0.0793 -0.2008
  403TIP3    H1 1215   3.937   1.127   1.557  0.7900  0.2146 -0.0196
  403TIP3    H2 1216   3.899   1.056   1.428 -2.3273  2.2422 -0.3390
  404TIP3   OH2 1217   3.142   5.708   3.654  0.2152  0.1336 -0.2210
  404TIP3    H1 1218   3.101   5.622   3.656  0.4412 -0.0007 -0.8456
  404TIP3    H2 1219   3.220   5.699   3.709  1.1442 -0.5705 -1.5742
  405TIP3   OH2 1220   0.654   2.040   2.426 -0.6884 -0.3532  0.6322
  405TIP3    H1 1221   0.594   2.114   2.435 -0.8635 -0.5668  1.2648
  405TIP3    H2 1222   0.707   2.043   2.506 -2.1970 -2.2467  1.7999
  406TIP3   OH2 1223   4.922   4.421   2.317  0.0640 -0.0449  0.1897
  406TIP3    H1 1224   4.904   4.500   2.368 -0.2704  0.3990 -0.5846
  406TIP3    H2 1225   5.009   4.435   2.280 -0.0886  0.0742 -0.1334
  407TIP3   OH2 1226   6.063   5.304   4.605  0.3823  0.4080  0.1440
  407TIP3    H1 1227   6.045   5.223   4.559  1.2254 -0.4262  1.2310
  407TIP3    H2 1228   6.146   5.335   4.568  0.6175  0.1914  0.4840
  408TIP3   OH2 1229   2.839   5.273   3.628  0.2417  0.0177 -0.0850
  408TIP3    H1 1230   2.787   5.225   3.564  0.7249 -1.2383  0.4514
  408TIP3    H2 1231   2.776   5.304   3.693 -0.2717  1.3991 -1.1846
  409TIP3   OH2 1232   1.624   2.596   2.489 -0.0463 -0.2951 -0.0462
  409TIP3    H1 1233   1.548   2.585   2.546  1.1474 -1.9658  1.3473
  409TIP3    H2 1234   1.653   2.686   2.503 -1.7685  0.3757 -0.6451
  410TIP3   OH2 1235   1.202   5.086   3.153  0.3385  0.5084  0.0563
  410TIP3    H1 1236   1.233   5.026   3.085 -0.1959  0.5204 -0.2107
  410TIP3    H2 1237   1.112   5.057   3.171  1.1030 -0.6951  2.1568
  411TIP3   OH2 1238   2.595   2.947   1.928  0.3980  0.3011  0.0767
  411TIP3    H1 1239   2.633   2.956   1.841  0.3453  1.5486  0.1710
  411TIP3    H2 1240   2.611   3.031   1.971 -0.1472 -0.0664  1.0428
  412TIP3   OH2 1241   5.410   3.259   3.477 -0.3131 -0.1088 -0.5846
  412TIP3    H1 1242   5.417   3.355   3.485 -1.7940  0.0243 -0.4762
  412TIP3    H2 1243   5.316   3.242   3.488  0.0281 -1.6458  0.0985
  413TIP3   OH2 1244   2.209   4.621   5.127 -0.3715 -0.4834  0.1013
  413TIP3    H1 1245   2.238   4.581   5.209 -2.0929  0.9126  1.4744
  413TIP3    H2 1246   2.238   4.712   5.133  2.1775 -1.0031 -2.2942
  414TIP3   OH2 1247   0.387   1.207   5.067  0.3233  0.5429 -0.1577
  414TIP3    H1 1248   0.341   1.124   5.066  1.1492 -0.0033 -2.8962
  414TIP3    H2 1249   0.471   1.188   5.024  0.2791  2.8851 -1.4405
  415TIP3   OH2 1250   1.279   4.470   2.497  0.0521  0.0780  0.1754
  415TIP3    H1 1251   1.349   4.407   2.481  0.8953  1.4240 -1.8906
  415TIP3    H2 1252   1.275   4.478   2.592  0.3852 -2.5050  0.4739
  416TIP3   OH2 1253   2.019   1.253   1.948 -0.0076 -0.1927 -0.1257
  416TIP3    H1 1254   1.947   1.224   2.004 -1.3107  0.1217 -1.5965
  416TIP3    H2 1255   2.096   1.251   2.006 -1.1532 -0.6363  1.4453
  417TIP3   OH2 1256   4.513   4.535   2.947 -0.5636 -0.3000  0.0213
  417TIP3    H1 1257   4.584   4.507   2.889 -0.6784 -0.3279 -0.1076
  417TIP3    H2 1258   4.437   4.484   2.918 -0.2201 -1.5983  1.3173
  418TIP3   OH2 1259   1.748   0.977   1.740  0.8255  0.5769  0.0703
  418TIP3    H1 1260   1.671   0.971   1.797  0.2438  0.1380 -0.7551
  418TIP3    H2 1261   1.799   0.899   1.760  0.3682  0.1634 -0.3774
  419TIP3   OH2 1262   1.118   0.222   0.897  0.1182  0.4187  0.1774
  419TIP3    H1 1263   1.145   0.149   0.954  0.1085 -0.5704 -1.0510
  419TIP3    H2 1264   1.200   0.268   0.877  0.4928 -0.6821 -0.9528
  420TIP3   OH2 1265   1.013   0.833   4.393 -0.3564 -0.6431 -0.4150
  420TIP3    H1 1266   0.956   0.776   4.445 -2.2775  0.4096 -1.2839
  420TIP3    H2 1267   1.036   0.781   4.316 -0.8037 -0.7972 -0.4449
  421TIP3   OH2 1268   5.896   0.698   3.741 -0.3643  0.3767 -0.4987
  421TIP3    H1 1269   5.891   0.657   3.655  0.0034  1.2473 -0.9513
  421TIP3    H2 1270   5.806   0.725   3.760 -0.7744 -1.3319  0.1808
  422TIP3   OH2 1271   0.645   0.711   4.742 -0.2746 -0.2836  0.3334
  422TIP3    H1 1272   0.693   0.779   4.788 -0.6413 -0.4535  0.9960
  422TIP3    H2 1273   0.602   0.661   4.812 -1.6140  0.0213 -0.2418
  423TIP3   OH2 1274   6.298   1.268   3.299  0.2523 -0.3595  0.1938
  423TIP3    H1 1275   6.236   1.327   3.342 -1.2783 -1.5687 -0.2768
  423TIP3    H2 1276   6.370   1.325   3.273 -0.1046  0.9021  1.7677
  424TIP3   OH2 1277   3.710   4.476   0.566  0.2062  1.0251  0.0231
  424TIP3    H1 1278   3.646   4.406   0.555  0.5419  0.5998  0.6952
  424TIP3    H2 1279   3.716   4.488   0.661  2.1915  0.0371  0.0803
  425TIP3   OH2 1280   0.689   5.157   3.319  0.1784  0.2367  1.0462
  425TIP3    H1 1281   0.627   5.229   3.328 -0.5165 -0.0641 -0.7871
  425TIP3    H2 1282   0.641   5.079   3.348 -0.4416 -0.0276 -0.5612
  426TIP3   OH2 1283   2.584   2.939   4.720  0.3983 -0.2450  0.1241
  426TIP3    H1 1284   2.560   2.989   4.798  0.2212  0.5346 -0.4216
  426TIP3    H2 1285   2.527   2.862   4.723  1.6838 -1.2166  1.7562
  427TIP3   OH2 1286   1.205   1.418   4.766  0.4230  0.1744  0.5543
  427TIP3    H1 1287   1.217   1.444   4.858  3.2461 -1.5489  0.8065
  427TIP3    H2 1288   1.282   1.363   4.747  0.7497  1.6934 -3.3038
  428TIP3   OH2 1289   2.836   3.577   4.493  0.4471  0.1531  0.0568
  428TIP3    H1 1290   2.927   3.592   4.468 -0.0145  1.5892 -0.9029
  428TIP3    H2 1291   2.809   3.659   4.535 -0.5966  0.0061 -0.2946
  429TIP3   OH2 1292   2.573   4.705   2.958 -0.3098  0.2960 -0.0880
  429TIP3    H1 1293   2.574   4.764   2.883 -1.4622  1.4718  0.7751
  429TIP3    H2 1294   2.506   4.741   3.016 -0.4049 -1.3508  0.8949
  430TIP3   OH2 1295   5.462   1.262   2.392 -0.4660 -0.2387  0.4840
  430TIP3    H1 1296   5.395   1.231   2.332 -0.3430 -2.5436  1.4170
  430TIP3    H2 1297   5.427   1.243   2.479  0.5780  0.2798  1.0372
  431TIP3   OH2 1298   5.316   5.748   5.037  0.2923  0.3931 -0.7472
  431TIP3    H1 1299   5.355   5.661   5.036 -1.9371 -0.6662 -2.3505
  431TIP3    H2 1300   5.366   5.797   4.972  0.8623  0.0014 -0.6128
  432TIP3   OH2 1301   1.213   3.602   0.208  0.0641 -0.1180  0.0331
  432TIP3    H1 1302   1.275   3.632   0.275 -0.1551 -1.7417  1.0231
  432TIP3    H2 1303   1.135   3.656   0.221  0.4598  0.4039  0.2739
  433TIP3   OH2 1304   0.676   1.021   2.456 -0.4667  0.3544  0.3039
  433TIP3    H1 1305   0.664   1.056   2.545 -0.9016 -2.1695  1.3124
  433TIP3    H2 1306   0.760   0.975   2.460 -0.4753  0.2571 -0.6219
  434TIP3   OH2 1307   0.453   5.826   3.631 -0.4082 -0.1094 -0.1264
  434TIP3    H1 1308   0.516   5.761   3.661  0.4925  0.8240  0.0566
  434TIP3    H2 1309   0.454   5.894   3.698 -1.7326 -0.1408 -0.0429
  435TIP3   OH2 1310   4.915   1.215   0.104  0.3171 -0.7234 -0.0709
  435TIP3    H1 1311   4.853   1.276   0.065 -1.3338 -1.6224  1.0009
  435TIP3    H2 1312   4.917   1.238   0.196 -1.4207 -3.0440  0.6411
  436TIP3   OH2 1313   6.033   2.338   0.122 -0.5213  0.3958  0.3513
  436TIP3    H1 1314   6.062   2.252   0.150  1.2211  0.6033 -0.6668
  436TIP3    H2 1315   6.011   2.385   0.202  0.9832 -0.1593  1.1144
  437TIP3   OH2 1316   1.277   5.721   1.411 -0.4856 -0.4316  0.1733
  437TIP3    H1 1317   1.332   5.653   1.451  0.6286  0.8046  0.7904
  437TIP3    H2 1318   1.220   5.749   1.483 -0.8650 -0.6117 -0.0529
  438TIP3   OH2 1319   2.756   3.278   1.040  0.3932 -0.0714 -0.1223
  438TIP3    H1 1320   2.663   3.294   1.052 -0.0087 -1.6073 -0.8582
  438TIP3    H2 1321   2.761   3.190   1.002  2.1403 -0.0167 -0.1438
  439TIP3   OH2 1322   3.496   0.786   0.857 -0.1206  0.1667  0.1841
  439TIP3    H1 1323   3.485   0.751   0.945 -0.0978  0.6946  0.4003
  439TIP3    H2 1324   3.414   0.764   0.812 -0.0181 -0.3515  0.2475
  440TIP3   OH2 1325   4.035   1.172   1.941 -0.0824  0.1702  0.3169
  440TIP3    H1 1326   3.962   1.142   1.887  1.3940 -0.6481 -1.2854
  440TIP3    H2 1327   4.017   1.265   1.955 -0.0566  0.6562 -2.3884
  441TIP3   OH2 1328   0.064   0.381   3.062 -0.5154 -0.4148 -0.5350
  441TIP3    H1 1329   0.045   0.467   3.024  1.7000  0.1401 -0.5035
  441TIP3    H2 1330  -0.018   0.332   3.053 -1.4530  1.2723 -1.6866
  442TIP3   OH2 1331   0.859   1.198   3.269  0.0579  0.0035 -0.7892
  442TIP3    H1 1332   0.828   1.143   3.340 -1.1627  0.0151 -1.2898
  442TIP3    H2 1333   0.783   1.210   3.212  0.5190  1.4811 -1.1481
  443TIP3   OH2 1334   2.820   5.738   1.045  0.2066 -0.6942 -0.1519
  443TIP3    H1 1335   2.825   5.645   1.067  0.1205 -0.8692 -0.8425
  443TIP3    H2 1336   2.857   5.743   0.957  1.1812  0.0821  0.2899
  444TIP3   OH2 1337   5.537   4.995   1.043 -0.3945 -0.2699  0.5386
  444TIP3    H1 1338   5.461   5.049   1.022  0.3404  0.3972 -0.4971
  444TIP3    H2 1339   5.526   4.916   0.990  0.9379  0.9721 -1.7439
  445TIP3   OH2 1340   0.968   2.439   1.055  0.5849  0.7352  0.1112
  445TIP3    H1 1341   1.026   2.402   1.122  0.7618  1.1085  0.1644
  445TIP3    H2 1342   0.917   2.506   1.101 -0.1891  0.1290  0.1622
  446TIP3   OH2 1343   1.841   5.932   0.982 -0.0346  0.3779 -0.2884
  446TIP3    H1 1344   1.887   5.867   0.930 -1.8322 -2.1520  1.0964
  446TIP3    H2 1345   1.819   5.887   1.063 -1.2479  2.7823  0.8214
  447TIP3   OH2 1346   0.202   5.480   1.077 -0.4056 -0.3455  0.5435
  447TIP3    H1 1347   0.204   5.428   1.158  0.3468 -0.0618  0.7146
  447TIP3    H2 1348   0.287   5.522   1.074 -1.4075  1.8748  1.0607
  448TIP3   OH2 1349   1.190   1.914   2.479  0.4630  0.3478 -0.2738
  448TIP3    H1 1350   1.151   1.981   2.423  0.9698 -0.0655 -1.1606
  448TIP3    H2 1351   1.241   1.860   2.418  0.8570 -0.2481  0.5682
  449TIP3   OH2 1352   2.848   0.910   1.474 -0.1658 -0.1272 -0.6612
  449TIP3    H1 1353   2.757   0.880   1.474 -0.3678  0.4544 -1.3486
  449TIP3    H2 1354   2.863   0.943   1.562 -1.1180  1.1996 -0.9741
  450TIP3   OH2 1355   3.335   3.203   4.702  0.0078  0.0761 -0.5608
  450TIP3    H1 1356   3.277   3.223   4.775  0.3014 -0.3310 -0.2116
  450TIP3    H2 1357   3.319   3.111   4.682  1.4620 -0.4178  0.4068
  451TIP3   OH2 1358   1.078   4.513   1.521 -0.2863 -0.4724 -0.2659
  451TIP3    H1 1359   1.105   4.450   1.454 -1.0954  0.5063 -1.5662
  451TIP3    H2 1360   1.113   4.597   1.491 -0.3428 -0.0802  0.7393
  452TIP3   OH2 1361   2.486   4.072   0.894  0.2066  0.1117  0.2195
  452TIP3    H1 1362   2.541   4.011   0.942  1.7510  0.1857 -1.3581
  452TIP3    H2 1363   2.526   4.157   0.908 -0.4220  0.4004  0.3038
  453TIP3   OH2 1364   3.640   4.317   4.911  0.2434 -0.1247  0.2942
  453TIP3    H1 1365   3.671   4.316   5.001 -1.2954  0.0713  0.8558
  453TIP3    H2 1366   3.698   4.377   4.866  0.6967  0.1920  1.2843
  454TIP3   OH2 1367   0.825   1.672   1.331 -0.0975  0.1012  0.4231
  454TIP3    H1 1368   0.913   1.701   1.309 -0.1924  0.1320  0.0758
  454TIP3    H2 1369   0.837   1.603   1.397  0.2791 -1.1144 -0.8663
  455TIP3   OH2 1370   1.651   2.122   4.732 -0.6293  0.2493  0.0157
  455TIP3    H1 1371   1.729   2.120   4.787 -0.7605  0.4900  0.2143
  455TIP3    H2 1372   1.659   2.205   4.683 -1.2936  0.8037  0.8269
  456TIP3   OH2 1373   2.250   5.432   2.928  0.5259 -0.0790  0.0142
  456TIP3    H1 1374   2.298   5.515   2.925 -0.0399  0.3925  2.3952
  456TIP3    H2 1375   2.158   5.458   2.932  0.1478 -0.9303 -1.9380
  457TIP3   OH2 1376   1.687   1.191   0.922 -0.6380  0.0362 -0.3249
  457TIP3    H1 1377   1.758   1.199   0.859 -0.5820  1.5271 -0.1098
  457TIP3    H2 1378   1.643   1.276   0.920 -1.4161 -0.3122  0.7303
  458TIP3   OH2 1379   2.619   0.031   2.288 -0.1915 -0.1450 -0.2268
  458TIP3    H1 1380   2.614   0.092   2.215  1.1397  0.1615 -0.0847
  458TIP3    H2 1381   2.663  -0.047   2.252  0.9259  0.2001  0.3399
  459TIP3   OH2 1382   2.517   2.553   3.191 -0.2866 -0.3184 -0.4775
  459TIP3    H1 1383   2.458   2.498   3.242 -2.6224 -1.4133 -3.9195
  459TIP3    H2 1384   2.487   2.642   3.206 -3.5181 -0.8763 -2.5775
  460TIP3   OH2 1385   2.428   3.003   3.775 -0.0664  0.1736  0.4627
  460TIP3    H1 1386   2.386   2.970   3.696  0.2856  0.8022  0.0073
  460TIP3    H2 1387   2.505   2.947   3.787  0.5549  0.8349 -0.3329
  461TIP3   OH2 1388   4.063   0.761   1.630 -0.4489 -0.1426  0.0385
  461TIP3    H1 1389   4.115   0.796   1.559 -0.8205 -1.5727 -0.9937
  461TIP3    H2 1390   4.001   0.831   1.653  2.0719  1.7541  1.5813
  462TIP3   OH2 1391   1.114   1.162   3.156 -0.2224 -0.4506  0.5434
  462TIP3    H1 1392   1.036   1.192   3.202 -0.5550 -0.5708  0.0633
  462TIP3    H2 1393   1.111   1.206   3.071 -0.2349 -1.1308  0.1818
  463TIP3   OH2 1394   1.382   2.207   1.758  0.4331  0.2679 -0.6139
  463TIP3    H1 1395   1.463   2.256   1.746  0.9114 -0.7487 -1.6620
  463TIP3    H2 1396   1.342   2.245   1.837  2.0112  0.6392  0.0302
  464TIP3   OH2 1397   3.469   3.698   3.677 -0.0023 -0.2048 -0.0160
  464TIP3    H1 1398   3.442   3.784   3.708  1.6090  0.2206  0.3174
  464TIP3    H2 1399   3.484   3.709   3.583 -0.6432 -0.3524 -0.1363
  465TIP3   OH2 1400   1.733   3.431   0.866  0.2196 -0.2342  0.7688
  465TIP3    H1 1401   1.697   3.417   0.953  0.5556  0.0516  0.9571
  465TIP3    H2 1402   1.691   3.511   0.835 -0.7829 -0.9576  0.1857
  466TIP3   OH2 1403   3.602   5.449   0.643 -0.4959  0.0207  0.6419
  466TIP3    H1 1404   3.690   5.414   0.632  0.1762  1.7068  0.3894
  466TIP3    H2 1405   3.556   5.383   0.696  1.3474 -0.2312  2.0287
  467TIP3   OH2 1406   1.920   3.709   3.611  0.2806 -0.2382 -0.0075
  467TIP3    H1 1407   1.991   3.772   3.627 -0.2200  0.2133  0.4910
  467TIP3    H2 1408   1.944   3.666   3.529  0.0897  1.3769 -0.9575
  468TIP3   OH2 1409   4.762   4.759   2.388 -0.3518  0.7149  0.1118
  468TIP3    H1 1410   4.716   4.676   2.397  0.6347  0.2141  0.7047
  468TIP3    H2 1411   4.695   4.826   2.399 -0.9683  0.0014  0.7383
  469TIP3   OH2 1412   2.713   5.969   2.214 -0.4079  0.3477  0.4770
  469TIP3    H1 1413   2.622   5.943   2.199 -0.4220  0.8633 -0.4499
  469TIP3    H2 1414   2.756   5.957   2.129  0.0705  1.3144  0.5579
  470TIP3   OH2 1415   0.948   4.718   2.230  0.2495 -0.0722 -0.1831
  470TIP3    H1 1416   0.940   4.705   2.135  0.5988 -0.1978 -0.1943
  470TIP3    H2 1417   1.021   4.663   2.256 -0.1276 -0.3814  0.2353
  471TIP3   OH2 1418   0.933   2.880   2.871 -0.3278  0.6849 -0.0538
  471TIP3    H1 1419   1.025   2.897   2.888  0.0100  0.9166 -1.9338
  471TIP3    H2 1420   0.916   2.795   2.913  1.0107  0.1484 -0.5449
  472TIP3   OH2 1421   0.722   4.121   2.768 -0.0186  0.5005 -0.1812
  472TIP3    H1 1422   0.646   4.128   2.826 -0.4546  1.6233 -0.8654
  472TIP3    H2 1423   0.694   4.059   2.700 -0.0382  0.3222 -0.0122
  473TIP3   OH2 1424   3.158   1.836   1.680 -0.0907  0.3438  0.1513
  473TIP3    H1 1425   3.194   1.910   1.632  0.7295  0.6169  1.1453
  473TIP3    H2 1426   3.070   1.824   1.644  0.2531  0.9492 -0.9336
  474TIP3   OH2 1427   3.878   3.091   5.019  0.2272 -0.4804  0.9409
  474TIP3    H1 1428   3.932   3.072   4.942 -1.4957 -0.7275 -0.2728
  474TIP3    H2 1429   3.930   3.152   5.071  1.3070 -0.0361 -0.6013
  475TIP3   OH2 1430   4.928   1.973   0.242  0.0523 -0.2792 -0.0712
  475TIP3    H1 1431   4.989   1.900   0.249 -0.1401 -0.3662  0.7719
  475TIP3    H2 1432   4.925   1.993   0.148  0.3045 -1.1802 -0.2789
  476TIP3   OH2 1433   5.319   0.918   2.940 -1.2067 -0.1220 -0.1077
  476TIP3    H1 1434   5.409   0.940   2.914 -0.6516 -0.4189  1.4044
  476TIP3    H2 1435   5.264   0.961   2.876  0.0124  0.7303 -0.6235
  477TIP3   OH2 1436   2.458   2.752   4.209 -0.2093 -0.2885 -0.2545
  477TIP3    H1 1437   2.552   2.758   4.220 -0.2085  0.5091 -0.5911
  477TIP3    H2 1438   2.446   2.718   4.120 -0.2441 -1.2252  0.0958
  478TIP3   OH2 1439   4.853   3.631   4.913 -0.0502 -0.3426 -0.1743
  478TIP3    H1 1440   4.903   3.575   4.854 -1.1917 -1.0579 -0.4909
  478TIP3    H2 1441   4.771   3.584   4.927 -0.3608  0.4725  0.8878
  479TIP3   OH2 1442   0.211   3.135   0.168  0.1873 -0.2743 -0.0907
  479TIP3    H1 1443   0.159   3.200   0.121  1.6642  0.2551 -1.0693
  479TIP3    H2 1444   0.180   3.050   0.136 -1.0020 -0.0281  0.3788
  480TIP3   OH2 1445   0.041   2.983   4.248  0.1192 -0.0866  0.2372
  480TIP3    H1 1446  -0.034   2.981   4.188  0.4771  0.4868 -0.2502
  480TIP3    H2 1447   0.075   3.073   4.240  2.6129 -1.0629 -1.7849
  481TIP3   OH2 1448   5.166   1.455   3.452 -0.0154 -0.1529  0.3738
  481TIP3    H1 1449   5.147   1.539   3.494 -3.0755 -0.3245 -0.3901
  481TIP3    H2 1450   5.218   1.478   3.375 -0.1954  0.9559  0.5590
  482TIP3   OH2 1451   5.601   4.887   2.732 -0.3181  0.0627 -0.0597
  482TIP3    H1 1452   5.583   4.927   2.647 -1.0098  0.0488  0.0707
  482TIP3    H2 1453   5.552   4.805   2.730 -0.0768 -0.0889  0.2274
  483TIP3   OH2 1454   3.972   3.135   2.325  0.1857  0.0610 -0.5021
  483TIP3    H1 1455   3.948   3.175   2.408  0.9425 -0.6240  0.0659
  483TIP3    H2 1456   4.068   3.136   2.325  0.2650 -2.2655 -0.1838
  484TIP3   OH2 1457   5.885   3.607   0.541  0.6289 -0.7032  0.2914
  484TIP3    H1 1458   5.953   3.615   0.474  0.5312 -0.2827  0.2434
  484TIP3    H2 1459   5.809   3.651   0.504  0.4390 -0.8579  0.4962
  485TIP3   OH2 1460   1.481   0.097   3.826 -0.2342 -0.3449  0.4743
  485TIP3    H1 1461   1.488   0.144   3.743 -0.2034  0.7088  1.0628
  485TIP3    H2 1462   1.554   0.128   3.878  0.0956 -1.4400  0.7002
  486TIP3   OH2 1463   2.197   5.935   1.869  0.0346  0.7143  0.0052
  486TIP3    H1 1464   2.184   6.030   1.871 -1.1924  0.5664 -0.2761
  486TIP3    H2 1465   2.109   5.898   1.873  0.5293 -0.4389  0.9455
  487TIP3   OH2 1466   4.395   3.408   0.154  0.5306  0.0246 -0.3180
  487TIP3    H1 1467   4.304   3.391   0.131  0.2777  0.6016  0.2320
  487TIP3    H2 1468   4.422   3.478   0.094 -0.0549  1.3547  0.8932
  488TIP3   OH2 1469   5.823   5.374   3.069 -0.3719 -0.3499 -0.2320
  488TIP3    H1 1470   5.808   5.462   3.035 -3.0375 -0.5385  0.2156
  488TIP3    H2 1471   5.877   5.386   3.147 -1.2768  0.9881  0.2133
  489TIP3   OH2 1472   6.064   3.361   0.098 -0.1962  0.2138 -0.1824
  489TIP3    H1 1473   6.126   3.433   0.096 -1.1066  1.1404  1.7403
  489TIP3    H2 1474   6.093   3.301   0.029  1.3201  1.7996 -0.9862
  490TIP3   OH2 1475   5.811   5.724   0.092 -0.1712  0.2056 -0.2117
  490TIP3    H1 1476   5.906   5.731   0.094 -0.2209  0.9340 -0.0722
  490TIP3    H2 1477   5.781   5.812   0.071 -0.8400  0.1798  0.5957
  491TIP3   OH2 1478   1.881   4.483   1.828  0.5791 -0.1825 -0.1094
  491TIP3    H1 1479   1.890   4.578   1.823  1.1432 -0.2117  0.2362
  491TIP3    H2 1480   1.950   4.456   1.889 -1.4189 -0.5252  2.1678
  492TIP3   OH2 1481   3.232   0.770   3.552  0.0226 -0.7401  0.5738
  492TIP3    H1 1482   3.184   0.726   3.481 -3.0812  1.5812  1.0301
  492TIP3    H2 1483   3.202   0.726   3.631 -0.7001  0.1223  0.7940
  493TIP3   OH2 1484   3.455   2.808   4.944  0.1510  0.1604  0.1340
  493TIP3    H1 1485   3.386   2.863   4.981 -0.8417  1.2177 -3.0047
  493TIP3    H2 1486   3.536   2.856   4.963 -0.4428  1.3205 -0.1585
  494TIP3   OH2 1487   1.597   5.436   2.390  0.5459 -0.4012 -0.5098
  494TIP3    H1 1488   1.583   5.508   2.329  2.7522  0.3368 -0.2258
  494TIP3    H2 1489   1.667   5.384   2.351 -1.0232 -2.4587 -0.7181
  495TIP3   OH2 1490   4.266   5.453   4.891  0.5139  0.3275 -0.4564
  495TIP3    H1 1491   4.236   5.423   4.806  1.1645  0.5863 -0.7788
  495TIP3    H2 1492   4.191   5.501   4.927 -0.4448 -1.4193 -0.0375
  496TIP3   OH2 1493   1.823   3.951   4.218  0.0184 -0.0285  0.2547
  496TIP3    H1 1494   1.809   4.024   4.158  2.8477  0.7044  0.3203
  496TIP3    H2 1495   1.804   3.987   4.305  1.2910  0.6488  0.2777
  497TIP3   OH2 1496   4.027   4.615   4.774 -0.1097 -0.9945  0.1094
  497TIP3    H1 1497   4.081   4.585   4.847 -0.9839 -2.4396  0.1966
  497TIP3    H2 1498   3.938   4.587   4.796 -0.5130 -0.7355 -1.1138
  498TIP3   OH2 1499   3.477   2.105   4.380  0.1069  0.0972  0.0575
  498TIP3    H1 1500   3.403   2.163   4.399 -0.5876 -0.5206 -0.7189
  498TIP3    H2 1501   3.494   2.060   4.463 -1.8434 -1.3740 -0.2723
  499TIP3   OH2 1502   5.437   2.337   3.850 -0.0950 -0.8418 -0.6673
  499TIP3    H1 1503   5.500   2.312   3.782  0.7791  1.0465 -0.6222
  499TIP3    H2 1504   5.381   2.402   3.808 -1.7011 -2.0741 -0.5275
  500TIP3   OH2 1505   2.176   4.867   3.577  0.2794 -0.2721 -0.0828
  500TIP3    H1 1506   2.237   4.886   3.649  1.3594  0.6117 -1.1904
  500TIP3    H2 1507   2.208   4.785   3.540 -2.0080 -2.3567  2.1843
  501TIP3   OH2 1508   2.400   1.435   1.566  0.0335  0.1752  0.4246
  501TIP3    H1 1509   2.366   1.525   1.566  2.0552  0.9874  0.5902
  501TIP3    H2 1510   2.470   1.436   1.631  1.0301 -1.1361 -0.5750
  502TIP3   OH2 1511   4.204   5.182   1.809  0.0002 -0.0552 -0.1547
  502TIP3    H1 1512   4.155   5.179   1.891  2.2614  0.0381  1.3088
  502TIP3    H2 1513   4.213   5.090   1.783 -0.2070 -0.1288  0.0347
  503TIP3   OH2 1514   2.990   1.669   2.786  0.3303  0.3372  0.0997
  503TIP3    H1 1515   3.067   1.627   2.749  0.3777 -0.2292  0.8158
  503TIP3    H2 1516   2.917   1.638   2.732  0.0789 -2.3058  1.7411
  504TIP3   OH2 1517   2.081   1.482   0.214  0.1080  0.0088  0.3487
  504TIP3    H1 1518   2.073   1.572   0.244  3.1976  1.0258 -1.4515
  504TIP3    H2 1519   2.038   1.481   0.129 -0.5471 -0.4312  0.6780
  505TIP3   OH2 1520   1.275   2.240   3.768  0.0584 -0.2038 -0.6024
  505TIP3    H1 1521   1.337   2.185   3.816  0.3691 -1.2577 -2.1459
  505TIP3    H2 1522   1.189   2.213   3.801  0.3288  0.4449  0.7083
  506TIP3   OH2 1523   4.727   3.207   0.301 -0.3112  0.3590 -0.1914
  506TIP3    H1 1524   4.653   3.180   0.246 -1.2322  1.3307  0.5130
  506TIP3    H2 1525   4.743   3.132   0.358 -1.9379  0.7249  0.8270
  507TIP3   OH2 1526   2.060   3.729   4.387 -0.7793  0.6556 -0.2671
  507TIP3    H1 1527   1.985   3.698   4.336 -0.6154 -0.4027  0.1043
  507TIP3    H2 1528   2.135   3.683   4.349 -0.6752 -0.2761  0.9940
  508TIP3   OH2 1529   1.795   3.234   4.490 -0.3341 -0.3679  0.0900
  508TIP3    H1 1530   1.774   3.150   4.530  0.2533 -0.0743  1.0487
  508TIP3    H2 1531   1.740   3.238   4.412 -1.2021 -1.1407  0.6434
  509TIP3   OH2 1532   0.883   4.329   2.906  0.1808 -0.0499 -0.3617
  509TIP3    H1 1533   0.874   4.314   3.000  2.0220  1.9089  0.1997
  509TIP3    H2 1534   0.829   4.260   2.866  0.1854 -1.5953  2.0660
  510TIP3   OH2 1535   1.887   5.451   4.161 -0.4817 -1.0216 -0.4880
  510TIP3    H1 1536   1.871   5.545   4.155 -1.6636 -1.2931 -2.3227
  510TIP3    H2 1537   1.975   5.439   4.124 -0.2163 -0.6329  0.0028
  511TIP3   OH2 1538   1.220   0.938   1.676  0.1425  0.0134 -0.2609
  511TIP3    H1 1539   1.173   1.007   1.723  0.7062 -0.3543  0.8698
  511TIP3    H2 1540   1.267   0.890   1.744  0.2809 -1.0897 -1.1061
  512TIP3   OH2 1541   3.126   1.853   4.562 -0.4344 -0.2940 -0.2423
  512TIP3    H1 1542   3.170   1.811   4.488  0.0192 -1.1224  0.4759
  512TIP3    H2 1543   3.179   1.829   4.638 -1.3243 -0.1007  0.4541
  513TIP3   OH2 1544   4.947   0.920   4.050 -0.0254  0.5510  0.3492
  513TIP3    H1 1545   4.856   0.944   4.033 -0.4713 -0.0988  1.6686
  513TIP3    H2 1546   4.997   0.999   4.030 -1.1793  1.8258  2.1843
  514TIP3   OH2 1547   0.091   4.338   4.452 -0.3450  0.2298  0.2679
  514TIP3    H1 1548   0.153   4.296   4.393 -0.7239 -0.3085  0.2497
  514TIP3    H2 1549   0.005   4.305   4.425 -0.4937 -0.3693  1.3825
  515TIP3   OH2 1550   0.354   0.138   2.314  0.1104  0.6557 -0.5301
  515TIP3    H1 1551   0.322   0.077   2.380 -0.3857  0.6805 -0.7491
  515TIP3    H2 1552   0.382   0.082   2.241  1.6616  0.5510  0.1040
  516TIP3   OH2 1553   5.808   0.566   4.438 -0.2677  0.2141  0.3706
  516TIP3    H1 1554   5.724   0.611   4.431 -1.1928 -1.6103 -0.9635
  516TIP3    H2 1555   5.801   0.492   4.377  2.5083  0.3182 -0.1906
  517TIP3   OH2 1556   2.364   0.105   5.044 -0.0138 -0.3610  0.3706
  517TIP3    H1 1557   2.457   0.116   5.024 -0.6776  0.4935 -2.7307
  517TIP3    H2 1558   2.351   0.010   5.049  1.0015 -0.4845  0.8384
  518TIP3   OH2 1559   5.162   5.744   2.491 -0.3452 -0.0860  1.0946
  518TIP3    H1 1560   5.151   5.651   2.471 -0.6395 -0.2544  2.0090
  518TIP3    H2 1561   5.078   5.783   2.470 -0.5854 -0.2250  1.7929
  519TIP3   OH2 1562   4.669   1.428   0.671 -0.5498  0.2381  0.1447
  519TIP3    H1 1563   4.624   1.432   0.587 -0.1950  0.4536 -0.0384
  519TIP3    H2 1564   4.757   1.395   0.650  0.1257  1.9209  0.1875
  520TIP3   OH2 1565   5.559   2.914   4.558 -0.4831 -0.3098  0.0942
  520TIP3    H1 1566   5.574   3.004   4.587  0.0048  0.0462 -1.1844
  520TIP3    H2 1567   5.583   2.860   4.633 -1.4203  0.6392  1.1140
  521TIP3   OH2 1568   0.086   1.564   0.217  0.1980 -0.0046  0.3077
  521TIP3    H1 1569   0.080   1.609   0.301 -0.4151 -1.2227  0.9499
  521TIP3    H2 1570   0.174   1.526   0.216 -0.2668 -1.1777  1.0695
  522TIP3   OH2 1571   2.900   1.567   1.294  0.3739  0.4742  0.2186
  522TIP3    H1 1572   2.971   1.630   1.281  0.9276 -0.3464 -0.8873
  522TIP3    H2 1573   2.829   1.619   1.333  1.3272  1.4522  0.7154
  523TIP3   OH2 1574   4.184   5.171   2.636  0.4725 -0.0923 -0.0944
  523TIP3    H1 1575   4.178   5.076   2.640  0.9195 -0.2490 -2.1119
  523TIP3    H2 1576   4.172   5.200   2.726  1.4104 -2.1183  0.7341
  524TIP3   OH2 1577   3.025  -0.009   4.961 -0.2144  0.1201  0.5255
  524TIP3    H1 1578   2.952  -0.038   4.906 -0.6100  0.4090  0.8925
  524TIP3    H2 1579   3.042   0.081   4.932  0.0725  0.0126  0.3606
  525TIP3   OH2 1580   3.774   1.253   3.879  0.3359 -0.3609 -0.0755
  525TIP3    H1 1581   3.765   1.181   3.941 -0.0063  0.0242  0.3286
  525TIP3    H2 1582   3.699   1.310   3.897 -0.0442 -0.4956 -1.1844
  526TIP3   OH2 1583   1.041   1.293   1.176  0.2927 -0.1967  0.0968
  526TIP3    H1 1584   0.949   1.281   1.197  0.3977 -2.2053 -0.4146
  526TIP3    H2 1585   1.073   1.205   1.157  1.9790  0.6303 -1.1265
  527TIP3   OH2 1586   5.565   5.943   0.793 -0.4607  0.0267 -0.4156
  527TIP3    H1 1587   5.475   5.911   0.791  0.2839 -2.2240 -1.0568
  527TIP3    H2 1588   5.573   5.998   0.715 -0.7611 -1.3504 -1.4444
  528TIP3   OH2 1589   4.847   3.372   5.128 -0.5236  0.4625  0.1341
  528TIP3    H1 1590   4.854   3.282   5.159 -2.4374  0.1806 -0.1346
  528TIP3    H2 1591   4.937   3.399   5.110 -0.0472 -2.1816 -2.0059
  529TIP3   OH2 1592   6.287   5.350   0.382 -0.2589 -0.2552 -0.3467
  529TIP3    H1 1593   6.335   5.388   0.308  0.1671  0.1543  0.1361
  529TIP3    H2 1594   6.295   5.256   0.369  1.7805 -0.2180  0.4154
  530TIP3   OH2 1595   0.087   0.968   4.769 -0.1305  0.2076 -0.2353
  530TIP3    H1 1596   0.100   0.897   4.832  3.5006  0.3819 -0.5523
  530TIP3    H2 1597   0.040   1.036   4.817  1.3102 -0.2202  1.8836
  531TIP3   OH2 1598   3.715   3.706   2.304 -0.2065 -0.0429  0.3512
  531TIP3    H1 1599   3.729   3.758   2.225 -1.1692 -1.6538 -0.9482
  531TIP3    H2 1600   3.707   3.616   2.272 -1.8710 -0.5856  2.1308
  532TIP3   OH2 1601   2.401   5.712   3.511  0.4277  0.1193  0.1127
  532TIP3    H1 1602   2.374   5.797   3.548  1.4581  0.7969 -0.6167
  532TIP3    H2 1603   2.487   5.696   3.550 -0.5186 -1.5186  1.6512
  533TIP3   OH2 1604   3.278   2.410   3.162 -0.4469  0.0590 -0.0556
  533TIP3    H1 1605   3.248   2.455   3.241 -0.3995 -0.2737  0.1555
  533TIP3    H2 1606   3.374   2.414   3.166 -0.3154 -2.2731  1.3147
  534TIP3   OH2 1607   6.003   4.887   0.436  0.4619 -0.4595  0.6827
  534TIP3    H1 1608   5.976   4.796   0.448  1.5053 -1.0009 -0.8831
  534TIP3    H2 1609   5.921   4.933   0.416  0.0653 -1.2433  0.4504
  535TIP3   OH2 1610   4.423   4.502   1.877  0.6579  0.3330  0.4296
  535TIP3    H1 1611   4.469   4.586   1.884  1.1924  0.2009 -1.0913
  535TIP3    H2 1612   4.441   4.472   1.788 -0.8375 -0.6501  0.4202
  536TIP3   OH2 1613   4.399   5.108   1.398  0.1953 -0.0919  0.1008
  536TIP3    H1 1614   4.430   5.144   1.315  0.3512 -0.5404 -0.0384
  536TIP3    H2 1615   4.390   5.184   1.455 -1.4083  0.4288 -0.7901
  537TIP3   OH2 1616   2.303   4.612   0.795  0.8154 -0.0618  0.2369
  537TIP3    H1 1617   2.240   4.666   0.747 -0.4550 -0.3126  1.5838
  537TIP3    H2 1618   2.251   4.566   0.861  2.3198 -0.7259  1.0071
  538TIP3   OH2 1619   0.079   2.657   4.954  0.2223 -0.0230 -0.5070
  538TIP3    H1 1620   0.015   2.716   4.992  0.0824 -0.2492 -0.3945
  538TIP3    H2 1621   0.028   2.586   4.916  0.3762  0.0424 -0.8504
  539TIP3   OH2 1622   0.087   1.683   2.464 -0.3785  0.3780  0.7240
  539TIP3    H1 1623   0.160   1.633   2.501  0.1511  1.2134  0.8467
  539TIP3    H2 1624   0.048   1.624   2.399  0.4307 -0.0657  0.6258
  540TIP3   OH2 1625   2.651   2.593   4.604 -0.3004  0.1723 -0.6317
  540TIP3    H1 1626   2.575   2.616   4.551  0.2412 -2.0929 -2.5633
  540TIP3    H2 1627   2.718   2.569   4.540  1.1930 -0.3520  1.0659
  541TIP3   OH2 1628   0.454   1.967   4.020  0.3668  0.2999 -0.3146
  541TIP3    H1 1629   0.452   1.896   4.084 -0.5704 -0.6859 -1.3809
  541TIP3    H2 1630   0.392   2.032   4.054 -0.0728 -0.1809 -0.1755
  542TIP3   OH2 1631   3.718   1.068   0.450  0.1401 -0.7212 -0.5010
  542TIP3    H1 1632   3.647   1.098   0.507  0.5774 -0.7790  0.0792
  542TIP3    H2 1633   3.743   1.146   0.399  1.8771  0.2122  1.6268
  543TIP3   OH2 1634   3.325   3.468   3.053  0.1790 -0.5289 -0.3606
  543TIP3    H1 1635   3.393   3.409   3.084  1.4262  0.9105 -0.2373
  543TIP3    H2 1636   3.283   3.501   3.133  0.2232 -0.4123 -0.3850
  544TIP3   OH2 1637   6.265   1.962   3.433 -0.2832 -0.8496 -0.3078
  544TIP3    H1 1638   6.232   1.914   3.509  1.9665  0.1888  1.4315
  544TIP3    H2 1639   6.192   2.018   3.406 -1.1076 -1.1970  1.1124
  545TIP3   OH2 1640   2.253   3.731   1.290  0.4519 -0.1779  0.1588
  545TIP3    H1 1641   2.311   3.659   1.315  1.0157  0.3515  0.3996
  545TIP3    H2 1642   2.223   3.709   1.202  0.6131 -0.7097  0.2353
  546TIP3   OH2 1643   1.546   1.412   0.886  0.3942 -0.0653 -0.1390
  546TIP3    H1 1644   1.525   1.498   0.849  1.8155  0.4927  0.2519
  546TIP3    H2 1645   1.487   1.352   0.843  2.1540  0.4796 -3.6617
  547TIP3   OH2 1646   1.622   4.880   3.432  0.3303  0.2555  0.6055
  547TIP3    H1 1647   1.599   4.799   3.387  0.3525  0.1780  0.7335
  547TIP3    H2 1648   1.557   4.943   3.401 -0.7458 -0.2243  1.7907
  548TIP3   OH2 1649   1.067   4.595   0.043  0.0915  0.0273  0.1999
  548TIP3    H1 1650   1.006   4.552  -0.017  1.2946 -0.2037 -0.9175
  548TIP3    H2 1651   1.053   4.552   0.127  0.0743 -1.3728 -0.4953
  549TIP3   OH2 1652   4.712   2.352   3.345  0.7681 -0.2321  0.1720
  549TIP3    H1 1653   4.622   2.351   3.377  0.2011 -1.5261 -1.3141
  549TIP3    H2 1654   4.748   2.267   3.372  1.7735  0.5414  1.3241
  550TIP3   OH2 1655   2.125   4.341   0.701  0.8207  0.3747 -0.5075
  550TIP3    H1 1656   2.059   4.294   0.650  2.1953 -2.9356  0.5084
  550TIP3    H2 1657   2.194   4.361   0.638 -0.2398  2.1036 -1.1709
  551TIP3   OH2 1658   1.055   1.787   0.943 -0.7962  0.1225 -0.4782
  551TIP3    H1 1659   0.975   1.813   0.896  0.0341  1.5563 -1.1693
  551TIP3    H2 1660   1.116   1.762   0.874 -0.6454 -1.0643  0.0553
  552TIP3   OH2 1661   2.624   0.777   1.552  0.2065  0.7976  0.4653
  552TIP3    H1 1662   2.545   0.723   1.546  0.9018 -0.0822 -2.3190
  552TIP3    H2 1663   2.654   0.767   1.642 -1.2150 -1.2799  0.7689
  553TIP3   OH2 1664   5.529   0.842   0.651  0.3057  0.2204 -0.0814
  553TIP3    H1 1665   5.573   0.876   0.729  0.9613  0.0938 -0.3914
  553TIP3    H2 1666   5.599   0.804   0.598 -0.2814 -0.6809 -0.2298
  554TIP3   OH2 1667   2.341   0.872   4.937 -0.4866  0.6283 -0.6721
  554TIP3    H1 1668   2.322   0.920   4.857 -0.9997  1.8789  0.1658
  554TIP3    H2 1669   2.260   0.825   4.957  0.0024 -0.5992 -1.4705
  555TIP3   OH2 1670   3.644   1.616   4.473  0.3827  0.2931  0.9778
  555TIP3    H1 1671   3.656   1.704   4.437  2.6507  0.6242  2.3889
  555TIP3    H2 1672   3.713   1.564   4.433 -0.1770 -0.5642  1.0996
  556TIP3   OH2 1673   1.187   0.443   1.693  0.3271 -0.1442 -0.2855
  556TIP3    H1 1674   1.161   0.511   1.754 -0.5682 -0.6550 -0.0870
  556TIP3    H2 1675   1.112   0.384   1.687  0.6734 -0.5195 -1.3015
  557TIP3   OH2 1676   4.144   2.658   1.421  0.5570 -1.4036 -0.1854
  557TIP3    H1 1677   4.128   2.600   1.347 -1.7543 -1.7039  0.4975
  557TIP3    H2 1678   4.060   2.702   1.436  2.3149  2.8919 -1.2538
  558TIP3   OH2 1679   5.337   0.249   3.906  0.2677  0.0542 -0.4904
  558TIP3    H1 1680   5.430   0.230   3.919  0.6475  2.2368  0.3770
  558TIP3    H2 1681   5.315   0.310   3.976 -2.1141 -1.2120 -0.0479
  559TIP3   OH2 1682   4.851   2.214   2.455  0.4366  0.0069 -0.3174
  559TIP3    H1 1683   4.814   2.182   2.373 -2.3249  0.6197  0.5777
  559TIP3    H2 1684   4.946   2.202   2.445  0.2221  0.1803 -3.5845
  560TIP3   OH2 1685   4.462   1.645   4.629  0.6604  0.3896  0.6014
  560TIP3    H1 1686   4.497   1.567   4.673 -0.5614  0.1689  1.2276
  560TIP3    H2 1687   4.462   1.713   4.696  0.4976  0.5644  0.4255
  561TIP3   OH2 1688   1.084   2.719   4.847  0.1139  0.7471 -0.2826
  561TIP3    H1 1689   1.150   2.665   4.803  2.0456  1.8548  1.1222
  561TIP3    H2 1690   1.084   2.801   4.798  1.9484  1.8208  1.4167
  562TIP3   OH2 1691   3.577   0.654   0.076 -0.3053  0.0308 -0.2513
  562TIP3    H1 1692   3.548   0.583   0.133  0.5882  0.0191  0.2095
  562TIP3    H2 1693   3.614   0.609  -0.001 -0.1047 -0.0015 -0.1384
  563TIP3   OH2 1694   1.011   2.990   3.287 -0.0779 -0.3434 -0.0498
  563TIP3    H1 1695   1.047   3.023   3.369  0.9800 -0.0422 -0.6053
  563TIP3    H2 1696   1.066   2.915   3.266 -0.6559 -0.7181 -0.2366
  564TIP3   OH2 1697   3.644   0.819   5.012 -0.5200  0.4092 -0.1102
  564TIP3    H1 1698   3.617   0.906   5.041  1.8252  1.1340  0.1281
  564TIP3    H2 1699   3.610   0.811   4.923 -1.9849  0.9412  0.3729
  565TIP3   OH2 1700   4.504   3.145   4.698  0.3570  0.2829  0.1061
  565TIP3    H1 1701   4.498   3.224   4.752 -1.1859 -0.0578  0.4889
  565TIP3    H2 1702   4.511   3.177   4.609  0.5338  0.8521  0.3224
  566TIP3   OH2 1703   3.570   1.674   3.678 -0.2263  0.2019 -0.0151
  566TIP3    H1 1704   3.478   1.674   3.704  0.2201 -0.1318  1.6469
  566TIP3    H2 1705   3.597   1.583   3.682 -0.1084  0.1355 -1.6655
  567TIP3   OH2 1706   2.958   0.671   4.471 -0.4220 -0.4744  0.1785
  567TIP3    H1 1707   2.884   0.730   4.483 -0.2078 -0.0692 -0.4403
  567TIP3    H2 1708   2.918   0.586   4.451 -0.7422 -0.6879  1.6147
  568TIP3   OH2 1709   0.637   3.089   4.197  0.5790  0.1191 -0.5572
  568TIP3    H1 1710   0.603   3.129   4.277 -0.3876 -0.3177 -0.7307
  568TIP3    H2 1711   0.713   3.039   4.226  2.0109  2.2819 -0.3874
  569TIP3   OH2 1712   5.136   2.764   1.494  0.4337  0.7550  0.3526
  569TIP3    H1 1713   5.086   2.756   1.576  0.5529  2.7497  0.6492
  569TIP3    H2 1714   5.226   2.782   1.522  0.5853  0.9160 -0.2240
  570TIP3   OH2 1715   4.492   4.639   2.167  0.0368 -0.1211  0.5036
  570TIP3    H1 1716   4.557   4.709   2.166 -0.0507  0.0805  3.1598
  570TIP3    H2 1717   4.544   4.558   2.166  0.4219  0.0383  2.6768
  571TIP3   OH2 1718   1.227   4.619   0.835 -0.3343 -0.0415 -0.3313
  571TIP3    H1 1719   1.217   4.533   0.877  0.1399 -1.0435 -2.1520
  571TIP3    H2 1720   1.153   4.624   0.774 -0.8576  1.2552  0.3681
  572TIP3   OH2 1721   5.694   2.491   3.781  0.2561 -0.7768 -0.0183
  572TIP3    H1 1722   5.737   2.417   3.739 -0.3313 -0.8268 -0.5368
  572TIP3    H2 1723   5.604   2.489   3.748  0.4717  0.7094 -0.7393
  573TIP3   OH2 1724   2.942   3.734   1.803  0.5418  0.1041  0.0736
  573TIP3    H1 1725   2.862   3.683   1.817  1.8683 -1.9614  0.5999
  573TIP3    H2 1726   2.945   3.795   1.876 -0.7942  0.5822 -0.2449
  574TIP3   OH2 1727   3.921   3.872   0.565  0.1179  0.9470 -0.1778
  574TIP3    H1 1728   3.865   3.933   0.518 -0.7451  0.9901  0.8437
  574TIP3    H2 1729   3.913   3.898   0.657 -1.0125 -1.2188  0.4186
  575TIP3   OH2 1730   4.709   3.807   2.217 -0.4004  0.1211  0.7374
  575TIP3    H1 1731   4.782   3.745   2.213 -2.0408 -2.0127  1.6990
  575TIP3    H2 1732   4.665   3.797   2.132 -1.0153 -0.5386  1.1212
  576TIP3   OH2 1733   5.211   3.501   2.480 -0.8540  0.3531 -0.2548
  576TIP3    H1 1734   5.259   3.542   2.407 -1.4930  0.6430 -0.5174
  576TIP3    H2 1735   5.278   3.451   2.527 -0.9698 -2.4472 -2.8406
  577TIP3   OH2 1736   3.260   3.742   1.270 -0.0691  0.3226  0.3895
  577TIP3    H1 1737   3.305   3.817   1.231 -0.6274  0.8013  0.6706
  577TIP3    H2 1738   3.279   3.749   1.364  1.0043 -0.6491  0.2747
  578TIP3   OH2 1739   1.090   5.161   4.956 -0.1776 -0.0235 -0.2493
  578TIP3    H1 1740   1.136   5.082   4.981 -0.1533 -0.3509 -1.2777
  578TIP3    H2 1741   1.155   5.215   4.912 -0.6944 -0.3886 -1.5031
  579TIP3   OH2 1742   2.953   3.192   0.773 -0.3893 -0.0199  0.7880
  579TIP3    H1 1743   2.955   3.148   0.857 -0.1173  0.4676  1.0429
  579TIP3    H2 1744   2.900   3.270   0.788 -0.0236  0.2680  0.6128
  580TIP3   OH2 1745   3.096   0.565   3.364 -0.1345  0.0524 -0.4787
  580TIP3    H1 1746   3.097   0.470   3.363  1.5237  0.0407 -1.0196
  580TIP3    H2 1747   3.182   0.591   3.330 -0.1660  1.7279  0.5441
  581TIP3   OH2 1748   3.330   4.714   2.495  0.2928 -0.2770 -0.5636
  581TIP3    H1 1749   3.286   4.637   2.458 -1.6619  0.0283  0.9608
  581TIP3    H2 1750   3.322   4.781   2.428  2.3275 -1.4105 -2.0632
  582TIP3   OH2 1751   1.741   5.002   1.371 -0.1708  0.1519  0.3275
  582TIP3    H1 1752   1.717   5.095   1.362  0.3967  0.1226 -1.9906
  582TIP3    H2 1753   1.678   4.955   1.317  0.2488 -0.7110  0.5685
  583TIP3   OH2 1754   2.984   3.505   4.065 -0.3400 -0.0125 -0.8006
  583TIP3    H1 1755   2.992   3.582   4.120  1.5028 -0.4573 -0.3584
  583TIP3    H2 1756   3.074   3.473   4.056 -1.0183 -1.9660 -1.1622
  584TIP3   OH2 1757   4.524   5.403   0.300  0.7879 -0.0077  0.0078
  584TIP3    H1 1758   4.574   5.338   0.250  0.1718  0.3866 -1.1405
  584TIP3    H2 1759   4.458   5.351   0.346  2.2143 -0.5424  1.5836
  585TIP3   OH2 1760   2.237   3.593   3.850 -0.1380 -0.6976  0.0477
  585TIP3    H1 1761   2.283   3.511   3.866 -0.7088 -1.1636 -0.6078
  585TIP3    H2 1762   2.228   3.596   3.754 -1.4745 -0.6358  0.1627
  586TIP3   OH2 1763   5.959   4.692   1.454 -0.3235 -0.4772 -0.0515
  586TIP3    H1 1764   6.028   4.696   1.520 -0.6346 -1.9782  0.4152
  586TIP3    H2 1765   5.995   4.636   1.385 -0.3621  0.3054 -0.7278
  587TIP3   OH2 1766   1.482   1.605   4.462  0.4623 -0.3305  0.1839
  587TIP3    H1 1767   1.470   1.601   4.557  1.5777 -2.5436  0.2842
  587TIP3    H2 1768   1.406   1.655   4.431  0.9946  2.0493  2.3468
  588TIP3   OH2 1769   0.495   4.676   3.470 -0.7120 -0.0629  0.6254
  588TIP3    H1 1770   0.588   4.690   3.489 -0.7441  0.9212  0.0874
  588TIP3    H2 1771   0.494   4.607   3.404 -0.2655  1.0586 -0.5799
  589TIP3   OH2 1772   1.016   1.668   3.306  0.2256 -0.3990 -0.0982
  589TIP3    H1 1773   1.012   1.686   3.400 -0.0307 -1.6538  0.1443
  589TIP3    H2 1774   0.999   1.574   3.298 -1.4044 -0.0347 -1.5336
  590TIP3   OH2 1775   5.560   0.211   3.391 -0.6924 -0.1743 -0.4482
  590TIP3    H1 1776   5.546   0.173   3.477 -1.8188  2.1740  0.5000
  590TIP3    H2 1777   5.655   0.211   3.378 -0.5412 -0.8474  0.6520
  591TIP3   OH2 1778   4.758   4.886   3.664 -0.0956  0.7901 -0.1458
  591TIP3    H1 1779   4.807   4.848   3.737  0.7171  2.7912  0.4047
  591TIP3    H2 1780   4.820   4.888   3.591 -0.4234  0.2840 -0.4571
  592TIP3   OH2 1781   0.482   0.578   4.964  1.0261  0.1772 -0.0046
  592TIP3    H1 1782   0.392   0.546   4.969  0.3664  1.9257  0.0201
  592TIP3    H2 1783   0.528   0.532   5.034  0.6331 -2.0498 -1.1112
  593TIP3   OH2 1784   3.397   5.826   2.237 -0.0435  0.5155 -0.5875
  593TIP3    H1 1785   3.408   5.854   2.328  1.6494 -0.2365 -0.5279
  593TIP3    H2 1786   3.411   5.732   2.239 -0.6452  0.3871 -1.5483
  594TIP3   OH2 1787   5.719   3.336   1.671 -0.3093 -0.4346  0.1091
  594TIP3    H1 1788   5.666   3.398   1.720 -0.1638  0.6574 -1.0602
  594TIP3    H2 1789   5.668   3.318   1.592  1.8868  2.4069 -2.1808
  595TIP3   OH2 1790   0.821   4.103   4.883  0.4022 -0.0787  0.1128
  595TIP3    H1 1791   0.851   4.170   4.944  1.6491  0.2193 -0.7898
  595TIP3    H2 1792   0.729   4.123   4.868  0.1859  0.1042  1.5254
  596TIP3   OH2 1793   2.889   3.048   3.541  0.2904 -0.0618 -0.6061
  596TIP3    H1 1794   2.893   2.957   3.513  0.0382 -0.2941  0.0791
  596TIP3    H2 1795   2.840   3.046   3.623  1.5441  0.5051  0.2000
  597TIP3   OH2 1796   3.802   5.987   0.156 -0.3847  0.1275 -0.0277
  597TIP3    H1 1797   3.805   5.898   0.191 -2.9842 -0.3797 -0.9108
  597TIP3    H2 1798   3.891   6.002   0.124  0.2472 -1.9701  0.5515
  598TIP3   OH2 1799   4.477   4.025   2.644  0.6616  0.0627 -0.3843
  598TIP3    H1 1800   4.387   4.001   2.619 -0.0012  2.1395 -0.2184
  598TIP3    H2 1801   4.528   4.015   2.564 -0.2538  1.1959 -1.1445
  599TIP3   OH2 1802   1.450   5.261   1.736 -0.1111  0.6327  0.1433
  599TIP3    H1 1803   1.382   5.216   1.686  0.5346 -0.0179 -0.1687
  599TIP3    H2 1804   1.494   5.317   1.672  0.7500 -0.2406 -0.0507
  600TIP3   OH2 1805   3.321   5.192   0.015  0.6063 -0.0029 -0.0843
  600TIP3    H1 1806   3.410   5.164   0.034  0.4220  1.0000  2.7778
  600TIP3    H2 1807   3.331   5.278  -0.026  1.0038  0.3874  0.7890
  601TIP3   OH2 1808   2.137   2.718   4.943 -0.0079  0.0944 -0.0735
  601TIP3    H1 1809   2.042   2.706   4.941 -0.1030  0.4446  1.1662
  601TIP3    H2 1810   2.170   2.641   4.989  0.4632 -0.6756 -1.6405
  602TIP3   OH2 1811   2.164   1.503   4.923  0.3708  0.2821  0.2303
  602TIP3    H1 1812   2.151   1.409   4.906  0.5963  0.0208  1.4256
  602TIP3    H2 1813   2.177   1.509   5.018  1.2594  1.4206  0.0638
  603TIP3   OH2 1814   2.560   2.726   3.892  0.0271  0.1734  1.0719
  603TIP3    H1 1815   2.641   2.675   3.887 -0.5468 -0.6707  0.0598
  603TIP3    H2 1816   2.513   2.705   3.812  0.0722  2.8513  0.2204
  604TIP3   OH2 1817   1.204   3.945   0.861 -0.5856  0.1965  0.6515
  604TIP3    H1 1818   1.114   3.976   0.871 -0.0344  2.0771  0.1726
  604TIP3    H2 1819   1.243   3.956   0.948 -0.4679  0.6000  0.5492
  605TIP3   OH2 1820   0.581   3.701   0.223  0.3614  0.4679 -0.1756
  605TIP3    H1 1821   0.553   3.618   0.264  1.5232 -0.4977 -1.2566
  605TIP3    H2 1822   0.525   3.767   0.263 -3.5029 -1.2652 -2.1426
  606TIP3   OH2 1823   4.760   2.052   4.203  0.4733  0.1553 -0.4323
  606TIP3    H1 1824   4.842   2.096   4.226  0.7704  0.6200 -2.2222
  606TIP3    H2 1825   4.694   2.095   4.256  1.1284  1.0952 -0.3525
  607TIP3   OH2 1826   4.841   4.800   2.121  0.5194  0.3136 -0.3186
  607TIP3    H1 1827   4.856   4.787   2.215  0.0133  0.4791 -0.2108
  607TIP3    H2 1828   4.914   4.755   2.079  0.8711  0.4244  0.1609
  608TIP3   OH2 1829   4.835   3.786   0.505 -0.0912  0.2005 -0.2145
  608TIP3    H1 1830   4.810   3.721   0.570 -1.8403 -1.2657 -2.2062
  608TIP3    H2 1831   4.926   3.808   0.527  0.3314 -2.3744  1.0283
  609TIP3   OH2 1832   0.054   5.068   1.364  0.3824  0.3086 -0.1132
  609TIP3    H1 1833  -0.008   5.090   1.294  1.1637 -0.6032 -1.1204
  609TIP3    H2 1834   0.056   4.972   1.365  1.3648  0.3252  0.2816
  610TIP3   OH2 1835   3.756   3.922   4.863 -0.5665  0.0129 -0.0369
  610TIP3    H1 1836   3.814   3.944   4.936 -1.3567 -0.5440  0.7807
  610TIP3    H2 1837   3.709   4.004   4.844 -0.1679  0.2276 -0.0944
  611TIP3   OH2 1838   5.329   0.416   5.187  0.1831 -0.4022  0.2583
  611TIP3    H1 1839   5.383   0.437   5.262 -0.3699 -0.2282  0.6166
  611TIP3    H2 1840   5.385   0.435   5.111  0.7298 -0.5514  0.6193
  612TIP3   OH2 1841   4.115   1.579   2.260  0.1751 -0.9061 -0.0165
  612TIP3    H1 1842   4.071   1.583   2.345 -0.3450 -1.1401 -0.2696
  612TIP3    H2 1843   4.208   1.588   2.281  0.0126 -0.4407  0.5301
  613TIP3   OH2 1844   3.092   2.599   1.272  0.5732 -0.4073 -0.3967
  613TIP3    H1 1845   3.139   2.518   1.250  1.5843 -0.8298  2.7904
  613TIP3    H2 1846   3.003   2.570   1.289  0.5417 -0.5764 -0.8320
  614TIP3   OH2 1847   1.800   4.856   4.602  0.1945  0.5202 -0.1268
  614TIP3    H1 1848   1.809   4.781   4.660 -0.5771  0.9706  0.5999
  614TIP3    H2 1849   1.878   4.853   4.546 -0.5773 -1.7447 -1.2306
  615TIP3   OH2 1850   3.240   2.900   3.991  0.1329  0.5063  0.2868
  615TIP3    H1 1851   3.245   2.993   3.972  1.9248  0.5093  0.5339
  615TIP3    H2 1852   3.309   2.885   4.056 -1.1176 -0.7368  1.3842
  616TIP3   OH2 1853   6.329   3.709   2.181 -0.5665  0.1911  0.0434
  616TIP3    H1 1854   6.348   3.659   2.102 -0.0578 -0.2306  0.4195
  616TIP3    H2 1855   6.328   3.800   2.152 -1.3364 -0.0178 -0.6174
  617TIP3   OH2 1856   4.085   1.471   3.436  0.2017 -0.1108  0.0794
  617TIP3    H1 1857   4.080   1.410   3.510 -1.2361  0.1544  0.2239
  617TIP3    H2 1858   4.048   1.553   3.470  0.8333  0.4334 -0.5224
  618TIP3   OH2 1859   3.673   3.599   1.393 -0.1432  0.0283  0.2023
  618TIP3    H1 1860   3.600   3.550   1.432  0.1862 -0.7786 -0.1745
  618TIP3    H2 1861   3.638   3.687   1.381 -1.1653 -0.4178 -0.2404
  619TIP3   OH2 1862   1.538   1.236   1.202 -0.2000 -0.3533 -0.0717
  619TIP3    H1 1863   1.578   1.211   1.118 -3.2872  1.0943 -2.1460
  619TIP3    H2 1864   1.471   1.170   1.217 -0.9631  0.4812  0.2273
  620TIP3   OH2 1865   4.375   0.215   3.167  0.4150 -0.1746  0.5727
  620TIP3    H1 1866   4.317   0.141   3.185 -1.5534  1.0437 -0.3996
  620TIP3    H2 1867   4.361   0.235   3.074 -0.2576  2.2974  1.1332
  621TIP3   OH2 1868   1.910   3.430   2.190  0.2546 -0.5724  0.5519
  621TIP3    H1 1869   1.961   3.500   2.149 -1.2086  1.3810  1.8677
  621TIP3    H2 1870   1.818   3.457   2.179 -0.3089 -1.6720  2.1207
  622TIP3   OH2 1871   4.444   2.768   2.222 -0.0194  0.4224  0.0694
  622TIP3    H1 1872   4.397   2.733   2.146 -0.7094  1.5951 -0.0782
  622TIP3    H2 1873   4.524   2.716   2.228  0.2299  0.5555 -1.7001
  623TIP3   OH2 1874   4.335   0.103   0.878 -0.3667  0.2260 -0.0829
  623TIP3    H1 1875   4.391   0.071   0.949 -0.5016 -2.3205 -1.0359
  623TIP3    H2 1876   4.275   0.164   0.921  1.5893  1.2360  1.3760
  624TIP3   OH2 1877   4.421   2.314   1.726  0.0845 -0.1762  0.3426
  624TIP3    H1 1878   4.332   2.341   1.745  0.0943 -0.4757  0.8207
  624TIP3    H2 1879   4.433   2.335   1.633 -0.0856  0.9359  0.5564
  625TIP3   OH2 1880   1.393   3.893   3.533 -0.4727  0.0012 -0.5253
  625TIP3    H1 1881   1.391   3.808   3.577 -1.3923  0.0001 -0.5437
  625TIP3    H2 1882   1.452   3.881   3.459 -0.2491 -0.4900 -0.2702
  626TIP3   OH2 1883   0.495   4.376   2.707 -0.4527  0.3000 -0.3441
  626TIP3    H1 1884   0.567   4.433   2.733 -1.4359  0.9847  0.9878
  626TIP3    H2 1885   0.492   4.308   2.774 -0.0629 -0.6636 -1.2625
  627TIP3   OH2 1886   4.874   5.134   3.272 -0.0182 -0.3737  0.1264
  627TIP3    H1 1887   4.968   5.121   3.261  0.0217 -0.8120  0.8757
  627TIP3    H2 1888   4.835   5.094   3.195  0.4355  0.3562 -0.4971
  628TIP3   OH2 1889   0.154   0.690   3.534 -0.1012 -0.2979 -0.0209
  628TIP3    H1 1890   0.136   0.763   3.593 -2.6364  1.1077 -2.3158
  628TIP3    H2 1891   0.232   0.716   3.486 -0.1127  0.1911  0.2176
  629TIP3   OH2 1892   1.019   1.177   0.719  0.2457 -0.0226 -0.3268
  629TIP3    H1 1893   1.109   1.163   0.750  0.7868 -1.1027 -2.2032
  629TIP3    H2 1894   1.020   1.266   0.683  0.0410  0.6367  1.2234
  630TIP3   OH2 1895   1.832   4.623   4.793 -0.4491 -0.1546  0.1165
  630TIP3    H1 1896   1.912   4.598   4.840  0.1152  0.7301 -0.3340
  630TIP3    H2 1897   1.798   4.541   4.758 -0.0335 -0.6152  0.7569
  631TIP3   OH2 1898   2.022   0.296   2.939 -0.4370 -0.0409  0.0483
  631TIP3    H1 1899   1.982   0.233   2.879 -1.6927 -0.2821  1.1027
  631TIP3    H2 1900   2.009   0.381   2.896 -1.0962 -0.2330 -0.1446
  632TIP3   OH2 1901   0.223   4.644   2.765 -0.0108 -0.4458  0.3715
  632TIP3    H1 1902   0.291   4.691   2.716 -0.2104  0.7412  1.1955
  632TIP3    H2 1903   0.172   4.599   2.698  0.5638  0.0245 -0.3966
  633TIP3   OH2 1904   1.459   1.505   2.510  0.0402  0.6695  0.2484
  633TIP3    H1 1905   1.400   1.460   2.449 -1.0449  0.6665  1.2633
  633TIP3    H2 1906   1.401   1.549   2.571  1.0667  2.8940 -0.2582
  634TIP3   OH2 1907   2.196   1.981   4.466  0.6127  0.0793 -0.0072
  634TIP3    H1 1908   2.177   2.030   4.546 -0.3604 -0.9604  0.4323
  634TIP3    H2 1909   2.111   1.949   4.437  1.0693 -0.3080 -0.9662
  635TIP3   OH2 1910   2.751   5.781   4.224 -0.2557  0.2543  0.1934
  635TIP3    H1 1911   2.720   5.810   4.139  0.9481  2.2665  0.3892
  635TIP3    H2 1912   2.846   5.784   4.218 -0.1372 -0.3375  1.3701
  636TIP3   OH2 1913   0.479   1.597   2.081  0.1377 -0.3568  0.7618
  636TIP3    H1 1914   0.567   1.559   2.089 -0.3415 -1.4697  0.8542
  636TIP3    H2 1915   0.433   1.567   2.159 -0.6530 -0.6774  0.1824
  637TIP3   OH2 1916   1.436   1.607   1.101  0.1095  0.5990 -0.0328
  637TIP3    H1 1917   1.453   1.518   1.072 -1.9364 -0.2046  1.0697
  637TIP3    H2 1918   1.401   1.652   1.024  0.8302  0.3716 -0.4991
  638TIP3   OH2 1919   2.089   4.865   3.102 -0.2452  0.3190 -0.1768
  638TIP3    H1 1920   2.018   4.846   3.163 -0.2919 -2.3765 -0.9508
  638TIP3    H2 1921   2.161   4.809   3.131  0.9851  1.6986 -0.4643
  639TIP3   OH2 1922   1.551   1.371   2.036 -0.2363 -0.4817  0.2170
  639TIP3    H1 1923   1.524   1.306   1.971  0.8294 -0.4225 -0.3071
  639TIP3    H2 1924   1.563   1.452   1.987 -1.4452  0.1101  0.8491
  640TIP3   OH2 1925   6.270   1.301   0.506  0.4360  0.1750  0.3835
  640TIP3    H1 1926   6.365   1.297   0.504  0.4014 -0.4524 -0.4491
  640TIP3    H2 1927   6.244   1.305   0.414 -0.3302  0.7682  0.6109
  641TIP3   OH2 1928   1.284   3.442   4.293  0.3202  0.1198  0.5875
  641TIP3    H1 1929   1.208   3.407   4.339  0.5712  0.9650  1.6903
  641TIP3    H2 1930   1.285   3.396   4.209 -1.5479  0.2615  0.4422
  642TIP3   OH2 1931   4.874   3.275   0.847 -0.6435  0.2991 -0.2985
  642TIP3    H1 1932   4.963   3.271   0.813 -0.3760  0.5757  0.3560
  642TIP3    H2 1933   4.867   3.363   0.884 -1.0140  0.0925  0.1217
  643TIP3   OH2 1934   4.167   4.889   3.193  0.3753 -0.0021 -0.3822
  643TIP3    H1 1935   4.184   4.948   3.267  0.4397  0.2561 -0.6049
  643TIP3    H2 1936   4.242   4.829   3.193  1.3042  1.1213 -1.3507
  644TIP3   OH2 1937   0.940   4.688   3.121 -0.0213 -0.1225 -0.1575
  644TIP3    H1 1938   0.993   4.641   3.057 -0.3588 -0.6359 -0.0584
  644TIP3    H2 1939   0.864   4.633   3.136 -1.0177  0.9938 -0.9325
  645TIP3   OH2 1940   4.352   1.502   3.935 -0.6246 -0.3159 -0.0415
  645TIP3    H1 1941   4.423   1.478   3.995 -0.1896 -0.2655 -0.5279
  645TIP3    H2 1942   4.272   1.474   3.980 -0.2841 -0.5553  0.4258
  646TIP3   OH2 1943   2.855   2.600   2.431  0.0089 -0.0035 -0.0587
  646TIP3    H1 1944   2.932   2.545   2.422  1.3092  1.9938 -2.2926
  646TIP3    H2 1945   2.800   2.555   2.495  1.4183 -3.2915 -0.9778
  647TIP3   OH2 1946   0.052   5.104   4.647  0.1784  0.0563 -0.5708
  647TIP3    H1 1947  -0.032   5.113   4.693  0.7393  0.2736  0.4381
  647TIP3    H2 1948   0.061   5.010   4.630  0.6727 -0.2319  1.1530
  648TIP3   OH2 1949   4.464   5.375   4.144  0.0992  0.1787  0.1650
  648TIP3    H1 1950   4.404   5.437   4.103  0.1539 -0.2995 -0.6596
  648TIP3    H2 1951   4.540   5.428   4.170 -0.6293  0.7711  1.1396
  649TIP3   OH2 1952   5.123   1.931   2.655  0.0810  0.1389 -0.0092
  649TIP3    H1 1953   5.081   1.915   2.740  0.1624 -0.9232 -0.1605
  649TIP3    H2 1954   5.054   1.917   2.591  0.5272 -1.2253 -0.2349
  650TIP3   OH2 1955   5.484   2.992   3.710  0.0744 -0.1309 -0.3806
  650TIP3    H1 1956   5.419   3.057   3.737 -1.1992 -0.6235 -2.0698
  650TIP3    H2 1957   5.562   3.044   3.688  0.2275  0.4841  1.4833
  651TIP3   OH2 1958   0.297   1.937   2.829 -0.0282  0.3711 -0.2248
  651TIP3    H1 1959   0.228   1.979   2.778 -0.0264  0.5937 -0.0483
  651TIP3    H2 1960   0.253   1.864   2.873 -0.4513  1.2233  0.8479
  652TIP3   OH2 1961   5.935   0.098   4.401  0.4637  0.1837  0.1720
  652TIP3    H1 1962   5.868   0.051   4.351  0.5470 -0.0526  0.2803
  652TIP3    H2 1963   5.918   0.075   4.492  0.8796 -0.1211  0.1734
  653TIP3   OH2 1964   6.167   4.314   4.536  0.6171  0.8869  0.3948
  653TIP3    H1 1965   6.174   4.262   4.456 -1.6498  0.5572  0.3446
  653TIP3    H2 1966   6.224   4.269   4.599  1.9446  0.8024 -0.8218
  654TIP3   OH2 1967   4.006   3.914   5.182  0.2241 -0.2852 -0.0734
  654TIP3    H1 1968   4.016   3.843   5.118 -0.8225 -1.3726  0.8964
  654TIP3    H2 1969   4.089   3.960   5.181  0.9661 -1.5818 -0.7030
  655TIP3   OH2 1970   3.752   0.625   4.141  0.0406  0.4506 -0.9647
  655TIP3    H1 1971   3.672   0.660   4.182 -0.0883 -1.0946  0.1858
  655TIP3    H2 1972   3.799   0.582   4.213  1.1705  0.0258 -1.9272
  656TIP3   OH2 1973   3.604   5.387   1.009  0.1738  0.6636 -0.3395
  656TIP3    H1 1974   3.616   5.482   0.999  0.5990  0.4570 -2.0540
  656TIP3    H2 1975   3.692   5.351   1.001 -0.0271  0.0818  0.0133
  657TIP3   OH2 1976   1.017   1.527   4.585  0.0778 -0.5834 -0.2644
  657TIP3    H1 1977   1.073   1.497   4.657  2.1240  0.5223 -1.3235
  657TIP3    H2 1978   0.975   1.606   4.619 -0.9502 -1.4531  0.5605
  658TIP3   OH2 1979   2.094   0.362   0.254  0.2416 -0.0810 -0.2665
  658TIP3    H1 1980   2.138   0.438   0.292 -1.0344  0.7555 -0.3996
  658TIP3    H2 1981   2.143   0.345   0.173  1.2297 -0.1177  0.3240
  659TIP3   OH2 1982   0.861   2.494   4.781  0.5332 -0.8422  0.1182
  659TIP3    H1 1983   0.777   2.489   4.828  0.9394 -1.5002  0.8062
  659TIP3    H2 1984   0.926   2.469   4.846  1.2219 -0.7781 -0.5334
  660TIP3   OH2 1985   1.156   0.136   3.535 -0.2640  0.2729 -0.2090
  660TIP3    H1 1986   1.100   0.101   3.466  0.2615 -1.3263  0.1310
  660TIP3    H2 1987   1.186   0.220   3.501  2.2241 -1.6305 -3.2668
  661TIP3   OH2 1988   5.411   5.465   5.057 -0.3334  0.6616 -0.4467
  661TIP3    H1 1989   5.397   5.422   5.141  0.5847  1.1139 -0.0548
  661TIP3    H2 1990   5.404   5.394   4.993 -1.7972  0.4461 -0.0670
  662TIP3   OH2 1991   1.382   3.211   1.513  0.5033 -0.1510  1.0343
  662TIP3    H1 1992   1.297   3.237   1.479  1.3968 -0.9193 -2.0580
  662TIP3    H2 1993   1.362   3.143   1.578 -1.2279 -0.0166  0.6840
  663TIP3   OH2 1994   2.658   0.422   5.181  0.3900 -0.6163  0.5412
  663TIP3    H1 1995   2.656   0.405   5.087  1.4161 -0.5080  0.4821
  663TIP3    H2 1996   2.714   0.353   5.217  2.2101  0.8475  0.6886
  664TIP3   OH2 1997   4.521   5.611   3.860 -0.3885 -0.3357 -0.6085
  664TIP3    H1 1998   4.582   5.548   3.820  0.6460  0.9118 -1.0601
  664TIP3    H2 1999   4.491   5.568   3.940  2.1048 -0.4802  0.3173
  665TIP3   OH2 2000   5.762   2.334   3.988  0.5155 -0.2787 -0.0728
  665TIP3    H1 2001   5.710   2.381   3.923  0.9686  1.9477  1.0926
  665TIP3    H2 2002   5.719   2.353   4.071  0.0363 -2.9521  0.3836
  666TIP3   OH2 2003   0.575   1.420   4.617 -0.3486 -0.5445  0.1775
  666TIP3    H1 2004   0.564   1.366   4.696 -0.4747 -0.9770 -0.1318
  666TIP3    H2 2005   0.506   1.486   4.623 -0.5938 -0.8061  0.2429
  667TIP3   OH2 2006   4.976   1.919   3.286 -0.0944  0.3313 -0.3280
  667TIP3    H1 2007   5.020   1.983   3.342  0.2208 -0.0515 -0.1356
  667TIP3    H2 2008   4.894   1.961   3.262 -1.1063 -0.1962  1.9007
  668TIP3   OH2 2009   1.562   5.473   1.250 -0.1600 -0.1721 -0.4341
  668TIP3    H1 2010   1.586   5.533   1.320 -0.2257 -2.0462  1.3026
  668TIP3    H2 2011   1.535   5.529   1.178 -0.4021  1.8525  1.1480
  669TIP3   OH2 2012   5.835   0.417   4.168  0.4559  0.2567  0.7337
  669TIP3    H1 2013   5.778   0.479   4.123  0.4160  1.2681  2.1377
  669TIP3    H2 2014   5.923   0.441   4.139  0.2669 -0.8499 -0.8781
  670TIP3   OH2 2015   6.036   2.107   4.457  0.5772  0.3243 -0.9002
  670TIP3    H1 2016   6.044   2.030   4.401 -0.7145 -0.6007  0.0997
  670TIP3    H2 2017   5.959   2.153   4.425  2.1761  2.0774 -2.4277
  671TIP3   OH2 2018   4.115   0.801   4.713 -0.0041  0.0926  0.6980
  671TIP3    H1 2019   4.040   0.779   4.769 -0.7270  1.0202  0.1206
  671TIP3    H2 2020   4.077   0.814   4.626  1.1564 -1.7523 -0.1387
  672TIP3   OH2 2021   2.322   2.527   3.423  0.1503 -0.0640 -0.0981
  672TIP3    H1 2022   2.242   2.576   3.401 -0.2353 -0.7143 -0.1492
  672TIP3    H2 2023   2.294   2.463   3.487  0.2750 -1.4218 -1.3544
  673TIP3   OH2 2024   2.274   2.902   0.679 -0.3950 -0.1478 -0.1145
  673TIP3    H1 2025   2.347   2.865   0.629  0.7778  2.0039 -0.0661
  673TIP3    H2 2026   2.219   2.945   0.613 -0.1725  0.5628  0.1607
  674TIP3   OH2 2027   4.856   2.477   3.113  0.3812 -0.3952  0.0692
  674TIP3    H1 2028   4.850   2.436   3.027 -1.8133 -0.2124  0.0917
  674TIP3    H2 2029   4.804   2.422   3.170  0.0501  0.6399  0.8033
  675TIP3   OH2 2030   4.861   0.708   4.645 -0.3801  0.0793  0.0786
  675TIP3    H1 2031   4.862   0.715   4.549 -2.5165  1.9327  0.1065
  675TIP3    H2 2032   4.896   0.791   4.675  1.1329 -0.8381  0.9771
  676TIP3   OH2 2033   0.681   2.380   1.326 -0.6006  0.2816 -0.4418
  676TIP3    H1 2034   0.596   2.340   1.345 -0.2927  0.4518  1.4622
  676TIP3    H2 2035   0.666   2.474   1.338 -0.2226  0.3347 -0.3775
  677TIP3   OH2 2036   2.974   3.690   0.178  0.0648  0.3391 -0.2038
  677TIP3    H1 2037   3.064   3.673   0.205 -0.2726 -0.9766  0.1784
  677TIP3    H2 2038   2.920   3.650   0.246 -0.7984 -0.4428 -1.2927
  678TIP3   OH2 2039   6.270   1.401   4.778  0.4655  0.4076  1.1493
  678TIP3    H1 2040   6.289   1.309   4.758 -0.8260  0.0064  1.7037
  678TIP3    H2 2041   6.310   1.450   4.705  0.2320 -0.6681  0.2729
  679TIP3   OH2 2042   5.860   3.758   2.974 -0.5074 -0.1419 -0.3440
  679TIP3    H1 2043   5.867   3.797   2.887  0.6105 -1.7005 -0.9874
  679TIP3    H2 2044   5.896   3.670   2.965 -1.8258 -0.9333  1.3381
  680TIP3   OH2 2045   1.645   5.837   0.328  0.1801 -0.1010  0.0329
  680TIP3    H1 2046   1.666   5.839   0.234  0.9959  2.4582  0.2045
  680TIP3    H2 2047   1.706   5.900   0.367 -1.3279  0.1835  2.0409
  681TIP3   OH2 2048   1.733   5.554   0.492  0.2697 -0.2950 -0.2509
  681TIP3    H1 2049   1.696   5.583   0.409 -0.9894  0.1092  0.4326
  681TIP3    H2 2050   1.701   5.465   0.503 -2.4185  0.7450  1.3505
  682TIP3   OH2 2051   1.271   5.152   2.334  0.6696  0.0518  0.4426
  682TIP3    H1 2052   1.350   5.167   2.386  0.9620 -0.8143  0.2670
  682TIP3    H2 2053   1.266   5.056   2.327 -1.4718 -0.0287  2.1192
  683TIP3   OH2 2054   0.526   5.203   0.094  0.1700  0.3783 -0.0405
  683TIP3    H1 2055   0.571   5.207   0.178  2.5076 -0.3200 -1.1750
  683TIP3    H2 2056   0.554   5.281   0.047 -1.8308  1.2358  0.1029
  684TIP3   OH2 2057   2.433   5.561   4.063 -0.0203 -0.3966  0.5785
  684TIP3    H1 2058   2.520   5.533   4.034  0.2603  1.0282 -0.0296
  684TIP3    H2 2059   2.400   5.487   4.114  1.1952 -1.2979  0.1053
  685TIP3   OH2 2060   3.185   0.284   4.817  0.0027  0.0294  0.3971
  685TIP3    H1 2061   3.159   0.299   4.909  0.9090  0.1072  0.6460
  685TIP3    H2 2062   3.150   0.360   4.770  0.7922  0.7295  0.9254
  686TIP3   OH2 2063   5.689   2.050   1.842 -0.3110 -0.0370  0.6445
  686TIP3    H1 2064   5.697   2.057   1.747 -0.2659 -0.5660  0.6047
  686TIP3    H2 2065   5.770   2.007   1.870 -0.5748 -0.4062  0.8556
  687TIP3   OH2 2066   6.176   5.624   2.082  0.0059  0.3359 -0.3815
  687TIP3    H1 2067   6.121   5.671   2.146  1.4182 -1.2348  2.1837
  687TIP3    H2 2068   6.259   5.671   2.083 -0.4158  1.2391 -2.3947
  688TIP3   OH2 2069   1.836   0.250   4.935  0.1642 -0.4992  0.4868
  688TIP3    H1 2070   1.914   0.196   4.942  1.2925  1.0314  0.3930
  688TIP3    H2 2071   1.853   0.307   4.860 -1.5537 -0.8962 -0.2415
  689TIP3   OH2 2072   1.763   5.297   1.287  0.2791 -0.4885  0.5626
  689TIP3    H1 2073   1.705   5.366   1.256  1.3477  0.7387  1.1749
  689TIP3    H2 2074   1.768   5.311   1.382 -0.1514 -1.9538  0.8242
  690TIP3   OH2 2075   1.453   3.687   2.604 -0.0136  0.1603  0.9305
  690TIP3    H1 2076   1.519   3.676   2.535  0.2093 -0.2766  1.2093
  690TIP3    H2 2077   1.497   3.741   2.670 -1.1083  2.9587 -0.4457
  691TIP3   OH2 2078   4.330   2.148   4.777 -0.2577  0.1034  1.0779
  691TIP3    H1 2079   4.288   2.113   4.698 -0.7875  0.6496  1.1078
  691TIP3    H2 2080   4.343   2.241   4.758 -0.8323  0.3422  1.8101
  692TIP3   OH2 2081   5.966   5.131   3.004 -0.0050  0.2284 -0.1549
  692TIP3    H1 2082   5.995   5.149   2.914 -0.8895  0.5695 -0.3768
  692TIP3    H2 2083   5.873   5.151   3.004 -0.4050 -1.4898  0.3809
  693TIP3   OH2 2084   3.520   3.017   1.513 -0.0512 -0.0755  0.1250
  693TIP3    H1 2085   3.502   3.002   1.420 -1.2884 -0.1408  0.3544
  693TIP3    H2 2086   3.578   3.093   1.514  2.2659 -1.6827 -0.8108
  694TIP3   OH2 2087   5.275   4.581   2.506 -0.0086  0.2294 -0.3433
  694TIP3    H1 2088   5.352   4.537   2.470 -0.3554 -1.1243  0.4825
  694TIP3    H2 2089   5.308   4.629   2.581 -0.1169 -1.2827  0.7076
  695TIP3   OH2 2090   0.252   1.435   2.531 -0.8016  0.3401 -0.5110
  695TIP3    H1 2091   0.187   1.402   2.593 -0.3891  0.6224  0.0749
  695TIP3    H2 2092   0.332   1.444   2.582 -0.1384 -0.5447 -1.3623
  696TIP3   OH2 2093   5.951   4.111   0.061  0.7531 -0.5528 -0.2391
  696TIP3    H1 2094   5.948   4.206   0.060 -0.0426 -0.5744 -0.1072
  696TIP3    H2 2095   5.950   4.086  -0.032  0.6788 -0.4463 -0.2662
  697TIP3   OH2 2096   0.327   2.180   4.773  0.2882  0.6176  0.4867
  697TIP3    H1 2097   0.365   2.267   4.782 -0.3931  0.8829  0.8436
  697TIP3    H2 2098   0.399   2.120   4.793  0.7524  1.0895  0.2725
  698TIP3   OH2 2099   0.289   1.032   2.137 -0.1228 -0.0038  0.3492
  698TIP3    H1 2100   0.206   1.065   2.173 -0.1189  0.4386 -0.0483
  698TIP3    H2 2101   0.282   0.937   2.148 -0.7308  0.0172  0.2234
  699TIP3   OH2 2102   4.731   2.999   1.175 -0.1830 -0.2908 -0.1313
  699TIP3    H1 2103   4.798   2.942   1.213 -0.1175 -1.3821 -1.7352
  699TIP3    H2 2104   4.765   3.020   1.088 -1.0736  0.7061 -0.2559
  700TIP3   OH2 2105   3.677   2.548   1.365 -0.4626  0.0684 -0.1187
  700TIP3    H1 2106   3.590   2.576   1.339 -0.6085 -0.1239  0.1612
  700TIP3    H2 2107   3.663   2.469   1.418 -0.2512  1.0366  1.4371
  701TIP3   OH2 2108   5.743   2.167   3.706  0.2049  0.3407 -0.3443
  701TIP3    H1 2109   5.726   2.138   3.617 -1.2145  1.7315 -0.5568
  701TIP3    H2 2110   5.838   2.178   3.710  0.6597 -2.5819 -0.7329
  702TIP3   OH2 2111   3.402   1.676   0.702 -0.6971 -0.1286  0.1444
  702TIP3    H1 2112   3.312   1.656   0.676 -0.6888  0.1469 -0.1041
  702TIP3    H2 2113   3.419   1.619   0.777 -0.6613 -1.0700 -0.5536
  703TIP3   OH2 2114   6.162   0.832   0.399 -0.1313 -0.2048  0.1259
  703TIP3    H1 2115   6.179   0.885   0.477  0.7396 -0.8898  0.4177
  703TIP3    H2 2116   6.241   0.840   0.346 -0.8916  0.6300 -0.9330
  704TIP3   OH2 2117   4.184   1.374   4.111  0.0804  0.5805 -0.6138
  704TIP3    H1 2118   4.211   1.348   4.199  1.7336  0.9500 -0.9733
  704TIP3    H2 2119   4.221   1.306   4.054  0.4542  1.2158 -1.1481
  705TIP3   OH2 2120   4.527   2.068   2.402 -0.0914 -0.4548  0.5220
  705TIP3    H1 2121   4.497   2.056   2.492  0.2121 -3.0643  0.3469
  705TIP3    H2 2122   4.610   2.020   2.397 -0.1390 -0.4387 -1.1720
  706TIP3   OH2 2123   3.094   1.219   4.368  0.0082  0.5407 -0.7425
  706TIP3    H1 2124   3.119   1.303   4.406 -0.9897  0.8945 -0.8315
  706TIP3    H2 2125   3.067   1.241   4.279 -2.4726  0.5150 -0.0643
  707TIP3   OH2 2126   5.263   2.241   5.178 -0.1001 -0.5522 -0.1700
  707TIP3    H1 2127   5.197   2.193   5.128  0.0050 -0.8704 -0.0076
  707TIP3    H2 2128   5.347   2.214   5.139  0.0241 -1.2768  0.5646
  708TIP3   OH2 2129   2.310   5.978   2.813  0.1825  0.3459  0.6129
  708TIP3    H1 2130   2.251   5.930   2.755 -0.7832  0.8003  1.1902
  708TIP3    H2 2131   2.383   5.918   2.829  1.7546  1.0664 -2.9985
  709TIP3   OH2 2132   5.753   5.618   4.927 -0.5073 -0.0526  0.6190
  709TIP3    H1 2133   5.793   5.675   4.993 -0.9174 -1.2924  1.9934
  709TIP3    H2 2134   5.824   5.561   4.898 -0.3944  0.3032  0.1834
  710TIP3   OH2 2135   5.723   2.533   2.969  0.7927 -0.2300  0.0860
  710TIP3    H1 2136   5.806   2.563   3.005 -0.2399  0.1287  2.3563
  710TIP3    H2 2137   5.657   2.581   3.019 -0.8076 -1.0681 -1.1260
  711TIP3   OH2 2138   1.980   3.219   0.450  0.7184 -0.4107  0.2462
  711TIP3    H1 2139   1.908   3.268   0.489  1.9406  1.6512  0.0519
  711TIP3    H2 2140   2.055   3.239   0.506  1.4603 -1.2937 -0.4177
  712TIP3   OH2 2141   1.363   2.425   5.040  0.0191 -0.4839  0.5965
  712TIP3    H1 2142   1.358   2.520   5.046  0.4495 -0.2492 -1.9818
  712TIP3    H2 2143   1.429   2.401   5.106  0.6682  1.1147  0.5773
  713TIP3   OH2 2144   5.760   3.741   2.416  0.3126  0.0302  0.3333
  713TIP3    H1 2145   5.752   3.689   2.336  0.3420  0.6794 -0.0904
  713TIP3    H2 2146   5.803   3.822   2.389  1.3247 -0.1942  1.2024
  714TIP3   OH2 2147   1.479   3.313   3.776  0.1207  0.5742 -0.2672
  714TIP3    H1 2148   1.532   3.238   3.801  0.4654  0.5487 -1.0195
  714TIP3    H2 2149   1.543   3.377   3.744 -0.2992  0.5160 -1.2564
  715TIP3   OH2 2150   3.923   4.876   3.839 -0.0934 -0.1217 -0.5314
  715TIP3    H1 2151   3.955   4.932   3.910 -0.6148 -0.8902  0.3259
  715TIP3    H2 2152   3.910   4.790   3.880 -2.1445 -0.1286 -1.1152
  716TIP3   OH2 2153   4.157   4.657   3.936  0.4280 -0.3382  0.1390
  716TIP3    H1 2154   4.086   4.718   3.913  0.8263  0.2672  0.4799
  716TIP3    H2 2155   4.158   4.656   4.031  0.2566 -1.0874  0.1336
  717TIP3   OH2 2156   0.317   0.338   2.984  0.9643  0.1845  0.0341
  717TIP3    H1 2157   0.236   0.359   3.030 -0.1917 -0.4254 -1.6085
  717TIP3    H2 2158   0.299   0.359   2.892  2.6739  0.0228 -0.3805
  718TIP3   OH2 2159   0.117   5.192   5.112  0.0650  0.7588  0.2017
  718TIP3    H1 2160   0.156   5.208   5.026  0.1013  1.2182  0.2973
  718TIP3    H2 2161   0.072   5.274   5.133 -2.7686 -0.3970 -0.8313
  719TIP3   OH2 2162   0.702   5.128   0.723 -0.0163  0.6187  0.0503
  719TIP3    H1 2163   0.797   5.135   0.731 -0.0254  1.4911 -0.4930
  719TIP3    H2 2164   0.668   5.187   0.790 -0.1535  1.3182 -0.6204
  720TIP3   OH2 2165   4.282   1.890   1.179  0.7442  0.6178  0.0071
  720TIP3    H1 2166   4.351   1.852   1.125  0.0425 -0.4942 -0.1256
  720TIP3    H2 2167   4.329   1.945   1.242  1.8215 -0.7001  0.4064
  721TIP3   OH2 2168   5.308   2.869   3.518 -0.3579 -0.6471  0.4377
  721TIP3    H1 2169   5.376   2.901   3.577 -0.4343 -0.0216  0.1927
  721TIP3    H2 2170   5.265   2.798   3.567 -1.1444  0.5798  1.5806
  722TIP3   OH2 2171   3.276   1.762   4.345 -0.6604 -0.5380 -0.1767
  722TIP3    H1 2172   3.298   1.670   4.328  3.2442  0.2026 -0.0160
  722TIP3    H2 2173   3.281   1.803   4.259 -3.0200 -0.4700 -0.3504
  723TIP3   OH2 2174   0.901   1.736   4.716  0.0868  0.2760  0.4979
  723TIP3    H1 2175   0.941   1.785   4.789  0.4596 -2.2435  2.1099
  723TIP3    H2 2176   0.807   1.746   4.730  0.1498 -0.3304  1.4892
  724TIP3   OH2 2177   0.134   0.080   0.264  0.5989  0.4472  0.1561
  724TIP3    H1 2178   0.213   0.089   0.210 -1.2391  0.1138 -2.8099
  724TIP3    H2 2179   0.084   0.159   0.247  0.2721  0.6965  2.0629
  725TIP3   OH2 2180   4.796   3.936   1.036 -0.3266  0.1538 -0.0005
  725TIP3    H1 2181   4.847   3.916   1.115 -2.0241  4.0349  2.3804
  725TIP3    H2 2182   4.859   3.927   0.964  1.4785 -2.9824  1.7362
  726TIP3   OH2 2183   3.977   3.819   4.708 -0.5014 -0.3055  0.4071
  726TIP3    H1 2184   3.961   3.850   4.797 -0.8363  0.3910  0.1157
  726TIP3    H2 2185   3.893   3.782   4.681 -1.1574  1.6636 -0.4582
  727TIP3   OH2 2186   3.265   5.129   2.720  0.3039 -0.0904  0.5252
  727TIP3    H1 2187   3.352   5.169   2.730  0.7330 -0.9764  0.3932
  727TIP3    H2 2188   3.236   5.156   2.633  0.5795 -0.0509  0.4432
  728TIP3   OH2 2189   2.640   3.922   1.064  0.0750  0.7615 -0.2952
  728TIP3    H1 2190   2.613   3.913   1.155 -0.8490 -1.6900 -0.7385
  728TIP3    H2 2191   2.735   3.934   1.068  0.3350 -1.2762  0.9741
  729TIP3   OH2 2192   3.130   5.920   2.849  0.1771 -0.3089  0.3476
  729TIP3    H1 2193   3.043   5.883   2.834 -0.0514  0.6416 -0.8639
  729TIP3    H2 2194   3.135   5.931   2.944 -0.8017 -0.8712  0.4885
  730TIP3   OH2 2195   6.211   2.451   2.008  0.2640 -0.0085  0.0696
  730TIP3    H1 2196   6.296   2.420   2.039  0.8214  0.6936 -0.7120
  730TIP3    H2 2197   6.155   2.373   2.007  1.4212 -0.8490 -1.1519
  731TIP3   OH2 2198   0.150   1.296   2.746 -0.5048  0.0295  0.4410
  731TIP3    H1 2199   0.090   1.297   2.822 -0.4860 -0.4677  0.4667
  731TIP3    H2 2200   0.234   1.268   2.783 -0.0793  1.3336  0.5206
  732TIP3   OH2 2201   4.566   3.080   1.542  0.8319 -0.0915  0.2423
  732TIP3    H1 2202   4.539   3.124   1.623  0.7595 -0.4158  0.3957
  732TIP3    H2 2203   4.529   2.992   1.550 -0.4289  0.3191 -0.7968
  733TIP3   OH2 2204   0.463   5.301   2.769  0.4240 -0.4460  0.1061
  733TIP3    H1 2205   0.434   5.284   2.680  0.7375  2.1845 -0.5832
  733TIP3    H2 2206   0.530   5.369   2.760 -0.4323  0.8067  2.4129
  734TIP3   OH2 2207   0.600   4.228   0.480 -0.3090 -0.3438  0.2534
  734TIP3    H1 2208   0.618   4.141   0.445 -2.4655 -0.8894  0.3180
  734TIP3    H2 2209   0.556   4.212   0.564 -1.7492  0.7394 -0.2472
  735TIP3   OH2 2210   3.979   5.009   0.549 -0.0818 -0.0562 -0.2745
  735TIP3    H1 2211   3.947   5.048   0.630 -0.4896 -1.2973  0.1857
  735TIP3    H2 2212   3.927   4.929   0.539  1.0749 -0.7527 -0.9141
  736TIP3   OH2 2213   4.398   2.224   0.224  0.5110  0.2283 -0.9556
  736TIP3    H1 2214   4.491   2.201   0.227  0.4214 -0.0687  0.2466
  736TIP3    H2 2215   4.374   2.217   0.132  1.2609 -1.4674 -1.0669
  737TIP3   OH2 2216   3.551   3.777   4.768 -0.1957 -0.4230 -0.3226
  737TIP3    H1 2217   3.630   3.800   4.818  0.4120 -1.2756 -0.8689
  737TIP3    H2 2218   3.481   3.778   4.833  0.5710 -1.5013  0.5645
  738TIP3   OH2 2219   1.208   4.238   4.207 -0.1862 -0.2813 -0.0937
  738TIP3    H1 2220   1.265   4.275   4.274  0.1752 -1.2550  0.1610
  738TIP3    H2 2221   1.244   4.268   4.124  1.6486 -2.0980 -0.0216
  739TIP3   OH2 2222   0.722   1.014   3.445  0.3794  0.0245  0.1108
  739TIP3    H1 2223   0.651   1.060   3.400 -0.8905  0.3397  2.3027
  739TIP3    H2 2224   0.694   1.010   3.536  2.9783 -0.2631  0.9816
  740TIP3   OH2 2225   4.718   2.630   0.459 -0.2009 -0.6628  0.2388
  740TIP3    H1 2226   4.689   2.577   0.385  0.6520 -2.0234  0.8413
  740TIP3    H2 2227   4.772   2.571   0.511  2.3640  1.2794 -0.0229
  741TIP3   OH2 2228   6.156   5.776   1.365  0.4934 -0.3068  0.0884
  741TIP3    H1 2229   6.089   5.842   1.384  1.5805  0.4946  1.3720
  741TIP3    H2 2230   6.169   5.781   1.270 -0.0240  0.7677  0.0586
  742TIP3   OH2 2231   5.097   1.536   4.584  0.1433 -0.1962  0.0122
  742TIP3    H1 2232   5.183   1.566   4.615 -0.2124  0.0196  0.8183
  742TIP3    H2 2233   5.037   1.605   4.609 -0.4553 -0.9008  0.5601
  743TIP3   OH2 2234   2.830   3.886   2.438 -0.2276 -0.2612  0.6799
  743TIP3    H1 2235   2.875   3.804   2.457 -0.5637 -0.4007  0.8893
  743TIP3    H2 2236   2.787   3.909   2.521  0.7087  0.6607  0.9180
  744TIP3   OH2 2237   4.534   3.799   5.007  0.0002 -0.7308 -0.0265
  744TIP3    H1 2238   4.549   3.878   4.956  0.6493 -0.5615  0.4077
  744TIP3    H2 2239   4.449   3.813   5.049  0.2733 -0.0950  0.3391
  745TIP3   OH2 2240   0.458   2.705   2.774  0.0380  0.1913  0.3893
  745TIP3    H1 2241   0.386   2.666   2.825  0.6297 -1.1877  0.2051
  745TIP3    H2 2242   0.527   2.721   2.838  0.4119 -0.6261  0.2047
  746TIP3   OH2 2243   3.799   5.553   1.219 -0.0910  0.8491  0.3041
  746TIP3    H1 2244   3.753   5.469   1.223  0.0496  0.6798 -1.1113
  746TIP3    H2 2245   3.795   5.587   1.308 -1.1478 -0.1283  0.6516
  747TIP3   OH2 2246   1.148   1.475   3.701  0.0189 -0.5904  0.2792
  747TIP3    H1 2247   1.173   1.385   3.722  0.2670 -0.5398  0.2001
  747TIP3    H2 2248   1.189   1.492   3.616  2.8035  0.7255  1.7443
  748TIP3   OH2 2249   4.360   3.884   0.075  0.3147  0.1164  0.4950
  748TIP3    H1 2250   4.312   3.852  -0.002 -1.5425 -1.9351  2.3752
  748TIP3    H2 2251   4.345   3.979   0.074 -2.8585 -0.2536  0.2693
  749TIP3   OH2 2252   1.668   1.841   4.750 -0.2966 -0.1478  0.1017
  749TIP3    H1 2253   1.751   1.829   4.702  0.4411  1.8173  0.7910
  749TIP3    H2 2254   1.651   1.935   4.744 -1.7452 -0.3183  1.2128
  750TIP3   OH2 2255   1.236   4.942   2.926  0.3324  0.3154 -0.2502
  750TIP3    H1 2256   1.329   4.921   2.934  0.3770  0.6933  0.2965
  750TIP3    H2 2257   1.227   4.978   2.838  1.1131  2.2054  0.3776
  751TIP3   OH2 2258   2.705   4.915   1.254  0.3128  0.3154 -0.1786
  751TIP3    H1 2259   2.696   4.968   1.175  0.9263  1.2425  0.3488
  751TIP3    H2 2260   2.634   4.944   1.310 -0.1296 -0.3514 -0.3837
  752TIP3   OH2 2261   3.626   3.878   0.974 -0.4804 -0.3493 -0.1647
  752TIP3    H1 2262   3.571   3.895   1.050  0.5948 -0.0059  0.5558
  752TIP3    H2 2263   3.634   3.783   0.971  1.4784 -0.3109  1.6647
  753TIP3   OH2 2264   4.904   3.464   3.445 -0.3888  0.6067 -0.1426
  753TIP3    H1 2265   4.922   3.534   3.507  0.8695 -0.5294  0.8532
  753TIP3    H2 2266   4.966   3.479   3.373 -0.4363  0.7746 -0.1476
  754TIP3   OH2 2267   2.685   2.359   3.080 -0.2329  0.4361  0.4006
  754TIP3    H1 2268   2.775   2.387   3.098 -0.0296  0.6267 -0.8357
  754TIP3    H2 2269   2.632   2.409   3.142  0.5585 -0.1109  1.5342
  755TIP3   OH2 2270   4.385   1.187   2.571 -0.0363 -0.5497  0.3028
  755TIP3    H1 2271   4.389   1.164   2.664 -0.3801 -0.8918  0.2324
  755TIP3    H2 2272   4.312   1.248   2.564  0.1276 -0.3517  0.2893
  756TIP3   OH2 2273   4.353   3.657   3.852  0.0722 -0.0356  0.1695
  756TIP3    H1 2274   4.324   3.714   3.923  1.1653 -0.0427  0.6327
  756TIP3    H2 2275   4.371   3.573   3.894 -0.6115 -0.4558 -0.3511
  757TIP3   OH2 2276   4.704   0.717   3.923  0.1398  0.0306  0.5702
  757TIP3    H1 2277   4.621   0.714   3.877  0.5245  0.5779 -0.1808
  757TIP3    H2 2278   4.721   0.810   3.938  1.2456  0.0326 -0.4932
  758TIP3   OH2 2279   2.279   5.740   4.192 -0.5480  0.9289 -0.4695
  758TIP3    H1 2280   2.331   5.692   4.128 -1.0780 -1.5684  0.8670
  758TIP3    H2 2281   2.194   5.752   4.150 -0.0783  1.7585 -1.2355
  759TIP3   OH2 2282   6.203   1.020   4.354  0.0868  1.0645 -0.0757
  759TIP3    H1 2283   6.183   0.960   4.283  1.5242  1.4842 -0.8810
  759TIP3    H2 2284   6.237   0.964   4.424 -0.8672  0.7032  0.1083
  760TIP3   OH2 2285   0.319   4.523   0.615 -0.0350 -0.4146  0.5247
  760TIP3    H1 2286   0.249   4.541   0.553 -0.3408 -2.2750  0.2714
  760TIP3    H2 2287   0.400   4.536   0.564 -0.2823 -1.9385 -0.3347
  761TIP3   OH2 2288   2.482   5.547   3.267  0.5096 -0.2682  0.0164
  761TIP3    H1 2289   2.480   5.632   3.312 -1.0323  0.6536 -1.6704
  761TIP3    H2 2290   2.500   5.484   3.337 -1.1031  1.1276  1.8280
  762TIP3   OH2 2291   6.191   0.637   1.433 -0.5397 -0.4791 -0.5804
  762TIP3    H1 2292   6.161   0.571   1.370  1.6737 -2.2130  0.0552
  762TIP3    H2 2293   6.270   0.674   1.393  1.2305 -2.0101  1.3340
  763TIP3   OH2 2294   6.036   2.102   3.433 -0.2735  0.0348  0.0561
  763TIP3    H1 2295   6.045   2.189   3.394  1.2682 -0.4688 -0.8017
  763TIP3    H2 2296   6.001   2.118   3.521 -1.3254  1.3926 -0.5732
  764TIP3   OH2 2297   3.371   5.739   4.716  0.4218  0.4329 -0.1746
  764TIP3    H1 2298   3.452   5.779   4.750  1.2666 -0.6785 -0.8111
  764TIP3    H2 2299   3.305   5.807   4.728  1.2139  1.0048  1.3238
  765TIP3   OH2 2300   1.257   5.894   2.917  0.1884  0.2699  0.2098
  765TIP3    H1 2301   1.348   5.908   2.944  0.0698 -1.0064  1.3441
  765TIP3    H2 2302   1.264   5.855   2.830  0.7033  0.7457  0.0319
  766TIP3   OH2 2303   3.903   4.782   2.871  0.1822  0.1833  0.1421
  766TIP3    H1 2304   3.827   4.807   2.818  0.9686  0.1758 -1.0331
  766TIP3    H2 2305   3.977   4.827   2.830  1.1679 -1.6073 -0.1540
  767TIP3   OH2 2306   0.555   5.897   0.169  0.1544 -0.1827  0.2249
  767TIP3    H1 2307   0.466   5.929   0.181 -0.0064 -0.4174 -0.3072
  767TIP3    H2 2308   0.602   5.928   0.246 -0.4439 -0.2578  0.6330
  768TIP3   OH2 2309   5.188   3.950   4.833 -0.5339  0.2656 -0.3201
  768TIP3    H1 2310   5.262   3.953   4.773  0.1714  0.6862  0.5500
  768TIP3    H2 2311   5.227   3.960   4.920 -1.2686 -2.5352  0.4413
  769TIP3   OH2 2312   1.747   2.952   0.564  0.7114  0.2466 -0.1210
  769TIP3    H1 2313   1.666   2.950   0.513  0.4463 -0.9334  0.3238
  769TIP3    H2 2314   1.753   3.043   0.595  0.4987  0.8029 -1.6126
  770TIP3   OH2 2315   3.299   1.914   3.163  0.1819 -0.1843  0.1489
  770TIP3    H1 2316   3.360   1.840   3.164  0.1335 -0.2271 -0.1726
  770TIP3    H2 2317   3.233   1.890   3.099 -0.9534 -0.7690  1.4904
  771TIP3   OH2 2318   1.991   2.287   3.338  0.2264 -0.3520  0.2895
  771TIP3    H1 2319   2.001   2.206   3.389  0.5265  0.0465  0.8675
  771TIP3    H2 2320   2.047   2.273   3.261 -0.4420 -1.0679 -0.0838
  772TIP3   OH2 2321   4.038   2.546   4.108  0.0341 -0.0128  0.3261
  772TIP3    H1 2322   3.977   2.486   4.064  0.4884 -0.0634 -0.2444
  772TIP3    H2 2323   4.102   2.488   4.150  1.0849  0.0455 -1.0895
  773TIP3   OH2 2324   0.661   2.129   3.171 -0.2449 -0.1264 -0.7493
  773TIP3    H1 2325   0.693   2.167   3.253 -1.5582  0.4146 -0.4637
  773TIP3    H2 2326   0.725   2.062   3.149  0.8132  0.6040  0.0353
  774TIP3   OH2 2327   1.639   3.458   2.160  0.1005  0.2184  0.2336
  774TIP3    H1 2328   1.613   3.372   2.191  1.5932 -0.2399  0.2730
  774TIP3    H2 2329   1.584   3.473   2.083  0.0759 -0.9384  0.0089
  775TIP3   OH2 2330   4.990   2.102   2.964 -0.0486 -0.5763  0.2389
  775TIP3    H1 2331   4.895   2.094   2.966 -0.1416 -0.5182 -1.8261
  775TIP3    H2 2332   5.007   2.170   2.899  1.4253 -1.8807 -0.8161
  776TIP3   OH2 2333   5.786   2.952   3.348  0.1026  0.1786 -0.6204
  776TIP3    H1 2334   5.717   3.018   3.348 -0.6730 -0.4970  1.8910
  776TIP3    H2 2335   5.816   2.949   3.439  1.7277 -1.3009 -1.1476
  777TIP3   OH2 2336   1.794   3.943   0.366  0.3535  0.2864 -0.4915
  777TIP3    H1 2337   1.742   4.015   0.402  1.0365  0.3110  0.4761
  777TIP3    H2 2338   1.818   3.974   0.278  1.2961  1.6059  0.1869
  778TIP3   OH2 2339   6.220   2.506   4.529 -0.6597  0.2565  0.2893
  778TIP3    H1 2340   6.225   2.600   4.510 -0.5703  0.0532 -0.7663
  778TIP3    H2 2341   6.281   2.492   4.601 -1.9459  1.2956  1.6326
  779TIP3   OH2 2342   5.404   0.312   4.714 -0.5332 -0.2754  0.2825
  779TIP3    H1 2343   5.323   0.362   4.701 -0.1913 -0.0465 -1.1302
  779TIP3    H2 2344   5.473   0.377   4.703 -0.0594 -1.0816 -2.0730
  780TIP3   OH2 2345   5.821   2.304   1.310  0.6140  0.7110 -0.2243
  780TIP3    H1 2346   5.824   2.212   1.285 -0.2028  0.9677 -1.3450
  780TIP3    H2 2347   5.913   2.330   1.319  0.9170  0.3435 -2.0535
  781TIP3   OH2 2348   2.001   5.570   0.343 -0.2921  0.2590  0.0501
  781TIP3    H1 2349   1.991   5.493   0.398 -0.1162  1.1102  1.3262
  781TIP3    H2 2350   1.934   5.631   0.374  0.2993  1.0407 -0.1662
  782TIP3   OH2 2351   0.121   4.890   2.865  0.0924  0.0122  0.8764
  782TIP3    H1 2352   0.165   4.880   2.949  0.0563  0.0265  0.8971
  782TIP3    H2 2353   0.142   4.810   2.816  2.0231  0.9815  0.0096
  783TIP3   OH2 2354   4.058   1.243   4.922 -0.0679  0.1429 -0.3192
  783TIP3    H1 2355   4.108   1.316   4.884  0.7892 -0.3289 -0.1234
  783TIP3    H2 2356   4.004   1.285   4.989  0.4297  0.6060 -0.1912
  784TIP3   OH2 2357   2.085   3.292   3.445  0.3858  0.2884  0.3849
  784TIP3    H1 2358   1.995   3.276   3.418  0.0143  2.2350  0.3340
  784TIP3    H2 2359   2.122   3.347   3.376  1.7730 -0.8477  0.1827
  785TIP3   OH2 2360   2.128   5.349   4.885 -0.2663  0.2956 -0.1173
  785TIP3    H1 2361   2.074   5.302   4.822 -0.3547  1.1216 -0.6803
  785TIP3    H2 2362   2.070   5.368   4.958  0.0269 -1.3343  0.6008
  786TIP3   OH2 2363   6.098   5.105   0.644 -0.8827 -0.2646 -0.2155
  786TIP3    H1 2364   6.101   5.035   0.579 -0.8164 -0.2938 -0.1814
  786TIP3    H2 2365   6.061   5.179   0.597  1.8256  0.6273 -1.1634
  787TIP3   OH2 2366   4.526   1.714   4.073 -0.6059  0.0633 -0.3506
  787TIP3    H1 2367   4.471   1.775   4.024  0.8690  0.6069 -1.3648
  787TIP3    H2 2368   4.615   1.746   4.062 -0.0369 -0.8884  1.1471
  788TIP3   OH2 2369   5.826   2.843   3.605 -0.2552 -0.3676 -0.3031
  788TIP3    H1 2370   5.914   2.813   3.581 -0.5607 -2.3055  0.7789
  788TIP3    H2 2371   5.821   2.829   3.699 -0.8038  2.3473  0.1494
  789TIP3   OH2 2372   2.072   5.477   1.745 -0.2351 -0.5766  0.3782
  789TIP3    H1 2373   2.159   5.478   1.785 -0.2999 -0.7643  0.5208
  789TIP3    H2 2374   2.061   5.387   1.713  0.8715  0.1538 -2.3350
  790TIP3   OH2 2375   2.970   4.581   1.765  0.2570 -0.2730  0.2405
  790TIP3    H1 2376   2.918   4.500   1.761  2.2014 -1.6111  0.9228
  790TIP3    H2 2377   3.048   4.558   1.815  1.3165  1.7881 -0.3369
  791TIP3   OH2 2378   5.780   2.116   0.081 -0.4168  0.2670  0.2275
  791TIP3    H1 2379   5.857   2.116   0.138 -0.2425 -0.6866  0.0183
  791TIP3    H2 2380   5.803   2.175   0.010 -0.3686  0.9404  0.7872
  792TIP3   OH2 2381   1.001   3.569   2.383 -0.2756 -0.0349  0.7831
  792TIP3    H1 2382   1.081   3.541   2.429 -1.5007  0.3595  3.3164
  792TIP3    H2 2383   0.945   3.492   2.386 -0.2139 -0.1360 -0.4983
  793TIP3   OH2 2384   0.256   3.068   0.434 -0.3377  0.1643 -0.0352
  793TIP3    H1 2385   0.206   2.988   0.453 -0.5856  0.5560  1.0364
  793TIP3    H2 2386   0.199   3.119   0.377 -0.3317 -0.2612 -0.4278
  794TIP3   OH2 2387   3.088   2.058   2.163  0.3784 -0.1083  0.4539
  794TIP3    H1 2388   3.046   2.086   2.082 -0.9505  1.0256  1.4631
  794TIP3    H2 2389   3.015   2.051   2.226  1.5279  0.6400  1.9427
  795TIP3   OH2 2390   3.954   3.957   2.449  0.1547 -0.2338 -0.4242
  795TIP3    H1 2391   4.021   4.025   2.450 -1.4700  1.4430 -0.0890
  795TIP3    H2 2392   3.976   3.903   2.374  0.6132  1.6196 -1.7020
  796TIP3   OH2 2393   6.191   4.800   0.807  0.4230 -0.5200 -0.0012
  796TIP3    H1 2394   6.229   4.842   0.730 -1.8736  0.8563 -0.4859
  796TIP3    H2 2395   6.257   4.810   0.875  0.5768  2.7915 -0.4608
  797TIP3   OH2 2396   0.359   4.997   0.179 -0.0865 -0.5006 -0.4878
  797TIP3    H1 2397   0.406   4.947   0.246 -0.7688 -1.8406 -0.9888
  797TIP3    H2 2398   0.412   5.076   0.168 -0.4260  0.2405  2.2857
  798TIP3   OH2 2399   3.338   2.527   0.715 -0.3844 -0.2716 -0.1364
  798TIP3    H1 2400   3.373   2.440   0.739  1.3025  0.2106 -0.6910
  798TIP3    H2 2401   3.358   2.536   0.622 -0.0751  0.9191  0.0300
  799TIP3   OH2 2402   0.737   3.036   4.463  0.0746 -0.7008  0.6956
  799TIP3    H1 2403   0.827   3.010   4.447 -0.0086 -1.7955  1.8358
  799TIP3    H2 2404   0.743   3.128   4.491  0.8251 -0.7559  0.7334
  800TIP3   OH2 2405   6.337   1.887   3.112 -0.3089  0.6197 -0.0980
  800TIP3    H1 2406   6.249   1.851   3.124 -0.4129  0.9045 -0.0047
  800TIP3    H2 2407   6.324   1.963   3.056  0.0266 -0.0212 -1.0713
  801TIP3   OH2 2408   6.084   3.034   4.928  0.5219  0.2981  0.7767
  801TIP3    H1 2409   6.063   3.127   4.924 -0.1780  0.0922 -1.7336
  801TIP3    H2 2410   6.000   2.990   4.938  0.8971 -0.0862  2.5607
  802TIP3   OH2 2411   3.899   0.994   4.022  0.2575  0.2613 -0.4363
  802TIP3    H1 2412   3.982   1.018   3.980  1.4493  1.6334  2.4552
  802TIP3    H2 2413   3.838   0.985   3.949  2.5535  0.7436 -2.5728
  803TIP3   OH2 2414   5.273   4.822   1.581 -0.0501 -0.4560  0.5093
  803TIP3    H1 2415   5.331   4.882   1.534 -1.0497 -0.3395 -0.6172
  803TIP3    H2 2416   5.232   4.877   1.649  0.1136 -0.2095  0.4090
  804TIP3   OH2 2417   2.943   3.713   1.435  0.1927  0.4327 -0.1581
  804TIP3    H1 2418   2.971   3.798   1.469 -1.1823  0.4185  1.1429
  804TIP3    H2 2419   3.017   3.682   1.383  2.3828  0.5865  2.6449
  805TIP3   OH2 2420   2.290   1.220   2.054 -0.3840  0.0128 -0.0518
  805TIP3    H1 2421   2.340   1.294   2.090 -0.3350 -0.6245  1.2634
  805TIP3    H2 2422   2.337   1.195   1.975  1.3137 -0.4339  1.0386
  806TIP3   OH2 2423   1.993   0.439   4.783  0.0009  0.5859 -0.0331
  806TIP3    H1 2424   2.047   0.420   4.860  0.3611  0.7899 -0.2336
  806TIP3    H2 2425   2.055   0.444   4.711 -0.0937  2.2459 -0.0463
  807TIP3   OH2 2426   0.311   1.778   3.686  0.5079 -0.1586 -0.5015
  807TIP3    H1 2427   0.362   1.795   3.607  1.0040  1.3684  0.1153
  807TIP3    H2 2428   0.377   1.766   3.755  0.1241 -2.5736 -0.4533
  808TIP3   OH2 2429   5.952   2.119   0.303  0.3578  0.3706  0.2496
  808TIP3    H1 2430   5.996   2.168   0.373 -0.6285  0.5023  0.7952
  808TIP3    H2 2431   6.022   2.098   0.242  1.3314 -0.1166  1.4786
  809TIP3   OH2 2432   3.207   4.654   1.257  0.0734  0.2558  0.5480
  809TIP3    H1 2433   3.235   4.738   1.221  0.4680 -0.0359  0.1613
  809TIP3    H2 2434   3.184   4.673   1.348 -1.1749  1.0530  0.0874
  810TIP3   OH2 2435   6.021   0.524   1.617 -0.2524  0.5928  0.5422
  810TIP3    H1 2436   6.039   0.576   1.696  3.1109  0.7944 -0.1971
  810TIP3    H2 2437   6.080   0.560   1.551  0.9488 -2.9621 -0.5383
  811TIP3   OH2 2438   6.018   5.300   3.259 -0.3411 -0.7778 -0.1382
  811TIP3    H1 2439   6.053   5.262   3.179  1.3116 -0.5487  0.4475
  811TIP3    H2 2440   6.065   5.255   3.330 -2.8104 -2.0691  0.8240
  812TIP3   OH2 2441   2.526   1.846   0.295 -0.4597 -0.0024 -0.0394
  812TIP3    H1 2442   2.531   1.812   0.205 -0.3267  1.0209 -0.4339
  812TIP3    H2 2443   2.579   1.786   0.346 -0.5981 -0.6454 -0.6372
  813TIP3   OH2 2444   2.370   4.073   4.612  0.5731 -0.2166 -0.4747
  813TIP3    H1 2445   2.459   4.037   4.615 -0.3406 -2.6869 -0.1256
  813TIP3    H2 2446   2.366   4.121   4.529  2.2413  0.0327 -0.4451
  814TIP3   OH2 2447   4.074   0.953   2.605  0.3344  0.2954  0.0414
  814TIP3    H1 2448   4.098   1.012   2.677 -0.4308  0.7071 -0.0291
  814TIP3    H2 2449   3.990   0.916   2.631  0.5860 -0.4181 -0.1348
  815TIP3   OH2 2450   4.126   4.930   2.146  0.3592  0.0001 -0.3431
  815TIP3    H1 2451   4.067   4.958   2.076  0.3292 -1.8423 -1.1210
  815TIP3    H2 2452   4.204   4.983   2.135 -0.3668  1.0363 -0.5901
  816TIP3   OH2 2453   0.058   4.604   0.941  0.5046  0.2231  0.6347
  816TIP3    H1 2454   0.107   4.524   0.923  0.0839  0.1356 -0.1894
  816TIP3    H2 2455   0.120   4.675   0.925  0.3963  0.1109 -0.3309
  817TIP3   OH2 2456   5.238   2.792   3.812 -0.7113  0.1503 -0.0195
  817TIP3    H1 2457   5.248   2.887   3.800  0.8859  0.4448  2.8264
  817TIP3    H2 2458   5.145   2.780   3.833 -0.9041  1.1029 -0.2836
  818TIP3   OH2 2459   5.679   2.985   1.394  0.6612 -0.1895 -0.1016
  818TIP3    H1 2460   5.724   2.978   1.310  1.5292 -0.3804  0.3648
  818TIP3    H2 2461   5.749   3.008   1.456 -0.1158  0.8735  0.4091
  819TIP3   OH2 2462   2.518   2.977   3.044  0.0553 -0.1848 -0.1595
  819TIP3    H1 2463   2.552   3.035   2.975 -0.2504  2.6048  1.8368
  819TIP3    H2 2464   2.593   2.961   3.101  0.1206 -1.8286 -0.6582
  820TIP3   OH2 2465   2.596   2.223   0.156  0.4522  0.6549  0.1269
  820TIP3    H1 2466   2.521   2.262   0.113  1.2908  1.3817 -0.7262
  820TIP3    H2 2467   2.665   2.289   0.149  1.8972 -0.8793 -1.3217
  821TIP3   OH2 2468   3.334   5.010   1.489  0.8333  0.3128 -0.6296
  821TIP3    H1 2469   3.310   4.979   1.576  1.7341 -0.7141 -0.7355
  821TIP3    H2 2470   3.403   5.075   1.505  1.4372 -0.3279 -0.6058
  822TIP3   OH2 2471   4.621   4.827   1.252  0.0166 -0.2392  0.1054
  822TIP3    H1 2472   4.694   4.808   1.193  0.5880  2.7544 -0.2988
  822TIP3    H2 2473   4.649   4.791   1.337  0.6337 -1.6677 -0.6650
  823TIP3   OH2 2474   5.920   3.800   2.703 -0.2331 -0.0430 -0.0052
  823TIP3    H1 2475   6.010   3.786   2.672 -0.3907  1.0879 -1.0225
  823TIP3    H2 2476   5.913   3.894   2.716 -0.9383 -0.2357  1.1943
  824TIP3   OH2 2477   4.247   2.722   1.987  0.6382  0.1960 -0.1363
  824TIP3    H1 2478   4.232   2.646   2.043  2.2823 -0.8227 -0.9752
  824TIP3    H2 2479   4.187   2.710   1.913  2.5006 -1.6553 -1.4662
  825TIP3   OH2 2480   0.538   1.166   4.459 -0.2902 -0.3209  0.6976
  825TIP3    H1 2481   0.594   1.218   4.517  0.0789 -0.0865  0.1299
  825TIP3    H2 2482   0.573   1.077   4.466 -1.1853 -0.6129  2.0030
  826TIP3   OH2 2483   5.758   0.866   3.062 -0.4399  0.7874  0.1390
  826TIP3    H1 2484   5.688   0.847   3.124  0.9813 -0.1431  1.5372
  826TIP3    H2 2485   5.831   0.810   3.089  0.7799  1.5179 -1.4110
  827TIP3   OH2 2486   3.091   1.167   3.153 -0.1606  0.3416 -0.1733
  827TIP3    H1 2487   3.053   1.229   3.090 -0.7845  0.8232  0.6610
  827TIP3    H2 2488   3.018   1.111   3.178  0.6906 -1.7796 -2.0438
  828TIP3   OH2 2489   3.284   4.843   4.652  0.1394 -0.2612 -0.2206
  828TIP3    H1 2490   3.374   4.847   4.684  0.1008  1.8342 -0.2701
  828TIP3    H2 2491   3.243   4.773   4.704  1.7142 -1.0952 -0.0554
  829TIP3   OH2 2492   2.127   4.960   5.097  0.3370 -0.5515 -0.0953
  829TIP3    H1 2493   2.128   5.055   5.091  2.9208 -0.5831 -2.1246
  829TIP3    H2 2494   2.100   4.930   5.011 -0.0643 -1.6836  0.3954
  830TIP3   OH2 2495   4.472   0.395   2.890 -0.2374 -0.4570  0.0452
  830TIP3    H1 2496   4.495   0.437   2.807  0.3637 -0.7973  0.0369
  830TIP3    H2 2497   4.488   0.462   2.956  1.5440 -0.9263  0.1213
  831TIP3   OH2 2498   4.576   4.470   4.064  0.1847  0.5213  0.1126
  831TIP3    H1 2499   4.579   4.435   3.975  0.8804 -1.9831  1.0405
  831TIP3    H2 2500   4.550   4.395   4.118  3.2843  0.9555  2.4493
  832TIP3   OH2 2501   2.472   5.592   2.367  0.0739 -0.7837  0.0448
  832TIP3    H1 2502   2.448   5.574   2.458  0.1098 -2.1305 -0.1796
  832TIP3    H2 2503   2.562   5.623   2.371  0.3078 -1.4824  0.4394
  833TIP3   OH2 2504   4.405   5.370   2.464  0.1013  0.0294 -0.0020
  833TIP3    H1 2505   4.469   5.308   2.431  0.8058  0.7256  0.0073
  833TIP3    H2 2506   4.455   5.425   2.525 -0.7770 -0.1544  0.9050
  834TIP3   OH2 2507   6.056   3.410   2.703 -0.1958  0.4783 -0.3861
  834TIP3    H1 2508   6.119   3.481   2.689  0.5142 -0.5869 -3.0328
  834TIP3    H2 2509   5.972   3.447   2.677 -0.5081  1.4343  1.7553
  835TIP3   OH2 2510   4.886   5.674   3.744 -0.5311  0.0352 -0.2245
  835TIP3    H1 2511   4.847   5.758   3.766 -0.8434  0.1162 -1.0582
  835TIP3    H2 2512   4.957   5.695   3.684 -0.9203 -0.3237 -0.8288
  836TIP3   OH2 2513   5.296   4.427   4.459 -0.1185  0.2073  0.3649
  836TIP3    H1 2514   5.270   4.517   4.477  1.4735  0.6057  0.7323
  836TIP3    H2 2515   5.280   4.380   4.541  0.0605  0.3863  0.5020
  837TIP3   OH2 2516   3.438   2.540   1.061  0.2640  0.1416  0.4773
  837TIP3    H1 2517   3.488   2.459   1.049 -0.6447 -0.6103  1.5397
  837TIP3    H2 2518   3.497   2.609   1.030  2.1409 -0.6490  2.0280
  838TIP3   OH2 2519   1.385   5.265   1.213 -0.2763 -0.2285  0.2941
  838TIP3    H1 2520   1.447   5.338   1.204 -2.0875  1.5213  1.4365
  838TIP3    H2 2521   1.367   5.239   1.122  1.3722 -0.1498 -0.0912
  839TIP3   OH2 2522   0.823   3.708   1.982 -0.3096  0.1503 -0.0847
  839TIP3    H1 2523   0.898   3.767   1.987 -0.2816  0.2327 -1.2183
  839TIP3    H2 2524   0.846   3.634   2.039 -0.4396  1.2999  1.5267
  840TIP3   OH2 2525   5.343   1.965   5.020  0.0899 -0.6243  0.0427
  840TIP3    H1 2526   5.427   1.952   4.977  0.2960  1.0215 -0.1027
  840TIP3    H2 2527   5.292   2.018   4.958 -0.2333  0.3046  1.0801
  841TIP3   OH2 2528   2.480   4.249   0.134 -0.3930  0.1155 -0.1290
  841TIP3    H1 2529   2.488   4.228   0.041  2.3177 -0.5951  0.1531
  841TIP3    H2 2530   2.560   4.297   0.154 -1.0608  0.5121  1.7814
  842TIP3   OH2 2531   4.748   1.002   0.110 -0.0078 -0.2414  0.2543
  842TIP3    H1 2532   4.816   1.057   0.072  0.8028 -0.3544  1.4803
  842TIP3    H2 2533   4.692   1.062   0.159 -0.4559 -0.2270 -0.2644
  843TIP3   OH2 2534   5.678   3.716   1.258 -0.2548 -0.2484 -0.2416
  843TIP3    H1 2535   5.714   3.799   1.289 -0.1582 -0.4370  0.1549
  843TIP3    H2 2536   5.755   3.663   1.238 -0.1603 -1.7576  3.4555
  844TIP3   OH2 2537   0.009   4.110   3.279  0.5411  0.1676  0.2619
  844TIP3    H1 2538   0.090   4.140   3.320  1.0714 -0.5716 -0.2334
  844TIP3    H2 2539  -0.040   4.071   3.351  0.3274  1.1749  0.6898
  845TIP3   OH2 2540   1.478   4.571   1.579  0.1946  0.0251  0.4508
  845TIP3    H1 2541   1.438   4.515   1.512 -0.9712  0.1334  1.0269
  845TIP3    H2 2542   1.572   4.558   1.569 -0.0264 -1.1914 -0.1448
  846TIP3   OH2 2543   3.475   0.403   0.186  0.1528 -0.0837 -0.5266
  846TIP3    H1 2544   3.444   0.440   0.268  1.2220 -0.1914 -0.0584
  846TIP3    H2 2545   3.402   0.416   0.125 -0.2461  0.9711  0.1463
  847TIP3   OH2 2546   2.346   1.895   4.926 -0.4903 -0.0658  0.0914
  847TIP3    H1 2547   2.280   1.832   4.897  0.9620 -1.1201 -1.0930
  847TIP3    H2 2548   2.430   1.855   4.903  0.5998  1.1359  1.7113
  848TIP3   OH2 2549   1.419   3.035   3.014 -0.0835 -0.0069 -1.0783
  848TIP3    H1 2550   1.454   2.981   3.085 -0.8381  0.3402 -0.4315
  848TIP3    H2 2551   1.416   3.123   3.050 -3.2334 -0.2542 -0.4253
  849TIP3   OH2 2552   0.931   0.074   3.370  0.0073  0.2455  0.0470
  849TIP3    H1 2553   0.843   0.040   3.383 -1.0742  2.0818 -1.7682
  849TIP3    H2 2554   0.921   0.143   3.304  2.7502  0.7988  0.0559
  850TIP3   OH2 2555   2.596   0.641   3.974 -0.3616  0.2129 -0.0170
  850TIP3    H1 2556   2.562   0.576   3.913  0.9457 -1.7402  1.1974
  850TIP3    H2 2557   2.519   0.671   4.023 -1.3741  1.5669 -2.2974
  851TIP3   OH2 2558   1.539   3.359   0.289  0.0282 -0.5585  0.9425
  851TIP3    H1 2559   1.444   3.356   0.299 -0.1387  1.5849  0.4426
  851TIP3    H2 2560   1.570   3.395   0.372  0.1104  1.4180  0.1000
  852TIP3   OH2 2561   3.318   4.214   0.010 -0.2262 -0.5731 -0.0171
  852TIP3    H1 2562   3.388   4.278   0.015 -0.6148 -0.1263 -0.2760
  852TIP3    H2 2563   3.332   4.158   0.087  0.2973 -0.3742  0.0365
  853TIP3   OH2 2564   1.248   1.184   2.689 -0.4586 -0.2273  0.1963
  853TIP3    H1 2565   1.260   1.132   2.610  0.4712 -0.8785  0.7447
  853TIP3    H2 2566   1.324   1.164   2.743 -0.3918  1.2181  0.7054
  854TIP3   OH2 2567   0.473   4.936   1.793 -0.1302 -0.2083 -0.1758
  854TIP3    H1 2568   0.537   5.007   1.790  2.2085 -2.1569  0.7069
  854TIP3    H2 2569   0.481   4.892   1.709  0.1049 -0.7835  0.1393
  855TIP3   OH2 2570   4.903   0.930   1.786  0.5556  0.3645 -0.0143
  855TIP3    H1 2571   4.957   0.862   1.747 -2.6152 -1.0935 -2.3448
  855TIP3    H2 2572   4.897   0.998   1.717 -0.9882  0.1837 -0.0987
  856TIP3   OH2 2573   3.799   2.699   0.518  0.8246 -0.0229 -0.5454
  856TIP3    H1 2574   3.797   2.619   0.569 -0.6846  0.7781  0.7359
  856TIP3    H2 2575   3.891   2.725   0.517  0.9393 -0.1763  1.6523
  857TIP3   OH2 2576   4.976   3.888   2.920  0.1706  0.3934  0.0658
  857TIP3    H1 2577   5.052   3.842   2.954  1.4123  0.1201 -2.8359
  857TIP3    H2 2578   4.994   3.981   2.937  1.6909  0.4163 -1.4546
  858TIP3   OH2 2579   3.771   0.414   0.932  0.0017 -0.0074  0.6452
  858TIP3    H1 2580   3.832   0.458   0.991  0.3731 -0.3350  0.5175
  858TIP3    H2 2581   3.826   0.350   0.885 -0.2768  0.2558 -0.0585
  859TIP3   OH2 2582   0.132   5.592   1.585 -0.0317  0.4329  0.2491
  859TIP3    H1 2583   0.127   5.497   1.580 -0.3675  0.3963  1.0938
  859TIP3    H2 2584   0.048   5.619   1.623  0.6478  0.9388  1.4579
  860TIP3   OH2 2585   0.623   5.153   1.756 -0.7624  0.0228  0.1182
  860TIP3    H1 2586   0.696   5.189   1.706 -0.3255 -1.1391 -0.1175
  860TIP3    H2 2587   0.607   5.217   1.825  0.2971  0.4259  0.0028
  861TIP3   OH2 2588   0.530   1.569   5.169  0.2901  0.4654  0.4397
  861TIP3    H1 2589   0.623   1.579   5.152  0.0333  2.9061  0.1240
  861TIP3    H2 2590   0.490   1.563   5.083  0.0826 -0.0445  0.5644
  862TIP3   OH2 2591   1.250   3.225   2.455  0.3326 -0.1621  0.6423
  862TIP3    H1 2592   1.168   3.189   2.421  0.5416  0.4392 -0.5826
  862TIP3    H2 2593   1.290   3.153   2.504  0.2929 -1.3188 -0.9403
  863TIP3   OH2 2594   5.280   4.853   3.352  0.1883  0.6182  0.4177
  863TIP3    H1 2595   5.280   4.801   3.432  1.5993  1.9784  1.3506
  863TIP3    H2 2596   5.219   4.925   3.370 -0.2936  0.3663 -0.1530
  864TIP3   OH2 2597   4.060   2.774   3.604  0.4806 -0.0354 -0.4428
  864TIP3    H1 2598   4.014   2.837   3.659  1.6360 -0.7168  1.4258
  864TIP3    H2 2599   4.050   2.807   3.515 -1.5930  1.0540  0.1287
  865TIP3   OH2 2600   4.075   0.400   0.661  0.5590  0.3447 -0.0438
  865TIP3    H1 2601   3.998   0.448   0.628  0.2235 -0.4064 -0.3920
  865TIP3    H2 2602   4.039   0.343   0.730  0.6767 -0.4877 -0.6560
  866TIP3   OH2 2603   1.158   2.258   2.753  0.0987  0.5895 -0.8016
  866TIP3    H1 2604   1.146   2.267   2.659 -1.1381  0.5268 -0.6656
  866TIP3    H2 2605   1.070   2.262   2.789  0.6522  2.1532  0.5000
  867TIP3   OH2 2606   0.206   4.377   3.374  0.3895  0.2453  0.1632
  867TIP3    H1 2607   0.245   4.290   3.368 -0.0011  0.1672 -2.4878
  867TIP3    H2 2608   0.279   4.437   3.357  0.7044  0.5268  2.1922
  868TIP3   OH2 2609   6.244   1.479   5.081  0.6733 -0.0604  0.1384
  868TIP3    H1 2610   6.326   1.429   5.079 -0.3867 -2.1350  2.8717
  868TIP3    H2 2611   6.189   1.437   5.015  0.5573 -1.0998  0.8789
  869TIP3   OH2 2612   1.458   4.091   3.934 -0.1905  0.0084 -0.2801
  869TIP3    H1 2613   1.461   4.057   4.023 -0.1963  0.0731 -0.2549
  869TIP3    H2 2614   1.397   4.165   3.938 -0.0721  0.1075 -0.3046
  870TIP3   OH2 2615   2.816   2.585   3.872  0.2393  0.1967  0.5755
  870TIP3    H1 2616   2.783   2.550   3.789 -0.0957 -1.3695  1.3364
  870TIP3    H2 2617   2.813   2.511   3.932  1.4875  1.0226  1.7176
  871TIP3   OH2 2618   0.052   0.251   1.193 -0.2279  0.1964 -0.3757
  871TIP3    H1 2619   0.137   0.239   1.150 -0.1854 -0.4302 -0.1136
  871TIP3    H2 2620  -0.009   0.199   1.142 -0.5581  1.0174 -0.8476
  872TIP3   OH2 2621   0.291   3.371   0.315 -0.3968 -0.0168 -0.4709
  872TIP3    H1 2622   0.380   3.366   0.350 -0.7522 -0.0717  0.4446
  872TIP3    H2 2623   0.265   3.280   0.302  0.0523  0.0199 -1.7312
  873TIP3   OH2 2624   2.743   5.100   1.536 -0.4120 -0.2149 -0.3164
  873TIP3    H1 2625   2.837   5.106   1.554 -0.5630  1.3961  0.0827
  873TIP3    H2 2626   2.731   5.152   1.456 -1.0507  0.1237 -0.0082
  874TIP3   OH2 2627   5.205   0.243   0.496 -0.3508  0.0903 -0.0254
  874TIP3    H1 2628   5.177   0.156   0.466  0.0144  0.5010 -1.6754
  874TIP3    H2 2629   5.167   0.303   0.432  0.1392  1.0830  0.5953
  875TIP3   OH2 2630   2.304   1.417   3.207 -0.3525  0.2042 -0.3203
  875TIP3    H1 2631   2.382   1.429   3.154 -0.5360  1.3986 -0.3574
  875TIP3    H2 2632   2.237   1.471   3.164 -0.3307  1.7500  1.4462
  876TIP3   OH2 2633   0.858   1.079   4.108  0.8533  0.2213  0.2560
  876TIP3    H1 2634   0.783   1.024   4.084  0.2980  1.0625  0.0450
  876TIP3    H2 2635   0.911   1.083   4.028  0.8257  0.1218  0.2320
  877TIP3   OH2 2636   3.487   1.550   1.517  0.4310  0.0864 -0.1408
  877TIP3    H1 2637   3.456   1.474   1.568  0.2777  0.4309  0.2860
  877TIP3    H2 2638   3.440   1.544   1.434  0.0893 -0.0464  0.0586
  878TIP3   OH2 2639   2.279   3.484   4.917 -0.1656 -0.0779  0.3064
  878TIP3    H1 2640   2.200   3.534   4.896 -1.3302 -0.5370  3.0503
  878TIP3    H2 2641   2.351   3.546   4.908 -0.7055  0.2633 -2.6106
  879TIP3   OH2 2642   2.627   1.995   0.999 -0.5554 -0.0213  0.4789
  879TIP3    H1 2643   2.531   1.987   1.001 -0.4515 -1.4117  0.5627
  879TIP3    H2 2644   2.642   2.085   0.972 -1.8959 -0.1383 -0.7761
  880TIP3   OH2 2645   2.801   2.475   1.922  0.0572 -0.2634  0.4608
  880TIP3    H1 2646   2.785   2.569   1.928 -0.8756 -0.5001  2.2035
  880TIP3    H2 2647   2.873   2.458   1.983 -0.0524 -0.7309  0.4657
  881TIP3   OH2 2648   2.380   1.266   0.815 -0.4918 -0.6292 -0.5547
  881TIP3    H1 2649   2.420   1.249   0.900 -0.5027 -0.0355 -0.4304
  881TIP3    H2 2650   2.409   1.354   0.792 -1.9381 -0.0756 -0.3436
  882TIP3   OH2 2651   2.676   1.677   4.603  0.5876  0.2656 -0.4385
  882TIP3    H1 2652   2.688   1.599   4.657 -1.0173  0.8254  0.8290
  882TIP3    H2 2653   2.621   1.649   4.530 -0.0557  0.2092  0.0605
  883TIP3   OH2 2654   3.327   2.663   2.090  0.2142  0.1917  0.0721
  883TIP3    H1 2655   3.339   2.711   2.172  3.8160 -0.9284  0.3989
  883TIP3    H2 2656   3.363   2.721   2.023  0.7091 -0.3447 -0.1387
  884TIP3   OH2 2657   5.885   1.025   0.851  0.7146 -0.1377  0.4295
  884TIP3    H1 2658   5.852   1.092   0.910 -0.3573  0.6032 -0.9517
  884TIP3    H2 2659   5.898   1.070   0.768  1.8912 -1.2135 -0.0054
  885TIP3   OH2 2660   3.860   2.322   2.819  0.3874 -0.2517  0.2357
  885TIP3    H1 2661   3.879   2.414   2.800 -1.7740  0.1568 -0.1518
  885TIP3    H2 2662   3.864   2.278   2.735 -0.9929 -0.0176  0.0261
  886TIP3   OH2 2663   0.610   3.262   0.734  0.7544 -0.0389  0.5997
  886TIP3    H1 2664   0.527   3.221   0.708  1.0645  0.8850 -2.1282
  886TIP3    H2 2665   0.619   3.240   0.826 -2.7450  0.1993  1.1383
  887TIP3   OH2 2666   3.219   5.980   3.122  0.4899 -0.1811 -0.6116
  887TIP3    H1 2667   3.263   5.912   3.173  1.2207  1.2678  0.7642
  887TIP3    H2 2668   3.154   6.017   3.181  1.1441  1.3198 -0.7714
  888TIP3   OH2 2669   4.564   2.439   0.325 -0.4197 -0.3536  0.2992
  888TIP3    H1 2670   4.620   2.363   0.309  0.0244 -0.2249  1.2033
  888TIP3    H2 2671   4.551   2.477   0.238  2.5660  0.7829  0.2359
  889TIP3   OH2 2672   0.730   5.768   2.180 -0.0481 -0.0086  0.2893
  889TIP3    H1 2673   0.640   5.748   2.154  0.5378 -0.5631 -1.4331
  889TIP3    H2 2674   0.784   5.731   2.111  1.4214  2.0030  0.2773
  890TIP3   OH2 2675   3.002   2.946   3.281 -0.0583  0.3701  0.0428
  890TIP3    H1 2676   2.931   2.883   3.268 -0.2058  0.0879  1.9436
  890TIP3    H2 2677   3.063   2.902   3.340  1.9006  0.4940 -1.7496
  891TIP3   OH2 2678   5.769   2.434   5.199  0.2687  0.3444  0.1880
  891TIP3    H1 2679   5.787   2.413   5.107  0.3685 -1.2678  0.5356
  891TIP3    H2 2680   5.786   2.528   5.207  1.7283  0.2275 -1.1138
  892TIP3   OH2 2681   3.796   2.123   3.113 -0.7285 -0.6232  0.7565
  892TIP3    H1 2682   3.793   2.217   3.096 -1.1181 -0.7681  0.0121
  892TIP3    H2 2683   3.764   2.114   3.203  1.3670  0.1453  1.6437
  893TIP3   OH2 2684   5.180   1.846   1.471 -0.5132 -0.0240 -0.0204
  893TIP3    H1 2685   5.128   1.832   1.392 -0.1083  1.5340 -0.6018
  893TIP3    H2 2686   5.235   1.768   1.478 -1.3333 -0.6773 -0.6424
  894TIP3   OH2 2687   3.604   2.741   1.006 -0.3939 -0.4800  0.1704
  894TIP3    H1 2688   3.648   2.826   1.013  1.1813 -1.3504  1.4432
  894TIP3    H2 2689   3.660   2.689   0.948 -0.5495 -1.1325  0.5896
  895TIP3   OH2 2690   1.982   4.377   3.907 -0.6721  0.5890 -0.0737
  895TIP3    H1 2691   1.967   4.312   3.839 -0.1089  1.5263 -1.1156
  895TIP3    H2 2692   1.911   4.440   3.896  0.4558  1.7383 -1.0338
  896TIP3   OH2 2693   4.412   2.601   4.568 -0.3254  0.1879  0.2740
  896TIP3    H1 2694   4.489   2.624   4.620  0.2452 -0.0919 -0.4256
  896TIP3    H2 2695   4.341   2.653   4.605  0.7675  2.5850 -0.7777
  897TIP3   OH2 2696   0.445   5.863   1.516 -0.0005  0.5769  0.3183
  897TIP3    H1 2697   0.515   5.798   1.517  0.2776  0.8400  2.3509
  897TIP3    H2 2698   0.372   5.820   1.471  1.9177  0.9037 -3.4913
  898TIP3   OH2 2699   1.782   0.041   3.420 -0.0988 -0.0417 -0.3014
  898TIP3    H1 2700   1.746   0.104   3.357  1.6123 -0.1332 -1.4436
  898TIP3    H2 2701   1.846   0.092   3.470 -0.2806 -0.3644  0.2661
  899TIP3   OH2 2702   4.387   5.490   1.271 -0.3861  0.2461  0.1407
  899TIP3    H1 2703   4.350   5.522   1.353 -1.1262 -0.5985  0.1461
  899TIP3    H2 2704   4.328   5.522   1.203 -0.4160 -0.0315  0.0363
  900TIP3   OH2 2705   2.319   3.756   2.181 -0.3757 -0.1817  0.3333
  900TIP3    H1 2706   2.248   3.813   2.207  0.6820  1.4969 -0.2957
  900TIP3    H2 2707   2.366   3.736   2.262 -0.6796 -0.0454  0.5428
  901TIP3   OH2 2708   0.810   4.347   4.397  0.3482  0.1983 -0.3060
  901TIP3    H1 2709   0.788   4.428   4.350  0.4233 -0.1694 -0.9835
  901TIP3    H2 2710   0.887   4.370   4.449 -0.1293  0.7941  0.1567
  902TIP3   OH2 2711   0.932   2.044   0.123  0.3294  0.2172 -0.3716
  902TIP3    H1 2712   0.977   1.966   0.092  2.8719  1.5980 -0.4142
  902TIP3    H2 2713   0.920   2.098   0.045 -0.4338  0.3561 -0.1706
  903TIP3   OH2 2714   4.101   5.935   2.922 -0.4385 -0.0298 -1.3233
  903TIP3    H1 2715   4.013   5.905   2.945  0.3350 -0.8973  0.7134
  903TIP3    H2 2716   4.107   6.022   2.960 -0.5612  0.2242 -1.8751
  904TIP3   OH2 2717   1.859   5.267   3.928 -0.2365 -0.1237 -0.3756
  904TIP3    H1 2718   1.906   5.334   3.978 -0.8088 -0.5545  0.7727
  904TIP3    H2 2719   1.916   5.249   3.854  0.4024  0.9022 -0.1573
  905TIP3   OH2 2720   4.019   2.361   2.272 -0.0839 -0.4276 -0.1755
  905TIP3    H1 2721   4.067   2.382   2.352  0.3014 -0.4878 -0.3869
  905TIP3    H2 2722   3.938   2.412   2.278  0.6042  0.7220 -0.4346
  906TIP3   OH2 2723   5.484   3.975   3.657  0.3821 -0.6729  0.3483
  906TIP3    H1 2724   5.468   3.979   3.563 -0.4306 -0.2680  0.4917
  906TIP3    H2 2725   5.441   4.054   3.692  0.7930 -0.7471  1.0348
  907TIP3   OH2 2726   2.693   2.264   0.957  0.0860 -0.0029 -0.3563
  907TIP3    H1 2727   2.622   2.290   0.899 -0.3980  0.1861  0.3089
  907TIP3    H2 2728   2.658   2.277   1.045  0.9520  0.1073 -0.0197
  908TIP3   OH2 2729   4.761   4.223   1.077  0.2462 -0.5136  0.0814
  908TIP3    H1 2730   4.678   4.227   1.030  0.5016 -1.6995 -0.5030
  908TIP3    H2 2731   4.795   4.135   1.059  1.0369 -0.4854  1.3237
  909TIP3   OH2 2732   3.108   3.779   5.093  0.8172  0.5046  0.2426
  909TIP3    H1 2733   3.035   3.790   5.032  0.9236  1.1021  0.2167
  909TIP3    H2 2734   3.070   3.735   5.169  1.0419 -1.9948 -0.9701
  910TIP3   OH2 2735   3.626   5.345   1.320  0.0529  0.0633  0.1423
  910TIP3    H1 2736   3.624   5.250   1.335  0.3749  0.2812  1.7588
  910TIP3    H2 2737   3.543   5.365   1.278  0.3373 -1.0387 -1.0116
  911TIP3   OH2 2738   2.626   5.213   3.171  0.1685 -0.1522  0.5376
  911TIP3    H1 2739   2.533   5.208   3.149  0.3083 -2.2009  0.2706
  911TIP3    H2 2740   2.662   5.276   3.107 -0.9799  0.5654  0.5654
  912TIP3   OH2 2741   0.572   0.994   2.055 -0.6625 -0.0994 -0.1117
  912TIP3    H1 2742   0.565   0.996   1.959  0.5614  1.3577 -0.2224
  912TIP3    H2 2743   0.483   1.009   2.086 -1.1198 -0.8418 -1.0183
  913TIP3   OH2 2744   3.551   0.283   4.988 -0.1463 -0.3257  0.4687
  913TIP3    H1 2745   3.559   0.195   4.950 -0.4671 -0.1795  0.0465
  913TIP3    H2 2746   3.548   0.341   4.912 -2.5429 -0.1533  0.6189
  914TIP3   OH2 2747   2.960   1.609   2.340 -0.2881  0.0860  0.2641
  914TIP3    H1 2748   3.038   1.575   2.383  1.5523  2.4129 -1.0288
  914TIP3    H2 2749   2.894   1.541   2.354  2.0535 -2.1953  1.0031
  915TIP3   OH2 2750   0.694   1.372   3.086 -0.3871  0.0326  0.0073
  915TIP3    H1 2751   0.764   1.433   3.063  1.3026 -1.6639  0.3816
  915TIP3    H2 2752   0.676   1.389   3.179  0.2226 -0.1498  0.1619
  916TIP3   OH2 2753   4.669   3.525   0.358  0.2498  0.3570 -0.0518
  916TIP3    H1 2754   4.650   3.436   0.388 -1.1985  1.0744  1.2903
  916TIP3    H2 2755   4.648   3.581   0.432  2.4335  1.7642 -0.3894
  917TIP3   OH2 2756   2.520   0.199   4.454 -0.0626 -0.3163  0.8370
  917TIP3    H1 2757   2.577   0.137   4.499  0.7144 -1.2370 -1.2643
  917TIP3    H2 2758   2.574   0.277   4.441  0.6942 -1.0713 -0.8685
  918TIP3   OH2 2759   3.047   5.258   0.451 -0.3339  0.2890  0.0955
  918TIP3    H1 2760   3.104   5.225   0.520 -1.4597  0.0046  0.9315
  918TIP3    H2 2761   3.028   5.181   0.397  1.3331  0.6992 -1.1696
  919TIP3   OH2 2762   5.217   4.071   2.846  0.4993  0.3179 -0.1405
  919TIP3    H1 2763   5.161   4.015   2.792 -0.0132  0.9526 -0.2896
  919TIP3    H2 2764   5.289   4.015   2.873 -0.5813 -0.7377  0.6454
  920TIP3   OH2 2765   4.110   0.261   1.805  1.0456  0.2472 -0.6687
  920TIP3    H1 2766   4.103   0.354   1.784  0.5874  0.6218  0.9807
  920TIP3    H2 2767   4.194   0.252   1.849  1.5204 -0.3083 -1.6749
  921TIP3   OH2 2768   0.393   3.204   2.016 -0.3910 -0.5232  0.1891
  921TIP3    H1 2769   0.419   3.284   2.061 -0.4931 -0.8496  0.8466
  921TIP3    H2 2770   0.435   3.209   1.930 -0.6795  0.3917  0.0996
  922TIP3   OH2 2771   1.415   5.400   3.723 -0.1359 -0.5717 -0.5572
  922TIP3    H1 2772   1.361   5.363   3.792  1.1628 -1.1426  0.1961
  922TIP3    H2 2773   1.502   5.361   3.737  0.6820  0.9086 -1.2130
  923TIP3   OH2 2774   5.054   2.299   1.477 -0.3795  0.9911  0.5837
  923TIP3    H1 2775   4.973   2.248   1.474  0.9084 -1.1707 -1.5861
  923TIP3    H2 2776   5.049   2.356   1.401  0.5870 -0.0105 -0.2620
  924TIP3   OH2 2777   1.963   1.190   1.042 -0.2637 -0.1188  0.3337
  924TIP3    H1 2778   2.030   1.194   1.110 -1.9916  0.5668  2.1049
  924TIP3    H2 2779   1.951   1.281   1.015 -1.2462 -0.0857  0.8518
  925TIP3   OH2 2780   5.144   5.185   3.890  0.1698 -0.5193 -0.1755
  925TIP3    H1 2781   5.132   5.181   3.795 -0.9791  1.3605 -0.1594
  925TIP3    H2 2782   5.077   5.247   3.920  1.4231  0.0078  1.6844
  926TIP3   OH2 2783   0.893   2.943   4.207 -0.5361  0.2439 -0.0839
  926TIP3    H1 2784   0.975   2.991   4.200  0.1447 -0.8890  0.0184
  926TIP3    H2 2785   0.918   2.855   4.234 -1.8091 -0.0374  0.2579
  927TIP3   OH2 2786   6.260   4.327   3.074  0.1554 -0.4926  0.1515
  927TIP3    H1 2787   6.316   4.379   3.016 -0.8640 -1.4643 -1.7758
  927TIP3    H2 2788   6.226   4.391   3.137  0.9404  0.6838 -0.5716
  928TIP3   OH2 2789   1.540   3.804   3.950 -0.1477 -0.2417  0.3531
  928TIP3    H1 2790   1.491   3.885   3.945 -0.4299 -0.4940 -1.7684
  928TIP3    H2 2791   1.631   3.830   3.935 -0.3729 -0.4098 -1.4564
  929TIP3   OH2 2792   6.030   2.819   2.868  0.1861 -0.4841  0.1794
  929TIP3    H1 2793   5.961   2.873   2.829  0.3748  0.3445  0.9431
  929TIP3    H2 2794   6.011   2.730   2.839 -1.1964 -0.2711  0.3659
  930TIP3   OH2 2795   5.925   0.823   4.968 -0.4502 -0.1628 -0.1970
  930TIP3    H1 2796   5.995   0.867   4.919  0.8770  0.6259  2.2293
  930TIP3    H2 2797   5.940   0.730   4.954  0.2813  0.0340 -0.7543
  931TIP3   OH2 2798   4.708   5.465   3.680 -0.1489 -0.5603 -0.5194
  931TIP3    H1 2799   4.761   5.534   3.718  1.2507 -2.3732  1.0144
  931TIP3    H2 2800   4.769   5.413   3.627 -0.4704 -2.3083  0.7350
  932TIP3   OH2 2801   1.780   1.403   2.204 -0.6092 -0.2490 -0.3899
  932TIP3    H1 2802   1.691   1.396   2.170 -1.0831 -0.4396  0.8210
  932TIP3    H2 2803   1.814   1.314   2.201  0.3776  0.1374 -2.8968
  933TIP3   OH2 2804   2.141   2.715   3.837  0.0098  0.1439 -0.2082
  933TIP3    H1 2805   2.161   2.768   3.915 -2.9292  0.5343  0.4117
  933TIP3    H2 2806   2.079   2.649   3.869 -0.5911 -0.2321 -2.0621
  934TIP3   OH2 2807   4.009   0.334   2.665  0.3785  0.7010 -0.2468
  934TIP3    H1 2808   3.940   0.387   2.626 -0.5991 -0.3737 -0.0035
  934TIP3    H2 2809   4.081   0.396   2.679 -0.8887  2.0870  0.4722
  935TIP3   OH2 2810   2.341   3.800   0.217  0.0345  0.1844 -0.1624
  935TIP3    H1 2811   2.408   3.757   0.164 -2.1518  0.2965 -3.3002
  935TIP3    H2 2812   2.289   3.728   0.253  0.9142  0.1341  1.0676
  936TIP3   OH2 2813   5.960   3.912   1.086  0.4477 -0.3892  0.0557
  936TIP3    H1 2814   5.910   3.900   1.167 -0.3942 -0.0332 -0.3931
  936TIP3    H2 2815   6.018   3.986   1.104 -0.4890  0.3825  0.0055
  937TIP3   OH2 2816   5.237   0.716   2.532  0.0870 -0.5781 -0.6589
  937TIP3    H1 2817   5.296   0.775   2.486 -0.7407  0.5960 -0.2558
  937TIP3    H2 2818   5.189   0.772   2.593  0.3696 -1.8968  0.8630
  938TIP3   OH2 2819   4.470   0.467   3.584 -0.3415 -0.6258  0.4114
  938TIP3    H1 2820   4.550   0.418   3.604  0.1520 -0.4872 -1.0824
  938TIP3    H2 2821   4.402   0.400   3.574  0.0238 -0.9019 -0.2416
  939TIP3   OH2 2822   5.023   4.254   3.348 -0.6734  0.4667  0.2009
  939TIP3    H1 2823   4.978   4.310   3.412 -0.9850  1.5368 -0.9102
  939TIP3    H2 2824   5.111   4.290   3.342 -0.3033 -0.3121  0.8129
  940TIP3   OH2 2825   4.264   1.898   4.201 -0.3270  0.4604 -0.2333
  940TIP3    H1 2826   4.195   1.876   4.139 -0.3374 -0.2397  0.0154
  940TIP3    H2 2827   4.305   1.814   4.223 -0.4614  0.6575  0.8688
  941TIP3   OH2 2828   2.746   2.740   1.975 -0.2694  0.9912 -0.3202
  941TIP3    H1 2829   2.675   2.804   1.970 -0.9451  0.3357  0.5011
  941TIP3    H2 2830   2.752   2.717   2.068 -0.4144 -0.5311 -0.6542
  942TIP3   OH2 2831   2.033   5.000   2.654  0.5903  0.6754  0.2605
  942TIP3    H1 2832   2.057   5.020   2.563 -0.2982  2.6976  0.4364
  942TIP3    H2 2833   1.982   4.919   2.647  0.4802  0.8316 -1.0642
  943TIP3   OH2 2834   0.721   4.521   2.760 -0.4209 -0.5034  0.2016
  943TIP3    H1 2835   0.733   4.612   2.733 -0.8016 -0.9359 -1.5456
  943TIP3    H2 2836   0.809   4.482   2.757 -0.2781 -0.2438  0.8269
  944TIP3   OH2 2837   1.502   1.958   1.740 -0.3626 -0.6693 -0.3402
  944TIP3    H1 2838   1.483   1.951   1.646  1.6950  1.4032 -0.9913
  944TIP3    H2 2839   1.441   2.025   1.771  0.5618  0.3931 -0.7568
  945TIP3   OH2 2840   5.437   5.814   2.449  0.2138  0.3233  0.2167
  945TIP3    H1 2841   5.491   5.742   2.482  0.0621  0.5618  1.0246
  945TIP3    H2 2842   5.347   5.786   2.468  0.1054  0.3261 -0.2956
  946TIP3   OH2 2843   3.063   1.558   1.910  0.0632  0.0102 -0.1479
  946TIP3    H1 2844   3.049   1.652   1.898  0.0505 -0.2726 -2.8408
  946TIP3    H2 2845   3.153   1.543   1.883 -0.2418 -0.8873 -0.7077
  947TIP3   OH2 2846   2.441   1.415   4.710 -0.3821 -0.4529 -0.0376
  947TIP3    H1 2847   2.383   1.423   4.785  2.3622  0.3988  2.2045
  947TIP3    H2 2848   2.528   1.434   4.746  1.0537  0.3147 -3.5282
  948TIP3   OH2 2849   4.412   1.498   0.792 -0.8442  0.4695  0.1654
  948TIP3    H1 2850   4.434   1.566   0.856  0.8518  0.7910 -0.7012
  948TIP3    H2 2851   4.497   1.469   0.758 -1.6649  0.0814 -1.6910
  949TIP3   OH2 2852   1.983   1.817   4.381  0.3297  0.3786  0.1562
  949TIP3    H1 2853   1.887   1.815   4.381  0.3322  0.2401  0.0718
  949TIP3    H2 2854   2.007   1.774   4.299  0.5489 -3.3879  1.9747
  950TIP3   OH2 2855   5.385   3.253   0.655  0.2888  0.0567 -0.1395
  950TIP3    H1 2856   5.393   3.163   0.623  0.3003  0.1144 -0.2982
  950TIP3    H2 2857   5.474   3.279   0.677  0.1827 -0.2750  0.7393
  951TIP3   OH2 2858   4.984   3.045   5.102  0.0327 -0.0009  0.1601
  951TIP3    H1 2859   5.048   3.000   5.157  0.1035 -1.2934 -0.9405
  951TIP3    H2 2860   4.906   2.989   5.105 -0.3834  0.5590 -0.0716
  952TIP3   OH2 2861   4.522   2.736   0.643  0.0773  0.3166 -0.1702
  952TIP3    H1 2862   4.559   2.824   0.632 -0.9540  0.5452 -2.2974
  952TIP3    H2 2863   4.580   2.679   0.593  0.0961 -0.0367  0.2489
  953TIP3   OH2 2864   2.894   3.915   0.798  0.1622 -0.3586 -0.1001
  953TIP3    H1 2865   2.930   3.906   0.710 -0.3065  0.2934 -0.3699
  953TIP3    H2 2866   2.826   3.982   0.789  1.3868  1.1313  1.1300
  954TIP3   OH2 2867   4.279   1.872   0.116  0.8239 -0.1342  0.0943
  954TIP3    H1 2868   4.236   1.944   0.160  1.9081  0.2111  0.6229
  954TIP3    H2 2869   4.227   1.857   0.037  1.2724  2.0411 -0.6749
  955TIP3   OH2 2870   1.516   5.708   1.663 -0.2709  0.4064 -0.2918
  955TIP3    H1 2871   1.528   5.625   1.709 -1.2821  0.2738 -0.2526
  955TIP3    H2 2872   1.422   5.723   1.663 -0.2458  0.7237 -1.7543
  956TIP3   OH2 2873   0.495   4.996   4.746  0.0059  0.1911  0.0420
  956TIP3    H1 2874   0.404   4.968   4.744 -0.2724  1.0352  0.5822
  956TIP3    H2 2875   0.540   4.926   4.793  0.1109 -1.4593 -2.3160
  957TIP3   OH2 2876   0.482   0.687   0.154  0.3969  0.0430 -0.3176
  957TIP3    H1 2877   0.400   0.717   0.113  0.7763 -0.4049 -1.4269
  957TIP3    H2 2878   0.461   0.684   0.248 -0.2741  1.7758 -0.3755
  958TIP3   OH2 2879   4.596   2.140   5.068  0.3281  1.1435  0.2506
  958TIP3    H1 2880   4.635   2.176   5.148 -1.9641  2.0125  1.0808
  958TIP3    H2 2881   4.502   2.135   5.088 -0.0402 -0.7714 -1.6095
  959TIP3   OH2 2882   0.636   2.617   4.096  0.4098 -0.3505 -0.4341
  959TIP3    H1 2883   0.592   2.532   4.093  0.8470 -0.6971  1.4471
  959TIP3    H2 2884   0.694   2.611   4.172  2.7894  0.5357 -2.0708
  960TIP3   OH2 2885   5.076   0.590   2.341 -0.1931 -0.1731 -0.1812
  960TIP3    H1 2886   5.136   0.629   2.404 -0.0309 -0.0439 -0.4118
  960TIP3    H2 2887   4.994   0.577   2.390 -0.1311  0.1085  0.0006
  961TIP3   OH2 2888   3.604   3.860   1.426 -0.5760 -0.0017 -0.1837
  961TIP3    H1 2889   3.691   3.901   1.422 -0.8348  0.7345  1.3600
  961TIP3    H2 2890   3.592   3.837   1.518 -1.4177 -1.4746 -0.6249
  962TIP3   OH2 2891   6.003   5.017   2.295 -0.6202  0.0166 -0.0733
  962TIP3    H1 2892   5.981   5.089   2.236  0.7689  1.2094  0.7808
  962TIP3    H2 2893   6.076   4.972   2.251  1.0678  1.4935  1.0931
  963TIP3   OH2 2894   0.108   0.469   3.678  0.0074 -0.4910 -0.1564
  963TIP3    H1 2895   0.085   0.407   3.609  2.9942 -2.6686  0.6130
  963TIP3    H2 2896   0.143   0.545   3.630 -1.8295 -0.1455 -1.0541
  964TIP3   OH2 2897   3.432   1.326   4.158 -0.6763  0.1210  0.3221
  964TIP3    H1 2898   3.431   1.386   4.083  0.6674  0.2593  0.4038
  964TIP3    H2 2899   3.432   1.239   4.119  3.1637  0.1182 -0.0324
  965TIP3   OH2 2900   2.143   1.614   0.766 -0.3938 -0.2403 -0.1365
  965TIP3    H1 2901   2.208   1.682   0.748 -0.9300  0.7320  1.4094
  965TIP3    H2 2902   2.163   1.544   0.704  1.0324  0.7566 -0.8437
  966TIP3   OH2 2903   3.973   5.672   0.915  0.1314 -0.4796 -0.0427
  966TIP3    H1 2904   3.929   5.721   0.845  0.5657 -1.1999 -0.8425
  966TIP3    H2 2905   3.906   5.615   0.951 -0.3004  0.4679  0.6888
  967TIP3   OH2 2906   4.771   4.746   1.478  0.0628  0.5166  0.2309
  967TIP3    H1 2907   4.751   4.653   1.486 -1.9086  0.7436 -1.3421
  967TIP3    H2 2908   4.852   4.749   1.427 -0.7637 -0.3388 -1.1897
  968TIP3   OH2 2909   3.160   3.958   1.741 -0.5547  0.8708  0.1699
  968TIP3    H1 2910   3.165   3.886   1.804 -1.7736  1.1455  0.6179
  968TIP3    H2 2911   3.080   3.940   1.691 -1.6544  2.5885  1.1905
  969TIP3   OH2 2912   4.537   4.946   3.087  0.7837 -0.2897 -0.1401
  969TIP3    H1 2913   4.497   5.003   3.152  0.6096 -1.0092  0.3971
  969TIP3    H2 2914   4.597   5.002   3.038  0.4673  0.3899  0.2459
  970TIP3   OH2 2915   5.400   3.453   2.671 -0.4252  0.6479 -0.1138
  970TIP3    H1 2916   5.449   3.515   2.617  1.0779  0.4645  0.9751
  970TIP3    H2 2917   5.354   3.508   2.735 -1.0944  0.7720 -0.6873
  971TIP3   OH2 2918   1.504   0.543   3.391 -0.2225  0.7160 -0.0516
  971TIP3    H1 2919   1.581   0.542   3.446 -0.0779  1.1410 -0.2452
  971TIP3    H2 2920   1.478   0.635   3.386 -0.5838  0.6104 -0.2050
  972TIP3   OH2 2921   0.850   3.183   1.056  0.2972  0.4818 -0.2554
  972TIP3    H1 2922   0.863   3.121   0.984 -2.3314 -0.1946 -0.2295
  972TIP3    H2 2923   0.831   3.128   1.132  0.5305  1.2576  0.3783
  973TIP3   OH2 2924   6.134   2.592   1.311  0.7461 -0.4205  0.6499
  973TIP3    H1 2925   6.207   2.653   1.301 -0.0752  0.2688 -2.2296
  973TIP3    H2 2926   6.077   2.634   1.376 -0.1025  2.3886 -1.6580
  974TIP3   OH2 2927   5.446   3.959   1.360  0.0130 -0.0408  0.1491
  974TIP3    H1 2928   5.415   4.050   1.366 -0.7430 -0.1978 -1.0026
  974TIP3    H2 2929   5.515   3.953   1.426 -0.1337  1.2842  0.4621
  975TIP3   OH2 2930   5.332   1.397   3.899 -0.5150 -0.0733 -0.3052
  975TIP3    H1 2931   5.344   1.308   3.865  0.9265  0.0427 -0.1416
  975TIP3    H2 2932   5.285   1.385   3.981 -1.2608 -0.5953 -0.7974
  976TIP3   OH2 2933   1.650   5.233   3.754  0.0702 -0.0921  0.2555
  976TIP3    H1 2934   1.704   5.246   3.832 -0.9951  2.0364  0.7304
  976TIP3    H2 2935   1.708   5.252   3.680  0.5509 -0.0883  0.6286
  977TIP3   OH2 2936   5.864   3.325   3.484  0.3099  0.2664  0.4810
  977TIP3    H1 2937   5.845   3.354   3.394  0.3993 -0.1757  0.3161
  977TIP3    H2 2938   5.960   3.319   3.487  0.2553 -2.8736 -0.4384
  978TIP3   OH2 2939   2.061   0.656   2.172  0.1079 -0.2397 -0.0406
  978TIP3    H1 2940   2.085   0.633   2.082 -0.6720 -1.3254  0.0126
  978TIP3    H2 2941   2.027   0.575   2.209  2.1324 -0.3054  1.8385
  979TIP3   OH2 2942   5.313   1.127   4.852 -0.0398 -0.7795  0.2077
  979TIP3    H1 2943   5.305   1.039   4.814 -0.4072 -1.2056  1.2474
  979TIP3    H2 2944   5.406   1.138   4.870 -0.0282 -1.0461  0.3031
  980TIP3   OH2 2945   0.957   0.780   1.635 -0.1302  0.1471 -0.2704
  980TIP3    H1 2946   0.994   0.863   1.606  1.1738  0.2596  1.5095
  980TIP3    H2 2947   1.021   0.746   1.698 -0.9111 -1.9320 -0.5133
  981TIP3   OH2 2948   6.187   5.807   0.787  0.0079  0.2244 -0.0058
  981TIP3    H1 2949   6.279   5.780   0.777  0.4515  2.0090 -1.3431
  981TIP3    H2 2950   6.192   5.901   0.800 -1.6293  0.2182  0.8723
  982TIP3   OH2 2951   6.252   4.101   2.819  0.4025  0.3599  0.1470
  982TIP3    H1 2952   6.222   4.026   2.769  0.2176 -0.0312  0.8349
  982TIP3    H2 2953   6.191   4.171   2.795 -0.1332 -0.0213  0.3833
  983TIP3   OH2 2954   1.048   3.835   4.357 -0.3399 -0.0996 -0.0268
  983TIP3    H1 2955   1.110   3.824   4.429  0.1826  1.4928 -0.2107
  983TIP3    H2 2956   1.014   3.923   4.367 -1.1567 -0.2731 -1.0541
  984TIP3   OH2 2957   1.429   2.866   0.139  0.0970 -0.0654 -0.2653
  984TIP3    H1 2958   1.437   2.849   0.232 -1.5361 -0.2139 -0.1225
  984TIP3    H2 2959   1.510   2.911   0.115  0.3910  0.2689  1.2894
  985TIP3   OH2 2960   2.144   3.332   5.114 -0.2308 -0.0184 -0.2238
  985TIP3    H1 2961   2.181   3.387   5.046  0.5703 -0.4027 -0.1227
  985TIP3    H2 2962   2.093   3.266   5.067 -1.0523  0.6867 -0.3521
  986TIP3   OH2 2963   3.194   5.654   4.058 -0.0154 -0.2322  0.2265
  986TIP3    H1 2964   3.130   5.709   4.013  0.1728 -0.4575 -0.3271
  986TIP3    H2 2965   3.232   5.711   4.125 -0.4893  0.0291  0.2750
  987TIP3   OH2 2966   1.686   1.628   3.483  0.0704  0.3282 -0.1150
  987TIP3    H1 2967   1.630   1.579   3.423 -0.2820 -0.3702  0.7616
  987TIP3    H2 2968   1.632   1.641   3.561 -0.1012  2.7396 -0.5447
  988TIP3   OH2 2969   3.160   5.565   3.019  0.2768  0.0338 -0.4633
  988TIP3    H1 2970   3.120   5.613   2.947  0.7120  2.4081  0.7995
  988TIP3    H2 2971   3.099   5.494   3.037 -1.6273  1.4929 -0.8720
  989TIP3   OH2 2972   5.578   0.772   5.076 -0.0800  0.0932  0.1972
  989TIP3    H1 2973   5.627   0.690   5.069 -0.1137  0.1226 -0.4414
  989TIP3    H2 2974   5.535   0.768   5.161 -0.1632 -0.5954  0.1202
  990TIP3   OH2 2975   0.219   5.196   3.952  0.0162  0.7127 -0.3803
  990TIP3    H1 2976   0.169   5.274   3.975 -0.7978  0.1757 -0.3030
  990TIP3    H2 2977   0.182   5.126   4.005 -1.3742 -0.3846 -2.6374
  991TIP3   OH2 2978   3.048   4.905   2.458 -0.2843  0.8619  0.3612
  991TIP3    H1 2979   2.977   4.847   2.486 -1.2950  1.6745 -0.4324
  991TIP3    H2 2980   3.049   4.974   2.524 -0.3770  0.9648  0.2551
  992TIP3   OH2 2981   5.305   0.475   1.582 -0.4648  0.4063 -0.1176
  992TIP3    H1 2982   5.245   0.401   1.590  0.1411 -0.2536 -1.2737
  992TIP3    H2 2983   5.392   0.435   1.575 -0.1723  1.1738 -1.2865
  993TIP3   OH2 2984   4.333   0.605   0.203  0.0479  0.5618 -0.0959
  993TIP3    H1 2985   4.255   0.553   0.219  1.2839 -0.8727  1.5099
  993TIP3    H2 2986   4.309   0.693   0.232 -0.5774 -0.1365  1.6446
  994TIP3   OH2 2987   0.184   4.263   3.972  0.3899 -0.0758 -0.7619
  994TIP3    H1 2988   0.203   4.357   3.977  0.2985 -0.0848 -0.1732
  994TIP3    H2 2989   0.199   4.241   3.881 -1.5369  0.9330 -1.3660
  995TIP3   OH2 2990   3.731   5.613   4.837  0.0355 -0.4903 -0.3529
  995TIP3    H1 2991   3.701   5.544   4.777 -0.5578  0.6144 -1.3711
  995TIP3    H2 2992   3.669   5.611   4.909  0.5672 -1.6190  0.1101
  996TIP3   OH2 2993   1.441   1.948   4.127  0.7167  0.2590  0.0610
  996TIP3    H1 2994   1.502   1.981   4.192  0.6445 -0.2085  0.3752
  996TIP3    H2 2995   1.460   1.854   4.123  1.9547  0.5240 -1.8852
  997TIP3   OH2 2996   5.736   1.973   4.222  0.0102  0.0959  0.6027
  997TIP3    H1 2997   5.712   1.902   4.282 -0.3155  1.1083  1.7092
  997TIP3    H2 2998   5.713   2.053   4.269  1.1581  0.9733 -0.2596
  998TIP3   OH2 2999   6.261   3.039   3.992 -0.3819  0.2305 -0.3911
  998TIP3    H1 3000   6.225   3.124   3.968 -0.4288 -0.2772 -2.2143
  998TIP3    H2 3001   6.355   3.047   3.976 -0.3645 -0.0068 -0.4145
  999TIP3   OH2 3002   3.846   4.337   2.563 -0.3891  0.1158  0.4377
  999TIP3    H1 3003   3.933   4.370   2.586 -0.2412 -0.3728  0.5856
  999TIP3    H2 3004   3.801   4.412   2.525 -0.6659  1.0212  2.4035
 1000TIP3   OH2 3005   4.657   2.581   3.455 -0.8511  0.0991  0.2011
 1000TIP3    H1 3006   4.709   2.516   3.407 -1.0739  1.9104 -2.8003
 1000TIP3    H2 3007   4.717   2.616   3.521 -0.3195 -2.1275  0.9630
 1001TIP3   OH2 3008   1.386   0.119   0.561  0.3133  0.1113 -0.0697
 1001TIP3    H1 3009   1.458   0.135   0.622  1.3839  0.1759 -1.3062
 1001TIP3    H2 3010   1.405   0.174   0.486  0.7012 -2.1710 -1.7631
 1002TIP3   OH2 3011   1.083   4.711   2.878  0.3904 -0.3087  0.6280
 1002TIP3    H1 3012   1.157   4.771   2.879  0.6763 -0.6613  0.9813
 1002TIP3    H2 3013   1.112   4.638   2.823  0.7732 -1.0125  1.7174
 1003TIP3   OH2 3014   4.725   0.164   0.631 -0.0983 -0.0958  0.7147
 1003TIP3    H1 3015   4.695   0.184   0.720 -1.9208  0.7313 -0.0525
 1003TIP3    H2 3016   4.819   0.185   0.633 -0.0610 -0.2388  2.4661
 1004TIP3   OH2 3017   3.393   5.757   3.799 -0.0008  0.3688 -0.2361
 1004TIP3    H1 3018   3.416   5.827   3.860 -0.9890  0.3907  0.1197
 1004TIP3    H2 3019   3.418   5.677   3.846 -0.0147  0.4214 -0.1380
 1005TIP3   OH2 3020   2.624   2.632   0.187 -0.4108 -0.4467  0.4524
 1005TIP3    H1 3021   2.701   2.666   0.141 -0.7718  0.0134  0.1794
 1005TIP3    H2 3022   2.555   2.634   0.121 -0.8827  0.0279  0.9565
 1006TIP3   OH2 3023   0.363   0.139   0.836 -0.2780  0.4599  0.3163
 1006TIP3    H1 3024   0.454   0.160   0.812  0.1815  1.4590  2.6171
 1006TIP3    H2 3025   0.344   0.059   0.789  1.3267  0.9421 -1.2851
 1007TIP3   OH2 3026   3.275   2.204   2.310  0.4537 -0.0978 -0.3202
 1007TIP3    H1 3027   3.315   2.285   2.278  0.1226 -0.4181 -1.5914
 1007TIP3    H2 3028   3.241   2.161   2.231  0.7496 -1.5436  0.3140
 1008TIP3   OH2 3029   2.312   0.792   1.693  0.5655  0.2324  0.4015
 1008TIP3    H1 3030   2.319   0.697   1.678 -0.1689  0.4105 -1.3057
 1008TIP3    H2 3031   2.321   0.830   1.606  0.9972  1.7539  1.0929
 1009TIP3   OH2 3032   2.071   0.640   4.377 -0.1859 -0.2515 -0.5761
 1009TIP3    H1 3033   2.011   0.710   4.403  1.1528  0.4781  0.6709
 1009TIP3    H2 3034   2.035   0.607   4.294 -0.7224  2.0599 -1.3191
 1010TIP3   OH2 3035   5.366   4.644   3.208  0.6568 -0.1447 -0.2314
 1010TIP3    H1 3036   5.356   4.727   3.254 -0.4500 -0.9173  0.9909
 1010TIP3    H2 3037   5.278   4.621   3.179  0.4406 -2.0608  1.6451
 1011TIP3   OH2 3038   1.927   5.685   2.868  0.2367 -0.1571  0.4593
 1011TIP3    H1 3039   1.976   5.729   2.937 -1.3822  1.1280  0.8621
 1011TIP3    H2 3040   1.865   5.629   2.914  0.0912 -0.3670  0.0164
 1012TIP3   OH2 3041   1.971   5.702   0.936 -0.4778 -0.2704  0.4660
 1012TIP3    H1 3042   1.916   5.658   0.872 -1.4130 -0.8597  1.6302
 1012TIP3    H2 3043   2.060   5.675   0.914 -0.5577  0.9249 -1.6286
 1013TIP3   OH2 3044   5.690   3.994   1.533 -0.0359 -0.0485  0.2690
 1013TIP3    H1 3045   5.676   3.940   1.611 -0.6978 -0.7848 -0.3477
 1013TIP3    H2 3046   5.695   4.084   1.567  1.1475 -0.4788  1.3147
 1014TIP3   OH2 3047   4.532   4.721   3.883  0.2023  0.0042  0.1715
 1014TIP3    H1 3048   4.582   4.661   3.938  0.0730  1.2892  1.8097
 1014TIP3    H2 3049   4.442   4.711   3.913 -0.5709 -2.0624 -2.5360
 1015TIP3   OH2 3050   2.177   3.940   3.359  0.4322 -0.4576  0.1361
 1015TIP3    H1 3051   2.127   3.939   3.278  1.0871  1.2508 -0.3222
 1015TIP3    H2 3052   2.258   3.892   3.338  0.9725  0.6890 -0.5055
 1016TIP3   OH2 3053   3.191   5.611   3.307  0.6584  0.6917  0.0056
 1016TIP3    H1 3054   3.159   5.627   3.218  1.6369  0.8432 -0.3281
 1016TIP3    H2 3055   3.132   5.661   3.363 -0.0490  0.4913 -0.5420
 1017TIP3   OH2 3056   3.147   1.481   3.730  0.0789 -0.4214 -0.0149
 1017TIP3    H1 3057   3.057   1.511   3.714 -0.1269 -1.3145 -0.5845
 1017TIP3    H2 3058   3.197   1.562   3.741 -0.6876  0.1013 -0.2587
 1018TIP3   OH2 3059   5.969   2.386   0.415 -0.5504 -0.0175  0.6025
 1018TIP3    H1 3060   5.965   2.477   0.446 -2.0952  0.5641 -1.1314
 1018TIP3    H2 3061   5.923   2.336   0.482 -1.5360  0.8063  0.5632
 1019TIP3   OH2 3062   2.865   5.016   3.798 -0.2261  0.1057  0.4875
 1019TIP3    H1 3063   2.902   4.937   3.758  0.6258  1.0639 -0.6486
 1019TIP3    H2 3064   2.874   5.084   3.732 -2.3868  0.8308  0.8342
 1020TIP3   OH2 3065   4.713   4.995   1.933  0.7589  0.8600  0.4078
 1020TIP3    H1 3066   4.752   4.925   1.985 -0.1701 -0.3358 -0.4211
 1020TIP3    H2 3067   4.757   4.989   1.848  2.1161  2.6545  0.9242
 1021TIP3   OH2 3068   1.416   5.427   2.590 -0.6893  0.0841  0.3130
 1021TIP3    H1 3069   1.478   5.430   2.517  0.2922  1.1381  1.1534
 1021TIP3    H2 3070   1.330   5.425   2.548 -0.1157 -0.7187 -0.8711
 1022TIP3   OH2 3071   1.642   1.941   5.141 -0.2273 -0.3307 -0.0939
 1022TIP3    H1 3072   1.586   1.960   5.066 -0.1877 -0.0219 -0.0439
 1022TIP3    H2 3073   1.703   2.014   5.145  1.8097 -1.8588 -1.6655
 1023TIP3   OH2 3074   0.820   4.080   1.248  0.2135  0.4510 -0.0821
 1023TIP3    H1 3075   0.817   3.985   1.243 -1.7000  0.5233 -1.5604
 1023TIP3    H2 3076   0.737   4.104   1.290 -0.2305  1.4990 -1.4740
 1024TIP3   OH2 3077   4.474   5.334   1.047 -0.3226  0.7967  0.0132
 1024TIP3    H1 3078   4.406   5.401   1.036 -0.1205  0.9400 -0.4029
 1024TIP3    H2 3079   4.528   5.366   1.119 -0.4436  0.9020  0.0580
 1025TIP3   OH2 3080   0.253   1.347   0.418 -0.7760  0.2725 -0.3501
 1025TIP3    H1 3081   0.210   1.417   0.467 -0.1738  0.3922  0.0248
 1025TIP3    H2 3082   0.344   1.351   0.447 -0.3246  0.5595 -1.7353
 1026TIP3   OH2 3083   3.026   1.815   1.293 -0.0459 -0.0507  0.0055
 1026TIP3    H1 3084   3.027   1.844   1.384  0.5411 -1.9544  0.6349
 1026TIP3    H2 3085   2.940   1.840   1.260  0.0710  1.4805  0.7737
 1027TIP3   OH2 3086   3.289   0.842   3.918 -0.3428 -0.0511  0.2949
 1027TIP3    H1 3087   3.211   0.897   3.907 -0.0687  0.3561  0.3358
 1027TIP3    H2 3088   3.256   0.762   3.959 -0.8533 -0.2064 -0.3970
 1028TIP3   OH2 3089   3.279   5.368   0.268  0.2159  0.0856  0.3458
 1028TIP3    H1 3090   3.215   5.343   0.334 -1.5775  0.4286 -1.1786
 1028TIP3    H2 3091   3.227   5.399   0.194  2.1749  1.0057 -0.7318
 1029TIP3   OH2 3092   5.952   1.931   1.849  0.0656  0.3390 -0.4397
 1029TIP3    H1 3093   5.997   1.934   1.934 -0.0796 -1.2088 -0.2753
 1029TIP3    H2 3094   6.016   1.966   1.787  1.2310 -1.0788 -0.0886
 1030TIP3   OH2 3095   5.484   2.692   0.155  0.4141 -0.4293 -0.5515
 1030TIP3    H1 3096   5.490   2.708   0.061 -0.5908  0.6786 -0.4509
 1030TIP3    H2 3097   5.547   2.622   0.171 -0.4614 -1.6815 -2.2908
 1031TIP3   OH2 3098   0.860   1.549   1.576 -0.2263  0.4032  0.6190
 1031TIP3    H1 3099   0.902   1.589   1.652  1.2475 -0.4582  0.3098
 1031TIP3    H2 3100   0.931   1.500   1.533 -1.5431 -1.0431  0.0095
 1032TIP3   OH2 3101   1.526   3.663   1.131 -0.3095  0.3001  0.0678
 1032TIP3    H1 3102   1.601   3.609   1.153 -0.5698  0.0608  0.3845
 1032TIP3    H2 3103   1.462   3.602   1.094  0.4332  0.8141 -2.1954
 1033TIP3   OH2 3104   6.179   1.071   1.616  0.1629  0.1094  0.1838
 1033TIP3    H1 3105   6.206   0.983   1.642  0.3279  0.4146  1.0792
 1033TIP3    H2 3106   6.207   1.127   1.689  1.6349  1.1729 -1.1211
 1034TIP3   OH2 3107   0.775   2.112   0.364  0.5050 -0.6699 -0.1566
 1034TIP3    H1 3108   0.833   2.114   0.287  1.0191  0.9684  0.2277
 1034TIP3    H2 3109   0.797   2.191   0.412  0.1031 -1.6079  1.6419
 1035TIP3   OH2 3110   4.071   4.647   1.557  0.1801 -0.1298  0.2260
 1035TIP3    H1 3111   4.050   4.610   1.643 -1.0020 -0.3839 -0.1631
 1035TIP3    H2 3112   4.143   4.708   1.575  1.1592 -1.4781  1.1112
 1036TIP3   OH2 3113   0.918   2.429   3.688 -0.6184 -0.2633  0.0245
 1036TIP3    H1 3114   0.859   2.484   3.636 -0.1533  0.0583 -0.1708
 1036TIP3    H2 3115   0.977   2.390   3.624 -0.1711 -0.0253  0.2907
 1037TIP3   OH2 3116   2.758   4.971   3.087  0.2809 -0.2636 -1.3848
 1037TIP3    H1 3117   2.712   5.052   3.108 -0.8409 -1.0081 -0.8823
 1037TIP3    H2 3118   2.691   4.903   3.092  1.5260 -1.4725 -0.0934
 1038TIP3   OH2 3119   1.638   0.638   4.072  0.0669 -0.4088  0.3066
 1038TIP3    H1 3120   1.623   0.555   4.117 -2.3614 -0.5616 -0.6529
 1038TIP3    H2 3121   1.554   0.683   4.075  0.6422  0.8962 -1.4187
 1039TIP3   OH2 3122   1.690   0.264   3.980 -0.1457  0.4810  0.2633
 1039TIP3    H1 3123   1.688   0.311   4.064  1.6117 -1.5855  1.5797
 1039TIP3    H2 3124   1.762   0.304   3.932  0.5734 -0.0463  0.8801
 1040TIP3   OH2 3125   2.854   3.480   1.871 -0.3816  0.2403  0.1787
 1040TIP3    H1 3126   2.867   3.403   1.925  0.0172 -0.7368 -1.2408
 1040TIP3    H2 3127   2.765   3.470   1.836 -1.3722  1.8082  2.0252
 1041TIP3   OH2 3128   1.565   5.908   2.651 -0.1408  0.8535 -0.3375
 1041TIP3    H1 3129   1.632   5.913   2.583 -0.0197 -0.1900 -0.3013
 1041TIP3    H2 3130   1.566   5.817   2.679  0.0691  1.3244  1.3065
 1042TIP3   OH2 3131   4.349   4.731   5.170 -0.3690  0.1825  0.0677
 1042TIP3    H1 3132   4.399   4.721   5.088  0.0558  0.3339  0.3059
 1042TIP3    H2 3133   4.360   4.823   5.193  0.4672 -0.1172  0.9029
 1043TIP3   OH2 3134   1.151   2.785   1.899  0.1307 -0.0446  0.0017
 1043TIP3    H1 3135   1.094   2.836   1.841 -0.2410  0.1764  0.5492
 1043TIP3    H2 3136   1.185   2.849   1.962  1.6611 -0.0119 -0.8029
 1044TIP3   OH2 3137   1.510   1.157   1.584  0.0541  0.3277 -0.6155
 1044TIP3    H1 3138   1.474   1.085   1.533 -0.1597  0.6082 -0.8584
 1044TIP3    H2 3139   1.552   1.214   1.520  0.8723  0.0470 -0.3505
 1045TIP3   OH2 3140   3.156   0.928   0.825 -0.3538 -0.3461  0.9836
 1045TIP3    H1 3141   3.070   0.965   0.839 -0.0611  1.0362 -0.6130
 1045TIP3    H2 3142   3.212   0.971   0.890 -0.7257 -0.8221  1.6348
 1046TIP3   OH2 3143   1.936   0.995   3.621 -0.6256 -0.2079  0.4135
 1046TIP3    H1 3144   1.894   0.942   3.689 -0.9570 -0.2361  0.1922
 1046TIP3    H2 3145   2.027   1.002   3.648 -0.7097 -0.3996  0.7486
 1047TIP3   OH2 3146   4.078   1.745   2.876  0.1472  0.0177  0.0480
 1047TIP3    H1 3147   4.063   1.824   2.929  0.0192 -0.3570  0.5798
 1047TIP3    H2 3148   4.083   1.777   2.786  1.2345  0.7748  0.3587
 1048TIP3   OH2 3149   5.496   2.387   0.233  0.1762  0.3103 -0.1847
 1048TIP3    H1 3150   5.434   2.389   0.160  1.2756  0.3540 -1.1425
 1048TIP3    H2 3151   5.573   2.434   0.200  0.8367 -0.0022  0.8702
 1049TIP3   OH2 3152   4.030   1.599   3.191 -0.2426 -0.0371  0.2649
 1049TIP3    H1 3153   4.029   1.530   3.259 -2.0658 -0.0475  0.2880
 1049TIP3    H2 3154   4.026   1.681   3.241  3.6822  0.2960  0.3200
 1050TIP3   OH2 3155   4.045   4.667   4.500  0.1730  0.4353 -0.1574
 1050TIP3    H1 3156   4.032   4.693   4.591 -0.0001  1.5829 -0.5015
 1050TIP3    H2 3157   4.028   4.573   4.500  2.2094 -0.0047  1.3915
 1051TIP3   OH2 3158   0.631   0.996   0.450 -0.3805  0.0428 -0.1553
 1051TIP3    H1 3159   0.677   1.013   0.368 -1.1892  4.3941  0.0679
 1051TIP3    H2 3160   0.700   0.975   0.512  0.7868  1.2895 -0.9699
 1052TIP3   OH2 3161   0.199   5.541   2.646  0.8956  0.0279 -0.0664
 1052TIP3    H1 3162   0.253   5.483   2.592  1.9013  2.1312 -1.4545
 1052TIP3    H2 3163   0.262   5.598   2.690 -0.0405 -0.1492  1.5879
 1053TIP3   OH2 3164   2.590   5.206   2.329  0.0903  0.0572  0.3600
 1053TIP3    H1 3165   2.638   5.224   2.410  0.0089 -1.0425  0.6615
 1053TIP3    H2 3166   2.624   5.271   2.267  0.1697  0.9018  1.2553
 1054TIP3   OH2 3167   2.830   4.756   2.565  0.1425  0.1934  0.2258
 1054TIP3    H1 3168   2.890   4.683   2.577 -0.2149 -0.0528  0.5382
 1054TIP3    H2 3169   2.743   4.717   2.572 -0.0604  0.4998 -0.5037
 1055TIP3   OH2 3170   3.687   3.243   1.519  0.0367  0.1841  0.2682
 1055TIP3    H1 3171   3.629   3.310   1.482  0.3633  0.3491  0.0494
 1055TIP3    H2 3172   3.749   3.293   1.572  1.7184  0.3195 -1.7016
 1056TIP3   OH2 3173   4.459   3.441   1.963  0.2434  0.4738 -0.7082
 1056TIP3    H1 3174   4.521   3.514   1.959  1.2611 -0.2411  0.8381
 1056TIP3    H2 3175   4.514   3.363   1.954 -0.2331 -0.2230  1.7202
 1057TIP3   OH2 3176   4.386   3.629   3.575  0.2939 -0.6204 -0.4471
 1057TIP3    H1 3177   4.373   3.639   3.669 -0.7344 -1.2921 -0.5009
 1057TIP3    H2 3178   4.376   3.718   3.540 -0.2283 -0.5050 -0.0185
 1058TIP3   OH2 3179   4.171   4.803   0.872 -0.5938  0.3112 -0.1971
 1058TIP3    H1 3180   4.242   4.787   0.810 -0.0026 -0.3985  0.6396
 1058TIP3    H2 3181   4.187   4.892   0.904 -1.1357  0.8446 -1.3255
 1059TIP3   OH2 3182   4.608   0.140   4.031 -0.0420  0.3071 -0.3099
 1059TIP3    H1 3183   4.624   0.089   4.110  0.8624  0.1308 -0.5893
 1059TIP3    H2 3184   4.525   0.107   3.997  0.0360 -0.2854  0.0545
 1060TIP3   OH2 3185   6.228   1.063   1.107 -0.4228 -0.2087  0.0620
 1060TIP3    H1 3186   6.193   0.987   1.061 -1.5598 -0.0322  0.5762
 1060TIP3    H2 3187   6.172   1.136   1.078  0.4241  0.3746 -0.1585
 1061TIP3   OH2 3188   3.737   0.787   0.735 -0.0291  0.2267 -0.1743
 1061TIP3    H1 3189   3.770   0.873   0.758  0.4947  0.2649 -1.0079
 1061TIP3    H2 3190   3.667   0.770   0.797  0.8436  0.6082  0.9473
 1062TIP3   OH2 3191   4.090   2.489   4.511 -0.2938  0.3154 -0.3024
 1062TIP3    H1 3192   4.113   2.519   4.423 -0.3903  0.7303 -0.1877
 1062TIP3    H2 3193   4.109   2.564   4.568 -0.2704  0.0623  0.0224
 1063TIP3   OH2 3194   2.463   5.781   0.139 -0.1399 -0.1001  0.6568
 1063TIP3    H1 3195   2.410   5.713   0.096 -1.0770  0.3685  1.0270
 1063TIP3    H2 3196   2.408   5.810   0.213 -0.4486  2.1465 -0.3808
 1064TIP3   OH2 3197   1.956   0.327   2.213  0.0638 -0.3034 -0.4663
 1064TIP3    H1 3198   1.916   0.349   2.128  0.6252  1.4504 -0.3148
 1064TIP3    H2 3199   1.918   0.242   2.236  1.1431 -1.6695 -3.2691
 1065TIP3   OH2 3200   0.156   2.282   0.511  0.1296  0.9679  0.1837
 1065TIP3    H1 3201   0.074   2.330   0.498  0.4231  1.3751 -0.1792
 1065TIP3    H2 3202   0.181   2.303   0.601  0.0469  1.1769  0.1600
 1066TIP3   OH2 3203   0.166   0.713   1.871  0.0572 -0.4291 -0.0049
 1066TIP3    H1 3204   0.261   0.708   1.882  0.1263 -0.9926 -0.7965
 1066TIP3    H2 3205   0.142   0.629   1.832 -0.8833 -0.6280  0.9492
 1067TIP3   OH2 3206   1.200   2.566   1.601  0.5747 -0.1945 -0.5451
 1067TIP3    H1 3207   1.230   2.598   1.516  0.6192 -0.9603 -0.8275
 1067TIP3    H2 3208   1.215   2.472   1.597  0.7815 -0.2069  0.3965
 1068TIP3   OH2 3209   5.714   2.461   0.089  0.2319  0.1896  0.2144
 1068TIP3    H1 3210   5.783   2.508   0.136  0.8360  1.1813 -1.5588
 1068TIP3    H2 3211   5.750   2.449   0.001 -1.4869 -0.1346 -0.4800
 1069TIP3   OH2 3212   1.764   3.767   1.989  0.5521  0.7012  0.2804
 1069TIP3    H1 3213   1.838   3.827   1.987  0.0495  1.3370  0.3182
 1069TIP3    H2 3214   1.778   3.710   1.913  0.5696  1.4589 -0.3065
 1070TIP3   OH2 3215   1.722   1.605   0.089 -0.5456  0.2369  0.0566
 1070TIP3    H1 3216   1.781   1.664   0.044  1.5414 -0.7838  1.3092
 1070TIP3    H2 3217   1.743   1.616   0.182 -0.9304 -1.5605  0.3967
 1071TIP3   OH2 3218   3.086   1.422   2.633  0.3101 -0.0760  0.4301
 1071TIP3    H1 3219   3.006   1.370   2.620  1.4994 -2.0066  0.5009
 1071TIP3    H2 3220   3.113   1.447   2.544 -0.4972  0.8424  0.4223
 1072TIP3   OH2 3221   4.632   1.081   0.566 -0.3409  0.0227  0.4088
 1072TIP3    H1 3222   4.636   1.004   0.622 -0.2920 -0.4053 -0.1771
 1072TIP3    H2 3223   4.673   1.054   0.484 -2.7062 -0.1922 -0.7964
 1073TIP3   OH2 3224   4.137   0.542   1.824  0.3134  0.5267  0.2828
 1073TIP3    H1 3225   4.228   0.554   1.854  0.6166 -1.9126  0.5745
 1073TIP3    H2 3226   4.123   0.612   1.762  2.9578  0.1191 -0.9138
 1074TIP3   OH2 3227   2.919   5.762   1.537  0.0032 -0.5445  0.1701
 1074TIP3    H1 3228   2.839   5.717   1.564 -1.0649  0.8083 -0.6075
 1074TIP3    H2 3229   2.964   5.784   1.619  0.2360 -2.4064  0.5802
 1075TIP3   OH2 3230   1.473   5.511   4.490 -0.1871 -0.0684 -0.5099
 1075TIP3    H1 3231   1.553   5.517   4.437 -0.9988 -0.8441 -1.8469
 1075TIP3    H2 3232   1.402   5.515   4.427 -1.2734  1.7165  0.7469
 1076TIP3   OH2 3233   3.144   5.866   4.813  0.3962  0.3726 -0.1892
 1076TIP3    H1 3234   3.057   5.894   4.784  0.6738  0.6670 -0.7371
 1076TIP3    H2 3235   3.136   5.771   4.825  0.1912  0.2926 -0.9220
 1077TIP3   OH2 3236   4.489   5.260   2.725  0.5549  0.1442 -0.1318
 1077TIP3    H1 3237   4.438   5.254   2.644  0.7515  1.3876 -0.3630
 1077TIP3    H2 3238   4.438   5.210   2.789 -0.0797 -0.0567 -0.7784
 1078TIP3   OH2 3239   0.983   0.277   1.713  0.1880  0.4653 -0.2876
 1078TIP3    H1 3240   0.945   0.218   1.647 -0.7310  1.8424 -1.0282
 1078TIP3    H2 3241   0.907   0.320   1.753  0.8056  0.5390  0.8500
 1079TIP3   OH2 3242   4.157   4.880   4.788 -0.0274 -0.0091  0.2471
 1079TIP3    H1 3243   4.120   4.791   4.792 -1.0713  0.3935 -0.1475
 1079TIP3    H2 3244   4.252   4.866   4.784 -0.1215 -1.0785  1.1607
 1080TIP3   OH2 3245   2.533   2.331   2.429 -0.2340  0.5276 -0.3981
 1080TIP3    H1 3246   2.582   2.368   2.356 -0.4922 -0.9226 -1.3383
 1080TIP3    H2 3247   2.585   2.255   2.457 -0.5257  0.6254  0.4231
 1081TIP3   OH2 3248   5.360   1.268   1.588  0.1237 -1.0256  0.0698
 1081TIP3    H1 3249   5.288   1.328   1.573  0.3428 -1.0319 -1.0769
 1081TIP3    H2 3250   5.437   1.324   1.594  0.0703 -1.0372  1.0749
 1082TIP3   OH2 3251   3.896   1.814   4.632  0.2978 -0.9686  0.1658
 1082TIP3    H1 3252   3.922   1.867   4.557 -2.2142  1.1465  0.6306
 1082TIP3    H2 3253   3.929   1.861   4.708 -1.3250 -0.3660  0.5506
 1083TIP3   OH2 3254   1.188   1.032   4.994  0.2803 -0.3060  0.1417
 1083TIP3    H1 3255   1.182   1.069   5.082 -1.6299 -0.1494 -0.0135
 1083TIP3    H2 3256   1.244   1.093   4.946 -0.0065  0.5196  0.8205
 1084TIP3   OH2 3257   4.945   5.757   4.934 -0.3429  0.2792  0.6155
 1084TIP3    H1 3258   5.004   5.709   4.877 -0.1081 -0.1660  1.2214
 1084TIP3    H2 3259   4.878   5.793   4.875 -0.9875 -1.4535  0.2158
 1085TIP3   OH2 3260   0.352   3.581   2.289  0.2618 -0.2866 -0.2062
 1085TIP3    H1 3261   0.375   3.658   2.238  1.5131 -1.0265 -0.7979
 1085TIP3    H2 3262   0.303   3.615   2.364 -1.0015  0.8711 -1.5238
 1086TIP3   OH2 3263   6.290   2.720  -0.028  0.0436 -0.0825  0.3000
 1086TIP3    H1 3264   6.316   2.640   0.018 -0.6259  0.4890  1.7386
 1086TIP3    H2 3265   6.341   2.789   0.014  0.7493  0.2530 -1.0556
 1087TIP3   OH2 3266   5.358   1.923   2.041 -0.1555 -0.0367  0.0358
 1087TIP3    H1 3267   5.417   1.991   2.074 -1.4386  0.9893  0.2886
 1087TIP3    H2 3268   5.405   1.841   2.058  1.0285  0.7155  0.5621
 1088TIP3   OH2 3269   1.961   2.123   4.814  0.1464  0.0537  0.3636
 1088TIP3    H1 3270   1.966   2.102   4.721  1.1561  1.3918  0.0937
 1088TIP3    H2 3271   1.957   2.218   4.817 -1.9778  0.0008  1.6278
 1089TIP3   OH2 3272   3.742   2.067   3.441 -0.0503 -0.0232 -0.1368
 1089TIP3    H1 3273   3.713   2.158   3.433 -0.8800 -0.3016 -0.3758
 1089TIP3    H2 3274   3.835   2.073   3.464 -0.3508  0.9050  0.9496
 1090TIP3   OH2 3275   1.058   4.522   1.792 -0.0364 -0.1112 -0.3287
 1090TIP3    H1 3276   1.077   4.430   1.806 -3.7615 -1.2618 -1.6816
 1090TIP3    H2 3277   1.070   4.536   1.698 -0.1699  0.5814 -0.2510
 1091TIP3   OH2 3278   3.147   4.686   4.302  0.0624  0.1360 -0.3938
 1091TIP3    H1 3279   3.096   4.605   4.311  0.1387  0.0250 -0.9194
 1091TIP3    H2 3280   3.139   4.729   4.387 -0.5578 -0.0847 -0.3377
 1092TIP3   OH2 3281   0.653   5.520   3.393 -0.5096  0.1455 -0.0670
 1092TIP3    H1 3282   0.689   5.602   3.427  0.6618 -0.4874  0.2817
 1092TIP3    H2 3283   0.571   5.508   3.440  1.0796 -0.7250  2.6660
 1093TIP3   OH2 3284   5.259   4.857   0.388  0.6936 -0.4050  0.0041
 1093TIP3    H1 3285   5.321   4.786   0.375 -1.5182 -2.4927  0.0893
 1093TIP3    H2 3286   5.204   4.856   0.310 -0.3470  0.1725  0.6966
 1094TIP3   OH2 3287   2.005   3.925   0.963  0.5050 -0.0514  0.2156
 1094TIP3    H1 3288   2.059   3.953   0.889  0.2603 -1.6823 -0.6241
 1094TIP3    H2 3289   2.050   3.959   1.040  0.6067  1.9485 -0.6724
 1095TIP3   OH2 3290   4.306   2.173   5.045  0.1630 -0.3449 -0.1889
 1095TIP3    H1 3291   4.326   2.165   4.951 -1.1402 -0.4246 -0.4668
 1095TIP3    H2 3292   4.213   2.194   5.048  0.4152  0.6995  1.0618
 1096TIP3   OH2 3293   0.681   1.160   2.914  0.0497  0.7192 -0.1664
 1096TIP3    H1 3294   0.686   1.233   2.976  1.3694  1.6122 -1.2462
 1096TIP3    H2 3295   0.771   1.149   2.884 -0.5284  0.2262 -1.8147
 1097TIP3   OH2 3296   1.282   3.805   4.514 -0.1728 -0.1521 -0.2530
 1097TIP3    H1 3297   1.347   3.845   4.572 -0.4626 -2.9780  2.2357
 1097TIP3    H2 3298   1.327   3.730   4.475 -1.1747 -0.6016 -0.5806
 1098TIP3   OH2 3299   2.415   5.769   1.775 -0.7333 -0.0767  0.3947
 1098TIP3    H1 3300   2.363   5.689   1.787 -0.1328 -0.3578  1.3079
 1098TIP3    H2 3301   2.359   5.839   1.808 -1.1236 -0.1748 -0.0635
 1099TIP3   OH2 3302   5.771   3.259   4.498  0.2550 -0.1854 -0.9998
 1099TIP3    H1 3303   5.826   3.313   4.555  0.6165  1.1839 -2.5676
 1099TIP3    H2 3304   5.694   3.240   4.551  2.1022 -2.0932  1.2522
 1100TIP3   OH2 3305   3.237   3.690   0.214 -0.7752 -0.1343 -0.1553
 1100TIP3    H1 3306   3.274   3.717   0.298  1.3251  1.2157 -1.4474
 1100TIP3    H2 3307   3.243   3.767   0.159 -1.1327 -1.2898 -1.8808
 1101TIP3   OH2 3308   4.659   5.438   1.291 -0.0370 -0.4117 -0.1088
 1101TIP3    H1 3309   4.717   5.512   1.309  0.9282 -0.7482 -1.6207
 1101TIP3    H2 3310   4.572   5.470   1.314  0.3469  1.2519 -0.7811
 1102TIP3   OH2 3311   2.449   3.193   0.705 -0.1596  0.1369  0.1593
 1102TIP3    H1 3312   2.482   3.202   0.794  0.1640  0.7891 -0.0216
 1102TIP3    H2 3313   2.497   3.119   0.669  1.8477  1.6274 -0.4082
 1103TIP3   OH2 3314   3.233   1.835   2.322 -0.0885  0.0984 -0.4314
 1103TIP3    H1 3315   3.174   1.897   2.366  0.1771  2.2107 -2.8177
 1103TIP3    H2 3316   3.320   1.867   2.343  0.0541  0.5118 -1.5981
 1104TIP3   OH2 3317   4.335   2.942   4.645 -0.6615 -0.5224 -0.0367
 1104TIP3    H1 3318   4.376   3.027   4.663 -0.7016 -0.3729 -0.6343
 1104TIP3    H2 3319   4.265   2.963   4.583  1.4969 -1.4446 -2.9757
 1105TIP3   OH2 3320   2.439   4.440   3.602 -0.1921 -0.0498 -0.1334
 1105TIP3    H1 3321   2.490   4.371   3.642  0.3642 -0.0288 -0.7920
 1105TIP3    H2 3322   2.360   4.446   3.656  0.1074 -0.6628  0.3816
 1106TIP3   OH2 3323   4.553   4.952   2.652  0.4999 -0.1941  0.1585
 1106TIP3    H1 3324   4.631   4.896   2.651  0.5449 -0.2280  2.1264
 1106TIP3    H2 3325   4.524   4.951   2.743  0.6657  3.2126  0.3794
 1107TIP3   OH2 3326   2.496   2.690   3.594 -0.8050 -0.3005  0.0129
 1107TIP3    H1 3327   2.458   2.665   3.510  1.1345  1.3849 -1.4692
 1107TIP3    H2 3328   2.579   2.643   3.598 -0.8096 -0.2634  0.9583
 1108TIP3   OH2 3329   4.256   1.049   4.243  0.2316 -0.5145  0.0231
 1108TIP3    H1 3330   4.181   1.079   4.295  1.6214  2.3773  0.5559
 1108TIP3    H2 3331   4.300   0.985   4.298  0.3830  0.8099  1.5302
 1109TIP3   OH2 3332   4.768   0.768   2.214  0.4340  0.7830 -0.4432
 1109TIP3    H1 3333   4.816   0.767   2.297  0.2564  1.1437 -0.3329
 1109TIP3    H2 3334   4.826   0.814   2.153  0.7447  0.1506 -0.6355
 1110TIP3   OH2 3335   1.196   0.903   3.176 -0.0920 -0.1478 -0.5034
 1110TIP3    H1 3336   1.136   0.843   3.131  0.2250 -1.2578  0.5108
 1110TIP3    H2 3337   1.145   0.983   3.187 -1.6089 -1.2327  0.7800
 1111TIP3   OH2 3338   0.371   2.481   4.762 -0.7297  0.1842  0.3386
 1111TIP3    H1 3339   0.423   2.481   4.682  1.5584 -0.7537  1.7160
 1111TIP3    H2 3340   0.382   2.569   4.798  0.4195 -0.1811  0.9091
 1112TIP3   OH2 3341   6.311   3.283   3.885 -0.5748  0.1905  0.2007
 1112TIP3    H1 3342   6.385   3.230   3.856 -0.9589  0.1983 -0.8224
 1112TIP3    H2 3343   6.347   3.342   3.951  0.3005  0.1280 -0.2232
 1113TIP3   OH2 3344   1.469   0.009   0.122  0.0511 -0.4677 -0.2383
 1113TIP3    H1 3345   1.470   0.105   0.123  1.4274 -0.4135 -1.8837
 1113TIP3    H2 3346   1.487  -0.016   0.213  0.5488  0.8389  0.0513
 1114TIP3   OH2 3347   6.336   1.004   2.060  0.5006 -0.2366  0.0029
 1114TIP3    H1 3348   6.377   1.023   2.144 -1.2567 -1.5167  1.2148
 1114TIP3    H2 3349   6.331   0.908   2.056 -1.8315 -0.1619 -0.3004
 1115TIP3   OH2 3350   2.184   2.235   1.385 -0.2629 -0.1420  0.3624
 1115TIP3    H1 3351   2.174   2.330   1.392 -1.2353 -0.3106  1.7392
 1115TIP3    H2 3352   2.177   2.203   1.475  2.1694 -1.3639  0.1833
 1116TIP3   OH2 3353   1.891   1.646   2.082  0.6473 -0.6089  0.4497
 1116TIP3    H1 3354   1.943   1.649   2.002  1.0456 -0.4521  0.7144
 1116TIP3    H2 3355   1.888   1.553   2.105  1.0228 -0.5938  0.5684
 1117TIP3   OH2 3356   3.932   5.298   3.720  0.1353  0.0115  0.8751
 1117TIP3    H1 3357   4.014   5.297   3.770  0.7767  1.3448 -0.0663
 1117TIP3    H2 3358   3.864   5.315   3.785  0.8536  0.8847  1.4195
 1118TIP3   OH2 3359   3.153   3.335   4.329  0.9729  0.1062  0.5383
 1118TIP3    H1 3360   3.164   3.251   4.374  0.6062 -0.2385  0.0021
 1118TIP3    H2 3361   3.108   3.312   4.247  0.5045  0.8754  0.5709
 1119TIP3   OH2 3362   4.409   0.212   5.064  0.2568  0.4466 -0.5576
 1119TIP3    H1 3363   4.315   0.198   5.074  0.3584  1.3331  2.8955
 1119TIP3    H2 3364   4.416   0.289   5.008 -1.0540  0.4547 -0.7402
 1120TIP3   OH2 3365   6.032   2.506   2.580 -0.4346  0.1965  0.4638
 1120TIP3    H1 3366   5.942   2.531   2.600 -0.3594  0.7600  0.1268
 1120TIP3    H2 3367   6.076   2.505   2.664 -1.1093 -1.5856  0.8327
 1121TIP3   OH2 3368   3.391   1.614   2.221 -0.4544  0.1990  0.1419
 1121TIP3    H1 3369   3.375   1.688   2.280  1.2693  1.5082 -0.9298
 1121TIP3    H2 3370   3.305   1.595   2.183 -1.2797  0.4114  1.7811
 1122TIP3   OH2 3371   2.452   4.259   1.966 -0.6676 -0.3987 -0.1478
 1122TIP3    H1 3372   2.386   4.324   1.944 -0.8605 -0.5207  0.0685
 1122TIP3    H2 3373   2.531   4.310   1.985 -0.1573 -0.3246 -2.2268
 1123TIP3   OH2 3374   2.563   2.459   0.432 -0.9406  0.3888  0.3110
 1123TIP3    H1 3375   2.594   2.467   0.342 -1.2753  1.0770  0.2439
 1123TIP3    H2 3376   2.635   2.419   0.479  0.0119  1.8066  0.1306
 1124TIP3   OH2 3377   4.020   4.565   3.483 -0.0604  0.4529 -0.5240
 1124TIP3    H1 3378   4.102   4.582   3.530 -0.6249  0.0840  0.6488
 1124TIP3    H2 3379   4.009   4.470   3.488 -0.5152  0.4925 -0.7508
 1125TIP3   OH2 3380   1.105   0.249   3.077 -0.2164  0.2047 -0.4059
 1125TIP3    H1 3381   1.063   0.181   3.024  0.2715 -1.7171  1.5465
 1125TIP3    H2 3382   1.034   0.291   3.124 -0.2290 -2.1091  1.8373
 1126TIP3   OH2 3383   0.390   1.026   0.048 -0.1662  0.1006 -0.2860
 1126TIP3    H1 3384   0.323   1.020   0.116 -0.7829 -1.6831 -1.0071
 1126TIP3    H2 3385   0.344   1.065  -0.027 -0.9401 -2.5625 -1.3182
 1127TIP3   OH2 3386   2.288   0.978   1.477  0.3778  0.8007  0.4579
 1127TIP3    H1 3387   2.366   0.996   1.424  0.1568  2.0123  0.5112
 1127TIP3    H2 3388   2.271   1.060   1.523 -0.7225  0.4416  0.7260
 1128TIP3   OH2 3389   4.596   4.548   4.457 -0.7089  0.3926  0.2301
 1128TIP3    H1 3390   4.665   4.611   4.437 -1.5899  1.6111  0.9259
 1128TIP3    H2 3391   4.627   4.466   4.418  1.2929  0.8097  0.8194
 1129TIP3   OH2 3392   2.932   5.468   0.780  0.1056  0.2174 -0.2008
 1129TIP3    H1 3393   2.919   5.562   0.780 -0.3938  0.1507  0.1471
 1129TIP3    H2 3394   2.898   5.439   0.695  0.6359  0.3968 -0.4785
 1130TIP3   OH2 3395   0.953   4.979   0.225 -0.3528  0.6178 -0.0562
 1130TIP3    H1 3396   0.958   4.894   0.269 -2.2246  1.1403  1.2558
 1130TIP3    H2 3397   0.968   4.959   0.133 -1.0936 -1.1840  0.1801
 1131TIP3   OH2 3398   1.230   5.260   2.933 -0.3868  0.0973  0.7414
 1131TIP3    H1 3399   1.212   5.219   3.018 -2.1479  1.0071  0.8637
 1131TIP3    H2 3400   1.161   5.228   2.875  0.0581  0.4538 -0.0074
 1132TIP3   OH2 3401   5.990   3.041   3.165  0.3284 -0.2706 -0.3808
 1132TIP3    H1 3402   5.928   2.984   3.210 -0.3767  0.9944  0.3130
 1132TIP3    H2 3403   5.947   3.063   3.082 -0.4805  1.1350  0.3853
 1133TIP3   OH2 3404   1.317   0.332   4.044 -0.1193  0.0324  0.4192
 1133TIP3    H1 3405   1.377   0.386   3.993 -0.3920 -0.8139 -0.8372
 1133TIP3    H2 3406   1.340   0.351   4.135  1.3501  0.5078 -0.0150
 1134TIP3   OH2 3407   3.404   2.347   3.643 -0.4101 -0.3659  0.6774
 1134TIP3    H1 3408   3.324   2.363   3.693 -0.3560 -1.0688  0.9881
 1134TIP3    H2 3409   3.466   2.314   3.707 -0.6978 -2.4428 -0.0570
 1135TIP3   OH2 3410   5.133   1.460   0.159 -0.1018  0.0106  0.4499
 1135TIP3    H1 3411   5.205   1.439   0.100 -0.9642  0.8073 -0.9204
 1135TIP3    H2 3412   5.072   1.512   0.107 -1.2280  0.1735  1.8459
 1136TIP3   OH2 3413   1.931   4.840   1.254  0.0236 -0.2254  0.4080
 1136TIP3    H1 3414   1.909   4.754   1.217 -1.4262  0.3217 -0.0567
 1136TIP3    H2 3415   1.847   4.879   1.276  0.5747  1.5127 -0.3828
 1137TIP3   OH2 3416   0.359   1.724   0.589 -0.9602  0.0434 -0.4521
 1137TIP3    H1 3417   0.428   1.747   0.651  0.6585 -1.1777 -1.7120
 1137TIP3    H2 3418   0.377   1.779   0.512 -2.8821  1.4779  0.0465
 1138TIP3   OH2 3419   6.194   1.722   1.244  0.1779  0.4564  0.0518
 1138TIP3    H1 3420   6.206   1.679   1.329  0.4726 -2.2664 -1.2620
 1138TIP3    H2 3421   6.250   1.800   1.250  0.7983 -0.0552  2.0753
 1139TIP3   OH2 3422   2.018   3.885   2.057  0.0807  0.2146  0.4534
 1139TIP3    H1 3423   2.017   3.851   2.146  1.7982  0.5277  0.6399
 1139TIP3    H2 3424   2.081   3.957   2.060 -0.6920  0.9791 -0.7600
 1140TIP3   OH2 3425   5.954   4.891   2.582 -0.4042  0.0643  0.4752
 1140TIP3    H1 3426   5.999   4.884   2.666  1.6316  0.4953 -0.5343
 1140TIP3    H2 3427   5.898   4.969   2.591 -0.0160  0.2560  1.3326
 1141TIP3   OH2 3428   6.232   3.623   2.657  0.0007 -0.2538 -0.2074
 1141TIP3    H1 3429   6.225   3.649   2.566  0.9884 -1.8073 -0.7683
 1141TIP3    H2 3430   6.254   3.704   2.704  0.0434  0.4508 -1.4169
 1142TIP3   OH2 3431   5.147   3.932   1.053  0.5944 -0.2568  0.8372
 1142TIP3    H1 3432   5.093   3.935   0.974 -0.6917 -3.5015  1.4392
 1142TIP3    H2 3433   5.232   3.965   1.025 -0.2853  0.2518 -1.4523
 1143TIP3   OH2 3434   1.046   2.805   2.445 -0.3139 -0.3339 -0.1232
 1143TIP3    H1 3435   1.135   2.813   2.413 -0.7934  3.2347 -0.9901
 1143TIP3    H2 3436   1.038   2.713   2.471  3.3050 -0.9715 -0.7278
 1144TIP3   OH2 3437   0.402   5.583   4.352 -0.4678 -0.5368 -0.5483
 1144TIP3    H1 3438   0.386   5.673   4.380 -0.5378 -0.6770 -0.1221
 1144TIP3    H2 3439   0.429   5.538   4.432  1.3202 -0.4936 -1.0807
 1145TIP3   OH2 3440   5.749   5.443   1.187 -0.2699  0.3033  0.0476
 1145TIP3    H1 3441   5.741   5.348   1.199 -1.4935 -0.0733 -2.9585
 1145TIP3    H2 3442   5.669   5.478   1.227 -0.8508 -0.1658 -0.6764
 1146TIP3   OH2 3443   2.903   1.921   0.696 -0.1503  0.1017  0.2825
 1146TIP3    H1 3444   2.867   1.845   0.652 -0.6551  1.5103 -1.9336
 1146TIP3    H2 3445   2.975   1.950   0.639 -0.1169  1.4049  0.9326
 1147TIP3   OH2 3446   3.376   1.296   4.859  0.9028  0.1969 -0.2056
 1147TIP3    H1 3447   3.342   1.298   4.949  1.0564  0.8967 -0.1629
 1147TIP3    H2 3448   3.331   1.368   4.815 -1.4111 -1.8639 -1.5230
 1148TIP3   OH2 3449   2.720   2.495   0.668  0.1534  0.8591 -0.1999
 1148TIP3    H1 3450   2.799   2.441   0.674 -0.3974 -0.1037 -1.1937
 1148TIP3    H2 3451   2.752   2.585   0.670  1.2592  0.4834 -0.4325
 1149TIP3   OH2 3452   0.332   4.925   4.135 -0.6296 -0.2192  0.2910
 1149TIP3    H1 3453   0.240   4.927   4.107 -0.9289  0.6368  1.2922
 1149TIP3    H2 3454   0.329   4.937   4.229  0.4495 -1.6084  0.5368
 1150TIP3   OH2 3455   0.136   2.159   2.742 -0.4107 -0.3653 -0.4940
 1150TIP3    H1 3456   0.157   2.190   2.830  3.3927 -0.4887 -1.2248
 1150TIP3    H2 3457   0.123   2.239   2.691  0.7492 -0.1687 -0.5050
 1151TIP3   OH2 3458   2.277   3.561   1.640 -0.4831  0.3332  0.4073
 1151TIP3    H1 3459   2.257   3.484   1.587 -1.3153  0.2422  0.8414
 1151TIP3    H2 3460   2.358   3.595   1.602  0.1734 -1.0234  0.5122
 1152TIP3   OH2 3461   2.332   1.764   0.689  1.0950 -0.4353 -0.2684
 1152TIP3    H1 3462   2.321   1.788   0.597  1.8682 -0.2866 -0.3282
 1152TIP3    H2 3463   2.404   1.819   0.720 -0.3193  0.8212  0.9280
 1153TIP3   OH2 3464   6.082   3.838   1.521 -0.3076 -0.1820  0.0504
 1153TIP3    H1 3465   6.154   3.779   1.543 -0.7929 -0.3392  1.2925
 1153TIP3    H2 3466   6.062   3.884   1.603  0.4397  2.1645 -1.0100
 1154TIP3   OH2 3467   5.310   2.607   4.209 -0.7589 -0.3305  0.3407
 1154TIP3    H1 3468   5.262   2.674   4.160 -0.2904 -0.5370 -0.4148
 1154TIP3    H2 3469   5.317   2.643   4.297 -1.1508  0.2899  0.1287
 1155TIP3   OH2 3470   0.371   4.570   4.572 -0.2370 -0.2567  0.5116
 1155TIP3    H1 3471   0.457   4.594   4.536 -1.0995  0.6154 -1.0394
 1155TIP3    H2 3472   0.371   4.474   4.571  0.8209 -0.2768  0.8268
 1156TIP3   OH2 3473   3.040   5.086   4.025  0.0958  0.0842  0.5346
 1156TIP3    H1 3474   3.019   5.144   4.098 -1.0507 -1.0787  1.1580
 1156TIP3    H2 3475   2.956   5.064   3.986  0.5097 -1.1232  0.2775
 1157TIP3   OH2 3476   6.013   2.274   1.871 -0.0788  0.0354  0.2252
 1157TIP3    H1 3477   6.055   2.197   1.908  1.5031  0.5003 -0.5173
 1157TIP3    H2 3478   6.034   2.270   1.778 -2.2122 -0.0037 -0.3239
 1158TIP3   OH2 3479   3.859   3.833   0.279 -0.3223 -0.1679 -0.0922
 1158TIP3    H1 3480   3.793   3.763   0.277 -1.5125  0.8348  1.6072
 1158TIP3    H2 3481   3.811   3.912   0.257  0.6516  0.3844 -0.3000
 1159TIP3   OH2 3482   5.194   5.251   4.830 -0.5200 -0.1970 -0.2833
 1159TIP3    H1 3483   5.143   5.306   4.889  0.2055  1.7558 -1.3746
 1159TIP3    H2 3484   5.130   5.213   4.771 -0.9862 -0.1590  0.1872
 1160TIP3   OH2 3485   0.026   5.629   2.886 -0.2034  0.4953 -0.6821
 1160TIP3    H1 3486   0.111   5.671   2.899  0.5385 -0.4007 -2.3282
 1160TIP3    H2 3487   0.047   5.536   2.875 -1.5154  0.1085 -0.0887
 1161TIP3   OH2 3488   5.383   5.664   3.249 -0.1940  0.4329  0.1378
 1161TIP3    H1 3489   5.378   5.578   3.207 -1.4635  0.6064 -0.0924
 1161TIP3    H2 3490   5.436   5.717   3.188  0.0256  0.0033 -0.0459
 1162TIP3   OH2 3491   1.942   1.802   0.736  0.3127 -0.1333  0.2729
 1162TIP3    H1 3492   2.007   1.739   0.767 -1.4456 -1.8794  0.6014
 1162TIP3    H2 3493   1.993   1.868   0.689  2.3355 -1.2662  0.7658
 1163TIP3   OH2 3494   6.054   2.635   4.771  0.2819  0.0076 -0.0883
 1163TIP3    H1 3495   6.054   2.704   4.837  2.1752 -0.4375  0.4346
 1163TIP3    H2 3496   6.132   2.583   4.790 -0.9579 -2.1587 -0.6221
 1164TIP3   OH2 3497   3.721   0.942   4.512 -0.4466  0.1295  0.1718
 1164TIP3    H1 3498   3.720   1.017   4.571  0.3238 -0.3096  0.7541
 1164TIP3    H2 3499   3.721   0.981   4.424  1.1286  0.8667  0.4571
 1165TIP3   OH2 3500   6.141   0.029   4.107  0.0392 -0.1522  0.0909
 1165TIP3    H1 3501   6.199   0.064   4.174  0.7279 -1.4381  0.2093
 1165TIP3    H2 3502   6.183   0.054   4.024 -0.2953  0.6057  0.1483
 1166TIP3   OH2 3503   2.954   4.987   0.383  0.0070  0.2127 -0.8572
 1166TIP3    H1 3504   2.895   4.927   0.430 -0.6343  1.7605  0.3871
 1166TIP3    H2 3505   3.024   4.930   0.352 -1.9684 -1.6788 -2.1951
 1167TIP3   OH2 3506   2.730   3.004   2.797 -0.2893 -0.1685  0.1773
 1167TIP3    H1 3507   2.714   3.090   2.836 -0.5522  0.3321 -0.9924
 1167TIP3    H2 3508   2.823   2.987   2.816 -0.6234 -0.3672  1.7808
 1168TIP3   OH2 3509   2.423   2.600   4.438 -0.0854 -0.0403  0.2112
 1168TIP3    H1 3510   2.410   2.509   4.410 -1.0700  0.4546 -1.0820
 1168TIP3    H2 3511   2.437   2.648   4.356  3.7836  0.5474  1.0395
 1169TIP3   OH2 3512   6.089   5.476   3.510 -0.0182  0.4525  0.5891
 1169TIP3    H1 3513   6.120   5.566   3.511 -3.1315  1.6588 -0.8056
 1169TIP3    H2 3514   6.083   5.453   3.417 -2.9220  0.2689  0.7461
 1170TIP3   OH2 3515   4.267   3.922   4.840 -0.6828  0.8313 -0.1017
 1170TIP3    H1 3516   4.312   3.972   4.908 -0.8058  1.9561 -0.8126
 1170TIP3    H2 3517   4.337   3.892   4.782 -0.5315 -0.5341  0.7518
 1171TIP3   OH2 3518   0.809   1.608   5.082  0.2304  0.2280 -0.0737
 1171TIP3    H1 3519   0.861   1.539   5.122  0.2323 -0.6192 -1.4820
 1171TIP3    H2 3520   0.872   1.679   5.066  0.3369  0.3656  0.8636
 1172TIP3   OH2 3521   5.509   4.647   1.114  0.3768  0.2854 -0.3992
 1172TIP3    H1 3522   5.575   4.685   1.056  0.1802 -0.2422 -0.9733
 1172TIP3    H2 3523   5.552   4.644   1.200  1.4139 -0.8586 -0.9398
 1173TIP3   OH2 3524   3.695   2.240   0.015  0.1042  0.7380 -0.3302
 1173TIP3    H1 3525   3.661   2.171  -0.043  0.3843  0.6573 -0.3960
 1173TIP3    H2 3526   3.616   2.282   0.049 -0.0665  0.6629 -0.6227
 1174TIP3   OH2 3527   3.986   4.030   3.191  0.1831  0.4817  0.2413
 1174TIP3    H1 3528   4.054   4.022   3.257  2.1923  0.5569 -1.6870
 1174TIP3    H2 3529   3.956   3.941   3.176  0.2396  0.3813  0.7200
 1175TIP3   OH2 3530   0.164   5.892   0.509  0.0156 -0.4017  0.6225
 1175TIP3    H1 3531   0.196   5.909   0.420  0.3139 -1.6738  0.4653
 1175TIP3    H2 3532   0.139   5.978   0.542 -1.3481 -0.0317 -1.1795
 1176TIP3   OH2 3533   5.049   2.722   3.101 -0.0522  0.1672 -0.1997
 1176TIP3    H1 3534   5.112   2.772   3.048  0.0016 -0.4953 -0.7828
 1176TIP3    H2 3535   5.086   2.634   3.103 -1.4675 -0.4881 -1.4116
 1177TIP3   OH2 3536   4.552   0.823   4.279  0.2026  0.3559 -0.2034
 1177TIP3    H1 3537   4.632   0.859   4.317 -1.3625  4.3811 -0.2344
 1177TIP3    H2 3538   4.490   0.819   4.353 -0.7947  1.4992 -0.9469
 1178TIP3   OH2 3539   0.758   2.629   2.452  0.0684 -0.6121 -0.2545
 1178TIP3    H1 3540   0.702   2.702   2.479  1.4387  0.1647  0.6047
 1178TIP3    H2 3541   0.835   2.671   2.414 -0.2458 -1.6681 -2.1690
 1179TIP3   OH2 3542   1.615   5.248   3.229  0.2770 -0.9292  0.0463
 1179TIP3    H1 3543   1.695   5.301   3.238 -0.2479  0.3531 -2.0557
 1179TIP3    H2 3544   1.620   5.211   3.141 -2.5197  1.2966 -1.2611
 1180TIP3   OH2 3545   3.318   0.393   1.564 -0.1462  0.2913  0.3006
 1180TIP3    H1 3546   3.250   0.449   1.600  0.4205 -0.4528  2.6969
 1180TIP3    H2 3547   3.392   0.402   1.625  1.5875  0.3519 -1.6879
 1181TIP3   OH2 3548   6.274   1.641   2.066 -0.0710  0.2492  0.5957
 1181TIP3    H1 3549   6.345   1.606   2.119  0.8517  0.4401 -0.4754
 1181TIP3    H2 3550   6.229   1.703   2.123 -0.6391 -1.3340  1.9454
 1182TIP3   OH2 3551   6.279   5.761   1.705 -0.0054 -0.0593 -0.7966
 1182TIP3    H1 3552   6.197   5.713   1.690  0.1432 -0.2705 -0.9374
 1182TIP3    H2 3553   6.274   5.836   1.645  0.3242 -0.5828 -1.4854
 1183TIP3   OH2 3554   5.790   4.604   5.051  0.2613  0.3006 -0.0175
 1183TIP3    H1 3555   5.873   4.639   5.018  0.6818  0.3817  1.1056
 1183TIP3    H2 3556   5.727   4.675   5.037  0.6126  0.6434  0.1335
 1184TIP3   OH2 3557   1.234   2.310   4.097 -0.2793  0.1147 -0.9402
 1184TIP3    H1 3558   1.234   2.348   4.185  3.8257 -1.0602 -0.2217
 1184TIP3    H2 3559   1.223   2.386   4.039 -1.6082  1.0992  0.5093
 1185TIP3   OH2 3560   1.441   2.986   4.914  0.5066  0.1863 -0.2035
 1185TIP3    H1 3561   1.392   3.067   4.931 -0.1169 -0.1853 -0.2174
 1185TIP3    H2 3562   1.417   2.962   4.825  1.5441  0.5706 -0.6026
 1186TIP3   OH2 3563   4.833   0.735   2.488  0.3008 -0.0944  0.0728
 1186TIP3    H1 3564   4.835   0.831   2.483 -0.7838  0.0339  1.3812
 1186TIP3    H2 3565   4.883   0.715   2.567 -0.8191 -0.4628  0.7228
 1187TIP3   OH2 3566   3.040   3.637   2.697  0.5421  0.0574 -0.1973
 1187TIP3    H1 3567   3.095   3.558   2.702  2.4838  1.0886 -2.7987
 1187TIP3    H2 3568   3.082   3.699   2.757 -0.3623 -0.4761  1.0361
 1188TIP3   OH2 3569   0.562   2.020   0.204 -0.2777  0.9072  0.1235
 1188TIP3    H1 3570   0.638   2.044   0.257 -0.8187 -2.2982  2.7168
 1188TIP3    H2 3571   0.598   1.963   0.136 -0.2686 -1.3638  1.8930
 1189TIP3   OH2 3572   3.106   4.498   0.296 -0.4618  0.1868 -0.1694
 1189TIP3    H1 3573   3.023   4.518   0.339 -0.8876  0.1060 -0.9323
 1189TIP3    H2 3574   3.169   4.488   0.368 -1.6015 -2.2275  0.5935
 1190TIP3   OH2 3575   0.314   2.495   4.021  0.4226  0.1276  0.2829
 1190TIP3    H1 3576   0.251   2.445   3.969  0.6988 -0.0631  0.1302
 1190TIP3    H2 3577   0.260   2.553   4.074  0.1192  0.0192  0.0977
 1191TIP3   OH2 3578   4.984   5.236   4.658 -0.1381 -0.2626  0.2605
 1191TIP3    H1 3579   5.012   5.149   4.630 -0.6862 -0.2287 -0.4035
 1191TIP3    H2 3580   4.889   5.236   4.645 -0.7023 -0.7744  3.4938
 1192TIP3   OH2 3581   4.548   0.976   1.933 -0.2267 -0.6237 -0.0748
 1192TIP3    H1 3582   4.607   1.040   1.892  0.6959 -2.3073 -1.5708
 1192TIP3    H2 3583   4.460   1.008   1.915  0.2103 -0.0771 -1.3502
 1193TIP3   OH2 3584   2.130   1.239   4.890  0.1930  0.3704  0.0829
 1193TIP3    H1 3585   2.200   1.186   4.928  0.9124  1.5926  0.4878
 1193TIP3    H2 3586   2.144   1.234   4.796  1.2968  1.2285  0.1913
 1194TIP3   OH2 3587   4.334   1.122   0.550 -0.0498 -0.0603 -0.1625
 1194TIP3    H1 3588   4.330   1.103   0.457 -0.3226 -0.3705 -0.0889
 1194TIP3    H2 3589   4.427   1.114   0.572 -0.2855 -3.2762  0.2378
 1195TIP3   OH2 3590   5.498   4.140   4.765 -0.1784  0.6406  0.4787
 1195TIP3    H1 3591   5.435   4.079   4.726  1.2652 -0.7400  0.2168
 1195TIP3    H2 3592   5.577   4.088   4.778  1.3566  2.6348 -0.3629
 1196TIP3   OH2 3593   3.722   0.996   2.246 -1.0564 -0.0498  0.2929
 1196TIP3    H1 3594   3.653   0.998   2.180  0.9253  1.0263 -1.8833
 1196TIP3    H2 3595   3.772   0.917   2.226 -0.0587  0.6215  0.0827
 1197TIP3   OH2 3596   4.616   5.522   2.729 -0.4419  0.0468 -0.1306
 1197TIP3    H1 3597   4.626   5.428   2.744 -0.5192  0.0192 -0.2544
 1197TIP3    H2 3598   4.682   5.544   2.664  1.1175  0.5052  1.5131
 1198TIP3   OH2 3599   2.167   2.084   1.624  0.5633  0.3923  0.1685
 1198TIP3    H1 3600   2.199   2.146   1.689 -1.0954  1.3187  0.1641
 1198TIP3    H2 3601   2.089   2.045   1.664  0.1953  0.1113 -0.7940
 1199TIP3   OH2 3602   5.958   3.062   3.862 -0.2455 -0.8091 -0.9318
 1199TIP3    H1 3603   5.903   3.007   3.917 -0.2603 -1.7560 -1.8590
 1199TIP3    H2 3604   5.919   3.149   3.869 -0.0817 -0.8473  0.7429
 1200TIP3   OH2 3605   5.142   1.937   2.253  0.3320 -0.4098 -0.2261
 1200TIP3    H1 3606   5.173   1.857   2.210  1.1850  0.0796 -0.5586
 1200TIP3    H2 3607   5.055   1.915   2.286 -0.1442 -0.9721 -1.7572
 1201TIP3   OH2 3608   3.877   2.714   1.453  0.2006  0.2980 -0.1209
 1201TIP3    H1 3609   3.828   2.760   1.521  0.9061 -2.0982  2.1423
 1201TIP3    H2 3610   3.816   2.648   1.420  0.5706  0.0238 -0.2672
 1202TIP3   OH2 3611   2.652   4.832   1.576 -0.1345  0.4172  0.0444
 1202TIP3    H1 3612   2.656   4.922   1.545 -0.6905  0.5272  0.2823
 1202TIP3    H2 3613   2.616   4.839   1.664  0.1271 -0.0113  0.1859
 1203TIP3   OH2 3614   5.022   0.384   4.894  0.9415 -0.2809 -0.5796
 1203TIP3    H1 3615   5.095   0.444   4.880  0.5617  0.3882  0.2571
 1203TIP3    H2 3616   4.944   0.435   4.873  0.5327 -0.0807  1.2687
 1204TIP3   OH2 3617   5.060   1.156   3.987  0.3453 -0.1289  0.1667
 1204TIP3    H1 3618   5.047   1.172   3.893  1.4082  0.7369  0.1507
 1204TIP3    H2 3619   5.094   1.239   4.021  1.8605 -1.0386  0.9480
 1205TIP3   OH2 3620  -0.000   0.565   2.243  0.1232  0.2948  0.2875
 1205TIP3    H1 3621  -0.025   0.516   2.164  1.1754 -0.5511  0.4528
 1205TIP3    H2 3622   0.038   0.499   2.301  0.5861  1.1420  0.9654
 1206TIP3   OH2 3623   4.776   3.669   3.875  0.5563  0.0908 -0.6221
 1206TIP3    H1 3624   4.825   3.704   3.949 -1.7171  0.4268  0.8220
 1206TIP3    H2 3625   4.762   3.577   3.896 -2.1940  0.7107  0.7063
 1207TIP3   OH2 3626   5.098   3.250   1.453  0.2203  0.3345  0.5880
 1207TIP3    H1 3627   5.005   3.226   1.447  1.3248 -4.8809 -0.6653
 1207TIP3    H2 3628   5.121   3.231   1.544  0.1641  1.3383  0.8198
 1208TIP3   OH2 3629   0.266   2.080   4.533 -0.0527  0.3998  0.6206
 1208TIP3    H1 3630   0.330   2.018   4.498 -1.5652 -0.3609 -0.9646
 1208TIP3    H2 3631   0.297   2.101   4.621  1.3669 -1.3548  0.5750
 1209TIP3   OH2 3632   5.849   2.566   2.055 -0.1930 -0.2348  0.5455
 1209TIP3    H1 3633   5.776   2.578   2.116 -0.8315  0.0355 -0.2462
 1209TIP3    H2 3634   5.835   2.479   2.017  1.9094 -1.7730  2.9620
 1210TIP3   OH2 3635   2.965   4.964   4.377 -0.2906  0.6219  0.1754
 1210TIP3    H1 3636   2.923   4.884   4.344  1.0121  0.0167 -0.0683
 1210TIP3    H2 3637   2.981   4.946   4.470 -0.0856  0.6357  0.1434
 1211TIP3   OH2 3638   0.441   0.704   0.726  0.1296 -0.2771  0.2379
 1211TIP3    H1 3639   0.514   0.670   0.778  1.1389 -2.1503 -2.2255
 1211TIP3    H2 3640   0.465   0.795   0.706  0.4774 -0.0443  1.6307
 1212TIP3   OH2 3641   4.639   1.081   4.850  0.3084 -0.2025 -0.3814
 1212TIP3    H1 3642   4.558   1.096   4.899  0.8584 -0.0901  0.4949
 1212TIP3    H2 3643   4.665   0.992   4.872  1.4328  0.3987  0.8493
 1213TIP3   OH2 3644   2.336   5.847   3.266 -0.2537  0.1761  0.1930
 1213TIP3    H1 3645   2.348   5.940   3.283  0.1539  0.1913 -0.1496
 1213TIP3    H2 3646   2.329   5.807   3.353  0.2234  0.4469  0.3609
 1214TIP3   OH2 3647   2.414   4.210   3.363 -0.2161  0.0751 -0.1575
 1214TIP3    H1 3648   2.474   4.144   3.396  1.1944  1.4561  0.1849
 1214TIP3    H2 3649   2.352   4.161   3.308  0.4465 -1.5699  0.4951
 1215TIP3   OH2 3650  -0.001   1.480   2.294  0.2272  0.1934 -0.4480
 1215TIP3    H1 3651  -0.013   1.396   2.339  0.8902 -0.4220 -1.4008
 1215TIP3    H2 3652   0.043   1.458   2.212 -0.0416  1.4191 -0.9454
 1216TIP3   OH2 3653   4.988   2.862   4.139 -0.3884 -0.7149  0.3698
 1216TIP3    H1 3654   4.905   2.823   4.165 -1.3682  1.1271  0.1404
 1216TIP3    H2 3655   4.986   2.951   4.174  1.3351 -0.5089  0.0558
 1217TIP3   OH2 3656   0.454   2.990   4.685  0.2093 -0.2592  0.0803
 1217TIP3    H1 3657   0.424   2.902   4.707 -0.2865 -0.2122 -0.3899
 1217TIP3    H2 3658   0.540   2.997   4.727 -0.7062 -0.1399  2.0421
 1218TIP3   OH2 3659   1.245   4.993   1.685  0.2206  0.5499 -0.1248
 1218TIP3    H1 3660   1.248   4.990   1.589  1.0560  1.5084 -0.1517
 1218TIP3    H2 3661   1.235   4.902   1.712  0.2059  0.2461 -1.1171
 1219TIP3   OH2 3662   2.764   0.851   4.996  0.8424  0.2031 -0.4395
 1219TIP3    H1 3663   2.712   0.824   4.920 -1.4608 -0.2562  1.1778
 1219TIP3    H2 3664   2.821   0.777   5.014 -1.2746 -1.3245  0.4423
 1220TIP3   OH2 3665   2.066   0.420   3.616  0.2370  0.0695 -0.6240
 1220TIP3    H1 3666   2.100   0.499   3.657  0.3997  0.9583 -2.3767
 1220TIP3    H2 3667   2.105   0.420   3.528  1.5411 -2.8054 -0.1647
 1221TIP3   OH2 3668   2.288   2.421   0.415  0.0132  0.5551  0.3973
 1221TIP3    H1 3669   2.269   2.449   0.504  0.4142  0.6656  0.4487
 1221TIP3    H2 3670   2.384   2.424   0.408  0.2890 -2.8145  1.0911
 1222TIP3   OH2 3671   2.474   5.352   4.832 -0.4243 -0.4267 -0.6581
 1222TIP3    H1 3672   2.435   5.437   4.849 -0.1931 -0.4840  0.1853
 1222TIP3    H2 3673   2.454   5.300   4.909 -0.0493 -0.9519 -0.9047
 1223TIP3   OH2 3674   5.823   1.882   0.976  0.6928 -0.0156 -0.0312
 1223TIP3    H1 3675   5.868   1.881   1.060  0.5961 -3.1983  0.1060
 1223TIP3    H2 3676   5.730   1.884   0.999  0.6389 -1.8007  0.0436
 1224TIP3   OH2 3677   0.720   0.938   1.359  0.5502  0.0098  0.5903
 1224TIP3    H1 3678   0.674   0.984   1.289 -0.7653 -2.2858 -0.1781
 1224TIP3    H2 3679   0.651   0.915   1.422  0.7412 -2.4656  0.0072
 1225TIP3   OH2 3680   0.935   2.935   2.220 -0.0053 -0.4542 -0.3516
 1225TIP3    H1 3681   0.977   3.021   2.227 -1.0026 -0.0209  0.6162
 1225TIP3    H2 3682   0.954   2.893   2.304 -2.3375  0.1714  0.5501
 1226TIP3   OH2 3683   2.763   5.918   3.957  0.5119 -0.1738 -0.0840
 1226TIP3    H1 3684   2.814   5.853   3.910 -0.3899 -0.6098 -0.4904
 1226TIP3    H2 3685   2.817   5.997   3.957  1.0109 -0.5115 -0.8381
 1227TIP3   OH2 3686   1.036   3.299   4.127  0.0718  0.1451 -0.6166
 1227TIP3    H1 3687   0.944   3.315   4.148  0.6749  1.7462  1.1863
 1227TIP3    H2 3688   1.054   3.355   4.051 -0.1278  0.9188 -0.1064
 1228TIP3   OH2 3689   4.516   3.032   2.856  0.8017  0.5713 -0.4565
 1228TIP3    H1 3690   4.489   3.123   2.868 -1.0735 -0.1397  1.5973
 1228TIP3    H2 3691   4.567   3.032   2.775 -1.5197  2.9544 -2.0940
 1229TIP3   OH2 3692   4.980   1.301   4.550 -0.6778 -0.0005 -0.1444
 1229TIP3    H1 3693   4.908   1.311   4.487  0.5102  0.5121 -1.4692
 1229TIP3    H2 3694   5.027   1.384   4.546  0.6828 -0.7567 -0.1961
 1230TIP3   OH2 3695   4.350   1.211   3.962 -0.2976  0.3553  0.1303
 1230TIP3    H1 3696   4.366   1.260   3.881  1.0199 -1.0784 -0.5431
 1230TIP3    H2 3697   4.421   1.239   4.020 -1.0771  1.1683  0.7207
 1231TIP3   OH2 3698   4.749   2.602   4.609 -0.3027  0.2378  0.1620
 1231TIP3    H1 3699   4.827   2.632   4.655 -0.8361  0.3069  1.0486
 1231TIP3    H2 3700   4.703   2.683   4.586  0.6700  0.2807 -1.8278
 1232TIP3   OH2 3701   4.416   4.312   4.751  0.2453 -0.1656  0.3973
 1232TIP3    H1 3702   4.478   4.261   4.698 -0.8371 -0.7501 -0.3506
 1232TIP3    H2 3703   4.460   4.396   4.763  1.2663 -0.6209  0.0464
 1233TIP3   OH2 3704   2.268   1.063   3.368  0.1076 -0.1719  0.4571
 1233TIP3    H1 3705   2.333   1.129   3.346  1.1091 -1.2725 -0.0252
 1233TIP3    H2 3706   2.286   0.991   3.308 -1.9570 -0.2945 -0.1067
 1234TIP3   OH2 3707   1.587   4.991   4.440 -0.2537 -0.2135  0.1944
 1234TIP3    H1 3708   1.608   5.013   4.349  0.9366  0.5170  0.6226
 1234TIP3    H2 3709   1.611   4.898   4.448 -0.6306 -0.3611 -0.2994
 1235TIP3   OH2 3710   5.294   1.151   1.850 -0.2065 -0.0178 -0.6723
 1235TIP3    H1 3711   5.204   1.182   1.861 -0.3412 -0.1682 -1.2996
 1235TIP3    H2 3712   5.323   1.190   1.768  0.0253 -0.6076 -0.8763
 1236TIP3   OH2 3713   3.276   0.742   0.668 -0.0407  0.2474 -0.0442
 1236TIP3    H1 3714   3.252   0.824   0.712  1.3630  0.0041  1.2740
 1236TIP3    H2 3715   3.200   0.685   0.681  0.0913  0.3860  1.6387
 1237TIP3   OH2 3716   4.023   5.233   2.848  0.1292  0.1357 -0.0355
 1237TIP3    H1 3717   4.008   5.304   2.910 -0.7497  0.0184 -0.1015
 1237TIP3    H2 3718   4.007   5.153   2.898  1.6027 -0.0620  0.1749
 1238TIP3   OH2 3719   3.480   2.914   2.774 -0.5130 -0.2107 -0.4519
 1238TIP3    H1 3720   3.559   2.927   2.722 -0.8412  1.4245 -0.5983
 1238TIP3    H2 3721   3.475   2.819   2.788  0.9099 -0.4303 -1.2957
 1239TIP3   OH2 3722   0.934   1.042   2.874  0.0261 -0.3858 -0.3122
 1239TIP3    H1 3723   0.977   0.972   2.922  0.0383  0.0917  0.3772
 1239TIP3    H2 3724   0.881   0.997   2.807  1.6157 -0.9780 -1.2162
 1240TIP3   OH2 3725   3.158   3.422   0.947 -0.0799 -0.3408 -0.2275
 1240TIP3    H1 3726   3.233   3.362   0.951  0.9121  0.9055  1.0378
 1240TIP3    H2 3727   3.106   3.402   1.025  0.2489  0.3758  0.1968
 1241TIP3   OH2 3728   6.017   2.453   1.012 -0.2373 -0.4653 -0.0999
 1241TIP3    H1 3729   5.922   2.451   0.997 -0.3074  1.0202 -0.0273
 1241TIP3    H2 3730   6.041   2.361   1.024 -1.5317 -0.9474 -0.9179
 1242TIP3   OH2 3731   2.805   2.797   3.144  0.6133 -0.2043 -0.2462
 1242TIP3    H1 3732   2.799   2.754   3.059 -1.6447  2.9667 -1.8848
 1242TIP3    H2 3733   2.754   2.741   3.203  1.5826 -2.0619 -1.0731
 1243TIP3   OH2 3734   0.990   5.651   4.911  0.0551 -0.0790  0.1921
 1243TIP3    H1 3735   1.078   5.614   4.911 -0.3563 -1.1084  0.4483
 1243TIP3    H2 3736   0.932   5.576   4.927 -0.9105  0.4834 -0.5099
 1244TIP3   OH2 3737   5.646   3.302   0.740  0.8244 -0.8727  0.2086
 1244TIP3    H1 3738   5.738   3.294   0.714  0.7729 -0.3673 -0.1491
 1244TIP3    H2 3739   5.639   3.389   0.779  0.3752 -0.6655 -0.3090
 1245TIP3   OH2 3740   4.131   1.554   0.821 -0.0800  0.5004  0.2921
 1245TIP3    H1 3741   4.226   1.552   0.822 -0.0007  2.4112  0.7513
 1245TIP3    H2 3742   4.105   1.513   0.904  0.2086 -1.9279 -0.7325
 1246TIP3   OH2 3743   5.780   2.282   0.592  0.2020 -0.0575  0.2468
 1246TIP3    H1 3744   5.737   2.257   0.674  0.2253 -0.8248  0.0340
 1246TIP3    H2 3745   5.709   2.300   0.532  0.1840  0.3078  0.3781
 1247TIP3   OH2 3746   2.138   3.254   2.184 -0.2903 -0.1858  0.3131
 1247TIP3    H1 3747   2.111   3.335   2.142  0.1174 -0.2186 -0.0163
 1247TIP3    H2 3748   2.083   3.187   2.144  1.5250 -0.5377 -1.7542
 1248TIP3   OH2 3749   2.795   1.555   2.618 -0.1336 -0.5278  0.4690
 1248TIP3    H1 3750   2.768   1.573   2.527  0.5602 -1.1205  0.1402
 1248TIP3    H2 3751   2.808   1.460   2.620  0.1716 -0.4694  1.1092
 1249TIP3   OH2 3752   0.992   3.381   3.156  0.4641 -0.0956  0.0412
 1249TIP3    H1 3753   0.910   3.383   3.206  1.3437  2.0439  1.5519
 1249TIP3    H2 3754   1.001   3.290   3.128 -3.0228 -0.1930 -1.2845
 1250TIP3   OH2 3755   4.190   0.735   2.477  0.3804  0.1981 -0.1412
 1250TIP3    H1 3756   4.275   0.773   2.455  0.1445 -0.6334 -3.0012
 1250TIP3    H2 3757   4.130   0.810   2.480  0.4637  0.4795 -2.6999
 1251TIP3   OH2 3758   4.838   4.734   0.856  0.2910  0.0037 -0.1419
 1251TIP3    H1 3759   4.899   4.807   0.849 -0.0239  0.1448 -2.1608
 1251TIP3    H2 3760   4.866   4.673   0.788 -0.1750 -1.2118  0.7200
 1252TIP3   OH2 3761   2.266   4.194   3.665  0.4098 -0.1795 -0.4946
 1252TIP3    H1 3762   2.303   4.177   3.578  1.6028  1.1721 -0.2885
 1252TIP3    H2 3763   2.222   4.278   3.655  0.9339  0.1991  0.3038
 1253TIP3   OH2 3764   4.758   1.269   3.315  0.4059 -0.5211  0.6175
 1253TIP3    H1 3765   4.773   1.175   3.318 -0.6241 -0.7139  0.0230
 1253TIP3    H2 3766   4.757   1.290   3.222 -1.6068 -0.3137  0.6456
 1254TIP3   OH2 3767   0.865   5.054   2.698 -0.0938  0.0656  0.1510
 1254TIP3    H1 3768   0.819   5.117   2.754 -1.6874  0.0184 -1.0314
 1254TIP3    H2 3769   0.811   5.048   2.620  2.2532  0.4603 -1.6293
 1255TIP3   OH2 3770   5.601   0.333   3.969  0.1251 -0.7280  0.2726
 1255TIP3    H1 3771   5.571   0.422   3.989 -2.5508 -1.8831  1.9602
 1255TIP3    H2 3772   5.684   0.324   4.017 -0.5430  0.2600  1.6614
 1256TIP3   OH2 3773   4.544   0.757   2.103  0.3775 -0.2839 -0.1207
 1256TIP3    H1 3774   4.545   0.836   2.049 -0.9372 -0.0488  0.1620
 1256TIP3    H2 3775   4.628   0.760   2.150  0.0067  1.4316  0.5321
 1257TIP3   OH2 3776   1.033   3.191   2.167 -0.0364  0.3133 -0.6192
 1257TIP3    H1 3777   1.125   3.200   2.144  0.0800 -0.8052 -0.6577
 1257TIP3    H2 3778   1.020   3.252   2.239  0.9530 -0.1538 -0.0326
 1258TIP3   OH2 3779   4.337   3.704   4.435 -0.1481  0.1653 -0.6041
 1258TIP3    H1 3780   4.387   3.752   4.501 -0.2357  0.3290 -0.6559
 1258TIP3    H2 3781   4.249   3.741   4.440 -0.2480 -0.0742 -0.5599
 1259TIP3   OH2 3782   5.707   1.577   0.970 -0.3245 -0.2005 -0.7211
 1259TIP3    H1 3783   5.698   1.524   0.891  0.9377 -1.4890 -0.0517
 1259TIP3    H2 3784   5.780   1.636   0.951  0.9815 -1.5309 -0.0330
 1260TIP3   OH2 3785   4.259   1.064   1.845  0.1710  0.1424 -0.2425
 1260TIP3    H1 3786   4.203   0.986   1.841 -0.1306  0.4044 -3.1052
 1260TIP3    H2 3787   4.205   1.130   1.889 -0.8190 -0.3490 -0.6979
 1261TIP3   OH2 3788   1.373   1.385   2.260  0.5787 -0.3643 -0.3530
 1261TIP3    H1 3789   1.434   1.377   2.187  1.3406  1.5872  0.0106
 1261TIP3    H2 3790   1.297   1.332   2.235  0.7256  0.4457 -2.6741
 1262TIP3   OH2 3791   5.411   4.069   0.310 -0.2222 -0.1965 -0.1310
 1262TIP3    H1 3792   5.323   4.107   0.299  0.0050  0.0251 -1.3243
 1262TIP3    H2 3793   5.404   4.016   0.389 -1.4249 -0.1560 -0.1837
 1263TIP3   OH2 3794   5.170   5.549   2.112  0.5211 -0.2822  0.1941
 1263TIP3    H1 3795   5.177   5.464   2.068 -0.6487 -0.8968  1.1317
 1263TIP3    H2 3796   5.256   5.588   2.102  1.7104 -2.4057  1.3665
 1264TIP3   OH2 3797   1.853   5.632   3.194  0.6124  0.8739  0.4114
 1264TIP3    H1 3798   1.767   5.669   3.172  0.4980  0.0034 -0.6949
 1264TIP3    H2 3799   1.839   5.537   3.194  1.1201  0.7486  2.2615
 1265TIP3   OH2 3800   5.195   2.908   2.946 -0.3796  0.2421 -0.5252
 1265TIP3    H1 3801   5.254   2.878   2.876 -0.9755  0.9636 -1.3731
 1265TIP3    H2 3802   5.210   3.003   2.949 -1.5547  0.4562 -0.8401
 1266TIP3   OH2 3803   5.202   2.201   3.919 -0.2242 -0.1834 -0.4357
 1266TIP3    H1 3804   5.187   2.112   3.951  0.0660  0.1379  0.6134
 1266TIP3    H2 3805   5.291   2.222   3.946 -1.2967  1.5804  2.1970
 1267TIP3   OH2 3806   2.013   2.395   4.809  0.4828  0.0001 -0.0508
 1267TIP3    H1 3807   2.074   2.406   4.882  0.6476 -0.4729 -0.1131
 1267TIP3    H2 3808   1.975   2.482   4.795 -1.6245 -0.4247  2.3972
 1268TIP3   OH2 3809   2.152   2.342   2.108  0.0166  0.9629  0.6419
 1268TIP3    H1 3810   2.198   2.347   2.192  0.9265  0.6511  0.1772
 1268TIP3    H2 3811   2.060   2.357   2.130  0.0176 -0.6081  1.9012
 1269TIP3   OH2 3812   1.348   2.783   4.534 -0.0852 -0.1109  0.0323
 1269TIP3    H1 3813   1.324   2.866   4.575  1.6847  0.6956 -0.4860
 1269TIP3    H2 3814   1.307   2.785   4.448 -0.2449  0.1237  0.1145
 1270TIP3   OH2 3815   2.187   5.215   4.336  0.0016  0.0790 -0.3899
 1270TIP3    H1 3816   2.221   5.198   4.424  0.5647  2.3052 -0.1172
 1270TIP3    H2 3817   2.151   5.131   4.307 -0.1022 -0.7282  1.9158
 1271TIP3   OH2 3818   1.353   4.973   4.798 -0.1214 -0.1047 -0.3224
 1271TIP3    H1 3819   1.312   4.975   4.885  0.1417 -1.1683 -0.1563
 1271TIP3    H2 3820   1.446   4.984   4.816 -0.2138  1.4054 -0.6279
 1272TIP3   OH2 3821   4.363   3.095   1.307  0.0307  0.0614 -0.0969
 1272TIP3    H1 3822   4.292   3.077   1.369 -1.2446  0.8793 -1.2484
 1272TIP3    H2 3823   4.443   3.090   1.359 -0.9586  0.2872  1.5048
 1273TIP3   OH2 3824   2.323   0.404   0.628  0.9937 -0.5549 -0.2154
 1273TIP3    H1 3825   2.307   0.467   0.559  1.9448 -0.6953 -0.5894
 1273TIP3    H2 3826   2.418   0.388   0.624  0.9784 -0.9788  0.7542
 1274TIP3   OH2 3827   5.519   1.779   4.248 -0.0678  0.2618 -0.2298
 1274TIP3    H1 3828   5.589   1.714   4.249 -0.1133  0.1921 -1.1990
 1274TIP3    H2 3829   5.466   1.758   4.325  0.4304 -0.2835 -0.0311
 1275TIP3   OH2 3830   2.441   2.159   1.330  0.2075  0.8436  0.5040
 1275TIP3    H1 3831   2.348   2.177   1.341  0.3660  2.0308  0.0882
 1275TIP3    H2 3832   2.445   2.071   1.294 -0.7074  0.4630  1.3058
 1276TIP3   OH2 3833   4.559   4.127   4.611 -0.3076  0.0539  0.3201
 1276TIP3    H1 3834   4.477   4.113   4.563 -0.0299  0.2136 -0.2173
 1276TIP3    H2 3835   4.622   4.072   4.565 -0.2067 -0.3983  0.9980
 1277TIP3   OH2 3836   0.737   0.171   2.775 -0.1632  0.6701  0.0369
 1277TIP3    H1 3837   0.828   0.161   2.801 -0.4229 -0.1929  0.6433
 1277TIP3    H2 3838   0.692   0.096   2.813 -0.9400  0.4758 -1.1805
 1278TIP3   OH2 3839   2.857   5.844   5.006  0.3077  0.2362 -0.1856
 1278TIP3    H1 3840   2.814   5.929   4.997  0.0806  0.3079  1.2619
 1278TIP3    H2 3841   2.786   5.784   5.031  0.8089  0.1025  0.9926
 1279TIP3   OH2 3842   2.563   0.111   1.628  0.0267 -0.0619 -0.2500
 1279TIP3    H1 3843   2.484   0.150   1.589 -0.2807 -0.9225 -0.5133
 1279TIP3    H2 3844   2.559   0.019   1.602 -0.5703 -0.8694  2.3922
 1280TIP3   OH2 3845   6.272   1.265   2.511  0.0430  0.3331 -0.0907
 1280TIP3    H1 3846   6.188   1.295   2.547 -0.4246 -1.7866  0.7549
 1280TIP3    H2 3847   6.325   1.246   2.589  0.4073 -0.6959 -0.5811
 1281TIP3   OH2 3848   2.230   4.794   1.732  0.2876  0.8190  0.4693
 1281TIP3    H1 3849   2.253   4.751   1.815 -0.4523 -0.4143  0.0593
 1281TIP3    H2 3850   2.178   4.870   1.758 -1.3101 -0.4408  1.1144
 1282TIP3   OH2 3851   4.983   0.319   0.666 -0.4441 -0.0380  0.5651
 1282TIP3    H1 3852   5.070   0.279   0.665 -0.0786  0.7059  1.3378
 1282TIP3    H2 3853   4.994   0.401   0.714 -1.3741  0.5461 -0.1664
 1283TIP3   OH2 3854   2.920   5.952   2.424  0.2559 -0.2585  0.0575
 1283TIP3    H1 3855   2.972   5.948   2.343  0.9989  0.8094  0.4571
 1283TIP3    H2 3856   2.961   6.022   2.475 -0.0855 -1.0443  1.4481
 1284TIP3   OH2 3857   5.690   0.515   2.934 -0.3501  0.5383 -0.4014
 1284TIP3    H1 3858   5.645   0.532   3.016 -1.0715  1.9497 -1.0579
 1284TIP3    H2 3859   5.782   0.538   2.951 -0.7560  2.2954 -0.3858
 1285TIP3   OH2 3860   1.499   5.886   2.341 -0.7241  0.1953 -0.6734
 1285TIP3    H1 3861   1.579   5.894   2.394  0.0352 -1.6136 -1.4349
 1285TIP3    H2 3862   1.515   5.942   2.265  0.5894 -1.2986 -1.5948
 1286TIP3   OH2 3863   1.270   0.037   2.118 -0.7687  0.2556 -0.3999
 1286TIP3    H1 3864   1.202   0.082   2.069 -1.0623 -2.0076 -2.2392
 1286TIP3    H2 3865   1.233  -0.049   2.138  0.5614 -0.0470  0.9892
 1287TIP3   OH2 3866   2.843   5.464   1.439  0.0367 -0.2873  0.2332
 1287TIP3    H1 3867   2.904   5.392   1.425  2.1571  0.9457  2.2623
 1287TIP3    H2 3868   2.874   5.533   1.381 -0.1607 -0.0530  0.4040
 1288TIP3   OH2 3869   0.590   1.662   1.096 -0.0353  0.4460 -0.4416
 1288TIP3    H1 3870   0.600   1.654   1.191  0.6831 -0.1707 -0.5616
 1288TIP3    H2 3871   0.615   1.752   1.076  0.3944  0.4017 -0.1130
 1289TIP3   OH2 3872   6.347   4.649   4.170  0.2091 -0.6655  0.3655
 1289TIP3    H1 3873   6.254   4.658   4.188  0.6359  1.0407  2.0479
 1289TIP3    H2 3874   6.388   4.644   4.256  1.7246 -0.9056 -0.3256
 1290TIP3   OH2 3875   2.179   1.841   3.306 -0.1426 -0.5219  0.1659
 1290TIP3    H1 3876   2.233   1.771   3.270  1.2776  0.9238 -0.6076
 1290TIP3    H2 3877   2.101   1.841   3.250  0.3285 -0.7790 -0.5102
 1291TIP3   OH2 3878   0.897   2.884   1.410  0.3227 -0.0511  0.4655
 1291TIP3    H1 3879   0.875   2.862   1.501  0.6577  0.5407  0.6991
 1291TIP3    H2 3880   0.832   2.950   1.385  0.6368  0.2716  0.4994
 1292TIP3   OH2 3881   2.326   4.799   2.009 -0.2780  0.3623  0.2917
 1292TIP3    H1 3882   2.254   4.789   2.070  0.1361  2.5087  1.2104
 1292TIP3    H2 3883   2.404   4.774   2.059 -0.0594  1.0526  0.3037
 1293TIP3   OH2 3884   1.093   3.812   1.861  0.2486 -0.0333  0.9988
 1293TIP3    H1 3885   1.185   3.839   1.854  0.2926  0.8339  3.7796
 1293TIP3    H2 3886   1.097   3.718   1.876  0.5358 -0.3014 -0.5326
 1294TIP3   OH2 3887   3.491   1.795   1.631 -0.4788 -0.2024 -0.1447
 1294TIP3    H1 3888   3.503   1.711   1.588 -0.3656 -2.2560  3.4694
 1294TIP3    H2 3889   3.414   1.833   1.589  0.4149 -1.2777 -2.9639
 1295TIP3   OH2 3890   5.140   1.781   0.209 -0.8388  0.0245  0.3746
 1295TIP3    H1 3891   5.137   1.695   0.250 -1.0863 -0.5934 -0.8853
 1295TIP3    H2 3892   5.213   1.826   0.252 -0.8521 -0.7263  1.2026
 1296TIP3   OH2 3893   1.396   0.128   1.394  0.4046  0.4628 -0.0372
 1296TIP3    H1 3894   1.301   0.140   1.401  0.1431 -1.1099 -0.4503
 1296TIP3    H2 3895   1.427   0.206   1.350 -0.7242  0.9166 -0.0719
 1297TIP3   OH2 3896   2.267   0.231   4.366  0.6679  1.0930  0.3064
 1297TIP3    H1 3897   2.353   0.242   4.405  0.8342  2.8634 -0.4608
 1297TIP3    H2 3898   2.279   0.163   4.300  1.4734  1.3012  0.2278
 1298TIP3   OH2 3899   3.682   1.650   2.689  0.2790  0.3581  0.0117
 1298TIP3    H1 3900   3.671   1.610   2.775 -1.0701  1.4912  0.3850
 1298TIP3    H2 3901   3.717   1.579   2.635  1.7907 -0.1993  1.6154
 1299TIP3   OH2 3902   0.242   3.946   0.150  0.6473 -0.1696  0.4238
 1299TIP3    H1 3903   0.169   3.891   0.123  0.4344 -0.6330  1.8479
 1299TIP3    H2 3904   0.278   3.981   0.068 -0.9238 -0.2283 -0.3279
 1300TIP3   OH2 3905   1.140   5.819   1.169  0.1277 -0.1464  0.6274
 1300TIP3    H1 3906   1.067   5.848   1.223  1.8323  0.9456  2.4514
 1300TIP3    H2 3907   1.210   5.798   1.231  2.3262  1.5410 -1.1094
 1301TIP3   OH2 3908   4.052   0.975   5.023  0.2784  0.2342  1.0490
 1301TIP3    H1 3909   4.039   0.970   4.929 -1.2937  1.3343  1.1781
 1301TIP3    H2 3910   4.098   1.058   5.037  0.4921  0.0836  1.2598
 1302TIP3   OH2 3911   4.310   0.145   1.327 -0.0468  0.1981 -0.2710
 1302TIP3    H1 3912   4.283   0.237   1.317 -0.5020  0.2551  1.2519
 1302TIP3    H2 3913   4.393   0.149   1.374  0.3436 -0.1550 -0.9153
 1303TIP3   OH2 3914   0.837   4.534   5.080 -0.2924  0.6348  0.2527
 1303TIP3    H1 3915   0.746   4.505   5.072 -0.2107  0.4306  0.0498
 1303TIP3    H2 3916   0.887   4.453   5.090 -0.2002  0.7861  1.0567
 1304TIP3   OH2 3917   5.479   6.020   1.092  0.2694 -0.0629 -0.4969
 1304TIP3    H1 3918   5.514   5.999   1.006 -0.3461 -1.3062 -0.4671
 1304TIP3    H2 3919   5.524   5.960   1.152  0.3933  0.5046 -0.0116
 1305TIP3   OH2 3920   2.359   4.258   4.812 -0.2028 -0.4846 -0.2764
 1305TIP3    H1 3921   2.357   4.198   4.737  0.2183 -0.3615 -0.3902
 1305TIP3    H2 3922   2.336   4.343   4.775 -2.3950 -0.8308  0.1575
 1306TIP3   OH2 3923   5.836   0.908   2.355  0.1953  0.2678 -0.5091
 1306TIP3    H1 3924   5.750   0.948   2.341  0.4723  1.0815  0.0108
 1306TIP3    H2 3925   5.832   0.875   2.445  0.4227  0.3052 -0.4849
 1307TIP3   OH2 3926   2.602   5.350   4.465 -0.2908 -0.1605 -0.3612
 1307TIP3    H1 3927   2.622   5.263   4.430  1.4733  0.0045  0.1040
 1307TIP3    H2 3928   2.567   5.399   4.391  1.1448 -0.5158 -1.3181
 1308TIP3   OH2 3929   1.232   4.308   0.744 -0.0925  0.1736 -0.1156
 1308TIP3    H1 3930   1.165   4.250   0.709 -0.4006 -1.5181  2.9147
 1308TIP3    H2 3931   1.198   4.335   0.830  2.0176  1.2570  0.4615
 1309TIP3   OH2 3932   3.466   4.699   4.397  0.2803 -0.0469  0.1252
 1309TIP3    H1 3933   3.380   4.742   4.394 -0.7057 -1.8043  1.1394
 1309TIP3    H2 3934   3.528   4.770   4.410 -1.2731  1.0615  2.1077
 1310TIP3   OH2 3935   1.209   2.878   2.930  0.1479  0.7575 -0.6270
 1310TIP3    H1 3936   1.276   2.935   2.967  0.8348  0.3362 -1.1970
 1310TIP3    H2 3937   1.236   2.790   2.956 -0.3051  0.6005 -0.6812
 1311TIP3   OH2 3938   4.726   5.173   2.531  0.5184  1.0239 -0.3753
 1311TIP3    H1 3939   4.695   5.087   2.558  1.9914  1.3002  2.6288
 1311TIP3    H2 3940   4.659   5.205   2.470 -1.0268 -1.4474 -0.1010
 1312TIP3   OH2 3941   4.391   3.927   1.180 -0.2745  0.1876  0.0701
 1312TIP3    H1 3942   4.407   3.977   1.101 -0.5499  0.2279  0.0383
 1312TIP3    H2 3943   4.310   3.879   1.162 -0.2081  0.0105  0.2351
 1313TIP3   OH2 3944   3.748   3.671   4.609  0.2748  0.1686 -0.1610
 1313TIP3    H1 3945   3.739   3.583   4.644 -0.4337 -0.4065 -1.6890
 1313TIP3    H2 3946   3.692   3.725   4.664  0.6335 -0.3381  0.7199
 1314TIP3   OH2 3947   1.840   0.305   1.960 -0.3047 -0.5516 -0.2490
 1314TIP3    H1 3948   1.766   0.252   1.931 -0.2971 -0.2524 -0.8357
 1314TIP3    H2 3949   1.905   0.296   1.890 -0.5235  0.6689 -0.6321
 1315TIP3   OH2 3950   6.141   3.204   4.533  0.9929 -0.6098 -0.2316
 1315TIP3    H1 3951   6.091   3.285   4.526 -0.9935 -1.6879  0.7521
 1315TIP3    H2 3952   6.209   3.213   4.466  0.3751  1.5279 -0.6594
 1316TIP3   OH2 3953   1.479   5.575   3.966  0.2761 -0.1994 -0.0372
 1316TIP3    H1 3954   1.502   5.668   3.975 -2.8543  0.8212 -1.3041
 1316TIP3    H2 3955   1.555   5.536   3.923  1.1223  2.0765 -0.7716
 1317TIP3   OH2 3956   2.689   0.102   4.647  0.3905 -0.2257 -0.2031
 1317TIP3    H1 3957   2.725   0.178   4.691 -1.1195  0.6479 -0.3856
 1317TIP3    H2 3958   2.740   0.028   4.680  2.3304  0.9041 -0.5125
 1318TIP3   OH2 3959   5.609   0.780   2.502  0.6510  0.3170 -0.4992
 1318TIP3    H1 3960   5.678   0.832   2.544  1.6170 -1.4480  0.1952
 1318TIP3    H2 3961   5.627   0.690   2.528 -0.7785 -0.4405 -1.9238
 1319TIP3   OH2 3962   0.449   3.179   4.428  0.0901  0.0933  0.1016
 1319TIP3    H1 3963   0.379   3.130   4.386 -0.0960  0.8109 -0.4497
 1319TIP3    H2 3964   0.457   3.140   4.515  0.5169 -1.4635 -0.5928
 1320TIP3   OH2 3965   5.637   5.509   0.347 -0.5019  0.0966  0.0882
 1320TIP3    H1 3966   5.605   5.450   0.416 -1.4116  0.2411 -0.1933
 1320TIP3    H2 3967   5.590   5.591   0.362  1.2458  1.0118  0.8959
 1321TIP3   OH2 3968   1.445   3.568   5.172  0.0434 -0.6068 -0.1542
 1321TIP3    H1 3969   1.487   3.529   5.095  0.9812 -0.1364  0.1026
 1321TIP3    H2 3970   1.517   3.580   5.234 -0.4706  0.2601  0.2853
 1322TIP3   OH2 3971   6.140   2.255   3.906  0.1656  0.7325 -0.2268
 1322TIP3    H1 3972   6.183   2.169   3.902  2.3098  1.7684 -2.2511
 1322TIP3    H2 3973   6.200   2.310   3.956 -0.2694  1.4953 -0.5247
 1323TIP3   OH2 3974   0.187   1.080   1.025 -0.6522 -0.5724  0.3932
 1323TIP3    H1 3975   0.270   1.035   1.039 -0.2044 -0.5676 -1.8995
 1323TIP3    H2 3976   0.159   1.106   1.112  1.5309 -0.9602  1.2638
 1324TIP3   OH2 3977   1.610   5.335   4.331 -0.3406  0.3786 -0.0126
 1324TIP3    H1 3978   1.523   5.322   4.293 -0.6602  3.0723 -0.4010
 1324TIP3    H2 3979   1.666   5.273   4.284 -1.9496 -1.2530  0.0776
 1325TIP3   OH2 3980   2.617   0.108   4.954 -0.4138 -0.0307 -0.2108
 1325TIP3    H1 3981   2.646   0.031   4.907  1.5933 -0.9476  2.2907
 1325TIP3    H2 3982   2.697   0.146   4.990 -1.7036  1.0854  1.6795
 1326TIP3   OH2 3983   5.582   1.991   0.444 -0.7548  0.1326 -0.4045
 1326TIP3    H1 3984   5.662   1.956   0.406 -0.8429 -0.0724 -0.4021
 1326TIP3    H2 3985   5.596   2.086   0.446  0.3771 -0.0251  1.6347
 1327TIP3   OH2 3986   2.405   4.357   0.818 -0.0971 -0.3860 -0.1304
 1327TIP3    H1 3987   2.344   4.296   0.776 -0.4279 -0.3061  0.2373
 1327TIP3    H2 3988   2.369   4.444   0.800  1.1341 -0.1803 -1.9040
 1328TIP3   OH2 3989   6.166   5.085  -0.009 -0.3098 -0.6950 -0.2402
 1328TIP3    H1 3990   6.195   5.176  -0.006  1.2748 -1.1900  0.7704
 1328TIP3    H2 3991   6.081   5.085   0.037  1.4244 -0.2713  3.2801
 1329TIP3   OH2 3992   6.289   1.979   1.913  0.1900 -0.3555  0.0248
 1329TIP3    H1 3993   6.286   1.905   1.852  3.5075  0.0383 -0.8311
 1329TIP3    H2 3994   6.239   1.950   1.989 -1.1893 -2.2310 -1.5073
 1330TIP3   OH2 3995   5.209   2.510   4.722  0.1644 -0.4199 -0.6135
 1330TIP3    H1 3996   5.220   2.603   4.740  0.3691 -0.2228 -1.7145
 1330TIP3    H2 3997   5.263   2.466   4.788  0.1042  0.2314 -0.1202
 1331TIP3   OH2 3998   5.374   1.488   4.954  0.0170 -0.3024  0.4432
 1331TIP3    H1 3999   5.281   1.501   4.968  0.1752 -0.1064  1.4230
 1331TIP3    H2 4000   5.394   1.539   4.875 -0.3750  1.1867  1.2547
 1332TIP3   OH2 4001   2.373   1.585   0.382  0.7930  0.6065 -0.4770
 1332TIP3    H1 4002   2.417   1.580   0.297  1.8225 -0.4253  0.0852
 1332TIP3    H2 4003   2.443   1.597   0.445  0.0625  1.1289  0.2595
 1333TIP3   OH2 4004   3.650   1.885   4.343  0.8163 -0.2392  0.1663
 1333TIP3    H1 4005   3.620   1.974   4.326 -1.4420 -0.5505  1.9639
 1333TIP3    H2 4006   3.709   1.893   4.418 -0.0316 -0.3003  0.8587
 1334TIP3   OH2 4007   4.557   1.815   0.129  0.3922 -0.1969 -0.3715
 1334TIP3    H1 4008   4.601   1.847   0.207  0.6950 -1.1053 -0.1560
 1334TIP3    H2 4009   4.470   1.855   0.133  0.1281 -0.8377  0.8558
 1335TIP3   OH2 4010   5.972   1.100   0.491 -0.1791  0.3535  0.0889
 1335TIP3    H1 4011   5.898   1.142   0.533 -1.7130 -2.8627  0.9257
 1335TIP3    H2 4012   6.039   1.094   0.559 -0.7321 -0.3299  0.5813
 1336TIP3   OH2 4013   3.799   2.168   1.969 -0.3261 -0.0162  0.0814
 1336TIP3    H1 4014   3.705   2.183   1.970  0.0720  3.1355  0.1147
 1336TIP3    H2 4015   3.838   2.255   1.978  2.6119 -1.2123  0.2681
 1337TIP3   OH2 4016   4.640   2.611   2.584  0.0533 -0.5920 -0.0829
 1337TIP3    H1 4017   4.641   2.522   2.548  0.9419  0.0024 -1.6567
 1337TIP3    H2 4018   4.719   2.651   2.549 -0.5319  0.9392  0.2807
 1338TIP3   OH2 4019   2.016   4.714   0.061 -0.0194  0.0280  0.0363
 1338TIP3    H1 4020   1.953   4.678   0.124  0.9570 -1.0815  0.4188
 1338TIP3    H2 4021   2.029   4.643  -0.002 -0.1560  0.7322 -0.7913
 1339TIP3   OH2 4022   1.755   0.823   0.212  0.6856 -0.3154 -0.2443
 1339TIP3    H1 4023   1.801   0.837   0.129  2.8297 -2.6105  0.4219
 1339TIP3    H2 4024   1.677   0.772   0.187  1.7060 -1.6613 -0.8366
 1340TIP3   OH2 4025   4.872   2.922   2.973 -0.4365  0.0974 -0.3412
 1340TIP3    H1 4026   4.880   2.947   2.881  0.7470 -0.7336 -0.4819
 1340TIP3    H2 4027   4.961   2.929   3.007 -0.9252  0.7825  0.8605
 1341TIP3   OH2 4028   4.204   1.242   1.498 -0.3247  0.2623  0.1652
 1341TIP3    H1 4029   4.129   1.186   1.478  1.1755 -2.2465  1.0157
 1341TIP3    H2 4030   4.174   1.298   1.569 -1.8796  0.5426 -0.6641
 1342TIP3   OH2 4031   6.216   0.438   4.897 -0.0655 -0.2537 -0.1640
 1342TIP3    H1 4032   6.259   0.455   4.981 -0.3131  0.2242 -0.1284
 1342TIP3    H2 4033   6.286   0.406   4.840 -0.0604 -1.3658  0.4524
 1343TIP3   OH2 4034   1.390   2.695   1.765 -0.3575 -0.3801  0.0121
 1343TIP3    H1 4035   1.348   2.661   1.687  0.0549 -0.4829 -0.1694
 1343TIP3    H2 4036   1.319   2.709   1.827 -0.6758 -0.3770 -0.3528
 1344TIP3   OH2 4037   3.841   0.030   4.345  0.4886  0.0506 -0.8535
 1344TIP3    H1 4038   3.817   0.083   4.269  0.3084 -2.2977 -2.5271
 1344TIP3    H2 4039   3.900  -0.036   4.311 -2.1684 -3.1559  0.2534
 1345TIP3   OH2 4040   1.469   0.424   4.864 -0.0644  0.2264  0.2973
 1345TIP3    H1 4041   1.386   0.471   4.865 -1.3850 -1.9504  0.0730
 1345TIP3    H2 4042   1.529   0.480   4.912 -1.7492  1.7007  0.7881
 1346TIP3   OH2 4043   1.745   4.227   3.339  0.4007 -0.4666 -0.1217
 1346TIP3    H1 4044   1.827   4.183   3.316  0.6943 -0.0997  0.2114
 1346TIP3    H2 4045   1.719   4.188   3.422  0.4490 -0.3056 -0.0297
 1347TIP3   OH2 4046   5.928   1.808   2.742  0.0998 -0.1957 -0.1795
 1347TIP3    H1 4047   5.852   1.807   2.800 -0.0739  1.2223 -0.3346
 1347TIP3    H2 4048   5.896   1.776   2.658 -0.0584 -0.6391  0.0512
 1348TIP3   OH2 4049   1.150   1.778   4.445  0.2060  0.0417 -0.3461
 1348TIP3    H1 4050   1.139   1.810   4.535  1.1773  0.3655 -0.3317
 1348TIP3    H2 4051   1.121   1.686   4.449 -0.5953  0.2973  0.0829
 1349TIP3   OH2 4052   3.248   3.737   0.575 -0.4747 -0.4365 -0.2493
 1349TIP3    H1 4053   3.158   3.766   0.559 -0.2942 -0.0135 -0.5100
 1349TIP3    H2 4054   3.239   3.665   0.638 -0.9107  0.4134  0.6995
 1350TIP3   OH2 4055   2.794   1.930   4.573 -0.0611 -1.0348  0.1706
 1350TIP3    H1 4056   2.765   1.840   4.587  1.9310 -1.8554 -0.5344
 1350TIP3    H2 4057   2.879   1.934   4.617 -0.5473  0.8270  1.0252
 1351TIP3   OH2 4058   4.288   1.362   2.106 -1.0517 -0.5900  0.2624
 1351TIP3    H1 4059   4.326   1.403   2.029 -0.0730 -0.9083  0.5560
 1351TIP3    H2 4060   4.219   1.422   2.135  0.5438  1.0418  0.8804
 1352TIP3   OH2 4061   6.106   1.113   3.997 -0.3117  1.2118  0.4767
 1352TIP3    H1 4062   6.058   1.149   3.922  0.4305 -1.2015 -1.2828
 1352TIP3    H2 4063   6.195   1.146   3.986  0.3153 -0.7524 -1.0141
 1353TIP3   OH2 4064   1.947   1.313   4.586 -0.0989  0.8435 -1.0257
 1353TIP3    H1 4065   2.009   1.240   4.590 -0.4390  0.5301 -1.4731
 1353TIP3    H2 4066   1.935   1.329   4.492 -1.0067  0.6382 -0.9547
 1354TIP3   OH2 4067   2.765   0.869   4.530 -0.4544 -0.0877  0.5999
 1354TIP3    H1 4068   2.795   0.959   4.541  0.1496 -0.0724 -0.8720
 1354TIP3    H2 4069   2.671   0.876   4.511 -0.4410  0.2173  0.6515
 1355TIP3   OH2 4070   1.049   3.640   1.237 -0.1409  0.5163  0.7910
 1355TIP3    H1 4071   0.991   3.584   1.185 -0.4443  0.8498  0.7598
 1355TIP3    H2 4072   1.135   3.628   1.198 -0.3840  0.8491  0.1290
 1356TIP3   OH2 4073   3.718   4.617   1.215  0.3376 -0.1665 -0.1241
 1356TIP3    H1 4074   3.686   4.654   1.298 -0.7292  0.2101 -0.6837
 1356TIP3    H2 4075   3.760   4.535   1.240 -0.5215 -0.3646  0.7335
 1357TIP3   OH2 4076   3.174   1.929   0.605  0.2011  0.1665 -0.1439
 1357TIP3    H1 4077   3.265   1.957   0.594 -0.1761  0.6436 -2.5517
 1357TIP3    H2 4078   3.167   1.848   0.553 -0.1751 -1.3044  2.0518
 1358TIP3   OH2 4079   0.196   3.087   3.900 -0.3076 -0.0448  0.4702
 1358TIP3    H1 4080   0.176   3.003   3.941  0.3132  0.2080  1.3392
 1358TIP3    H2 4081   0.263   3.125   3.957  0.2588  0.5261 -0.5515
 1359TIP3   OH2 4082   1.734   2.719   4.292  0.6583  0.2757 -0.1957
 1359TIP3    H1 4083   1.674   2.760   4.230  0.9065  1.0678  0.0666
 1359TIP3    H2 4084   1.704   2.750   4.378 -0.7006 -2.0866  0.2833
 1360TIP3   OH2 4085   2.249   0.535   1.599  0.7412  0.4394 -0.2735
 1360TIP3    H1 4086   2.162   0.574   1.598  1.1501  1.3637 -0.4061
 1360TIP3    H2 4087   2.281   0.547   1.510  1.1609  0.4646 -0.1190
 1361TIP3   OH2 4088   0.301   2.737   4.794  0.0320 -0.8062  0.0266
 1361TIP3    H1 4089   0.224   2.774   4.751 -0.0887 -0.2596  0.6973
 1361TIP3    H2 4090   0.267   2.695   4.873  0.2799 -1.5942 -0.2777
 1362TIP3   OH2 4091   5.230   0.860   5.129  0.0544 -0.7973 -0.4321
 1362TIP3    H1 4092   5.267   0.849   5.217  0.6232 -0.5402 -0.6323
 1362TIP3    H2 4093   5.135   0.857   5.143  0.1351 -0.7197  0.1960
 1363TIP3   OH2 4094   1.979   3.520   4.871 -0.0986 -0.4716  0.3324
 1363TIP3    H1 4095   1.910   3.472   4.826 -1.1534  0.1924  1.2068
 1363TIP3    H2 4096   1.955   3.517   4.964  2.8080 -3.1205  1.1838
 1364TIP3   OH2 4097   3.446   1.592   0.065  0.2492 -0.4315 -0.2073
 1364TIP3    H1 4098   3.356   1.597   0.098 -0.5176 -0.4086 -2.1637
 1364TIP3    H2 4099   3.498   1.637   0.131 -0.9082 -1.8759  1.7886
 1365TIP3   OH2 4100   5.008   0.253   3.715  0.0957 -0.4399  0.2835
 1365TIP3    H1 4101   5.008   0.332   3.769  1.0749 -0.2030 -0.0377
 1365TIP3    H2 4102   5.030   0.183   3.776 -1.8320 -0.6580  0.7902
 1366TIP3   OH2 4103   1.010   3.138   3.031  0.5348 -0.4356  0.2473
 1366TIP3    H1 4104   0.924   3.105   3.008  0.0692  0.7965  0.1506
 1366TIP3    H2 4105   1.032   3.094   3.113  0.7241 -2.2841 -0.7271
 1367TIP3   OH2 4106   2.502   3.335   5.011  0.2607 -0.5106  0.6347
 1367TIP3    H1 4107   2.409   3.354   5.008 -0.2622 -2.8348 -1.0711
 1367TIP3    H2 4108   2.538   3.397   5.075 -2.5891 -0.3011  2.1805
 1368TIP3   OH2 4109   3.663   0.657   2.478 -0.3397  0.8141  0.0521
 1368TIP3    H1 4110   3.670   0.642   2.384  0.8550 -0.1011  0.2605
 1368TIP3    H2 4111   3.673   0.571   2.517 -0.0413  1.2743  1.0438
 1369TIP3   OH2 4112   2.784   1.915   1.209 -0.2307 -0.2920  0.2252
 1369TIP3    H1 4113   2.721   1.925   1.138 -0.3807 -0.0677  0.3887
 1369TIP3    H2 4114   2.732   1.928   1.289 -0.1837 -1.1077  0.3981
 1370TIP3   OH2 4115   2.607   1.010   2.229  1.0140  0.3799  0.1938
 1370TIP3    H1 4116   2.601   1.046   2.140  0.6378  0.4264  0.2363
 1370TIP3    H2 4117   2.688   1.049   2.265 -0.1189  2.3882  0.7496
 1371TIP3   OH2 4118   0.844   3.613   2.776  0.2035 -0.0896 -0.0939
 1371TIP3    H1 4119   0.785   3.612   2.701 -0.2582  1.0336  0.2402
 1371TIP3    H2 4120   0.848   3.521   2.804  0.5172 -0.5478 -1.5692
 1372TIP3   OH2 4121   4.754   2.053   3.349  0.6739  0.4612  0.2489
 1372TIP3    H1 4122   4.795   1.990   3.409 -0.1514 -0.1627  0.1845
 1372TIP3    H2 4123   4.672   2.010   3.323  0.9563  0.7763 -1.2249
 1373TIP3   OH2 4124   3.134   0.729   1.275  0.0537  0.9475 -0.0331
 1373TIP3    H1 4125   3.082   0.737   1.195  0.3358  0.5951 -0.2505
 1373TIP3    H2 4126   3.136   0.818   1.311 -2.2380  0.6744  0.9595
 1374TIP3   OH2 4127   5.089   1.640   4.308 -0.3323  0.1797 -0.0378
 1374TIP3    H1 4128   5.089   1.727   4.269 -1.3772  0.0496 -0.3630
 1374TIP3    H2 4129   5.000   1.628   4.340  0.4921  0.3117  2.5109
 1375TIP3   OH2 4130   4.823   1.779   2.604 -0.8858 -0.0165 -0.2478
 1375TIP3    H1 4131   4.749   1.819   2.649  0.1635  0.0511  1.5098
 1375TIP3    H2 4132   4.819   1.686   2.628  0.3164  0.2144  0.9752
 1376TIP3   OH2 4133   1.414   3.542   4.522 -0.1455  0.0558 -0.1670
 1376TIP3    H1 4134   1.358   3.482   4.572  0.5858 -0.3340  0.1955
 1376TIP3    H2 4135   1.404   3.514   4.431  0.4464 -0.8478  0.0309
 1377TIP3   OH2 4136   0.071   4.986   0.055 -0.4915 -0.0483  0.0919
 1377TIP3    H1 4137  -0.024   4.996   0.048 -0.4671 -0.4242 -0.9494
 1377TIP3    H2 4138   0.107   5.051  -0.005 -0.1150 -0.4843 -0.1593
 1378TIP3   OH2 4139   1.294   5.723   2.391 -0.7373 -0.1892 -0.4423
 1378TIP3    H1 4140   1.258   5.784   2.326 -1.3266 -1.3312 -1.2252
 1378TIP3    H2 4141   1.387   5.746   2.396 -0.8856  0.5760 -0.9318
 1379TIP3   OH2 4142   3.657   1.000   3.441  0.2978 -0.9923  0.1809
 1379TIP3    H1 4143   3.586   1.054   3.408  0.8022 -0.9396 -0.8626
 1379TIP3    H2 4144   3.615   0.937   3.500 -0.2279  0.8555  1.8527
 1380TIP3   OH2 4145   0.711   4.992   2.478 -0.1883  0.0540  0.1786
 1380TIP3    H1 4146   0.748   5.031   2.398  0.4220 -0.9232 -0.0313
 1380TIP3    H2 4147   0.722   4.898   2.466  0.0200 -0.1058  1.4802
 1381TIP3   OH2 4148   4.162   1.683   2.008 -0.3988  0.2714  0.3373
 1381TIP3    H1 4149   4.236   1.742   2.021  2.2960 -2.2908 -1.9956
 1381TIP3    H2 4150   4.089   1.741   1.985  1.6757  2.7686 -0.4058
 1382TIP3   OH2 4151   5.168   3.500   3.277 -0.3155  0.3830 -0.3332
 1382TIP3    H1 4152   5.224   3.570   3.310  0.3428 -0.2134 -0.1395
 1382TIP3    H2 4153   5.121   3.538   3.203 -0.3483  1.1700  0.0873
 1383TIP3   OH2 4154   3.187   0.736   2.108  0.3748  0.0344 -1.1343
 1383TIP3    H1 4155   3.103   0.764   2.071  0.7173  1.9785 -0.5606
 1383TIP3    H2 4156   3.183   0.641   2.107 -3.5294 -0.1469  2.4414
 1384TIP3   OH2 4157   1.227   0.369   3.708 -0.1635 -0.5159  0.3567
 1384TIP3    H1 4158   1.166   0.299   3.684  0.9710 -1.4871  0.2076
 1384TIP3    H2 4159   1.307   0.350   3.657  0.1407  0.9483  0.2356
 1385TIP3   OH2 4160   6.063   2.374   3.352 -0.2500  0.6478  0.2793
 1385TIP3    H1 4161   5.981   2.419   3.371 -0.8545  0.3180 -1.3277
 1385TIP3    H2 4162   6.131   2.434   3.381 -1.0499  0.8810  1.7414
 1386TIP3   OH2 4163   4.569   5.846   1.070 -0.1640  0.3889 -0.0703
 1386TIP3    H1 4164   4.543   5.873   1.158 -1.1635  0.3415 -0.3467
 1386TIP3    H2 4165   4.487   5.832   1.023  0.3531 -0.3534 -0.7841
 1387TIP3   OH2 4166   3.774   2.543   0.882  0.0817  0.0007  0.2448
 1387TIP3    H1 4167   3.787   2.506   0.969  1.6054  1.9202  0.8689
 1387TIP3    H2 4168   3.861   2.547   0.844 -0.4759 -0.0928 -1.1002
 1388TIP3   OH2 4169   5.793   3.543   4.006  0.2346  0.0217 -0.7053
 1388TIP3    H1 4170   5.704   3.525   3.976  0.0664  0.2113 -0.3195
 1388TIP3    H2 4171   5.845   3.469   3.973 -0.1647 -0.3720 -0.4598
 1389TIP3   OH2 4172   0.128   0.459   1.806  0.2577  0.4356  0.4768
 1389TIP3    H1 4173   0.174   0.381   1.837 -0.5663 -0.2893 -0.0903
 1389TIP3    H2 4174   0.068   0.427   1.739 -0.8519  1.3914  0.9703
 1390TIP3   OH2 4175   3.900   0.698   3.540  0.0187 -0.2574  0.3318
 1390TIP3    H1 4176   3.979   0.644   3.531  1.5980  2.0218 -0.6726
 1390TIP3    H2 4177   3.925   0.765   3.604 -1.1226  0.5028  0.0055
 1391TIP3   OH2 4178   5.342   4.176   3.775  0.1353  0.1420 -0.2764
 1391TIP3    H1 4179   5.379   4.244   3.831 -0.1649 -0.3057  0.4951
 1391TIP3    H2 4180   5.268   4.218   3.731  0.3864  0.5095 -0.3486
 1392TIP3   OH2 4181   4.957   2.976   0.087  0.7014  0.1367  0.2907
 1392TIP3    H1 4182   4.871   2.935   0.096  0.8291 -0.1085  0.4191
 1392TIP3    H2 4183   5.004   2.921   0.025  0.3946  0.8942 -0.6315
 1393TIP3   OH2 4184   2.278   4.041   2.084  0.1601 -0.0819 -0.0185
 1393TIP3    H1 4185   2.336   3.974   2.047  1.1697  0.9828 -0.4518
 1393TIP3    H2 4186   2.335   4.118   2.094 -0.3798  0.0342  2.6563
 1394TIP3   OH2 4187   1.868   5.091   1.000  0.5230  0.0896  0.5378
 1394TIP3    H1 4188   1.842   5.095   0.909 -1.2238 -1.0392  0.9399
 1394TIP3    H2 4189   1.786   5.091   1.049  1.2943 -1.8912  1.9692
 1395TIP3   OH2 4190   4.241   5.063   4.567 -0.2097 -0.1698 -0.1506
 1395TIP3    H1 4191   4.331   5.093   4.581  0.8518 -2.6825 -0.9303
 1395TIP3    H2 4192   4.210   5.037   4.653  1.8136 -4.0900 -0.3634
 1396TIP3   OH2 4193   4.355   5.767   4.669 -0.2023  0.0807  0.9464
 1396TIP3    H1 4194   4.438   5.776   4.623 -0.6608  3.4472  0.5086
 1396TIP3    H2 4195   4.308   5.698   4.622  1.4346 -0.3189 -0.1698
 1397TIP3   OH2 4196   3.564   4.390   2.297 -0.3744  0.1208  0.2489
 1397TIP3    H1 4197   3.535   4.313   2.346 -0.2379  0.0624  0.2374
 1397TIP3    H2 4198   3.514   4.386   2.215  1.4196 -1.3189 -0.8349
 1398TIP3   OH2 4199   3.955   4.861   2.598  0.6754 -0.1089 -0.0460
 1398TIP3    H1 4200   3.944   4.909   2.515 -2.4530 -0.6457 -0.0839
 1398TIP3    H2 4201   4.049   4.852   2.608  1.2316  1.5910 -2.6101
 1399TIP3   OH2 4202   0.029   2.609   3.297  0.4973  0.1389  0.1678
 1399TIP3    H1 4203   0.019   2.558   3.377 -1.1013  0.7928  0.4305
 1399TIP3    H2 4204   0.010   2.699   3.323  1.9347  0.6756 -0.5553
 1400TIP3   OH2 4205   6.294   2.020   1.247 -0.3429 -0.3103  0.1376
 1400TIP3    H1 4206   6.344   2.064   1.177  0.3773 -0.8350  0.3129
 1400TIP3    H2 4207   6.346   2.034   1.326 -0.8056 -0.3137  0.4485
 1401TIP3   OH2 4208   0.637   2.964   3.574 -0.2423  0.0038  0.3885
 1401TIP3    H1 4209   0.549   2.969   3.537 -1.0384 -1.2543  1.9630
 1401TIP3    H2 4210   0.669   3.054   3.573 -1.2851  0.3753 -0.8058
 1402TIP3   OH2 4211   3.302   3.541   2.791  0.2053  0.3924 -0.4125
 1402TIP3    H1 4212   3.304   3.538   2.886 -1.6330 -0.3357 -0.3642
 1402TIP3    H2 4213   3.355   3.618   2.768  2.0915 -0.3974  1.0881
 1403TIP3   OH2 4214   2.527   1.164   2.966  0.3822 -0.1456  0.3990
 1403TIP3    H1 4215   2.555   1.074   2.953  0.4276 -0.1261  0.3565
 1403TIP3    H2 4216   2.431   1.160   2.970  0.3857 -0.1984  0.4215
 1404TIP3   OH2 4217   2.443   3.766   3.648 -0.8378  0.5624 -0.1012
 1404TIP3    H1 4218   2.358   3.725   3.630 -0.1145 -0.4687 -1.4218
 1404TIP3    H2 4219   2.479   3.715   3.720 -0.5047 -0.3179 -0.8707
 1405TIP3   OH2 4220   1.854   0.909   4.740  0.0586  0.2971 -0.1202
 1405TIP3    H1 4221   1.846   0.815   4.757 -1.7433  0.4153 -0.2138
 1405TIP3    H2 4222   1.827   0.951   4.821  2.3603  0.7664  0.4677
 1406TIP3   OH2 4223   0.625   5.581   0.855  0.4281 -0.3333  0.0421
 1406TIP3    H1 4224   0.566   5.647   0.818 -0.1619  0.1709  1.7859
 1406TIP3    H2 4225   0.705   5.630   0.876  0.5110 -0.4737  0.0509
 1407TIP3   OH2 4226   0.555   2.619   1.116 -0.2777 -0.3767  0.0182
 1407TIP3    H1 4227   0.477   2.588   1.162 -2.9334  2.3947 -2.0902
 1407TIP3    H2 4228   0.586   2.693   1.168  0.4530 -0.9567  0.4186
 1408TIP3   OH2 4229   1.504   3.552   3.102  0.2869  0.1403 -0.2907
 1408TIP3    H1 4230   1.470   3.466   3.123  0.3211  0.4753  1.2632
 1408TIP3    H2 4231   1.452   3.582   3.027 -0.7709 -0.5802  0.1491
 1409TIP3   OH2 4232   5.546   0.287   1.096 -0.1729 -0.4627 -0.1168
 1409TIP3    H1 4233   5.490   0.349   1.048  0.0268  1.6928  2.2145
 1409TIP3    H2 4234   5.485   0.224   1.134 -0.7161 -0.0065 -0.2060
 1410TIP3   OH2 4235   1.324   0.157   4.476  1.0885 -0.2809 -0.2536
 1410TIP3    H1 4236   1.266   0.218   4.522 -0.7332  0.0554 -2.8243
 1410TIP3    H2 4237   1.399   0.211   4.450  0.1233  0.6055 -1.3261
 1411TIP3   OH2 4238   5.026   4.977   4.589  0.1286  0.1180 -0.4405
 1411TIP3    H1 4239   5.048   4.897   4.542 -1.5778 -1.0415  0.6178
 1411TIP3    H2 4240   5.003   4.948   4.677  0.2471  1.8745  0.2105
 1412TIP3   OH2 4241   1.977   2.720   1.305  0.1168  0.3337  0.2742
 1412TIP3    H1 4242   1.964   2.659   1.233  1.2067  0.4998 -0.0803
 1412TIP3    H2 4243   1.917   2.793   1.286  1.3437  1.0061 -1.2096
 1413TIP3   OH2 4244   6.269   2.057   2.923 -0.6868 -0.1634  0.6628
 1413TIP3    H1 4245   6.325   2.104   2.862  0.5108 -1.2287  0.8993
 1413TIP3    H2 4246   6.184   2.101   2.916  0.1068  1.3903  0.1695
 1414TIP3   OH2 4247   0.501   1.412   4.278  0.0666  0.7010 -0.5177
 1414TIP3    H1 4248   0.462   1.462   4.349  1.1509  0.1719  0.4862
 1414TIP3    H2 4249   0.486   1.320   4.301  1.1201  0.5074 -0.5400
 1415TIP3   OH2 4250   0.545   2.028   1.356  0.0089  0.4351 -0.4988
 1415TIP3    H1 4251   0.605   2.004   1.285  0.0711  1.2276 -0.7289
 1415TIP3    H2 4252   0.602   2.036   1.433 -0.0293 -0.2373 -0.3958
 1416TIP3   OH2 4253   6.087   4.955   3.234 -0.2515  0.0078  0.8986
 1416TIP3    H1 4254   6.095   5.007   3.154 -0.6397 -0.0285  0.8323
 1416TIP3    H2 4255   6.161   4.894   3.232 -0.4769 -0.2527  0.3742
 1417TIP3   OH2 4256   5.855   5.510   4.340 -0.5011  0.6766  0.3067
 1417TIP3    H1 4257   5.936   5.546   4.375 -1.8689  1.4037  3.0471
 1417TIP3    H2 4258   5.855   5.534   4.247  3.2807 -1.1601 -0.3664
 1418TIP3   OH2 4259   1.011   2.388   1.880 -0.2556 -0.1652  0.0107
 1418TIP3    H1 4260   1.065   2.329   1.828 -0.3818 -0.2338 -0.0404
 1418TIP3    H2 4261   0.994   2.463   1.823  1.2805  0.6987  0.6052
 1419TIP3   OH2 4262   5.706   3.211   0.487  0.1505  0.4327 -0.5323
 1419TIP3    H1 4263   5.754   3.131   0.507  1.7720  0.8398 -2.4936
 1419TIP3    H2 4264   5.646   3.222   0.561 -0.6417 -2.9374 -0.4778
 1420TIP3   OH2 4265   0.796   3.207   1.647  0.1936  0.2535  0.3715
 1420TIP3    H1 4266   0.880   3.176   1.680  1.6099  0.9766 -2.2431
 1420TIP3    H2 4267   0.813   3.298   1.621 -1.4176  0.4166 -0.2142
 1421TIP3   OH2 4268   2.210   4.728   2.899  0.1502 -0.1791  0.6050
 1421TIP3    H1 4269   2.300   4.756   2.880  0.7358 -1.9578  0.4737
 1421TIP3    H2 4270   2.172   4.800   2.949  1.6062  0.6727  0.5441
 1422TIP3   OH2 4271   1.494   5.863   4.036  0.3630  0.0748 -0.2778
 1422TIP3    H1 4272   1.409   5.884   4.073  0.7119  2.0850 -0.5291
 1422TIP3    H2 4273   1.487   5.886   3.944  0.6501 -1.4403 -0.7122
 1423TIP3   OH2 4274   4.916   3.828   5.087 -0.0399 -0.2397  0.0549
 1423TIP3    H1 4275   4.918   3.757   5.023  0.7198  0.3015 -0.5468
 1423TIP3    H2 4276   4.827   3.827   5.122 -0.5621 -0.3454 -1.2359
 1424TIP3   OH2 4277   2.672   1.239   4.025  0.0150  0.0872 -0.0867
 1424TIP3    H1 4278   2.579   1.225   4.009  0.0699 -1.2911  0.6705
 1424TIP3    H2 4279   2.690   1.326   3.987 -1.1690 -0.3891 -1.8860
 1425TIP3   OH2 4280   1.491   4.298   2.485  0.0977  0.3766  0.0067
 1425TIP3    H1 4281   1.546   4.305   2.562 -0.4024 -1.9530  0.6469
 1425TIP3    H2 4282   1.551   4.275   2.414  0.4141  1.5133 -0.1137
 1426TIP3   OH2 4283   1.328   5.256   4.290  0.3070 -0.6914  0.1817
 1426TIP3    H1 4284   1.258   5.220   4.345 -0.6050 -0.5938 -0.8957
 1426TIP3    H2 4285   1.298   5.344   4.268 -0.0636 -1.2273 -1.6578
 1427TIP3   OH2 4286   3.681   3.453   2.194  1.1390  0.1731 -0.2230
 1427TIP3    H1 4287   3.652   3.460   2.103 -0.4982 -1.5080  0.1073
 1427TIP3    H2 4288   3.707   3.362   2.205  1.0332  0.2701  1.0563
 1428TIP3   OH2 4289   1.974   4.164   2.756 -0.0264  0.5739 -0.4260
 1428TIP3    H1 4290   2.065   4.159   2.786 -0.1248 -0.3214 -0.2688
 1428TIP3    H2 4291   1.968   4.250   2.713  1.2338  0.1170 -1.5846
 1429TIP3   OH2 4292   1.557   4.654   3.279 -0.4133 -0.1026 -0.4063
 1429TIP3    H1 4293   1.501   4.594   3.329  1.0572 -1.2420 -0.0480
 1429TIP3    H2 4294   1.505   4.678   3.203 -1.2424 -1.4642 -0.3083
 1430TIP3   OH2 4295   0.826   5.860   0.076 -0.2730 -0.8159  0.3080
 1430TIP3    H1 4296   0.736   5.869   0.108 -0.2592 -0.3848  0.2376
 1430TIP3    H2 4297   0.880   5.862   0.155 -0.2041  0.7473  0.2427
 1431TIP3   OH2 4298   2.120   3.633   4.666  0.7360 -0.2926 -0.2348
 1431TIP3    H1 4299   2.088   3.643   4.576 -0.9430  2.8154  0.5374
 1431TIP3    H2 4300   2.060   3.570   4.705  0.3764 -0.3556 -0.8626
 1432TIP3   OH2 4301   4.554   0.431   1.973  0.0340 -0.4363  0.0476
 1432TIP3    H1 4302   4.618   0.502   1.969 -1.2303  0.7069 -0.6624
 1432TIP3    H2 4303   4.470   0.475   1.984 -0.8746 -1.7832 -1.1691
 1433TIP3   OH2 4304  -0.009   5.723   4.261  0.4849 -0.0529 -0.3108
 1433TIP3    H1 4305   0.058   5.670   4.218  0.9361  0.4918 -0.2897
 1433TIP3    H2 4306  -0.007   5.807   4.215 -0.5961 -0.2205 -0.6956
 1434TIP3   OH2 4307   5.123   3.761   3.938 -0.2877  0.5683 -0.0537
 1434TIP3    H1 4308   5.176   3.840   3.942  1.1788 -0.3558 -0.3841
 1434TIP3    H2 4309   5.177   3.699   3.888 -0.4951 -1.2916  1.8976
 1435TIP3   OH2 4310   0.296   2.557   4.387 -0.0882 -0.3839  0.3978
 1435TIP3    H1 4311   0.253   2.503   4.454  0.3308 -1.1713  0.0334
 1435TIP3    H2 4312   0.225   2.612   4.353 -0.8600 -1.7409 -0.2638
 1436TIP3   OH2 4313   2.667   3.850   3.960  0.1343 -0.3966 -0.4278
 1436TIP3    H1 4314   2.637   3.917   3.899  0.4096 -1.2840 -1.5553
 1436TIP3    H2 4315   2.760   3.869   3.973 -0.3993  1.2315  1.6299
 1437TIP3   OH2 4316   0.583   4.625   1.212 -0.0337 -0.2614 -0.0408
 1437TIP3    H1 4317   0.501   4.636   1.260 -0.2211  0.2344 -0.4594
 1437TIP3    H2 4318   0.587   4.701   1.154  0.5925 -0.4201 -0.2168
 1438TIP3   OH2 4319   4.943   3.579   0.273  0.4521 -0.0855 -0.0219
 1438TIP3    H1 4320   4.865   3.529   0.298 -0.8075  0.8456 -1.8256
 1438TIP3    H2 4321   4.918   3.621   0.190  2.7672  0.5237 -0.4652
 1439TIP3   OH2 4322   2.852   3.579   0.409 -0.8734  0.1774  0.0958
 1439TIP3    H1 4323   2.935   3.544   0.442  0.3567  1.5039 -1.4787
 1439TIP3    H2 4324   2.808   3.504   0.369  0.4129 -0.1675 -0.6873
 1440TIP3   OH2 4325   3.954   2.777   3.953  0.2594 -0.2801  1.2117
 1440TIP3    H1 4326   3.975   2.699   4.004 -0.4692  1.1600  3.8685
 1440TIP3    H2 4327   3.867   2.760   3.918  0.1540 -0.7003  1.6645
 1441TIP3   OH2 4328   5.645   5.516   0.075 -0.0703 -0.0438  0.6656
 1441TIP3    H1 4329   5.662   5.496   0.167  0.9546 -0.4815  0.4013
 1441TIP3    H2 4330   5.705   5.588   0.055  0.7539 -0.8962 -0.0218
 1442TIP3   OH2 4331   0.884   5.172   5.160 -0.0426  0.0280 -0.3609
 1442TIP3    H1 4332   0.954   5.173   5.094 -0.0199 -1.7012 -0.4145
 1442TIP3    H2 4333   0.929   5.183   5.243  0.5229 -2.3571 -0.2743
 1443TIP3   OH2 4334   2.808   2.341   0.248  0.1519  0.0021  0.3558
 1443TIP3    H1 4335   2.854   2.420   0.278 -0.5148  0.4813  0.1193
 1443TIP3    H2 4336   2.838   2.272   0.308  0.2726  0.5563  0.9384
 1444TIP3   OH2 4337   1.522   0.728   4.642 -0.5838  0.2827 -0.0878
 1444TIP3    H1 4338   1.582   0.654   4.637  0.3317  1.0822 -1.3754
 1444TIP3    H2 4339   1.522   0.754   4.734  1.5905  0.6933 -0.1668
 1445TIP3   OH2 4340   2.451   3.040   1.629 -0.4177  0.0628  0.1414
 1445TIP3    H1 4341   2.373   3.004   1.671 -0.2351 -0.0214  0.4143
 1445TIP3    H2 4342   2.418   3.103   1.565 -0.8319 -2.0354 -1.8208
 1446TIP3   OH2 4343   3.844   1.649   5.005 -0.4061  0.1666 -0.2866
 1446TIP3    H1 4344   3.892   1.566   4.999 -0.6603  0.0680 -1.0037
 1446TIP3    H2 4345   3.900   1.705   5.059 -0.8780 -0.9255  1.4267
 1447TIP3   OH2 4346   5.019  -0.030   4.636  0.1819 -0.5243 -0.1575
 1447TIP3    H1 4347   4.958   0.032   4.675  0.3162 -0.5751  0.1413
 1447TIP3    H2 4348   5.089   0.024   4.601 -0.7756 -0.3536 -1.8875
 1448TIP3   OH2 4349   0.426   1.242   2.835  0.1190  0.7185  0.3380
 1448TIP3    H1 4350   0.475   1.160   2.830 -0.4107  0.3157  1.3755
 1448TIP3    H2 4351   0.490   1.310   2.816  0.4177  0.0388 -1.2316
 1449TIP3   OH2 4352   3.120   2.910   0.171  0.3369  0.3930  0.4352
 1449TIP3    H1 4353   3.119   2.907   0.076 -0.6026 -0.0938  0.4460
 1449TIP3    H2 4354   3.208   2.883   0.196  1.1710  2.2842 -0.3336
 1450TIP3   OH2 4355   5.334   4.199   5.094  0.1814  0.4204  0.0012
 1450TIP3    H1 4356   5.327   4.108   5.066  1.3447  0.6526 -1.1562
 1450TIP3    H2 4357   5.250   4.218   5.135 -0.7213 -0.6881 -1.2365
 1451TIP3   OH2 4358   1.663   4.969   2.520 -0.3393 -0.5466  0.3663
 1451TIP3    H1 4359   1.662   4.891   2.465 -0.1881  0.1942 -0.7172
 1451TIP3    H2 4360   1.750   4.971   2.558 -0.0254 -0.4101 -0.3475
 1452TIP3   OH2 4361   0.457   4.797   2.631  0.3071  0.5915 -0.2983
 1452TIP3    H1 4362   0.495   4.811   2.718 -0.5033  0.7607  0.0384
 1452TIP3    H2 4363   0.487   4.872   2.580 -0.3531  1.2386  0.2375
 1453TIP3   OH2 4364   2.527   1.490   4.119  0.4635 -0.1814  0.0391
 1453TIP3    H1 4365   2.505   1.574   4.160 -1.4535 -0.5280 -0.2032
 1453TIP3    H2 4366   2.614   1.469   4.153  0.8767  1.7738  0.2907
 1454TIP3   OH2 4367   2.772   2.279   4.969  0.6252  0.0429 -0.6108
 1454TIP3    H1 4368   2.759   2.356   4.913 -1.0152  0.0041 -0.3207
 1454TIP3    H2 4369   2.685   2.241   4.978  1.0596 -0.6633  0.9619
 1455TIP3   OH2 4370   0.910   4.898   1.731 -0.4069 -0.3396 -0.4166
 1455TIP3    H1 4371   0.939   4.961   1.665 -0.3877 -0.5961 -0.6514
 1455TIP3    H2 4372   0.894   4.817   1.683 -1.3815 -0.2494 -0.2688
 1456TIP3   OH2 4373   0.300   2.957   3.267 -0.8500 -0.5034  0.4797
 1456TIP3    H1 4374   0.264   2.898   3.201  0.5134 -0.4268 -0.3822
 1456TIP3    H2 4375   0.381   2.990   3.227 -0.4859  0.2810  1.8193
 1457TIP3   OH2 4376   3.507   4.895   4.779  0.4700  0.5948  0.2211
 1457TIP3    H1 4377   3.597   4.862   4.781  0.5019  0.3456  4.5625
 1457TIP3    H2 4378   3.484   4.909   4.871 -3.7954  1.1785 -0.6902
 1458TIP3   OH2 4379   0.451   0.957   3.250  0.0927  0.0427  0.3818
 1458TIP3    H1 4380   0.415   1.036   3.209 -1.8769 -0.9164  0.1158
 1458TIP3    H2 4381   0.508   0.919   3.183 -1.0782 -0.1489 -0.5453
 1459TIP3   OH2 4382   2.700   2.751   1.087 -0.6801 -1.0436  0.2945
 1459TIP3    H1 4383   2.781   2.714   1.053  0.7540  2.1537 -0.1350
 1459TIP3    H2 4384   2.715   2.760   1.181 -0.8913 -1.2343  0.3484
 1460TIP3   OH2 4385   5.712   3.967   4.218 -0.4020  0.2655 -0.0544
 1460TIP3    H1 4386   5.680   3.966   4.308 -0.0751 -0.7870  0.0668
 1460TIP3    H2 4387   5.659   4.034   4.174 -0.8845  0.4558  0.7989
 1461TIP3   OH2 4388   3.631   5.458   4.640 -0.4224 -0.1765  0.1116
 1461TIP3    H1 4389   3.538   5.436   4.645 -0.3418 -0.4208  0.5394
 1461TIP3    H2 4390   3.676   5.376   4.661 -0.0982 -0.2879 -0.9547
 1462TIP3   OH2 4391   2.509   5.780   2.849 -0.7096  0.4726  0.0092
 1462TIP3    H1 4392   2.462   5.727   2.914 -0.4326  0.3488  0.1086
 1462TIP3    H2 4393   2.601   5.769   2.871 -0.4418 -1.4428 -1.7901
 1463TIP3   OH2 4394   0.513   1.749   3.871  0.3514  0.1176  0.0032
 1463TIP3    H1 4395   0.494   1.815   3.938 -1.1894  0.0951 -0.3621
 1463TIP3    H2 4396   0.542   1.672   3.920 -0.8011  0.0882  0.6758
 1464TIP3   OH2 4397   5.443   3.975   3.398  0.1672  0.1791  0.5498
 1464TIP3    H1 4398   5.530   3.999   3.367 -0.4284  1.4610 -0.2102
 1464TIP3    H2 4399   5.383   4.024   3.341 -1.1243 -2.1975 -0.2871
 1465TIP3   OH2 4400   4.790   2.193   1.493  0.0533  0.6294  0.1888
 1465TIP3    H1 4401   4.728   2.265   1.485  0.3716  0.8766 -0.1396
 1465TIP3    H2 4402   4.748   2.120   1.447 -0.0627  0.7494  0.1026
 1466TIP3   OH2 4403   5.314   5.068   0.668  0.0215 -0.4068  0.4868
 1466TIP3    H1 4404   5.315   5.062   0.573 -0.9384  2.3793  0.1853
 1466TIP3    H2 4405   5.387   5.126   0.689  1.6721 -2.7834  1.7456
 1467TIP3   OH2 4406   5.562   4.082   0.056  0.4529  0.1906  0.0860
 1467TIP3    H1 4407   5.508   4.082   0.135  0.0993  0.1588 -0.1546
 1467TIP3    H2 4408   5.625   4.011   0.071 -1.3893 -1.7694 -0.8411
 1468TIP3   OH2 4409   0.840   0.424   5.036  0.2560 -0.1043 -0.3443
 1468TIP3    H1 4410   0.909   0.363   5.009 -0.2013  0.0951 -2.1201
 1468TIP3    H2 4411   0.759   0.374   5.024  0.0138  0.0472  0.6054
 1469TIP3   OH2 4412   4.235   4.407   0.236  0.1374 -0.0019  0.4759
 1469TIP3    H1 4413   4.193   4.327   0.203  1.6747  0.3660 -2.7510
 1469TIP3    H2 4414   4.313   4.376   0.281  1.3050 -0.3908 -1.6836
 1470TIP3   OH2 4415   5.129   0.497   3.838  0.2448 -0.6410 -0.2886
 1470TIP3    H1 4416   5.067   0.569   3.832  1.2186  0.3175  0.7081
 1470TIP3    H2 4417   5.127   0.471   3.930  1.2701 -0.6146 -0.2441
 1471TIP3   OH2 4418   1.231   1.687   1.298  0.1435  0.7158  0.0358
 1471TIP3    H1 4419   1.300   1.705   1.234  0.5196 -0.8020 -0.0235
 1471TIP3    H2 4420   1.268   1.716   1.381  0.3997  0.9339 -0.1497
 1472TIP3   OH2 4421   2.205   2.380   2.881 -0.3400  0.7829  0.2096
 1472TIP3    H1 4422   2.160   2.302   2.848 -0.8756  0.1930  2.1735
 1472TIP3    H2 4423   2.137   2.445   2.891 -0.2567  0.8242  0.5151
 1473TIP3   OH2 4424   3.507   2.967   0.474  0.5690  0.6447  0.4034
 1473TIP3    H1 4425   3.584   2.999   0.427  0.0470  1.2109 -0.0681
 1473TIP3    H2 4426   3.535   2.965   0.566  1.0151  1.2563  0.2896
 1474TIP3   OH2 4427   3.223   3.367   4.021  0.4980  0.4056 -0.3298
 1474TIP3    H1 4428   3.194   3.325   3.940  0.7700  0.0004 -0.2202
 1474TIP3    H2 4429   3.292   3.428   3.994  0.6074  0.2508 -0.4017
 1475TIP3   OH2 4430   5.325   4.081   2.355  0.9980  0.0942 -0.0994
 1475TIP3    H1 4431   5.353   4.150   2.296 -0.8397  1.7898  0.8865
 1475TIP3    H2 4432   5.392   4.077   2.422  2.4494 -0.9722 -1.5266
 1476TIP3   OH2 4433   3.865   5.038   1.417  0.0045  0.3130 -0.0461
 1476TIP3    H1 4434   3.925   4.974   1.379  0.3566  0.0015  1.0115
 1476TIP3    H2 4435   3.910   5.122   1.407 -0.0483  0.2851 -0.5845
 1477TIP3   OH2 4436   6.311   3.761   0.671  0.4017  0.1965 -0.7455
 1477TIP3    H1 4437   6.375   3.774   0.601  2.3742  0.5364  1.0438
 1477TIP3    H2 4438   6.230   3.799   0.637  1.4346  0.8395 -2.6147
 1478TIP3   OH2 4439   4.702   4.269   1.765 -0.0079 -0.0028 -0.3244
 1478TIP3    H1 4440   4.736   4.352   1.798 -0.3191  0.1613 -0.4111
 1478TIP3    H2 4441   4.778   4.211   1.763  0.0065 -0.0503  0.7762
 1479TIP3   OH2 4442   0.423   1.866   2.446  0.8834  0.2278 -0.5240
 1479TIP3    H1 4443   0.488   1.925   2.407 -0.2794  0.3555 -2.4035
 1479TIP3    H2 4444   0.346   1.921   2.458  1.0957  0.0948  1.7403
 1480TIP3   OH2 4445   6.323   3.864   4.153 -0.1748 -0.2187  0.1476
 1480TIP3    H1 4446   6.404   3.885   4.108 -0.2458 -0.0281  0.1085
 1480TIP3    H2 4447   6.267   3.825   4.085  0.6105 -2.2822  0.5962
 1481TIP3   OH2 4448   1.382   1.852   3.824  0.1267 -0.7613 -0.0306
 1481TIP3    H1 4449   1.346   1.785   3.883  1.1246 -1.4868 -0.2221
 1481TIP3    H2 4450   1.386   1.931   3.877  0.8659 -1.3673  0.8480
 1482TIP3   OH2 4451   5.704   0.204   2.619 -0.4908  0.2830 -0.2227
 1482TIP3    H1 4452   5.653   0.195   2.699  0.5301  0.5330  0.4757
 1482TIP3    H2 4453   5.783   0.151   2.635  0.0715  0.9485 -0.7510
 1483TIP3   OH2 4454   5.149   3.423   0.964 -0.1927  0.2107  0.1901
 1483TIP3    H1 4455   5.155   3.333   0.933 -0.1101  0.5634 -0.8777
 1483TIP3    H2 4456   5.142   3.416   1.059  0.8295 -0.8700  0.1996
 1484TIP3   OH2 4457   3.596   4.758   2.520  0.0499  0.6411  0.1423
 1484TIP3    H1 4458   3.604   4.790   2.431 -1.3145  0.0804 -0.2191
 1484TIP3    H2 4459   3.503   4.737   2.530  0.1234  0.9071  1.7715
 1485TIP3   OH2 4460   2.236   4.546   2.169 -0.1886  0.1738  0.1665
 1485TIP3    H1 4461   2.287   4.472   2.202  1.5802  0.3893 -1.8446
 1485TIP3    H2 4462   2.264   4.620   2.223  0.8803  0.0816 -0.2401
 1486TIP3   OH2 4463   2.110   2.400   0.047 -0.1900  0.2748  0.4766
 1486TIP3    H1 4464   2.069   2.485   0.030 -0.3266  0.2258  0.5608
 1486TIP3    H2 4465   2.036   2.340   0.059 -0.0990  0.0244 -0.1775
 1487TIP3   OH2 4466   2.118   0.263   1.400 -0.1562  0.1227 -0.1110
 1487TIP3    H1 4467   2.170   0.251   1.321  1.3433  0.9238  0.7120
 1487TIP3    H2 4468   2.071   0.345   1.385 -0.7520 -0.2960 -0.6067
 1488TIP3   OH2 4469   2.858   1.288   2.585 -0.6532  0.1410 -0.0327
 1488TIP3    H1 4470   2.797   1.251   2.649 -2.5158  2.0458 -0.6127
 1488TIP3    H2 4471   2.838   1.242   2.503 -3.1171  2.3322 -0.8050
 1489TIP3   OH2 4472   0.634   3.660   5.104 -0.1007 -0.0411 -0.0335
 1489TIP3    H1 4473   0.586   3.616   5.034 -0.6678 -1.1858  1.0164
 1489TIP3    H2 4474   0.670   3.738   5.064 -4.6190  2.1401 -0.4661
 1490TIP3   OH2 4475   2.723   4.076   0.652 -0.2372 -0.6881 -0.4588
 1490TIP3    H1 4476   2.709   4.128   0.573  2.3957  0.3943 -0.3218
 1490TIP3    H2 4477   2.635   4.063   0.689 -1.0994  3.8039 -0.4258
 1491TIP3   OH2 4478   0.045   4.761   1.260 -0.1513 -0.5563  0.2056
 1491TIP3    H1 4479   0.126   4.711   1.263  1.3340  1.2653 -3.4826
 1491TIP3    H2 4480  -0.012   4.711   1.201  0.9344  1.3017 -2.6082
 1492TIP3   OH2 4481   6.218   2.624   4.129 -0.4235 -0.3934  0.0228
 1492TIP3    H1 4482   6.164   2.703   4.124  0.3637  0.0983 -1.2308
 1492TIP3    H2 4483   6.168   2.564   4.183 -2.4731 -0.1329 -1.4630
 1493TIP3   OH2 4484   4.063   4.158   3.666  0.1589 -0.0455  0.1816
 1493TIP3    H1 4485   4.128   4.221   3.636  1.3851 -1.5202 -0.3432
 1493TIP3    H2 4486   4.110   4.101   3.726 -0.0484 -2.3870 -1.7506
 1494TIP3   OH2 4487   2.039   4.880   4.842  0.3274 -0.1516  0.2390
 1494TIP3    H1 4488   2.101   4.921   4.782 -0.1020 -1.3555 -1.0990
 1494TIP3    H2 4489   2.048   4.786   4.824 -1.7338 -0.3625  0.1524
 1495TIP3   OH2 4490   0.987   4.145   0.171 -0.2839  0.3562 -0.4834
 1495TIP3    H1 4491   1.034   4.185   0.098 -2.5853 -0.4397 -2.5491
 1495TIP3    H2 4492   0.983   4.052   0.148  0.5174 -0.2516  1.6287
 1496TIP3   OH2 4493   3.904   1.241   1.212 -0.9211  0.4032 -0.0010
 1496TIP3    H1 4494   3.964   1.190   1.159 -0.0630  0.9724  0.4001
 1496TIP3    H2 4495   3.931   1.225   1.303 -2.0449 -0.1600  0.2616
 1497TIP3   OH2 4496   2.249   2.187   0.211  0.0376 -0.6405 -0.3054
 1497TIP3    H1 4497   2.242   2.252   0.280  1.4848 -0.4359 -0.3159
 1497TIP3    H2 4498   2.197   2.222   0.139 -0.0964 -0.0387  0.0804
 1498TIP3   OH2 4499   2.104   4.156   1.851 -0.0895 -0.1605  0.1030
 1498TIP3    H1 4500   2.147   4.134   1.934  0.7380 -0.9176 -0.4951
 1498TIP3    H2 4501   2.032   4.093   1.845 -0.5563  0.3217  0.5429
 1499TIP3   OH2 4502   1.850   1.388   0.460 -0.0801 -0.0687  0.3883
 1499TIP3    H1 4503   1.814   1.468   0.421  1.4736  0.8534  0.7655
 1499TIP3    H2 4504   1.944   1.406   0.469  0.2653 -1.8484  0.7195
 1500TIP3   OH2 4505   2.802   3.961   2.884  0.2196  0.5734 -0.1336
 1500TIP3    H1 4506   2.885   3.918   2.908 -0.5066 -0.0127  1.4677
 1500TIP3    H2 4507   2.782   4.017   2.959 -1.3960 -0.1564  0.0224
 1501TIP3   OH2 4508   4.341   5.633   1.518  0.0843  0.9585  0.7795
 1501TIP3    H1 4509   4.246   5.632   1.507  0.3418 -1.0426 -2.4340
 1501TIP3    H2 4510   4.367   5.722   1.495 -0.9035  1.1829  0.4941
 1502TIP3   OH2 4511   5.558   0.084   0.669  0.4197  1.0267 -0.8652
 1502TIP3    H1 4512   5.484   0.045   0.716 -0.7464  2.8016 -1.1432
 1502TIP3    H2 4513   5.629   0.085   0.733 -0.6343  1.8401  0.3201
 1503TIP3   OH2 4514   5.666   4.688   2.408 -0.1844  0.4804 -0.4840
 1503TIP3    H1 4515   5.598   4.752   2.427 -0.9681 -1.0450  2.3050
 1503TIP3    H2 4516   5.732   4.737   2.359 -2.1879  2.5692 -1.2762
 1504TIP3   OH2 4517   0.972   5.443   4.531  0.5765 -0.0161 -0.3754
 1504TIP3    H1 4518   0.960   5.361   4.483 -0.4853 -0.0420 -0.0920
 1504TIP3    H2 4519   1.016   5.417   4.612  0.1930 -0.3203 -0.2602
 1505TIP3   OH2 4520   2.446   4.895   2.819  0.0528 -0.0568 -0.6814
 1505TIP3    H1 4521   2.380   4.963   2.825  0.5242  0.3013  1.7888
 1505TIP3    H2 4522   2.510   4.928   2.756  0.1189  1.7056  0.2483
 1506TIP3   OH2 4523   4.734   5.913   1.795  0.0570  0.1512  0.5305
 1506TIP3    H1 4524   4.797   5.975   1.832  1.0212 -1.3056  1.4398
 1506TIP3    H2 4525   4.724   5.941   1.704 -0.8942  2.6589  1.3033
 1507TIP3   OH2 4526   4.987   5.534   2.701 -0.2363 -0.0257 -0.6602
 1507TIP3    H1 4527   4.946   5.452   2.729  1.0759 -0.5912 -0.3012
 1507TIP3    H2 4528   5.081   5.517   2.709  0.1312  0.7713 -2.6867
 1508TIP3   OH2 4529   2.253   2.861   3.571 -0.2691  0.4191 -0.6679
 1508TIP3    H1 4530   2.219   2.792   3.628 -0.9167 -0.6724 -2.3130
 1508TIP3    H2 4531   2.324   2.819   3.522  0.9416  1.6169  0.0085
 1509TIP3   OH2 4532   2.597   5.947   1.461  0.5055 -0.0614  0.8369
 1509TIP3    H1 4533   2.684   5.976   1.488  0.6119  1.8349 -1.2116
 1509TIP3    H2 4534   2.611   5.903   1.378 -0.4439 -0.2032  0.7410
 1510TIP3   OH2 4535   0.905   4.668   1.961  0.8157 -0.1597  1.1005
 1510TIP3    H1 4536   0.936   4.605   1.895  1.2406  0.2762  0.8771
 1510TIP3    H2 4537   0.919   4.753   1.920 -0.8645  0.0544  0.9208
 1511TIP3   OH2 4538   4.794   5.201   1.327  0.0848  0.0679  0.2698
 1511TIP3    H1 4539   4.736   5.277   1.320 -1.9794 -1.0815  3.0960
 1511TIP3    H2 4540   4.822   5.184   1.237 -1.9780  2.1880 -0.8859
 1512TIP3   OH2 4541   4.950   3.270   3.186  0.1069  0.1691 -0.3566
 1512TIP3    H1 4542   4.885   3.210   3.221 -1.4256  2.4220  0.9025
 1512TIP3    H2 4543   5.030   3.218   3.178 -1.1500 -2.0089  0.5913
 1513TIP3   OH2 4544   2.634   1.943   3.962 -0.3049 -0.6035 -0.1498
 1513TIP3    H1 4545   2.711   1.997   3.981  0.3923 -1.1955 -1.2143
 1513TIP3    H2 4546   2.660   1.888   3.888 -1.0929 -2.1823  0.6764
 1514TIP3   OH2 4547   1.611   2.723   1.394  0.1589  0.1385 -0.2199
 1514TIP3    H1 4548   1.671   2.655   1.426  1.4908  0.8831 -1.0760
 1514TIP3    H2 4549   1.667   2.799   1.379 -1.3634  1.6170  1.1624
 1515TIP3   OH2 4550   2.068   3.493   1.813 -0.0412  0.2426  0.1886
 1515TIP3    H1 4551   2.091   3.521   1.901  2.8557  0.2211 -0.4583
 1515TIP3    H2 4552   2.145   3.514   1.760 -0.8365 -1.7011 -1.9175
 1516TIP3   OH2 4553   5.035   4.753   1.432 -0.1544  0.5034 -0.2126
 1516TIP3    H1 4554   5.113   4.801   1.459  0.1172 -0.2736  0.4644
 1516TIP3    H2 4555   5.033   4.677   1.491 -0.9507  0.0659 -0.7849
 1517TIP3   OH2 4556   5.949   1.593   2.148 -0.1805  0.3168  0.1711
 1517TIP3    H1 4557   5.993   1.677   2.156 -1.0631  0.6693  1.8329
 1517TIP3    H2 4558   5.999   1.534   2.206  0.2978 -0.2623 -0.8059
 1518TIP3   OH2 4559   2.292   4.970   2.542 -0.2925  0.3719  0.4093
 1518TIP3    H1 4560   2.246   4.933   2.617  1.8068 -1.1498  1.0104
 1518TIP3    H2 4561   2.329   5.052   2.574 -1.7319  1.1460  0.1795
 1519TIP3   OH2 4562   0.120   2.166   1.073 -0.3208  0.1168 -0.4171
 1519TIP3    H1 4563   0.168   2.238   1.032 -0.3570  0.7270  0.5530
 1519TIP3    H2 4564   0.172   2.144   1.150  0.0628 -1.4004 -1.0885
 1520TIP3   OH2 4565   6.237   1.810   1.652  0.2970  0.1147  0.4526
 1520TIP3    H1 4566   6.314   1.760   1.624 -0.2370 -0.0152 -0.8493
 1520TIP3    H2 4567   6.185   1.747   1.702  0.9420  0.1593  1.2013
 1521TIP3   OH2 4568   4.023   0.158   2.914 -0.3137 -0.4259  0.3121
 1521TIP3    H1 4569   4.011   0.204   2.832  0.0424  1.5766  1.3124
 1521TIP3    H2 4570   4.118   0.157   2.928 -0.4083 -0.1063  1.0351
 1522TIP3   OH2 4571   3.035   5.845   4.234 -0.6311 -0.5248 -0.5109
 1522TIP3    H1 4572   3.038   5.817   4.326  2.7404 -0.7217 -0.5554
 1522TIP3    H2 4573   3.067   5.936   4.236 -1.9656 -0.0211 -1.3702
 1523TIP3   OH2 4574   4.053   0.126   1.549 -0.0188  0.2500 -0.2535
 1523TIP3    H1 4575   4.074   0.172   1.630  0.0989 -0.5314  0.1728
 1523TIP3    H2 4576   4.128   0.067   1.535  0.4459  1.0943 -1.4810
 1524TIP3   OH2 4577   0.150   0.774   2.149 -0.2164 -0.2493  0.1083
 1524TIP3    H1 4578   0.100   0.705   2.194 -0.8546 -0.3877 -0.7762
 1524TIP3    H2 4579   0.136   0.756   2.055 -0.2811  1.0020 -0.1326
 1525TIP3   OH2 4580   1.355   4.655   2.976 -0.3674 -0.0583  0.0489
 1525TIP3    H1 4581   1.295   4.669   3.049 -1.2980  1.7002 -0.9661
 1525TIP3    H2 4582   1.430   4.712   2.994 -0.8502  0.8125 -0.5817
 1526TIP3   OH2 4583   4.374   4.009   0.578 -0.2916  0.5837 -0.2458
 1526TIP3    H1 4584   4.295   3.963   0.548  2.1630 -2.8820 -2.1602
 1526TIP3    H2 4585   4.387   4.079   0.514  0.9729 -2.2769 -3.4555
 1527TIP3   OH2 4586   0.735   3.958   1.500 -0.0556  0.2881 -0.4344
 1527TIP3    H1 4587   0.689   3.893   1.447 -1.2923  0.5124  0.3245
 1527TIP3    H2 4588   0.666   3.999   1.553  0.9948  0.7853  0.5888
 1528TIP3   OH2 4589   2.527   3.703   4.755 -0.6083  0.3030  0.4999
 1528TIP3    H1 4590   2.599   3.640   4.762  2.0934  2.5926 -2.9584
 1528TIP3    H2 4591   2.537   3.760   4.831 -1.1698 -1.4932  1.9946
 1529TIP3   OH2 4592   0.608   3.240   1.836  0.1289 -0.1202 -0.0846
 1529TIP3    H1 4593   0.666   3.242   1.912  0.5913  0.9551 -0.4348
 1529TIP3    H2 4594   0.668   3.231   1.761 -0.2324 -0.1066 -0.3781
 1530TIP3   OH2 4595   4.809   5.080   2.238 -0.3267  0.7283  0.1004
 1530TIP3    H1 4596   4.795   4.985   2.239 -0.7207  0.7859  0.0685
 1530TIP3    H2 4597   4.872   5.093   2.167 -1.4776  0.6459 -0.9764
 1531TIP3   OH2 4598   4.895   0.257   1.281  0.3319  0.3094  0.0143
 1531TIP3    H1 4599   4.922   0.188   1.341  1.3030  1.6163  1.1438
 1531TIP3    H2 4600   4.943   0.238   1.200  0.0475 -0.7166  0.0718
 1532TIP3   OH2 4601   0.890   3.204   1.946 -0.1628  0.3272  0.3673
 1532TIP3    H1 4602   0.953   3.193   2.018 -0.2089 -0.2314  0.3224
 1532TIP3    H2 4603   0.854   3.117   1.932 -1.0526  0.6672  0.4835
 1533TIP3   OH2 4604   5.112   5.294   4.239  0.7393 -0.0632 -0.3084
 1533TIP3    H1 4605   5.199   5.328   4.259  0.4049  0.1608  0.9237
 1533TIP3    H2 4606   5.054   5.342   4.299 -0.2457 -0.1188 -1.1853
 1534TIP3   OH2 4607   2.194   2.812   2.463 -0.6912  0.3027 -0.1111
 1534TIP3    H1 4608   2.149   2.889   2.429 -0.6779  0.1771 -0.4242
 1534TIP3    H2 4609   2.274   2.846   2.503 -0.6202  0.4414 -0.3652
 1535TIP3   OH2 4610   3.511   4.650   3.356  0.0674  0.2200  0.3446
 1535TIP3    H1 4611   3.593   4.684   3.393 -0.8918  1.2992  1.6128
 1535TIP3    H2 4612   3.444   4.683   3.416 -1.3475 -0.1421 -1.0018
 1536TIP3   OH2 4613   4.929   3.238   1.789 -0.3591 -0.2799 -0.2728
 1536TIP3    H1 4614   4.922   3.333   1.773  1.5122 -0.1128 -0.4180
 1536TIP3    H2 4615   5.020   3.226   1.817 -0.2764 -2.1600 -1.2080
 1537TIP3   OH2 4616   1.831   0.730   1.893 -0.4293  0.4236  0.3366
 1537TIP3    H1 4617   1.927   0.733   1.895 -0.4506  2.2331  0.2889
 1537TIP3    H2 4618   1.811   0.645   1.854  1.1990  1.0499 -2.0948
 1538TIP3   OH2 4619   0.538   4.022   3.134  0.3696  0.4743  0.5467
 1538TIP3    H1 4620   0.555   3.953   3.069 -0.2661  0.6784  0.1519
 1538TIP3    H2 4621   0.510   3.974   3.212 -0.5365  0.2925  0.1247
 1539TIP3   OH2 4622   1.888   1.212   5.020 -0.3396 -0.7509 -0.5675
 1539TIP3    H1 4623   1.868   1.298   5.058  0.5058 -0.8519  0.1516
 1539TIP3    H2 4624   1.948   1.232   4.948 -1.1886 -0.6372 -1.2517
 1540TIP3   OH2 4625   0.439   4.149   2.871  0.7678  0.1670  0.0210
 1540TIP3    H1 4626   0.448   4.139   2.965 -0.4035  1.3240  0.3048
 1540TIP3    H2 4627   0.346   4.134   2.854  1.0177 -0.3311 -0.9949
 1541TIP3   OH2 4628   1.969   4.277   5.089 -0.2781 -0.1598 -0.7107
 1541TIP3    H1 4629   1.910   4.236   5.025  0.4012  1.8831 -2.7744
 1541TIP3    H2 4630   2.021   4.204   5.124 -1.6459 -1.5222 -1.3990
 1542TIP3   OH2 4631   1.153   5.866   4.100  1.0259  0.2249  0.4033
 1542TIP3    H1 4632   1.143   5.957   4.073  0.5980  0.2456  0.6217
 1542TIP3    H2 4633   1.072   5.823   4.070  1.2331 -0.0832  0.2836
 1543TIP3   OH2 4634   6.170   0.041   4.734 -0.0625 -0.0069  0.0182
 1543TIP3    H1 4635   6.149   0.070   4.823 -0.5772 -0.6882  0.1303
 1543TIP3    H2 4636   6.244   0.096   4.708  0.9496 -0.6767  1.3478
 1544TIP3   OH2 4637   1.152   2.044   4.130  0.2173  0.5531  0.8453
 1544TIP3    H1 4638   1.231   2.018   4.177  1.3888 -0.0728 -1.3649
 1544TIP3    H2 4639   1.180   2.116   4.074 -0.2399 -0.9120 -1.3796
 1545TIP3   OH2 4640   5.214   1.118   2.782  0.2596  0.3916 -0.2444
 1545TIP3    H1 4641   5.186   1.162   2.862 -0.4650  0.6709 -0.6423
 1545TIP3    H2 4642   5.284   1.173   2.747  0.8591  0.0572  0.3934
 1546TIP3   OH2 4643   3.993   5.589   3.501 -0.4008  1.1944  0.2698
 1546TIP3    H1 4644   3.897   5.590   3.503 -0.5095 -1.2522 -0.7173
 1546TIP3    H2 4645   4.016   5.633   3.419 -0.9049 -1.1708 -1.2417
 1547TIP3   OH2 4646   5.043   3.309   2.762  0.0346  0.1042 -0.3513
 1547TIP3    H1 4647   5.095   3.387   2.782 -0.2613 -0.0796  1.2258
 1547TIP3    H2 4648   4.953   3.335   2.779 -0.2071 -0.1792 -1.1630
 1548TIP3   OH2 4649   4.560   5.944   2.503 -0.2553  0.0262  0.3066
 1548TIP3    H1 4650   4.571   5.979   2.592  0.7022 -0.2716  0.3151
 1548TIP3    H2 4651   4.540   5.851   2.517  0.6355 -0.1894  0.2027
 1549TIP3   OH2 4652   3.540   1.195   2.438 -0.2153  0.2724  0.3294
 1549TIP3    H1 4653   3.455   1.167   2.403 -0.3191 -0.0139  0.7998
 1549TIP3    H2 4654   3.602   1.176   2.368 -0.2957 -1.0544  0.5903
 1550TIP3   OH2 4655   2.022   2.304   2.551  0.0190 -0.5886 -0.1691
 1550TIP3    H1 4656   2.106   2.259   2.563  0.2520 -0.1319 -0.0523
 1550TIP3    H2 4657   1.964   2.264   2.616  0.1366 -0.9187 -0.2611
 1551TIP3   OH2 4658   5.433   5.281   2.185 -0.2962 -0.4733  0.1462
 1551TIP3    H1 4659   5.434   5.376   2.179  0.0677 -0.5331 -0.8701
 1551TIP3    H2 4660   5.367   5.262   2.252 -1.9322  0.4273 -1.1371
 1552TIP3   OH2 4661   2.174   1.417   0.544  0.2888  0.4085 -0.0290
 1552TIP3    H1 4662   2.184   1.470   0.465 -1.7148 -0.5603 -0.9989
 1552TIP3    H2 4663   2.256   1.367   0.550  1.6981  2.5617  0.2160
 1553TIP3   OH2 4664   2.982   2.530   2.870 -0.1328 -0.3275  0.3170
 1553TIP3    H1 4665   2.921   2.599   2.843 -0.1295 -0.6714 -0.5947
 1553TIP3    H2 4666   2.926   2.455   2.891 -0.0533 -0.5212 -0.1495
 1554TIP3   OH2 4667   0.487   5.790   3.351 -0.0381 -0.1218  0.0196
 1554TIP3    H1 4668   0.575   5.755   3.365  0.0679 -0.5959 -1.6394
 1554TIP3    H2 4669   0.468   5.839   3.432  1.5477 -0.3865  0.5978
 1555TIP3   OH2 4670   0.674   0.198   1.691 -0.0116 -0.7551 -0.7649
 1555TIP3    H1 4671   0.742   0.132   1.678  0.6783 -0.0229 -0.9475
 1555TIP3    H2 4672   0.652   0.192   1.784  2.0532  0.6263 -0.1231
 1556TIP3   OH2 4673   0.486   1.544   1.810 -0.4576 -0.1197  0.4496
 1556TIP3    H1 4674   0.514   1.454   1.827 -1.4363 -0.6380 -0.5717
 1556TIP3    H2 4675   0.433   1.568   1.886 -1.8634 -1.1461 -0.1739
 1557TIP3   OH2 4676   3.350   3.980   0.649 -0.5027 -0.2797 -0.1196
 1557TIP3    H1 4677   3.274   4.037   0.644  0.1934  0.6967  0.1449
 1557TIP3    H2 4678   3.334   3.912   0.583 -0.4627  1.3242 -1.8541
 1558TIP3   OH2 4679   3.163   3.076   3.564  0.4429 -0.1814  0.1357
 1558TIP3    H1 4680   3.195   3.043   3.480  0.7066  1.4720 -0.4545
 1558TIP3    H2 4681   3.068   3.069   3.559  0.5041 -1.0648  0.1342
 1559TIP3   OH2 4682   6.129   0.254   3.255 -0.0110  0.3311  0.1972
 1559TIP3    H1 4683   6.085   0.338   3.267 -0.0790  0.4705 -0.9159
 1559TIP3    H2 4684   6.117   0.233   3.162 -0.2810 -1.0702  0.5177
 1560TIP3   OH2 4685   1.259   5.305   0.714 -0.9057 -0.0045 -0.0928
 1560TIP3    H1 4686   1.202   5.293   0.639 -0.0026 -0.5426 -0.7078
 1560TIP3    H2 4687   1.339   5.259   0.691 -0.1417  0.9007  0.6675
 1561TIP3   OH2 4688   1.396   0.264   0.050 -0.0695 -0.2884  0.5551
 1561TIP3    H1 4689   1.341   0.269  -0.028 -1.2665  1.0246  1.4388
 1561TIP3    H2 4690   1.476   0.312   0.027 -0.3204 -0.1006  0.0696
 1562TIP3   OH2 4691   5.371   4.918   1.320  0.2465  0.2235  0.1179
 1562TIP3    H1 4692   5.452   4.917   1.370 -0.8558 -1.5031  2.0466
 1562TIP3    H2 4693   5.397   4.941   1.231  2.9948 -1.3479  0.4261
 1563TIP3   OH2 4694   5.990   0.518   2.911 -0.1266 -0.3842  0.1131
 1563TIP3    H1 4695   5.990   0.536   2.817  0.3978 -0.5543  0.0776
 1563TIP3    H2 4696   6.051   0.445   2.921  0.7885  0.4438  0.7409
 1564TIP3   OH2 4697   1.301   1.605   3.893  0.4406 -0.3214 -0.6464
 1564TIP3    H1 4698   1.240   1.558   3.836  0.0051  0.3857 -0.7895
 1564TIP3    H2 4699   1.254   1.613   3.977  0.3994  0.0769 -0.7040
 1565TIP3   OH2 4700   3.169   3.220   4.925 -0.2989 -0.0271 -0.0027
 1565TIP3    H1 4701   3.181   3.266   5.008 -2.3585 -1.8204  1.4171
 1565TIP3    H2 4702   3.076   3.195   4.924  0.2954 -2.6573 -1.4032
 1566TIP3   OH2 4703   5.499   5.533   0.956 -0.2530  0.7314  0.3204
 1566TIP3    H1 4704   5.577   5.479   0.948 -0.7480 -0.0259  0.4519
 1566TIP3    H2 4705   5.497   5.584   0.875 -0.3686 -0.2804 -0.3435
 1567TIP3   OH2 4706   5.514   3.722   3.048  0.6694  0.1256  0.1711
 1567TIP3    H1 4707   5.538   3.750   2.960 -1.5041 -0.5546 -0.7001
 1567TIP3    H2 4708   5.542   3.794   3.105 -0.6462  2.0142 -1.4465
 1568TIP3   OH2 4709   2.752   1.353   1.185  0.7250  0.4045  0.2288
 1568TIP3    H1 4710   2.716   1.334   1.272  1.5680 -0.2362  0.4548
 1568TIP3    H2 4711   2.804   1.433   1.197  0.2807  0.7078  0.1513
 1569TIP3   OH2 4712   5.453   1.662   3.989 -0.5397 -0.7261 -0.3246
 1569TIP3    H1 4713   5.376   1.606   3.991  0.0604 -1.5718  1.3958
 1569TIP3    H2 4714   5.463   1.692   4.079  0.2671  0.6036 -0.8274
 1570TIP3   OH2 4715   1.765   5.121   4.685  0.1065  0.1451 -0.4275
 1570TIP3    H1 4716   1.678   5.162   4.678  0.3207  0.4468 -1.5475
 1570TIP3    H2 4717   1.750   5.029   4.661  0.3715  0.5892 -2.5076
 1571TIP3   OH2 4718   2.295   0.462   2.663 -0.5048  0.6624  0.4804
 1571TIP3    H1 4719   2.249   0.399   2.607 -0.9418  0.8501  0.6203
 1571TIP3    H2 4720   2.294   0.421   2.750  0.6612  0.1176  0.2512
 1572TIP3   OH2 4721   0.197   0.871   1.282  0.0580 -0.2595 -0.0085
 1572TIP3    H1 4722   0.137   0.800   1.261  0.3658 -0.4344 -0.3154
 1572TIP3    H2 4723   0.144   0.950   1.277 -0.2390 -0.4495  0.1358
 1573TIP3   OH2 4724   1.077   1.855   1.559 -0.6192 -0.0797  0.0435
 1573TIP3    H1 4725   1.023   1.903   1.622 -2.5668 -2.1466  0.0571
 1573TIP3    H2 4726   1.102   1.920   1.494  0.6033  1.9057  2.3112
 1574TIP3   OH2 4727   2.104   5.269   2.459  0.3500 -0.9321 -0.2186
 1574TIP3    H1 4728   2.194   5.285   2.431  0.4327 -0.8939  0.0738
 1574TIP3    H2 4729   2.082   5.185   2.419 -0.1603 -0.0386 -1.9480
 1575TIP3   OH2 4730   3.941   5.129   4.592 -0.1154 -0.0856  0.1472
 1575TIP3    H1 4731   4.031   5.141   4.563 -0.4388 -0.2203 -0.9351
 1575TIP3    H2 4732   3.913   5.047   4.551 -0.5554 -0.3341  0.9219
 1576TIP3   OH2 4733   4.890   0.249   2.249 -0.6210  0.0553 -0.1150
 1576TIP3    H1 4734   4.897   0.279   2.340 -1.1047  0.6485 -0.2695
 1576TIP3    H2 4735   4.881   0.154   2.256 -0.7407  0.1061  0.4606
 1577TIP3   OH2 4736   3.838   1.907   1.972 -0.4338 -0.3265 -0.1065
 1577TIP3    H1 4737   3.876   1.903   1.884  1.7555 -0.0175  0.7607
 1577TIP3    H2 4738   3.799   1.995   1.976 -1.4123 -0.6877 -1.0582
 1578TIP3   OH2 4739   4.903   0.739   4.392 -0.4127  0.0950 -0.3561
 1578TIP3    H1 4740   4.919   0.704   4.304  2.7220  0.8025 -0.1495
 1578TIP3    H2 4741   4.863   0.825   4.377  2.1782  1.2299 -1.2568
 1579TIP3   OH2 4742   0.710   1.577   3.584  0.0606  0.1410  0.4929
 1579TIP3    H1 4743   0.801   1.602   3.603  0.0296  0.1364  0.6458
 1579TIP3    H2 4744   0.707   1.484   3.606 -0.1817  0.3146  1.2058
 1580TIP3   OH2 4745   4.885   5.145   1.073 -0.1668 -0.3055  0.5405
 1580TIP3    H1 4746   4.922   5.220   1.027 -0.2574 -0.1909  0.6526
 1580TIP3    H2 4747   4.899   5.071   1.014  0.7724 -0.3754  0.8323
 1581TIP3   OH2 4748   6.087   0.394   2.616 -0.2238  0.4918  0.3064
 1581TIP3    H1 4749   6.077   0.459   2.546  0.2145  0.6450  0.3835
 1581TIP3    H2 4750   6.168   0.418   2.659  0.2132 -0.4223  0.0115
 1582TIP3   OH2 4751   2.486   1.509   3.038 -0.5825 -0.3479  0.8886
 1582TIP3    H1 4752   2.493   1.423   2.997 -2.1345 -0.4485  0.7823
 1582TIP3    H2 4753   2.534   1.567   2.980 -0.2180 -1.0005  0.5272
 1583TIP3   OH2 4754   5.887   1.070   5.086  0.1550  0.4993 -0.4654
 1583TIP3    H1 4755   5.794   1.082   5.107  0.0076  0.9539 -1.3146
 1583TIP3    H2 4756   5.893   0.980   5.054 -0.0754  0.6006 -0.7990
 1584TIP3   OH2 4757   2.842   1.576   4.117 -0.0985  0.2616 -0.4856
 1584TIP3    H1 4758   2.913   1.601   4.058 -0.2163 -0.4780 -0.9586
 1584TIP3    H2 4759   2.834   1.650   4.178  1.9113 -0.1603  0.3850
 1585TIP3   OH2 4760   3.810   1.237   2.323 -0.3398  0.7896 -0.3484
 1585TIP3    H1 4761   3.779   1.152   2.290 -0.3942  0.6103  0.1521
 1585TIP3    H2 4762   3.900   1.219   2.352 -0.8537  0.5129  1.1763
 1586TIP3   OH2 4763   4.715   5.507   4.177  0.1253 -0.3753  0.2925
 1586TIP3    H1 4764   4.760   5.578   4.130  0.8788 -1.1127 -0.1335
 1586TIP3    H2 4765   4.756   5.427   4.144 -1.4670 -1.0884 -0.0688
 1587TIP3   OH2 4766   3.013   1.277   3.839  0.1471 -0.3258  0.5189
 1587TIP3    H1 4767   2.927   1.319   3.841  0.2087 -0.2264  1.4378
 1587TIP3    H2 4768   3.068   1.339   3.790 -0.3901 -0.5926 -0.4620
 1588TIP3   OH2 4769   1.858   1.840   1.815 -0.0927 -0.2128 -0.1070
 1588TIP3    H1 4770   1.801   1.772   1.779  0.7623 -0.8019 -0.3975
 1588TIP3    H2 4771   1.800   1.898   1.863 -0.8928 -0.9485 -0.1692
 1589TIP3   OH2 4772   5.198   0.221   1.861 -0.0166  0.6047 -0.0985
 1589TIP3    H1 4773   5.267   0.206   1.925  1.1315  2.2508 -0.8941
 1589TIP3    H2 4774   5.179   0.314   1.866 -0.5395  0.6064 -1.5250
 1590TIP3   OH2 4775   4.252   1.172   5.149  0.3160 -0.4294  0.2514
 1590TIP3    H1 4776   4.292   1.193   5.233  1.8950 -2.3613  0.0571
 1590TIP3    H2 4777   4.220   1.256   5.117  1.6016  0.7363  1.7996
 1591TIP3   OH2 4778   2.041   2.925   5.097  0.0172 -0.2796 -0.1047
 1591TIP3    H1 4779   2.108   2.897   5.034 -0.7644  0.4488 -1.3098
 1591TIP3    H2 4780   2.004   2.844   5.131  0.4289 -0.6907 -0.6092
 1592TIP3   OH2 4781   5.967   4.469   2.782  0.1345  0.4373  0.0839
 1592TIP3    H1 4782   5.921   4.502   2.705  1.2155  2.0596  0.0895
 1592TIP3    H2 4783   6.051   4.514   2.781  0.8006 -0.7018  1.3609
 1593TIP3   OH2 4784   4.384   1.688   2.291  0.1323  0.0469 -0.7410
 1593TIP3    H1 4785   4.450   1.669   2.358  1.0179 -0.5355 -1.7423
 1593TIP3    H2 4786   4.419   1.648   2.211 -2.0329 -1.4032 -1.0446
 1594TIP3   OH2 4787   6.269   3.111   1.155 -0.4833  0.0232  0.5531
 1594TIP3    H1 4788   6.176   3.102   1.173 -1.5054  4.4617 -1.4551
 1594TIP3    H2 4789   6.286   3.052   1.082 -2.1389  0.4028 -0.1583
 1595TIP3   OH2 4790   0.024   5.388   3.534 -0.5560  0.6007  0.2884
 1595TIP3    H1 4791   0.095   5.336   3.571 -0.6045  0.8401  0.7260
 1595TIP3    H2 4792  -0.040   5.324   3.503 -0.2103  0.3855  0.0055
 1596TIP3   OH2 4793   2.462   0.250   3.115 -0.4609  0.0410 -0.1641
 1596TIP3    H1 4794   2.467   0.318   3.183 -1.2633 -0.6193  0.5794
 1596TIP3    H2 4795   2.469   0.167   3.164 -4.5148 -0.6278 -0.3576
 1597TIP3   OH2 4796   5.524   2.092   0.113  0.2346 -0.4790  0.3693
 1597TIP3    H1 4797   5.522   2.129   0.201  0.1089 -1.3695  0.7573
 1597TIP3    H2 4798   5.617   2.084   0.091  0.3508 -2.2490  1.3179
 1598TIP3   OH2 4799   3.689   1.311   4.288  0.0872  0.0285 -0.1793
 1598TIP3    H1 4800   3.725   1.398   4.267 -1.1024  0.6464  0.2645
 1598TIP3    H2 4801   3.601   1.312   4.252  0.2739 -1.2428 -0.7098
 1599TIP3   OH2 4802   1.540   3.704   1.458  0.3632 -0.3255 -0.2152
 1599TIP3    H1 4803   1.477   3.680   1.390  1.8686 -0.8274 -1.4624
 1599TIP3    H2 4804   1.608   3.753   1.412  1.2117 -0.3155  1.0019
 1600TIP3   OH2 4805   3.798   3.250   2.526  0.8585  0.3387 -0.4472
 1600TIP3    H1 4806   3.709   3.255   2.493  0.5332 -1.3893  0.1265
 1600TIP3    H2 4807   3.838   3.333   2.498 -1.3462  1.8572  0.6475
 1601TIP3   OH2 4808   2.818   4.444   2.060 -0.0384  0.0221 -0.0759
 1601TIP3    H1 4809   2.836   4.523   2.010 -0.5124 -0.0684 -0.3890
 1601TIP3    H2 4810   2.823   4.472   2.152 -3.9244  1.3279 -0.0915
 1602TIP3   OH2 4811   0.067   4.602   3.911  0.1721 -0.3437 -0.4532
 1602TIP3    H1 4812   0.027   4.609   3.998  0.0819 -0.3026 -0.4972
 1602TIP3    H2 4813   0.159   4.625   3.925  0.4331 -1.5130 -0.1585
 1603TIP3   OH2 4814   2.275   1.728   4.532 -0.1341 -0.0693  0.2534
 1603TIP3    H1 4815   2.257   1.821   4.518  1.7391  0.1985 -0.6745
 1603TIP3    H2 4816   2.255   1.714   4.625 -2.9207  0.5941 -0.1634
 1604TIP3   OH2 4817   2.254   5.780   2.510  0.4447  0.1110  0.4213
 1604TIP3    H1 4818   2.340   5.818   2.493  0.5691 -0.7117 -0.9362
 1604TIP3    H2 4819   2.271   5.688   2.531 -0.0404  0.1744  1.1370
 1605TIP3   OH2 4820   4.293   0.547   0.713  0.2020 -0.6039 -0.3869
 1605TIP3    H1 4821   4.216   0.492   0.699  1.1535 -2.0739 -0.0521
 1605TIP3    H2 4822   4.362   0.506   0.661  0.6610  0.9815 -1.0951
 1606TIP3   OH2 4823   4.019   5.422   4.029  0.4183 -0.2685 -0.1145
 1606TIP3    H1 4824   3.939   5.370   4.020 -0.4734  1.1187 -0.5654
 1606TIP3    H2 4825   3.990   5.502   4.072  1.2754  0.8593 -1.5374
 1607TIP3   OH2 4826   0.209   3.855   3.771 -0.0028  0.6491 -0.1858
 1607TIP3    H1 4827   0.262   3.867   3.850  0.5464 -0.3042 -0.3886
 1607TIP3    H2 4828   0.188   3.762   3.771  0.5858  0.4906 -1.5105
 1608TIP3   OH2 4829   4.488   2.780   4.271 -0.2013 -0.8853 -0.4960
 1608TIP3    H1 4830   4.395   2.791   4.253  0.3705  1.0132 -2.7884
 1608TIP3    H2 4831   4.521   2.732   4.195  0.6331 -1.9972  0.5376
 1609TIP3   OH2 4832   5.407   5.749   0.372  0.4072 -0.1691 -0.5137
 1609TIP3    H1 4833   5.484   5.788   0.414  0.5386  0.6635 -1.4909
 1609TIP3    H2 4834   5.334   5.806   0.399 -0.2424 -1.9799  1.9084
 1610TIP3   OH2 4835   0.844   1.266   2.540 -0.2275  0.6660  1.1763
 1610TIP3    H1 4836   0.912   1.198   2.543  0.0820  0.9265  0.3563
 1610TIP3    H2 4837   0.765   1.219   2.512 -0.0218  0.6320  0.6390
 1611TIP3   OH2 4838   1.181   0.632   3.591  0.1604 -1.1154 -0.3433
 1611TIP3    H1 4839   1.204   0.549   3.631  0.4416 -0.7265  0.3138
 1611TIP3    H2 4840   1.088   0.644   3.611  0.6018 -0.3031  1.3491
 1612TIP3   OH2 4841   1.394   0.348   1.242  0.1002 -0.5502 -0.0089
 1612TIP3    H1 4842   1.424   0.371   1.155 -1.1086 -0.6263 -0.4656
 1612TIP3    H2 4843   1.311   0.303   1.228 -1.1761  1.2505  1.2664
 1613TIP3   OH2 4844   1.390   2.488   2.639 -0.5232 -0.0347 -0.4248
 1613TIP3    H1 4845   1.398   2.394   2.621  4.5564  0.4662 -2.3362
 1613TIP3    H2 4846   1.386   2.494   2.735 -0.5796 -2.1247 -0.2486
 1614TIP3   OH2 4847   3.460   5.223   0.740  0.5621 -0.1965  0.0782
 1614TIP3    H1 4848   3.438   5.258   0.826  1.6813  0.1544  0.2412
 1614TIP3    H2 4849   3.509   5.143   0.759  1.0205  0.0080 -0.2239
 1615TIP3   OH2 4850   3.131   0.836   2.649 -0.4361 -0.3881  0.1497
 1615TIP3    H1 4851   3.156   0.752   2.610  3.5014  1.4625 -1.9954
 1615TIP3    H2 4852   3.162   0.831   2.740 -1.1045 -1.5462  0.3262
 1616TIP3   OH2 4853   0.731   4.192   0.012 -0.5900 -0.0025 -0.1436
 1616TIP3    H1 4854   0.806   4.195  -0.046  0.3319  0.0432  1.0092
 1616TIP3    H2 4855   0.737   4.106   0.054 -0.9766  0.1412  0.2152
 1617TIP3   OH2 4856   1.455   1.040   3.304 -0.0798 -0.1566  0.1881
 1617TIP3    H1 4857   1.465   1.071   3.395 -1.9112 -0.1289  0.4166
 1617TIP3    H2 4858   1.360   1.039   3.290  0.1356 -1.3689 -1.3280
 1618TIP3   OH2 4859   4.921   1.154   1.609  0.2464 -0.4130 -0.4562
 1618TIP3    H1 4860   4.996   1.212   1.618 -0.5917  0.9694 -1.8994
 1618TIP3    H2 4861   4.921   1.130   1.516  0.5840 -2.8039  0.0920
 1619TIP3   OH2 4862   2.606   0.610   0.594  0.0743 -0.5778  0.3851
 1619TIP3    H1 4863   2.649   0.678   0.541  2.8782 -1.2237  1.6383
 1619TIP3    H2 4864   2.622   0.529   0.547  1.9376 -1.0547  1.6904
 1620TIP3   OH2 4865   2.829   4.612   4.889 -0.1247 -0.0393 -0.6261
 1620TIP3    H1 4866   2.862   4.692   4.931 -0.7810 -0.3312  0.4687
 1620TIP3    H2 4867   2.734   4.617   4.900 -0.2529 -0.4938 -1.4445
 1621TIP3   OH2 4868   3.123   2.658   3.072 -0.3112 -0.3928  0.0337
 1621TIP3    H1 4869   3.160   2.737   3.034 -1.8434 -0.4809 -1.7813
 1621TIP3    H2 4870   3.107   2.600   2.998 -3.0878 -0.7182  0.7572
 1622TIP3   OH2 4871   5.607   2.064   3.920  0.4040 -0.0078  0.4772
 1622TIP3    H1 4872   5.654   2.078   3.837 -0.1489  1.4283  0.3823
 1622TIP3    H2 4873   5.530   2.013   3.895  0.9894 -0.8341  0.3452
 1623TIP3   OH2 4874   4.645   5.199   2.962  0.5134 -0.6128  0.0908
 1623TIP3    H1 4875   4.739   5.206   2.946  0.7503 -1.5617  0.9500
 1623TIP3    H2 4876   4.605   5.240   2.885  1.6122 -0.6986 -0.5587
 1624TIP3   OH2 4877   3.995   4.396   3.194  0.5003 -0.6537 -0.2719
 1624TIP3    H1 4878   4.084   4.374   3.222  0.0511 -2.5690 -0.1665
 1624TIP3    H2 4879   3.992   4.370   3.102  0.7250  1.6705 -0.9862
 1625TIP3   OH2 4880   1.226   3.756   2.977  0.0778 -0.7423 -0.0149
 1625TIP3    H1 4881   1.260   3.835   3.019 -1.5810 -0.4027  0.7518
 1625TIP3    H2 4882   1.137   3.747   3.010 -0.6505 -1.5250 -2.0057
 1626TIP3   OH2 4883   4.597   0.153   2.965  0.1513  0.4074 -0.1095
 1626TIP3    H1 4884   4.525   0.091   2.971 -0.7459  1.5460  2.7266
 1626TIP3    H2 4885   4.555   0.239   2.957  1.3300  0.8390 -2.4836
 1627TIP3   OH2 4886   5.652   5.832   0.474 -0.2273 -0.0744  0.3609
 1627TIP3    H1 4887   5.720   5.812   0.538  1.4032  1.3268 -0.8247
 1627TIP3    H2 4888   5.637   5.926   0.483 -0.2738  0.0739 -0.9867
 1628TIP3   OH2 4889   5.494   3.624   4.281 -0.3974 -0.2832 -0.1713
 1628TIP3    H1 4890   5.548   3.547   4.262  1.7289  1.0058  0.1964
 1628TIP3    H2 4891   5.495   3.631   4.376  0.2317  0.6653 -0.2250
 1629TIP3   OH2 4892   3.642   4.045   3.348 -0.3329 -0.4301  0.4148
 1629TIP3    H1 4893   3.723   4.049   3.398  0.3686  1.2747 -0.7434
 1629TIP3    H2 4894   3.618   4.137   3.333 -1.2550 -0.8712 -1.1494
 1630TIP3   OH2 4895   2.410   0.110   0.813 -0.3221  0.5351 -0.4299
 1630TIP3    H1 4896   2.457   0.098   0.730  1.3256 -1.3471  0.6598
 1630TIP3    H2 4897   2.410   0.022   0.853 -2.9441  0.9279  0.6353
 1631TIP3   OH2 4898   4.609   3.780   1.642 -0.2091  0.4973  0.6559
 1631TIP3    H1 4899   4.572   3.866   1.663 -2.2120 -0.4277  1.2187
 1631TIP3    H2 4900   4.541   3.718   1.670  0.1072 -1.1576 -1.9703
 1632TIP3   OH2 4901   3.441   0.513   0.710  0.2741 -0.4274 -0.5901
 1632TIP3    H1 4902   3.394   0.584   0.665  1.4729 -0.2387 -1.6113
 1632TIP3    H2 4903   3.383   0.488   0.781  0.0911  2.0638  0.2610
 1633TIP3   OH2 4904   5.970   0.631   1.067 -0.0246  0.0458  0.3822
 1633TIP3    H1 4905   5.929   0.577   1.135  3.1927  0.1359  2.5997
 1633TIP3    H2 4906   6.010   0.568   1.007  2.2235 -0.1990  2.0036
 1634TIP3   OH2 4907   2.525   0.923   3.870 -0.3048  0.4731  0.3116
 1634TIP3    H1 4908   2.493   1.013   3.878 -0.2086  0.4525  0.9980
 1634TIP3    H2 4909   2.619   0.930   3.887 -0.5586  0.0229  2.0675
 1635TIP3   OH2 4910   4.845   0.576   3.102 -0.2943  0.1336 -0.2931
 1635TIP3    H1 4911   4.837   0.536   3.189  0.0393 -1.1415 -0.8169
 1635TIP3    H2 4912   4.760   0.559   3.061 -0.6458  1.2122 -0.0463
 1636TIP3   OH2 4913   4.032   1.436   1.956 -0.1539  0.1515 -0.0343
 1636TIP3    H1 4914   3.984   1.457   2.036 -0.3028 -0.0969 -0.0569
 1636TIP3    H2 4915   4.098   1.505   1.949  1.4976 -1.1574  1.6315
 1637TIP3   OH2 4916   6.001   5.647   0.906 -0.0003 -0.2980 -0.7025
 1637TIP3    H1 4917   5.917   5.685   0.881  0.1756  1.7602  1.5296
 1637TIP3    H2 4918   6.067   5.705   0.869  0.4901 -1.5674 -1.9278
 1638TIP3   OH2 4919   5.987   2.246   3.674  0.4320 -0.2405 -0.2366
 1638TIP3    H1 4920   5.996   2.323   3.619  1.0889 -1.3171 -1.6939
 1638TIP3    H2 4921   6.041   2.266   3.751  1.1370  0.4831 -0.8975
 1639TIP3   OH2 4922   0.467   5.506   2.156  0.2590 -0.5701  0.0478
 1639TIP3    H1 4923   0.450   5.586   2.206 -1.5794 -0.2718 -0.9604
 1639TIP3    H2 4924   0.391   5.450   2.174  1.3407 -1.9788  0.4599
 1640TIP3   OH2 4925   1.655   4.343   4.240 -0.1688  0.1956 -0.2090
 1640TIP3    H1 4926   1.629   4.370   4.152 -0.0053 -3.6894 -1.6541
 1640TIP3    H2 4927   1.575   4.311   4.281  0.5387 -4.2771 -1.6880
 1641TIP3   OH2 4928   4.095   2.190   1.364  0.5716  0.0470  0.2200
 1641TIP3    H1 4929   4.002   2.188   1.343  0.1702  0.8806  1.7759
 1641TIP3    H2 4930   4.139   2.199   1.279 -0.6470 -1.8712 -0.6913
 1642TIP3   OH2 4931   1.215   0.131   2.367 -0.9208  0.0988 -0.1141
 1642TIP3    H1 4932   1.276   0.129   2.293  1.0278  1.7032  1.3173
 1642TIP3    H2 4933   1.208   0.039   2.395  0.7411 -0.1534 -0.4313
 1643TIP3   OH2 4934   1.807   4.766   2.716 -0.5267  0.0625 -0.1798
 1643TIP3    H1 4935   1.771   4.716   2.789  0.0533 -0.0960  0.0063
 1643TIP3    H2 4936   1.827   4.700   2.650 -1.1174  0.2134 -0.5176
 1644TIP3   OH2 4937   3.887   0.753   3.267 -0.0342  0.2717 -0.2151
 1644TIP3    H1 4938   3.975   0.717   3.256  0.6488  2.0096 -0.7731
 1644TIP3    H2 4939   3.875   0.755   3.362  0.8657  0.7448 -0.0967
 1645TIP3   OH2 4940   2.151   4.371   1.704 -0.2214 -0.1562 -0.4579
 1645TIP3    H1 4941   2.112   4.292   1.742 -0.6087 -0.0719 -0.6759
 1645TIP3    H2 4942   2.159   4.431   1.778  1.6641 -0.9854  0.0811
 1646TIP3   OH2 4943   6.061   5.312   1.493 -0.7609 -0.3361 -0.7414
 1646TIP3    H1 4944   6.092   5.401   1.511 -1.1768 -0.3543  0.0942
 1646TIP3    H2 4945   6.125   5.277   1.430  0.1878  0.0768 -0.0331
 1647TIP3   OH2 4946   0.155   1.724   3.987  0.1851 -0.5865 -0.2999
 1647TIP3    H1 4947   0.160   1.816   3.963  0.7325 -0.5394 -0.0297
 1647TIP3    H2 4948   0.070   1.715   4.031 -0.3277 -0.4394 -1.2490
 1648TIP3   OH2 4949   0.785   2.313   2.298 -0.0964  0.6397 -0.2056
 1648TIP3    H1 4950   0.698   2.272   2.303  0.2527 -0.5187 -2.3383
 1648TIP3    H2 4951   0.773   2.400   2.336 -1.5234 -0.4398  2.0226
 1649TIP3   OH2 4952   2.149   4.890   0.266 -0.1050 -0.1185  0.1856
 1649TIP3    H1 4953   2.206   4.960   0.235  0.2253 -0.6413 -0.4261
 1649TIP3    H2 4954   2.092   4.871   0.192  0.0714 -0.7538  0.2040
 1650TIP3   OH2 4955   0.630   2.126   0.786 -0.2416 -0.0875 -0.0913
 1650TIP3    H1 4956   0.552   2.087   0.747  0.0335  1.4179 -2.3462
 1650TIP3    H2 4957   0.600   2.164   0.868 -1.9842  0.7405 -1.0656
 1651TIP3   OH2 4958   1.797   3.692   2.571  0.7106  0.0131  0.0342
 1651TIP3    H1 4959   1.788   3.696   2.666 -1.3540  1.0824 -0.1459
 1651TIP3    H2 4960   1.827   3.779   2.546 -2.4124  1.0739 -0.5077
 1652TIP3   OH2 4961   0.616   3.552   0.689  0.3107  0.1521  0.3900
 1652TIP3    H1 4962   0.610   3.463   0.724  0.6188  0.5055  1.3636
 1652TIP3    H2 4963   0.597   3.608   0.764 -0.0840  0.9121 -0.2624
 1653TIP3   OH2 4964   3.410   1.530   0.383 -0.1879 -0.5560 -0.3952
 1653TIP3    H1 4965   3.490   1.521   0.435  0.1956  3.5013  0.0550
 1653TIP3    H2 4966   3.339   1.520   0.446  0.1042 -0.6075 -0.0708
 1654TIP3   OH2 4967   2.281   5.532   2.597 -0.0083 -0.1256 -0.2751
 1654TIP3    H1 4968   2.190   5.548   2.624 -0.2636  0.5048 -1.4750
 1654TIP3    H2 4969   2.291   5.437   2.604 -0.4310 -0.1055  0.8526
 1655TIP3   OH2 4970   0.465   3.247   1.557 -0.1058 -0.0084 -0.1592
 1655TIP3    H1 4971   0.439   3.264   1.647 -1.7728 -0.4154 -0.5294
 1655TIP3    H2 4972   0.543   3.301   1.544 -1.0094  1.6530  0.9043
 1656TIP3   OH2 4973   5.892   2.696   1.119  1.0341 -0.2858 -0.1089
 1656TIP3    H1 4974   5.922   2.615   1.076  0.0658 -0.3006 -0.7942
 1656TIP3    H2 4975   5.829   2.665   1.184  0.5764 -0.0783 -0.4517
 1657TIP3   OH2 4976   0.680   2.395   2.625 -0.1463  0.3949  0.2103
 1657TIP3    H1 4977   0.588   2.376   2.606 -0.0545  0.2638 -0.1102
 1657TIP3    H2 4978   0.697   2.479   2.582  0.1198 -0.0055 -0.4847
 1658TIP3   OH2 4979   2.077   5.752   3.081  0.1501 -0.3519 -0.2733
 1658TIP3    H1 4980   2.011   5.719   3.142 -0.1488 -0.4005 -0.6191
 1658TIP3    H2 4981   2.157   5.706   3.105 -0.0980 -0.7954 -0.2893
 1659TIP3   OH2 4982   3.070   5.590   4.738  0.3237 -0.2275 -0.0993
 1659TIP3    H1 4983   2.976   5.588   4.725 -0.0024  1.2327  1.6549
 1659TIP3    H2 4984   3.090   5.510   4.787 -0.1061 -0.2559  0.0320
 1660TIP3   OH2 4985   1.041   3.490   0.828  0.1501 -0.4568 -0.2031
 1660TIP3    H1 4986   0.978   3.520   0.763  0.7489 -0.8135 -0.9602
 1660TIP3    H2 4987   0.993   3.492   0.911  0.0241  2.1838 -0.2579
 1661TIP3   OH2 4988   5.250   2.197   3.634 -0.3657 -0.3657 -0.1222
 1661TIP3    H1 4989   5.276   2.290   3.630  0.7074 -0.6740 -1.0964
 1661TIP3    H2 4990   5.209   2.187   3.720  1.7727  0.4616  1.0708
 1662TIP3   OH2 4991   3.785   4.321   0.064 -0.0905 -0.1113 -0.4197
 1662TIP3    H1 4992   3.714   4.313   0.128 -0.6633 -0.5291 -1.0819
 1662TIP3    H2 4993   3.865   4.307   0.114 -0.5334 -0.4673  0.1978
 1663TIP3   OH2 4994   1.570   4.209   0.435  0.4526 -0.3405 -0.2075
 1663TIP3    H1 4995   1.640   4.242   0.378 -0.1047  0.0507 -0.6891
 1663TIP3    H2 4996   1.507   4.170   0.374 -0.1650  0.1082  0.1366
 1664TIP3   OH2 4997   5.800   0.086   0.798 -0.8198 -0.0563 -0.4765
 1664TIP3    H1 4998   5.759   0.045   0.874 -2.5998 -0.3629 -1.5439
 1664TIP3    H2 4999   5.811   0.178   0.824  0.0127 -0.4644  0.6867
 1665TIP3   OH2 5000   3.240   0.244   0.118  0.2152  0.2881 -0.6245
 1665TIP3    H1 5001   3.260   0.216   0.207 -0.8587 -0.0400 -0.4663
 1665TIP3    H2 5002   3.171   0.310   0.129  0.5208  0.7027 -1.1753
 1666TIP3   OH2 5003   4.472   3.521   4.728  0.0766  0.2406  0.4161
 1666TIP3    H1 5004   4.392   3.493   4.683  0.7312 -0.9935 -0.0500
 1666TIP3    H2 5005   4.540   3.462   4.694  1.2272  1.3906  0.6511
 1667TIP3   OH2 5006   1.623   1.497   3.244  0.2088 -0.1492 -0.3188
 1667TIP3    H1 5007   1.606   1.465   3.155 -0.3975  0.7779 -0.5529
 1667TIP3    H2 5008   1.718   1.507   3.247  0.1053  1.6936 -1.5726
 1668TIP3   OH2 5009   0.712   1.511   2.152 -0.7405  0.4934 -0.3629
 1668TIP3    H1 5010   0.693   1.422   2.182 -1.1974  0.5428 -0.5048
 1668TIP3    H2 5011   0.708   1.564   2.232 -1.1978  0.5037 -0.3932
 1669TIP3   OH2 5012   5.645   2.757   4.761  0.3995 -0.1759  0.3467
 1669TIP3    H1 5013   5.626   2.680   4.815 -0.8055 -0.4146 -0.3703
 1669TIP3    H2 5014   5.714   2.803   4.808 -0.4529 -0.4752  1.9826
 1670TIP3   OH2 5015   2.736   1.182   2.793 -0.0231 -0.4015 -0.4511
 1670TIP3    H1 5016   2.813   1.131   2.818  0.9386  0.9427 -0.5450
 1670TIP3    H2 5017   2.690   1.198   2.875 -1.2148 -2.7347 -0.6161
 1671TIP3   OH2 5018   4.394   4.945   3.647 -0.1584 -0.1335  0.1385
 1671TIP3    H1 5019   4.392   5.012   3.715  0.1216 -0.3697  0.3832
 1671TIP3    H2 5020   4.478   4.901   3.659 -1.0496 -1.6865  1.1232
 1672TIP3   OH2 5021   4.305   1.394   3.278 -0.7899 -0.1141  0.0741
 1672TIP3    H1 5022   4.229   1.345   3.247 -1.1326  0.6945 -0.3597
 1672TIP3    H2 5023   4.276   1.435   3.360 -0.3762 -0.9354  0.6585
 1673TIP3   OH2 5024   3.577   5.526   2.910 -0.2409 -0.2837 -0.2212
 1673TIP3    H1 5025   3.519   5.601   2.912  0.2776  0.1128  0.5761
 1673TIP3    H2 5026   3.574   5.490   2.998  1.3210  0.2374  0.0879
 1674TIP3   OH2 5027   0.895   2.669   4.302 -0.0410  0.3563  0.2358
 1674TIP3    H1 5028   0.874   2.644   4.392 -2.9681  0.9691 -0.1725
 1674TIP3    H2 5029   0.965   2.609   4.276 -1.8390 -2.5845  1.6255
 1675TIP3   OH2 5030   3.739   5.258   5.048 -0.3434 -0.7316 -0.3966
 1675TIP3    H1 5031   3.781   5.306   5.119 -1.4410  0.9828 -0.8429
 1675TIP3    H2 5032   3.780   5.172   5.050  1.6859  0.1843  0.4819
 1676TIP3   OH2 5033   5.085   3.346   0.277  0.3458  0.2391  0.6382
 1676TIP3    H1 5034   5.050   3.435   0.277  1.4417  0.6980  1.1413
 1676TIP3    H2 5035   5.165   3.352   0.331  0.2015 -1.1377  1.0491
 1677TIP3   OH2 5036   4.797   4.136   2.124 -0.7166  0.0644 -0.2401
 1677TIP3    H1 5037   4.819   4.115   2.215  0.0985  1.3103 -0.1214
 1677TIP3    H2 5038   4.882   4.154   2.083 -1.1115 -0.1348 -1.1570
 1678TIP3   OH2 5039   1.517   2.092   1.438  0.1718  0.3754 -0.4449
 1678TIP3    H1 5040   1.607   2.098   1.470  0.1026 -3.9087  1.1622
 1678TIP3    H2 5041   1.524   2.048   1.353 -0.3554 -1.7418  0.5269
 1679TIP3   OH2 5042   0.550   4.004   4.558  0.0401  0.1305  0.3921
 1679TIP3    H1 5043   0.511   4.079   4.513 -1.3540 -0.8474 -0.1205
 1679TIP3    H2 5044   0.644   4.013   4.544 -0.2584  0.5048 -1.7402
 1680TIP3   OH2 5045   0.288   5.664   4.757 -0.2924  0.0144 -0.4306
 1680TIP3    H1 5046   0.318   5.593   4.699 -1.4554  0.6165 -1.8111
 1680TIP3    H2 5047   0.311   5.744   4.711  0.1349  0.5581  0.6800
 1681TIP3   OH2 5048   5.637   2.578   4.529 -0.0099  0.1864  0.0833
 1681TIP3    H1 5049   5.665   2.585   4.438 -0.0688  2.2599  0.1799
 1681TIP3    H2 5050   5.668   2.658   4.570  0.6481 -1.0260  2.1039
 1682TIP3   OH2 5051   0.891   3.715   1.613 -0.5427 -0.4087 -0.2500
 1682TIP3    H1 5052   0.849   3.801   1.609 -0.8809 -0.4708  1.1842
 1682TIP3    H2 5053   0.916   3.706   1.705  1.4894 -0.9223 -0.7960
 1683TIP3   OH2 5054   0.153   4.378   0.846 -0.4288  0.1915  0.1757
 1683TIP3    H1 5055   0.229   4.415   0.800 -0.0885  0.6569  1.0997
 1683TIP3    H2 5056   0.087   4.367   0.777  0.7371 -0.9997 -0.8088
 1684TIP3   OH2 5057   0.511   2.517   4.532 -0.3737 -0.1316 -0.3457
 1684TIP3    H1 5058   0.606   2.533   4.533 -0.5184  0.9092  1.3234
 1684TIP3    H2 5059   0.477   2.581   4.470  0.1485 -1.8404 -2.5333
 1685TIP3   OH2 5060   6.065   2.464   4.298  0.5382 -0.2064 -0.0010
 1685TIP3    H1 5061   6.093   2.457   4.389  0.5193 -0.7379 -0.0322
 1685TIP3    H2 5062   5.969   2.453   4.302  0.6075 -0.9101 -0.1500
 1686TIP3   OH2 5063   5.155   0.964   0.794 -0.3663 -0.0405  0.1531
 1686TIP3    H1 5064   5.198   0.905   0.856  1.0534  0.9022  0.1200
 1686TIP3    H2 5065   5.062   0.956   0.815  0.0836  0.8019  2.9432
 1687TIP3   OH2 5066   0.176   5.019   1.794 -0.3765  0.3582  0.0060
 1687TIP3    H1 5067   0.264   4.983   1.782  0.2753  1.7074  0.4420
 1687TIP3    H2 5068   0.189   5.114   1.791 -2.2538  0.6348 -2.8260
 1688TIP3   OH2 5069   1.468   2.128   3.934  0.3368  0.2006 -0.4009
 1688TIP3    H1 5070   1.431   2.081   4.009  0.4278 -0.2854 -0.6632
 1688TIP3    H2 5071   1.544   2.174   3.971  0.0662  0.4020 -0.0800
 1689TIP3   OH2 5072   5.627   4.593   3.024  0.1637  0.1715  0.2609
 1689TIP3    H1 5073   5.714   4.625   3.050 -0.0196 -0.3342  1.5775
 1689TIP3    H2 5074   5.567   4.640   3.081 -0.2778 -0.8757  0.6652
 1690TIP3   OH2 5075   6.293   5.754   2.343  0.4496  0.8322  0.6518
 1690TIP3    H1 5076   6.325   5.808   2.415 -0.9622  0.8547  1.2975
 1690TIP3    H2 5077   6.306   5.664   2.373 -2.0908  0.8050  1.9406
 1691TIP3   OH2 5078   0.444   0.251   0.228 -0.3327 -0.2821 -0.1728
 1691TIP3    H1 5079   0.443   0.279   0.319 -1.6664 -1.6460  0.2540
 1691TIP3    H2 5080   0.532   0.215   0.216  0.1524  0.6862  0.2941
 1692TIP3   OH2 5081   1.646   4.481   2.700  0.1387  0.0478  0.8359
 1692TIP3    H1 5082   1.624   4.464   2.792 -0.5810  0.3286  0.7252
 1692TIP3    H2 5083   1.740   4.496   2.700 -0.2189  2.8796  1.9782
 1693TIP3   OH2 5084   4.717   3.973   3.568 -0.2045 -0.2586 -0.2640
 1693TIP3    H1 5085   4.672   3.956   3.650 -1.2537  1.9586 -0.3095
 1693TIP3    H2 5086   4.805   4.001   3.594 -0.9112  1.6293  0.2232
 1694TIP3   OH2 5087   0.555   4.223   4.395 -0.0531  0.5816  0.0172
 1694TIP3    H1 5088   0.510   4.303   4.369 -0.5572  0.3584  0.1995
 1694TIP3    H2 5089   0.643   4.252   4.419 -0.1243  1.0294 -0.2526
 1695TIP3   OH2 5090   2.307   2.575   4.716  0.4938  0.2345  0.3513
 1695TIP3    H1 5091   2.255   2.652   4.737 -0.2383  0.1701 -1.1003
 1695TIP3    H2 5092   2.319   2.579   4.622  1.8544 -0.5699  0.4639
 1696TIP3   OH2 5093   1.618   2.919   2.867  1.0092 -0.3265 -0.0249
 1696TIP3    H1 5094   1.659   3.005   2.856  1.0559 -0.4232 -0.6311
 1696TIP3    H2 5095   1.536   2.937   2.912  1.2113 -0.0096  0.2213
 1697TIP3   OH2 5096   5.315   5.193   0.125 -0.0919 -0.1507 -0.3107
 1697TIP3    H1 5097   5.298   5.122   0.063 -3.6464 -0.1615  0.4736
 1697TIP3    H2 5098   5.357   5.261   0.073 -0.0924 -1.3692 -1.9695
 1698TIP3   OH2 5099   1.588   3.900   2.320 -0.2511  0.2047  0.1391
 1698TIP3    H1 5100   1.606   3.810   2.347  0.5990  0.6240  1.0431
 1698TIP3    H2 5101   1.516   3.928   2.377  0.1666  0.4190  0.5697
 1699TIP3   OH2 5102   2.121   2.783   2.773  0.0181 -0.1804 -0.6577
 1699TIP3    H1 5103   2.146   2.730   2.848 -0.5529 -0.4256 -0.6330
 1699TIP3    H2 5104   2.204   2.809   2.733  0.6375  3.5033  2.4192
 1700TIP3   OH2 5105   6.337   5.970   3.868  0.4388 -0.2827 -0.4224
 1700TIP3    H1 5106   6.420   5.975   3.821 -0.0483  2.7824 -1.1464
 1700TIP3    H2 5107   6.286   5.904   3.820  0.1283  2.3791 -4.1468
 1701TIP3   OH2 5108   5.112   0.085   3.900 -0.8964 -0.2683 -0.2426
 1701TIP3    H1 5109   5.203   0.114   3.903 -1.2311  0.8511 -0.4743
 1701TIP3    H2 5110   5.117  -0.011   3.904  0.3121 -0.2399 -0.7710
 1702TIP3   OH2 5111   0.340   2.958   1.434 -0.6616  0.1987  0.0752
 1702TIP3    H1 5112   0.288   3.024   1.388 -1.4414 -0.8025 -0.4987
 1702TIP3    H2 5113   0.309   2.961   1.524 -1.8398 -0.4950 -0.2951
 1703TIP3   OH2 5114   4.250   2.639   1.666 -0.8098 -0.1233  0.5618
 1703TIP3    H1 5115   4.213   2.647   1.578  2.3214 -1.1477 -1.0368
 1703TIP3    H2 5116   4.179   2.605   1.720 -2.7121  0.0244 -1.7072
 1704TIP3   OH2 5117   1.118   4.768   1.387 -0.0032 -0.5411 -0.1877
 1704TIP3    H1 5118   1.028   4.767   1.420  0.3912 -2.2408  0.9718
 1704TIP3    H2 5119   1.110   4.789   1.295 -1.5906 -0.5423 -0.0691
 1705TIP3   OH2 5120   1.944   2.471   2.813 -0.5429 -0.5199 -0.0031
 1705TIP3    H1 5121   1.919   2.387   2.773 -0.4006  0.0173 -1.2718
 1705TIP3    H2 5122   1.928   2.535   2.744  3.1307  0.0485 -0.4930
 1706TIP3   OH2 5123   0.246   3.459   3.548  0.0474  0.3746  0.2657
 1706TIP3    H1 5124   0.172   3.445   3.490 -0.8021 -0.3908  1.4870
 1706TIP3    H2 5125   0.306   3.388   3.529 -0.4153 -0.1113  0.5820
 1707TIP3   OH2 5126   1.398   2.339   1.427 -0.6034 -0.1369  0.1063
 1707TIP3    H1 5127   1.431   2.256   1.460  2.2027 -0.2033 -2.4343
 1707TIP3    H2 5128   1.473   2.379   1.383 -2.3877  2.8045 -0.5414
 1708TIP3   OH2 5129   5.200   2.527   1.634 -0.0139 -0.1988 -0.0709
 1708TIP3    H1 5130   5.185   2.448   1.582  0.9355 -0.3326 -0.1588
 1708TIP3    H2 5131   5.196   2.498   1.725  0.1466 -0.3126 -0.1004
 1709TIP3   OH2 5132   4.514   1.773   4.369  0.0125  0.1190  0.5398
 1709TIP3    H1 5133   4.488   1.733   4.452  1.2080  1.2180  1.4894
 1709TIP3    H2 5134   4.459   1.731   4.304 -2.2485  0.4839  2.1039
 1710TIP3   OH2 5135   4.832   2.671   3.646 -0.4164  0.0260  0.1435
 1710TIP3    H1 5136   4.832   2.578   3.668 -0.6380  0.2883  1.3155
 1710TIP3    H2 5137   4.871   2.714   3.722 -0.6160  0.9236 -0.2438
 1711TIP3   OH2 5138   4.584   1.549   3.661  0.2876  0.7341  0.3381
 1711TIP3    H1 5139   4.639   1.496   3.603 -1.6940 -0.9549 -0.1181
 1711TIP3    H2 5140   4.593   1.638   3.628  0.0239 -0.0265 -1.9858
 1712TIP3   OH2 5141   6.016   0.758   3.098  0.0525  0.3014  0.0750
 1712TIP3    H1 5142   6.047   0.740   3.187 -0.6405  1.4732  0.5750
 1712TIP3    H2 5143   6.022   0.674   3.053 -1.4557 -0.7979  1.8048
 1713TIP3   OH2 5144   0.577   1.771   0.759 -0.5050 -0.7025  0.5311
 1713TIP3    H1 5145   0.642   1.743   0.824 -0.0280  0.8960  0.7723
 1713TIP3    H2 5146   0.624   1.829   0.700 -0.9754 -1.9606 -1.1979
 1714TIP3   OH2 5147   0.005   5.780   4.665  0.4816 -0.4399  0.1189
 1714TIP3    H1 5148  -0.030   5.691   4.678  0.6960 -0.6037 -0.4001
 1714TIP3    H2 5149   0.090   5.779   4.708  0.4814 -0.4876  0.1181
 1715TIP3   OH2 5150   1.468   1.813   3.297  0.3065 -0.5310  0.1018
 1715TIP3    H1 5151   1.455   1.908   3.298 -1.6656 -0.7611  0.0843
 1715TIP3    H2 5152   1.482   1.790   3.388  2.8058 -0.0463 -0.0761
 1716TIP3   OH2 5153   5.728   2.565   1.299 -0.0848  0.2167  0.2633
 1716TIP3    H1 5154   5.635   2.579   1.319  0.1384  0.4811  1.1603
 1716TIP3    H2 5155   5.740   2.471   1.308 -0.1601  0.2415  0.6489
 1717TIP3   OH2 5156   1.178   4.049   3.510 -0.1347 -0.2178 -0.0775
 1717TIP3    H1 5157   1.113   3.995   3.556  0.5422  1.1355  2.7209
 1717TIP3    H2 5158   1.259   3.999   3.515 -0.0048  0.0354  0.5208
 1718TIP3   OH2 5159   5.450   3.552   4.920 -0.7924 -0.1565  0.0502
 1718TIP3    H1 5160   5.450   3.611   4.996  0.7743 -0.3239  0.2107
 1718TIP3    H2 5161   5.484   3.605   4.848  0.5343 -0.8007  0.1706
 1719TIP3   OH2 5162   1.067   0.399   2.746  0.1893  0.3016 -0.1265
 1719TIP3    H1 5163   1.104   0.447   2.821  0.9717 -1.7276  0.8441
 1719TIP3    H2 5164   0.972   0.404   2.760  0.3269 -0.3038  1.2122
 1720TIP3   OH2 5165   3.496   3.280   3.901  0.4961 -0.2994  0.3467
 1720TIP3    H1 5166   3.451   3.203   3.865 -0.4537 -0.0158  0.8901
 1720TIP3    H2 5167   3.542   3.247   3.978  0.7989 -0.4838  0.0922
 1721TIP3   OH2 5168   3.232   3.072   4.384 -0.5171 -0.4318  0.3949
 1721TIP3    H1 5169   3.172   3.036   4.318 -1.1048 -0.5411  0.9762
 1721TIP3    H2 5170   3.314   3.025   4.369 -0.8414 -0.9374  0.1743
 1722TIP3   OH2 5171   0.924   0.050   1.378 -0.6407  0.1398  0.3347
 1722TIP3    H1 5172   0.885   0.136   1.394 -0.5058  0.2627  0.0174
 1722TIP3    H2 5173   1.006   0.069   1.331 -0.0811 -0.0962  1.1972
 1723TIP3   OH2 5174   5.322   4.787   0.939 -0.1122 -0.6106 -0.3914
 1723TIP3    H1 5175   5.228   4.786   0.957 -0.1173 -1.8016 -0.4663
 1723TIP3    H2 5176   5.362   4.738   1.011  0.5365  0.4945  0.0320
 1724TIP3   OH2 5177   2.624   5.848   4.547  0.1495  0.2289  0.5771
 1724TIP3    H1 5178   2.677   5.918   4.584 -1.1766  1.3176  0.5005
 1724TIP3    H2 5179   2.543   5.850   4.598  0.2337 -1.5365  0.8495
 1725TIP3   OH2 5180   0.283   0.219   3.423 -0.4865  0.2305 -0.3018
 1725TIP3    H1 5181   0.341   0.216   3.347 -1.7915 -0.1239 -1.3210
 1725TIP3    H2 5182   0.200   0.251   3.389 -0.5883  1.9061  1.3617
 1726TIP3   OH2 5183   3.484   4.516   1.819 -0.0500 -0.1981  0.1565
 1726TIP3    H1 5184   3.451   4.447   1.876  1.0239  0.4505  1.6230
 1726TIP3    H2 5185   3.497   4.591   1.877 -1.0562  1.2234 -1.3538
 1727TIP3   OH2 5186   5.720   4.924   2.971 -0.2078 -0.3095  0.5485
 1727TIP3    H1 5187   5.633   4.927   3.011 -0.9971 -0.4403 -1.0765
 1727TIP3    H2 5188   5.703   4.917   2.877  1.5528  0.9796  0.0714
 1728TIP3   OH2 5189   5.991   0.492   3.301  0.0652  0.0534 -0.3654
 1728TIP3    H1 5190   5.930   0.484   3.375  2.1169  0.0399  1.4160
 1728TIP3    H2 5191   6.046   0.567   3.323  0.6776  0.1041 -1.9477
 1729TIP3   OH2 5192   5.714   4.255   2.157  0.0124  0.8084  0.1871
 1729TIP3    H1 5193   5.778   4.190   2.127  0.9917  1.5828  0.5583
 1729TIP3    H2 5194   5.745   4.283   2.243 -1.6246  0.1650  1.0370
 1730TIP3   OH2 5195   3.185   2.031   2.516 -0.5104  0.2087  0.1322
 1730TIP3    H1 5196   3.227   2.080   2.446  0.1551  0.0631  0.4200
 1730TIP3    H2 5197   3.100   2.075   2.529  0.1877  1.4761  0.5814
 1731TIP3   OH2 5198   4.185   2.374   0.291 -0.1000  0.0508  0.2639
 1731TIP3    H1 5199   4.269   2.363   0.248 -0.0182 -1.1146  0.6943
 1731TIP3    H2 5200   4.198   2.449   0.350  1.3451 -1.4356  1.9433
 1732TIP3   OH2 5201   3.323   5.836   1.355 -0.0794 -0.3297  0.1602
 1732TIP3    H1 5202   3.408   5.801   1.381 -0.8049 -1.2614  1.4154
 1732TIP3    H2 5203   3.323   5.829   1.259  1.4762  0.2822  0.0867
 1733TIP3   OH2 5204   3.898   0.344   3.768  0.0879  0.1805 -0.3728
 1733TIP3    H1 5205   3.857   0.296   3.840 -2.8585  1.0025 -1.3574
 1733TIP3    H2 5206   3.940   0.419   3.810  0.3800 -0.5410  0.6656
 1734TIP3   OH2 5207   1.408   4.337   1.138 -0.4958  0.2884  0.3791
 1734TIP3    H1 5208   1.467   4.264   1.153 -1.6960 -0.4094  1.9856
 1734TIP3    H2 5209   1.440   4.377   1.058  2.3885  0.2311  1.4062
 1735TIP3   OH2 5210   4.644   1.255   2.587 -0.4189  0.7023 -0.0912
 1735TIP3    H1 5211   4.620   1.253   2.679 -1.9033  1.9847 -0.4159
 1735TIP3    H2 5212   4.562   1.240   2.540  0.1125  1.1515 -1.2118
 1736TIP3   OH2 5213   5.358   3.106   4.946  0.1990  0.1884  0.5338
 1736TIP3    H1 5214   5.332   3.195   4.919 -2.0137 -0.7986 -0.9244
 1736TIP3    H2 5215   5.443   3.118   4.989 -0.0793  3.0159  0.5189
 1737TIP3   OH2 5216   2.870   2.917   4.827  0.2743  0.3162 -0.0063
 1737TIP3    H1 5217   2.784   2.902   4.789  0.5472 -0.7942 -0.2237
 1737TIP3    H2 5218   2.911   2.830   4.829  1.1056  0.7081  0.7733
 1738TIP3   OH2 5219   0.559   0.337   2.653  0.0792 -0.4020  0.1012
 1738TIP3    H1 5220   0.616   0.268   2.688  0.5665 -0.8317 -1.4620
 1738TIP3    H2 5221   0.616   0.414   2.645  0.6511 -0.9713 -1.9439
 1739TIP3   OH2 5222   1.301   5.996   0.991  0.0479 -0.2528  0.4379
 1739TIP3    H1 5223   1.229   5.944   1.024 -2.1803  0.4714 -2.7806
 1739TIP3    H2 5224   1.378   5.963   1.037 -1.8610 -3.1997  1.7973
 1740TIP3   OH2 5225   0.169   4.346   5.063 -0.3719 -0.7771 -0.0153
 1740TIP3    H1 5226   0.106   4.416   5.046 -1.6411 -1.9710 -0.4492
 1740TIP3    H2 5227   0.118   4.266   5.056  0.9249 -1.7419  1.0133
 1741TIP3   OH2 5228   3.117   1.283   0.914 -0.2343 -0.2063 -0.2051
 1741TIP3    H1 5229   3.105   1.241   1.000 -0.2602  0.2409  0.0113
 1741TIP3    H2 5230   3.179   1.226   0.868 -0.9290 -0.9513 -0.2362
 1742TIP3   OH2 5231   4.954   3.524   3.100  0.2167 -0.2711 -0.3925
 1742TIP3    H1 5232   4.887   3.571   3.151  0.0035 -0.2039 -0.7316
 1742TIP3    H2 5233   4.934   3.432   3.115 -0.1324 -0.2521 -0.7211
 1743TIP3   OH2 5234   6.119   0.629   3.872  0.4502  0.5113  1.3222
 1743TIP3    H1 5235   6.038   0.660   3.831  0.4729 -0.3954  0.5473
 1743TIP3    H2 5236   6.116   0.534   3.863  2.4601  0.5202 -0.4672
 1744TIP3   OH2 5237   0.060   3.248   3.168 -0.3292 -0.2809  0.2472
 1744TIP3    H1 5238  -0.035   3.246   3.163 -0.3976  2.0884 -0.6695
 1744TIP3    H2 5239   0.079   3.279   3.257 -0.3416 -1.7746  0.7985
 1745TIP3   OH2 5240   1.941   4.119   2.303 -0.3461 -0.2110  0.1822
 1745TIP3    H1 5241   1.940   4.213   2.284 -0.2638 -0.3464 -0.5265
 1745TIP3    H2 5242   1.876   4.082   2.243 -0.4045 -0.6025  0.4837
 1746TIP3   OH2 5243   0.416   0.756   3.433  0.1016 -0.6655  0.1199
 1746TIP3    H1 5244   0.423   0.820   3.361 -0.7806 -0.0274  0.5768
 1746TIP3    H2 5245   0.477   0.788   3.499 -0.4359 -0.2038  0.4029
 1747TIP3   OH2 5246   2.357   4.068   5.005  0.0542 -0.0497 -0.2839
 1747TIP3    H1 5247   2.263   4.082   5.008 -0.3522 -2.2757 -0.7266
 1747TIP3    H2 5248   2.387   4.120   4.931 -0.8637  0.4618 -0.3060
 1748TIP3   OH2 5249   5.248   0.141   4.555 -0.6246 -0.1239 -0.1606
 1748TIP3    H1 5250   5.341   0.155   4.574 -0.2205  1.3506 -2.7421
 1748TIP3    H2 5251   5.206   0.223   4.580 -0.8504  0.0285 -1.0181
 1749TIP3   OH2 5252   3.756   3.031   3.968 -0.4845 -0.5139 -0.2875
 1749TIP3    H1 5253   3.744   3.046   3.874  1.4128 -1.5732 -0.7552
 1749TIP3    H2 5254   3.750   2.936   3.978  1.2125 -0.5963  0.3131
 1750TIP3   OH2 5255   1.537   4.470   5.097  0.1513 -0.0680  0.4401
 1750TIP3    H1 5256   1.493   4.404   5.043  0.1021 -0.3068  0.7705
 1750TIP3    H2 5257   1.485   4.549   5.085  1.5285  0.6102 -1.8642
 1751TIP3   OH2 5258   1.741   5.383   0.891 -0.8963 -0.5968  0.3870
 1751TIP3    H1 5259   1.798   5.449   0.852  0.1399 -1.0200  1.1387
 1751TIP3    H2 5260   1.797   5.338   0.956 -1.7758 -1.7276  0.3918
 1752TIP3   OH2 5261   5.558   3.531   2.469 -0.0784  0.3337 -0.2583
 1752TIP3    H1 5262   5.588   3.440   2.463  0.5414  0.4777  0.4274
 1752TIP3    H2 5263   5.565   3.565   2.380  0.2860 -0.1090 -0.4026
 1753TIP3   OH2 5264   1.488   1.706   0.511  0.0655  0.0135 -0.2218
 1753TIP3    H1 5265   1.576   1.723   0.544 -0.0756  0.7248 -0.1855
 1753TIP3    H2 5266   1.446   1.792   0.511 -1.1228 -0.5287  1.1831
 1754TIP3   OH2 5267   1.739   2.175   4.070  0.0117 -0.4261 -0.0538
 1754TIP3    H1 5268   1.764   2.267   4.082 -2.2374  0.5783 -2.0982
 1754TIP3    H2 5269   1.717   2.144   4.158 -0.5539  1.4666  0.5320
 1755TIP3   OH2 5270   1.158   2.153   3.082 -0.2427  0.5377 -0.4619
 1755TIP3    H1 5271   1.238   2.125   3.038 -0.5564  0.2035 -0.8284
 1755TIP3    H2 5272   1.095   2.165   3.011 -1.1366 -1.2585 -0.0121
 1756TIP3   OH2 5273   1.003   1.009   2.460  0.2442 -0.1523 -0.1255
 1756TIP3    H1 5274   1.051   1.028   2.380 -0.9126 -2.8563 -1.5907
 1756TIP3    H2 5275   1.053   0.938   2.502  0.0853  0.2897  0.8462
 1757TIP3   OH2 5276   1.742   4.523   1.541  0.1951 -0.1305  0.0205
 1757TIP3    H1 5277   1.761   4.433   1.568 -0.9770 -0.4281 -0.0899
 1757TIP3    H2 5278   1.804   4.542   1.472  1.0886 -0.5120  0.7035
 1758TIP3   OH2 5279   0.102   1.992   5.128 -0.0532  0.9103  0.3799
 1758TIP3    H1 5280   0.121   2.033   5.212 -0.4419  0.8074  0.5213
 1758TIP3    H2 5281   0.022   1.942   5.143  2.2900 -2.9231  1.2524
 1759TIP3   OH2 5282   5.378   0.115   2.698 -0.2545  0.4375 -0.1788
 1759TIP3    H1 5283   5.470   0.097   2.680  0.3737  0.4846  2.6456
 1759TIP3    H2 5284   5.349   0.041   2.751 -0.9424  1.8607  1.5408
 1760TIP3   OH2 5285   2.426   1.168   3.889  0.8598  0.1368  0.0687
 1760TIP3    H1 5286   2.384   1.219   3.819  3.4009  0.3269 -1.4651
 1760TIP3    H2 5287   2.372   1.184   3.966 -1.2470  1.1244 -1.4921
 1761TIP3   OH2 5288   5.050   2.721   3.493  0.5758 -0.0993 -0.4560
 1761TIP3    H1 5289   4.970   2.705   3.543  1.7870 -0.6646  1.4041
 1761TIP3    H2 5290   5.040   2.811   3.461 -0.7824 -0.1508 -0.2355
 1762TIP3   OH2 5291   1.309   0.799   3.432  0.6305 -0.4454 -0.4093
 1762TIP3    H1 5292   1.260   0.786   3.351  1.2948 -1.0836 -0.7212
 1762TIP3    H2 5293   1.279   0.730   3.490 -0.7278  0.7386  0.3372
 1763TIP3   OH2 5294   2.983   0.280   4.548  0.1174 -0.3090 -0.1470
 1763TIP3    H1 5295   2.935   0.291   4.630 -0.8221  0.5585 -0.7977
 1763TIP3    H2 5296   3.021   0.192   4.554 -3.0030 -1.8014 -0.3403
 1764TIP3   OH2 5297   1.253   4.323   0.160 -0.1101  0.0581 -0.1928
 1764TIP3    H1 5298   1.168   4.326   0.117 -0.3043  0.0793  0.1909
 1764TIP3    H2 5299   1.233   4.328   0.253  0.3510  0.7607 -0.1251
 1765TIP3   OH2 5300   5.199   2.557   2.490  0.3205  0.2958  0.2591
 1765TIP3    H1 5301   5.167   2.547   2.400  0.3140 -1.0363  0.3888
 1765TIP3    H2 5302   5.287   2.594   2.479 -0.0064  0.9540 -0.2426
 1766TIP3   OH2 5303   5.708   1.766   3.946  0.8930 -0.1376 -0.6200
 1766TIP3    H1 5304   5.621   1.757   3.906 -0.1061 -0.7531  1.5335
 1766TIP3    H2 5305   5.753   1.685   3.923  0.1091 -0.7612 -0.0242
 1767TIP3   OH2 5306   5.905   5.218   2.126 -0.1982  0.0387  0.2400
 1767TIP3    H1 5307   5.875   5.214   2.035  0.5532 -2.9079  0.0280
 1767TIP3    H2 5308   5.958   5.298   2.130 -0.0949  0.1317 -1.9579
 1768TIP3   OH2 5309   2.834   2.741   0.624 -0.3032 -0.4487  0.4692
 1768TIP3    H1 5310   2.869   2.822   0.659 -0.6519  0.7882 -1.8809
 1768TIP3    H2 5311   2.829   2.755   0.530  0.8353 -3.6764 -0.2040
 1769TIP3   OH2 5312   0.560   1.261   1.830 -0.6834 -0.0616  0.1051
 1769TIP3    H1 5313   0.633   1.207   1.861 -1.9940 -1.2634  1.2715
 1769TIP3    H2 5314   0.561   1.251   1.735  0.7893  0.1263  0.0886
 1770TIP3   OH2 5315   1.865   4.588   1.077  0.2566  0.9475  0.3646
 1770TIP3    H1 5316   1.790   4.566   1.023 -0.6622  2.7180  0.8551
 1770TIP3    H2 5317   1.864   4.523   1.148  0.8817 -0.7561 -1.1029
 1771TIP3   OH2 5318   3.634   4.162   0.512  0.6108  0.1955 -0.1557
 1771TIP3    H1 5319   3.657   4.092   0.573  0.7208  1.5198  1.4062
 1771TIP3    H2 5320   3.539   4.168   0.517  0.7784  2.5057  2.6018
 1772TIP3   OH2 5321   4.291   3.742   2.778  0.2527 -0.2654  0.7779
 1772TIP3    H1 5322   4.376   3.772   2.808 -0.1107  0.7413  0.8314
 1772TIP3    H2 5323   4.283   3.776   2.689 -0.8628  1.2813  1.4272
 1773TIP3   OH2 5324   3.925   3.842   1.042 -0.0387  0.6343 -0.0363
 1773TIP3    H1 5325   3.882   3.759   1.021  1.2512 -0.1597  0.3350
 1773TIP3    H2 5326   4.018   3.822   1.039  0.3353  2.2821 -0.7577
 1774TIP3   OH2 5327   3.269   0.970   2.221  0.2229  0.0607 -0.5711
 1774TIP3    H1 5328   3.302   0.937   2.304  0.8655  0.8322 -0.5078
 1774TIP3    H2 5329   3.236   0.893   2.175 -1.5294 -0.2019  1.0132
 1775TIP3   OH2 5330   1.835   1.194   2.817  0.3287  0.1925  0.0142
 1775TIP3    H1 5331   1.928   1.214   2.808  0.3208  1.0567  1.6409
 1775TIP3    H2 5332   1.833   1.111   2.865  0.2560  0.7810  1.0401
 1776TIP3   OH2 5333   2.258   5.948   3.508 -0.4510  0.4832  0.1637
 1776TIP3    H1 5334   2.175   5.983   3.477  0.3594  2.5226  0.1666
 1776TIP3    H2 5335   2.255   5.959   3.603  0.4379  2.1472  0.0432
 1777TIP3   OH2 5336   5.597   0.541   0.410 -0.2513  0.2273  0.5094
 1777TIP3    H1 5337   5.507   0.513   0.393 -0.9135  0.6586  2.9282
 1777TIP3    H2 5338   5.595   0.636   0.396  0.3621 -0.0021 -1.3503
 1778TIP3   OH2 5339   2.115   4.024   0.055  0.2035 -0.0326 -0.0905
 1778TIP3    H1 5340   2.163   3.942   0.041  1.1144  0.4988 -0.2123
 1778TIP3    H2 5341   2.136   4.049   0.145  2.3513  1.5230 -0.9146
 1779TIP3   OH2 5342   5.924   2.416   2.331  0.0747 -0.2744 -0.2441
 1779TIP3    H1 5343   5.976   2.433   2.410  0.1333 -0.0828 -0.3227
 1779TIP3    H2 5344   5.986   2.374   2.271 -0.2628 -1.5161  0.2290
 1780TIP3   OH2 5345   3.130   5.636   2.261 -0.2223  0.3377  0.7726
 1780TIP3    H1 5346   3.160   5.722   2.230  1.5198 -0.3485  0.4073
 1780TIP3    H2 5347   3.042   5.627   2.227  0.9286  0.3994 -2.5335
 1781TIP3   OH2 5348   4.424   1.943   0.793 -0.4384 -0.3199 -0.8057
 1781TIP3    H1 5349   4.422   1.860   0.840  1.2755  1.4445  2.7778
 1781TIP3    H2 5350   4.332   1.966   0.782 -0.9381 -1.4409  0.6744
 1782TIP3   OH2 5351   3.173   0.492   0.533  0.2617  0.1495  0.3094
 1782TIP3    H1 5352   3.185   0.439   0.612  1.5345  0.2202  0.1874
 1782TIP3    H2 5353   3.160   0.428   0.463 -2.0350  0.1054  0.7113
 1783TIP3   OH2 5354   2.967   1.424   0.737  0.3241 -0.3591 -0.0564
 1783TIP3    H1 5355   3.050   1.455   0.701  0.5763  0.8840  1.4488
 1783TIP3    H2 5356   2.989   1.343   0.782  0.7419 -0.0837  0.2529
 1784TIP3   OH2 5357   4.541   2.355   2.110  0.3028  0.1484  0.3288
 1784TIP3    H1 5358   4.610   2.332   2.172  0.8174 -1.6861 -0.8612
 1784TIP3    H2 5359   4.588   2.384   2.032 -0.3027  0.2890  0.0094
 1785TIP3   OH2 5360   4.375   2.904   3.075 -0.2370 -0.2243  0.7111
 1785TIP3    H1 5361   4.462   2.866   3.060  0.8772  2.1546  0.8174
 1785TIP3    H2 5362   4.366   2.970   3.007 -1.9137 -0.3091  0.8242
 1786TIP3   OH2 5363   2.878   3.746   4.932  0.2375  0.4807 -0.3012
 1786TIP3    H1 5364   2.845   3.659   4.913  0.8365 -0.1107  1.1524
 1786TIP3    H2 5365   2.812   3.785   4.989  0.1801  0.8063 -0.5879
 1787TIP3   OH2 5366   1.279   1.540   3.449 -0.0767 -0.1617  0.0310
 1787TIP3    H1 5367   1.299   1.611   3.388 -0.0842  1.1099  1.4511
 1787TIP3    H2 5368   1.268   1.463   3.394  0.2760  0.8663 -1.5271
 1788TIP3   OH2 5369   0.751   2.454   3.306  0.1633 -0.0867 -0.1319
 1788TIP3    H1 5370   0.726   2.499   3.387 -0.6929 -1.5879  0.4799
 1788TIP3    H2 5371   0.698   2.496   3.238  0.0846  0.4571  0.2543
 1789TIP3   OH2 5372   2.177   3.369   3.190  0.0887  0.3518  0.6000
 1789TIP3    H1 5373   2.152   3.427   3.118  1.3797  0.2580  0.0406
 1789TIP3    H2 5374   2.134   3.286   3.169  0.2402  0.4010  0.0698
 1790TIP3   OH2 5375   4.617   0.377   0.817 -0.2967  0.0589 -0.4012
 1790TIP3    H1 5376   4.545   0.353   0.875 -0.1903  1.0522  0.1508
 1790TIP3    H2 5377   4.582   0.359   0.729 -1.6981  1.6709 -0.2244
 1791TIP3   OH2 5378   3.093   0.957   4.366 -0.5715  0.2592 -0.3523
 1791TIP3    H1 5379   3.060   0.932   4.452 -1.4832  0.5462 -0.6035
 1791TIP3    H2 5380   3.086   1.052   4.363  1.3896  0.4609 -0.0012
 1792TIP3   OH2 5381   3.143   3.336   3.527 -0.0995 -0.8993  0.4470
 1792TIP3    H1 5382   3.143   3.241   3.523  0.2699 -0.8885  0.1353
 1792TIP3    H2 5383   3.225   3.358   3.572  1.5405 -0.6335 -2.4194
 1793TIP3   OH2 5384   4.521   5.021   3.927 -0.1655 -0.3877  0.6607
 1793TIP3    H1 5385   4.522   4.929   3.949 -1.2710 -0.5512  0.0852
 1793TIP3    H2 5386   4.584   5.029   3.855  0.5580 -0.5272  1.2668
 1794TIP3   OH2 5387   5.808   1.543   1.229 -0.2743 -0.3483 -0.3243
 1794TIP3    H1 5388   5.777   1.546   1.139 -1.2281  0.8109  0.0153
 1794TIP3    H2 5389   5.864   1.466   1.233 -0.1413 -0.3599 -1.9267
 1795TIP3   OH2 5390   2.785   0.670   3.613 -0.1979 -0.1191 -0.4383
 1795TIP3    H1 5391   2.802   0.716   3.696  0.5199  1.6356 -1.5039
 1795TIP3    H2 5392   2.742   0.589   3.639  1.6180 -0.4795  1.8022
 1796TIP3   OH2 5393   0.569   1.905   2.756 -1.0157 -0.0113  0.6371
 1796TIP3    H1 5394   0.531   1.908   2.668 -0.9055 -1.9510  0.4848
 1796TIP3    H2 5395   0.494   1.904   2.815 -1.1217  0.0161  0.5012
 1797TIP3   OH2 5396   4.544   1.346   1.367  0.0839  0.4948  0.0359
 1797TIP3    H1 5397   4.618   1.367   1.312  0.3323 -1.7711 -0.6093
 1797TIP3    H2 5398   4.473   1.402   1.336  0.7229  0.5591 -1.3448
 1798TIP3   OH2 5399   5.238   5.063   1.714 -0.6325 -0.1539 -0.4366
 1798TIP3    H1 5400   5.317   5.115   1.697 -0.4498 -0.7343 -1.4423
 1798TIP3    H2 5401   5.167   5.126   1.712 -0.1925  0.4146  0.6923
 1799TIP3   OH2 5402   6.346   2.824   2.804  0.3144  0.8985  0.0599
 1799TIP3    H1 5403   6.263   2.781   2.824  0.8992  0.4516  1.7320
 1799TIP3    H2 5404   6.329   2.875   2.725 -1.2842  0.0935 -0.1448
 1800TIP3   OH2 5405   3.337   3.546   2.253  0.0170  0.0255  0.3564
 1800TIP3    H1 5406   3.311   3.502   2.334 -0.2845 -0.0384  0.2250
 1800TIP3    H2 5407   3.354   3.637   2.279  1.5756 -0.3649  0.8158
 1801TIP3   OH2 5408   3.505   4.426   1.076 -0.0887  0.7115 -0.5953
 1801TIP3    H1 5409   3.519   4.452   1.167 -1.0396 -0.2578 -0.1380
 1801TIP3    H2 5410   3.410   4.437   1.063 -0.1413 -0.2431 -1.0975
 1802TIP3   OH2 5411   4.079   3.721   5.006  0.0755 -0.1343  0.2521
 1802TIP3    H1 5412   4.096   3.631   4.977 -0.6790 -0.3266  0.3952
 1802TIP3    H2 5413   4.137   3.775   4.952 -0.5636 -0.5768 -0.8978
 1803TIP3   OH2 5414   2.258   0.898   1.120  0.2330  0.0679  0.1211
 1803TIP3    H1 5415   2.197   0.826   1.103 -1.4803  2.0126 -2.6838
 1803TIP3    H2 5416   2.324   0.890   1.051 -1.4105  2.5098 -1.9145
 1804TIP3   OH2 5417   2.519   1.963   3.645 -0.4323  0.3161  0.7189
 1804TIP3    H1 5418   2.480   2.015   3.715  0.3343 -0.4325  1.7210
 1804TIP3    H2 5419   2.586   1.910   3.688  1.9903  1.8162 -0.9597
 1805TIP3   OH2 5420   1.976   2.958   2.327  0.5411  0.1576  0.3125
 1805TIP3    H1 5421   1.981   2.985   2.235  1.5286 -1.1441 -0.0478
 1805TIP3    H2 5422   1.903   2.897   2.330  0.9028 -0.2817  0.2528
 1806TIP3   OH2 5423   5.632   4.360   0.173 -0.1056 -0.6488  0.2645
 1806TIP3    H1 5424   5.647   4.269   0.147  0.5260 -0.2490 -0.8377
 1806TIP3    H2 5425   5.680   4.412   0.108 -1.8116  0.5403 -0.1107
 1807TIP3   OH2 5426   1.366   3.311   4.043 -0.3289  0.1297  0.1635
 1807TIP3    H1 5427   1.388   3.313   3.950 -0.8864 -1.4813 -0.0291
 1807TIP3    H2 5428   1.443   3.349   4.086  0.1324  0.4616 -0.9227
 1808TIP3   OH2 5429   2.006   4.824   0.961 -0.1393  0.2019  0.1940
 1808TIP3    H1 5430   1.956   4.752   0.998 -1.7035  1.4111  0.5720
 1808TIP3    H2 5431   2.010   4.805   0.867  0.7523 -1.0856  0.4682
 1809TIP3   OH2 5432   2.507   2.414   0.809  0.4539  0.0928 -0.8917
 1809TIP3    H1 5433   2.516   2.460   0.893 -2.9959 -0.5669  0.0296
 1809TIP3    H2 5434   2.570   2.457   0.751  1.0581  2.4335  1.3050
 1810TIP3   OH2 5435   2.285   1.703   1.065  0.3044  0.5386 -0.1757
 1810TIP3    H1 5436   2.233   1.686   1.144  2.0137 -0.7992  0.7476
 1810TIP3    H2 5437   2.235   1.663   0.994  0.3039 -1.2952  0.7849
 1811TIP3   OH2 5438   3.611   3.084   1.969  0.5430 -0.4392 -0.4950
 1811TIP3    H1 5439   3.656   3.135   2.037 -0.4676 -1.2012  0.7954
 1811TIP3    H2 5440   3.551   3.146   1.928  0.7308 -0.1192 -0.2886
 1812TIP3   OH2 5441   3.301   5.861   1.023  0.2467 -0.1240  0.2729
 1812TIP3    H1 5442   3.236   5.792   1.037  1.3229 -1.1977  0.1245
 1812TIP3    H2 5443   3.270   5.908   0.946 -0.4217 -0.5376  0.2812
 1813TIP3   OH2 5444   1.594   4.928   4.023 -0.3463  0.5549  0.4473
 1813TIP3    H1 5445   1.507   4.964   4.041 -0.4242  0.4236  0.3303
 1813TIP3    H2 5446   1.654   4.993   4.059 -0.4895  0.7296  0.3742
 1814TIP3   OH2 5447   2.987   3.446   5.150 -0.2649  0.4691  0.7622
 1814TIP3    H1 5448   2.998   3.510   5.079 -0.6571 -1.3026 -0.9891
 1814TIP3    H2 5449   2.895   3.456   5.177  0.2132  2.0118  1.9573
 1815TIP3   OH2 5450   3.529   2.153   0.318  0.3647 -0.3765 -0.2409
 1815TIP3    H1 5451   3.508   2.243   0.294 -0.5751 -1.1888 -2.7638
 1815TIP3    H2 5452   3.624   2.147   0.310  0.4733  0.4480  0.2955
 1816TIP3   OH2 5453   0.843   5.216   2.334 -0.1710  0.4123  0.6324
 1816TIP3    H1 5454   0.907   5.234   2.403  0.3003  0.5443  0.1659
 1816TIP3    H2 5455   0.895   5.213   2.254 -0.5577 -0.7538  0.4064
 1817TIP3   OH2 5456   1.483   1.870   2.045 -0.3796 -0.3947 -0.0803
 1817TIP3    H1 5457   1.411   1.931   2.027  0.6559  0.8551 -0.1014
 1817TIP3    H2 5458   1.465   1.837   2.134 -1.3923 -0.7167 -0.3952
 1818TIP3   OH2 5459   0.965   0.962   3.591 -0.2832  0.2128 -0.2967
 1818TIP3    H1 5460   0.885   0.967   3.539  0.9579  0.3610 -2.2656
 1818TIP3    H2 5461   0.984   0.869   3.597 -0.5688  0.1791  0.1494
 1819TIP3   OH2 5462   4.508   4.677   4.979 -0.2860 -0.3276  0.5915
 1819TIP3    H1 5463   4.492   4.640   4.892  0.6555  0.9033 -0.1369
 1819TIP3    H2 5464   4.583   4.736   4.967 -1.2216  1.2029  1.8356
 1820TIP3   OH2 5465   1.038   0.665   3.330  0.3834  0.3727 -0.4473
 1820TIP3    H1 5466   0.969   0.685   3.267 -0.3118  0.2286  0.2608
 1820TIP3    H2 5467   1.000   0.600   3.388  1.1500  0.2210 -0.0987
 1821TIP3   OH2 5468   3.813   3.029   1.362  0.1867 -0.1198  0.0519
 1821TIP3    H1 5469   3.741   2.984   1.319 -0.1863  0.0452  0.4950
 1821TIP3    H2 5470   3.771   3.088   1.424  0.5576  2.2367 -1.8001
 1822TIP3   OH2 5471   1.532   4.878   3.006  0.2359  0.3503 -0.2392
 1822TIP3    H1 5472   1.590   4.952   3.026  2.9877 -1.5472 -0.5744
 1822TIP3    H2 5473   1.549   4.858   2.914 -0.6504 -0.5375 -0.2282
 1823TIP3   OH2 5474   0.869   3.686   3.704  0.4027  0.0567  0.4973
 1823TIP3    H1 5475   0.829   3.612   3.751  1.0654 -0.9254 -0.4292
 1823TIP3    H2 5476   0.958   3.657   3.686 -0.0237  0.1212 -1.9322
 1824TIP3   OH2 5477   5.284   1.271   5.125  0.3395  0.2368 -0.5263
 1824TIP3    H1 5478   5.326   1.343   5.077 -2.1214  1.2633 -1.3172
 1824TIP3    H2 5479   5.264   1.206   5.058 -2.3098  1.2876 -0.8820
 1825TIP3   OH2 5480   1.498   4.153   2.976  0.0061 -0.3622  0.8546
 1825TIP3    H1 5481   1.498   4.107   3.060 -0.0827  0.5940  1.3929
 1825TIP3    H2 5482   1.421   4.120   2.931 -2.1891  1.8625  2.7319
 1826TIP3   OH2 5483   3.401   5.755   2.963 -0.0998  0.0728 -0.3741
 1826TIP3    H1 5484   3.416   5.796   3.049  0.7205 -1.2796  0.1619
 1826TIP3    H2 5485   3.309   5.728   2.965 -0.4350  1.1884 -0.4367
 1827TIP3   OH2 5486   3.649   4.257   0.895 -0.1492 -0.7416  0.3103
 1827TIP3    H1 5487   3.613   4.304   0.971  0.9042  0.9216 -0.1714
 1827TIP3    H2 5488   3.592   4.281   0.822 -0.2959 -1.1758  0.2754
 1828TIP3   OH2 5489   3.173   1.100   1.503  0.5005  0.0890 -0.1286
 1828TIP3    H1 5490   3.174   1.185   1.547  2.1612 -0.2841  0.6462
 1828TIP3    H2 5491   3.163   1.037   1.574 -0.7929 -0.3922 -0.7038
 1829TIP3   OH2 5492   1.607   3.320   0.012  0.1598 -0.0510  0.5864
 1829TIP3    H1 5493   1.595   3.276   0.096 -0.2223 -0.9843  0.0672
 1829TIP3    H2 5494   1.602   3.250  -0.053 -0.6335  0.7784 -0.2903
 1830TIP3   OH2 5495   0.290   3.770   1.073 -0.1508 -0.0574 -0.0328
 1830TIP3    H1 5496   0.228   3.816   1.017  0.3696 -0.4639 -0.9771
 1830TIP3    H2 5497   0.325   3.838   1.131 -0.5077  0.4355 -0.3835
 1831TIP3   OH2 5498   2.999   5.927   1.120  0.2249  0.4286  0.0319
 1831TIP3    H1 5499   2.918   5.921   1.070 -0.1041  0.8734  0.4932
 1831TIP3    H2 5500   3.025   5.836   1.135  0.5160  0.2887 -1.2139
 1832TIP3   OH2 5501   4.278   0.915   3.142 -0.4708  0.4618 -0.0461
 1832TIP3    H1 5502   4.301   1.008   3.152  0.9779  0.2396 -0.9244
 1832TIP3    H2 5503   4.345   0.881   3.083  0.0813 -1.5456  1.6389
 1833TIP3   OH2 5504   3.382   3.263   1.241  0.6611 -0.2753  0.0187
 1833TIP3    H1 5505   3.310   3.239   1.182 -0.0974  1.1092  0.3512
 1833TIP3    H2 5506   3.445   3.307   1.185  0.9308 -0.8394 -0.1338
 1834TIP3   OH2 5507   6.209   5.871   4.427  0.3391  0.2749 -0.6533
 1834TIP3    H1 5508   6.250   5.791   4.393 -1.3125 -1.2366  0.7263
 1834TIP3    H2 5509   6.241   5.878   4.517 -0.1350  0.7473 -0.5180
 1835TIP3   OH2 5510   2.008   2.119   2.825 -0.0979 -0.4793 -0.4808
 1835TIP3    H1 5511   1.931   2.117   2.768  0.7733 -1.7050 -1.7059
 1835TIP3    H2 5512   2.058   2.041   2.800  1.6995  0.4401  0.0311
 1836TIP3   OH2 5513   5.065   4.752   2.535 -0.1157 -0.4955 -0.0349
 1836TIP3    H1 5514   5.108   4.779   2.616 -0.9933 -0.5295  0.4635
 1836TIP3    H2 5515   5.120   4.683   2.500  0.8221  0.2301 -0.0076
 1837TIP3   OH2 5516   3.028   1.245   5.089  0.4786 -0.1146 -0.6371
 1837TIP3    H1 5517   3.117   1.267   5.116 -0.4412  1.7193  1.2516
 1837TIP3    H2 5518   3.035   1.159   5.048  2.5814 -1.9543  3.0342
 1838TIP3   OH2 5519   0.540   2.326   4.046  0.1267  0.1300 -0.3143
 1838TIP3    H1 5520   0.459   2.377   4.037 -0.8085 -1.2602 -0.2464
 1838TIP3    H2 5521   0.550   2.313   4.140  0.3360  0.1662 -0.3322
 1839TIP3   OH2 5522   5.329   0.262   2.962 -0.4634 -0.4992  0.0576
 1839TIP3    H1 5523   5.367   0.241   2.876 -0.5748 -0.0152 -0.1148
 1839TIP3    H2 5524   5.386   0.219   3.025  1.2587  1.4261 -0.0994
 1840TIP3   OH2 5525   4.922   2.651   2.823  0.0759  0.2375 -0.5026
 1840TIP3    H1 5526   4.914   2.592   2.748  1.2182 -2.2980  1.2517
 1840TIP3    H2 5527   4.973   2.725   2.790  3.2565 -2.2247 -1.6006
 1841TIP3   OH2 5528   5.751   4.436   1.246  0.1316  0.3867 -0.1516
 1841TIP3    H1 5529   5.841   4.443   1.276 -0.2173 -1.5501  1.4924
 1841TIP3    H2 5530   5.721   4.527   1.238  1.8726  1.0250  0.3158
 1842TIP3   OH2 5531   5.988   4.201   4.860  0.2344  0.4399  0.1758
 1842TIP3    H1 5532   5.897   4.193   4.890  0.0220 -1.3369 -0.7830
 1842TIP3    H2 5533   6.041   4.191   4.939 -0.3890 -0.1178  0.5324
 1843TIP3   OH2 5534   4.520   2.591   4.025 -0.5419 -0.3632 -0.0830
 1843TIP3    H1 5535   4.434   2.572   3.988 -0.2413 -1.1155 -0.4112
 1843TIP3    H2 5536   4.580   2.531   3.979  0.3059  0.7969 -0.5517
 1844TIP3   OH2 5537   2.353   0.572   1.323 -0.4704  0.2062 -0.3641
 1844TIP3    H1 5538   2.295   0.601   1.253 -0.4471  0.5197 -0.2577
 1844TIP3    H2 5539   2.441   0.576   1.286 -0.4495  0.4616 -0.2897
 1845TIP3   OH2 5540   0.075   3.884   2.997 -0.0585  0.2827 -1.0291
 1845TIP3    H1 5541   0.167   3.909   2.986 -0.3114  1.3043 -0.9532
 1845TIP3    H2 5542   0.064   3.807   2.941  0.7949  0.2740 -1.1994
 1846TIP3   OH2 5543   6.283   5.014   1.704  0.2729 -0.3008 -0.5538
 1846TIP3    H1 5544   6.293   4.952   1.632  3.2482 -0.2682 -0.2962
 1846TIP3    H2 5545   6.361   5.001   1.757 -1.6234 -0.0671  2.5301
 1847TIP3   OH2 5546   0.741   3.240   4.657 -0.2281  0.3372 -0.2361
 1847TIP3    H1 5547   0.713   3.323   4.618 -1.3085 -0.2308 -0.7162
 1847TIP3    H2 5548   0.700   3.239   4.743  0.5324  0.7005  0.1375
 1848TIP3   OH2 5549   3.166   4.845   4.951 -0.1706 -0.2744 -0.0930
 1848TIP3    H1 5550   3.073   4.844   4.928 -0.2451 -0.0604  0.2078
 1848TIP3    H2 5551   3.184   4.755   4.980 -0.2307 -0.3720 -0.3484
 1849TIP3   OH2 5552   1.024   3.167   0.359  0.4846  0.1545 -0.2113
 1849TIP3    H1 5553   0.972   3.233   0.404 -0.1493 -0.2534 -0.3281
 1849TIP3    H2 5554   0.960   3.116   0.310  1.1760  0.7974 -1.8577
 1850TIP3   OH2 5555   5.467   0.228   1.399  0.2541 -0.1311  0.0655
 1850TIP3    H1 5556   5.403   0.169   1.360 -0.2621  0.1099  0.5428
 1850TIP3    H2 5557   5.482   0.193   1.487 -0.1686  0.5360  0.4051
 1851TIP3   OH2 5558   3.416   3.798   2.411 -0.0037 -0.1205  0.2955
 1851TIP3    H1 5559   3.485   3.821   2.349  0.8389 -0.0681  1.2206
 1851TIP3    H2 5560   3.341   3.852   2.386 -0.4192 -1.6118 -1.9629
 1852TIP3   OH2 5561   0.283   3.969   4.678  0.6900  0.0230 -0.1869
 1852TIP3    H1 5562   0.367   3.971   4.631  0.4626 -0.4060 -0.6159
 1852TIP3    H2 5563   0.221   4.008   4.617  0.3229 -0.8669 -0.3848
 1853TIP3   OH2 5564   4.022   2.835   0.067  0.5979  0.5293  0.3555
 1853TIP3    H1 5565   3.974   2.884   0.001  2.5246  1.8321 -0.1601
 1853TIP3    H2 5566   3.988   2.866   0.150 -1.5677 -0.8373  0.0613
 1854TIP3   OH2 5567   0.815   3.573   4.517  0.3311 -0.0435 -0.4750
 1854TIP3    H1 5568   0.832   3.599   4.607  0.7231 -2.6590  0.3155
 1854TIP3    H2 5569   0.795   3.654   4.471 -2.2088  1.1841  2.4427
 1855TIP3   OH2 5570   1.284   2.482   3.640 -0.1201 -0.0217  0.0882
 1855TIP3    H1 5571   1.264   2.395   3.674 -0.2972  0.5171  1.4668
 1855TIP3    H2 5572   1.203   2.512   3.600 -0.9045  0.4841  1.9099
 1856TIP3   OH2 5573   1.279   4.554   3.763  0.3174  0.2735 -0.2926
 1856TIP3    H1 5574   1.205   4.523   3.710  0.1859 -0.0664  0.0821
 1856TIP3    H2 5575   1.356   4.532   3.711  0.3174 -1.9632  0.5391
 1857TIP3   OH2 5576   3.809   0.195   3.243  0.1776  0.0342 -0.3527
 1857TIP3    H1 5577   3.810   0.262   3.311 -1.8309 -0.1278 -0.0929
 1857TIP3    H2 5578   3.840   0.239   3.164  0.0486  0.9340  0.0914
 1858TIP3   OH2 5579   4.129   2.725   2.534  0.1557  0.2010  0.3684
 1858TIP3    H1 5580   4.169   2.810   2.551 -1.0305  1.1809 -1.3772
 1858TIP3    H2 5581   4.060   2.744   2.470  0.0989 -2.1473 -0.3416
 1859TIP3   OH2 5582   6.185   2.815   3.108  0.3060 -0.0692  0.2771
 1859TIP3    H1 5583   6.144   2.831   3.023 -0.4080 -0.1589  0.5969
 1859TIP3    H2 5584   6.214   2.902   3.137 -0.1332  0.0727  0.2878
 1860TIP3   OH2 5585   0.627   5.112   4.515  0.2593 -0.3205  0.3329
 1860TIP3    H1 5586   0.599   5.030   4.475 -0.6127 -0.8491  1.9444
 1860TIP3    H2 5587   0.713   5.093   4.552  0.7395 -0.0394 -0.5967
 1861TIP3   OH2 5588   5.938   1.185   2.089 -0.5546  0.2056 -0.3990
 1861TIP3    H1 5589   5.981   1.261   2.050  0.7379 -0.7517 -0.8954
 1861TIP3    H2 5590   5.985   1.169   2.171 -1.1470  0.2365 -0.0453
 1862TIP3   OH2 5591   4.080   5.408   4.680  0.1683  0.4288 -0.0580
 1862TIP3    H1 5592   4.009   5.397   4.618 -0.2376 -0.9038  0.6238
 1862TIP3    H2 5593   4.040   5.455   4.754 -0.6236 -2.1765  1.2736
 1863TIP3   OH2 5594   3.408   5.785   3.263  0.2735 -0.1516  0.2571
 1863TIP3    H1 5595   3.384   5.692   3.258  2.6275 -0.7930 -0.7168
 1863TIP3    H2 5596   3.390   5.810   3.354 -1.5821 -1.1728  0.2186
 1864TIP3   OH2 5597   4.396   4.662   4.170  0.0693  0.2217 -0.0718
 1864TIP3    H1 5598   4.478   4.613   4.161 -0.7379 -1.7672  2.3642
 1864TIP3    H2 5599   4.412   4.722   4.243  0.0389  1.4652 -1.0549
 1865TIP3   OH2 5600   4.773   0.016   5.191 -0.2185  0.1369 -0.1865
 1865TIP3    H1 5601   4.831   0.076   5.144 -0.4987 -1.5468 -2.9296
 1865TIP3    H2 5602   4.831  -0.054   5.221 -0.5217 -0.8182 -1.6806
 1866TIP3   OH2 5603   3.075   5.072   2.951  0.8698  0.2724 -0.5771
 1866TIP3    H1 5604   3.018   5.003   2.917  1.8429 -0.3937 -0.8724
 1866TIP3    H2 5605   3.114   5.112   2.873  1.4402  0.1852 -0.3347
 1867TIP3   OH2 5606   1.160   4.082   3.112  0.4762  0.0891 -0.1812
 1867TIP3    H1 5607   1.159   4.101   3.019  0.8343  1.2576  0.0371
 1867TIP3    H2 5608   1.068   4.065   3.134  0.3106  0.3614 -0.6422
 1868TIP3   OH2 5609   3.019   3.760   4.216 -0.2126 -0.0113  0.0023
 1868TIP3    H1 5610   2.996   3.814   4.141 -1.8399 -0.5043  0.1116
 1868TIP3    H2 5611   3.102   3.796   4.247 -0.2817  1.1623 -1.0983
 1869TIP3   OH2 5612   0.684   0.823   0.022 -0.0162 -0.3377  0.2551
 1869TIP3    H1 5613   0.631   0.892  -0.017  0.3083 -0.9254 -1.3181
 1869TIP3    H2 5614   0.622   0.769   0.072 -0.9252 -0.9588 -1.4641
 1870TIP3   OH2 5615   0.696   0.412   3.959 -0.0045 -0.1638  0.3316
 1870TIP3    H1 5616   0.617   0.450   3.921  0.4105 -0.0785 -0.4735
 1870TIP3    H2 5617   0.669   0.380   4.045 -0.9801 -0.3836 -0.0463
 1871TIP3   OH2 5618   5.715   4.169   1.302  0.0904  0.1181 -1.0982
 1871TIP3    H1 5619   5.792   4.128   1.341  0.4452  0.4036 -1.4931
 1871TIP3    H2 5620   5.742   4.260   1.286 -1.2726  1.0960  1.5046
 1872TIP3   OH2 5621   2.210   4.007   2.605 -0.0685  0.1421  0.0750
 1872TIP3    H1 5622   2.174   4.072   2.544  0.2331 -1.3229 -1.7481
 1872TIP3    H2 5623   2.292   3.978   2.564  0.3822 -0.5482  1.4193
 1873TIP3   OH2 5624   4.859   3.977   2.669 -0.2419  0.4507  0.6271
 1873TIP3    H1 5625   4.938   3.964   2.616 -1.5562 -0.4573 -1.2403
 1873TIP3    H2 5626   4.886   3.955   2.758  1.4488 -0.4497 -0.0523
 1874TIP3   OH2 5627   3.852   0.637   0.280 -0.1799  0.4511  0.3122
 1874TIP3    H1 5628   3.848   0.600   0.368  1.1040 -0.0791  0.1663
 1874TIP3    H2 5629   3.760   0.648   0.254 -0.6116 -1.7974  0.7315
 1875TIP3   OH2 5630   2.632   1.952   2.129  0.8613  0.6734  0.0606
 1875TIP3    H1 5631   2.654   1.859   2.130 -1.2883  0.1336  0.4896
 1875TIP3    H2 5632   2.700   1.993   2.183  0.4751 -0.9926  1.9143
 1876TIP3   OH2 5633   1.436   1.746   0.860 -0.4794  0.2795 -0.0415
 1876TIP3    H1 5634   1.393   1.824   0.825  0.7432  1.2138  0.4711
 1876TIP3    H2 5635   1.526   1.752   0.828  0.1723  0.1637  1.6926
 1877TIP3   OH2 5636   0.332   2.768   1.758 -0.1801  0.0135 -0.2945
 1877TIP3    H1 5637   0.256   2.711   1.763 -0.8167  0.8085 -0.6654
 1877TIP3    H2 5638   0.299   2.855   1.781  1.0540  0.0363  1.7384
 1878TIP3   OH2 5639   1.498   1.106   2.767  0.4279  0.2038 -0.4937
 1878TIP3    H1 5640   1.590   1.131   2.779  0.4499  0.3049 -0.8616
 1878TIP3    H2 5641   1.491   1.087   2.674  0.6523 -2.1107 -0.1154
 1879TIP3   OH2 5642   0.580   4.246   3.313 -0.3374  0.0439 -0.0210
 1879TIP3    H1 5643   0.558   4.174   3.255 -2.2268 -0.0116  0.6875
 1879TIP3    H2 5644   0.538   4.223   3.396 -1.5562  2.2385  0.0386
 1880TIP3   OH2 5645   0.253   0.873   0.487 -0.1358 -0.0144 -0.2309
 1880TIP3    H1 5646   0.299   0.922   0.555  0.9310  0.2718 -1.1338
 1880TIP3    H2 5647   0.307   0.796   0.472 -0.7204 -0.4183 -0.2786
 1881TIP3   OH2 5648   3.907   2.974   0.285  0.1815 -0.4937 -0.2041
 1881TIP3    H1 5649   3.979   3.035   0.272 -1.6935  1.8044 -0.4212
 1881TIP3    H2 5650   3.927   2.930   0.368  1.5224  0.5056  0.0193
 1882TIP3   OH2 5651   0.159   3.537   4.260  0.2249  0.1649 -0.2202
 1882TIP3    H1 5652   0.242   3.490   4.258 -0.8547 -1.8841  0.0799
 1882TIP3    H2 5653   0.153   3.573   4.348  0.3419 -0.5612  0.0879
 1883TIP3   OH2 5654   2.368   5.589   4.633 -0.3283 -0.1410 -0.7692
 1883TIP3    H1 5655   2.296   5.568   4.574 -0.2500 -3.3200  0.0967
 1883TIP3    H2 5656   2.447   5.570   4.583 -0.2369 -1.3222 -0.2170
 1884TIP3   OH2 5657   1.564   3.789   4.259 -0.1564 -0.0492 -0.0889
 1884TIP3    H1 5658   1.569   3.732   4.336 -0.0519 -1.3752 -1.0279
 1884TIP3    H2 5659   1.631   3.754   4.200 -1.0458  0.1642 -1.2569
 1885TIP3   OH2 5660   1.839   2.116   5.109  0.4421 -0.0542  0.1571
 1885TIP3    H1 5661   1.863   2.208   5.100  2.5202 -0.5485  0.1626
 1885TIP3    H2 5662   1.914   2.075   5.152 -0.8823 -1.5760  1.1547
 1886TIP3   OH2 5663   5.897   5.088   4.551  0.0774 -0.1439  0.3578
 1886TIP3    H1 5664   5.874   5.035   4.475  0.8621 -1.1723  0.8244
 1886TIP3    H2 5665   5.851   5.171   4.536  0.2874 -0.2875 -1.2767
 1887TIP3   OH2 5666   5.511   1.409   1.260  0.2958 -0.1513 -0.1072
 1887TIP3    H1 5667   5.566   1.334   1.234 -0.9469 -2.0458  2.2899
 1887TIP3    H2 5668   5.423   1.373   1.266 -0.7174  2.0500 -0.7107
 1888TIP3   OH2 5669   4.286   4.639   3.265 -0.3400 -0.7875  0.3487
 1888TIP3    H1 5670   4.266   4.661   3.356  1.3357 -0.5809  0.6986
 1888TIP3    H2 5671   4.374   4.601   3.269 -0.0207 -0.2724 -1.2421
 1889TIP3   OH2 5672   2.360   1.271   4.159  0.1101  0.2357  0.2482
 1889TIP3    H1 5673   2.384   1.215   4.232  0.6315 -1.1542 -0.9504
 1889TIP3    H2 5674   2.433   1.333   4.151  0.7778 -0.5794 -0.0426
 1890TIP3   OH2 5675   2.174   3.113   3.078 -0.1849  0.3966 -0.0670
 1890TIP3    H1 5676   2.223   3.100   2.997  0.5121  2.0158  0.0530
 1890TIP3    H2 5677   2.241   3.113   3.147 -0.8506 -1.8048  0.6617
 1891TIP3   OH2 5678   2.531   4.055   2.815  1.2625  0.0529  0.5877
 1891TIP3    H1 5679   2.591   3.989   2.779  0.0835 -0.7416 -0.0098
 1891TIP3    H2 5680   2.522   4.031   2.907  3.0502  1.1281  1.0790
 1892TIP3   OH2 5681   5.720   5.778   2.264  0.2261  1.0138 -0.0685
 1892TIP3    H1 5682   5.709   5.683   2.256  1.2782  0.7320  1.5182
 1892TIP3    H2 5683   5.631   5.810   2.281 -0.3337  0.4817 -1.7724
 1893TIP3   OH2 5684   3.395   5.176   3.067  0.3622 -0.5595 -0.2360
 1893TIP3    H1 5685   3.445   5.187   2.987  0.0113  1.7689 -0.1877
 1893TIP3    H2 5686   3.304   5.167   3.038  0.1834  0.6942 -0.1255
 1894TIP3   OH2 5687   1.273   4.838   0.049 -0.4615  0.9980 -0.1879
 1894TIP3    H1 5688   1.226   4.864  -0.030  0.6035 -1.9095 -1.9152
 1894TIP3    H2 5689   1.247   4.747   0.064  0.9677  0.8256  1.6002
 1895TIP3   OH2 5690   1.051   0.678   4.150 -0.0209  0.5625 -0.1401
 1895TIP3    H1 5691   0.987   0.710   4.086 -0.6640 -1.2851 -0.5019
 1895TIP3    H2 5692   1.028   0.585   4.161  1.0748  0.4612  1.5892
 1896TIP3   OH2 5693   3.340   4.807   3.088 -0.1421 -0.0308 -0.1284
 1896TIP3    H1 5694   3.413   4.791   3.028 -0.4221 -1.9339 -0.0411
 1896TIP3    H2 5695   3.263   4.805   3.033 -0.2243  0.7993 -0.0519
 1897TIP3   OH2 5696   0.150   4.116   1.597 -0.4683  0.3881 -0.0280
 1897TIP3    H1 5697   0.174   4.208   1.588 -1.6790  0.5734 -1.9279
 1897TIP3    H2 5698   0.117   4.091   1.511 -0.8279 -1.6412  0.6355
 1898TIP3   OH2 5699   1.356   0.376   2.476 -0.0642  0.2021  0.2545
 1898TIP3    H1 5700   1.325   0.286   2.482  1.9804 -0.6085 -0.6520
 1898TIP3    H2 5701   1.291   0.427   2.525 -2.1308 -1.5142 -0.5573
 1899TIP3   OH2 5702   1.580   3.765   2.824 -0.6814  0.1554 -0.2285
 1899TIP3    H1 5703   1.600   3.836   2.886  0.1754  1.1289 -1.5694
 1899TIP3    H2 5704   1.652   3.703   2.835 -0.2356  0.5934 -0.6137
 1900TIP3   OH2 5705   0.202   2.041   3.517  0.2560 -0.0248  0.0049
 1900TIP3    H1 5706   0.295   2.062   3.515  0.1727  0.3776  0.1596
 1900TIP3    H2 5707   0.191   1.972   3.453  0.5443  0.4170 -0.5269
 1901TIP3   OH2 5708   5.116   4.648   2.793 -0.4548 -0.4027  0.5356
 1901TIP3    H1 5709   5.044   4.645   2.857  1.3303 -0.4351  2.6706
 1901TIP3    H2 5710   5.169   4.571   2.815  0.5110 -0.0898 -0.6467
 1902TIP3   OH2 5711   4.455   4.182   1.359  0.4398  0.3224  0.4111
 1902TIP3    H1 5712   4.418   4.221   1.279  0.3074  0.1538  0.3884
 1902TIP3    H2 5713   4.473   4.091   1.334 -0.0853  0.1298  0.7266
 1903TIP3   OH2 5714   1.069   3.770   2.712 -0.1302 -0.5463 -0.0698
 1903TIP3    H1 5715   1.086   3.764   2.806  0.7856  0.1953 -0.1781
 1903TIP3    H2 5716   1.007   3.699   2.695  0.6811 -1.5106  0.8651
 1904TIP3   OH2 5717   0.049   2.882   0.313  0.1243 -0.2884  0.6593
 1904TIP3    H1 5718  -0.003   2.835   0.379  1.1327 -1.9855  0.3220
 1904TIP3    H2 5719  -0.016   2.924   0.257 -0.9696 -2.4094  0.1985
 1905TIP3   OH2 5720   4.905   3.582   2.144  0.3155  0.3262 -0.3141
 1905TIP3    H1 5721   4.824   3.534   2.162  0.0637 -0.1492 -2.4075
 1905TIP3    H2 5722   4.940   3.603   2.230 -0.7707 -1.5910  0.6657
 1906TIP3   OH2 5723   6.177   3.959   0.477  0.2726 -0.1978 -0.2116
 1906TIP3    H1 5724   6.115   3.967   0.550  1.6335  2.0499  0.7799
 1906TIP3    H2 5725   6.191   4.049   0.448  2.1345 -0.7786 -1.2148
 1907TIP3   OH2 5726   3.640   5.272   4.332 -0.1183 -0.1538 -0.0819
 1907TIP3    H1 5727   3.585   5.333   4.283 -0.0928  0.5428  0.7268
 1907TIP3    H2 5728   3.587   5.193   4.341  0.0836 -0.5068 -1.6835
 1908TIP3   OH2 5729   2.775   5.688   2.398  0.8536 -0.3052  0.0613
 1908TIP3    H1 5730   2.844   5.702   2.463  1.8459 -2.2285 -0.5095
 1908TIP3    H2 5731   2.771   5.771   2.350  2.3785  0.0574  0.4784
 1909TIP3   OH2 5732   3.726   3.445   3.974  0.1786  0.6660 -0.1119
 1909TIP3    H1 5733   3.735   3.526   3.924 -0.5497 -0.0046 -1.3910
 1909TIP3    H2 5734   3.652   3.399   3.932 -1.0145  0.4343  2.1227
 1910TIP3   OH2 5735   4.381   4.773   2.939  0.0658 -0.6292  0.0790
 1910TIP3    H1 5736   4.429   4.692   2.957 -0.8119 -0.6458  2.6154
 1910TIP3    H2 5737   4.443   4.843   2.961  0.0551 -0.6293  0.1097
 1911TIP3   OH2 5738   3.210   0.331   2.831  0.5125  0.1579  0.5556
 1911TIP3    H1 5739   3.203   0.275   2.908  0.9026  0.2774  0.6821
 1911TIP3    H2 5740   3.240   0.273   2.761 -1.1138 -0.2325  0.1547
 1912TIP3   OH2 5741   3.129   4.702   2.897 -0.6566 -0.2302  0.1010
 1912TIP3    H1 5742   3.136   4.610   2.871 -1.0303 -0.4004  0.5687
 1912TIP3    H2 5743   3.171   4.751   2.827  0.7992 -0.8470  0.5111
 1913TIP3   OH2 5744   3.240   1.547   0.927 -0.3071 -0.1696 -0.3232
 1913TIP3    H1 5745   3.164   1.501   0.893  0.2982 -1.1867 -0.3576
 1913TIP3    H2 5746   3.309   1.480   0.930 -0.0478  0.1167  1.9019
 1914TIP3   OH2 5747   0.910   2.675   1.217  0.3043  0.0042 -0.1986
 1914TIP3    H1 5748   0.932   2.603   1.276  2.8140  0.7032 -0.1594
 1914TIP3    H2 5749   0.915   2.753   1.272  1.8757  0.5800 -1.0779
 1915TIP3   OH2 5750   5.066   1.554   1.342 -0.6021 -0.4577 -0.0516
 1915TIP3    H1 5751   5.064   1.507   1.258 -0.5946 -0.8826  0.1838
 1915TIP3    H2 5752   5.147   1.604   1.340 -1.4277  0.9443 -1.0536
 1916TIP3   OH2 5753   4.691   4.049   0.673  0.2447  0.1508  0.4505
 1916TIP3    H1 5754   4.673   3.965   0.630  0.8576  0.6046 -0.7626
 1916TIP3    H2 5755   4.725   4.026   0.759  2.8994 -0.9960 -0.7808
 1917TIP3   OH2 5756   6.116   0.593   2.425  0.5176  0.2161  0.2168
 1917TIP3    H1 5757   6.181   0.664   2.417 -0.6182  1.3032  0.3881
 1917TIP3    H2 5758   6.066   0.598   2.343 -0.0065  0.0483  0.5288
 1918TIP3   OH2 5759   4.127   5.123   5.164 -0.6528 -0.9208 -0.0269
 1918TIP3    H1 5760   4.106   5.136   5.072  0.8017  0.6983 -0.1855
 1918TIP3    H2 5761   4.219   5.095   5.164 -0.4964 -0.4732  0.9298
 1919TIP3   OH2 5762   5.144   3.423   1.238 -0.0064  0.1636 -0.2480
 1919TIP3    H1 5763   5.142   3.503   1.289  0.9990  0.9126 -1.3258
 1919TIP3    H2 5764   5.119   3.354   1.300 -1.1289  1.3177  0.6301
 1920TIP3   OH2 5765   1.054   3.132   0.048  0.3229 -0.3043  0.4830
 1920TIP3    H1 5766   1.073   3.210   0.100  0.5063 -0.6777  0.9909
 1920TIP3    H2 5767   1.066   3.160  -0.043  0.3981  0.2529  0.6612
 1921TIP3   OH2 5768   1.527   4.081   3.661 -0.1236 -0.0307  0.1577
 1921TIP3    H1 5769   1.471   4.085   3.738 -1.1987  0.9275 -0.6341
 1921TIP3    H2 5770   1.483   4.022   3.601  0.1290  0.0967 -0.1591
 1922TIP3   OH2 5771   4.960   3.383   4.788 -0.1575 -0.3458  1.1887
 1922TIP3    H1 5772   4.964   3.289   4.770 -1.5443 -0.0599 -1.0283
 1922TIP3    H2 5773   5.041   3.402   4.835  1.9020 -2.0451 -1.4040
 1923TIP3   OH2 5774   4.910   2.804   2.490  0.2329  0.9031 -0.9917
 1923TIP3    H1 5775   4.949   2.875   2.541  1.0138  0.2413 -0.6527
 1923TIP3    H2 5776   4.983   2.747   2.468 -0.3825  0.2118 -1.2835
 1924TIP3   OH2 5777   0.512   2.872   0.816 -0.5814  0.3110 -0.1148
 1924TIP3    H1 5778   0.508   2.899   0.907 -1.1398 -1.1107  0.3182
 1924TIP3    H2 5779   0.469   2.942   0.767  0.2547  1.3675  0.6225
 1925TIP3   OH2 5780   1.851   4.242   0.614 -0.4434 -0.9493 -0.1102
 1925TIP3    H1 5781   1.822   4.267   0.526  0.7617 -0.0052 -0.2719
 1925TIP3    H2 5782   1.810   4.307   0.671  0.0998 -0.5261 -0.1817
 1926TIP3   OH2 5783   5.050   3.302   4.150 -0.0115  0.0759  0.3097
 1926TIP3    H1 5784   5.024   3.219   4.189  0.0808  0.5370  1.3960
 1926TIP3    H2 5785   5.001   3.368   4.200 -1.4532  0.5953 -1.6603
 1927TIP3   OH2 5786   4.101   2.324   2.945  0.4713  0.0511 -0.2743
 1927TIP3    H1 5787   4.055   2.331   3.029  0.1956 -1.4745 -0.2593
 1927TIP3    H2 5788   4.032   2.304   2.881  0.7691  0.4961 -0.7366
 1928TIP3   OH2 5789   5.621   1.447   5.139 -0.7387 -0.0038  0.0125
 1928TIP3    H1 5790   5.579   1.401   5.212 -0.7215 -1.5186 -0.8841
 1928TIP3    H2 5791   5.553   1.453   5.072 -0.1912 -0.4486 -0.5974
 1929TIP3   OH2 5792   5.374   5.575   1.625 -0.3384 -0.3444 -0.0298
 1929TIP3    H1 5793   5.329   5.518   1.563  0.2074  0.4016 -1.1305
 1929TIP3    H2 5794   5.376   5.524   1.707  0.5111 -2.0799 -1.0842
 1930TIP3   OH2 5795   3.302   3.284   1.671 -0.1116 -0.2539 -0.0539
 1930TIP3    H1 5796   3.268   3.208   1.624 -0.9476  0.3986 -0.5174
 1930TIP3    H2 5797   3.229   3.344   1.676  0.9360  1.1755 -1.0412
 1931TIP3   OH2 5798   5.045   5.235   2.861  0.3510 -0.3727 -0.0382
 1931TIP3    H1 5799   5.114   5.279   2.811 -0.1823  0.3683 -0.1477
 1931TIP3    H2 5800   5.026   5.296   2.933  0.8284 -1.2382  0.8530
 1932TIP3   OH2 5801   4.311   5.303   3.652  0.0625 -0.3154  0.2757
 1932TIP3    H1 5802   4.283   5.282   3.741  2.1884  0.3959  1.1646
 1932TIP3    H2 5803   4.390   5.251   3.639  0.3920  0.4228 -0.7858
 1933TIP3   OH2 5804   5.907   4.319   1.859  0.0065  0.2467 -0.3853
 1933TIP3    H1 5805   5.996   4.352   1.850  0.6503 -1.1496  0.5368
 1933TIP3    H2 5806   5.911   4.257   1.932 -1.3175 -1.1683 -1.4432
 1934TIP3   OH2 5807   3.552   4.876   4.001  0.1999 -0.0066  0.2223
 1934TIP3    H1 5808   3.603   4.910   3.927  0.4643  2.7302  1.5326
 1934TIP3    H2 5809   3.591   4.791   4.021 -0.2160 -1.0999 -3.0350
 1935TIP3   OH2 5810   4.830   0.147   4.656  0.1719  0.0749  0.5976
 1935TIP3    H1 5811   4.762   0.114   4.714  0.8747 -2.5278  0.0720
 1935TIP3    H2 5812   4.808   0.239   4.643 -3.3810 -0.6792  0.2379
 1936TIP3   OH2 5813   4.549   1.423   5.108 -0.2369 -0.2567 -0.4449
 1936TIP3    H1 5814   4.477   1.470   5.150 -0.1228  1.2664 -1.8548
 1936TIP3    H2 5815   4.612   1.409   5.178 -0.3944  1.4914  0.0985
 1937TIP3   OH2 5816   4.688   3.906   4.190  0.0869 -0.2677  0.3260
 1937TIP3    H1 5817   4.777   3.879   4.171  0.4822  0.2601  1.3601
 1937TIP3    H2 5818   4.673   3.982   4.134  0.0049 -0.8166 -0.4111
 1938TIP3   OH2 5819   4.384   5.843   3.801  0.7067  1.0044 -0.3821
 1938TIP3    H1 5820   4.369   5.825   3.708 -2.0690 -1.0886  0.3344
 1938TIP3    H2 5821   4.445   5.774   3.829 -0.8701 -0.3433 -0.0892
 1939TIP3   OH2 5822   3.033   0.967   5.008 -0.4483  0.4877 -0.1962
 1939TIP3    H1 5823   3.094   0.894   5.018 -0.0760  0.6663 -1.0948
 1939TIP3    H2 5824   2.947   0.927   5.007 -0.4564  0.2952  1.9436
 1940TIP3   OH2 5825   0.040   4.955   2.017 -0.5502 -0.0931 -0.2071
 1940TIP3    H1 5826   0.102   4.931   1.949  0.4203 -2.2074  1.3192
 1940TIP3    H2 5827   0.095   4.976   2.093 -1.6659 -0.0116  0.5976
 1941TIP3   OH2 5828   6.052   1.026   3.637  0.4476 -0.3325  0.2111
 1941TIP3    H1 5829   6.056   0.931   3.648 -0.2535 -0.5461 -1.1341
 1941TIP3    H2 5830   5.958   1.046   3.632  0.6014  0.2865 -0.4757
 1942TIP3   OH2 5831   5.617   5.637   4.257  0.0010  0.1114  0.1588
 1942TIP3    H1 5832   5.654   5.723   4.238 -0.2118 -0.0661 -1.1255
 1942TIP3    H2 5833   5.663   5.608   4.336  0.0342  1.4150  0.6392
 1943TIP3   OH2 5834   4.169   3.095   0.276 -0.2812  0.3355  0.3988
 1943TIP3    H1 5835   4.220   3.054   0.206  1.2334 -0.4790  1.9181
 1943TIP3    H2 5836   4.232   3.148   0.324 -1.4085  1.2913  0.8827
 1944TIP3   OH2 5837   5.305   5.099   4.402  0.8701  0.0900  0.3185
 1944TIP3    H1 5838   5.305   5.144   4.486  2.3075  1.3142 -0.3055
 1944TIP3    H2 5839   5.396   5.075   4.387  0.3810 -1.7182 -0.0972
 1945TIP3   OH2 5840   3.529   0.283   2.215  0.2832 -0.6108  0.1450
 1945TIP3    H1 5841   3.509   0.309   2.125 -0.6909  1.2359  0.8374
 1945TIP3    H2 5842   3.622   0.258   2.212  0.9223  1.5861 -0.9764
 1946TIP3   OH2 5843   2.277   4.682   3.917  0.3164  0.0260 -0.4008
 1946TIP3    H1 5844   2.312   4.732   3.843  1.7825  0.9179  0.8231
 1946TIP3    H2 5845   2.353   4.638   3.954 -0.0964  0.7366  1.3987
 1947TIP3   OH2 5846   0.293   1.637   4.684  0.1567  0.2002 -0.2345
 1947TIP3    H1 5847   0.238   1.629   4.762  0.6708  2.2035  0.3934
 1947TIP3    H2 5848   0.235   1.614   4.611 -0.2992 -1.8308  0.7039
 1948TIP3   OH2 5849   5.948   1.319   1.212 -0.2427  0.1189 -0.9360
 1948TIP3    H1 5850   5.969   1.271   1.293  0.0504  0.9419 -0.5112
 1948TIP3    H2 5851   6.034   1.334   1.171 -0.2291  1.1592 -0.5493
 1949TIP3   OH2 5852   6.173   3.900   2.607 -0.2850 -0.6748  0.3476
 1949TIP3    H1 5853   6.170   3.852   2.525 -1.3083 -0.4035  0.2178
 1949TIP3    H2 5854   6.112   3.973   2.595 -1.0761 -1.1008  1.6342
 1950TIP3   OH2 5855   4.330   2.970   1.914  0.3231  0.2288 -0.0283
 1950TIP3    H1 5856   4.302   2.879   1.917  0.4959  0.1624 -0.3886
 1950TIP3    H2 5857   4.325   2.999   2.005 -0.0062 -0.0542  0.0476
 1951TIP3   OH2 5858   2.762   3.197   3.290 -0.2001  0.0976 -0.0539
 1951TIP3    H1 5859   2.707   3.274   3.275 -0.6512 -0.1673  0.2214
 1951TIP3    H2 5860   2.851   3.227   3.271 -0.1158  1.2214  1.9491
 1952TIP3   OH2 5861   0.989   2.899   3.593 -0.3248 -0.0864 -0.0053
 1952TIP3    H1 5862   0.956   2.988   3.585  0.5088  0.2179 -0.2248
 1952TIP3    H2 5863   0.932   2.857   3.658  0.5805  1.2539  1.7428
 1953TIP3   OH2 5864   2.569   2.039   2.423 -0.7685  0.4054  0.2519
 1953TIP3    H1 5865   2.654   1.997   2.410 -1.4990 -2.3811  3.2077
 1953TIP3    H2 5866   2.525   2.032   2.338  0.6658 -1.3053 -0.4012
 1954TIP3   OH2 5867   5.292   4.577   1.693 -0.2401 -0.2911 -0.0712
 1954TIP3    H1 5868   5.211   4.549   1.652 -0.2216  0.6321 -0.7526
 1954TIP3    H2 5869   5.304   4.667   1.665  0.4813 -0.0763  0.8684
 1955TIP3   OH2 5870   3.635   3.956   0.725  0.2613 -0.2908 -0.2913
 1955TIP3    H1 5871   3.623   3.946   0.819  0.7096  1.8339  0.0472
 1955TIP3    H2 5872   3.547   3.972   0.691  0.0044 -1.7339 -0.3671
 1956TIP3   OH2 5873   2.703   0.057   3.108 -0.2136  0.1181  0.5999
 1956TIP3    H1 5874   2.764  -0.011   3.079 -0.8008  0.0931 -0.6319
 1956TIP3    H2 5875   2.674   0.028   3.195  0.2309 -0.7288  0.4749
 1957TIP3   OH2 5876   3.663   4.626   2.072 -0.0154 -0.1507 -0.3777
 1957TIP3    H1 5877   3.616   4.650   2.152  3.8900  0.5582  2.0008
 1957TIP3    H2 5878   3.678   4.710   2.027  0.2852 -0.1379 -0.2616
 1958TIP3   OH2 5879   0.184   3.659   4.504  0.5395  0.2942  0.3623
 1958TIP3    H1 5880   0.104   3.713   4.503  0.5136  0.2570  0.3920
 1958TIP3    H2 5881   0.187   3.624   4.593 -0.0400 -0.6344  0.0408
 1959TIP3   OH2 5882   3.292   3.171   3.278 -0.0511  0.7801  0.1650
 1959TIP3    H1 5883   3.366   3.229   3.259  1.4807 -0.0583  2.9824
 1959TIP3    H2 5884   3.333   3.088   3.303 -2.1189 -0.9554 -1.7895
 1960TIP3   OH2 5885   1.981   2.986   0.290 -0.0064  0.0580  0.1305
 1960TIP3    H1 5886   1.974   3.065   0.344  0.6819  0.1958  0.0328
 1960TIP3    H2 5887   2.005   2.917   0.353  0.2156  0.0992  0.0922
 1961TIP3   OH2 5888   1.960   4.341   4.253  0.3819  0.3647  0.2635
 1961TIP3    H1 5889   1.884   4.300   4.294  0.8014 -0.8094 -0.0890
 1961TIP3    H2 5890   1.924   4.416   4.204 -0.6425 -0.5373 -0.4028
 1962TIP3   OH2 5891   0.594   1.486   1.534 -0.3291 -0.6408  0.0245
 1962TIP3    H1 5892   0.575   1.485   1.628  1.2724 -1.4545  0.3788
 1962TIP3    H2 5893   0.682   1.524   1.528  0.1150 -1.7863 -1.0248
 1963TIP3   OH2 5894   3.776   3.205   3.727  0.3597  0.1285  0.2848
 1963TIP3    H1 5895   3.776   3.300   3.740 -0.0936 -0.1289  2.7323
 1963TIP3    H2 5896   3.731   3.192   3.644  1.1889  2.0714 -0.5359
 1964TIP3   OH2 5897   4.549   4.052   4.909 -0.2625 -0.2597 -0.1069
 1964TIP3    H1 5898   4.554   4.078   4.817 -2.4742 -0.2035 -0.2638
 1964TIP3    H2 5899   4.553   4.134   4.958 -1.6960 -0.0484 -0.3133
 1965TIP3   OH2 5900   0.853   5.966   2.290 -0.4202  0.0425 -0.5200
 1965TIP3    H1 5901   0.929   5.924   2.331  0.8551  2.0254 -0.6922
 1965TIP3    H2 5902   0.794   5.894   2.269  1.8426 -1.7188 -1.2399
 1966TIP3   OH2 5903   3.741   2.821   4.273  0.1865 -0.3079  0.1645
 1966TIP3    H1 5904   3.822   2.872   4.266  3.0547 -4.1850  1.6042
 1966TIP3    H2 5905   3.728   2.785   4.185 -0.6382  1.0724 -0.3135
 1967TIP3   OH2 5906   0.947   5.016   1.131 -0.6412 -0.2652 -0.4770
 1967TIP3    H1 5907   0.880   4.949   1.137 -0.4935 -0.3959 -0.2872
 1967TIP3    H2 5908   1.030   4.969   1.141 -0.5663  0.0336  0.4581
 1968TIP3   OH2 5909   2.920   2.875   0.356 -0.3641 -0.1205  0.7306
 1968TIP3    H1 5910   2.907   2.963   0.393  0.1910 -0.1809  1.0849
 1968TIP3    H2 5911   3.000   2.882   0.303 -2.2764  0.5217 -2.2984
 1969TIP3   OH2 5912   3.888   0.536   1.937  0.1470  0.5337  0.2360
 1969TIP3    H1 5913   3.833   0.525   1.859 -0.8901  0.5848  0.9302
 1969TIP3    H2 5914   3.978   0.531   1.905 -0.2415 -1.2402 -0.7148
 1970TIP3   OH2 5915   0.431   5.884   4.383 -0.0448 -0.1128  0.0184
 1970TIP3    H1 5916   0.520   5.894   4.348 -0.2429 -2.4991 -1.3815
 1970TIP3    H2 5917   0.374   5.909   4.310 -0.4942 -0.6845  0.1672
 1971TIP3   OH2 5918   3.257   3.870   4.299 -0.1158 -0.2671 -0.2729
 1971TIP3    H1 5919   3.306   3.853   4.380  0.4066 -0.1563 -0.5610
 1971TIP3    H2 5920   3.325   3.892   4.234 -0.3759 -1.8264 -1.1348
 1972TIP3   OH2 5921   4.269   5.833   0.314  0.0760 -0.3453 -0.2690
 1972TIP3    H1 5922   4.336   5.804   0.376 -0.3169 -0.9043 -0.0971
 1972TIP3    H2 5923   4.297   5.921   0.288 -0.1719  0.2204  1.2962
 1973TIP3   OH2 5924   5.079   4.396   1.833  0.0281  0.3408  0.3409
 1973TIP3    H1 5925   5.171   4.374   1.848  0.6464  2.3409 -0.2066
 1973TIP3    H2 5926   5.061   4.468   1.894 -1.2614 -0.1814  0.6101
 1974TIP3   OH2 5927   2.018   3.689   3.970  0.8255  0.4761 -0.2131
 1974TIP3    H1 5928   2.084   3.643   3.918  0.3864  0.5226 -0.8214
 1974TIP3    H2 5929   2.065   3.762   4.009  0.9439  1.0425 -1.3807
 1975TIP3   OH2 5930   1.471   3.383   1.323  0.4129 -0.1200 -0.0440
 1975TIP3    H1 5931   1.450   3.319   1.391  1.3302 -2.5956 -1.9181
 1975TIP3    H2 5932   1.407   3.367   1.254  1.8849 -0.4371 -1.3872
 1976TIP3   OH2 5933   0.958   1.973   1.761 -0.3254  0.1470 -0.2241
 1976TIP3    H1 5934   0.909   2.054   1.751 -0.9534 -0.4287 -2.4337
 1976TIP3    H2 5935   0.995   1.977   1.849 -2.5211  1.6088  0.6940
 1977TIP3   OH2 5936   3.169   2.985   0.887 -0.1327 -0.1449 -0.2755
 1977TIP3    H1 5937   3.191   3.011   0.798  0.6749  0.5777  0.1099
 1977TIP3    H2 5938   3.216   2.903   0.901  1.4176  0.7646  0.1298
 1978TIP3   OH2 5939   6.178   1.445   0.113  0.5081  0.3328 -0.8483
 1978TIP3    H1 5940   6.170   1.371   0.053 -0.8293 -0.4434  0.2330
 1978TIP3    H2 5941   6.271   1.448   0.135  0.7670 -0.2920 -1.7954
 1979TIP3   OH2 5942   0.645   0.217   1.195 -0.1414 -0.1860  0.0536
 1979TIP3    H1 5943   0.650   0.249   1.105  3.3197 -1.8119 -0.5151
 1979TIP3    H2 5944   0.638   0.122   1.186  1.7688 -0.5173  1.3738
 1980TIP3   OH2 5945   0.553   2.745   3.079  0.2915  0.2091  0.4378
 1980TIP3    H1 5946   0.495   2.711   3.147 -0.3873  0.7957  0.1633
 1980TIP3    H2 5947   0.557   2.839   3.096 -1.0550  0.6136 -1.1553
 1981TIP3   OH2 5948   1.128   1.954   4.654 -0.3470  0.1263  0.5185
 1981TIP3    H1 5949   1.180   1.933   4.731  3.0714  0.4766 -1.5051
 1981TIP3    H2 5950   1.111   2.048   4.662  0.3453  0.2440  0.6728
 1982TIP3   OH2 5951   0.537   5.319   0.434 -0.0395 -0.6387  0.3051
 1982TIP3    H1 5952   0.486   5.364   0.502  1.2051  1.0701  0.2065
 1982TIP3    H2 5953   0.628   5.332   0.461  0.4535 -0.6335 -1.2613
 1983TIP3   OH2 5954   0.461   0.283   2.091  0.2457  0.7165 -0.2377
 1983TIP3    H1 5955   0.376   0.256   2.056  0.7359 -1.0595 -0.1794
 1983TIP3    H2 5956   0.455   0.264   2.185  0.9806 -0.2084 -0.3719
 1984TIP3   OH2 5957   0.399   1.482   3.530  0.8516 -0.1763 -0.0442
 1984TIP3    H1 5958   0.313   1.524   3.527  0.3353 -1.2284 -2.6507
 1984TIP3    H2 5959   0.382   1.395   3.567  0.4699 -0.9464 -1.9475
 1985TIP3   OH2 5960   4.713   3.469   1.824  0.0393 -0.4774  0.5227
 1985TIP3    H1 5961   4.706   3.432   1.736  0.6911  0.1935  0.1761
 1985TIP3    H2 5962   4.721   3.392   1.881  1.0842 -0.9001 -0.1537
 1986TIP3   OH2 5963   5.084   1.384   1.585  0.0877  0.1040 -1.3766
 1986TIP3    H1 5964   5.081   1.434   1.503  0.1417  1.3403 -0.6424
 1986TIP3    H2 5965   5.058   1.446   1.653 -1.8834 -1.4049 -0.6495
 1987TIP3   OH2 5966   1.550   4.641   4.271 -0.2414  0.6631 -0.0239
 1987TIP3    H1 5967   1.552   4.586   4.193  0.3471  0.3609  0.1951
 1987TIP3    H2 5968   1.477   4.701   4.256 -0.1390  0.6064 -0.7979
 1988TIP3   OH2 5969   3.904   2.450   0.622  0.0732  0.5603 -0.3051
 1988TIP3    H1 5970   3.893   2.372   0.676  0.7560  0.6759  0.0178
 1988TIP3    H2 5971   3.997   2.472   0.631  0.4068  0.0738 -2.2151
 1989TIP3   OH2 5972   4.466   3.320   2.862 -0.4738 -0.1396 -0.7327
 1989TIP3    H1 5973   4.489   3.410   2.837  1.1809 -0.0339  0.9686
 1989TIP3    H2 5974   4.378   3.328   2.899  0.5234  1.2786  1.5740
 1990TIP3   OH2 5975   0.412   5.957   0.616  0.1721 -0.0374 -0.1455
 1990TIP3    H1 5976   0.457   5.885   0.571  1.3774  1.7193 -1.9498
 1990TIP3    H2 5977   0.327   5.962   0.573  0.0592 -0.4137  0.0277
 1991TIP3   OH2 5978   4.391   4.790   0.715 -0.1872  0.0710 -0.1425
 1991TIP3    H1 5979   4.478   4.826   0.733  0.3720 -0.3345 -1.8453
 1991TIP3    H2 5980   4.355   4.848   0.647 -0.2545 -1.1264 -1.1647
 1992TIP3   OH2 5981   2.520   3.387   0.504 -0.0325  0.2772  0.0661
 1992TIP3    H1 5982   2.574   3.326   0.454  1.7323  0.8641  1.1866
 1992TIP3    H2 5983   2.512   3.347   0.591 -0.4200  0.7735  0.2645
 1993TIP3   OH2 5984   4.082   4.719   4.201  0.6865  0.0911 -0.7994
 1993TIP3    H1 5985   4.094   4.811   4.225  0.5101 -0.1125  0.1056
 1993TIP3    H2 5986   4.081   4.672   4.285 -1.2044 -0.5067 -1.1029
 1994TIP3   OH2 5987   2.174   2.024   0.633 -0.3473  0.4577 -0.1424
 1994TIP3    H1 5988   2.196   2.003   0.542  1.6223 -2.0093  0.7901
 1994TIP3    H2 5989   2.243   2.083   0.661  0.0272 -0.1285  0.2004
 1995TIP3   OH2 5990   5.503   1.016   3.902  0.1468  0.2554  0.2116
 1995TIP3    H1 5991   5.544   1.092   3.941  0.9511  0.4998 -1.0394
 1995TIP3    H2 5992   5.434   1.052   3.845 -1.2424 -0.1046  1.5911
 1996TIP3   OH2 5993   1.047   1.112   4.324  0.0555  0.1717  0.0587
 1996TIP3    H1 5994   0.983   1.150   4.265  1.0983  1.5486 -0.2306
 1996TIP3    H2 5995   0.999   1.044   4.371 -1.6146  1.1732 -0.1334
 1997TIP3   OH2 5996   0.994   5.707   0.600 -0.4467 -0.3742 -0.2263
 1997TIP3    H1 5997   1.006   5.668   0.513 -2.6435 -2.2248  0.2198
 1997TIP3    H2 5998   1.045   5.652   0.659 -0.6893 -0.4246 -0.0621
 1998TIP3   OH2 5999   2.081   2.890   3.280 -0.2742  0.1165 -0.3284
 1998TIP3    H1 6000   2.084   2.962   3.216  0.7479  0.1773 -0.2196
 1998TIP3    H2 6001   2.113   2.929   3.361  1.8350 -0.8196 -0.6474
 1999TIP3   OH2 6002   5.290   4.894   4.748 -0.0158  0.5870 -0.2731
 1999TIP3    H1 6003   5.379   4.926   4.734 -0.8507  3.7292  0.8623
 1999TIP3    H2 6004   5.267   4.849   4.667  2.5384 -0.2594 -0.6036
 2000TIP3   OH2 6005   2.679   4.799   4.164 -0.0094  0.3633  0.0508
 2000TIP3    H1 6006   2.692   4.712   4.126 -5.3466 -0.0133 -1.8997
 2000TIP3    H2 6007   2.716   4.793   4.252  1.8438 -3.0880 -0.7987
 2001TIP3   OH2 6008   5.025   0.678   3.386  0.1960 -0.5849 -0.8005
 2001TIP3    H1 6009   5.105   0.638   3.352  1.1079 -0.9547  1.5726
 2001TIP3    H2 6010   5.047   0.770   3.399  0.7858 -0.9456  1.1546
 2002TIP3   OH2 6011   6.307   1.110   4.977  0.1200  0.0624 -0.0042
 2002TIP3    H1 6012   6.328   1.062   5.057 -1.0478  0.5002  0.5931
 2002TIP3    H2 6013   6.362   1.188   4.979  0.8068 -0.4078 -0.1408
 2003TIP3   OH2 6014   3.314   4.515   3.168 -0.0571  0.2963 -0.2961
 2003TIP3    H1 6015   3.393   4.511   3.222 -0.2904 -0.3401  0.0160
 2003TIP3    H2 6016   3.296   4.608   3.158 -0.8550  0.4394  2.0004
 2004TIP3   OH2 6017   1.190   3.324   4.740 -0.0814  0.6007 -0.2939
 2004TIP3    H1 6018   1.261   3.306   4.802 -0.9706 -0.4237  0.4696
 2004TIP3    H2 6019   1.120   3.265   4.767 -0.8638  0.8780 -1.6585
 2005TIP3   OH2 6020   3.164   1.010   3.449  0.1578  0.6880  0.1586
 2005TIP3    H1 6021   3.197   0.929   3.487 -1.1199  1.0584  2.2344
 2005TIP3    H2 6022   3.069   0.999   3.448 -0.1878  2.7851  2.1992
 2006TIP3   OH2 6023   2.938   3.947   1.085  0.0197 -0.8115  0.0466
 2006TIP3    H1 6024   2.981   3.864   1.106  0.1372 -1.1086 -1.2784
 2006TIP3    H2 6025   2.928   3.945   0.990  0.0352  0.7012 -0.0076
 2007TIP3   OH2 6026   0.989   1.782   2.553 -0.4070  0.2473 -0.2269
 2007TIP3    H1 6027   1.056   1.849   2.541  1.9156 -2.0103 -0.6349
 2007TIP3    H2 6028   0.955   1.797   2.642 -0.6048  2.4402 -0.6238
 2008TIP3   OH2 6029   3.427   1.235   0.575 -0.5398  0.0589  0.0399
 2008TIP3    H1 6030   3.450   1.198   0.660 -0.2476 -2.1394 -0.9158
 2008TIP3    H2 6031   3.487   1.309   0.564  2.8855 -2.5120 -0.2237
 2009TIP3   OH2 6032   4.385   5.115   4.153  0.0104  0.2106 -0.3694
 2009TIP3    H1 6033   4.415   5.205   4.163  0.6499 -0.0172 -0.1563
 2009TIP3    H2 6034   4.409   5.091   4.064 -1.0938  0.5801 -0.7819
 2010TIP3   OH2 6035   2.450   1.902   1.226 -1.0731  0.6361  0.0697
 2010TIP3    H1 6036   2.470   1.810   1.246  1.3412  0.8554 -0.9148
 2010TIP3    H2 6037   2.382   1.898   1.159 -1.0923 -0.4301  0.1281
 2011TIP3   OH2 6038   2.666   1.298   0.625 -0.0025  0.1765 -0.0116
 2011TIP3    H1 6039   2.757   1.311   0.653  0.3362  0.3919 -1.1602
 2011TIP3    H2 6040   2.626   1.384   0.631  0.0454  0.2042 -0.0847
 2012TIP3   OH2 6041   0.981   1.085   3.845 -0.4209  0.5204  0.2719
 2012TIP3    H1 6042   1.059   1.140   3.835  0.8741 -1.0786  1.0609
 2012TIP3    H2 6043   0.970   1.044   3.759  1.6332 -1.7243  0.9851
 2013TIP3   OH2 6044   5.258   4.346   3.330  0.0277  0.2973  0.0967
 2013TIP3    H1 6045   5.343   4.311   3.357 -0.4588 -2.2232 -1.3413
 2013TIP3    H2 6046   5.275   4.439   3.314  1.8526  0.4425  2.3755
 2014TIP3   OH2 6047   2.875   4.352   4.861  0.0005 -0.1014  0.5460
 2014TIP3    H1 6048   2.861   4.443   4.834  0.6898 -0.6425 -1.8507
 2014TIP3    H2 6049   2.933   4.359   4.937  1.6547  1.4411 -0.7686
 2015TIP3   OH2 6050   4.466   0.841   0.402  0.0552 -0.1286  0.3747
 2015TIP3    H1 6051   4.395   0.854   0.338  0.0215  0.3452  0.5106
 2015TIP3    H2 6052   4.424   0.851   0.487  0.2758  0.1001  0.4572
 2016TIP3   OH2 6053   0.672   0.599   0.887 -0.6911 -0.2637  0.4115
 2016TIP3    H1 6054   0.638   0.561   0.968 -2.5110  0.5324  0.0600
 2016TIP3    H2 6055   0.733   0.666   0.917 -1.7969  0.4414  1.1796
 2017TIP3   OH2 6056   3.798   2.830   4.590 -0.3238  0.3068 -0.2245
 2017TIP3    H1 6057   3.776   2.737   4.602 -2.1341  0.7036 -0.1175
 2017TIP3    H2 6058   3.841   2.834   4.505 -0.8608 -0.5586 -0.5504
 2018TIP3   OH2 6059   0.760   5.823   0.597 -0.1250 -0.4280  0.0267
 2018TIP3    H1 6060   0.841   5.773   0.587 -0.1749 -0.5209  0.0832
 2018TIP3    H2 6061   0.763   5.857   0.687 -0.0060 -0.1774 -0.0714
 2019TIP3   OH2 6062   2.589   0.399   4.906  0.3354  0.0263 -0.0076
 2019TIP3    H1 6063   2.523   0.456   4.866  1.3318 -0.8331 -3.1912
 2019TIP3    H2 6064   2.549   0.312   4.906  1.3894 -0.5116 -2.0287
 2020TIP3   OH2 6065   2.557   0.436   2.821  0.2614  1.0761  0.0658
 2020TIP3    H1 6066   2.622   0.378   2.861  0.6704  0.7679 -1.0133
 2020TIP3    H2 6067   2.473   0.396   2.843  0.5550 -0.3936 -1.2968
 2021TIP3   OH2 6068   0.442   1.861   4.492 -0.4366 -0.1407  0.1124
 2021TIP3    H1 6069   0.410   1.818   4.571 -0.8324 -0.0522  0.0019
 2021TIP3    H2 6070   0.530   1.826   4.480  0.4214  1.3302  1.6937
 2022TIP3   OH2 6071   3.504   2.381   0.139  0.2753  0.4703  0.1514
 2022TIP3    H1 6072   3.412   2.357   0.150  0.2824  0.5914  0.4884
 2022TIP3    H2 6073   3.502   2.473   0.113  0.3000  0.4883  0.2110
 2023TIP3   OH2 6074   5.864   5.763   1.129  1.0317 -0.4601  0.5500
 2023TIP3    H1 6075   5.917   5.688   1.157  0.3773  0.0463  3.5342
 2023TIP3    H2 6076   5.922   5.838   1.136  0.5020 -0.1526  1.9973
 2024TIP3   OH2 6077   3.971   1.959   1.566  0.1014 -0.0501  0.3391
 2024TIP3    H1 6078   3.880   1.931   1.579  0.5656 -1.2419  1.2259
 2024TIP3    H2 6079   3.992   1.929   1.478 -0.4564  0.4875  0.0204
 2025TIP3   OH2 6080   0.478   2.595   0.735  0.0700 -0.0825  0.2318
 2025TIP3    H1 6081   0.385   2.602   0.757  0.4505  0.0856  1.8926
 2025TIP3    H2 6082   0.516   2.676   0.769  0.9381 -0.4654  0.1809
 2026TIP3   OH2 6083   5.755   1.301   2.480 -0.1058 -0.5858 -0.1045
 2026TIP3    H1 6084   5.780   1.386   2.444 -0.0020  0.1517  1.5812
 2026TIP3    H2 6085   5.663   1.291   2.456  0.0021 -0.2076 -0.6888
 2027TIP3   OH2 6086   2.395   5.765   1.479 -0.6167  0.4547  0.1103
 2027TIP3    H1 6087   2.445   5.847   1.473 -0.3844  0.2422 -1.1053
 2027TIP3    H2 6088   2.375   5.756   1.573 -0.4488  1.7763  0.3002
 2028TIP3   OH2 6089   5.160   2.842   2.217  0.4363  0.2003 -0.3959
 2028TIP3    H1 6090   5.165   2.870   2.309 -1.2427  0.6754 -0.4068
 2028TIP3    H2 6091   5.216   2.764   2.213 -0.8300 -0.9022  1.4802
 2029TIP3   OH2 6092   2.152   2.072   2.024  0.2883 -0.4375 -0.2465
 2029TIP3    H1 6093   2.245   2.063   2.043  0.5966 -1.5974 -2.0554
 2029TIP3    H2 6094   2.127   2.154   2.066  1.8982 -0.5538  1.0346
 2030TIP3   OH2 6095   0.812   4.883   2.993  0.8543  0.3473  0.6800
 2030TIP3    H1 6096   0.857   4.803   3.020 -0.0231 -0.5462 -0.3730
 2030TIP3    H2 6097   0.826   4.888   2.898 -2.6405 -1.0057 -0.0889
 2031TIP3   OH2 6098   5.570   0.309  -0.019  0.1514 -0.6062  0.2694
 2031TIP3    H1 6099   5.497   0.295   0.042 -0.2131 -0.7865 -0.1992
 2031TIP3    H2 6100   5.604   0.396   0.005 -2.8514  1.4403 -2.0973
 2032TIP3   OH2 6101   4.692   2.711   5.173  0.2914  0.2784 -0.7060
 2032TIP3    H1 6102   4.734   2.766   5.239 -0.9722 -0.1003  0.4663
 2032TIP3    H2 6103   4.622   2.766   5.138 -0.2391 -0.1699 -0.3621
 2033TIP3   OH2 6104   4.210   5.734   0.641 -0.0919 -0.4274 -0.6168
 2033TIP3    H1 6105   4.284   5.715   0.584 -0.2664 -2.9181 -0.1284
 2033TIP3    H2 6106   4.223   5.824   0.669  1.7377 -0.2166 -1.9949
 2034TIP3   OH2 6107   0.871   1.830   0.334 -0.2426 -0.4390  0.3403
 2034TIP3    H1 6108   0.845   1.898   0.272  0.3775 -1.5563 -1.2299
 2034TIP3    H2 6109   0.801   1.765   0.329 -0.5090 -0.2509  1.3386
 2035TIP3   OH2 6110   0.860   4.785   2.720 -0.0566  0.1564  0.1780
 2035TIP3    H1 6111   0.856   4.878   2.698 -0.1027  0.2351  0.5225
 2035TIP3    H2 6112   0.934   4.777   2.779 -0.1590  0.0019  0.2857
 2036TIP3   OH2 6113   5.028   4.544   1.583  0.0327 -0.2505  0.0831
 2036TIP3    H1 6114   4.949   4.517   1.537  0.8085 -0.0300 -1.4360
 2036TIP3    H2 6115   5.046   4.472   1.644 -0.0394 -1.4359 -1.2303
 2037TIP3   OH2 6116   1.129   4.790   0.409 -0.0605  0.3157 -0.2035
 2037TIP3    H1 6117   1.200   4.728   0.420  0.5725  0.6664 -1.9351
 2037TIP3    H2 6118   1.095   4.805   0.497  1.2592 -0.7275  0.5033
 2038TIP3   OH2 6119   4.729   2.771   2.292 -0.4715 -0.8176 -0.2234
 2038TIP3    H1 6120   4.780   2.807   2.365 -0.7388  0.1614 -0.4987
 2038TIP3    H2 6121   4.759   2.680   2.284 -2.3155 -1.8060  2.7749
 2039TIP3   OH2 6122  -0.029   2.967   2.270 -0.1503 -0.1151 -0.3606
 2039TIP3    H1 6123   0.047   3.022   2.252 -0.0192  0.0307  0.5638
 2039TIP3    H2 6124   0.008   2.881   2.288 -0.3121 -0.3717 -1.2232
 2040TIP3   OH2 6125   1.118   4.624   4.418  0.4819  0.3225  0.2704
 2040TIP3    H1 6126   1.080   4.551   4.466  3.0930 -0.8610  0.7215
 2040TIP3    H2 6127   1.170   4.671   4.483  0.5727  1.3196 -0.4880
 2041TIP3   OH2 6128   3.197   2.289   3.462  0.8719 -0.0455  0.0427
 2041TIP3    H1 6129   3.232   2.211   3.419  1.4686  1.1405 -1.7161
 2041TIP3    H2 6130   3.255   2.301   3.538  1.0364 -1.0556  0.0947
 2042TIP3   OH2 6131   4.422   3.547   4.998 -0.2393 -0.0834  0.0502
 2042TIP3    H1 6132   4.481   3.616   5.029 -0.9600  1.1392 -1.2521
 2042TIP3    H2 6133   4.452   3.527   4.909 -0.7111 -0.7073  0.0209
 2043TIP3   OH2 6134   1.434   5.060   3.330  0.1495  0.5201 -0.1159
 2043TIP3    H1 6135   1.348   5.077   3.293 -0.6040 -0.4904  1.0849
 2043TIP3    H2 6136   1.488   5.133   3.301 -0.8766  0.7188 -1.6143
 2044TIP3   OH2 6137   1.199   2.295   2.485 -0.5285 -0.3248  0.0409
 2044TIP3    H1 6138   1.151   2.227   2.438 -2.4143  1.1146 -0.2284
 2044TIP3    H2 6139   1.287   2.259   2.497 -1.2944 -2.5453 -0.6007
 2045TIP3   OH2 6140   1.866   2.779   3.988  0.5909  0.2651 -0.1667
 2045TIP3    H1 6141   1.887   2.849   3.927  2.4735 -0.3943 -0.3506
 2045TIP3    H2 6142   1.929   2.790   4.059  1.3067 -1.5580 -0.4763
 2046TIP3   OH2 6143   3.968   4.006   1.776  0.4462 -0.4002  0.0673
 2046TIP3    H1 6144   3.885   4.020   1.821  0.9810 -1.2544  1.3617
 2046TIP3    H2 6145   3.998   4.094   1.752 -1.0013 -0.1017 -0.7806
 2047TIP3   OH2 6146   2.645   3.720   0.886  0.2853  0.1322  0.0481
 2047TIP3    H1 6147   2.641   3.752   0.796 -0.3358  0.5413  0.2161
 2047TIP3    H2 6148   2.636   3.798   0.940 -0.3766 -0.2309  0.4658
 2048TIP3   OH2 6149   6.275   4.027   2.218  0.5049 -0.5656  0.2742
 2048TIP3    H1 6150   6.229   4.111   2.216  0.3801 -0.6346 -1.1879
 2048TIP3    H2 6151   6.209   3.964   2.248  0.2236 -0.3432  0.1286
 2049TIP3   OH2 6152   5.387   0.581   3.839 -0.3092 -1.0320  0.1649
 2049TIP3    H1 6153   5.296   0.550   3.835 -0.3466 -1.0656  1.1061
 2049TIP3    H2 6154   5.403   0.597   3.931  0.4180 -0.3238 -0.0710
 2050TIP3   OH2 6155   5.399   0.660   1.202  0.1256  0.2748 -0.8253
 2050TIP3    H1 6156   5.440   0.709   1.273  0.1505 -0.8695 -0.0230
 2050TIP3    H2 6157   5.471   0.642   1.141  0.5403 -0.4471 -0.1489
 2051TIP3   OH2 6158   0.366   5.388   2.524  0.4475 -0.2214  0.2999
 2051TIP3    H1 6159   0.326   5.305   2.500  0.4915 -1.2494  3.3357
 2051TIP3    H2 6160   0.445   5.393   2.471 -0.6447 -1.0092 -1.5070
 2052TIP3   OH2 6161   1.660   3.806   1.684  0.4175  0.0573 -0.6831
 2052TIP3    H1 6162   1.721   3.738   1.713  0.8136  1.3940  1.9536
 2052TIP3    H2 6163   1.610   3.766   1.614  3.1122 -1.6947 -1.7332
 2053TIP3   OH2 6164   6.158   3.915   0.180 -0.1346 -0.0997 -0.4470
 2053TIP3    H1 6165   6.142   3.908   0.275  0.4439 -2.2847 -0.4593
 2053TIP3    H2 6166   6.092   3.977   0.149 -0.8244  0.0834  1.2722
 2054TIP3   OH2 6167   0.712   4.149   3.697  0.1147  0.3758 -0.0097
 2054TIP3    H1 6168   0.721   4.062   3.658  0.7843  0.1634  0.5965
 2054TIP3    H2 6169   0.656   4.135   3.773  2.2706 -0.0405  1.5923
 2055TIP3   OH2 6170   4.601   3.687   1.975  0.7413 -0.1639 -0.4769
 2055TIP3    H1 6171   4.655   3.666   1.899  0.8289  1.6787 -0.9516
 2055TIP3    H2 6172   4.559   3.770   1.954 -0.6272 -0.5030  0.7685
 2056TIP3   OH2 6173   2.041   4.375   3.143 -0.2354  0.1190 -0.6136
 2056TIP3    H1 6174   1.969   4.427   3.178  0.5882  1.0455 -0.2560
 2056TIP3    H2 6175   2.050   4.404   3.052 -0.9660 -0.7380 -0.9756
 2057TIP3   OH2 6176   4.239   1.518   2.937 -0.7425  0.3448  0.0223
 2057TIP3    H1 6177   4.238   1.613   2.950  1.5890  0.2828  1.1003
 2057TIP3    H2 6178   4.281   1.506   2.852  1.2030  0.2678  0.9460
 2058TIP3   OH2 6179   2.906   2.978   0.961 -0.1230 -0.1967  0.3076
 2058TIP3    H1 6180   2.889   2.886   0.977  0.7756 -0.1851  1.4015
 2058TIP3    H2 6181   3.000   2.984   0.946  0.2592  0.8296  2.6661
 2059TIP3   OH2 6182   5.432   1.290   2.691 -0.6403  0.5490  0.5196
 2059TIP3    H1 6183   5.399   1.379   2.697 -1.8148  0.1067  1.0113
 2059TIP3    H2 6184   5.507   1.288   2.750 -0.5384  1.2379  0.4192
 2060TIP3   OH2 6185   1.300   4.311   3.945  0.2448  0.2666  0.0547
 2060TIP3    H1 6186   1.274   4.403   3.941 -0.9348 -0.0590 -0.1115
 2060TIP3    H2 6187   1.304   4.283   3.854 -0.3421 -0.0948  0.1352
 2061TIP3   OH2 6188   4.929   5.667   2.161  0.3101  0.4228  0.1999
 2061TIP3    H1 6189   5.005   5.612   2.141 -0.5544  0.1323 -2.7373
 2061TIP3    H2 6190   4.883   5.676   2.077 -2.5519  1.1291  1.7188
 2062TIP3   OH2 6191   4.640   0.702   1.592  0.2747 -0.1337 -0.0998
 2062TIP3    H1 6192   4.677   0.736   1.510 -1.4370 -0.9705 -1.2839
 2062TIP3    H2 6193   4.671   0.612   1.596 -0.9823 -0.6203 -0.7390
 2063TIP3   OH2 6194   0.877   3.171   3.558  0.0098  0.1661 -0.1117
 2063TIP3    H1 6195   0.812   3.202   3.621 -1.3694 -1.2316 -0.7966
 2063TIP3    H2 6196   0.961   3.188   3.601 -0.8650 -0.1914  1.8456
 2064TIP3   OH2 6197   4.363   3.373   2.536  0.6824 -0.0867  0.0326
 2064TIP3    H1 6198   4.350   3.364   2.631  1.7103 -1.3341  0.0885
 2064TIP3    H2 6199   4.394   3.463   2.525 -1.0387  0.6259  0.6633
 2065TIP3   OH2 6200   4.839   5.914   3.842 -0.1234  0.3042  0.5762
 2065TIP3    H1 6201   4.929   5.940   3.862  0.5354 -0.7768 -0.7913
 2065TIP3    H2 6202   4.820   5.957   3.759 -0.6592  0.0476  0.5663
 2066TIP3   OH2 6203   3.482   5.295   2.267  0.5580 -0.1422  0.4929
 2066TIP3    H1 6204   3.560   5.327   2.312  0.8708  1.6398 -1.1818
 2066TIP3    H2 6205   3.412   5.353   2.296  0.3144 -0.3894  0.3986
 2067TIP3   OH2 6206   5.230   0.090   0.218  0.1035  0.6792  0.4382
 2067TIP3    H1 6207   5.262   0.159   0.159  1.5684 -1.2640 -1.1984
 2067TIP3    H2 6208   5.299   0.023   0.215 -0.7354 -0.3922  2.8479
 2068TIP3   OH2 6209   2.111   0.802   4.730  0.1232  0.7010 -0.0913
 2068TIP3    H1 6210   2.054   0.768   4.799 -0.8425  0.4177 -0.9908
 2068TIP3    H2 6211   2.065   0.880   4.698  1.0157  1.3529  0.1980
 2069TIP3   OH2 6212   4.608   1.396   1.633  1.0304  0.7012  0.8180
 2069TIP3    H1 6213   4.655   1.327   1.679  0.8445 -0.7616 -1.0708
 2069TIP3    H2 6214   4.586   1.358   1.549  0.6606  2.9955 -0.1960
 2070TIP3   OH2 6215   2.077   5.235   5.158  0.4874  0.1141 -0.4731
 2070TIP3    H1 6216   2.019   5.279   5.096 -2.0329 -0.6366  1.2425
 2070TIP3    H2 6217   2.146   5.300   5.176 -0.5490  1.5712 -1.5138
 2071TIP3   OH2 6218   3.894   0.371   3.486  0.4630  0.9312 -0.5184
 2071TIP3    H1 6219   3.830   0.442   3.492  1.2466  1.5696  0.8297
 2071TIP3    H2 6220   3.907   0.343   3.577 -0.4994 -1.5867 -1.0778
 2072TIP3   OH2 6221   1.740   4.081   2.524  0.0841  0.2684 -0.3653
 2072TIP3    H1 6222   1.810   4.144   2.512  1.3348 -0.6779  1.4795
 2072TIP3    H2 6223   1.718   4.051   2.436  0.4159  2.2097 -1.1510
 2073TIP3   OH2 6224   5.167   0.495   1.907 -0.5974 -0.4918  0.1969
 2073TIP3    H1 6225   5.223   0.570   1.929 -0.1951 -0.3844 -1.1005
 2073TIP3    H2 6226   5.118   0.478   1.987 -2.7505  2.8975 -0.1840
 2074TIP3   OH2 6227   3.529   5.236   2.807 -0.5245 -0.0605 -0.2646
 2074TIP3    H1 6228   3.567   5.324   2.808  0.0502 -0.2876 -0.9511
 2074TIP3    H2 6229   3.603   5.178   2.795 -1.0003 -0.5717 -0.8155
 2075TIP3   OH2 6230   3.386   4.194   1.342 -0.4458 -0.2002  0.1643
 2075TIP3    H1 6231   3.459   4.182   1.402 -1.0257 -0.1134  0.8915
 2075TIP3    H2 6232   3.392   4.286   1.315  0.1377 -0.3810 -0.3511
 2076TIP3   OH2 6233   4.715   1.206   1.788  0.5626 -0.0039  0.1408
 2076TIP3    H1 6234   4.796   1.197   1.738  0.5035  0.9415 -0.1445
 2076TIP3    H2 6235   4.743   1.202   1.879  0.6437 -1.9630  0.0842
 2077TIP3   OH2 6236   5.768   1.052   1.359  0.5720  0.2286  0.0819
 2077TIP3    H1 6237   5.820   1.132   1.361  1.9584 -0.6456  0.6635
 2077TIP3    H2 6238   5.739   1.040   1.449  1.3933 -0.5358  0.2630
 2078TIP3   OH2 6239   4.050   5.223   0.379 -0.1451  0.1631  0.5260
 2078TIP3    H1 6240   3.983   5.256   0.320  0.2294 -0.6114 -0.3513
 2078TIP3    H2 6241   4.028   5.131   0.392  0.6381 -0.0522  0.3659
 2079TIP3   OH2 6242   6.125   3.755   4.952  0.1177 -0.0366  0.9072
 2079TIP3    H1 6243   6.171   3.690   4.899  0.2655 -0.0044  0.9958
 2079TIP3    H2 6244   6.070   3.802   4.890 -0.7494 -0.9058  0.9842
 2080TIP3   OH2 6245   2.607   1.031   1.952 -0.2710  0.1601 -0.4713
 2080TIP3    H1 6246   2.613   0.936   1.940  0.0333  0.0343  0.5793
 2080TIP3    H2 6247   2.535   1.057   1.895 -0.7507 -0.7918 -0.3318
 2081TIP3   OH2 6248   0.271   5.917   2.961  0.3102 -0.4200  0.2414
 2081TIP3    H1 6249   0.328   5.911   3.038 -0.2642  0.5480  0.7653
 2081TIP3    H2 6250   0.192   5.961   2.994 -1.4548 -3.1171 -0.0486
 2082TIP3   OH2 6251   4.687   1.838   2.066 -0.1929 -0.2992  0.1699
 2082TIP3    H1 6252   4.659   1.921   2.028  0.7454 -0.4749 -0.9947
 2082TIP3    H2 6253   4.772   1.858   2.106 -0.1776 -0.5900  0.2842
 2083TIP3   OH2 6254   5.290   2.316   3.227  0.3302  0.0897 -0.2312
 2083TIP3    H1 6255   5.323   2.391   3.277  2.2292 -0.9732  0.2449
 2083TIP3    H2 6256   5.235   2.268   3.290  2.3153 -0.9790  0.7865
 2084TIP3   OH2 6257   2.208   0.201   0.978 -0.5165 -0.0512 -0.3697
 2084TIP3    H1 6258   2.241   0.227   1.063 -1.4157 -0.2223  0.0446
 2084TIP3    H2 6259   2.286   0.176   0.928  0.1134  0.9577  0.0726
 2085TIP3   OH2 6260   4.437   2.064   4.088 -0.2531  0.2431  0.0887
 2085TIP3    H1 6261   4.500   2.081   4.157 -0.7760  0.2788  0.5656
 2085TIP3    H2 6262   4.377   1.999   4.126 -1.8085  1.8165  0.4670
 2086TIP3   OH2 6263   1.135   2.163   4.878  0.0495  0.3099 -0.2144
 2086TIP3    H1 6264   1.133   2.166   4.974 -1.4351 -0.8246 -0.1808
 2086TIP3    H2 6265   1.087   2.242   4.851 -4.1392 -1.8335  0.1313
 2087TIP3   OH2 6266   4.821   1.544   0.122  0.5187  0.3662  0.1456
 2087TIP3    H1 6267   4.877   1.535   0.198 -0.9831  0.6460  1.3366
 2087TIP3    H2 6268   4.825   1.636   0.099  1.4370  0.1725 -0.4991
 2088TIP3   OH2 6269   3.469   5.149   4.649  0.4773 -0.1825 -0.2767
 2088TIP3    H1 6270   3.561   5.165   4.671  0.6751 -0.7685 -0.6401
 2088TIP3    H2 6271   3.441   5.082   4.711  0.4055 -0.2840 -0.4199
 2089TIP3   OH2 6272   1.771   3.533   0.164  0.0403  0.7390  0.5195
 2089TIP3    H1 6273   1.699   3.480   0.198  0.8044  0.3162  1.5339
 2089TIP3    H2 6274   1.729   3.603   0.114 -1.0179 -0.3962 -0.2311
 2090TIP3   OH2 6275   0.544   0.927   4.630 -0.4361 -1.2265  0.1305
 2090TIP3    H1 6276   0.562   0.842   4.671  0.8192 -1.5654 -1.0726
 2090TIP3    H2 6277   0.627   0.955   4.593 -1.3534 -0.6181 -1.5877
 2091TIP3   OH2 6278   6.252   3.221   2.674  0.1108  0.2935 -0.0723
 2091TIP3    H1 6279   6.330   3.242   2.726  0.2863  1.8919 -0.9282
 2091TIP3    H2 6280   6.182   3.271   2.715 -0.1469  0.0893 -0.2577
 2092TIP3   OH2 6281   2.905   5.323   1.980 -0.8330 -0.7067  0.1773
 2092TIP3    H1 6282   2.914   5.351   1.889 -0.5465  0.2305  0.4807
 2092TIP3    H2 6283   2.907   5.227   1.976 -0.8532 -0.6788 -0.7998
 2093TIP3   OH2 6284   0.611   4.709   1.622 -0.1538  0.4769  0.0417
 2093TIP3    H1 6285   0.522   4.718   1.588 -1.0169  0.3079  2.1485
 2093TIP3    H2 6286   0.612   4.625   1.667  1.3734  0.0423 -0.7320
 2094TIP3   OH2 6287   0.397   2.676   3.827  0.8273 -0.0416  0.6243
 2094TIP3    H1 6288   0.422   2.767   3.844  0.9026  0.1037 -0.2088
 2094TIP3    H2 6289   0.388   2.637   3.914  0.0299  0.9614  1.0106
 2095TIP3   OH2 6290   0.427   3.847   3.325 -0.2525  0.0848 -0.5117
 2095TIP3    H1 6291   0.431   3.809   3.412  2.0670  0.6258 -0.3128
 2095TIP3    H2 6292   0.431   3.772   3.265 -2.0385 -0.2981 -0.2028
 2096TIP3   OH2 6293   5.498   2.642   2.398 -0.3698 -0.1616  0.1016
 2096TIP3    H1 6294   5.588   2.615   2.384 -0.9511 -1.7979 -0.7346
 2096TIP3    H2 6295   5.505   2.732   2.430  1.6371 -0.9918  2.3284
 2097TIP3   OH2 6296   0.158   5.824   2.522  0.3805 -0.4825 -0.6958
 2097TIP3    H1 6297   0.185   5.892   2.460  1.4052 -1.1397 -0.9952
 2097TIP3    H2 6298   0.240   5.780   2.546 -0.1421 -0.9539  0.2779
 2098TIP3   OH2 6299   3.525   5.157   1.599 -0.1489  0.6439  0.0314
 2098TIP3    H1 6300   3.588   5.228   1.592  0.9588 -0.2856  0.2420
 2098TIP3    H2 6301   3.576   5.078   1.582 -1.2544 -0.1346  0.2360
 2099TIP3   OH2 6302   5.622   3.937   0.821 -0.1131  0.3999  0.0059
 2099TIP3    H1 6303   5.530   3.934   0.847  0.0759 -2.6659  0.6090
 2099TIP3    H2 6304   5.660   3.858   0.859  2.7697  1.5251 -0.3442
 2100TIP3   OH2 6305   3.088   2.215   2.783 -0.1863 -0.4811  0.4859
 2100TIP3    H1 6306   3.013   2.209   2.842  0.2994 -3.0198  0.9682
 2100TIP3    H2 6307   3.164   2.201   2.839  0.5716  0.5910 -0.2267
 2101TIP3   OH2 6308   2.105   3.260   3.973  0.2216 -0.9419  0.6188
 2101TIP3    H1 6309   2.092   3.292   4.062  0.3573  2.7607 -0.5334
 2101TIP3    H2 6310   2.017   3.238   3.942 -0.2924  0.8499  0.6855
 2102TIP3   OH2 6311   6.374   4.995   3.685  0.5710 -0.3750  0.1447
 2102TIP3    H1 6312   6.295   5.029   3.727  1.4316 -0.2598  1.7441
 2102TIP3    H2 6313   6.387   4.909   3.725  1.2112 -0.4215 -0.1554
 2103TIP3   OH2 6314   2.482   5.804   3.934 -0.4565  0.0516 -0.1809
 2103TIP3    H1 6315   2.448   5.719   3.962 -2.8228  1.1798  0.7116
 2103TIP3    H2 6316   2.486   5.856   4.015 -1.1429  1.4256 -0.9880
 2104TIP3   OH2 6317   4.644   2.085   0.954  0.1343  0.3703  0.0054
 2104TIP3    H1 6318   4.567   2.087   0.896  0.0105  2.6038  0.1683
 2104TIP3    H2 6319   4.611   2.053   1.038 -0.3322  0.0988 -0.2785
 2105TIP3   OH2 6320   2.521   0.726   3.644 -0.3719 -0.4229  0.0636
 2105TIP3    H1 6321   2.511   0.791   3.714 -1.2490  0.5555 -0.9216
 2105TIP3    H2 6322   2.614   0.725   3.625  0.0277 -1.4323  1.8876
 2106TIP3   OH2 6323   2.248   2.166   2.594  0.1687 -0.3132  0.5984
 2106TIP3    H1 6324   2.250   2.073   2.569  0.8908 -0.1043 -0.1384
 2106TIP3    H2 6325   2.312   2.173   2.664  0.1440 -0.3599  0.6258
 2107TIP3   OH2 6326   6.307   2.578   3.022  0.1424  0.2636 -0.8999
 2107TIP3    H1 6327   6.331   2.523   3.096 -0.4021  0.5814 -0.4783
 2107TIP3    H2 6328   6.288   2.664   3.061 -2.1939 -0.0797 -1.0913
 2108TIP3   OH2 6329   3.503   5.628   1.421 -0.0689  0.2375 -0.9206
 2108TIP3    H1 6330   3.589   5.586   1.413 -0.6230 -1.6494  1.5588
 2108TIP3    H2 6331   3.499   5.654   1.513 -2.0946  0.4109 -1.0297
 2109TIP3   OH2 6332   3.157   5.649   1.941 -0.2454  0.0014  0.7677
 2109TIP3    H1 6333   3.220   5.603   1.997 -1.1285 -1.0328  0.9427
 2109TIP3    H2 6334   3.164   5.606   1.856 -0.5273  0.0612  0.7128
 2110TIP3   OH2 6335   2.310   3.059   1.277  0.3016 -0.6774  0.2288
 2110TIP3    H1 6336   2.252   2.986   1.299 -1.2012  0.1921 -0.6532
 2110TIP3    H2 6337   2.374   3.021   1.217 -0.3661 -1.3120 -0.0994
 2111TIP3   OH2 6338   1.740   4.069   2.146 -0.4175 -0.4409 -0.1836
 2111TIP3    H1 6339   1.693   4.004   2.197  0.5968 -0.9914  0.0724
 2111TIP3    H2 6340   1.726   4.043   2.055 -0.2602 -0.8528 -0.0922
 2112TIP3   OH2 6341   3.266   4.011   2.957 -0.5161 -0.0144  0.2473
 2112TIP3    H1 6342   3.235   4.097   2.985  3.3879  2.0208 -1.0157
 2112TIP3    H2 6343   3.300   4.025   2.869  2.3975 -2.1857  0.8593
 2113TIP3   OH2 6344   4.300   5.275   0.431 -0.6572 -0.7428 -0.4478
 2113TIP3    H1 6345   4.333   5.187   0.451 -0.6016 -0.3111  1.5851
 2113TIP3    H2 6346   4.209   5.262   0.407 -0.3757 -1.4426 -1.1954
 2114TIP3   OH2 6347   0.115   2.433   2.143  0.3752 -0.1506 -0.4523
 2114TIP3    H1 6348   0.107   2.366   2.211 -0.7737  0.2461 -0.1803
 2114TIP3    H2 6349   0.138   2.384   2.064  0.4986 -0.7483 -0.0559
 2115TIP3   OH2 6350   1.544   0.475   3.117  0.7073 -0.5182 -0.0488
 2115TIP3    H1 6351   1.491   0.509   3.189  0.6985 -1.5570  0.4615
 2115TIP3    H2 6352   1.608   0.543   3.099  0.9976 -0.4336  1.2507
 2116TIP3   OH2 6353   3.514   3.290   3.162 -0.1701 -0.1814 -0.0320
 2116TIP3    H1 6354   3.585   3.293   3.226 -0.5665  1.2242  0.3791
 2116TIP3    H2 6355   3.529   3.210   3.112  0.5407 -0.9391  1.3657
 2117TIP3   OH2 6356   0.428   0.616   1.508  0.2928 -0.3771 -0.3586
 2117TIP3    H1 6357   0.483   0.545   1.476  0.5730  0.0348 -0.7976
 2117TIP3    H2 6358   0.489   0.684   1.535  0.0185 -0.1681 -0.2615
 2118TIP3   OH2 6359   2.650   1.410   4.378 -0.3734  0.2382 -0.3959
 2118TIP3    H1 6360   2.593   1.482   4.406 -1.3613 -0.2526 -1.0911
 2118TIP3    H2 6361   2.596   1.331   4.388  0.3789 -0.2999 -0.5218
 2119TIP3   OH2 6362   0.474   2.147   3.455 -0.3355 -0.4110  0.3265
 2119TIP3    H1 6363   0.421   2.226   3.439 -0.5483 -0.3341  1.3691
 2119TIP3    H2 6364   0.562   2.171   3.427 -0.5080  0.0239  0.1495
 2120TIP3   OH2 6365   4.495   4.439   1.628 -0.2403 -0.2868  0.0122
 2120TIP3    H1 6366   4.494   4.465   1.536 -2.8888 -0.0915  0.0006
 2120TIP3    H2 6367   4.518   4.346   1.626  0.8886 -0.0152 -0.7092
 2121TIP3   OH2 6368   2.575   5.531   0.637 -0.8824 -0.1954  0.3942
 2121TIP3    H1 6369   2.588   5.625   0.652 -1.7972 -0.3256  2.2499
 2121TIP3    H2 6370   2.644   5.507   0.575 -0.0362  1.5145  0.6196
 2122TIP3   OH2 6371   2.020   1.011   5.127 -0.6377 -0.4839  0.1381
 2122TIP3    H1 6372   2.086   1.063   5.173 -0.5752 -0.2913 -0.1712
 2122TIP3    H2 6373   1.962   1.075   5.087 -0.8873 -0.6525  0.2249
 2123TIP3   OH2 6374   4.287   4.294   3.565 -0.3585 -0.0029  0.2959
 2123TIP3    H1 6375   4.381   4.300   3.584 -0.3874 -0.0491  0.4567
 2123TIP3    H2 6376   4.281   4.305   3.471 -0.2781  1.0237  0.3989
 2124TIP3   OH2 6377   1.876   2.398   5.066 -0.1769 -0.7534  0.1208
 2124TIP3    H1 6378   1.848   2.404   4.975  0.6423  0.7642 -0.0496
 2124TIP3    H2 6379   1.961   2.440   5.068 -1.2120  1.4971  2.0125
 2125TIP3   OH2 6380   4.267   1.354   4.357 -0.3211 -0.4468  0.2534
 2125TIP3    H1 6381   4.253   1.328   4.448 -0.7570 -1.1296 -0.0014
 2125TIP3    H2 6382   4.362   1.346   4.345 -0.4799 -2.7013 -0.0111
 2126TIP3   OH2 6383   5.195   0.871   2.215 -0.2450 -0.4713 -0.7946
 2126TIP3    H1 6384   5.264   0.826   2.265 -0.0846  0.2849 -0.3303
 2126TIP3    H2 6385   5.135   0.905   2.281 -1.4495 -1.6908 -1.2177
 2127TIP3   OH2 6386   1.822   3.850   4.563 -0.3947  0.2485 -0.2508
 2127TIP3    H1 6387   1.791   3.933   4.527 -0.8850  1.3362  2.4791
 2127TIP3    H2 6388   1.911   3.868   4.593  0.6995 -1.1479 -2.4004
 2128TIP3   OH2 6389   6.182   4.366   2.633  0.2681 -0.1667 -0.3601
 2128TIP3    H1 6390   6.193   4.363   2.538  0.4871 -0.6487 -0.3222
 2128TIP3    H2 6391   6.215   4.452   2.658  2.8465 -1.0471 -0.4036
 2129TIP3   OH2 6392   5.437   3.886   2.172  0.7403  0.0607  0.7823
 2129TIP3    H1 6393   5.408   3.976   2.157  0.3483  0.2175  2.3376
 2129TIP3    H2 6394   5.520   3.895   2.219  0.9892 -0.4024  0.4426
 2130TIP3   OH2 6395   0.363   0.207   1.096 -0.0129  0.2961  0.2141
 2130TIP3    H1 6396   0.353   0.201   1.001  1.2544 -1.4326  0.1269
 2130TIP3    H2 6397   0.392   0.297   1.112  0.2117  0.4764 -1.1020
 2131TIP3   OH2 6398   6.198   2.783   4.545 -0.4477 -0.4152  0.5880
 2131TIP3    H1 6399   6.104   2.784   4.565 -0.4203 -0.7521  0.7361
 2131TIP3    H2 6400   6.231   2.865   4.582 -0.8492  0.1613 -0.2928
 2132TIP3   OH2 6401   6.167   1.183   0.726  0.1374 -0.3292  0.1812
 2132TIP3    H1 6402   6.259   1.187   0.752 -0.0517  1.2166  0.6573
 2132TIP3    H2 6403   6.157   1.251   0.659 -0.9616  0.4841  1.1286
 2133TIP3   OH2 6404   0.025   4.119   0.722 -0.0363  0.5453  0.2920
 2133TIP3    H1 6405  -0.042   4.186   0.711 -0.5733 -0.3036 -2.3508
 2133TIP3    H2 6406   0.086   4.134   0.649 -0.3340 -1.9485 -0.5785
 2134TIP3   OH2 6407   0.680   5.513   0.592 -0.4129  0.3290 -0.0791
 2134TIP3    H1 6408   0.641   5.531   0.678 -1.1680 -0.2329 -0.2856
 2134TIP3    H2 6409   0.655   5.588   0.538  1.5728  1.5704  0.6355
 2135TIP3   OH2 6410   4.127   1.315   2.544  0.3162  0.1839  0.1491
 2135TIP3    H1 6411   4.104   1.245   2.482 -0.9476 -0.1163  0.9221
 2135TIP3    H2 6412   4.086   1.393   2.507  0.5310  0.2403  0.0255
 2136TIP3   OH2 6413   5.411   5.406   0.460  0.4570 -0.0682 -0.4544
 2136TIP3    H1 6414   5.432   5.328   0.512 -0.3420  0.0454  0.0569
 2136TIP3    H2 6415   5.361   5.461   0.520 -1.4850 -0.4236 -1.6769
 2137TIP3   OH2 6416   5.915   4.823   0.790  0.6499  0.3288 -0.1847
 2137TIP3    H1 6417   5.910   4.763   0.716  0.4108  1.0050 -0.7248
 2137TIP3    H2 6418   6.008   4.824   0.813  0.8636  0.7367 -1.0106
 2138TIP3   OH2 6419   1.700   1.642   1.682  0.2293  0.1159  0.0578
 2138TIP3    H1 6420   1.741   1.557   1.665  0.2627 -0.1056  1.1866
 2138TIP3    H2 6421   1.638   1.626   1.753 -3.4623 -0.0332 -2.9217
 2139TIP3   OH2 6422   1.534   0.395   2.707 -0.8303 -0.0507  0.7534
 2139TIP3    H1 6423   1.485   0.375   2.627  0.5659 -0.0428 -0.1387
 2139TIP3    H2 6424   1.492   0.473   2.743  0.5232  1.9904 -1.8052
 2140TIP3   OH2 6425   3.159   3.471   1.805 -0.1567  0.5634 -0.0382
 2140TIP3    H1 6426   3.064   3.481   1.805 -0.7473 -3.3018 -1.7885
 2140TIP3    H2 6427   3.177   3.399   1.865  1.5642  0.5364 -0.5070
 2141TIP3   OH2 6428   5.408   4.818   2.252 -0.2506 -0.3942 -0.3467
 2141TIP3    H1 6429   5.407   4.739   2.199  1.3771  1.1464 -2.8851
 2141TIP3    H2 6430   5.317   4.846   2.256 -0.3425  0.6525 -4.5524
 2142TIP3   OH2 6431   6.358   3.800   0.013  0.4614  0.2907 -0.3587
 2142TIP3    H1 6432   6.341   3.852  -0.066  0.3411 -0.5242 -0.8812
 2142TIP3    H2 6433   6.284   3.821   0.071  0.5477  0.8923 -0.4564
 2143TIP3   OH2 6434   3.893   4.409   1.312 -0.2222  0.5149  0.2972
 2143TIP3    H1 6435   3.948   4.409   1.390 -0.1881  1.6223  0.3021
 2143TIP3    H2 6436   3.955   4.425   1.240 -0.3162  0.0040  0.1017
 2144TIP3   OH2 6437   2.311   4.445   3.250  0.5123  0.2238  0.3742
 2144TIP3    H1 6438   2.373   4.377   3.276  0.7414  0.7117  1.1248
 2144TIP3    H2 6439   2.231   4.397   3.229  0.8652 -0.3318  0.2676
 2145TIP3   OH2 6440   1.557   4.937   1.599 -0.4843  0.2055  0.2031
 2145TIP3    H1 6441   1.531   5.029   1.608  2.2904  1.4967 -3.1358
 2145TIP3    H2 6442   1.494   4.900   1.537 -0.7639  0.1682  0.4982
 2146TIP3   OH2 6443   3.430   0.252   1.902  0.4188  0.6532 -0.2433
 2146TIP3    H1 6444   3.476   0.238   1.819  1.6537  1.8635  0.1929
 2146TIP3    H2 6445   3.351   0.199   1.895  1.7385 -1.3416 -1.1452
 2147TIP3   OH2 6446   3.951   3.328   1.337 -0.6134 -0.6507 -0.1803
 2147TIP3    H1 6447   3.900   3.248   1.349 -0.1543 -1.0054 -0.5399
 2147TIP3    H2 6448   4.019   3.324   1.404 -1.7326  0.3974  1.0718
 2148TIP3   OH2 6449   3.163   5.150   1.906 -0.0672  0.7254 -0.3979
 2148TIP3    H1 6450   3.080   5.115   1.938  0.0216  1.3175  0.5395
 2148TIP3    H2 6451   3.218   5.154   1.984  0.8242  0.3900 -1.0060
 2149TIP3   OH2 6452   1.830   5.867   0.693 -0.1890 -0.1091  0.2752
 2149TIP3    H1 6453   1.922   5.864   0.667  0.1637 -0.3450  1.4929
 2149TIP3    H2 6454   1.792   5.937   0.639  0.5739 -0.3560 -0.6004
 2150TIP3   OH2 6455   2.762   4.890   0.023 -0.0146 -0.5647  0.2168
 2150TIP3    H1 6456   2.782   4.808   0.067  2.4590 -1.2404 -1.9074
 2150TIP3    H2 6457   2.673   4.878  -0.011 -0.0606 -1.9605  0.7700
 2151TIP3   OH2 6458   0.066   4.841   4.591 -0.0596  0.1720 -0.0338
 2151TIP3    H1 6459  -0.008   4.813   4.536  0.0697 -1.2058  0.4828
 2151TIP3    H2 6460   0.117   4.762   4.606  0.7482  0.8327  0.8172
 2152TIP3   OH2 6461   2.769   1.502   0.313 -0.0732  0.2451 -0.4178
 2152TIP3    H1 6462   2.799   1.538   0.229  0.5369  2.3512  0.6466
 2152TIP3    H2 6463   2.778   1.407   0.302  0.8183  0.5042 -2.4273
 2153TIP3   OH2 6464   0.946   5.040   3.579 -0.3279 -0.0479 -0.7140
 2153TIP3    H1 6465   0.896   5.120   3.562  0.0317  0.3673  0.1434
 2153TIP3    H2 6466   1.031   5.071   3.610 -1.0314 -0.7038  2.1898
 2154TIP3   OH2 6467   4.701   0.436   1.712 -0.2376  0.0477 -0.2170
 2154TIP3    H1 6468   4.649   0.364   1.747 -2.3614  1.0995 -0.9928
 2154TIP3    H2 6469   4.719   0.491   1.788 -0.2948 -0.3235  0.0693
 2155TIP3   OH2 6470   0.206   1.097   0.235  0.5306 -0.6953 -0.1573
 2155TIP3    H1 6471   0.225   1.182   0.276  0.5698  0.2352 -1.9653
 2155TIP3    H2 6472   0.213   1.034   0.306  0.3758  0.8284  1.2876
 2156TIP3   OH2 6473   2.549   5.109   1.734 -0.0719  0.8720  0.0995
 2156TIP3    H1 6474   2.602   5.100   1.654 -0.9002 -0.0932 -0.3590
 2156TIP3    H2 6475   2.476   5.166   1.708  0.0011  1.0881  0.3584
 2157TIP3   OH2 6476   1.478   4.671   2.526  0.0071  0.3833  0.1459
 2157TIP3    H1 6477   1.446   4.583   2.544  0.7680  0.0824  0.0888
 2157TIP3    H2 6478   1.457   4.721   2.604  1.8636 -0.5061  1.2991
 2158TIP3   OH2 6479  -0.022   4.441   1.668 -0.1513  0.5543 -0.2916
 2158TIP3    H1 6480   0.056   4.490   1.693 -0.6351  0.9626  0.4520
 2158TIP3    H2 6481  -0.008   4.419   1.576  0.8951  0.5079 -0.1287
 2159TIP3   OH2 6482   2.463   2.572   1.025 -0.1853  0.0424 -0.1805
 2159TIP3    H1 6483   2.387   2.616   0.987 -0.1149  0.9781  0.7123
 2159TIP3    H2 6484   2.530   2.640   1.031 -0.2600 -0.0084  1.7830
 2160TIP3   OH2 6485   3.189   2.332   0.408  0.0765  0.1263  0.3382
 2160TIP3    H1 6486   3.270   2.384   0.404 -0.2916  0.6457 -0.5765
 2160TIP3    H2 6487   3.120   2.395   0.389 -0.6384 -0.1432  1.8949
 2161TIP3   OH2 6488   3.529   0.475   1.077 -0.2470 -0.4938 -0.0676
 2161TIP3    H1 6489   3.604   0.465   1.018  0.5513 -0.3929  0.9013
 2161TIP3    H2 6490   3.512   0.387   1.110 -0.3662 -0.4694 -0.0626
 2162TIP3   OH2 6491   2.660   5.015   0.391 -0.2214 -0.2315  0.3417
 2162TIP3    H1 6492   2.632   5.033   0.302  0.2983 -1.2939 -0.0614
 2162TIP3    H2 6493   2.755   5.022   0.388 -0.2031 -0.2314  0.8260
 2163TIP3   OH2 6494   3.732   1.403   1.354 -0.0859 -0.0015 -0.4151
 2163TIP3    H1 6495   3.808   1.344   1.352 -0.1760 -0.1188 -0.4036
 2163TIP3    H2 6496   3.661   1.349   1.389 -0.4476 -0.2138 -1.4462
 2164TIP3   OH2 6497   1.416   5.451   1.501 -0.5475  0.3577  0.2738
 2164TIP3    H1 6498   1.322   5.433   1.505 -0.6932  0.9097 -0.4461
 2164TIP3    H2 6499   1.445   5.409   1.421 -0.3248  0.7838  0.1271
 2165TIP3   OH2 6500   4.104   2.108   4.258  0.2985 -0.1841  0.1342
 2165TIP3    H1 6501   4.059   2.067   4.185  0.5520  1.1218 -0.7896
 2165TIP3    H2 6502   4.165   2.041   4.290 -0.2614 -0.9769 -0.4342
 2166TIP3   OH2 6503   2.159   0.464   0.863 -0.4245  0.4260  0.0669
 2166TIP3    H1 6504   2.167   0.385   0.916 -0.0736  2.6238  3.5386
 2166TIP3    H2 6505   2.225   0.453   0.794 -0.2728 -2.1877  0.5226
 2167TIP3   OH2 6506   3.167   4.829   4.070  0.0564 -0.1280  0.5590
 2167TIP3    H1 6507   3.146   4.792   4.155  0.4983 -0.5952  0.4706
 2167TIP3    H2 6508   3.118   4.911   4.067 -0.2879 -0.3081  1.0897
 2168TIP3   OH2 6509   4.365   4.653   0.330  0.1845  0.2659  0.6571
 2168TIP3    H1 6510   4.427   4.662   0.257  0.2030  1.2061  0.7656
 2168TIP3    H2 6511   4.376   4.563   0.361 -0.3927 -0.3948 -0.9929
 2169TIP3   OH2 6512   1.701   4.095   4.470 -0.0954  0.5146  0.2050
 2169TIP3    H1 6513   1.717   4.128   4.558 -0.9867  0.6801  0.3153
 2169TIP3    H2 6514   1.617   4.133   4.444 -0.4507 -0.5064 -0.2302
 2170TIP3   OH2 6515   6.292   2.422   4.899 -0.2762  0.5466 -0.2076
 2170TIP3    H1 6516   6.212   2.381   4.933 -0.2044  0.1302 -0.5460
 2170TIP3    H2 6517   6.360   2.355   4.908  0.0519  0.9212  0.1353
 2171TIP3   OH2 6518   5.779   2.591   2.679  0.1033 -0.5410  0.2166
 2171TIP3    H1 6519   5.714   2.541   2.629 -0.8921  1.4749 -0.6102
 2171TIP3    H2 6520   5.757   2.573   2.770 -1.3685 -0.2313 -0.0513
 2172TIP3   OH2 6521   4.718   0.431   3.886  0.0279  0.4004 -0.3972
 2172TIP3    H1 6522   4.645   0.416   3.946  0.4924  0.8615  0.3011
 2172TIP3    H2 6523   4.747   0.520   3.906  0.9026  0.1546 -0.5370
 2173TIP3   OH2 6524   0.190   1.076   2.528 -0.8768 -0.4214  0.1932
 2173TIP3    H1 6525   0.265   1.130   2.506 -0.2771 -1.2146  0.2720
 2173TIP3    H2 6526   0.154   1.115   2.608  0.3679 -0.9433  1.0249
 2174TIP3   OH2 6527   4.338   1.499   2.681  0.4142 -0.3837  0.1515
 2174TIP3    H1 6528   4.320   1.578   2.630 -0.2083  0.0250  0.9725
 2174TIP3    H2 6529   4.274   1.435   2.649  0.2170 -0.2201  0.2153
 2175TIP3   OH2 6530   5.712   4.479   1.969 -0.1525 -0.2003  0.2064
 2175TIP3    H1 6531   5.702   4.411   2.036 -2.2772 -1.4133 -1.2229
 2175TIP3    H2 6532   5.764   4.437   1.901  2.3996  1.1811  1.1970
 2176TIP3   OH2 6533   1.088   3.661   4.156  0.4713  0.7060  0.0790
 2176TIP3    H1 6534   1.063   3.708   4.236  2.2895  2.2428 -0.1871
 2176TIP3    H2 6535   1.183   3.648   4.164  0.6482  0.6260 -1.6851
 2177TIP3   OH2 6536   5.343   3.510   3.597 -1.0148  0.1625  0.0105
 2177TIP3    H1 6537   5.350   3.582   3.660 -0.8614 -1.0796  1.4784
 2177TIP3    H2 6538   5.360   3.550   3.512  0.1531  1.6624  0.9075
 2178TIP3   OH2 6539   5.263   5.461   1.080  0.0915  0.4684  0.0025
 2178TIP3    H1 6540   5.221   5.546   1.086 -0.3084  0.3841 -1.3332
 2178TIP3    H2 6541   5.330   5.472   1.013  1.3539  0.2434  1.1752
 2179TIP3   OH2 6542   2.832   0.147   1.508 -0.0684 -0.0645  0.1076
 2179TIP3    H1 6543   2.806   0.123   1.419  2.7068 -2.4835 -0.1729
 2179TIP3    H2 6544   2.751   0.138   1.559 -1.6323  0.9649 -2.0209
 2180TIP3   OH2 6545   3.654   4.908   2.721  0.5738  0.5048 -0.2110
 2180TIP3    H1 6546   3.710   4.979   2.689  1.1998  0.1701  0.1285
 2180TIP3    H2 6547   3.629   4.860   2.643  0.8060  0.6232 -0.3600
 2181TIP3   OH2 6548   2.979   3.655   2.427 -0.3687  0.2654  0.0088
 2181TIP3    H1 6549   3.044   3.638   2.495  1.1019  1.2944 -1.0629
 2181TIP3    H2 6550   2.954   3.569   2.395  3.4903 -0.2288 -2.2468
 2182TIP3   OH2 6551   1.977   0.747   1.266 -0.8626  0.3874  0.3548
 2182TIP3    H1 6552   2.009   0.793   1.343 -0.9146  0.6600  0.2174
 2182TIP3    H2 6553   1.887   0.780   1.254 -1.6913 -1.3171  1.4956
 2183TIP3   OH2 6554   0.668   4.085   2.418 -0.1911  0.2250  0.7968
 2183TIP3    H1 6555   0.649   4.068   2.325 -0.1068  0.7784  0.6736
 2183TIP3    H2 6556   0.590   4.057   2.464 -0.9212  1.5140  0.3925
 2184TIP3   OH2 6557   0.429   5.164   4.982  0.0966  0.1379  0.3295
 2184TIP3    H1 6558   0.461   5.168   4.892 -0.4614 -0.9644  0.0741
 2184TIP3    H2 6559   0.362   5.095   4.982 -0.8963  1.0482  1.2844
 2185TIP3   OH2 6560   3.546   4.254   2.718 -0.4762  0.2048  0.0945
 2185TIP3    H1 6561   3.616   4.211   2.669 -0.4176  0.8902 -0.4464
 2185TIP3    H2 6562   3.575   4.252   2.809 -0.1321 -0.2221 -0.0211
 2186TIP3   OH2 6563   3.986   0.247   4.656  0.6415 -0.5939 -0.4428
 2186TIP3    H1 6564   3.904   0.197   4.658 -0.4957  1.1407 -0.9338
 2186TIP3    H2 6565   4.017   0.239   4.565  0.6531 -0.7163 -0.4273
 2187TIP3   OH2 6566   5.073   2.216   2.233 -0.4201  0.7049  0.1870
 2187TIP3    H1 6567   5.074   2.141   2.174  0.9775  1.0684 -0.3024
 2187TIP3    H2 6568   5.113   2.184   2.314 -1.4732  0.4597  0.6255
 2188TIP3   OH2 6569   5.801   2.764   3.867 -0.1358 -0.7585  0.2380
 2188TIP3    H1 6570   5.761   2.803   3.944 -0.1149 -1.8049  0.8022
 2188TIP3    H2 6571   5.754   2.681   3.856  0.1219 -0.7923 -0.6520
 2189TIP3   OH2 6572   1.541   0.189   3.568 -0.2647 -0.1984 -0.0819
 2189TIP3    H1 6573   1.586   0.129   3.508 -2.9320 -0.7235 -1.7405
 2189TIP3    H2 6574   1.606   0.257   3.588  1.2308 -0.8376 -2.3899
 2190TIP3   OH2 6575   1.818   2.047   2.646 -0.0701 -0.7305 -0.0893
 2190TIP3    H1 6576   1.753   2.093   2.593 -0.6689 -2.2869 -0.7667
 2190TIP3    H2 6577   1.769   2.017   2.723  0.0785 -1.0339 -0.1109
 2191TIP3   OH2 6578   2.580   1.195   2.564  0.8310 -0.4920 -0.2413
 2191TIP3    H1 6579   2.630   1.187   2.646 -1.1926 -0.9229  1.0185
 2191TIP3    H2 6580   2.544   1.107   2.550 -1.8313  0.3888  0.4699
 2192TIP3   OH2 6581   0.033   0.221   3.287 -0.2067 -0.0031  0.2064
 2192TIP3    H1 6582  -0.061   0.207   3.278 -0.8823  2.5635  2.1399
 2192TIP3    H2 6583   0.047   0.311   3.257  1.1412  0.6058  2.4733
 2193TIP3   OH2 6584   1.642   1.784   3.113 -0.5209 -0.2731 -0.0872
 2193TIP3    H1 6585   1.571   1.787   3.177 -0.3700  0.0193  0.0675
 2193TIP3    H2 6586   1.623   1.706   3.060 -0.6832 -0.4839  0.2735
 2194TIP3   OH2 6587   3.579   1.845   4.078  0.4936  0.0143 -0.7299
 2194TIP3    H1 6588   3.612   1.861   4.166 -0.7130  1.4390 -0.4882
 2194TIP3    H2 6589   3.630   1.902   4.021  0.1564  0.3276 -0.7182
 2195TIP3   OH2 6590   0.011   1.622   4.396  0.1591 -0.5094  0.3928
 2195TIP3    H1 6591  -0.022   1.685   4.459  0.9061  0.8273 -0.5161
 2195TIP3    H2 6592   0.016   1.539   4.445 -1.6438 -0.0859  1.3626
 2196TIP3   OH2 6593   6.215   0.666   3.592 -0.8522  0.0769 -0.7147
 2196TIP3    H1 6594   6.195   0.619   3.673 -1.7328  0.3767 -0.7462
 2196TIP3    H2 6595   6.311   0.667   3.588 -0.7505  1.1872  0.9974
 2197TIP3   OH2 6596   5.288   2.323   0.797 -0.5757  0.7904 -0.4910
 2197TIP3    H1 6597   5.271   2.358   0.884 -1.0783 -0.2782 -0.1481
 2197TIP3    H2 6598   5.381   2.342   0.782 -0.0632 -0.3762  0.9356
 2198TIP3   OH2 6599   3.329   0.916   4.243 -0.1204  0.0841  0.1357
 2198TIP3    H1 6600   3.325   0.843   4.305 -0.5152  0.8829  1.0643
 2198TIP3    H2 6601   3.242   0.955   4.246 -0.0846  0.2630 -0.7826
 2199TIP3   OH2 6602   0.292   0.579   3.198  0.2999 -0.0619  0.6348
 2199TIP3    H1 6603   0.286   0.674   3.200 -0.8828 -0.1319  1.4700
 2199TIP3    H2 6604   0.307   0.558   3.105  2.3257  0.9861  0.6685
 2200TIP3   OH2 6605   2.720   5.083   2.105 -0.1510 -0.4907 -0.0082
 2200TIP3    H1 6606   2.641   5.128   2.073  0.1396 -0.3080 -0.4753
 2200TIP3    H2 6607   2.706   5.077   2.200 -0.4885  0.0156 -0.0153
 2201TIP3   OH2 6608   2.327   3.550   3.032 -0.2967  0.0038  0.3676
 2201TIP3    H1 6609   2.244   3.545   2.984 -0.2245  1.0540  0.1137
 2201TIP3    H2 6610   2.369   3.465   3.017 -0.8352 -0.1346 -0.3967
 2202TIP3   OH2 6611   3.566   3.183   3.540 -0.6538  0.2238 -0.4408
 2202TIP3    H1 6612   3.511   3.117   3.582 -0.2000  0.4406  0.5014
 2202TIP3    H2 6613   3.522   3.266   3.558 -1.0572  0.2242 -1.3619
 2203TIP3   OH2 6614   4.748   5.407   2.135 -0.3794  0.2007  0.1593
 2203TIP3    H1 6615   4.704   5.482   2.095  1.9320  1.6721  0.1969
 2203TIP3    H2 6616   4.795   5.366   2.062  0.1156  0.1151  0.5248
 2204TIP3   OH2 6617   4.040   2.188   0.952  0.4137 -0.2285  0.6872
 2204TIP3    H1 6618   4.095   2.255   0.992 -0.1428  0.3275  0.5397
 2204TIP3    H2 6619   4.087   2.164   0.872  0.8999 -0.4301  1.0323
 2205TIP3   OH2 6620   5.040   3.180   2.131  0.9407  0.4744 -0.0096
 2205TIP3    H1 6621   5.071   3.125   2.058  1.4512  0.3357  0.3107
 2205TIP3    H2 6622   5.024   3.265   2.091  2.0622  0.6472 -0.1239
 2206TIP3   OH2 6623   3.512   1.326   2.674  0.8101 -0.1020 -0.1712
 2206TIP3    H1 6624   3.452   1.401   2.672 -0.6911 -1.1651  1.8057
 2206TIP3    H2 6625   3.499   1.283   2.589  1.2658  1.4747 -1.1002
 2207TIP3   OH2 6626   1.084   2.633   3.533 -0.9962  0.0445  0.9463
 2207TIP3    H1 6627   1.026   2.704   3.559 -2.1017 -0.9463  1.2929
 2207TIP3    H2 6628   1.102   2.648   3.440 -0.4168  1.2959  1.2428
 2208TIP3   OH2 6629   4.673   0.500   0.213 -0.4692 -0.1677  0.3058
 2208TIP3    H1 6630   4.610   0.502   0.142  0.6222 -1.7370 -0.7620
 2208TIP3    H2 6631   4.746   0.553   0.182 -0.3079 -0.2277  0.5800
 2209TIP3   OH2 6632   1.666   3.003   0.093 -0.4910 -0.0365  0.6002
 2209TIP3    H1 6633   1.734   3.063   0.125 -2.3592  1.9019  1.1941
 2209TIP3    H2 6634   1.655   3.027   0.001  0.0957 -0.8444  0.3104
 2210TIP3   OH2 6635   5.349   1.605   3.713 -0.3134  0.4458 -0.3118
 2210TIP3    H1 6636   5.382   1.689   3.745 -1.0336  0.5495  0.1969
 2210TIP3    H2 6637   5.339   1.552   3.792 -0.5992  0.1516 -0.5452
 2211TIP3   OH2 6638   3.164   5.134   3.781  0.3534 -0.2345 -0.3680
 2211TIP3    H1 6639   3.127   5.117   3.868 -0.8981  2.2355 -0.3136
 2211TIP3    H2 6640   3.257   5.146   3.796 -0.0524  1.7787  1.0056
 2212TIP3   OH2 6641   5.766   3.992   0.203  0.3128  0.6551  0.6781
 2212TIP3    H1 6642   5.840   4.038   0.164 -0.9661  0.1200 -2.7015
 2212TIP3    H2 6643   5.804   3.910   0.236  1.3383  0.6675 -0.4008
 2213TIP3   OH2 6644   5.816   3.681   0.804 -0.7763  0.3390 -0.4102
 2213TIP3    H1 6645   5.854   3.662   0.719  1.0986 -0.3449  0.5375
 2213TIP3    H2 6646   5.888   3.672   0.866 -2.5127 -1.3254  1.5339
 2214TIP3   OH2 6647   4.688   5.415   3.190  0.2290  0.4123 -0.6572
 2214TIP3    H1 6648   4.640   5.355   3.132 -2.0532  1.0287  0.4776
 2214TIP3    H2 6649   4.633   5.421   3.268  3.5671 -1.0495  2.0250
 2215TIP3   OH2 6650   5.752   6.016   2.377  0.0987 -0.0666  0.1554
 2215TIP3    H1 6651   5.747   5.935   2.326  0.5356 -0.3579  0.5669
 2215TIP3    H2 6652   5.698   5.999   2.454 -1.2205  0.6557 -0.5583
 2216TIP3   OH2 6653   5.492   4.763   3.787 -0.4839  0.5779 -0.2355
 2216TIP3    H1 6654   5.439   4.753   3.867 -0.8819 -1.6565 -0.7337
 2216TIP3    H2 6655   5.537   4.847   3.800 -2.1070  1.2871  1.3994
 2217TIP3   OH2 6656   1.710   0.683   2.611  0.1075  0.3148 -0.1375
 2217TIP3    H1 6657   1.739   0.636   2.533  1.4093 -1.9789  1.5927
 2217TIP3    H2 6658   1.626   0.721   2.587  0.4593 -0.3385 -2.6241
 2218TIP3   OH2 6659   2.829   1.801   3.174 -0.4900 -0.3973 -0.2641
 2218TIP3    H1 6660   2.829   1.893   3.146 -0.1314  0.0472  1.1215
 2218TIP3    H2 6661   2.802   1.804   3.265  1.7093 -1.4374  0.4959
 2219TIP3   OH2 6662   1.924   1.824   1.512 -0.2174 -0.3878  0.0674
 2219TIP3    H1 6663   1.947   1.813   1.604  0.2625  2.2547  0.3481
 2219TIP3    H2 6664   1.869   1.748   1.491  0.1583 -1.3510  2.3454
 2220TIP3   OH2 6665   0.743   3.924   4.238 -0.1027 -0.2837  0.1608
 2220TIP3    H1 6666   0.812   3.964   4.293  0.6256 -1.3828  0.0771
 2220TIP3    H2 6667   0.708   3.997   4.188  1.2566  0.2639 -0.0479
 2221TIP3   OH2 6668   0.619   4.478   3.827 -0.1016 -0.5028 -0.3699
 2221TIP3    H1 6669   0.705   4.517   3.812 -0.1965  0.2665  1.0242
 2221TIP3    H2 6670   0.633   4.417   3.899 -1.0472  0.8223  0.9644
 2222TIP3   OH2 6671   0.785   3.334   3.349  0.4605 -0.1441 -0.5644
 2222TIP3    H1 6672   0.712   3.384   3.385  0.6871  1.0340 -1.6573
 2222TIP3    H2 6673   0.785   3.252   3.398  0.1045  0.9363  1.3448
 2223TIP3   OH2 6674   3.703   1.429   4.725 -0.2213 -0.3990  0.1121
 2223TIP3    H1 6675   3.639   1.497   4.708 -1.4980 -1.6793 -0.3888
 2223TIP3    H2 6676   3.788   1.471   4.708 -1.0472  0.5603 -1.9729
 2224TIP3   OH2 6677   3.759   2.831   2.029 -0.0803 -0.7694  0.7482
 2224TIP3    H1 6678   3.750   2.832   2.125  0.4627  0.6985  0.8044
 2224TIP3    H2 6679   3.697   2.896   1.998  2.1377  1.2959  0.3850
 2225TIP3   OH2 6680   4.035   0.223   4.398  0.0009  0.1590 -0.1188
 2225TIP3    H1 6681   3.983   0.151   4.364 -0.9241  0.5348  0.4567
 2225TIP3    H2 6682   4.100   0.241   4.330 -0.6821 -0.2604 -0.8880
 2226TIP3   OH2 6683   4.685   3.414   4.626 -0.2624 -0.1590 -0.0986
 2226TIP3    H1 6684   4.751   3.482   4.611 -1.0303  0.6752  0.2175
 2226TIP3    H2 6685   4.715   3.368   4.704  0.2533 -0.1610 -0.2979
 2227TIP3   OH2 6686   5.354   2.241   2.868 -0.1822 -0.2423 -0.6600
 2227TIP3    H1 6687   5.281   2.296   2.896  0.6872  0.5416  0.1595
 2227TIP3    H2 6688   5.357   2.252   2.773 -1.4979 -0.7901 -0.7870
 2228TIP3   OH2 6689   2.385   3.713   5.165 -0.1564  0.5413 -1.1702
 2228TIP3    H1 6690   2.301   3.727   5.122 -0.5892 -1.3105 -1.0435
 2228TIP3    H2 6691   2.377   3.625   5.204  0.9374  1.3143  0.9590
 2229TIP3   OH2 6692   1.560   5.636   2.190  0.2267  0.0139  0.1502
 2229TIP3    H1 6693   1.560   5.727   2.221  0.2392  0.5427 -1.3033
 2229TIP3    H2 6694   1.609   5.639   2.108  0.9636 -1.4805  0.4965
 2230TIP3   OH2 6695   3.311   4.791   3.791 -0.8303 -0.0388  0.2455
 2230TIP3    H1 6696   3.317   4.870   3.737  1.1613  0.1264  0.6563
 2230TIP3    H2 6697   3.338   4.819   3.878 -1.4015 -0.9077  0.7151
 2231TIP3   OH2 6698   2.109   4.486   0.940 -0.2969 -0.8414 -0.1476
 2231TIP3    H1 6699   2.091   4.430   0.865 -0.7676 -0.0842 -0.6055
 2231TIP3    H2 6700   2.023   4.514   0.971 -0.1306 -1.3966  0.8800
 2232TIP3   OH2 6701   2.589   3.440   2.094 -0.4237 -0.6475  0.1238
 2232TIP3    H1 6702   2.635   3.521   2.074 -0.6424 -0.4259  0.5252
 2232TIP3    H2 6703   2.571   3.444   2.188 -0.8899 -0.9183  0.0521
 2233TIP3   OH2 6704   4.957   0.901   2.072 -0.8562 -0.1536 -0.4624
 2233TIP3    H1 6705   5.044   0.914   2.111 -1.6638  1.7580  0.8169
 2233TIP3    H2 6706   4.967   0.930   1.981  0.0594 -0.8784 -0.6137
 2234TIP3   OH2 6707   2.706   0.090   1.879  0.4415  0.0179 -0.5197
 2234TIP3    H1 6708   2.642   0.066   1.813 -0.4171 -1.2598  0.7114
 2234TIP3    H2 6709   2.654   0.110   1.957  1.4426  1.0540 -0.0741
 2235TIP3   OH2 6710   0.816   4.412   2.244  0.3130  0.4346 -0.4578
 2235TIP3    H1 6711   0.910   4.431   2.248  0.9523 -2.4403  1.7526
 2235TIP3    H2 6712   0.794   4.379   2.331 -2.0120 -1.9565 -1.7879
 2236TIP3   OH2 6713   2.934   2.849   1.786  0.0536  0.1886 -0.3091
 2236TIP3    H1 6714   2.880   2.923   1.758  1.2088  0.3361 -2.3796
 2236TIP3    H2 6715   2.871   2.784   1.817 -1.3706  0.4536 -2.3965
 2237TIP3   OH2 6716   5.110   2.067   1.959  0.2122  0.4636 -0.8523
 2237TIP3    H1 6717   5.162   2.015   2.019 -0.3458  1.1686  0.2753
 2237TIP3    H2 6718   5.082   2.005   1.892  2.6607  0.1248 -1.6408
 2238TIP3   OH2 6719   2.483   3.658   2.383  0.3652  0.0625 -0.4406
 2238TIP3    H1 6720   2.410   3.603   2.414 -0.6088  0.5572 -1.7680
 2238TIP3    H2 6721   2.554   3.596   2.367  0.2119 -0.4501  0.7043
 2239TIP3   OH2 6722   5.579   1.871   1.114 -0.0138 -0.5346 -0.3743
 2239TIP3    H1 6723   5.505   1.931   1.127 -0.4086 -0.4279 -2.5962
 2239TIP3    H2 6724   5.539   1.784   1.114  0.4726 -0.8269  2.2415
 2240TIP3   OH2 6725   0.025   1.956   4.595 -0.4528 -0.4243 -0.2127
 2240TIP3    H1 6726   0.100   2.014   4.580  0.9920 -1.7966  1.3483
 2240TIP3    H2 6727  -0.017   1.991   4.674 -0.3556 -0.7439 -0.0197
 2241TIP3   OH2 6728   3.231   2.384   1.852 -0.0466  0.2731 -0.1166
 2241TIP3    H1 6729   3.243   2.478   1.844  0.6205  0.2006 -0.0943
 2241TIP3    H2 6730   3.194   2.371   1.940  0.3850  0.4808  0.1021
 2242TIP3   OH2 6731   1.326   3.790   2.357  0.1348  0.3514 -0.2934
 2242TIP3    H1 6732   1.236   3.820   2.373 -0.1673 -0.6035 -0.1558
 2242TIP3    H2 6733   1.352   3.748   2.439 -0.3844 -2.0086 -1.2413
 2243TIP3   OH2 6734   3.762   2.734   0.025  0.0156  0.3945 -0.3754
 2243TIP3    H1 6735   3.842   2.699   0.064 -0.9849  0.4349  1.9228
 2243TIP3    H2 6736   3.781   2.827   0.011  1.1949 -0.0896 -2.3317
 2244TIP3   OH2 6737   4.391   0.214   1.896  0.1231 -0.2437  0.3581
 2244TIP3    H1 6738   4.474   0.169   1.882  0.4067  0.2503  0.4485
 2244TIP3    H2 6739   4.403   0.264   1.976 -0.5218 -0.7629  0.7894
 2245TIP3   OH2 6740   3.103   5.527   0.076 -0.1304  0.0326  0.2158
 2245TIP3    H1 6741   3.060   5.581   0.143 -1.1475 -0.3652 -0.1039
 2245TIP3    H2 6742   3.141   5.591   0.015  0.6045  0.3961  1.0322
 2246TIP3   OH2 6743   0.066   5.014   4.068  0.4241  0.1709  0.5244
 2246TIP3    H1 6744   0.015   4.962   4.006  0.9199  0.6235 -0.2724
 2246TIP3    H2 6745   0.005   5.032   4.139 -0.0679 -0.5934  0.3089
 2247TIP3   OH2 6746   2.488   2.691   2.730 -0.0565 -0.6830 -0.3016
 2247TIP3    H1 6747   2.434   2.640   2.669 -0.8791 -0.0951 -0.0831
 2247TIP3    H2 6748   2.480   2.645   2.813 -1.5834  0.2957  0.1317
 2248TIP3   OH2 6749   3.817   2.859   2.888  0.1807 -0.2357 -0.4308
 2248TIP3    H1 6750   3.835   2.921   2.817  2.3633  0.6339  0.7873
 2248TIP3    H2 6751   3.860   2.778   2.860 -1.5764 -0.8790 -1.4322
 2249TIP3   OH2 6752   4.991   5.770   0.160  0.1214 -0.4040 -0.0064
 2249TIP3    H1 6753   4.934   5.756   0.084  0.2958 -1.3933  0.0393
 2249TIP3    H2 6754   4.966   5.701   0.221  1.6123 -1.0784 -0.1314
 2250TIP3   OH2 6755   0.766   4.326   1.995  0.3557 -0.3244 -0.5561
 2250TIP3    H1 6756   0.775   4.372   2.078 -0.5663 -0.2388 -0.4919
 2250TIP3    H2 6757   0.697   4.261   2.011  0.1830 -0.3228 -1.2416
 2251TIP3   OH2 6758   0.243   2.721   3.570  0.0220  0.6922  0.3785
 2251TIP3    H1 6759   0.165   2.680   3.608 -0.0089 -0.2364 -0.6320
 2251TIP3    H2 6760   0.312   2.706   3.635 -1.0248  3.2551  2.2009
 2252TIP3   OH2 6761   1.932   5.809   1.787 -0.2181 -0.0456 -0.0480
 2252TIP3    H1 6762   1.900   5.756   1.860 -0.2337 -0.1103 -0.1018
 2252TIP3    H2 6763   1.870   5.881   1.780  1.1596  1.4120  1.6581
 2253TIP3   OH2 6764   1.929   2.176   0.434 -0.0250 -0.1144 -0.4862
 2253TIP3    H1 6765   1.928   2.271   0.431 -0.6084 -0.0689  0.6633
 2253TIP3    H2 6766   1.883   2.154   0.515  0.6814 -1.3495 -0.3950
 2254TIP3   OH2 6767   2.923   4.163   0.418 -0.7381  0.1196 -0.2579
 2254TIP3    H1 6768   2.847   4.124   0.375 -1.8046  2.4492 -0.6531
 2254TIP3    H2 6769   2.983   4.184   0.346 -0.7314  0.3217 -0.1952
 2255TIP3   OH2 6770   1.301   4.339   0.456  0.4752  0.2409  0.0373
 2255TIP3    H1 6771   1.352   4.314   0.533 -0.1024  2.0561  1.0609
 2255TIP3    H2 6772   1.222   4.285   0.461  1.3101 -1.0649 -0.4030
 2256TIP3   OH2 6773   3.984   2.976   1.639 -0.3690 -0.0410 -0.4563
 2256TIP3    H1 6774   3.891   2.955   1.647 -0.6933  1.2704 -0.4146
 2256TIP3    H2 6775   4.013   2.989   1.729 -0.6520  1.4110 -0.5337
 2257TIP3   OH2 6776   0.579   1.525   4.055  0.7441 -0.2586 -0.0672
 2257TIP3    H1 6777   0.639   1.464   4.011 -1.5308 -2.1084 -0.8265
 2257TIP3    H2 6778   0.566   1.486   4.142  0.4003 -0.0774 -0.0356
 2258TIP3   OH2 6779   6.169   4.338   3.861  0.0286  0.5542 -0.1464
 2258TIP3    H1 6780   6.264   4.328   3.860  0.0108 -0.1141 -2.5942
 2258TIP3    H2 6781   6.151   4.402   3.792 -1.2729  1.1363  0.7033
 2259TIP3   OH2 6782   1.633   3.776   4.838  0.3918  0.0535 -0.0414
 2259TIP3    H1 6783   1.578   3.833   4.891  0.9053 -0.2580  0.8551
 2259TIP3    H2 6784   1.647   3.824   4.757  1.2576  1.4610  0.8998
 2260TIP3   OH2 6785   1.794   3.025   3.193  0.2479  0.6042  0.2277
 2260TIP3    H1 6786   1.831   2.962   3.131  1.2984  1.3803  0.0385
 2260TIP3    H2 6787   1.769   2.972   3.269  0.6129 -0.1095 -0.1395
 2261TIP3   OH2 6788   4.287   1.798   2.615  0.3473 -0.5093 -0.5278
 2261TIP3    H1 6789   4.263   1.867   2.677  1.4517 -1.4551  1.0202
 2261TIP3    H2 6790   4.285   1.841   2.530 -1.4763  0.7677  0.1018
 2262TIP3   OH2 6791   3.020   4.703   2.275 -0.1020 -0.1765 -0.5050
 2262TIP3    H1 6792   3.039   4.782   2.325  2.8311 -1.8102  1.2532
 2262TIP3    H2 6793   3.055   4.720   2.188  2.1703 -0.1110  0.3667
 2263TIP3   OH2 6794   2.818   3.985   4.481  0.1255 -0.2307  0.0715
 2263TIP3    H1 6795   2.855   3.915   4.534 -2.4017 -1.1083  0.8623
 2263TIP3    H2 6796   2.775   3.940   4.408  1.2844  0.7880 -1.3128
 2264TIP3   OH2 6797   6.186   1.469   3.478  0.2213  0.0879  0.2244
 2264TIP3    H1 6798   6.116   1.404   3.487  1.5165 -1.0477  3.4815
 2264TIP3    H2 6799   6.181   1.521   3.559  2.1870  0.9666 -0.1518
 2265TIP3   OH2 6800   5.704   5.306   2.736 -0.0717  0.3621 -0.2893
 2265TIP3    H1 6801   5.737   5.385   2.779  0.7148  0.5147 -1.1415
 2265TIP3    H2 6802   5.783   5.257   2.712 -0.5475 -0.5501 -0.0176
 2266TIP3   OH2 6803   1.680   1.166   3.908 -0.2556 -0.1285 -0.3751
 2266TIP3    H1 6804   1.586   1.183   3.913 -0.6459 -1.7029 -1.6700
 2266TIP3    H2 6805   1.708   1.209   3.827  0.5360  1.8250  0.8645
 2267TIP3   OH2 6806   2.040   3.339   4.230  0.4431 -0.0784 -0.6803
 2267TIP3    H1 6807   1.966   3.367   4.283 -0.9405 -2.0986 -1.4246
 2267TIP3    H2 6808   2.117   3.370   4.279 -0.8262  0.4830  1.0798
 2268TIP3   OH2 6809   4.620   0.837   4.970  0.3411 -0.4554 -0.4564
 2268TIP3    H1 6810   4.545   0.825   4.912 -0.1784  1.7689 -0.3542
 2268TIP3    H2 6811   4.595   0.792   5.051 -0.7036 -0.1645 -0.5929
 2269TIP3   OH2 6812   3.669   0.815   0.458  0.5824 -0.0305 -0.7247
 2269TIP3    H1 6813   3.654   0.805   0.552  0.2618  0.5668 -0.7101
 2269TIP3    H2 6814   3.693   0.908   0.447 -0.7153  0.2473 -1.4041
 2270TIP3   OH2 6815   2.906   4.842   1.739 -0.4009 -0.5963 -0.2895
 2270TIP3    H1 6816   2.933   4.755   1.766 -0.4848 -0.4264  0.3523
 2270TIP3    H2 6817   2.848   4.827   1.665  0.9528 -0.9970 -1.3154
 2271TIP3   OH2 6818   1.294   3.661   0.857 -0.4920  0.1868 -0.6185
 2271TIP3    H1 6819   1.221   3.607   0.826 -1.6917  0.9813  0.7513
 2271TIP3    H2 6820   1.255   3.746   0.878  0.6598  0.3645  0.9659
 2272TIP3   OH2 6821   2.238   1.081   0.675 -0.5470 -0.0862 -0.0120
 2272TIP3    H1 6822   2.155   1.065   0.719 -1.2110  1.1445 -0.7804
 2272TIP3    H2 6823   2.288   1.134   0.737 -0.2156 -1.0134  0.5436
 2273TIP3   OH2 6824   0.635   5.667   3.762 -0.0668 -0.1677  0.1667
 2273TIP3    H1 6825   0.651   5.618   3.843 -0.8469 -0.0921  0.3793
 2273TIP3    H2 6826   0.711   5.649   3.707  0.2143 -0.6627  0.7075
 2274TIP3   OH2 6827   3.241   4.314   3.335 -0.3821 -0.7169  0.5349
 2274TIP3    H1 6828   3.245   4.396   3.286  0.0115  0.5474  2.5304
 2274TIP3    H2 6829   3.333   4.289   3.348 -0.5042 -2.2046 -1.1060
 2275TIP3   OH2 6830   0.034   3.323   3.456  0.1038  0.1882  0.1642
 2275TIP3    H1 6831  -0.056   3.294   3.447  0.2987 -0.7287  0.9751
 2275TIP3    H2 6832   0.077   3.255   3.508  1.6187 -0.1035 -1.3546
 2276TIP3   OH2 6833   5.048   1.916   1.743 -0.3586 -0.3308 -0.9361
 2276TIP3    H1 6834   4.968   1.903   1.692 -0.4792  1.9263 -1.4266
 2276TIP3    H2 6835   5.118   1.918   1.678 -0.2190  0.1793 -0.7740
 2277TIP3   OH2 6836   0.203   5.412   2.186 -0.3723  0.6002  0.8600
 2277TIP3    H1 6837   0.121   5.379   2.222  0.2810 -1.2414  0.7357
 2277TIP3    H2 6838   0.182   5.438   2.096 -0.1784 -3.1803 -0.4387
 2278TIP3   OH2 6839   1.726   2.742   0.298 -0.5247  0.8163 -0.0366
 2278TIP3    H1 6840   1.737   2.792   0.378  0.9030  0.4079  0.0460
 2278TIP3    H2 6841   1.701   2.654   0.328 -1.3813  1.0293 -0.1096
 2279TIP3   OH2 6842   4.315   3.533   3.170 -0.0138 -0.8022 -0.9027
 2279TIP3    H1 6843   4.284   3.457   3.220 -0.8246  0.6476  0.9346
 2279TIP3    H2 6844   4.241   3.556   3.114 -0.4512 -0.3559 -0.1699
 2280TIP3   OH2 6845   5.354   2.679   2.132 -0.8127  0.4866 -0.0560
 2280TIP3    H1 6846   5.385   2.613   2.070 -0.6931 -0.4977  1.0182
 2280TIP3    H2 6847   5.410   2.669   2.208 -1.6237  0.9690  0.6256
 2281TIP3   OH2 6848   2.903   0.696   2.997 -0.3568 -0.1505 -0.0444
 2281TIP3    H1 6849   2.936   0.785   2.984  1.1970 -0.7950 -0.8484
 2281TIP3    H2 6850   2.892   0.662   2.908  2.1497 -1.7779  0.1525
 2282TIP3   OH2 6851   5.737   5.251   1.450 -0.2515 -0.4652  0.0176
 2282TIP3    H1 6852   5.717   5.216   1.363  0.3293 -1.7821  0.3929
 2282TIP3    H2 6853   5.831   5.236   1.461 -0.5460 -1.5020  1.3706
 2283TIP3   OH2 6854   6.018   6.013   4.297  0.3600  0.1507 -0.0500
 2283TIP3    H1 6855   6.073   5.956   4.350 -0.0400 -0.4163 -0.2426
 2283TIP3    H2 6856   5.929   5.997   4.329  0.3094  1.2021  0.3962
 2284TIP3   OH2 6857   4.240   4.002   2.029  0.1074 -0.2791 -0.4053
 2284TIP3    H1 6858   4.249   4.089   1.990 -0.5072 -0.1060 -0.1635
 2284TIP3    H2 6859   4.266   3.942   1.959 -1.3652  0.0056 -1.2390
 2285TIP3   OH2 6860   3.482   1.439   0.950 -0.0963  0.5063 -0.4819
 2285TIP3    H1 6861   3.512   1.474   1.034  1.0114 -0.5947 -0.3832
 2285TIP3    H2 6862   3.544   1.473   0.886 -0.5431  0.8039 -0.7558
 2286TIP3   OH2 6863   1.330   4.994   0.339  0.2422 -0.3436  0.3045
 2286TIP3    H1 6864   1.274   4.920   0.316 -0.0163  0.4273 -1.7891
 2286TIP3    H2 6865   1.270   5.066   0.355  0.5360 -0.3017  1.3102
 2287TIP3   OH2 6866   3.989   1.821   2.605  0.0747  0.2119 -0.6045
 2287TIP3    H1 6867   4.034   1.896   2.644  0.2461  0.1842 -0.7458
 2287TIP3    H2 6868   3.897   1.845   2.604 -0.0060  0.0119  0.2983
 2288TIP3   OH2 6869   2.383   4.034   1.710 -0.4447 -0.1192 -0.6847
 2288TIP3    H1 6870   2.340   4.080   1.638 -0.9923  1.5336  0.6546
 2288TIP3    H2 6871   2.313   3.981   1.750 -0.1665 -0.9460 -1.2547
 2289TIP3   OH2 6872   5.870   2.679   0.110  1.0132  0.1710  0.0878
 2289TIP3    H1 6873   5.882   2.720   0.024 -2.7665  0.9593 -0.2215
 2289TIP3    H2 6874   5.889   2.750   0.172  0.6870  0.5332 -0.2193
 2290TIP3   OH2 6875   3.606   3.016   5.054  0.3272  0.1075 -0.0565
 2290TIP3    H1 6876   3.577   3.015   5.145  1.1561 -0.0471  0.2192
 2290TIP3    H2 6877   3.698   3.041   5.059 -0.1360  2.2300 -1.0150
 2291TIP3   OH2 6878   3.730   0.998   4.236 -0.2963 -0.0361 -0.1680
 2291TIP3    H1 6879   3.810   0.972   4.190  0.3964  0.0498  0.9492
 2291TIP3    H2 6880   3.725   1.093   4.227  0.0443  0.0236  0.2393
 2292TIP3   OH2 6881   5.098   5.212   3.613  0.5732  0.3241 -0.5997
 2292TIP3    H1 6882   5.018   5.250   3.575  0.8551  1.7961  0.1840
 2292TIP3    H2 6883   5.168   5.271   3.583  1.1047  0.1462  0.2730
 2293TIP3   OH2 6884   0.415   2.196   0.503 -0.1441  0.3224 -0.1488
 2293TIP3    H1 6885   0.486   2.208   0.566  1.0999  1.9173 -1.7516
 2293TIP3    H2 6886   0.409   2.279   0.456 -1.7996 -0.4138 -1.3744
 2294TIP3   OH2 6887   4.301   3.462   1.342 -0.2632 -0.1228  0.1382
 2294TIP3    H1 6888   4.376   3.516   1.318  0.0344 -0.0300  1.2123
 2294TIP3    H2 6889   4.246   3.519   1.395 -0.0080 -0.8145  1.1793
 2295TIP3   OH2 6890   2.324   0.235   1.590  1.1273  0.0837  0.5254
 2295TIP3    H1 6891   2.244   0.206   1.546  2.7238 -1.9023 -1.2935
 2295TIP3    H2 6892   2.318   0.330   1.592 -0.7693  0.0258 -0.5618
 2296TIP3   OH2 6893   1.474   2.635   3.483  0.1885  0.3269 -0.0858
 2296TIP3    H1 6894   1.424   2.715   3.495 -2.4626 -1.0918 -0.9126
 2296TIP3    H2 6895   1.411   2.564   3.499  1.5945 -1.5827 -2.2458
 2297TIP3   OH2 6896   0.591   1.466   2.551  0.0378  0.1861 -0.0599
 2297TIP3    H1 6897   0.619   1.466   2.642  1.6522 -1.2953 -0.4992
 2297TIP3    H2 6898   0.635   1.540   2.511 -0.2773  0.5398  0.2458
 2298TIP3   OH2 6899   2.227   4.355   0.155 -0.3587  0.0843  0.1739
 2298TIP3    H1 6900   2.309   4.318   0.185 -0.3406  1.0108  1.3390
 2298TIP3    H2 6901   2.250   4.442   0.122 -0.9608  0.6975  1.2981
 2299TIP3   OH2 6902   5.318   5.179   1.071  0.2594  0.6221 -0.2718
 2299TIP3    H1 6903   5.291   5.269   1.051  0.9453  1.0978  0.8376
 2299TIP3    H2 6904   5.259   5.152   1.141  0.2029  0.2852 -0.4494
 2300TIP3   OH2 6905   4.789   4.833   2.649  0.3090  0.1675  0.2025
 2300TIP3    H1 6906   4.807   4.790   2.566  0.4073 -1.3715  0.9758
 2300TIP3    H2 6907   4.873   4.870   2.676  0.6022 -0.5113  0.2480
 2301TIP3   OH2 6908   5.541   3.359   4.313 -0.4604 -0.4999 -0.1752
 2301TIP3    H1 6909   5.549   3.322   4.401  1.1969  0.5484  0.1403
 2301TIP3    H2 6910   5.504   3.287   4.261  1.2972 -2.1603  0.7336
 2302TIP3   OH2 6911   1.276   0.809   1.956 -0.2175 -0.5162  0.3689
 2302TIP3    H1 6912   1.363   0.772   1.974  0.8564  0.8067 -1.5998
 2302TIP3    H2 6913   1.274   0.890   2.007  0.4493  0.2969 -0.8318
 2303TIP3   OH2 6914   4.342   5.913   2.001  0.2808  0.1761  0.1408
 2303TIP3    H1 6915   4.404   5.900   1.929 -0.7597  0.1172 -0.7753
 2303TIP3    H2 6916   4.357   5.838   2.059  0.2000 -0.5274 -0.7259
 2304TIP3   OH2 6917   1.841   0.580   0.341  0.1351 -0.4306 -0.3204
 2304TIP3    H1 6918   1.914   0.615   0.392  0.1523 -1.3120  0.2909
 2304TIP3    H2 6919   1.818   0.650   0.280  0.8006  0.2535  0.1952
 2305TIP3   OH2 6920   5.610   0.460   3.720  0.3062  0.1293 -0.4650
 2305TIP3    H1 6921   5.642   0.380   3.761 -0.5550 -0.9274 -1.7649
 2305TIP3    H2 6922   5.535   0.487   3.774  0.2059 -0.3043 -0.3846
 2306TIP3   OH2 6923   0.560   2.944   5.058  0.0036 -0.0119 -0.4101
 2306TIP3    H1 6924   0.615   2.941   5.137 -0.3097 -3.2259 -0.1480
 2306TIP3    H2 6925   0.622   2.943   4.985  0.3267 -0.3524 -0.1378
 2307TIP3   OH2 6926   0.785   4.353   3.462  0.3641  0.3209 -0.2446
 2307TIP3    H1 6927   0.726   4.320   3.394 -1.4451  1.6636  0.5842
 2307TIP3    H2 6928   0.761   4.306   3.541 -1.1036  2.2490  0.5617
 2308TIP3   OH2 6929   3.791   4.466   1.673  0.0479  0.5053 -0.2668
 2308TIP3    H1 6930   3.728   4.406   1.632  1.0384  0.0672 -1.2217
 2308TIP3    H2 6931   3.851   4.409   1.720 -0.1906  0.9117  0.5467
 2309TIP3   OH2 6932   5.121   3.225   0.747 -0.2716  0.6904 -0.7835
 2309TIP3    H1 6933   5.081   3.225   0.660  0.3505  2.9153 -1.1280
 2309TIP3    H2 6934   5.215   3.238   0.731 -0.2468  1.9849  0.2047
 2310TIP3   OH2 6935   2.227   4.040   0.800 -0.3261 -0.0945  0.0171
 2310TIP3    H1 6936   2.302   4.041   0.861 -0.7483 -1.2459  0.5776
 2310TIP3    H2 6937   2.260   4.082   0.721  1.7750 -2.8769 -0.7302
 2311TIP3   OH2 6938   1.188   0.471   4.912 -0.4884  0.6368  0.8103
 2311TIP3    H1 6939   1.171   0.563   4.891  0.3603  0.7940  0.7674
 2311TIP3    H2 6940   1.132   0.453   4.987  0.8932  1.8402  2.2355
 2312TIP3   OH2 6941   1.589   5.586   4.737  0.5894  0.4561  0.1433
 2312TIP3    H1 6942   1.634   5.647   4.678  0.6724 -0.5886 -0.9159
 2312TIP3    H2 6943   1.533   5.534   4.679 -0.4031  0.3403  1.1854
 2313TIP3   OH2 6944   4.749   0.994   3.266  0.0706 -0.3638 -0.2166
 2313TIP3    H1 6945   4.829   0.941   3.257  0.5316  0.4268 -1.0346
 2313TIP3    H2 6946   4.690   0.940   3.318  0.8319 -1.3258 -0.3109
 2314TIP3   OH2 6947   4.277   4.895   1.288  0.5342  0.0789 -0.1524
 2314TIP3    H1 6948   4.285   4.979   1.332 -0.6896 -0.0971  0.4552
 2314TIP3    H2 6949   4.346   4.841   1.326  0.1982  0.2714  0.7483
 2315TIP3   OH2 6950   5.202   5.107   2.575  0.4956 -0.1552 -0.3485
 2315TIP3    H1 6951   5.222   5.034   2.635 -0.5920 -0.6612 -0.5755
 2315TIP3    H2 6952   5.132   5.155   2.619 -0.0998 -0.3521 -1.0609
 2316TIP3   OH2 6953   0.917   1.505   3.000 -0.4335  0.4326  0.1204
 2316TIP3    H1 6954   0.964   1.587   3.016  1.0581 -0.2001 -0.8271
 2316TIP3    H2 6955   0.984   1.443   2.974 -1.9109 -0.0717 -3.0212
 2317TIP3   OH2 6956   2.743   3.847   0.127  0.1460 -0.3705 -0.1928
 2317TIP3    H1 6957   2.672   3.782   0.119 -0.7938  0.5808  0.1330
 2317TIP3    H2 6958   2.823   3.795   0.131 -0.6409 -1.5775  0.9208
 2318TIP3   OH2 6959   4.058   4.555   0.894 -0.6497 -0.5765  0.1262
 2318TIP3    H1 6960   3.963   4.551   0.898 -0.6125 -0.7430  1.0316
 2318TIP3    H2 6961   4.079   4.648   0.901 -0.7471 -0.5328 -0.1671
 2319TIP3   OH2 6962   4.185   1.455   4.824 -0.4617 -0.2151 -0.2394
 2319TIP3    H1 6963   4.280   1.459   4.819 -0.4522  0.5778  0.4759
 2319TIP3    H2 6964   4.156   1.546   4.826 -1.2177 -0.4482 -0.0993
 2320TIP3   OH2 6965   5.062   2.324   4.587  0.1392 -0.8372  0.2756
 2320TIP3    H1 6966   5.011   2.275   4.652  0.4685 -0.9801  0.4310
 2320TIP3    H2 6967   5.105   2.393   4.638 -1.9409  0.9479 -0.2402
 2321TIP3   OH2 6968   3.743   1.846   0.465 -0.0046  0.0887 -0.3404
 2321TIP3    H1 6969   3.724   1.829   0.557  3.9841 -1.2349  0.4334
 2321TIP3    H2 6970   3.782   1.933   0.464 -2.0448  1.0473 -1.2149
 2322TIP3   OH2 6971   5.771   4.880   2.259  0.3704  0.6533 -0.2846
 2322TIP3    H1 6972   5.848   4.929   2.289  0.2156  0.7655 -0.0697
 2322TIP3    H2 6973   5.804   4.824   2.189  1.0071 -0.5699  0.9533
 2323TIP3   OH2 6974   1.315   2.839   3.563  0.0694  0.8462  0.4863
 2323TIP3    H1 6975   1.245   2.871   3.620 -1.1464 -3.6602  1.9888
 2323TIP3    H2 6976   1.272   2.826   3.478 -0.6904 -0.7580  1.0761
 2324TIP3   OH2 6977   0.792   1.295   0.207  0.0252 -0.7115  0.3459
 2324TIP3    H1 6978   0.791   1.211   0.253 -0.5975 -0.5711  0.5951
 2324TIP3    H2 6979   0.700   1.323   0.205  0.1731 -0.2337 -0.0983
 2325TIP3   OH2 6980   5.858   3.295   4.239 -0.1587 -0.7142  0.1076
 2325TIP3    H1 6981   5.846   3.296   4.334  0.2282  1.5744  0.1876
 2325TIP3    H2 6982   5.773   3.322   4.204 -0.1187 -0.9513 -0.1747
 2326TIP3   OH2 6983   1.557   0.950   0.801  0.2677 -0.2407  0.4298
 2326TIP3    H1 6984   1.592   1.024   0.851  1.0936 -0.9554  0.9502
 2326TIP3    H2 6985   1.632   0.892   0.789 -0.1798 -0.6156 -0.6852
 2327TIP3   OH2 6986   2.947   5.686   2.620 -0.1454  0.4671 -0.2508
 2327TIP3    H1 6987   2.890   5.759   2.647  0.7493  1.5520 -1.2237
 2327TIP3    H2 6988   3.031   5.727   2.601  1.0161 -1.1044  1.1468
 2328TIP3   OH2 6989   3.945   2.615   2.751  0.1227 -0.2060 -0.8042
 2328TIP3    H1 6990   3.868   2.602   2.695  1.1103  1.4226 -2.6650
 2328TIP3    H2 6991   4.013   2.645   2.692  2.0957 -1.0996  0.8805
 2329TIP3   OH2 6992   0.253   5.627   3.375  0.4407 -0.4222 -0.3886
 2329TIP3    H1 6993   0.183   5.638   3.311  0.7759  0.7129 -0.5911
 2329TIP3    H2 6994   0.328   5.671   3.336  0.5380  0.6669  0.9553
 2330TIP3   OH2 6995   5.737   4.826   3.928 -0.3875 -0.3861  0.5941
 2330TIP3    H1 6996   5.713   4.908   3.971  0.8944 -0.0072  0.6112
 2330TIP3    H2 6997   5.729   4.844   3.834  0.1674 -0.1542  0.5913
 2331TIP3   OH2 6998   3.650   5.171   3.198  0.4945 -0.2534 -0.0051
 2331TIP3    H1 6999   3.661   5.091   3.248 -1.3651  1.3732  3.3362
 2331TIP3    H2 7000   3.563   5.162   3.158  0.0298  0.2719  0.8556
 2332TIP3   OH2 7001   3.265   2.238   1.353 -0.2362 -0.0361  0.0675
 2332TIP3    H1 7002   3.235   2.286   1.275 -0.2434 -1.7606 -1.0381
 2332TIP3    H2 7003   3.356   2.216   1.334 -0.4410 -1.0632  0.2421
 2333TIP3   OH2 7004   2.608   5.609   2.637 -0.1108 -0.2092 -0.0701
 2333TIP3    H1 7005   2.591   5.685   2.693 -0.1165 -0.0977 -0.2245
 2333TIP3    H2 7006   2.683   5.634   2.584 -0.6875  0.0450 -0.7826
 2334TIP3   OH2 7007   4.341   3.350   5.177  0.4796 -0.1816  0.1138
 2334TIP3    H1 7008   4.356   3.415   5.109  0.5077  0.3913  0.6602
 2334TIP3    H2 7009   4.353   3.266   5.133 -0.0171  0.1659 -0.7046
 2335TIP3   OH2 7010   3.935   5.623   4.394  0.5358  0.4431 -0.0476
 2335TIP3    H1 7011   3.914   5.538   4.431 -3.0904  1.2721  0.2375
 2335TIP3    H2 7012   3.912   5.686   4.463  1.0933  1.7262 -0.9833
 2336TIP3   OH2 7013   4.191   2.541   3.683  0.0016 -0.2844 -0.0045
 2336TIP3    H1 7014   4.131   2.615   3.674 -0.0989 -0.2801  0.6857
 2336TIP3    H2 7015   4.262   2.561   3.621  0.6263  1.0408  1.0741
 2337TIP3   OH2 7016   5.797   0.302   3.256 -0.3998  0.3516 -0.8494
 2337TIP3    H1 7017   5.811   0.240   3.184  1.0818 -0.4680  0.0952
 2337TIP3    H2 7018   5.874   0.360   3.252 -0.1163  0.0763  0.2623
 2338TIP3   OH2 7019   5.882   1.518   0.717 -0.0984 -0.4082 -0.1814
 2338TIP3    H1 7020   5.850   1.552   0.633  0.3219  0.1860 -0.1046
 2338TIP3    H2 7021   5.977   1.513   0.706 -0.2172 -2.9442 -0.7001
 2339TIP3   OH2 7022   1.052   3.198   2.757 -0.5578 -0.1789 -0.0813
 2339TIP3    H1 7023   1.084   3.168   2.842 -0.5327 -0.8628 -0.3233
 2339TIP3    H2 7024   1.127   3.246   2.719  0.3353 -2.0287 -0.7718
 2340TIP3   OH2 7025   0.735   1.860   2.166  0.2143 -0.4691 -0.5959
 2340TIP3    H1 7026   0.728   1.894   2.255  0.2157  0.3717 -0.9108
 2340TIP3    H2 7027   0.817   1.810   2.166 -0.3350 -1.4102  0.1669
 2341TIP3   OH2 7028   1.937   0.299   1.655 -0.0143 -0.1183 -0.2477
 2341TIP3    H1 7029   1.843   0.296   1.672  0.2818 -0.4784  1.5008
 2341TIP3    H2 7030   1.952   0.384   1.614 -0.9362  0.4894  0.6347
 2342TIP3   OH2 7031   2.414   3.504   1.279  0.4525 -0.1947 -0.8482
 2342TIP3    H1 7032   2.432   3.442   1.208  1.4666 -2.6528  1.3862
 2342TIP3    H2 7033   2.490   3.499   1.335 -0.4852  1.3666  0.6703
 2343TIP3   OH2 7034   2.149   2.851   4.079 -0.3384 -0.0860 -0.6186
 2343TIP3    H1 7035   2.095   2.896   4.144 -0.7884 -1.7870  0.2305
 2343TIP3    H2 7036   2.187   2.777   4.125  1.1536 -0.0665 -1.7361
 2344TIP3   OH2 7037   4.351   2.691   0.222  0.5792  0.0800 -0.2565
 2344TIP3    H1 7038   4.287   2.699   0.293 -1.5499 -3.0230 -1.5991
 2344TIP3    H2 7039   4.334   2.767   0.166  0.8721  1.4324  1.3902
 2345TIP3   OH2 7040   3.009   4.714   3.217  0.3946  0.4501 -0.2619
 2345TIP3    H1 7041   3.024   4.715   3.123  0.6752 -1.0459 -0.2561
 2345TIP3    H2 7042   2.915   4.699   3.227  0.5691 -0.8212 -0.3328
 2346TIP3   OH2 7043   2.079   1.250   2.758 -0.3234  0.7199 -0.3802
 2346TIP3    H1 7044   2.116   1.267   2.845 -0.6057 -1.9652  0.3505
 2346TIP3    H2 7045   2.154   1.247   2.699  0.4629 -2.0493  0.6353
 2347TIP3   OH2 7046   2.974   1.749   3.893 -0.8048 -0.5855  0.0082
 2347TIP3    H1 7047   2.947   1.704   3.812  0.4713  0.7629 -1.2408
 2347TIP3    H2 7048   2.937   1.836   3.885 -1.6813 -0.7979  1.5036
 2348TIP3   OH2 7049   4.017   4.830   1.299 -0.3783 -0.5031  0.1052
 2348TIP3    H1 7050   4.020   4.747   1.347 -0.1672  0.4499  1.8017
 2348TIP3    H2 7051   4.107   4.842   1.268 -0.3196 -0.7221  0.1846
 2349TIP3   OH2 7052   1.738   0.380   3.604  0.1935 -0.1411  0.1990
 2349TIP3    H1 7053   1.735   0.470   3.637 -0.7205  0.8028 -2.2124
 2349TIP3    H2 7054   1.830   0.355   3.610  1.1610  2.3244 -2.2281
 2350TIP3   OH2 7055   3.617   0.834   1.707  0.0957  0.1135 -0.6565
 2350TIP3    H1 7056   3.556   0.884   1.761  0.7359 -0.5347  0.7149
 2350TIP3    H2 7057   3.575   0.830   1.621 -0.8027  1.4474 -0.3097
 2351TIP3   OH2 7058   4.060   1.118   2.392  0.0172  0.7717 -0.0965
 2351TIP3    H1 7059   4.114   1.072   2.328 -0.8232 -0.4370  0.0360
 2351TIP3    H2 7060   4.061   1.060   2.469 -1.4490  0.7330 -0.0909
 2352TIP3   OH2 7061   4.081   0.103   3.763  1.0863 -0.5839 -0.1874
 2352TIP3    H1 7062   3.997   0.141   3.737 -0.3338 -1.1934  2.9568
 2352TIP3    H2 7063   4.076   0.011   3.738 -0.3891 -1.2368  2.1587
 2353TIP3   OH2 7064   3.694   0.569   1.724 -0.4100  0.5988 -0.2945
 2353TIP3    H1 7065   3.661   0.658   1.729  1.0408  1.1706 -0.5459
 2353TIP3    H2 7066   3.713   0.555   1.632  0.3525  0.4077 -0.1141
 2354TIP3   OH2 7067   4.547   5.545  -0.030 -0.4484  0.3791  0.6268
 2354TIP3    H1 7068   4.590   5.546   0.055  0.4584  2.6450  0.2141
 2354TIP3    H2 7069   4.468   5.598  -0.018 -0.2669  0.7961  0.0579
 2355TIP3   OH2 7070   0.202   0.474   0.079 -0.2995 -0.2839 -0.7730
 2355TIP3    H1 7071   0.229   0.410   0.145 -1.3400  0.6710  0.6376
 2355TIP3    H2 7072   0.142   0.425   0.022  1.2394 -1.3412 -1.5624
 2356TIP3   OH2 7073   3.702   5.517   2.679 -0.2990 -0.2656  0.0771
 2356TIP3    H1 7074   3.658   5.508   2.763  0.3472  0.5958  0.5290
 2356TIP3    H2 7075   3.783   5.565   2.700 -0.9439  1.5107 -1.2753
 2357TIP3   OH2 7076   1.719   0.958   3.458  0.2841  0.2216 -0.6212
 2357TIP3    H1 7077   1.636   0.979   3.500  0.7281 -0.6439  0.7656
 2357TIP3    H2 7078   1.783   1.011   3.505  1.0258 -2.0033  1.0508
 2358TIP3   OH2 7079   4.496   5.343   4.946  0.1548 -0.0656  0.2030
 2358TIP3    H1 7080   4.508   5.342   5.041  1.4862 -1.4735  0.0773
 2358TIP3    H2 7081   4.420   5.398   4.931 -0.9930 -1.0163  2.1947
 2359TIP3   OH2 7082   5.319   0.227   2.356 -0.2514  0.4565 -0.1727
 2359TIP3    H1 7083   5.248   0.183   2.402 -1.2058  0.7760 -1.2880
 2359TIP3    H2 7084   5.345   0.298   2.415 -1.2801  0.7126 -0.0093
 2360TIP3   OH2 7085   3.748   4.675   3.499  0.3035  0.1601 -0.2291
 2360TIP3    H1 7086   3.833   4.634   3.486 -0.2181 -0.7724 -0.7509
 2360TIP3    H2 7087   3.727   4.658   3.591 -0.3979 -1.7345 -0.7030
 2361TIP3   OH2 7088   1.197   3.476   2.934  0.2270 -0.2475 -0.3744
 2361TIP3    H1 7089   1.112   3.477   2.977  1.4699 -1.8005  2.4081
 2361TIP3    H2 7090   1.227   3.567   2.939 -0.0447 -0.2231  1.3763
 2362TIP3   OH2 7091   2.457   2.730   0.566  0.2334 -0.0595  0.2824
 2362TIP3    H1 7092   2.537   2.678   0.574 -0.2877 -0.7762  0.9827
 2362TIP3    H2 7093   2.415   2.697   0.487  0.6328  0.3274 -0.0941
 2363TIP3   OH2 7094   0.187   2.371   4.578  0.2834  0.4750 -0.0935
 2363TIP3    H1 7095   0.218   2.410   4.660  0.6851 -0.7046  0.3267
 2363TIP3    H2 7096   0.223   2.283   4.578 -0.6196  0.0881 -1.0373
 2364TIP3   OH2 7097   5.550   4.805   0.302 -0.1740  0.2153  0.3945
 2364TIP3    H1 7098   5.583   4.804   0.391 -2.0328  2.4619  1.2035
 2364TIP3    H2 7099   5.514   4.717   0.289  0.2164 -0.1720  1.8089
 2365TIP3   OH2 7100   0.663   4.856   0.131  0.4626  0.3736  0.3110
 2365TIP3    H1 7101   0.733   4.873   0.067 -1.6120  2.2111 -1.6950
 2365TIP3    H2 7102   0.671   4.927   0.195 -1.2192  2.4759 -1.6145
 2366TIP3   OH2 7103   3.991   5.476   3.021  0.3816 -0.2492  0.4018
 2366TIP3    H1 7104   3.929   5.464   3.093 -0.9687  0.0308 -0.6827
 2366TIP3    H2 7105   4.069   5.512   3.063 -1.3388  2.6677  1.4215
 2367TIP3   OH2 7106   5.321   3.746   1.970  0.3009 -0.2034 -0.4589
 2367TIP3    H1 7107   5.295   3.663   2.010  1.2253 -0.4583 -0.3759
 2367TIP3    H2 7108   5.357   3.797   2.043 -0.6194  0.4318 -0.4290
 2368TIP3   OH2 7109   0.297   1.321   0.079  0.2555  0.1049 -0.1917
 2368TIP3    H1 7110   0.344   1.311  -0.003 -1.2537 -2.1473 -0.8818
 2368TIP3    H2 7111   0.230   1.253   0.077 -0.4391  0.5757  2.5073
 2369TIP3   OH2 7112   1.864   5.872   3.636  0.4936 -0.3201 -0.5334
 2369TIP3    H1 7113   1.804   5.926   3.585 -1.5113  0.4733  2.4067
 2369TIP3    H2 7114   1.871   5.790   3.586 -1.3075  0.3685 -2.0368
 2370TIP3   OH2 7115   3.261   0.737   1.617 -0.1104  0.0986  0.0365
 2370TIP3    H1 7116   3.262   0.818   1.669  1.4477  1.1171 -1.5002
 2370TIP3    H2 7117   3.296   0.671   1.676  1.3379  1.1610  0.4283
 2371TIP3   OH2 7118   2.160   5.597   1.443  0.0722  0.7070 -0.5209
 2371TIP3    H1 7119   2.127   5.596   1.353 -0.6827 -1.1216 -0.2594
 2371TIP3    H2 7120   2.240   5.651   1.439 -0.1793  0.9985 -2.1799
 2372TIP3   OH2 7121   4.078   0.062   0.171 -0.0870  0.3272  0.1026
 2372TIP3    H1 7122   4.047   0.152   0.164  1.8360  0.9333 -1.8084
 2372TIP3    H2 7123   4.167   0.065   0.136  0.3935 -2.1464  0.9340
 2373TIP3   OH2 7124   5.937   4.210   2.616 -0.2796  0.5810  0.5130
 2373TIP3    H1 7125   5.927   4.165   2.532  0.3157 -1.0665  1.2772
 2373TIP3    H2 7126   6.013   4.268   2.603  1.8708 -1.9885  0.7819
 2374TIP3   OH2 7127   3.141   1.996   5.154  0.0459  0.2551  0.5389
 2374TIP3    H1 7128   3.047   1.979   5.149  0.0923 -0.1888  1.0717
 2374TIP3    H2 7129   3.179   1.938   5.089 -0.1691  1.6392 -0.9028
 2375TIP3   OH2 7130   1.128   1.010   2.202 -0.6256 -1.1748  0.0643
 2375TIP3    H1 7131   1.063   1.047   2.142  0.4897  1.7311  0.4734
 2375TIP3    H2 7132   1.213   1.033   2.163  0.1221 -0.9479  1.7272
 2376TIP3   OH2 7133   4.985   0.250   3.437 -0.4245  0.2467  0.5764
 2376TIP3    H1 7134   5.075   0.278   3.423 -0.1984 -1.0089 -0.7183
 2376TIP3    H2 7135   4.976   0.244   3.532  1.0734 -0.2880  0.7064
 2377TIP3   OH2 7136   0.848   1.033   0.308 -0.3176 -0.1231  0.3582
 2377TIP3    H1 7137   0.936   1.054   0.337 -0.1944 -1.9948  1.5004
 2377TIP3    H2 7138   0.858   0.952   0.257 -1.3536 -0.3637  0.5085
 2378TIP3   OH2 7139   5.575   1.059   2.248  0.5239  0.2833  0.3373
 2378TIP3    H1 7140   5.619   1.103   2.175 -0.5658  0.6569 -0.1165
 2378TIP3    H2 7141   5.542   1.130   2.302 -1.5059  0.0778 -0.5588
 2379TIP3   OH2 7142   4.325   2.044   4.510 -0.9462 -0.4428  0.3277
 2379TIP3    H1 7143   4.392   2.088   4.459 -0.7245 -0.2674  0.7593
 2379TIP3    H2 7144   4.318   1.957   4.472 -0.4899 -0.4535  0.2611
 2380TIP3   OH2 7145   2.000   3.430   2.933 -0.1416 -0.4518 -0.4843
 2380TIP3    H1 7146   2.024   3.430   2.840  0.7065 -1.5742 -0.2855
 2380TIP3    H2 7147   1.960   3.344   2.948  0.3977 -0.5722  0.3482
 2381TIP3   OH2 7148   0.418   5.734   2.523 -0.2705  0.9050 -0.2598
 2381TIP3    H1 7149   0.502   5.727   2.477  0.6130 -3.2678  1.5203
 2381TIP3    H2 7150   0.354   5.699   2.461 -0.2071  1.3264 -0.5680
 2382TIP3   OH2 7151   1.619   2.357   1.701  0.0434 -0.0784 -0.2205
 2382TIP3    H1 7152   1.707   2.326   1.677 -0.0865 -0.4033 -0.2771
 2382TIP3    H2 7153   1.633   2.407   1.781  0.1019 -1.2056  0.4912
 2383TIP3   OH2 7154   0.594   3.891   2.656  0.3257 -0.2122  0.2662
 2383TIP3    H1 7155   0.636   3.827   2.599 -0.4946 -1.0805  0.6015
 2383TIP3    H2 7156   0.500   3.879   2.640  0.1608  0.9342  0.3133
 2384TIP3   OH2 7157   2.473   5.911   0.443  0.0626  0.8079  0.1330
 2384TIP3    H1 7158   2.455   5.972   0.514 -1.7572  2.2128 -1.4363
 2384TIP3    H2 7159   2.395   5.856   0.437 -0.1823  1.2491 -1.2492
 2385TIP3   OH2 7160   2.490   1.636   0.115 -0.5541 -0.1327  1.3239
 2385TIP3    H1 7161   2.417   1.616   0.057 -0.3428 -0.4417  1.1604
 2385TIP3    H2 7162   2.568   1.611   0.065 -0.4060 -1.1689  2.0504
 2386TIP3   OH2 7163   1.223   2.609   1.160  0.2698  0.4944 -0.3578
 2386TIP3    H1 7164   1.207   2.514   1.165  2.0453  0.1032 -1.4093
 2386TIP3    H2 7165   1.137   2.646   1.140 -0.4836 -0.8626  0.1862
 2387TIP3   OH2 7166   2.435   3.519   0.863 -0.3845 -0.1639  0.0385
 2387TIP3    H1 7167   2.508   3.580   0.856 -0.0660 -0.5399  0.0356
 2387TIP3    H2 7168   2.379   3.540   0.789 -0.6097  0.5511  0.3960
 2388TIP3   OH2 7169   1.972   2.475   3.904  0.2832  0.4833 -0.0720
 2388TIP3    H1 7170   1.984   2.408   3.837 -0.5856 -0.6591  0.8781
 2388TIP3    H2 7171   1.880   2.501   3.896  0.6099  1.5999 -0.4367
 2389TIP3   OH2 7172   0.864   5.764   5.135  0.2779 -0.0510  0.3731
 2389TIP3    H1 7173   0.884   5.747   5.043 -0.0199  3.0536 -0.3517
 2389TIP3    H2 7174   0.934   5.824   5.164 -1.6346  1.9901  1.0321
 2390TIP3   OH2 7175   5.124   0.613   4.508 -0.1494  0.0009  0.8240
 2390TIP3    H1 7176   5.158   0.668   4.579 -0.9598 -0.2643  1.4386
 2390TIP3    H2 7177   5.048   0.662   4.475 -1.9565 -1.4805  2.5371
 2391TIP3   OH2 7178   0.658   1.773   4.900 -0.2008  0.2353 -0.2995
 2391TIP3    H1 7179   0.572   1.730   4.895  0.4994 -1.2498 -0.0348
 2391TIP3    H2 7180   0.691   1.750   4.987 -0.3183  2.4176  0.3980
 2392TIP3   OH2 7181   3.839   4.718   1.781 -0.4897 -1.0618  0.4808
 2392TIP3    H1 7182   3.928   4.686   1.797  0.3962  0.7027 -0.6120
 2392TIP3    H2 7183   3.793   4.642   1.745  0.2417 -2.3041  2.0643
 2393TIP3   OH2 7184   5.429   0.603   0.744  0.2069 -0.1592  0.1239
 2393TIP3    H1 7185   5.398   0.582   0.656 -1.2909  1.0602  0.3307
 2393TIP3    H2 7186   5.461   0.693   0.738  3.1868 -1.0793  0.1118
 2394TIP3   OH2 7187   0.903   5.438   0.470  0.0435  0.7009  0.1359
 2394TIP3    H1 7188   0.822   5.476   0.505  0.5578  1.1337  0.9085
 2394TIP3    H2 7189   0.926   5.494   0.396  0.9184  2.1063  1.4100
 2395TIP3   OH2 7190   5.571   2.594   4.136 -0.0060  0.4005 -0.5264
 2395TIP3    H1 7191   5.552   2.678   4.094  0.1180  0.6106 -0.1681
 2395TIP3    H2 7192   5.486   2.564   4.167 -0.0576  0.3733 -0.6958
 2396TIP3   OH2 7193   1.773   5.884   2.472 -0.3174  0.3081  0.2875
 2396TIP3    H1 7194   1.826   5.934   2.534  1.3887 -1.2158  0.1450
 2396TIP3    H2 7195   1.831   5.813   2.443 -1.2923  0.5098 -2.4714
 2397TIP3   OH2 7196   3.216   0.664   4.381  0.0590 -0.4715 -0.4852
 2397TIP3    H1 7197   3.205   0.569   4.375 -1.5931 -0.5401  1.9836
 2397TIP3    H2 7198   3.143   0.693   4.437  1.2409  2.0839 -0.1200
 2398TIP3   OH2 7199   1.797   4.183   4.701  0.0408 -0.6271  0.5031
 2398TIP3    H1 7200   1.759   4.253   4.754 -1.9217 -1.2726  0.0010
 2398TIP3    H2 7201   1.849   4.132   4.763  0.8712  0.7882  1.0247
 2399TIP3   OH2 7202   4.928   1.688   1.003  0.5747 -0.0231  0.0327
 2399TIP3    H1 7203   4.999   1.626   1.023  1.8707  0.8381 -1.6589
 2399TIP3    H2 7204   4.954   1.728   0.920 -1.4470  1.0337 -0.1407
 2400TIP3   OH2 7205   5.836   0.799   2.084 -0.3883  0.4564  0.0498
 2400TIP3    H1 7206   5.897   0.869   2.060 -2.8649  3.2458  1.2047
 2400TIP3    H2 7207   5.824   0.810   2.179 -0.7906 -1.6610  0.2916
 2401TIP3   OH2 7208   4.244   4.689   2.042 -0.1728  0.3866 -0.3790
 2401TIP3    H1 7209   4.232   4.770   2.091 -0.6738 -0.5421  1.1302
 2401TIP3    H2 7210   4.337   4.670   2.048 -0.4297 -0.6030  1.8473
 2402TIP3   OH2 7211   0.055   5.900   5.216 -0.0838 -0.1341 -0.3281
 2402TIP3    H1 7212   0.103   5.856   5.146 -1.6130  1.0874 -2.2713
 2402TIP3    H2 7213  -0.033   5.863   5.212 -0.4578  0.6393  0.3254
 2403TIP3   OH2 7214   2.336   3.726   3.231  0.2269 -0.0283 -0.2115
 2403TIP3    H1 7215   2.339   3.690   3.143  0.4745 -0.4751 -0.0247
 2403TIP3    H2 7216   2.405   3.679   3.278  0.0498  0.1585  0.2370
 2404TIP3   OH2 7217   0.475   4.559   0.864  0.0768  0.0395 -0.1102
 2404TIP3    H1 7218   0.406   4.537   0.802 -0.1558 -1.3801  0.5995
 2404TIP3    H2 7219   0.457   4.649   0.889 -1.7311 -0.3870  0.2890
 2405TIP3   OH2 7220   6.165   5.930   4.776 -0.1845  0.4110 -0.4270
 2405TIP3    H1 7221   6.241   5.902   4.725 -1.6434 -0.5357 -2.2138
 2405TIP3    H2 7222   6.129   6.004   4.728 -1.7092 -0.6298 -0.9911
 2406TIP3   OH2 7223   0.190   1.727   2.998  0.1351 -0.0230  0.1969
 2406TIP3    H1 7224   0.150   1.671   2.931 -1.1073  0.5200  0.4689
 2406TIP3    H2 7225   0.116   1.768   3.042  1.0163  2.2818 -0.3475
 2407TIP3   OH2 7226   1.437   0.686   1.170  0.7741 -0.6806 -0.3533
 2407TIP3    H1 7227   1.342   0.678   1.178  0.5986  0.3693 -1.1211
 2407TIP3    H2 7228   1.461   0.621   1.104  0.7499 -1.7304  0.6566
 2408TIP3   OH2 7229   1.985   2.067   2.245  0.1440 -0.1847  0.2808
 2408TIP3    H1 7230   1.981   1.992   2.304  2.2139 -2.0887 -1.8050
 2408TIP3    H2 7231   2.076   2.070   2.215  0.0854  3.0391  0.0316
 2409TIP3   OH2 7232   1.350   4.067   2.453 -0.1066 -0.2232 -0.0469
 2409TIP3    H1 7233   1.371   4.158   2.472 -1.2589  0.3850 -1.5089
 2409TIP3    H2 7234   1.394   4.017   2.522  0.6729  1.4140  0.6856
 2410TIP3   OH2 7235   6.240   1.394   1.342  0.0015  0.5818 -0.0159
 2410TIP3    H1 7236   6.153   1.357   1.360 -0.3423  1.1452 -0.4798
 2410TIP3    H2 7237   6.231   1.435   1.256  0.9905 -0.1561 -0.4809
 2411TIP3   OH2 7238   0.892   0.716   2.882 -0.2450  0.0458  0.0930
 2411TIP3    H1 7239   0.967   0.770   2.859 -1.2536  1.0599 -0.9374
 2411TIP3    H2 7240   0.820   0.751   2.830 -1.3386 -1.1901  0.7072
 2412TIP3   OH2 7241   4.483   3.227   2.220  0.3729 -0.0275  0.0657
 2412TIP3    H1 7242   4.553   3.162   2.223 -0.2581 -0.9235 -2.4210
 2412TIP3    H2 7243   4.402   3.175   2.218 -0.2277  0.8988 -0.2163
 2413TIP3   OH2 7244   0.668   5.259   4.254 -0.5631 -0.0575 -0.6242
 2413TIP3    H1 7245   0.669   5.218   4.340  0.0237  0.5633 -0.3250
 2413TIP3    H2 7246   0.621   5.197   4.198 -1.3822 -0.2495  0.2512
 2414TIP3   OH2 7247   0.889   5.188   0.940  0.3040  0.9627 -0.0728
 2414TIP3    H1 7248   0.972   5.182   0.893 -0.5144 -0.2906 -1.4531
 2414TIP3    H2 7249   0.901   5.134   1.018  0.9835  1.3174  0.0705
 2415TIP3   OH2 7250   3.796   1.154   1.687  0.5427  0.0463  0.0535
 2415TIP3    H1 7251   3.737   1.159   1.611  1.0104  1.1761 -0.2505
 2415TIP3    H2 7252   3.744   1.189   1.760 -0.0950 -1.5367  0.4111
 2416TIP3   OH2 7253   0.284   4.769   2.282 -0.0547  0.4187 -0.1818
 2416TIP3    H1 7254   0.372   4.753   2.316 -0.6041  1.5150  1.8764
 2416TIP3    H2 7255   0.298   4.788   2.189  1.9470  1.0813  0.1986
 2417TIP3   OH2 7256   2.510   0.917   4.467  0.3963  0.2629  0.0822
 2417TIP3    H1 7257   2.430   0.892   4.420  0.5494  1.0363 -0.5891
 2417TIP3    H2 7258   2.554   0.980   4.410  0.8554  0.8083  1.0167
 2418TIP3   OH2 7259   5.069   2.158   4.995 -0.1726 -0.1747 -0.2743
 2418TIP3    H1 7260   4.996   2.103   4.966  1.0783 -1.0929 -1.7984
 2418TIP3    H2 7261   5.045   2.246   4.966 -0.7667 -0.4276 -0.5790
 2419TIP3   OH2 7262   3.803   0.492   3.190  0.1360 -0.6192  0.1084
 2419TIP3    H1 7263   3.852   0.572   3.208  0.1208 -0.6508  0.3023
 2419TIP3    H2 7264   3.852   0.447   3.122  0.7569 -0.9885  0.7865
 2420TIP3   OH2 7265   2.904   5.088   0.147 -0.1008  0.5416 -0.0308
 2420TIP3    H1 7266   2.852   5.015   0.113  0.5441 -0.4209  0.9558
 2420TIP3    H2 7267   2.929   5.060   0.236  1.0706  1.4903 -0.0317
 2421TIP3   OH2 7268   6.011   5.634   1.704 -0.0936  0.2496  0.0728
 2421TIP3    H1 7269   5.955   5.600   1.634  0.1542 -0.1149  0.0484
 2421TIP3    H2 7270   5.954   5.692   1.754 -0.8219 -1.0009  0.7511
 2422TIP3   OH2 7271   6.048   2.039   2.645  0.0358  0.3745  0.3861
 2422TIP3    H1 7272   6.073   2.093   2.720  2.5890 -0.6886  0.4071
 2422TIP3    H2 7273   6.018   1.956   2.684 -0.9425  0.6639  0.2714
 2423TIP3   OH2 7274   2.619   3.416   2.393  0.2147  0.3908 -0.2127
 2423TIP3    H1 7275   2.614   3.322   2.411  0.7645  0.1890 -1.0530
 2423TIP3    H2 7276   2.711   3.437   2.404  0.1267  0.7891 -0.2363
 2424TIP3   OH2 7277   5.883   3.355   3.819 -0.2281  0.1664 -0.2301
 2424TIP3    H1 7278   5.969   3.360   3.778 -0.5873  1.9967 -0.8171
 2424TIP3    H2 7279   5.823   3.340   3.746 -0.6689  1.4757 -0.1462
 2425TIP3   OH2 7280   2.701   2.121   0.639  0.5449 -0.3486  0.2553
 2425TIP3    H1 7281   2.626   2.109   0.582  0.0914  0.9313  0.5412
 2425TIP3    H2 7282   2.683   2.067   0.716 -0.4576  0.5136  0.6515
 2426TIP3   OH2 7283   3.614   2.463   2.343  0.3157 -0.6433 -0.1297
 2426TIP3    H1 7284   3.706   2.487   2.355  0.1086 -0.2458  0.6827
 2426TIP3    H2 7285   3.604   2.457   2.248  0.9198  0.3902 -0.2798
 2427TIP3   OH2 7286   1.665   0.956   4.533  0.3783 -0.5669  0.2302
 2427TIP3    H1 7287   1.586   0.906   4.556  0.1933 -0.5841 -0.4319
 2427TIP3    H2 7288   1.729   0.932   4.600 -0.5587  0.4017  1.5316
 2428TIP3   OH2 7289   2.339   0.384   4.784  0.5437  0.1297 -0.3080
 2428TIP3    H1 7290   2.288   0.423   4.713 -1.9363 -0.5827  0.9858
 2428TIP3    H2 7291   2.348   0.292   4.761  0.6830  0.1167 -0.2069
 2429TIP3   OH2 7292   3.889   1.370   3.076 -0.4492  0.3274 -0.0290
 2429TIP3    H1 7293   3.801   1.339   3.057 -0.4221  1.0005 -1.3441
 2429TIP3    H2 7294   3.930   1.298   3.124 -1.2813 -0.5314 -0.5804
 2430TIP3   OH2 7295   1.934   4.521   4.490 -0.1607 -0.2461  0.0252
 2430TIP3    H1 7296   1.946   4.434   4.527 -1.7646 -0.0710  1.0261
 2430TIP3    H2 7297   1.979   4.517   4.405  0.6990 -1.6935  0.5089
 2431TIP3   OH2 7298   2.268   0.191   2.110 -0.2161 -0.3013 -0.3468
 2431TIP3    H1 7299   2.220   0.267   2.143 -0.3687 -0.4743 -0.1651
 2431TIP3    H2 7300   2.205   0.146   2.054  0.1032  0.0952 -1.0330
 2432TIP3   OH2 7301   6.193   3.319   0.761 -0.2805  0.3935  0.4486
 2432TIP3    H1 7302   6.107   3.307   0.720  0.3314 -0.8096 -0.5258
 2432TIP3    H2 7303   6.181   3.394   0.820 -1.3784  1.7091 -1.3657
 2433TIP3   OH2 7304   1.451   3.666   3.695 -0.7754  0.0890 -0.3826
 2433TIP3    H1 7305   1.521   3.606   3.669 -0.7426 -0.0010 -0.0858
 2433TIP3    H2 7306   1.479   3.701   3.779 -0.7785  0.5502 -0.5670
 2434TIP3   OH2 7307   2.271   2.102   3.288  0.2170  0.4288 -0.5000
 2434TIP3    H1 7308   2.264   2.018   3.334 -0.2832  1.2898  1.0600
 2434TIP3    H2 7309   2.219   2.090   3.209  0.0776 -0.7057 -0.2531
 2435TIP3   OH2 7310   5.777   3.111   2.943 -0.8657 -0.4467 -0.0368
 2435TIP3    H1 7311   5.701   3.062   2.975  0.0495 -0.7659  1.7819
 2435TIP3    H2 7312   5.757   3.203   2.961 -1.0426 -0.4834 -0.0506
 2436TIP3   OH2 7313   3.774   1.916   1.275 -0.5653  0.1732  0.1011
 2436TIP3    H1 7314   3.727   1.943   1.353  1.2646  1.6661  0.7700
 2436TIP3    H2 7315   3.859   1.884   1.308 -0.7376 -1.6832 -1.0978
 2437TIP3   OH2 7316   2.302   2.389   3.662  0.1571 -0.3359 -0.0356
 2437TIP3    H1 7317   2.218   2.348   3.683  0.2652 -1.1296 -1.0861
 2437TIP3    H2 7318   2.300   2.473   3.709 -1.1040 -0.4644  0.1793
 2438TIP3   OH2 7319   5.546   4.191   2.523  0.8090 -0.2501 -0.0720
 2438TIP3    H1 7320   5.588   4.137   2.589 -0.5364 -1.1941  0.0288
 2438TIP3    H2 7321   5.474   4.235   2.569  0.1653 -0.5391 -0.7896
 2439TIP3   OH2 7322   1.965   5.052   0.132 -0.1578 -0.6622  0.3248
 2439TIP3    H1 7323   1.993   5.143   0.138 -0.1474 -0.6100 -0.4699
 2439TIP3    H2 7324   1.904   5.041   0.206  0.0627 -0.0997  0.5961
 2440TIP3   OH2 7325   5.862   3.518   1.172  0.2312 -0.3427  0.0533
 2440TIP3    H1 7326   5.915   3.503   1.250  1.4387  1.7882 -0.2551
 2440TIP3    H2 7327   5.918   3.573   1.116 -2.0330  1.4961 -0.5679
 2441TIP3   OH2 7328   5.576   0.817   1.339  0.4970 -0.2863 -0.4586
 2441TIP3    H1 7329   5.550   0.799   1.429 -0.3824  1.7532 -0.2613
 2441TIP3    H2 7330   5.656   0.869   1.347  0.0371  0.4957 -0.8093
 2442TIP3   OH2 7331   5.595   4.177   2.832 -0.4730 -0.0712  0.6601
 2442TIP3    H1 7332   5.628   4.263   2.807  0.5015 -0.5801  0.1827
 2442TIP3    H2 7333   5.571   4.187   2.925 -1.4150  1.0061  0.3270
 2443TIP3   OH2 7334   0.888   1.454   4.183  0.0232 -0.1430 -0.4477
 2443TIP3    H1 7335   0.963   1.460   4.241 -0.0775  0.3852 -0.3740
 2443TIP3    H2 7336   0.812   1.454   4.241 -0.0460 -0.4538 -0.5346
 2444TIP3   OH2 7337   2.837   0.969   2.953 -0.0994 -0.1806  0.2295
 2444TIP3    H1 7338   2.845   0.960   3.048  0.0429  0.6647  0.3047
 2444TIP3    H2 7339   2.747   0.945   2.934 -0.5920  1.1085  0.7842
 2445TIP3   OH2 7340   5.548   4.379   4.324  0.5514 -0.1974 -0.3411
 2445TIP3    H1 7341   5.526   4.390   4.232  1.3653  0.2121 -0.4941
 2445TIP3    H2 7342   5.466   4.399   4.371  0.6488  1.5785 -0.8706
 2446TIP3   OH2 7343   2.488   4.922   3.359 -0.1529 -0.2999  0.4270
 2446TIP3    H1 7344   2.451   4.882   3.438  2.3677 -0.0968  1.8034
 2446TIP3    H2 7345   2.582   4.922   3.374  0.4704 -0.7375 -2.8545
 2447TIP3   OH2 7346   2.798   1.124   3.632 -0.3388 -0.2120  0.0668
 2447TIP3    H1 7347   2.762   1.155   3.715 -0.2396 -2.9515  1.2577
 2447TIP3    H2 7348   2.728   1.069   3.596  1.2999 -3.0212  0.8500
 2448TIP3   OH2 7349   5.262   4.414   3.623 -0.0469  0.1132 -0.1428
 2448TIP3    H1 7350   5.350   4.441   3.594  0.2489 -0.7648 -0.0845
 2448TIP3    H2 7351   5.204   4.444   3.553  0.3831  0.1198 -0.5029
 2449TIP3   OH2 7352   6.050   4.389   1.025 -0.2270 -0.3105 -0.1871
 2449TIP3    H1 7353   5.969   4.359   0.985  0.1717 -1.2335 -0.3132
 2449TIP3    H2 7354   6.090   4.446   0.958 -1.3851  1.2517  0.3760
 2450TIP3   OH2 7355   0.853   4.574   1.301  0.4256  0.6595 -0.0227
 2450TIP3    H1 7356   0.852   4.496   1.357  0.8983  1.9961  1.9684
 2450TIP3    H2 7357   0.762   4.585   1.274 -0.0904  0.7100  1.6174
 2451TIP3   OH2 7358   6.268   2.701   1.983 -0.0180 -0.0087 -0.1349
 2451TIP3    H1 7359   6.305   2.653   2.057 -0.5124 -1.0966 -0.5649
 2451TIP3    H2 7360   6.205   2.640   1.945 -0.2651  0.7930 -1.0377
 2452TIP3   OH2 7361   4.857   2.317   1.762 -0.5195 -0.0955  0.1040
 2452TIP3    H1 7362   4.826   2.298   1.674  0.6943  1.0618 -0.6104
 2452TIP3    H2 7363   4.941   2.362   1.749 -0.0716 -0.3353  1.8584
 2453TIP3   OH2 7364   2.827   1.442   1.949  0.1076  0.1196 -0.4721
 2453TIP3    H1 7365   2.801   1.488   1.868  1.5218  1.7511 -0.0635
 2453TIP3    H2 7366   2.920   1.460   1.957  0.3290 -1.4311  0.6737
 2454TIP3   OH2 7367   5.827   3.557   2.638 -0.3778  0.1774  0.1791
 2454TIP3    H1 7368   5.867   3.642   2.655 -0.1127  0.5667 -2.1110
 2454TIP3    H2 7369   5.748   3.577   2.588 -0.1704 -0.9333 -0.6245
 2455TIP3   OH2 7370   3.923   1.398   0.552  0.1526 -0.6363  0.1550
 2455TIP3    H1 7371   3.922   1.480   0.601  0.9390 -0.7255  0.3423
 2455TIP3    H2 7372   4.004   1.401   0.501  1.3307 -2.1864  1.7789
 2456TIP3   OH2 7373   2.595   0.876   2.627  0.2175 -0.0090  0.1242
 2456TIP3    H1 7374   2.685   0.889   2.598 -0.3206  0.0241 -1.6379
 2456TIP3    H2 7375   2.541   0.904   2.553 -1.2854  0.8918  1.4860
 2457TIP3   OH2 7376   4.320   2.417   4.749  0.1863  0.1691 -0.3001
 2457TIP3    H1 7377   4.226   2.432   4.763  0.4318  0.2368  1.6816
 2457TIP3    H2 7378   4.339   2.461   4.666 -1.8663 -1.4538 -1.7332
 2458TIP3   OH2 7379   3.748   1.803   3.518 -0.2408  0.0148  0.2490
 2458TIP3    H1 7380   3.679   1.749   3.556  0.3283 -1.4616 -0.6975
 2458TIP3    H2 7381   3.712   1.892   3.517 -2.5126 -0.8350 -1.0627
 2459TIP3   OH2 7382   5.700   0.113   2.333 -0.3701  0.6437 -0.0364
 2459TIP3    H1 7383   5.710   0.140   2.425 -2.3805 -0.8954  0.7171
 2459TIP3    H2 7384   5.606   0.120   2.317  0.1121  2.8226 -2.6887
 2460TIP3   OH2 7385   5.573   5.040   3.939  0.2392  0.3608  0.3685
 2460TIP3    H1 7386   5.486   5.046   3.979 -0.4891 -0.1906 -1.0768
 2460TIP3    H2 7387   5.572   5.106   3.869  0.1895 -1.1184 -1.0621
 2461TIP3   OH2 7388   0.455   2.548   1.391  0.0092  0.3099  0.0485
 2461TIP3    H1 7389   0.387   2.513   1.447 -0.7105  0.2370 -0.8382
 2461TIP3    H2 7390   0.500   2.612   1.445 -2.5449  2.4353 -0.1457
 2462TIP3   OH2 7391   2.095   0.876   2.330 -0.1539 -0.6334 -0.3628
 2462TIP3    H1 7392   2.101   0.793   2.281  0.6956 -1.1144  0.5219
 2462TIP3    H2 7393   2.043   0.855   2.407  0.4220 -0.4598  0.0816
 2463TIP3   OH2 7394   1.085   5.391   5.209  0.0046 -0.3108  0.4035
 2463TIP3    H1 7395   1.117   5.427   5.127 -0.4160  0.6240  0.6250
 2463TIP3    H2 7396   0.999   5.433   5.221 -1.0642 -2.3030  0.1030
 2464TIP3   OH2 7397   4.771   2.891   0.359 -0.2026  0.4330  0.0716
 2464TIP3    H1 7398   4.864   2.891   0.382 -0.5423  2.6472  1.7999
 2464TIP3    H2 7399   4.740   2.804   0.384  1.2704 -0.1024  0.1149
 2465TIP3   OH2 7400   4.833   2.711   1.843  0.1096  0.0254 -0.3656
 2465TIP3    H1 7401   4.907   2.758   1.804  1.0214 -1.1685 -0.1333
 2465TIP3    H2 7402   4.775   2.780   1.875  1.0554  0.9929 -0.6626
 2466TIP3   OH2 7403   5.648   4.121   0.435 -0.3498 -0.0009 -0.5090
 2466TIP3    H1 7404   5.676   4.098   0.346  0.9364 -1.0899  0.1466
 2466TIP3    H2 7405   5.552   4.120   0.431 -0.3597 -2.7681 -1.2441
 2467TIP3   OH2 7406   6.144   5.536   3.043  0.4942 -0.3984  0.1887
 2467TIP3    H1 7407   6.160   5.536   3.137 -1.7481  2.7937  0.7340
 2467TIP3    H2 7408   6.226   5.567   3.004  0.9061 -0.1035  1.2709
 2468TIP3   OH2 7409   5.344   4.532   0.811  0.8345  0.4376  0.0347
 2468TIP3    H1 7410   5.310   4.618   0.837 -0.3937 -0.2311  0.7595
 2468TIP3    H2 7411   5.400   4.506   0.884  1.5693  0.8073 -0.3904
 2469TIP3   OH2 7412   0.678   3.369   4.401  0.6684  0.1228 -0.6234
 2469TIP3    H1 7413   0.599   3.381   4.452  0.4293 -0.4859 -0.8439
 2469TIP3    H2 7414   0.736   3.440   4.429  1.6030 -1.6985  2.4506
 2470TIP3   OH2 7415   0.144   0.012   3.567 -0.5230  0.0350  0.1759
 2470TIP3    H1 7416   0.166   0.092   3.520 -0.7208 -0.5256 -0.9027
 2470TIP3    H2 7417   0.056  -0.010   3.537 -0.7506 -0.2104  0.9975
 2471TIP3   OH2 7418   2.281   3.482   0.028  0.0428 -0.2413 -0.4251
 2471TIP3    H1 7419   2.320   3.515   0.109 -1.5090 -1.3648  0.8298
 2471TIP3    H2 7420   2.302   3.389   0.026  0.8723 -0.0530 -1.8284
 2472TIP3   OH2 7421   0.862   2.956   0.278 -0.2405  0.1725  0.3153
 2472TIP3    H1 7422   0.864   2.860   0.272  1.0447  0.2242 -0.3724
 2472TIP3    H2 7423   0.861   2.986   0.187  1.7731  0.8090  0.4511
 2473TIP3   OH2 7424   4.601   1.811   5.143  0.2986  0.7213 -0.4208
 2473TIP3    H1 7425   4.545   1.744   5.182  0.3878  0.6008 -0.4986
 2473TIP3    H2 7426   4.596   1.886   5.204  1.4710  0.0762  0.5211
 2474TIP3   OH2 7427   5.541   3.216   1.454  0.0179  0.4973  0.2333
 2474TIP3    H1 7428   5.526   3.272   1.378  0.0340  0.9416  0.5505
 2474TIP3    H2 7429   5.589   3.141   1.420 -3.1458 -1.1936 -0.9186
 2475TIP3   OH2 7430   2.637   5.226   0.600 -0.3766  0.7117  0.1596
 2475TIP3    H1 7431   2.629   5.140   0.557 -1.1368  1.2603 -0.8432
 2475TIP3    H2 7432   2.547   5.257   0.606 -0.3344  0.5158  2.5167
 2476TIP3   OH2 7433   2.984   2.642   4.800 -0.1549  0.2340  0.3865
 2476TIP3    H1 7434   3.025   2.559   4.773 -0.2073 -0.2784  1.7948
 2476TIP3    H2 7435   3.045   2.678   4.864  0.6647  2.1117 -1.3724
 2477TIP3   OH2 7436   1.595   0.790   3.231 -0.3597  0.4537  0.3420
 2477TIP3    H1 7437   1.663   0.758   3.290  0.5006  0.3976 -0.6581
 2477TIP3    H2 7438   1.565   0.871   3.270  0.5455  0.6655  0.6083
 2478TIP3   OH2 7439   3.933   5.767   3.168 -0.2819  0.1085  0.1850
 2478TIP3    H1 7440   3.852   5.802   3.205 -0.5415 -2.1086  1.8997
 2478TIP3    H2 7441   3.907   5.686   3.125  0.4986  1.1966 -2.6170
 2479TIP3   OH2 7442   0.778   4.599   4.242  0.0493  0.2063 -0.1157
 2479TIP3    H1 7443   0.830   4.606   4.162  0.0985  0.6941 -0.0469
 2479TIP3    H2 7444   0.778   4.688   4.278  0.3193 -0.0755  0.6093
 2480TIP3   OH2 7445   4.139   3.114   4.870 -0.0245  0.0537  0.1816
 2480TIP3    H1 7446   4.157   3.153   4.784  1.0348 -1.9329 -0.5712
 2480TIP3    H2 7447   4.223   3.121   4.916 -0.3419  0.3100  0.7182
 2481TIP3   OH2 7448   1.061   1.274   1.622  0.2559 -0.3094 -0.4839
 2481TIP3    H1 7449   1.138   1.314   1.583 -0.2225 -0.7005 -1.8980
 2481TIP3    H2 7450   1.032   1.209   1.558 -1.0437 -0.4161  0.1665
 2482TIP3   OH2 7451   1.418   5.956  -0.010  0.4720  0.1199 -0.0297
 2482TIP3    H1 7452   1.455   6.038   0.022 -0.0114  0.0570  0.7248
 2482TIP3    H2 7453   1.326   5.958   0.018  0.1897 -0.2342 -0.8723
 2483TIP3   OH2 7454   3.399   3.760   2.688 -0.0557  0.0176  0.3350
 2483TIP3    H1 7455   3.428   3.788   2.601 -0.2850  0.5264  0.4218
 2483TIP3    H2 7456   3.459   3.803   2.748 -1.1522  1.3266  0.5357
 2484TIP3   OH2 7457   0.446   0.669   1.913  0.0817 -0.0424  0.0337
 2484TIP3    H1 7458   0.457   0.592   1.858 -0.1983 -0.0117 -0.0696
 2484TIP3    H2 7459   0.437   0.634   2.002 -2.0316 -0.3025 -0.2153
 2485TIP3   OH2 7460   6.107   4.045   3.861  0.0887  0.5133 -0.2019
 2485TIP3    H1 7461   6.108   4.138   3.839 -1.3304  0.5642 -0.1657
 2485TIP3    H2 7462   6.065   4.041   3.947 -0.0201 -0.1643 -0.2783
 2486TIP3   OH2 7463   3.382   2.543   1.631  0.0687 -0.7449  0.1735
 2486TIP3    H1 7464   3.316   2.606   1.659  1.4064  0.3502  0.9801
 2486TIP3    H2 7465   3.401   2.565   1.540 -1.3221 -1.6764 -0.3729
 2487TIP3   OH2 7466   4.432   3.808   2.285  0.1011 -0.0287  0.1372
 2487TIP3    H1 7467   4.406   3.795   2.194  0.7694 -1.2080  0.0910
 2487TIP3    H2 7468   4.528   3.810   2.283  0.1020  1.2446  0.6628
 2488TIP3   OH2 7469   4.482   0.299   1.054  0.0511  0.1066 -0.3778
 2488TIP3    H1 7470   4.515   0.311   1.143 -0.5421  0.7597 -0.2378
 2488TIP3    H2 7471   4.387   0.291   1.064 -0.1330  1.2338 -1.0305
 2489TIP3   OH2 7472   5.724   1.420   3.114 -0.7425  0.1666  0.0244
 2489TIP3    H1 7473   5.804   1.467   3.094  0.0796 -1.8863 -2.0781
 2489TIP3    H2 7474   5.732   1.395   3.206  0.6773  0.6647  0.0509
 2490TIP3   OH2 7475   4.079   5.135   4.890 -0.2941  0.5965  0.2905
 2490TIP3    H1 7476   4.114   5.049   4.866  0.9768  1.3220 -0.5758
 2490TIP3    H2 7477   4.030   5.163   4.813 -0.5336  0.7334  0.4926
 2491TIP3   OH2 7478   2.906   2.065   3.037 -0.8891  0.2142  0.7918
 2491TIP3    H1 7479   2.836   2.108   3.085  0.5057  1.5875  1.6735
 2491TIP3    H2 7480   2.986   2.107   3.068  0.4405 -1.9977  0.5776
 2492TIP3   OH2 7481   5.345   3.658   2.291 -0.1263 -0.1237 -0.1447
 2492TIP3    H1 7482   5.364   3.602   2.215  1.2206  0.8173 -0.5373
 2492TIP3    H2 7483   5.347   3.747   2.256  0.3937  0.3192  0.9626
 2493TIP3   OH2 7484   4.200   1.584   4.501  0.5714  0.7077 -0.2094
 2493TIP3    H1 7485   4.285   1.627   4.510  1.0649  0.1568 -1.7747
 2493TIP3    H2 7486   4.212   1.523   4.428 -1.4097  1.1974 -1.0172
 2494TIP3   OH2 7487   2.567   3.452   1.760 -0.2285 -0.1280 -0.4120
 2494TIP3    H1 7488   2.586   3.437   1.667 -1.3607 -0.0001 -0.6786
 2494TIP3    H2 7489   2.553   3.547   1.766  2.0183  0.2205  0.3314
 2495TIP3   OH2 7490   3.945   0.304   0.116 -0.3901 -0.2101 -0.4310
 2495TIP3    H1 7491   3.881   0.271   0.180 -1.3733 -0.8500 -1.6892
 2495TIP3    H2 7492   3.891   0.348   0.050  0.5743  0.1435 -0.9890
 2496TIP3   OH2 7493   2.976   5.713   0.260 -0.0570  0.1649  0.8763
 2496TIP3    H1 7494   2.897   5.673   0.224  0.2850 -0.3652  0.7059
 2496TIP3    H2 7495   2.945   5.768   0.332 -0.6633  0.6146  0.2764
 2497TIP3   OH2 7496   4.780   5.566   2.495 -0.3500 -0.3643  0.4240
 2497TIP3    H1 7497   4.850   5.616   2.537  1.0060 -0.5756 -1.4695
 2497TIP3    H2 7498   4.819   5.481   2.476 -1.8675 -1.3318  1.3608
 2498TIP3   OH2 7499   4.674   3.414   2.195  0.1192  0.2009 -0.5316
 2498TIP3    H1 7500   4.583   3.384   2.203 -0.8347  2.1681 -2.6016
 2498TIP3    H2 7501   4.718   3.345   2.147 -0.6111 -0.2439 -0.5797
 2499TIP3   OH2 7502   5.417   3.186   4.120 -0.0354 -0.3922 -0.5504
 2499TIP3    H1 7503   5.371   3.108   4.150 -0.3283 -1.7152 -3.9299
 2499TIP3    H2 7504   5.347   3.245   4.092  0.0918  1.9540  3.3511
 2500TIP3   OH2 7505   4.718   5.264   4.796  0.1808 -0.2177 -0.2117
 2500TIP3    H1 7506   4.723   5.343   4.742 -0.7045 -0.4219 -0.5940
 2500TIP3    H2 7507   4.662   5.289   4.870  0.6063 -0.2331  0.1223
 2501TIP3   OH2 7508   0.950   2.612   1.733  0.1492  0.0394 -0.0535
 2501TIP3    H1 7509   1.031   2.604   1.683 -0.1024  0.4998 -0.5446
 2501TIP3    H2 7510   0.921   2.702   1.718 -0.8723 -0.3529 -0.5360
 2502TIP3   OH2 7511   0.891   5.954   2.859  0.0669 -0.0433  0.2095
 2502TIP3    H1 7512   0.879   5.904   2.778 -2.4563 -0.3717  0.7079
 2502TIP3    H2 7513   0.832   6.029   2.849 -0.1695 -0.0064  1.6696
 2503TIP3   OH2 7514   4.626   0.194   2.159 -0.5881 -0.3461  0.2934
 2503TIP3    H1 7515   4.604   0.265   2.098 -0.0581 -1.3964 -1.1721
 2503TIP3    H2 7516   4.712   0.217   2.194  0.3001 -0.9781 -1.3654
 2504TIP3   OH2 7517   5.059   2.552   1.988 -0.2746  0.1887 -0.2179
 2504TIP3    H1 7518   4.970   2.553   1.953 -0.2728  1.2796 -0.2286
 2504TIP3    H2 7519   5.092   2.640   1.971  1.0703 -0.4137 -0.8821
 2505TIP3   OH2 7520   1.883   5.602   1.584  0.4006 -0.1566  0.4820
 2505TIP3    H1 7521   1.899   5.685   1.628 -2.5388 -0.0176  1.5028
 2505TIP3    H2 7522   1.959   5.548   1.606  2.6572  2.3377 -0.6698
 2506TIP3   OH2 7523   0.351   5.234   4.530 -0.0129  0.1668  0.0365
 2506TIP3    H1 7524   0.428   5.182   4.553  0.0851  0.0804 -0.4675
 2506TIP3    H2 7525   0.349   5.232   4.434  0.7997  2.2183 -0.0865
 2507TIP3   OH2 7526   0.877   0.692   3.626  0.0451 -0.2241  0.2868
 2507TIP3    H1 7527   0.797   0.668   3.578 -0.1742  1.6103 -0.3385
 2507TIP3    H2 7528   0.846   0.726   3.710  0.0818  1.1854 -0.2450
 2508TIP3   OH2 7529   2.263   1.932   3.552  0.0478  0.2333  0.5583
 2508TIP3    H1 7530   2.357   1.917   3.563 -0.2851 -1.3159  1.8189
 2508TIP3    H2 7531   2.240   1.880   3.476 -0.0031 -0.5534  1.0954
 2509TIP3   OH2 7532   2.165   3.625   2.759 -0.0951  0.0374  0.4399
 2509TIP3    H1 7533   2.199   3.659   2.841  0.2610 -0.6789  0.5892
 2509TIP3    H2 7534   2.104   3.693   2.729 -1.3901 -0.3481  2.0469
 2510TIP3   OH2 7535   3.831   1.555   4.250 -0.2898 -0.0039 -0.4598
 2510TIP3    H1 7536   3.775   1.617   4.203  1.4488  2.4612  0.4563
 2510TIP3    H2 7537   3.904   1.539   4.191 -0.9498 -1.6416 -0.8767
 2511TIP3   OH2 7538   6.078   2.149   1.136  0.0633 -0.0075  0.4050
 2511TIP3    H1 7539   6.056   2.090   1.064  0.2512  1.0541 -0.5610
 2511TIP3    H2 7540   6.139   2.099   1.191 -0.4517 -1.0028  0.0985
 2512TIP3   OH2 7541   6.166   5.181   1.956  0.9345 -0.6201  0.1628
 2512TIP3    H1 7542   6.228   5.117   1.921  2.3241 -1.6400  3.9767
 2512TIP3    H2 7543   6.093   5.129   1.990  0.1857  0.2057 -0.1112
 2513TIP3   OH2 7544   0.290   3.706   0.569  0.1586 -0.1812  0.0322
 2513TIP3    H1 7545   0.321   3.690   0.658 -1.2900  0.8413  0.7568
 2513TIP3    H2 7546   0.224   3.639   0.553 -0.8911  0.7084  0.4530
 2514TIP3   OH2 7547   5.395   0.023   1.581  0.3198  0.0994 -0.1952
 2514TIP3    H1 7548   5.416  -0.035   1.508 -0.2725 -1.0664  0.5214
 2514TIP3    H2 7549   5.467   0.012   1.643  0.3542  0.3582 -0.1887
 2515TIP3   OH2 7550   6.236   1.458   1.078 -0.3579  0.5556 -0.1211
 2515TIP3    H1 7551   6.312   1.500   1.037  1.2064 -1.4607  0.5239
 2515TIP3    H2 7552   6.179   1.434   1.004  0.6979  0.1411 -0.8252
 2516TIP3   OH2 7553   3.552   3.137   0.860  0.0801  0.5530 -0.3062
 2516TIP3    H1 7554   3.561   3.054   0.814 -0.3574  1.0222 -1.2722
 2516TIP3    H2 7555   3.640   3.155   0.895 -0.2079 -1.1507  1.4469
 2517TIP3   OH2 7556   4.636   5.909   3.427 -0.4845 -0.1479 -0.5866
 2517TIP3    H1 7557   4.548   5.922   3.464  0.4478  0.9876  1.4036
 2517TIP3    H2 7558   4.637   5.817   3.400 -2.2339 -0.2204 -0.5316
 2518TIP3   OH2 7559   2.954   0.898   4.116 -0.0524  0.2128  0.2371
 2518TIP3    H1 7560   3.021   0.836   4.090  0.2976  0.8190 -0.3447
 2518TIP3    H2 7561   2.980   0.927   4.203 -0.5647 -0.9096  0.7879
 2519TIP3   OH2 7562   2.536   4.833   1.825 -0.3676 -0.2340 -0.0587
 2519TIP3    H1 7563   2.494   4.824   1.911 -0.9833  0.1615 -0.3129
 2519TIP3    H2 7564   2.523   4.925   1.802 -0.4642 -0.4106 -0.7110
 2520TIP3   OH2 7565   3.571   0.253   3.751  1.3045 -0.7133 -0.0912
 2520TIP3    H1 7566   3.629   0.299   3.811 -0.0573 -0.7302  1.3062
 2520TIP3    H2 7567   3.486   0.297   3.762  0.9802 -0.8301 -1.8911
 2521TIP3   OH2 7568   3.687   1.661   1.990  0.2373 -0.2624  0.2213
 2521TIP3    H1 7569   3.757   1.723   2.007 -0.7126  0.2965  2.3972
 2521TIP3    H2 7570   3.608   1.714   1.983 -0.5730 -1.1563  1.9823
 2522TIP3   OH2 7571   3.895   4.279   2.303  0.4094 -0.1618  0.1766
 2522TIP3    H1 7572   3.877   4.293   2.396  1.0361 -1.5241  0.5210
 2522TIP3    H2 7573   3.810   4.286   2.260  0.3479  2.3784  0.5597
 2523TIP3   OH2 7574   0.114   4.584   3.644 -0.0570 -0.8588 -0.3101
 2523TIP3    H1 7575   0.084   4.576   3.735 -1.3902  0.1960 -0.6299
 2523TIP3    H2 7576   0.034   4.592   3.593  0.7169  1.1724 -1.3057
 2524TIP3   OH2 7577   4.672   0.288   3.650 -0.2123 -0.1357  0.0929
 2524TIP3    H1 7578   4.676   0.199   3.687  0.5798 -0.2481 -0.2454
 2524TIP3    H2 7579   4.696   0.345   3.723  0.0430 -0.2565  0.1046
 2525TIP3   OH2 7580   5.243   1.612   2.643  0.1166  0.2173  0.0207
 2525TIP3    H1 7581   5.203   1.657   2.569 -1.7441  2.1207  2.0465
 2525TIP3    H2 7582   5.169   1.581   2.695  1.3716 -1.3296  0.9823
 2526TIP3   OH2 7583   3.922   2.354   0.331  0.7575  0.0021 -0.3615
 2526TIP3    H1 7584   4.017   2.366   0.337  0.8268 -0.3257 -0.8057
 2526TIP3    H2 7585   3.888   2.399   0.409  1.1610  1.3595 -0.9448
 2527TIP3   OH2 7586   4.205   3.516   4.602 -0.1651 -0.6783 -0.2424
 2527TIP3    H1 7587   4.270   3.576   4.566 -0.5680 -1.1759 -1.9122
 2527TIP3    H2 7588   4.121   3.553   4.575 -0.4552 -1.4011 -0.3472
 2528TIP3   OH2 7589   4.367   1.744   1.523 -0.8339 -0.1585  0.1420
 2528TIP3    H1 7590   4.348   1.837   1.513  1.8855  0.3440 -1.5431
 2528TIP3    H2 7591   4.376   1.732   1.617  0.9297  1.8911  0.3366
 2529TIP3   OH2 7592   5.731   3.742   1.724  0.1636 -0.2045 -0.2843
 2529TIP3    H1 7593   5.711   3.677   1.657 -2.7304  1.7307 -1.4828
 2529TIP3    H2 7594   5.679   3.716   1.800 -0.0300  0.0356 -0.3349
 2530TIP3   OH2 7595   6.306   3.341   1.739 -0.0964  0.0046  0.0898
 2530TIP3    H1 7596   6.307   3.415   1.801 -1.4628 -0.1265  0.3052
 2530TIP3    H2 7597   6.230   3.289   1.766  0.3591 -1.0316 -0.5882
 2531TIP3   OH2 7598   6.062   5.249   4.286  0.1406 -0.2432  0.0911
 2531TIP3    H1 7599   5.998   5.298   4.336 -1.1096 -0.1172 -1.5355
 2531TIP3    H2 7600   6.081   5.305   4.210  2.4326 -0.1398  0.6583
 2532TIP3   OH2 7601   2.227   4.752   0.501 -0.5374 -0.1401 -0.2277
 2532TIP3    H1 7602   2.183   4.793   0.427  2.4977  2.0998 -0.9665
 2532TIP3    H2 7603   2.316   4.736   0.471  0.0243 -1.8196  2.0478
 2533TIP3   OH2 7604   5.749   1.520   0.167  0.0498 -0.0735  0.0625
 2533TIP3    H1 7605   5.770   1.492   0.078 -1.3352 -0.4003 -0.1728
 2533TIP3    H2 7606   5.789   1.607   0.174  1.6256 -0.7281 -0.2850
 2534TIP3   OH2 7607   4.218   3.484   2.796 -0.2161  0.3554  0.1479
 2534TIP3    H1 7608   4.143   3.488   2.855 -0.9978  0.7427 -0.8318
 2534TIP3    H2 7609   4.258   3.571   2.803  0.2574  0.0926  0.8002
 2535TIP3   OH2 7610   1.744   0.613   2.879 -0.1799  0.0547  0.3079
 2535TIP3    H1 7611   1.711   0.640   2.794  2.1944  0.8107 -0.4603
 2535TIP3    H2 7612   1.717   0.521   2.887 -2.7052  0.6953 -0.0072
 2536TIP3   OH2 7613   5.933   3.628   3.322  0.0349 -0.0977 -0.1995
 2536TIP3    H1 7614   5.968   3.615   3.410  0.0540  0.5473 -0.1098
 2536TIP3    H2 7615   6.002   3.595   3.264  0.4620  0.4372 -0.0007
 2537TIP3   OH2 7616   0.546   4.860   0.597  0.5381  0.0729 -0.1794
 2537TIP3    H1 7617   0.489   4.845   0.522 -0.8757 -0.3016  0.9135
 2537TIP3    H2 7618   0.527   4.950   0.624 -0.9884 -0.6409  1.3058
 2538TIP3   OH2 7619   1.729   0.540   4.490  0.4759  0.5153 -0.1495
 2538TIP3    H1 7620   1.802   0.602   4.489  1.9539 -1.1248 -2.0640
 2538TIP3    H2 7621   1.756   0.469   4.431 -2.2487 -0.6795 -0.1368
 2539TIP3   OH2 7622   6.087   2.861   4.095  0.0852  0.2620  0.0738
 2539TIP3    H1 7623   5.999   2.897   4.090  0.4996  1.1665 -1.4416
 2539TIP3    H2 7624   6.144   2.937   4.084  1.0638 -0.3249  0.9135
 2540TIP3   OH2 7625   1.632   4.042   1.875 -0.2078  0.4210  0.3626
 2540TIP3    H1 7626   1.602   4.116   1.822 -1.3136  0.2815  0.7770
 2540TIP3    H2 7627   1.665   3.979   1.811  0.7438  1.2481 -0.0010
 2541TIP3   OH2 7628   1.717   3.163   2.832 -0.2276  0.0645  0.3164
 2541TIP3    H1 7629   1.792   3.170   2.891  0.1122 -1.2368  0.0772
 2541TIP3    H2 7630   1.756   3.150   2.746 -0.6921 -1.8345  0.3506
 2542TIP3   OH2 7631   1.819   4.941   3.817 -0.4556  0.3997 -0.0006
 2542TIP3    H1 7632   1.728   4.966   3.828 -0.3688  0.5823  0.3168
 2542TIP3    H2 7633   1.867   5.023   3.807 -0.3686  0.2904 -0.5334
 2543TIP3   OH2 7634   6.246   3.058   0.139  0.1066  0.3244 -0.0610
 2543TIP3    H1 7635   6.265   3.095   0.053 -0.1381  1.6492  0.4379
 2543TIP3    H2 7636   6.154   3.032   0.134 -0.1123  1.0691  0.0277
 2544TIP3   OH2 7637   2.002   0.991   0.848 -0.2185 -0.3897 -0.8915
 2544TIP3    H1 7638   2.033   0.923   0.908  1.0674  0.6952 -0.2686
 2544TIP3    H2 7639   1.984   1.067   0.904 -0.7252  0.0896 -1.6758
 2545TIP3   OH2 7640   0.146   5.909   1.206 -0.2654 -0.1029 -0.4292
 2545TIP3    H1 7641   0.237   5.920   1.235 -0.0691 -0.7365 -0.7655
 2545TIP3    H2 7642   0.093   5.932   1.282  0.1351  1.3614 -0.5693
 2546TIP3   OH2 7643   0.239   1.298   4.748  0.0414  0.2807 -0.4911
 2546TIP3    H1 7644   0.232   1.298   4.843 -0.9632  0.7528 -0.5501
 2546TIP3    H2 7645   0.307   1.234   4.729 -0.4947 -0.6182  0.5039
 2547TIP3   OH2 7646   4.685   0.030   3.778 -0.1236  0.1722 -0.2096
 2547TIP3    H1 7647   4.726  -0.045   3.821 -2.0828 -0.3447  0.8655
 2547TIP3    H2 7648   4.687   0.099   3.843 -0.4352  0.3272 -0.3640
 2548TIP3   OH2 7649   0.482   5.308   3.927  0.4429 -0.0773  0.3965
 2548TIP3    H1 7650   0.415   5.271   3.983  0.9616 -0.9281  0.4672
 2548TIP3    H2 7651   0.550   5.241   3.923  1.2481  0.7249  0.2516
 2549TIP3   OH2 7652   1.831   1.665   0.345  0.0857 -0.4429  0.2122
 2549TIP3    H1 7653   1.923   1.682   0.363  0.0545 -2.3568  2.7920
 2549TIP3    H2 7654   1.787   1.747   0.366  1.0870  0.1406  0.1075
 2550TIP3   OH2 7655   0.874   0.269   0.783 -0.1863  0.4790 -0.5111
 2550TIP3    H1 7656   0.963   0.256   0.816  0.0993  2.1535 -0.5305
 2550TIP3    H2 7657   0.886   0.306   0.696 -0.9220  0.0071 -0.8243
 2551TIP3   OH2 7658   1.808   3.858   3.864 -0.0971  0.0595  0.1012
 2551TIP3    H1 7659   1.883   3.811   3.902 -0.4829 -0.7174 -0.0783
 2551TIP3    H2 7660   1.802   3.938   3.916  0.0959 -0.4448  0.9342
 2552TIP3   OH2 7661   2.703   0.749   4.209 -0.0611  0.0252 -0.0056
 2552TIP3    H1 7662   2.736   0.834   4.241 -1.9735  0.3029  1.3816
 2552TIP3    H2 7663   2.720   0.751   4.115  1.5355  1.1758  0.2544
 2553TIP3   OH2 7664   4.930   4.071   4.797 -0.5451  0.6001  0.5671
 2553TIP3    H1 7665   4.906   4.069   4.889  0.0362 -1.0740  0.7017
 2553TIP3    H2 7666   5.022   4.044   4.794 -0.2517  1.5959 -0.4285
 2554TIP3   OH2 7667   1.083   1.291   2.925 -0.0109  0.2551 -0.0431
 2554TIP3    H1 7668   1.012   1.238   2.889  0.8294 -0.5505 -0.5520
 2554TIP3    H2 7669   1.149   1.293   2.856  0.7808  0.3756  0.6989
 2555TIP3   OH2 7670   5.726   4.224   1.664  0.0459 -0.4965  0.8493
 2555TIP3    H1 7671   5.679   4.306   1.649  1.1673 -0.0810 -0.6209
 2555TIP3    H2 7672   5.779   4.241   1.742 -0.3434 -0.0970  1.0268
 2556TIP3   OH2 7673   4.595   4.971   4.301  0.2205 -0.4096 -0.2995
 2556TIP3    H1 7674   4.543   5.035   4.252  0.2067 -0.4135 -0.2901
 2556TIP3    H2 7675   4.530   4.916   4.345  0.1082  1.8099  2.6833
 2557TIP3   OH2 7676   1.996   2.992   1.070 -0.1289 -0.0025  0.2590
 2557TIP3    H1 7677   1.965   3.043   0.995 -0.4873 -0.4916  0.0655
 2557TIP3    H2 7678   2.087   3.020   1.082 -0.1037  0.1676 -0.2839
 2558TIP3   OH2 7679   2.129   0.689   2.555 -0.0682 -0.0695 -0.0991
 2558TIP3    H1 7680   2.175   0.693   2.471 -0.4916  0.2637 -0.3165
 2558TIP3    H2 7681   2.193   0.653   2.616  0.8548  1.4410 -0.1402
 2559TIP3   OH2 7682   1.036   5.400   3.746  0.1711  0.2364 -0.4656
 2559TIP3    H1 7683   1.068   5.484   3.714  1.4074 -0.2951 -0.6789
 2559TIP3    H2 7684   0.942   5.414   3.760  0.3378  1.6165 -0.5723
 2560TIP3   OH2 7685   5.900   1.888   0.652 -0.1113 -0.6593  0.2480
 2560TIP3    H1 7686   5.819   1.929   0.683  0.7181  0.8121  0.5740
 2560TIP3    H2 7687   5.871   1.811   0.604 -1.8375  0.8000 -1.2273
 2561TIP3   OH2 7688   5.475   0.492   2.112  0.0604  0.0567 -0.3203
 2561TIP3    H1 7689   5.423   0.572   2.119 -1.2618 -0.7326 -0.8160
 2561TIP3    H2 7690   5.505   0.475   2.202 -2.2358 -0.5441  0.3969
 2562TIP3   OH2 7691   5.780   2.094   4.931  0.0117 -0.4937  0.1867
 2562TIP3    H1 7692   5.852   2.107   4.869  0.9048  0.0245  1.2833
 2562TIP3    H2 7693   5.813   2.030   4.994 -1.0487 -1.3591 -0.1186
 2563TIP3   OH2 7694   2.927   2.286   4.457  0.5597 -0.5529 -0.0680
 2563TIP3    H1 7695   2.983   2.360   4.479 -1.2011  1.0838 -0.8596
 2563TIP3    H2 7696   2.988   2.214   4.442  2.2199  0.0052  3.1305
 2564TIP3   OH2 7697   5.215   0.832   4.094 -0.0105 -0.7059  0.7416
 2564TIP3    H1 7698   5.120   0.839   4.083  0.3083  0.4308 -2.1051
 2564TIP3    H2 7699   5.241   0.916   4.133  0.0194 -0.0250 -0.6707
 2565TIP3   OH2 7700   3.437   3.597   4.454  0.1272 -0.1023  0.4510
 2565TIP3    H1 7701   3.442   3.529   4.387  0.1012 -0.6832  1.0281
 2565TIP3    H2 7702   3.453   3.551   4.537  1.4140  0.8050  0.7463
 2566TIP3   OH2 7703   0.748   1.857   1.533 -0.1221 -0.0299 -0.1184
 2566TIP3    H1 7704   0.810   1.847   1.606 -1.2713  0.6384  0.9753
 2566TIP3    H2 7705   0.777   1.791   1.470  2.1763  0.7552  0.0037
 2567TIP3   OH2 7706   3.665   4.245   1.384  0.0836  0.3534  0.1435
 2567TIP3    H1 7707   3.731   4.302   1.345 -0.9579  1.0016 -0.7354
 2567TIP3    H2 7708   3.634   4.293   1.460  1.8823 -0.7679  1.6886
 2568TIP3   OH2 7709   2.355   5.680   3.048  0.4027  0.3178 -0.1204
 2568TIP3    H1 7710   2.331   5.759   3.096  1.3796  0.9751 -0.6833
 2568TIP3    H2 7711   2.378   5.616   3.116  0.7299  0.8849  0.3086
 2569TIP3   OH2 7712   3.087   4.522   2.650 -0.0114 -0.0740  0.2428
 2569TIP3    H1 7713   3.049   4.449   2.700 -0.2700  1.0216  1.7296
 2569TIP3    H2 7714   3.136   4.480   2.580 -1.2486 -1.6305  0.2492
 2570TIP3   OH2 7715   2.253   0.989   3.635  0.3569 -0.3945  0.0549
 2570TIP3    H1 7716   2.252   1.075   3.678  1.7651 -0.1058 -0.4546
 2570TIP3    H2 7717   2.252   1.009   3.542  0.6226 -0.9290 -0.0677
 2571TIP3   OH2 7718   4.031   3.157   3.446 -0.2151  0.1186  0.2217
 2571TIP3    H1 7719   4.056   3.096   3.515  1.7095 -1.7251 -1.9491
 2571TIP3    H2 7720   3.991   3.102   3.379  0.4220  1.4187 -1.2680
 2572TIP3   OH2 7721   4.725   3.801   4.723  0.1800  0.4478 -0.3575
 2572TIP3    H1 7722   4.762   3.773   4.807  0.2395  2.0049  0.1541
 2572TIP3    H2 7723   4.762   3.888   4.707  2.0978 -0.7023 -3.1927
 2573TIP3   OH2 7724   4.007   0.425   3.042 -0.0880  0.1005 -0.0672
 2573TIP3    H1 7725   4.041   0.352   2.989  1.3444  1.4606 -1.1049
 2573TIP3    H2 7726   4.074   0.439   3.109 -0.2220  0.6450 -0.0444
 2574TIP3   OH2 7727   2.313   1.307   1.300  0.2499 -0.2643 -0.4496
 2574TIP3    H1 7728   2.281   1.321   1.389 -0.3493 -1.4779 -0.4536
 2574TIP3    H2 7729   2.241   1.262   1.256  1.7014 -2.5868 -0.6341
 2575TIP3   OH2 7730   3.912   1.656   0.390 -0.0251 -0.5188 -0.5958
 2575TIP3    H1 7731   3.863   1.739   0.389  2.7527  1.2511 -0.4039
 2575TIP3    H2 7732   3.933   1.642   0.482  2.7899  0.7373 -0.9592
 2576TIP3   OH2 7733   1.396   3.884   1.842 -0.7938 -0.2054 -0.5205
 2576TIP3    H1 7734   1.473   3.881   1.785 -0.2949  1.4167  0.0156
 2576TIP3    H2 7735   1.424   3.841   1.923 -1.2353 -1.7362 -1.1345
 2577TIP3   OH2 7736   0.075   1.899   3.743  0.0299  0.1988  0.9465
 2577TIP3    H1 7737   0.150   1.839   3.732 -0.8499 -0.5604 -1.9420
 2577TIP3    H2 7738   0.104   1.981   3.703 -0.6942 -0.1689 -0.3912
 2578TIP3   OH2 7739   2.183   1.637   2.503 -0.0782 -0.2208  0.1167
 2578TIP3    H1 7740   2.108   1.694   2.487  0.3735  0.4109  0.2250
 2578TIP3    H2 7741   2.176   1.569   2.435  1.0053  1.5954 -1.9468
 2579TIP3   OH2 7742   1.897   2.759   1.598  0.6004  0.0650 -0.4481
 2579TIP3    H1 7743   1.873   2.675   1.560  0.4778 -0.4092  0.6508
 2579TIP3    H2 7744   1.910   2.817   1.523 -1.1359 -0.4315 -1.1592
 2580TIP3   OH2 7745   6.066   0.926   4.766  0.3839  0.3410  0.2091
 2580TIP3    H1 7746   6.024   0.929   4.680 -0.4669  1.4402  0.6336
 2580TIP3    H2 7747   6.121   1.004   4.769  1.0689 -0.1443  0.3438
 2581TIP3   OH2 7748   4.246   2.190   3.917 -0.1761 -0.3579  0.0191
 2581TIP3    H1 7749   4.318   2.140   3.956  1.9807  1.3144 -1.5380
 2581TIP3    H2 7750   4.214   2.246   3.988 -0.0059 -1.1720  0.7508
 2582TIP3   OH2 7751   3.422   2.041   4.646  0.0344  0.3179 -0.1770
 2582TIP3    H1 7752   3.488   2.021   4.713  2.8120  1.4612 -2.4019
 2582TIP3    H2 7753   3.344   2.066   4.697  1.8757  0.8257  2.6332
 2583TIP3   OH2 7754   5.948   1.983   3.819  0.5319  0.1257 -0.2357
 2583TIP3    H1 7755   5.976   2.064   3.776 -1.1818  0.1459 -1.4115
 2583TIP3    H2 7756   5.980   1.913   3.762 -0.2574  0.0954 -0.6642
 2584TIP3   OH2 7757   4.037   2.902   1.223  0.4429  0.9472 -0.0717
 2584TIP3    H1 7758   4.080   2.984   1.248  1.1265  0.6577 -0.2786
 2584TIP3    H2 7759   3.984   2.878   1.299 -0.3332  1.9528 -0.2745
 2585TIP3   OH2 7760   3.403   1.908   1.255  0.3134  0.0435 -0.3734
 2585TIP3    H1 7761   3.461   1.976   1.289  0.9233  0.2347 -1.7241
 2585TIP3    H2 7762   3.424   1.903   1.161 -0.1366 -1.5970 -0.4193
 2586TIP3   OH2 7763   0.251   5.908   0.239 -0.1208  0.4850 -0.9392
 2586TIP3    H1 7764   0.235   5.814   0.252  1.1158  0.2258 -1.1416
 2586TIP3    H2 7765   0.198   5.931   0.163  0.8320 -0.4439 -1.9111
 2587TIP3   OH2 7766   1.114   1.018   1.137  0.4545  0.2278 -0.2902
 2587TIP3    H1 7767   1.092   0.945   1.195  0.3425 -0.1351 -0.7843
 2587TIP3    H2 7768   1.164   0.977   1.067  0.1526  0.5852 -0.7121
 2588TIP3   OH2 7769   0.316   1.274   3.742  0.1337 -0.0016 -0.0626
 2588TIP3    H1 7770   0.314   1.205   3.676  0.7422  0.4597 -0.5686
 2588TIP3    H2 7771   0.329   1.228   3.825  2.1731 -0.3959 -0.5626
 2589TIP3   OH2 7772   4.064   5.201   2.048 -0.3881 -0.3330  0.3422
 2589TIP3    H1 7773   4.122   5.222   2.120  0.4083 -0.5137 -0.2308
 2589TIP3    H2 7774   3.993   5.264   2.054  0.9305  1.2542 -0.1729
 2590TIP3   OH2 7775   6.115   2.287   1.616 -0.4191 -0.3289  0.0875
 2590TIP3    H1 7776   6.106   2.212   1.557 -2.1554  0.0020 -0.1302
 2590TIP3    H2 7777   6.207   2.311   1.611 -0.3823 -0.7290 -1.9976
 2591TIP3   OH2 7778   5.655   3.175   3.939 -0.4484 -0.0172 -0.0762
 2591TIP3    H1 7779   5.669   3.265   3.908  0.1169  0.0723  0.4312
 2591TIP3    H2 7780   5.577   3.181   3.994 -0.1527  0.2595  0.3240
 2592TIP3   OH2 7781   1.557   3.583   0.724  0.2858 -0.4105 -0.3790
 2592TIP3    H1 7782   1.470   3.588   0.763 -0.4197 -1.3930 -1.7449
 2592TIP3    H2 7783   1.584   3.674   0.712 -1.1409 -0.0637 -1.1782
 2593TIP3   OH2 7784   4.051   3.331   2.646 -0.1747  0.5380 -0.2654
 2593TIP3    H1 7785   4.121   3.392   2.670  0.1054  0.4190 -0.7825
 2593TIP3    H2 7786   3.993   3.381   2.589 -0.4345  0.5910  0.0410
 2594TIP3   OH2 7787   5.235   1.402   4.149  0.0029 -0.7245 -0.0122
 2594TIP3    H1 7788   5.309   1.404   4.210  0.2680 -0.3955 -0.3340
 2594TIP3    H2 7789   5.181   1.477   4.174  0.5746 -0.0606 -0.7360
 2595TIP3   OH2 7790   6.141   1.116   0.236 -0.4245 -0.3326 -0.2225
 2595TIP3    H1 7791   6.081   1.118   0.311 -0.9059  0.5425 -0.6119
 2595TIP3    H2 7792   6.085   1.093   0.161 -0.8485  2.8706 -1.0303
 2596TIP3   OH2 7793   3.937   3.051   1.902 -0.1093 -0.1401  0.1204
 2596TIP3    H1 7794   3.871   3.113   1.931  0.3700  1.9647 -2.8566
 2596TIP3    H2 7795   4.005   3.054   1.970 -1.4980  0.1958  1.5492
 2597TIP3   OH2 7796   2.267   3.136   2.798 -0.3440  0.6519  0.7353
 2597TIP3    H1 7797   2.198   3.126   2.733 -0.3160  0.2710  0.7607
 2597TIP3    H2 7798   2.341   3.086   2.762 -0.3917  0.2780  1.1471
 2598TIP3   OH2 7799   0.619   0.423   2.947 -0.4925 -0.1212 -0.0014
 2598TIP3    H1 7800   0.529   0.416   2.978 -0.5374  0.3575 -0.0128
 2598TIP3    H2 7801   0.655   0.334   2.956 -0.1160  0.1939  2.6095
 2599TIP3   OH2 7802   2.832   0.323   3.343 -0.1889  0.4323 -0.0358
 2599TIP3    H1 7803   2.886   0.386   3.391  1.2401 -0.0936 -0.8768
 2599TIP3    H2 7804   2.831   0.358   3.253 -2.3805  1.1293  0.2075
 2600TIP3   OH2 7805   3.948   2.979   4.212 -0.0558  0.3227 -0.0907
 2600TIP3    H1 7806   3.906   3.055   4.170  1.6099  0.5363 -1.5000
 2600TIP3    H2 7807   4.002   2.941   4.143  0.5476 -1.0809  1.1115
 2601TIP3   OH2 7808   0.121   5.285   4.270  0.2503 -0.3139 -0.1530
 2601TIP3    H1 7809   0.216   5.274   4.260  0.3103 -0.2920  0.3707
 2601TIP3    H2 7810   0.091   5.311   4.183  0.9165  1.0014 -0.0074
 2602TIP3   OH2 7811   4.080   2.582   1.154 -0.2739 -0.4003 -0.5955
 2602TIP3    H1 7812   3.988   2.558   1.144 -0.1716 -1.7672  1.2437
 2602TIP3    H2 7813   4.083   2.676   1.138 -1.9594 -0.3608 -0.7896
 2603TIP3   OH2 7814   0.034   1.074   2.314  0.4945  0.1085  0.3012
 2603TIP3    H1 7815  -0.018   1.150   2.340 -0.0878 -0.6542  1.4876
 2603TIP3    H2 7816   0.094   1.061   2.388  0.9668 -0.2438 -0.1443
 2604TIP3   OH2 7817   3.728   4.233   3.682  0.2521  0.0623  0.4952
 2604TIP3    H1 7818   3.753   4.141   3.672 -0.8043 -0.2649  0.7488
 2604TIP3    H2 7819   3.790   4.281   3.627  2.1210 -0.5950  1.9042
 2605TIP3   OH2 7820   5.968   5.089   1.092  0.0548 -0.0394  0.4452
 2605TIP3    H1 7821   6.000   4.999   1.102  1.0580  0.1775 -0.6383
 2605TIP3    H2 7822   6.040   5.136   1.048 -0.7656  1.0966  0.2679
 2606TIP3   OH2 7823   5.269   4.058   4.592  0.4991  0.2064  0.2662
 2606TIP3    H1 7824   5.217   3.980   4.574  0.2452  0.2735  0.6935
 2606TIP3    H2 7825   5.324   4.068   4.515  0.4792 -0.3492  0.1740
 2607TIP3   OH2 7826   1.624   5.909   4.822 -0.0053 -0.5843  0.0480
 2607TIP3    H1 7827   1.631   5.968   4.747  1.9194  0.4489  0.9814
 2607TIP3    H2 7828   1.531   5.886   4.826 -0.6971  1.7855 -0.8111
 2608TIP3   OH2 7829   4.501   4.783   1.792  0.2457  0.5553  0.3788
 2608TIP3    H1 7830   4.595   4.765   1.783  0.3053  0.5760  0.9489
 2608TIP3    H2 7831   4.497   4.876   1.815  0.0438  0.7371 -0.3614
 2609TIP3   OH2 7832   4.508   1.849   3.554 -0.0669 -0.0363 -0.1891
 2609TIP3    H1 7833   4.546   1.856   3.466 -1.0945 -0.9066 -0.7244
 2609TIP3    H2 7834   4.419   1.816   3.540 -1.0151  1.8266  1.0425
 2610TIP3   OH2 7835   4.729   3.419   3.857  0.2458  0.5380 -0.0722
 2610TIP3    H1 7836   4.776   3.336   3.850  1.2377  0.9838  0.9085
 2610TIP3    H2 7837   4.656   3.411   3.796 -1.4198 -2.1928  2.0169
 2611TIP3   OH2 7838   5.745   0.775   4.735  0.2269 -0.9868  0.2600
 2611TIP3    H1 7839   5.666   0.821   4.764 -0.6350 -1.3251 -1.3690
 2611TIP3    H2 7840   5.804   0.777   4.810 -0.7451  0.6006  1.0312
 2612TIP3   OH2 7841   0.566   4.523   2.454  0.0249 -0.0535  0.1966
 2612TIP3    H1 7842   0.552   4.482   2.540 -0.9076  1.5682  0.8684
 2612TIP3    H2 7843   0.630   4.592   2.471  0.1185  0.0356 -0.5069
 2613TIP3   OH2 7844   4.747   4.570   2.793  0.3422 -0.0115  0.1017
 2613TIP3    H1 7845   4.716   4.657   2.767 -0.5737 -0.3528 -0.0126
 2613TIP3    H2 7846   4.807   4.544   2.724 -2.3703 -1.0889 -2.0114
 2614TIP3   OH2 7847   4.526   4.192   2.854  0.4715 -0.3784  0.1075
 2614TIP3    H1 7848   4.525   4.146   2.769 -2.3404  0.2794 -0.3285
 2614TIP3    H2 7849   4.457   4.258   2.846 -0.5843 -0.9282  3.2421
 2615TIP3   OH2 7850   3.805   0.928   1.330  0.6190 -0.4988  0.2646
 2615TIP3    H1 7851   3.782   0.925   1.237  0.6294 -0.6519  0.2675
 2615TIP3    H2 7852   3.722   0.916   1.376  0.7332 -1.2880  0.2751
 2616TIP3   OH2 7853   5.536   3.739   4.000 -0.1597 -0.1007  0.1197
 2616TIP3    H1 7854   5.549   3.646   3.980  0.7999  0.1121 -0.3300
 2616TIP3    H2 7855   5.511   3.741   4.092  1.6856 -0.6906  0.6719
 2617TIP3   OH2 7856   2.756   2.764   4.225 -0.3215  0.1415  0.2528
 2617TIP3    H1 7857   2.793   2.679   4.250  0.4141  0.0384 -1.1288
 2617TIP3    H2 7858   2.716   2.797   4.306 -1.0679 -1.7352  0.6963
 2618TIP3   OH2 7859   0.479   5.532   4.608 -0.2533  0.4624  0.2001
 2618TIP3    H1 7860   0.510   5.449   4.646 -0.2332 -0.2040 -1.1935
 2618TIP3    H2 7861   0.546   5.596   4.630 -0.2544  0.1016  1.2755
 2619TIP3   OH2 7862   6.025   5.061   1.627 -0.3690  0.4865 -0.0940
 2619TIP3    H1 7863   6.115   5.029   1.637 -0.2215  0.7424 -0.5596
 2619TIP3    H2 7864   6.034   5.153   1.601 -0.7756  0.6595  0.3623
 2620TIP3   OH2 7865   3.409   4.500   1.342 -0.0416 -0.7608 -0.4513
 2620TIP3    H1 7866   3.334   4.547   1.306 -0.6342 -0.5730  0.9492
 2620TIP3    H2 7867   3.417   4.533   1.431  3.1264  0.8993 -1.2214
 2621TIP3   OH2 7868   4.935   0.384   4.052 -0.0711 -0.1137 -0.8204
 2621TIP3    H1 7869   4.927   0.316   4.119 -0.1963  0.9601  0.2999
 2621TIP3    H2 7870   4.853   0.380   4.003 -0.2328 -0.5101 -0.5223
 2622TIP3   OH2 7871   4.852   2.202   1.140  0.0646  0.2659 -1.0881
 2622TIP3    H1 7872   4.905   2.136   1.183 -0.4375  0.9310  0.6371
 2622TIP3    H2 7873   4.796   2.153   1.080  0.3499 -0.7602 -0.5322
 2623TIP3   OH2 7874   1.875   2.276   1.697  0.3577 -0.3056  0.2772
 2623TIP3    H1 7875   1.879   2.291   1.792  1.5687  0.1250  0.1689
 2623TIP3    H2 7876   1.961   2.301   1.665  0.2504 -1.2749 -0.8345
 2624TIP3   OH2 7877   4.208   4.020   3.842 -0.2001  0.2515 -0.2789
 2624TIP3    H1 7878   4.142   4.016   3.911 -0.2996 -0.5814 -0.4120
 2624TIP3    H2 7879   4.279   4.072   3.879 -0.3170 -0.0643  0.4007
 2625TIP3   OH2 7880   4.706   1.897   4.570 -0.9526 -0.3186 -0.2954
 2625TIP3    H1 7881   4.704   1.949   4.651 -0.1498 -0.5951 -0.0881
 2625TIP3    H2 7882   4.647   1.944   4.510  0.6171  1.5185 -0.5149
 2626TIP3   OH2 7883   2.302   3.095   0.287  0.1289 -0.2010  0.2755
 2626TIP3    H1 7884   2.263   3.182   0.287  1.0273  0.2538 -1.5012
 2626TIP3    H2 7885   2.396   3.110   0.274  0.2252 -1.4483 -0.7025
 2627TIP3   OH2 7886   4.943   4.081   3.128 -0.6030  0.7466  0.0582
 2627TIP3    H1 7887   4.931   4.009   3.190 -0.7887  0.6123 -0.1331
 2627TIP3    H2 7888   4.969   4.156   3.183 -1.1818  0.7447  0.3487
 2628TIP3   OH2 7889   5.963   0.322   0.738 -0.1069  0.4937 -0.3556
 2628TIP3    H1 7890   6.020   0.358   0.806 -1.1173  0.7476  0.3695
 2628TIP3    H2 7891   5.875   0.348   0.763 -0.5982 -0.2305 -1.2513
 2629TIP3   OH2 7892   6.110   0.138   1.801  0.1417 -0.6781  0.2631
 2629TIP3    H1 7893   6.020   0.170   1.812  0.9924  1.5278  1.7601
 2629TIP3    H2 7894   6.125   0.083   1.878  0.4277 -0.0037  0.7056
 2630TIP3   OH2 7895   1.218   3.480   0.528  0.0435 -0.5474 -0.5763
 2630TIP3    H1 7896   1.128   3.493   0.498  0.0462 -2.6595 -1.6238
 2630TIP3    H2 7897   1.258   3.567   0.522 -1.7069  0.2798 -0.7724
 2631TIP3   OH2 7898   1.271   5.195   0.970 -0.0569  0.3811 -0.2038
 2631TIP3    H1 7899   1.284   5.254   0.896  0.8567  1.2755  0.6298
 2631TIP3    H2 7900   1.241   5.113   0.932  1.3090  0.5131 -1.6348
 2632TIP3   OH2 7901   5.130   1.429   0.498 -1.0337 -0.1404 -0.4693
 2632TIP3    H1 7902   5.164   1.505   0.451 -0.0457 -0.6054 -0.5345
 2632TIP3    H2 7903   5.092   1.373   0.430  0.5248 -0.8813 -0.7768
 2633TIP3   OH2 7904   2.351   5.451   0.438 -0.6887 -0.4292  0.8954
 2633TIP3    H1 7905   2.347   5.356   0.442 -1.6402 -0.3627  3.1909
 2633TIP3    H2 7906   2.412   5.476   0.508 -1.1255  0.6541  0.9181
 2634TIP3   OH2 7907   5.692   1.574   4.213 -0.2613  0.6540  0.3023
 2634TIP3    H1 7908   5.699   1.546   4.122 -0.2569 -0.7822  0.7193
 2634TIP3    H2 7909   5.782   1.592   4.239  0.4859 -3.3584  1.2867
 2635TIP3   OH2 7910   5.885   1.052   4.191 -0.1547 -0.0641 -0.4837
 2635TIP3    H1 7911   5.946   1.097   4.133 -1.2080  1.2039 -0.6528
 2635TIP3    H2 7912   5.927   0.969   4.210  1.4681  0.6462 -0.8433
 2636TIP3   OH2 7913   2.522   2.290   3.494  0.0881  0.5040 -0.1723
 2636TIP3    H1 7914   2.455   2.346   3.455 -0.9971  0.3694  1.3715
 2636TIP3    H2 7915   2.485   2.202   3.490 -0.2832  0.5378  1.4759
 2637TIP3   OH2 7916   5.411   5.035   2.026 -0.1835 -0.7511  0.0244
 2637TIP3    H1 7917   5.381   5.108   2.080 -2.2552 -1.8295  0.4794
 2637TIP3    H2 7918   5.460   4.979   2.086  2.5674  0.8120 -0.6216
 2638TIP3   OH2 7919   2.013   2.058   3.487  0.1918  0.1127  0.2245
 2638TIP3    H1 7920   2.106   2.033   3.485  0.2594  0.3391  0.5525
 2638TIP3    H2 7921   1.966   1.976   3.475  0.4426  0.1593 -1.4009
 2639TIP3   OH2 7922   4.184   5.954   2.619 -0.9328 -0.2584  0.5685
 2639TIP3    H1 7923   4.186   5.923   2.710 -2.1920  0.3490  0.8286
 2639TIP3    H2 7924   4.207   6.047   2.626  0.4891 -0.5509  0.0704
 2640TIP3   OH2 7925   6.125   4.529   0.810 -0.0846  0.4370  0.1983
 2640TIP3    H1 7926   6.070   4.527   0.732  0.1839 -0.3408  0.0146
 2640TIP3    H2 7927   6.160   4.618   0.813 -0.2242  0.5175 -0.4783
 2641TIP3   OH2 7928   4.985   2.832   3.854  0.0766 -0.5904 -0.5275
 2641TIP3    H1 7929   4.969   2.915   3.810  0.1553 -0.6203 -0.6137
 2641TIP3    H2 7930   4.993   2.854   3.947 -0.4289 -0.5682 -0.4823
 2642TIP3   OH2 7931   3.575   2.432   3.210 -0.1435  0.7213 -0.3769
 2642TIP3    H1 7932   3.592   2.378   3.133  0.5604  0.6653 -0.1899
 2642TIP3    H2 7933   3.635   2.506   3.200 -0.4532  0.9997 -0.1678
 2643TIP3   OH2 7934   6.075   4.494   3.219  0.6268 -0.0631  1.0199
 2643TIP3    H1 7935   6.006   4.435   3.191  0.4571  0.3084  0.6515
 2643TIP3    H2 7936   6.115   4.450   3.295  0.4150 -0.5785  0.8361
 2644TIP3   OH2 7937   4.161   5.602   1.962  0.0582 -0.1536  0.0399
 2644TIP3    H1 7938   4.070   5.629   1.967  0.2985  0.9864 -0.9933
 2644TIP3    H2 7939   4.204   5.650   2.033  0.4717  2.3207 -1.7561
 2645TIP3   OH2 7940   0.998   3.712   5.085  0.1579  0.4894 -0.3507
 2645TIP3    H1 7941   1.084   3.674   5.069 -0.9374 -1.0378 -3.3370
 2645TIP3    H2 7942   0.960   3.656   5.153  0.9323  0.2284 -0.1160
 2646TIP3   OH2 7943   1.487   2.483   4.469 -0.1344  0.3279 -0.3937
 2646TIP3    H1 7944   1.547   2.556   4.484  0.0130  0.2319 -0.5078
 2646TIP3    H2 7945   1.459   2.493   4.378  0.7697 -0.3983 -0.7642
 2647TIP3   OH2 7946   3.062   2.430   2.374 -0.2541  0.4385  0.5880
 2647TIP3    H1 7947   3.104   2.433   2.459  1.4337 -0.0857 -0.1779
 2647TIP3    H2 7948   3.085   2.344   2.339 -1.1856  0.5180 -0.2628
 2648TIP3   OH2 7949   4.862   5.005   4.813  0.5245  0.2714 -0.0911
 2648TIP3    H1 7950   4.828   4.968   4.895  1.5263  0.6143  0.4900
 2648TIP3    H2 7951   4.829   5.095   4.811  0.4102  0.2289 -0.1241
 2649TIP3   OH2 7952   1.080   5.279   2.498 -0.1522  0.0880 -0.0135
 2649TIP3    H1 7953   1.108   5.368   2.479 -0.9742  0.1998 -0.7408
 2649TIP3    H2 7954   1.142   5.224   2.451  2.4759  0.0921  3.0803
 2650TIP3   OH2 7955   3.207   2.725   2.595  0.0700  0.2676  0.4570
 2650TIP3    H1 7956   3.216   2.633   2.618 -0.9376  0.1287  0.3283
 2650TIP3    H2 7957   3.193   2.769   2.679 -0.2630  0.1967  0.4389
 2651TIP3   OH2 7958   1.447   4.952   1.962  0.0766  0.1814  0.6296
 2651TIP3    H1 7959   1.353   4.944   1.978 -0.1534  2.1628  0.4829
 2651TIP3    H2 7960   1.456   4.965   1.868  0.6205 -1.1709  0.4694
 2652TIP3   OH2 7961   3.531   3.064   3.007 -0.5778  0.1239  0.6536
 2652TIP3    H1 7962   3.514   3.016   2.926  0.4565  0.8176  0.0008
 2652TIP3    H2 7963   3.585   3.004   3.058  0.7030  0.5420 -0.1579
 2653TIP3   OH2 7964   2.302   2.335   4.475 -0.0674 -0.0907 -0.4159
 2653TIP3    H1 7965   2.355   2.317   4.553  1.3421 -0.2227 -1.3729
 2653TIP3    H2 7966   2.336   2.276   4.408 -0.8997  0.3857 -1.2841
 2654TIP3   OH2 7967   0.974   0.346   1.120  0.3439  0.0788  0.0644
 2654TIP3    H1 7968   0.973   0.334   1.025  1.6030  0.2845  0.0059
 2654TIP3    H2 7969   0.892   0.391   1.139 -0.3203 -0.7374 -0.8102
 2655TIP3   OH2 7970   1.862   4.954   1.613 -0.2565 -0.0490  0.1799
 2655TIP3    H1 7971   1.799   4.896   1.656 -0.5523 -0.3164 -0.6020
 2655TIP3    H2 7972   1.823   4.973   1.528 -0.5796  1.9968  0.7424
 2656TIP3   OH2 7973   3.666   1.442   0.546 -0.7509 -0.5797  0.5097
 2656TIP3    H1 7974   3.755   1.413   0.526 -0.4810 -0.6623  1.7533
 2656TIP3    H2 7975   3.674   1.487   0.630 -1.8738 -0.5025  0.5917
 2657TIP3   OH2 7976   0.700   0.970   1.021  0.6317  0.1493  0.1333
 2657TIP3    H1 7977   0.731   0.891   0.975  1.6660 -0.1886  1.3684
 2657TIP3    H2 7978   0.704   1.039   0.955  1.4842 -0.4575 -0.4695
 2658TIP3   OH2 7979   2.807   2.290   2.852  0.0957 -0.1767 -0.1531
 2658TIP3    H1 7980   2.754   2.221   2.811  0.6830  0.4744 -2.1221
 2658TIP3    H2 7981   2.767   2.302   2.938 -0.1628 -2.8028  0.1883
 2659TIP3   OH2 7982   1.367   5.646   3.209 -0.0088  0.1939  0.1982
 2659TIP3    H1 7983   1.362   5.727   3.260  0.8346  0.5130 -0.1995
 2659TIP3    H2 7984   1.365   5.576   3.274 -2.3980  0.4270  0.4772
 2660TIP3   OH2 7985   6.023   3.336   0.399  0.3675 -0.6192  0.9044
 2660TIP3    H1 7986   6.050   3.427   0.416  2.7039 -0.8965 -0.8256
 2660TIP3    H2 7987   5.990   3.337   0.309 -0.6537 -1.3102  1.2546
 2661TIP3   OH2 7988   1.662   3.832   0.640  0.7096 -0.4804  0.5525
 2661TIP3    H1 7989   1.682   3.920   0.671 -1.8045  0.8477 -1.2320
 2661TIP3    H2 7990   1.720   3.819   0.565  1.6130 -0.6943  1.2686
 2662TIP3   OH2 7991   3.715   0.572   2.235 -0.2982  0.0744  0.0829
 2662TIP3    H1 7992   3.771   0.645   2.209 -0.9449  0.2718 -0.8045
 2662TIP3    H2 7993   3.695   0.526   2.153  0.5180 -1.4169  0.6857
 2663TIP3   OH2 7994   5.577   2.765   3.582  0.9139 -0.0324 -0.5241
 2663TIP3    H1 7995   5.548   2.839   3.635 -0.2449 -1.1303  0.4324
 2663TIP3    H2 7996   5.671   2.780   3.570  0.7265  1.5159 -0.2757
 2664TIP3   OH2 7997   5.280   4.449   4.898  0.2869  0.4214  0.3556
 2664TIP3    H1 7998   5.228   4.431   4.820 -2.1850  0.2690  1.9149
 2664TIP3    H2 7999   5.283   4.365   4.944  1.3670  0.6042  0.6480
 2665TIP3   OH2 8000   0.931   5.831   3.665 -0.0407  0.0254 -0.1077
 2665TIP3    H1 8001   1.020   5.848   3.634  0.1961 -1.3867 -0.2735
 2665TIP3    H2 8002   0.924   5.882   3.746  0.3872  1.3125 -0.8499
 2666TIP3   OH2 8003   1.562   4.967   3.675  0.1549  0.2283 -0.0969
 2666TIP3    H1 8004   1.611   4.952   3.594  1.7869  0.6775  0.7576
 2666TIP3    H2 8005   1.571   5.061   3.692 -1.5982  0.4580 -0.2379
 2667TIP3   OH2 8006   3.565   4.969   3.745  0.3052  0.1119  0.4522
 2667TIP3    H1 8007   3.504   4.974   3.671 -0.1113  1.5502  0.8573
 2667TIP3    H2 8008   3.637   5.026   3.720  0.5935 -0.1107  0.7705
 2668TIP3   OH2 8009   3.841   2.104   0.409 -0.2160  0.4535 -0.2271
 2668TIP3    H1 8010   3.923   2.066   0.442 -0.8070  0.3871  1.2222
 2668TIP3    H2 8011   3.869   2.181   0.359  0.7466  0.2769  0.0108
 2669TIP3   OH2 8012   0.935   1.403   4.910  0.7919  0.2078  0.5240
 2669TIP3    H1 8013   1.022   1.424   4.943  0.5397 -1.0958  2.1699
 2669TIP3    H2 8014   0.880   1.477   4.935  0.8847 -0.1800  1.9485
 2670TIP3   OH2 8015   5.234   3.535   4.506 -0.5708  0.5503 -0.3169
 2670TIP3    H1 8016   5.200   3.560   4.420  0.6777  2.0109 -0.4229
 2670TIP3    H2 8017   5.309   3.593   4.520  1.5312 -2.0661  0.1755
 2671TIP3   OH2 8018   4.893   3.034   0.966  0.7412 -0.2835 -0.1816
 2671TIP3    H1 8019   4.983   3.001   0.972  0.8691  0.2289  0.9036
 2671TIP3    H2 8020   4.896   3.096   0.893  1.0230 -0.9976 -0.7941
 2672TIP3   OH2 8021   4.682   1.578   0.934 -0.4759  0.1608  0.2886
 2672TIP3    H1 8022   4.708   1.539   0.851  0.1700  2.0925 -0.4683
 2672TIP3    H2 8023   4.763   1.616   0.969 -1.2973  2.0160  0.2829
 2673TIP3   OH2 8024   5.489   2.097   0.695  0.0399 -0.0208  0.4001
 2673TIP3    H1 8025   5.398   2.085   0.722  0.2317  0.0346  1.1044
 2673TIP3    H2 8026   5.485   2.104   0.600 -0.5541 -1.3573  0.2967
 2674TIP3   OH2 8027   4.191   3.734   1.105  0.8370  0.1722 -0.4574
 2674TIP3    H1 8028   4.145   3.683   1.172 -0.0408 -0.4738 -1.5330
 2674TIP3    H2 8029   4.271   3.684   1.088  0.2793 -0.5396 -1.0540
 2675TIP3   OH2 8030   2.075   3.112   2.554 -0.4149 -0.1151  0.1987
 2675TIP3    H1 8031   2.146   3.158   2.509  1.4085 -1.1487  1.8305
 2675TIP3    H2 8032   2.025   3.070   2.484  1.4287 -0.4714 -0.9747
 2676TIP3   OH2 8033   2.967   4.796   3.619  0.1433 -0.1771 -0.9632
 2676TIP3    H1 8034   3.020   4.738   3.565  1.7774 -0.4412  0.8228
 2676TIP3    H2 8035   2.932   4.740   3.689  0.2832  0.6412 -0.2200
 2677TIP3   OH2 8036   4.162   5.256   3.880  0.4608 -0.5419  0.0276
 2677TIP3    H1 8037   4.137   5.166   3.901  1.5205 -0.7321  0.5038
 2677TIP3    H2 8038   4.152   5.304   3.962 -0.0888 -0.2179 -0.2209
 2678TIP3   OH2 8039   4.465   5.414   4.464  0.2569 -0.1543  0.0640
 2678TIP3    H1 8040   4.396   5.480   4.467 -0.1566 -0.5485 -0.5935
 2678TIP3    H2 8041   4.454   5.370   4.380  0.9355 -0.6272  0.2072
 2679TIP3   OH2 8042   5.918   3.092   0.828  0.3305 -0.2635 -0.3993
 2679TIP3    H1 8043   5.938   3.183   0.806  0.3868 -0.4445 -1.1303
 2679TIP3    H2 8044   5.859   3.098   0.903 -0.3341  0.4130 -0.9519
 2680TIP3   OH2 8045   3.614   0.213   0.062  0.4239 -0.1060 -0.1948
 2680TIP3    H1 8046   3.666   0.265   0.122 -0.4630  2.6922 -1.6581
 2680TIP3    H2 8047   3.531   0.261   0.054 -0.7378 -2.1255 -1.1454
 2681TIP3   OH2 8048   5.226   1.671   2.227 -0.0752 -0.2357  0.9158
 2681TIP3    H1 8049   5.225   1.606   2.157 -1.7076  1.0959 -0.3876
 2681TIP3    H2 8050   5.165   1.636   2.293  0.7543 -1.0495  1.2696
 2682TIP3   OH2 8051   2.447   4.295   2.709  0.1332  0.0263  0.0218
 2682TIP3    H1 8052   2.397   4.317   2.631  0.0148  0.3154  0.1770
 2682TIP3    H2 8053   2.495   4.215   2.686  0.8756  0.6588 -0.6973
 2683TIP3   OH2 8054   5.969   3.768   4.736  0.4024 -0.0015 -0.0217
 2683TIP3    H1 8055   5.924   3.715   4.670 -0.5499  0.7609 -0.0245
 2683TIP3    H2 8056   6.025   3.827   4.685 -0.7807  0.9966 -0.2269
 2684TIP3   OH2 8057   0.238   5.810   5.035 -0.0388 -0.1886  0.4416
 2684TIP3    H1 8058   0.333   5.802   5.045  0.3509  1.1766 -1.5382
 2684TIP3    H2 8059   0.215   5.741   4.972  0.0621  0.9993 -0.9368
 2685TIP3   OH2 8060   0.414   2.128   3.763  0.4657 -0.5440 -0.4100
 2685TIP3    H1 8061   0.398   2.216   3.729  0.0342  0.4658  2.1688
 2685TIP3    H2 8062   0.458   2.082   3.691  1.4596  2.0242 -1.5640
 2686TIP3   OH2 8063   2.183   3.332   0.965 -0.3094 -0.1657  0.1239
 2686TIP3    H1 8064   2.200   3.240   0.944 -2.1993 -0.9386  1.5983
 2686TIP3    H2 8065   2.111   3.357   0.907  0.7528  0.6911 -0.8666
 2687TIP3   OH2 8066   2.056   4.868   3.959  0.1676 -0.4350  0.6534
 2687TIP3    H1 8067   2.019   4.865   3.870  0.1929  0.0133  0.6223
 2687TIP3    H2 8068   2.129   4.807   3.957  1.5669  1.1774 -0.2989
 2688TIP3   OH2 8069   2.632   5.033   0.985 -0.1205 -0.0392  0.0916
 2688TIP3    H1 8070   2.569   4.981   0.936 -0.2446 -0.3509  0.5806
 2688TIP3    H2 8071   2.718   5.004   0.953 -0.2139  0.2810 -0.4676
 2689TIP3   OH2 8072   2.306   5.274   3.373 -0.2905 -0.1603 -0.1383
 2689TIP3    H1 8073   2.274   5.187   3.399 -0.6706 -0.3068 -1.0467
 2689TIP3    H2 8074   2.372   5.255   3.305  2.0663  0.1070  1.9176
 2690TIP3   OH2 8075   0.067   1.921   4.257  0.1053  0.1790 -0.2441
 2690TIP3    H1 8076   0.024   1.967   4.329 -0.8795 -0.6743 -0.2530
 2690TIP3    H2 8077  -0.003   1.867   4.218  1.2073 -1.4001 -0.1535
 2691TIP3   OH2 8078   4.436   1.002   3.488  0.1525 -0.3992  0.5689
 2691TIP3    H1 8079   4.428   0.908   3.506  0.9239 -0.3852  1.0454
 2691TIP3    H2 8080   4.357   1.040   3.525 -1.4942 -1.1315 -1.9480
 2692TIP3   OH2 8081   3.262   3.510   2.528  0.4454  0.2861 -0.0063
 2692TIP3    H1 8082   3.294   3.578   2.587  1.0747  0.7894 -0.8966
 2692TIP3    H2 8083   3.226   3.443   2.585 -1.3707  1.9210  0.9031
 2693TIP3   OH2 8084   5.728   1.750   3.080 -0.3618  0.4909 -0.2251
 2693TIP3    H1 8085   5.786   1.676   3.063 -0.6432  0.3488 -0.5927
 2693TIP3    H2 8086   5.782   1.812   3.129 -0.4850 -0.4748  1.1817
 2694TIP3   OH2 8087   4.233   2.917   1.007  0.0559 -0.3269  0.1737
 2694TIP3    H1 8088   4.320   2.893   0.976 -0.2253 -2.2857  0.7466
 2694TIP3    H2 8089   4.228   2.880   1.096 -1.2684 -0.0559  0.2338
 2695TIP3   OH2 8090   4.956   5.330   0.066 -0.0368 -0.1116 -0.3340
 2695TIP3    H1 8091   4.929   5.342  -0.025 -0.5898 -0.0828 -0.1710
 2695TIP3    H2 8092   5.021   5.398   0.082 -0.8202  0.6474 -0.3518
 2696TIP3   OH2 8093   4.559   4.273   2.421 -0.4245 -0.0062 -0.6830
 2696TIP3    H1 8094   4.483   4.236   2.376 -0.7031 -0.2236 -0.0499
 2696TIP3    H2 8095   4.620   4.200   2.429 -0.1047  0.1933 -1.2787
 2697TIP3   OH2 8096   3.235   1.456   3.270  0.4908 -0.1290 -0.3814
 2697TIP3    H1 8097   3.187   1.527   3.227 -0.4406 -1.3905 -1.4910
 2697TIP3    H2 8098   3.285   1.500   3.339 -1.1835  1.4271 -0.0712
 2698TIP3   OH2 8099   6.308   4.403   0.664  0.1700  0.3234 -0.5051
 2698TIP3    H1 8100   6.251   4.431   0.736  1.4456 -0.3173  0.7977
 2698TIP3    H2 8101   6.297   4.471   0.598 -0.0770  1.6207  0.8145
 2699TIP3   OH2 8102   5.050   2.626   5.083 -0.0014  0.5197 -0.1809
 2699TIP3    H1 8103   5.127   2.579   5.054  0.6030  1.9022 -0.9093
 2699TIP3    H2 8104   5.080   2.678   5.158 -0.0159  1.5680 -0.8688
 2700TIP3   OH2 8105   4.350   2.121   2.948 -0.3086  0.1952 -0.3171
 2700TIP3    H1 8106   4.414   2.156   3.010 -0.5664 -0.9885  0.6427
 2700TIP3    H2 8107   4.265   2.138   2.989 -0.5356  0.3379 -0.8407
 2701TIP3   OH2 8108   4.948   5.539   3.474 -0.4304  0.0861 -0.3030
 2701TIP3    H1 8109   5.018   5.496   3.425 -0.2864 -0.2794  0.2193
 2701TIP3    H2 8110   4.991   5.614   3.516 -0.7539  0.9707 -1.4976
 2702TIP3   OH2 8111   1.727   5.366   1.541 -0.2928  0.0796  0.2173
 2702TIP3    H1 8112   1.652   5.425   1.534  0.0502  0.7969  2.0791
 2702TIP3    H2 8113   1.798   5.421   1.573  0.2874 -1.1412  1.0918
 2703TIP3   OH2 8114   2.440   4.487   1.535  0.0278 -0.0642  0.2804
 2703TIP3    H1 8115   2.434   4.440   1.453  0.0613  1.3679 -0.5733
 2703TIP3    H2 8116   2.356   4.533   1.543  0.0448 -0.1361  1.0311
 2704TIP3   OH2 8117   4.347   5.121   2.929  0.0764 -0.1218 -0.1269
 2704TIP3    H1 8118   4.275   5.058   2.931  0.6893 -0.8404 -0.4842
 2704TIP3    H2 8119   4.370   5.134   3.021  0.5500 -1.1244 -0.0956
 2705TIP3   OH2 8120   1.846   4.041   4.953 -0.4955 -0.2979  0.2450
 2705TIP3    H1 8121   1.783   3.981   4.993 -1.9840 -0.8865 -2.6980
 2705TIP3    H2 8122   1.903   3.985   4.900 -0.1008  0.6074 -0.3235
 2706TIP3   OH2 8123  -0.026   0.138   4.271 -0.2746  0.3419 -0.3994
 2706TIP3    H1 8124   0.020   0.084   4.207 -0.1051 -1.3953  1.0833
 2706TIP3    H2 8125   0.010   0.226   4.259  0.0032  0.0020 -2.3971
 2707TIP3   OH2 8126   2.871   4.378   3.035  0.2832 -0.3053 -0.7792
 2707TIP3    H1 8127   2.803   4.420   2.982  1.9526  1.8695 -1.3556
 2707TIP3    H2 8128   2.829   4.300   3.071 -2.7676  1.3657 -0.3971
 2708TIP3   OH2 8129   2.907   5.032   1.924 -0.5057  0.1888 -0.7124
 2708TIP3    H1 8130   2.878   4.982   1.848 -0.3459  0.3967 -0.9117
 2708TIP3    H2 8131   2.830   5.036   1.981 -1.5647  2.5393 -2.1738
 2709TIP3   OH2 8132   5.057   4.470   1.278 -1.0214 -0.2279 -0.3230
 2709TIP3    H1 8133   5.148   4.487   1.254 -0.3828 -0.2772  1.8335
 2709TIP3    H2 8134   5.006   4.499   1.202  0.7964 -0.6737 -1.7878
 2710TIP3   OH2 8135   2.955   5.124   0.745 -0.1543 -0.2086 -0.1015
 2710TIP3    H1 8136   2.919   5.204   0.708 -2.1662 -0.2486  1.5513
 2710TIP3    H2 8137   3.021   5.095   0.682  0.2847  2.4526 -0.9766
 2711TIP3   OH2 8138   6.262   4.227   0.419 -0.2440 -0.3314  0.1119
 2711TIP3    H1 8139   6.185   4.275   0.451 -0.2133  0.7901 -1.3843
 2711TIP3    H2 8140   6.330   4.245   0.484 -0.3251  1.4667 -0.2374
 2712TIP3   OH2 8141   0.853   2.274   5.147  0.4790 -0.3198 -0.4092
 2712TIP3    H1 8142   0.902   2.351   5.176  0.6200 -0.4906 -0.1947
 2712TIP3    H2 8143   0.862   2.211   5.218  0.1141 -0.4266 -0.4554
 2713TIP3   OH2 8144   4.827   1.205   2.042 -0.5268 -0.3690  0.0406
 2713TIP3    H1 8145   4.844   1.116   2.074 -0.5503  0.0280  1.1763
 2713TIP3    H2 8146   4.741   1.226   2.078 -0.5898  0.0626 -0.3609
 2714TIP3   OH2 8147   4.210   4.562  -0.002 -0.1629 -0.7022 -0.1938
 2714TIP3    H1 8148   4.127   4.526  -0.033 -1.8673  2.1862  0.5947
 2714TIP3    H2 8149   4.214   4.537   0.091  0.0008 -1.0637 -0.2958
 2715TIP3   OH2 8150   6.294   2.973   2.576 -0.2348  0.1727  0.2378
 2715TIP3    H1 8151   6.300   2.975   2.481  0.1881 -1.4005  0.2026
 2715TIP3    H2 8152   6.285   3.065   2.602  0.0567  0.6503 -1.2803
 2716TIP3   OH2 8153   2.022   0.468   5.223 -0.6036 -0.2882  0.4191
 2716TIP3    H1 8154   2.069   0.439   5.145 -2.3034  0.7979 -1.0874
 2716TIP3    H2 8155   1.929   0.457   5.201 -1.1396 -0.1515  2.3802
 2717TIP3   OH2 8156   5.599   0.804   1.945  0.6343 -0.0301  0.1850
 2717TIP3    H1 8157   5.641   0.776   1.863  0.4658  0.4881 -0.0839
 2717TIP3    H2 8158   5.672   0.831   2.001  0.7656 -0.5893  0.2867
 2718TIP3   OH2 8159   0.707   2.499   5.006  0.0732 -0.3598 -0.4523
 2718TIP3    H1 8160   0.731   2.432   5.070  1.6961  1.1261  0.5646
 2718TIP3    H2 8161   0.630   2.542   5.043 -0.0350 -0.6287 -0.3625
 2719TIP3   OH2 8162   2.956   5.375   3.120 -0.5236  0.0853  0.1875
 2719TIP3    H1 8163   2.935   5.290   3.081  0.3071 -0.3652  0.6815
 2719TIP3    H2 8164   2.975   5.355   3.212 -1.4774  0.9859  0.5920
 2720TIP3   OH2 8165   1.065   3.609   2.124  0.1623 -0.1416 -0.4871
 2720TIP3    H1 8166   1.020   3.585   2.205  1.5924  1.7997  0.9788
 2720TIP3    H2 8167   1.156   3.621   2.150  0.3415  2.3434 -1.9323
 2721TIP3   OH2 8168   1.691   1.420   4.147 -0.1377  0.0389  0.0727
 2721TIP3    H1 8169   1.660   1.333   4.123 -0.3839  0.2606 -0.4288
 2721TIP3    H2 8170   1.688   1.421   4.243 -0.5416 -0.3550  0.0676
 2722TIP3   OH2 8171   2.597   5.809   1.205  0.1451  0.1525  0.8335
 2722TIP3    H1 8172   2.520   5.783   1.155 -0.4077  1.7660  0.7871
 2722TIP3    H2 8173   2.672   5.781   1.152 -0.4198 -0.2239  0.2339
 2723TIP3   OH2 8174   4.757   4.618   3.469  0.0022  0.0466 -0.6241
 2723TIP3    H1 8175   4.777   4.686   3.405 -0.9769 -0.5468 -1.6034
 2723TIP3    H2 8176   4.756   4.536   3.418 -0.1397 -0.5303  0.2786
 2724TIP3   OH2 8177   0.586   0.912   3.024 -0.1337  0.1514 -0.7001
 2724TIP3    H1 8178   0.605   0.830   2.978 -1.7333 -0.5467 -0.1802
 2724TIP3    H2 8179   0.591   0.979   2.956 -0.8110 -0.6482 -1.5627
 2725TIP3   OH2 8180   3.383   4.452   4.485  0.5042  0.2045  0.3700
 2725TIP3    H1 8181   3.437   4.396   4.540  0.4787 -0.1731  0.0156
 2725TIP3    H2 8182   3.438   4.528   4.466  0.6946  0.0953  0.4852
 2726TIP3   OH2 8183   0.772   4.961   1.352 -0.5121 -0.1014 -0.9039
 2726TIP3    H1 8184   0.827   5.035   1.379 -2.0856  0.9237 -0.3938
 2726TIP3    H2 8185   0.802   4.888   1.406 -3.1479  1.6982  3.4725
 2727TIP3   OH2 8186   3.258   0.982   0.166 -0.7698 -0.5565 -0.0508
 2727TIP3    H1 8187   3.272   0.959   0.258  2.0430  1.6565  0.2116
 2727TIP3    H2 8188   3.255   1.078   0.166 -1.7008 -0.5370 -2.1771
 2728TIP3   OH2 8189   5.108   0.347   4.629  0.1054 -0.4309  0.2929
 2728TIP3    H1 8190   5.070   0.329   4.715 -0.3746  0.2337  0.2284
 2728TIP3    H2 8191   5.100   0.442   4.618 -0.8318 -0.6162 -0.9389
 2729TIP3   OH2 8192   1.826   0.651   1.014 -0.7387 -0.2434 -0.1271
 2729TIP3    H1 8193   1.775   0.673   0.936  0.5666 -0.0815 -0.9549
 2729TIP3    H2 8194   1.865   0.734   1.042 -2.0765 -0.0657  1.3950
 2730TIP3   OH2 8195   6.171   1.609   3.244  0.1398  0.3510  0.3523
 2730TIP3    H1 8196   6.175   1.561   3.326  0.4681  1.1010  0.7826
 2730TIP3    H2 8197   6.260   1.602   3.208 -0.0790 -0.2312 -0.0945
 2731TIP3   OH2 8198   2.133   3.706   5.086 -0.1360  0.4275  0.0444
 2731TIP3    H1 8199   2.057   3.755   5.055 -1.5488 -2.1380 -0.8612
 2731TIP3    H2 8200   2.114   3.686   5.177 -0.4745 -0.0419 -0.1257
 2732TIP3   OH2 8201   5.754   2.212   4.379 -0.1453 -0.5010 -0.2457
 2732TIP3    H1 8202   5.740   2.250   4.466  0.6129 -1.8620  0.5039
 2732TIP3    H2 8203   5.764   2.288   4.321 -1.6392  0.4406  0.6688
 2733TIP3   OH2 8204   4.551   3.473   3.404  0.0174  0.2454 -0.4380
 2733TIP3    H1 8205   4.486   3.449   3.337  1.0524  0.9663 -1.7617
 2733TIP3    H2 8206   4.511   3.547   3.450 -0.3270  0.3686 -0.9146
 2734TIP3   OH2 8207   5.761   5.849   4.104 -0.8062 -0.5045  0.2114
 2734TIP3    H1 8208   5.735   5.918   4.044  0.7495  0.3226  0.4322
 2734TIP3    H2 8209   5.848   5.821   4.072 -1.0135 -1.7400  0.6575
 2735TIP3   OH2 8210   2.232   4.149   3.146 -0.0029  0.1591 -0.0932
 2735TIP3    H1 8211   2.146   4.191   3.153 -0.3982 -0.7054  0.3195
 2735TIP3    H2 8212   2.249   4.145   3.052 -0.2290  0.6913 -0.1596
 2736TIP3   OH2 8213   5.486   4.528   0.565 -0.0442 -0.2760  0.0770
 2736TIP3    H1 8214   5.566   4.522   0.618  0.7728  0.7065 -0.9872
 2736TIP3    H2 8215   5.419   4.558   0.626  0.6166 -0.2331  0.7978
 2737TIP3   OH2 8216   5.414   5.029   3.111 -0.0698 -0.3205 -0.0019
 2737TIP3    H1 8217   5.457   5.104   3.070 -0.8083  0.5944  0.8448
 2737TIP3    H2 8218   5.441   5.033   3.203 -1.6134  0.0483  0.4656
 2738TIP3   OH2 8219   4.721   0.595   4.841 -0.2878 -0.8538 -0.8411
 2738TIP3    H1 8220   4.782   0.622   4.772 -0.4838 -0.2952 -0.8006
 2738TIP3    H2 8221   4.777   0.560   4.910  0.0104 -0.1826 -0.7325
 2739TIP3   OH2 8222   2.725   5.607   1.682  0.3152 -0.1981 -0.1861
 2739TIP3    H1 8223   2.677   5.556   1.747 -0.4316 -0.0277 -0.5994
 2739TIP3    H2 8224   2.721   5.554   1.602 -0.4165  0.4773 -0.6013
 2740TIP3   OH2 8225   2.208   1.501   4.388  0.4404 -1.2330 -0.1874
 2740TIP3    H1 8226   2.287   1.448   4.399  0.4781 -1.5188 -1.6402
 2740TIP3    H2 8227   2.227   1.582   4.436  2.1921 -0.7214 -1.6321
 2741TIP3   OH2 8228   4.983   2.318   2.806  0.2238 -0.1066  0.3567
 2741TIP3    H1 8229   4.995   2.358   2.720 -0.5327 -2.8204 -1.1290
 2741TIP3    H2 8230   4.895   2.344   2.832 -0.0169 -0.2541 -0.2838
 2742TIP3   OH2 8231   0.792   4.680   0.307  0.4585  0.2517 -0.2892
 2742TIP3    H1 8232   0.735   4.710   0.236 -0.9241  0.4844  0.8837
 2742TIP3    H2 8233   0.732   4.650   0.376  1.7254 -2.9718 -0.3996
 2743TIP3   OH2 8234   2.064   2.498   1.056 -0.2534  0.0898 -0.1711
 2743TIP3    H1 8235   2.012   2.552   0.996 -2.2010 -0.3525  1.0445
 2743TIP3    H2 8236   2.032   2.409   1.042  0.4969 -0.2701  0.3158
 2744TIP3   OH2 8237   2.240   3.895   2.925 -0.1341  0.2134  0.3713
 2744TIP3    H1 8238   2.336   3.892   2.919 -0.1457 -1.8176  0.5553
 2744TIP3    H2 8239   2.215   3.973   2.876  1.4503 -0.7749 -2.2016
 2745TIP3   OH2 8240   2.931   1.773   4.314  0.1196  0.0794 -0.2360
 2745TIP3    H1 8241   2.997   1.819   4.261  0.0924 -0.3886 -0.6801
 2745TIP3    H2 8242   2.899   1.840   4.375  0.2917  0.5784 -0.6800
 2746TIP3   OH2 8243   3.587   2.107   1.702  0.4627  0.3347 -0.8854
 2746TIP3    H1 8244   3.579   2.143   1.791 -1.0963 -2.6535  0.3255
 2746TIP3    H2 8245   3.523   2.156   1.650 -2.0401 -0.8729  0.8316
 2747TIP3   OH2 8246   0.424   2.148   3.080 -0.1342  0.0929 -0.1740
 2747TIP3    H1 8247   0.514   2.158   3.111 -0.2329  1.2036 -0.2023
 2747TIP3    H2 8248   0.416   2.055   3.058  0.6434 -0.2504  0.9329
 2748TIP3   OH2 8249   2.570   4.842   5.083  0.0256  0.0129  0.3002
 2748TIP3    H1 8250   2.510   4.913   5.106  0.2870 -0.1606  1.5796
 2748TIP3    H2 8251   2.650   4.862   5.131  0.0549 -1.2192  0.7855
 2749TIP3   OH2 8252   5.737   3.850   0.507  0.0459 -0.2977 -0.2513
 2749TIP3    H1 8253   5.710   3.861   0.598  1.1073 -0.4521  0.1066
 2749TIP3    H2 8254   5.725   3.936   0.468  0.6256  0.0700  0.3486
 2750TIP3   OH2 8255   3.959   2.683   1.851 -0.3584 -0.2427 -0.5608
 2750TIP3    H1 8256   3.911   2.730   1.919  0.1039  1.0041 -1.0707
 2750TIP3    H2 8257   3.897   2.675   1.778 -0.6436 -1.0000 -0.2377
 2751TIP3   OH2 8258   3.667   3.401   0.559 -0.3555  0.2187 -0.2774
 2751TIP3    H1 8259   3.696   3.492   0.557  0.4663 -0.0474 -1.4965
 2751TIP3    H2 8260   3.661   3.376   0.467  0.2660 -1.2161  0.0524
 2752TIP3   OH2 8261   5.496   3.248   3.028  0.4264  0.0681  0.2141
 2752TIP3    H1 8262   5.573   3.274   2.979 -1.8705  3.1265 -2.1345
 2752TIP3    H2 8263   5.504   3.294   3.112 -0.0341  2.6596 -1.0721
 2753TIP3   OH2 8264   4.206   3.961   3.397  0.7515  0.2511  0.2170
 2753TIP3    H1 8265   4.193   3.930   3.487 -0.9920 -0.7656 -0.3268
 2753TIP3    H2 8266   4.250   3.888   3.353  0.5530  0.2726 -0.0196
 2754TIP3   OH2 8267   0.799   2.062   4.023 -0.0575  0.1940  0.1439
 2754TIP3    H1 8268   0.813   1.969   4.006 -0.1624  0.2937 -0.5139
 2754TIP3    H2 8269   0.803   2.069   4.118 -0.2106 -0.5104  0.2129
 2755TIP3   OH2 8270   5.783   2.159   3.121  0.1318  0.5114 -0.2408
 2755TIP3    H1 8271   5.868   2.200   3.102  0.0002  0.7583 -0.3005
 2755TIP3    H2 8272   5.724   2.192   3.053  0.3566 -0.9004 -1.1555
 2756TIP3   OH2 8273   3.330   4.978   3.580  0.2507 -0.1810  0.2975
 2756TIP3    H1 8274   3.236   4.995   3.580  0.5317  2.0931  3.1537
 2756TIP3    H2 8275   3.355   4.980   3.488 -2.6651 -2.4956 -0.7037
 2757TIP3   OH2 8276   3.869   0.914   1.790 -0.0859 -1.0660 -0.4525
 2757TIP3    H1 8277   3.866   1.003   1.753  2.2970 -1.7217 -2.5040
 2757TIP3    H2 8278   3.782   0.878   1.772 -0.4947  0.2256 -1.2266
 2758TIP3   OH2 8279   2.552   5.112   0.166  0.3714  0.3399  0.2917
 2758TIP3    H1 8280   2.595   5.109   0.080 -1.1093 -0.9523 -0.4491
 2758TIP3    H2 8281   2.461   5.135   0.146 -0.5854 -2.2862  1.2370
 2759TIP3   OH2 8282   5.409   2.510   3.387  0.7068 -0.4768 -0.7904
 2759TIP3    H1 8283   5.493   2.473   3.358  1.0715 -1.7970  1.6903
 2759TIP3    H2 8284   5.428   2.603   3.401  2.1902 -0.9749  0.9541
 2760TIP3   OH2 8285   5.211   4.767   4.119 -0.0933 -0.2150 -0.1525
 2760TIP3    H1 8286   5.246   4.856   4.114 -0.8733  0.0917 -0.3451
 2760TIP3    H2 8287   5.126   4.772   4.074  0.8295 -1.5661 -2.1866
 2761TIP3   OH2 8288   0.390   5.300   4.260  0.3930 -0.1857  0.4774
 2761TIP3    H1 8289   0.382   5.393   4.281  0.0876 -0.2850  0.8161
 2761TIP3    H2 8290   0.481   5.288   4.234  0.5194  0.1440  0.7690
 2762TIP3   OH2 8291   3.339   1.334   2.079  0.4300 -0.1891  0.1846
 2762TIP3    H1 8292   3.304   1.314   2.166  0.2294 -0.8750 -0.0416
 2762TIP3    H2 8293   3.429   1.363   2.095  0.1425  0.4489  0.6782
 2763TIP3   OH2 8294   4.208   2.098   0.714  0.3928 -0.0058  0.6003
 2763TIP3    H1 8295   4.226   2.110   0.620 -4.3124  0.3454 -0.5092
 2763TIP3    H2 8296   4.257   2.169   0.756  0.1303  1.8811 -1.9906
 2764TIP3   OH2 8297   1.914   2.320   2.222 -0.4833 -0.3758  0.1299
 2764TIP3    H1 8298   1.818   2.319   2.218 -0.4553 -1.8434 -1.8872
 2764TIP3    H2 8299   1.937   2.229   2.242  0.4947 -0.6234 -1.9107
 2765TIP3   OH2 8300   1.250   3.288   0.755  0.3349  0.4568 -0.0814
 2765TIP3    H1 8301   1.264   3.349   0.683 -0.3106  0.5236 -0.1586
 2765TIP3    H2 8302   1.192   3.335   0.816  1.7026  0.8057  1.0088
 2766TIP3   OH2 8303   1.507   5.676   0.673  0.3700  0.1313  0.0157
 2766TIP3    H1 8304   1.553   5.605   0.629 -1.3378 -0.2966 -1.1643
 2766TIP3    H2 8305   1.570   5.709   0.737  1.7564 -1.4018 -0.4872
 2767TIP3   OH2 8306   2.167   5.499   4.407 -0.3354 -0.4667  0.0829
 2767TIP3    H1 8307   2.150   5.407   4.389 -0.2480 -0.3596 -0.5566
 2767TIP3    H2 8308   2.081   5.536   4.426 -0.2946 -0.8147  1.0038
 2768TIP3   OH2 8309   4.672   3.980   2.439  0.0462 -0.2636  0.2479
 2768TIP3    H1 8310   4.704   3.928   2.366 -1.9886 -0.1898 -0.7727
 2768TIP3    H2 8311   4.745   4.036   2.463  1.5615 -1.9793 -0.0927
 2769TIP3   OH2 8312   5.804   2.975   4.946 -0.1109  0.0124  0.3568
 2769TIP3    H1 8313   5.745   2.954   5.017  1.6456 -0.7545  1.6593
 2769TIP3    H2 8314   5.786   3.067   4.926 -1.1674  0.0111  1.2568
 2770TIP3   OH2 8315   2.038   0.870   1.502  0.2676  0.0408 -0.7288
 2770TIP3    H1 8316   2.130   0.895   1.509  0.2617 -0.3394  0.9517
 2770TIP3    H2 8317   1.993   0.952   1.480  0.8826  0.4182 -0.6030
 2771TIP3   OH2 8318   1.484   5.305   2.815 -0.1141 -0.4796  0.1250
 2771TIP3    H1 8319   1.396   5.286   2.848 -1.2456  3.1143 -0.4112
 2771TIP3    H2 8320   1.470   5.346   2.730  2.1506 -0.2778 -0.2157
 2772TIP3   OH2 8321   1.040   5.827   1.860  0.1336 -0.3168 -0.7085
 2772TIP3    H1 8322   0.947   5.823   1.883  0.2482 -2.4839 -0.4306
 2772TIP3    H2 8323   1.076   5.893   1.920 -0.9028 -0.7265  0.4207
 2773TIP3   OH2 8324   5.500   4.460   2.396 -0.4853 -0.1054  0.0697
 2773TIP3    H1 8325   5.563   4.533   2.388 -0.8956  0.4320  1.4701
 2773TIP3    H2 8326   5.555   4.382   2.403  0.0585  0.3885  1.5472
 2774TIP3   OH2 8327   4.194   2.358   4.234 -0.2258 -0.3931  0.8764
 2774TIP3    H1 8328   4.176   2.264   4.229 -1.2428 -0.1842  0.1980
 2774TIP3    H2 8329   4.287   2.364   4.253 -0.1677 -1.5424  1.0079
 2775TIP3   OH2 8330   5.828   1.276   4.750  0.2942 -0.2649 -0.2769
 2775TIP3    H1 8331   5.888   1.210   4.714 -1.0157 -0.2042 -2.6924
 2775TIP3    H2 8332   5.886   1.346   4.780  1.5261 -1.0093 -0.8270
 2776TIP3   OH2 8333   4.431   0.841   2.937  0.5890  0.1662 -0.2322
 2776TIP3    H1 8334   4.455   0.838   2.844 -0.5856 -1.0455 -0.5204
 2776TIP3    H2 8335   4.488   0.909   2.974 -0.1279  1.9173 -2.1850
 2777TIP3   OH2 8336   0.697   5.540   4.275  0.4023 -0.5961  0.6763
 2777TIP3    H1 8337   0.615   5.580   4.302  0.8024 -0.2677  1.4320
 2777TIP3    H2 8338   0.687   5.447   4.295 -0.1930 -0.7566 -0.2670
 2778TIP3   OH2 8339   4.480   4.528   0.758  0.2064  0.1417  0.3271
 2778TIP3    H1 8340   4.403   4.483   0.791 -0.4224  0.6453 -0.4076
 2778TIP3    H2 8341   4.461   4.621   0.768  0.5291  0.2806 -0.2453
 2779TIP3   OH2 8342   4.594   5.262   2.308  0.4900  0.4006 -0.1606
 2779TIP3    H1 8343   4.671   5.212   2.280  0.0593 -1.0526  1.0881
 2779TIP3    H2 8344   4.591   5.338   2.250  2.2762 -0.0493 -0.8839
 2780TIP3   OH2 8345   5.776   2.959   0.628 -0.0174 -0.2143 -0.4409
 2780TIP3    H1 8346   5.814   2.992   0.710 -1.1062 -0.0848  0.0319
 2780TIP3    H2 8347   5.681   2.960   0.644 -0.1872 -1.1998 -1.3283
 2781TIP3   OH2 8348   2.578   1.623   2.818  0.0660 -1.0900 -0.1727
 2781TIP3    H1 8349   2.495   1.593   2.780 -0.3799 -1.3599  0.9743
 2781TIP3    H2 8350   2.645   1.591   2.758 -0.7197  0.4432 -1.9814
 2782TIP3   OH2 8351   2.973   2.800   3.773  0.7985 -0.1432 -0.1367
 2782TIP3    H1 8352   2.977   2.869   3.839  2.7376 -1.7889  1.6098
 2782TIP3    H2 8353   2.926   2.729   3.817  1.0129 -0.8117 -0.9774
 2783TIP3   OH2 8354   0.524   4.146   1.618 -0.5290 -0.4154 -0.0572
 2783TIP3    H1 8355   0.516   4.222   1.674  5.4437 -0.7853  1.9247
 2783TIP3    H2 8356   0.478   4.076   1.665 -4.1448  1.2202 -0.8406
 2784TIP3   OH2 8357   3.795   1.269   0.291  0.1808 -0.1550 -0.0504
 2784TIP3    H1 8358   3.735   1.311   0.229 -1.9473  0.7996  2.4606
 2784TIP3    H2 8359   3.819   1.339   0.352  1.3543 -1.2798  0.8302
 2785TIP3   OH2 8360   5.282   0.609   0.477  0.1480 -0.3128  0.3011
 2785TIP3    H1 8361   5.221   0.571   0.414  0.2431  0.3999 -0.2400
 2785TIP3    H2 8362   5.229   0.673   0.525  0.4784  0.3784 -0.2383
 2786TIP3   OH2 8363   4.599   4.726   0.501  0.0865  0.2852  0.0724
 2786TIP3    H1 8364   4.531   4.772   0.452  0.0059 -0.5523 -0.6300
 2786TIP3    H2 8365   4.554   4.653   0.543  0.6724 -0.8003 -1.1153
 2787TIP3   OH2 8366   0.462   1.222   2.452 -0.1525  0.2400 -0.2305
 2787TIP3    H1 8367   0.538   1.193   2.402 -0.2766 -2.5434  1.0116
 2787TIP3    H2 8368   0.489   1.306   2.489  1.5666  0.2529 -1.3626
 2788TIP3   OH2 8369   2.913   2.321   0.661  0.6039 -0.1355  0.2127
 2788TIP3    H1 8370   2.983   2.280   0.711  0.1322 -0.7979  0.3426
 2788TIP3    H2 8371   2.839   2.260   0.668  0.0952  0.4265 -0.1335
 2789TIP3   OH2 8372   3.941   4.941   1.899 -0.1599 -0.1697  0.1943
 2789TIP3    H1 8373   4.025   4.931   1.855 -0.0382 -1.0355  0.6074
 2789TIP3    H2 8374   3.884   4.876   1.857  0.0602 -1.2771  1.5375
 2790TIP3   OH2 8375   3.492   1.697   4.996 -0.1745 -0.1997  0.6253
 2790TIP3    H1 8376   3.530   1.619   5.037  0.9329 -0.0447 -0.0581
 2790TIP3    H2 8377   3.541   1.707   4.914 -0.7953  0.8046  0.3573
 2791TIP3   OH2 8378   1.915   2.004   0.216 -0.2110 -0.2710 -0.8600
 2791TIP3    H1 8379   1.953   2.047   0.139  2.1021 -1.0574 -0.2354
 2791TIP3    H2 8380   1.926   2.067   0.287 -2.2586  0.4130 -1.0550
 2792TIP3   OH2 8381   3.386   1.199   0.879 -0.0007 -0.1334  0.1828
 2792TIP3    H1 8382   3.393   1.124   0.937  1.4699  0.9543  1.5004
 2792TIP3    H2 8383   3.410   1.274   0.933  0.0287  1.1196 -1.4621
 2793TIP3   OH2 8384   1.403   4.093   0.200  0.0142 -0.1092 -0.4266
 2793TIP3    H1 8385   1.381   4.184   0.221  3.3703  1.1598 -1.6050
 2793TIP3    H2 8386   1.404   4.091   0.104  1.6155 -0.8660 -0.4211
 2794TIP3   OH2 8387   2.740   1.795   2.386  0.2610 -0.1650  0.0577
 2794TIP3    H1 8388   2.787   1.855   2.444  0.0945  2.6007 -2.4097
 2794TIP3    H2 8389   2.809   1.740   2.349  0.8725  0.4967  0.1766
 2795TIP3   OH2 8390   4.929   2.922   1.694  0.2003  0.5276 -1.1033
 2795TIP3    H1 8391   5.018   2.924   1.727 -0.3585 -0.6303  0.6310
 2795TIP3    H2 8392   4.908   3.014   1.677  0.9923  1.0738  0.6100
 2796TIP3   OH2 8393   6.214   5.364   1.260  0.5431  0.0571 -0.1095
 2796TIP3    H1 8394   6.146   5.406   1.207  1.1766  1.1633 -0.0862
 2796TIP3    H2 8395   6.237   5.430   1.326  0.6915 -0.8086  0.7247
 2797TIP3   OH2 8396   4.534   2.034   1.706  0.2704  0.0294  0.5381
 2797TIP3    H1 8397   4.551   2.108   1.764 -0.3970 -0.7378  1.7476
 2797TIP3    H2 8398   4.459   2.062   1.653  1.0476  0.8355 -0.1642
 2798TIP3   OH2 8399   5.154   2.328   1.859  0.5347  0.4791 -0.0468
 2798TIP3    H1 8400   5.126   2.247   1.903  1.9491 -0.2885 -0.4945
 2798TIP3    H2 8401   5.135   2.397   1.923  1.0096 -0.4256  1.1215
 2799TIP3   OH2 8402   4.723   1.811   3.756 -0.0220 -0.0147  0.0504
 2799TIP3    H1 8403   4.779   1.820   3.679 -0.1159  0.4936  0.0342
 2799TIP3    H2 8404   4.636   1.838   3.726  0.5859  3.7268  1.1416
 2800TIP3   OH2 8405   1.406   3.769   3.285  0.3084  0.3055  0.5659
 2800TIP3    H1 8406   1.435   3.699   3.227  2.5799  1.3048  0.4153
 2800TIP3    H2 8407   1.319   3.741   3.314 -0.0753 -1.1753 -1.7194
 2801TIP3   OH2 8408   3.473   5.501   3.402 -0.2379  0.1504  0.2320
 2801TIP3    H1 8409   3.447   5.472   3.315  0.2989 -1.2905  0.5347
 2801TIP3    H2 8410   3.419   5.578   3.418  0.5077  1.1977 -1.8603
 2802TIP3   OH2 8411   0.089   2.473   2.586  0.0167  0.0210  0.0902
 2802TIP3    H1 8412   0.121   2.539   2.524 -0.8559  0.2547 -0.1283
 2802TIP3    H2 8413   0.090   2.391   2.536  2.2251 -0.3991  0.7135
 2803TIP3   OH2 8414   3.111   0.165   0.872  0.3659 -0.4669  0.0254
 2803TIP3    H1 8415   3.140   0.219   0.946 -0.9844 -0.7536  0.8031
 2803TIP3    H2 8416   3.189   0.153   0.819  1.4929 -0.6284  1.6536
 2804TIP3   OH2 8417   3.007   3.968   1.486 -0.5881 -0.2908 -0.3831
 2804TIP3    H1 8418   2.926   4.015   1.466 -0.4091  0.6006  0.8317
 2804TIP3    H2 8419   3.072   4.037   1.498 -0.0402 -0.9083  0.2822
 2805TIP3   OH2 8420   5.974   3.003   0.213  0.2281 -0.8296  0.3452
 2805TIP3    H1 8421   5.894   3.046   0.183 -0.1502 -1.0367  1.0158
 2805TIP3    H2 8422   5.948   2.958   0.294  1.1836 -0.3095  0.9708
 2806TIP3   OH2 8423   6.195   4.623   2.754  0.1898  0.2852 -0.0367
 2806TIP3    H1 8424   6.197   4.702   2.700  2.6914 -0.7284 -1.6588
 2806TIP3    H2 8425   6.221   4.653   2.841  2.6972  1.1572 -0.9674
 2807TIP3   OH2 8426   3.430   4.551   2.703 -0.2019  0.4736 -0.1598
 2807TIP3    H1 8427   3.380   4.604   2.641 -0.4245  1.5606  0.9004
 2807TIP3    H2 8428   3.462   4.477   2.652 -1.7964  0.4370 -1.1717
 2808TIP3   OH2 8429   0.958   5.848   0.316 -0.0491  0.5949 -0.4983
 2808TIP3    H1 8430   1.036   5.793   0.312 -1.2217 -1.3067  0.5822
 2808TIP3    H2 8431   0.989   5.934   0.341  1.4930 -0.8496  3.2652
 2809TIP3   OH2 8432   2.974   4.417   1.411 -0.0806 -0.1819  0.0996
 2809TIP3    H1 8433   2.897   4.423   1.466 -0.0806 -0.8594  0.1752
 2809TIP3    H2 8434   2.940   4.398   1.323  0.0477 -1.6597  0.3473
 2810TIP3   OH2 8435   3.047   5.897   5.191 -0.2218  0.6610 -0.2193
 2810TIP3    H1 8436   2.995   5.888   5.111  1.6865 -2.4842 -1.2824
 2810TIP3    H2 8437   3.080   5.986   5.188 -2.5350  1.5704 -1.3662
 2811TIP3   OH2 8438   2.171   2.495   1.304 -0.1272  0.0973 -0.1524
 2811TIP3    H1 8439   2.137   2.505   1.215  0.5240  1.3997 -0.2895
 2811TIP3    H2 8440   2.204   2.582   1.326 -0.4922 -0.1477  1.4650
 2812TIP3   OH2 8441   1.988   0.162   3.592  0.3733  0.5332 -0.0608
 2812TIP3    H1 8442   2.042   0.238   3.612 -1.7308  1.5437  2.2679
 2812TIP3    H2 8443   1.927   0.155   3.665 -1.1206 -1.9405 -1.3883
 2813TIP3   OH2 8444   5.841   0.332   1.717 -0.2389  0.1777 -0.7190
 2813TIP3    H1 8445   5.833   0.361   1.807 -1.0931  0.1433 -0.7738
 2813TIP3    H2 8446   5.906   0.391   1.677  0.2505  0.0964 -0.0567
 2814TIP3   OH2 8447   0.450   0.912   1.473 -0.0037  0.2864  0.0357
 2814TIP3    H1 8448   0.390   0.853   1.427 -0.0935  0.7720 -0.4907
 2814TIP3    H2 8449   0.394   0.978   1.512  0.2703  1.9459 -2.2056
 2815TIP3   OH2 8450   3.936   5.840   1.653 -0.0894  0.2929  0.3115
 2815TIP3    H1 8451   4.022   5.862   1.688 -0.1561 -0.7804  1.2273
 2815TIP3    H2 8452   3.875   5.871   1.720 -0.3040 -0.4544  0.4766
 2816TIP3   OH2 8453   0.041   4.125   1.003  0.4941 -0.0880  0.6078
 2816TIP3    H1 8454   0.058   4.037   1.038 -0.5957 -0.3715  0.4549
 2816TIP3    H2 8455   0.041   4.114   0.908 -2.0124 -0.4401  0.5831
 2817TIP3   OH2 8456   4.112   1.672   5.122  0.5841 -0.0247  0.4322
 2817TIP3    H1 8457   4.195   1.656   5.169  2.1431 -2.1618 -2.7025
 2817TIP3    H2 8458   4.136   1.729   5.050 -1.1500  0.9491  0.5829
 2818TIP3   OH2 8459   3.703   0.561   2.864 -0.4517  0.3206 -0.3623
 2818TIP3    H1 8460   3.664   0.639   2.903  0.7610 -0.3354  2.4747
 2818TIP3    H2 8461   3.781   0.592   2.819  0.3890  0.7773  1.3028
 2819TIP3   OH2 8462   1.525   3.053   3.910  0.1797 -0.5907 -0.3510
 2819TIP3    H1 8463   1.590   3.037   3.977  0.3671  2.0861  0.2036
 2819TIP3    H2 8464   1.446   3.010   3.942 -0.1532  1.7892  2.4219
 2820TIP3   OH2 8465   5.439   2.334   4.733  0.1297  0.2073 -0.3032
 2820TIP3    H1 8466   5.431   2.363   4.642  1.2306  0.9629 -0.1805
 2820TIP3    H2 8467   5.513   2.273   4.733 -1.4472 -1.8044 -0.3441
 2821TIP3   OH2 8468   0.105   0.969   3.697  0.6019 -0.2156 -0.0744
 2821TIP3    H1 8469   0.059   1.038   3.745 -0.1484 -0.6178 -0.2023
 2821TIP3    H2 8470   0.179   0.945   3.753  0.4334  0.1703  0.3114
 2822TIP3   OH2 8471   2.175   1.227   0.243  0.0204 -0.4910 -0.2958
 2822TIP3    H1 8472   2.111   1.169   0.284 -0.1204  1.4329  2.4443
 2822TIP3    H2 8473   2.133   1.313   0.242  1.9668  0.5358  0.2253
 2823TIP3   OH2 8474   5.920   3.182   1.321 -0.3421 -0.1967 -0.7882
 2823TIP3    H1 8475   5.973   3.203   1.398  1.5741 -2.9642 -1.2082
 2823TIP3    H2 8476   5.859   3.255   1.314  0.5320  1.0174  2.3179
 2824TIP3   OH2 8477   1.675   3.515   3.318 -0.2679  0.1001  0.4195
 2824TIP3    H1 8478   1.603   3.537   3.259 -0.5375 -1.9698 -0.1279
 2824TIP3    H2 8479   1.739   3.584   3.305 -2.1548  2.0930  1.0176
 2825TIP3   OH2 8480   4.515   2.140   3.167 -0.0710 -0.0262  0.5992
 2825TIP3    H1 8481   4.448   2.125   3.233  0.1972  0.1124  0.9055
 2825TIP3    H2 8482   4.576   2.201   3.208 -0.0998  0.3596  0.0915
 2826TIP3   OH2 8483   6.031   3.658   1.000  0.1652  0.5726 -0.0668
 2826TIP3    H1 8484   6.121   3.639   0.973  0.7911 -0.4964  2.4681
 2826TIP3    H2 8485   6.022   3.753   0.987  0.7637  0.3539 -2.6383
 2827TIP3   OH2 8486   6.133   4.114   1.103 -0.0438 -0.0202  0.3080
 2827TIP3    H1 8487   6.223   4.126   1.074  0.0035  0.5863  0.6918
 2827TIP3    H2 8488   6.093   4.201   1.096 -0.8611 -0.4509 -0.7034
 2828TIP3   OH2 8489   3.531   2.264   1.028 -0.4943 -0.5670  0.2388
 2828TIP3    H1 8490   3.599   2.199   1.011  0.1085 -0.1795  1.0762
 2828TIP3    H2 8491   3.475   2.262   0.951 -0.1156 -1.6220 -0.0172
 2829TIP3   OH2 8492   0.656   4.719   3.213  0.4696 -0.3137 -0.3724
 2829TIP3    H1 8493   0.641   4.751   3.124 -0.9155 -2.7751 -1.1276
 2829TIP3    H2 8494   0.588   4.763   3.265 -0.7830 -1.2032 -1.1855
 2830TIP3   OH2 8495   2.441   2.139   4.330  0.1785  0.3793  0.2037
 2830TIP3    H1 8496   2.513   2.093   4.374 -0.7948 -0.4716  0.9702
 2830TIP3    H2 8497   2.369   2.076   4.331 -1.0977  1.7800  0.9660
 2831TIP3   OH2 8498   0.480   5.076   2.594  0.5968 -0.0804 -0.0046
 2831TIP3    H1 8499   0.568   5.060   2.561  0.6599  0.4990 -0.1305
 2831TIP3    H2 8500   0.492   5.090   2.688  0.4670 -1.3270  0.2125
 2832TIP3   OH2 8501   1.826   2.930   1.373  0.1534 -0.8054  0.6783
 2832TIP3    H1 8502   1.746   2.973   1.404  0.0399  0.6462 -1.4328
 2832TIP3    H2 8503   1.889   3.001   1.365  0.5767 -1.3223 -0.9861
 2833TIP3   OH2 8504   5.778   2.025   1.289  0.1272 -0.6313 -0.1728
 2833TIP3    H1 8505   5.690   1.996   1.264  0.5685 -0.6529 -1.8035
 2833TIP3    H2 8506   5.835   1.951   1.268  0.9956  0.6055 -2.5051
 2834TIP3   OH2 8507   3.025   3.698   3.146 -0.1418 -0.0565  0.2403
 2834TIP3    H1 8508   3.068   3.755   3.210  1.2030 -0.1268 -0.5630
 2834TIP3    H2 8509   3.046   3.609   3.176  1.0216 -0.0923 -0.5917
 2835TIP3   OH2 8510   5.565   1.575   0.672  0.8690 -0.1718 -0.0566
 2835TIP3    H1 8511   5.571   1.670   0.681  2.4208 -0.2994  0.5891
 2835TIP3    H2 8512   5.580   1.558   0.579 -1.0825  0.2874 -0.4976
 2836TIP3   OH2 8513   4.587   1.577   0.437  0.0533  0.3463 -0.0515
 2836TIP3    H1 8514   4.521   1.629   0.483 -0.6955 -0.5248 -0.1090
 2836TIP3    H2 8515   4.668   1.627   0.447 -0.3914  0.9081  0.9439
 2837TIP3   OH2 8516   3.994   3.420   1.009  0.0750 -0.2412 -0.0774
 2837TIP3    H1 8517   3.963   3.496   1.059  0.3312  0.7296 -1.3367
 2837TIP3    H2 8518   4.053   3.374   1.068 -0.6602  0.1256  0.9613
 2838TIP3   OH2 8519   3.276   4.861   2.729 -0.2665 -0.1234 -0.0269
 2838TIP3    H1 8520   3.311   4.836   2.644  1.9042  0.2774  0.7070
 2838TIP3    H2 8521   3.247   4.952   2.717 -1.0145 -0.4262 -0.6097
 2839TIP3   OH2 8522   2.607   1.105   4.818 -0.0698 -0.2682  0.3411
 2839TIP3    H1 8523   2.664   1.125   4.744 -0.2261 -1.1691 -0.0432
 2839TIP3    H2 8524   2.650   1.145   4.894  0.5016 -0.0135 -0.1128
 2840TIP3   OH2 8525   0.464   4.372   5.091 -0.1599 -0.0458  0.5181
 2840TIP3    H1 8526   0.484   4.449   5.144 -0.6071  1.3000 -1.1966
 2840TIP3    H2 8527   0.370   4.360   5.101 -0.2895  0.3716 -0.1572
 2841TIP3   OH2 8528   3.799   0.400   4.931  0.9731  0.7142  0.2480
 2841TIP3    H1 8529   3.778   0.321   4.981 -1.6297  2.7626  2.7409
 2841TIP3    H2 8530   3.728   0.409   4.868  0.1510  2.0250  1.3134
 2842TIP3   OH2 8531   5.301   0.543   3.146  0.2752  0.0149 -0.4001
 2842TIP3    H1 8532   5.311   0.466   3.091 -0.5162  0.2633 -0.9141
 2842TIP3    H2 8533   5.340   0.519   3.230  0.2501 -0.8501 -0.6340
 2843TIP3   OH2 8534   2.295   2.562   2.565 -0.1864 -0.3521  0.0538
 2843TIP3    H1 8535   2.293   2.467   2.550 -0.0721  0.0132 -2.6787
 2843TIP3    H2 8536   2.211   2.594   2.533  0.2265  0.6018 -0.1209
 2844TIP3   OH2 8537   0.658   4.618   4.532 -0.4282 -0.9181 -0.9302
 2844TIP3    H1 8538   0.702   4.551   4.479 -1.8976 -1.8690 -1.0021
 2844TIP3    H2 8539   0.673   4.700   4.484  1.5761 -1.1356 -0.7272
 2845TIP3   OH2 8540   3.432   4.726   0.108 -0.3349  0.8631 -0.0312
 2845TIP3    H1 8541   3.422   4.680   0.192 -1.4808 -1.9426 -1.5786
 2845TIP3    H2 8542   3.516   4.696   0.073 -0.6856  0.6247 -0.6792
 2846TIP3   OH2 8543   4.882   3.681   1.833  0.2267 -0.1192  0.6019
 2846TIP3    H1 8544   4.841   3.595   1.834  0.5938 -0.3051  0.0437
 2846TIP3    H2 8545   4.951   3.675   1.899  0.1008 -0.1785  0.7280
 2847TIP3   OH2 8546   3.687   2.923   0.675 -0.0353 -0.2361  0.3853
 2847TIP3    H1 8547   3.734   2.846   0.645 -1.9673 -1.1830 -0.4192
 2847TIP3    H2 8548   3.741   2.997   0.648 -0.0646 -1.1795 -2.5385
 2848TIP3   OH2 8549   5.782   1.972   2.221 -0.4264  0.3053  0.8342
 2848TIP3    H1 8550   5.800   2.038   2.288  1.0761  0.4063  0.3546
 2848TIP3    H2 8551   5.863   1.965   2.171 -0.4204 -2.2093  1.1164
 2849TIP3   OH2 8552   5.368   5.279   4.607  0.4208  0.7729  0.2873
 2849TIP3    H1 8553   5.323   5.274   4.692 -0.5852 -1.1409 -0.3114
 2849TIP3    H2 8554   5.426   5.356   4.616  2.4094 -0.8598  3.6878
 2850TIP3   OH2 8555   1.417   1.988   3.025  0.1125  0.1536  0.5682
 2850TIP3    H1 8556   1.480   1.921   2.997 -1.9195 -1.1728 -1.2037
 2850TIP3    H2 8557   1.435   2.001   3.118  1.5127 -1.8276  0.6355
 2851TIP3   OH2 8558   0.832   3.469   1.511  0.0491 -0.8086 -0.5657
 2851TIP3    H1 8559   0.805   3.488   1.421  0.5680 -0.0399 -0.5724
 2851TIP3    H2 8560   0.851   3.555   1.549  1.6951 -1.2428 -0.3231
 2852TIP3   OH2 8561   3.802   2.930   1.047 -0.2995  0.7340  0.7418
 2852TIP3    H1 8562   3.762   3.016   1.053  0.4904  1.1528  0.1185
 2852TIP3    H2 8563   3.886   2.940   1.092  2.0198  1.6747 -3.3106
 2853TIP3   OH2 8564   4.024   0.317   1.312  0.5353  0.1857  0.1472
 2853TIP3    H1 8565   4.007   0.248   1.376 -1.4692 -0.0067 -0.5087
 2853TIP3    H2 8566   4.090   0.373   1.353 -1.1304  0.4532  2.7143
 2854TIP3   OH2 8567   0.467   2.109   5.075 -0.1689 -0.1547  0.7352
 2854TIP3    H1 8568   0.529   2.122   5.003  0.5834 -1.5648  1.0861
 2854TIP3    H2 8569   0.449   2.015   5.075 -1.1884  0.0211  1.5607
 2855TIP3   OH2 8570   1.467   2.213   2.522  0.4111 -0.1228 -0.3620
 2855TIP3    H1 8571   1.494   2.175   2.438 -1.5827  0.4097 -1.2897
 2855TIP3    H2 8572   1.482   2.143   2.585 -0.8300 -1.6371 -1.6399
 2856TIP3   OH2 8573   3.765   4.542   2.412 -0.1036  0.0779 -0.6875
 2856TIP3    H1 8574   3.705   4.595   2.464  0.7083 -1.1548  1.6638
 2856TIP3    H2 8575   3.711   4.503   2.344 -1.5097  0.7012  0.0462
 2857TIP3   OH2 8576   1.274   4.261   3.672 -0.0647  0.7973  0.2560
 2857TIP3    H1 8577   1.354   4.268   3.620  1.2783 -0.2180  2.0854
 2857TIP3    H2 8578   1.216   4.205   3.620  0.3607  1.5625 -1.1016
 2858TIP3   OH2 8579   2.543   2.108   0.389  0.5631  0.3517  0.2178
 2858TIP3    H1 8580   2.548   2.012   0.388 -0.1849  0.2847  1.2400
 2858TIP3    H2 8581   2.572   2.134   0.302  0.1650 -0.8402 -0.3028
 2859TIP3   OH2 8582   0.198   1.034   1.784 -0.1217  0.3179 -0.1886
 2859TIP3    H1 8583   0.202   1.059   1.692 -0.0660 -0.1539 -0.3177
 2859TIP3    H2 8584   0.288   1.008   1.806  0.2139  1.8894  0.4256
 2860TIP3   OH2 8585   0.162   1.701   1.907 -0.0248  0.1372 -0.0091
 2860TIP3    H1 8586   0.167   1.621   1.959  5.9783  0.2901  0.3036
 2860TIP3    H2 8587   0.154   1.772   1.971 -0.1615  0.0145  0.1086
 2861TIP3   OH2 8588   3.262   2.921   4.651  0.2059  0.4939 -0.0419
 2861TIP3    H1 8589   3.281   2.828   4.664  0.0332  0.6341  1.3743
 2861TIP3    H2 8590   3.269   2.934   4.556 -1.3847 -1.3144 -0.4898
 2862TIP3   OH2 8591   3.825   4.972   5.112 -0.6228  0.2539 -0.2288
 2862TIP3    H1 8592   3.916   4.976   5.138 -0.7449  0.4865  0.1552
 2862TIP3    H2 8593   3.791   4.892   5.154 -0.7547  0.4961  0.1280
 2863TIP3   OH2 8594   0.419   2.921   0.222 -0.1115  0.3476  0.2375
 2863TIP3    H1 8595   0.452   2.957   0.140 -0.8860  0.7204  0.0863
 2863TIP3    H2 8596   0.339   2.970   0.240 -1.2251 -1.2917  0.0092
 2864TIP3   OH2 8597   6.288   0.187   2.362  0.1517  0.5316  0.6269
 2864TIP3    H1 8598   6.281   0.186   2.458 -1.1941  4.0787  0.7546
 2864TIP3    H2 8599   6.363   0.243   2.344 -1.0904  1.9963 -0.2792
 2865TIP3   OH2 8600   0.449   3.007   2.672 -0.1626 -0.0671 -0.0335
 2865TIP3    H1 8601   0.428   3.077   2.610 -0.4655  1.3055  1.5519
 2865TIP3    H2 8602   0.364   2.986   2.712  0.0793 -0.7313  0.1346
 2866TIP3   OH2 8603   4.025   4.216   0.197  0.0291 -1.1033  0.1150
 2866TIP3    H1 8604   4.073   4.134   0.210 -0.3403 -1.1989  0.9557
 2866TIP3    H2 8605   4.007   4.247   0.286  1.0673  0.4265 -0.1609
 2867TIP3   OH2 8606   4.804   5.290   3.477 -0.0038  0.0067 -0.1478
 2867TIP3    H1 8607   4.869   5.358   3.460  0.4115 -0.3487  0.0232
 2867TIP3    H2 8608   4.803   5.238   3.397 -0.7209  0.5287 -0.4972
 2868TIP3   OH2 8609   3.011   5.798   3.874 -0.3342 -0.7066 -0.2122
 2868TIP3    H1 8610   3.072   5.802   3.800 -0.2875 -1.7123 -0.2382
 2868TIP3    H2 8611   2.974   5.710   3.870 -0.6186 -0.6407  0.7362
 2869TIP3   OH2 8612   5.051   4.615   4.723 -0.2131 -0.0692 -0.1619
 2869TIP3    H1 8613   5.012   4.531   4.746 -1.2171  0.5441  0.4318
 2869TIP3    H2 8614   5.027   4.629   4.632 -1.2550  0.2129  0.1418
 2870TIP3   OH2 8615   2.672   1.679   2.060  0.0578  0.0724  0.0148
 2870TIP3    H1 8616   2.717   1.598   2.085  1.7513  1.7923  3.2571
 2870TIP3    H2 8617   2.727   1.716   1.991  1.3553  0.1265  1.0287
 2871TIP3   OH2 8618   1.683   1.040   4.913  0.4339 -0.3812  0.0013
 2871TIP3    H1 8619   1.749   1.108   4.901 -0.7333  0.8063  0.0456
 2871TIP3    H2 8620   1.688   1.018   5.006  1.5774 -1.1968 -0.2327
 2872TIP3   OH2 8621   1.038   0.149   4.492  0.4035  0.1178  0.0455
 2872TIP3    H1 8622   1.054   0.161   4.586 -1.6765 -4.6923  1.3401
 2872TIP3    H2 8623   1.123   0.126   4.456  0.8723 -0.0974  1.2287
 2873TIP3   OH2 8624   3.610   4.150   4.691 -0.2747  0.1191  0.4199
 2873TIP3    H1 8625   3.521   4.133   4.662  0.3267 -0.5888 -1.1522
 2873TIP3    H2 8626   3.600   4.202   4.770 -2.0763 -0.2538  0.4837
 2874TIP3   OH2 8627   3.935   5.682   4.128 -0.3875  0.1665  0.6162
 2874TIP3    H1 8628   3.939   5.645   4.217  1.1810 -1.4231 -0.0407
 2874TIP3    H2 8629   3.967   5.771   4.138 -0.5819  0.1273  1.7069
 2875TIP3   OH2 8630   3.640   2.776   2.330 -0.4844  0.2040 -0.4099
 2875TIP3    H1 8631   3.586   2.853   2.348 -0.7831  0.3374 -1.7771
 2875TIP3    H2 8632   3.577   2.705   2.316 -0.2989  0.1881 -1.2241
 2876TIP3   OH2 8633   4.195   2.328   3.319 -0.0956 -0.1140  0.1463
 2876TIP3    H1 8634   4.203   2.240   3.285  2.3486  1.0880 -2.8518
 2876TIP3    H2 8635   4.126   2.368   3.267 -0.8063 -0.0498  1.1086
 2877TIP3   OH2 8636   5.519   1.497   0.343 -0.4305 -0.3751 -0.7672
 2877TIP3    H1 8637   5.589   1.516   0.280 -0.8129  0.1305 -1.0560
 2877TIP3    H2 8638   5.501   1.404   0.332  1.2421 -0.8894  0.4102
 2878TIP3   OH2 8639   5.036   4.945   3.560 -0.3308  0.2153 -0.4123
 2878TIP3    H1 8640   5.075   5.028   3.587 -0.6250  0.3509 -0.4009
 2878TIP3    H2 8641   5.083   4.878   3.609  0.0837  0.3556 -0.6146
 2879TIP3   OH2 8642   3.268   1.529   1.230 -0.5009  0.2014  0.2478
 2879TIP3    H1 8643   3.245   1.535   1.137 -0.2483  2.0630  0.2539
 2879TIP3    H2 8644   3.330   1.601   1.244  2.5779 -2.3626  1.0335
 2880TIP3   OH2 8645   1.799   0.278   4.367  0.0548  0.3564  0.1396
 2880TIP3    H1 8646   1.773   0.198   4.322  0.3072  0.3518  0.0012
 2880TIP3    H2 8647   1.887   0.297   4.334  0.3202  0.2438  0.7827
 2881TIP3   OH2 8648   3.560   0.770   1.420 -0.5010 -0.3403 -0.4570
 2881TIP3    H1 8649   3.476   0.725   1.412  0.0870 -1.4458 -0.8012
 2881TIP3    H2 8650   3.620   0.717   1.367  0.6899 -0.3365  0.8238
 2882TIP3   OH2 8651   0.052   1.597   1.675  0.7051 -0.4714 -0.4459
 2882TIP3    H1 8652   0.087   1.635   1.755 -1.3961  0.8370 -0.0546
 2882TIP3    H2 8653   0.012   1.515   1.703  0.7320 -0.4394 -0.3123
 2883TIP3   OH2 8654   3.937   2.597   3.015  0.1119 -0.2703  0.0897
 2883TIP3    H1 8655   3.939   2.622   2.922 -1.0859  2.4353  0.6873
 2883TIP3    H2 8656   4.018   2.634   3.051 -1.2033  2.1344  0.7895
 2884TIP3   OH2 8657   2.874   0.214   4.275 -0.1419 -0.5264 -0.3538
 2884TIP3    H1 8658   2.881   0.266   4.355  2.1196 -1.2015 -0.0198
 2884TIP3    H2 8659   2.909   0.272   4.207 -2.0592  0.0453 -0.8917
 2885TIP3   OH2 8660   1.571   5.026   0.846  0.5720 -0.1635  0.4822
 2885TIP3    H1 8661   1.577   5.039   0.941  3.2008  0.8434  0.2793
 2885TIP3    H2 8662   1.660   5.043   0.815  0.2406 -2.3435 -1.9729
 2886TIP3   OH2 8663   5.420   3.337   1.237  0.4068  0.0698 -0.4294
 2886TIP3    H1 8664   5.487   3.365   1.175 -0.3595  0.4771 -1.0993
 2886TIP3    H2 8665   5.345   3.393   1.217 -0.8670 -1.8129 -1.1608
 2887TIP3   OH2 8666   1.538   3.562   4.077 -0.4511  0.5165 -0.3240
 2887TIP3    H1 8667   1.632   3.579   4.068 -0.0165 -2.3519 -3.0102
 2887TIP3    H2 8668   1.496   3.640   4.041  1.0789  0.2943 -2.8032
 2888TIP3   OH2 8669   3.351   2.000   4.167  0.6723  0.3856 -0.1614
 2888TIP3    H1 8670   3.396   2.038   4.243  2.2919  2.4279 -1.9961
 2888TIP3    H2 8671   3.421   1.973   4.109 -0.5317 -0.9351 -1.0545
 2889TIP3   OH2 8672   2.928   0.793   1.119  0.7486  0.1910  0.7877
 2889TIP3    H1 8673   2.850   0.779   1.064  1.7188 -1.5601 -0.2206
 2889TIP3    H2 8674   2.916   0.881   1.154  0.2728  1.6514 -2.6414
 2890TIP3   OH2 8675   3.935   2.834   2.329  0.2461 -0.6442  0.2777
 2890TIP3    H1 8676   3.840   2.840   2.339  0.1650 -2.4861  1.1830
 2890TIP3    H2 8677   3.964   2.924   2.319 -1.7273 -0.1040 -1.5414
 2891TIP3   OH2 8678   1.585   3.382   0.550  0.2430  0.1963  0.1291
 2891TIP3    H1 8679   1.596   3.309   0.611 -4.0134  0.4103  1.4675
 2891TIP3    H2 8680   1.584   3.460   0.605 -2.2736  0.5261 -0.2588
 2892TIP3   OH2 8681   6.229   2.834   5.053 -1.0293 -0.4863 -0.5908
 2892TIP3    H1 8682   6.206   2.910   5.000 -0.7743  0.7324  0.9551
 2892TIP3    H2 8683   6.163   2.834   5.123 -0.2027 -0.8440  0.2088
 2893TIP3   OH2 8684   1.235   5.681   1.717  0.7156 -0.6286  0.1197
 2893TIP3    H1 8685   1.232   5.598   1.764  1.0435 -0.3128  0.6976
 2893TIP3    H2 8686   1.199   5.745   1.778  1.8854 -0.0745  0.2428
 2894TIP3   OH2 8687   4.388   0.391   3.880  0.3757  0.7771  0.1693
 2894TIP3    H1 8688   4.445   0.447   3.827  1.1655 -0.3325 -0.1812
 2894TIP3    H2 8689   4.329   0.452   3.923  1.2251  1.8902 -0.1841
 2895TIP3   OH2 8690   0.513   0.924   5.041  0.1426 -0.2582 -0.3281
 2895TIP3    H1 8691   0.510   0.951   5.133  0.2400  2.2921 -0.9954
 2895TIP3    H2 8692   0.601   0.886   5.031 -0.2160 -1.4968  0.8016
 2896TIP3   OH2 8693   5.138   0.150   2.573  0.6045  0.1304  0.3373
 2896TIP3    H1 8694   5.209   0.137   2.636 -0.4156 -1.9348  1.1446
 2896TIP3    H2 8695   5.106   0.238   2.590  0.7440 -0.1617  2.3076
 2897TIP3   OH2 8696   0.664   3.970   0.379 -0.1671  0.3203  0.7872
 2897TIP3    H1 8697   0.596   3.905   0.362 -0.7964  0.9801  0.7938
 2897TIP3    H2 8698   0.732   3.920   0.426 -1.8587  0.2399  3.3761
 2898TIP3   OH2 8699   1.702   4.672   2.118 -0.9703  0.0292  0.0185
 2898TIP3    H1 8700   1.682   4.621   2.196 -0.3204  0.3054  0.3770
 2898TIP3    H2 8701   1.633   4.649   2.056 -2.6102  1.2061  1.3044
 2899TIP3   OH2 8702   5.345   4.446   1.206 -0.1489 -0.3298  0.4609
 2899TIP3    H1 8703   5.412   4.507   1.175  0.7337 -1.8469 -0.7999
 2899TIP3    H2 8704   5.394   4.377   1.250 -1.0716 -0.5032  1.2573
 2900TIP3   OH2 8705   1.750   3.932   3.170 -0.3190 -0.5073  0.0807
 2900TIP3    H1 8706   1.793   3.954   3.088 -0.5966 -2.0303 -0.5066
 2900TIP3    H2 8707   1.818   3.940   3.237  0.1489 -0.1918 -0.4301
 2901TIP3   OH2 8708   1.300   5.183   3.876 -0.2344 -0.1594  0.3874
 2901TIP3    H1 8709   1.334   5.123   3.942  2.1445  1.0351  0.3863
 2901TIP3    H2 8710   1.206   5.170   3.876 -0.1679 -1.0772  3.1285
 2902TIP3   OH2 8711   3.040   0.316   3.733 -0.2743  0.2806  0.0776
 2902TIP3    H1 8712   3.033   0.337   3.826 -1.2461  2.9789 -0.5048
 2902TIP3    H2 8713   2.954   0.281   3.709 -1.3873  3.0740 -0.4558
 2903TIP3   OH2 8714   5.789   2.085   2.796  0.5531  0.2954  0.1394
 2903TIP3    H1 8715   5.715   2.119   2.846  1.3999  0.1175  1.5726
 2903TIP3    H2 8716   5.775   1.990   2.794 -0.0330  0.3828 -0.9303
 2904TIP3   OH2 8717   4.765   0.619   0.777 -0.1612  1.0339  0.1604
 2904TIP3    H1 8718   4.846   0.572   0.759  0.1594  1.2614  0.9658
 2904TIP3    H2 8719   4.704   0.550   0.804  0.5961  1.1369  2.3141
 2905TIP3   OH2 8720   4.250   0.371   0.457  0.1023 -0.5108  0.2527
 2905TIP3    H1 8721   4.202   0.431   0.400 -1.6296 -1.3627  0.7398
 2905TIP3    H2 8722   4.184   0.339   0.519  0.8909 -3.0317 -0.0792
 2906TIP3   OH2 8723   3.868   5.376   4.489 -0.1764 -0.2382 -0.1146
 2906TIP3    H1 8724   3.839   5.311   4.554  0.5649 -0.1054  0.3600
 2906TIP3    H2 8725   3.815   5.357   4.412  0.8881 -2.2590 -0.4351
 2907TIP3   OH2 8726   5.976   5.265   3.668 -0.2744 -0.6847  0.1568
 2907TIP3    H1 8727   6.044   5.254   3.734 -0.8375 -0.2049  0.8302
 2907TIP3    H2 8728   6.017   5.321   3.602 -0.0806 -0.2218  0.6610
 2908TIP3   OH2 8729   3.833   5.080   4.246 -0.6137 -0.6568  0.0854
 2908TIP3    H1 8730   3.769   5.138   4.287 -0.6053 -1.1914  0.8774
 2908TIP3    H2 8731   3.885   5.047   4.319 -0.1884 -1.1377 -0.4300
 2909TIP3   OH2 8732   0.843   4.934   4.841 -0.2338 -0.3199 -0.0755
 2909TIP3    H1 8733   0.758   4.890   4.845 -0.7227  0.4498 -1.4506
 2909TIP3    H2 8734   0.906   4.868   4.870 -1.1363 -1.3466 -0.4002
 2910TIP3   OH2 8735   1.774   4.078   1.057 -0.5322  0.1840 -0.2992
 2910TIP3    H1 8736   1.855   4.027   1.063  0.5140  1.6746 -1.1642
 2910TIP3    H2 8737   1.752   4.078   0.964 -0.2460  1.6777 -0.3929
 2911TIP3   OH2 8738   5.310   0.758   1.962 -0.1335 -0.5271  0.3498
 2911TIP3    H1 8739   5.276   0.819   2.028 -0.6927 -1.0566  0.5627
 2911TIP3    H2 8740   5.404   0.772   1.962 -0.1111 -0.6112  1.3559
 2912TIP3   OH2 8741   6.270   2.373   0.462 -0.0465  0.3856  0.1849
 2912TIP3    H1 8742   6.241   2.282   0.453 -1.2468  0.9071 -2.3018
 2912TIP3    H2 8743   6.196   2.417   0.504 -0.1190  0.4943 -0.0555
 2913TIP3   OH2 8744   4.160   0.249   1.068  0.1432  0.1034  0.3585
 2913TIP3    H1 8745   4.080   0.241   1.016  0.5451 -0.3280 -0.2171
 2913TIP3    H2 8746   4.130   0.265   1.157 -0.6247 -1.0380  0.3305
 2914TIP3   OH2 8747   3.901   1.869   3.252 -0.0015 -0.0536  0.0504
 2914TIP3    H1 8748   3.823   1.924   3.255  0.1461  0.2974 -1.5350
 2914TIP3    H2 8749   3.969   1.922   3.294  0.1464  1.0402 -1.4798
 2915TIP3   OH2 8750   5.585   4.833   1.553 -0.2224 -0.0935 -0.0381
 2915TIP3    H1 8751   5.597   4.928   1.549 -0.2836 -0.0598  0.4890
 2915TIP3    H2 8752   5.627   4.807   1.635 -0.5903 -0.4610  0.0364
 2916TIP3   OH2 8753   0.361   1.906   0.372 -0.1761 -0.1838  0.4200
 2916TIP3    H1 8754   0.318   1.825   0.343  0.3864 -1.1388  2.1147
 2916TIP3    H2 8755   0.429   1.922   0.306 -0.1101 -1.2584  0.2158
 2917TIP3   OH2 8756   3.562   4.320   1.617 -0.4831 -0.4670  0.1148
 2917TIP3    H1 8757   3.542   4.232   1.650  1.5022 -0.0461  2.7283
 2917TIP3    H2 8758   3.520   4.379   1.680 -0.5566  0.4603 -0.7831
 2918TIP3   OH2 8759   0.077   2.235   3.280  0.2567 -0.7253  0.3385
 2918TIP3    H1 8760   0.081   2.269   3.369 -1.4592  0.0029  0.1802
 2918TIP3    H2 8761   0.021   2.159   3.285  0.6612 -1.0559 -0.0260
 2919TIP3   OH2 8762   6.031   3.491   2.349 -0.0194 -0.3503 -0.3340
 2919TIP3    H1 8763   6.059   3.461   2.436  0.8061  0.7875 -0.1806
 2919TIP3    H2 8764   6.019   3.411   2.299 -2.9323 -1.2141  1.5044
 2920TIP3   OH2 8765   5.178   5.337   0.317  0.1366  0.3896 -0.1945
 2920TIP3    H1 8766   5.262   5.370   0.351  1.1504 -0.3978 -1.8107
 2920TIP3    H2 8767   5.203   5.280   0.244 -1.7736 -0.7153 -0.0355
 2921TIP3   OH2 8768   0.628   0.296   0.940  0.5011  0.0438 -0.0277
 2921TIP3    H1 8769   0.592   0.373   0.895 -0.0331  0.3703  0.9085
 2921TIP3    H2 8770   0.702   0.269   0.887  0.2892  0.8130 -0.7342
 2922TIP3   OH2 8771   1.498   4.680   0.840 -0.1918 -0.1089 -0.0447
 2922TIP3    H1 8772   1.514   4.772   0.819 -0.1405 -0.4003 -1.3479
 2922TIP3    H2 8773   1.403   4.669   0.833 -0.0929 -0.4106 -1.0358
 2923TIP3   OH2 8774   3.460   3.948   1.201 -0.3305  0.3829  0.1776
 2923TIP3    H1 8775   3.515   3.905   1.267  0.0778  1.0072  0.2559
 2923TIP3    H2 8776   3.448   4.037   1.235  0.1749  0.8178 -0.7570
 2924TIP3   OH2 8777   3.708   2.049   0.957  0.1250 -0.1919  0.3535
 2924TIP3    H1 8778   3.773   2.023   0.891  0.4113  0.7544  0.2538
 2924TIP3    H2 8779   3.664   1.967   0.980 -0.8437 -0.3727 -1.9144
 2925TIP3   OH2 8780   1.722   4.622   2.414 -0.0728  0.1156  0.0441
 2925TIP3    H1 8781   1.768   4.561   2.471  0.2040  1.8380  1.7390
 2925TIP3    H2 8782   1.637   4.635   2.456 -1.0658 -0.8141 -1.5355
 2926TIP3   OH2 8783   2.459   5.278   1.012 -0.0040  0.2820 -0.4531
 2926TIP3    H1 8784   2.508   5.197   1.003  0.6335  0.8299 -2.2898
 2926TIP3    H2 8785   2.525   5.347   1.013 -0.4829  0.8008  1.8280
 2927TIP3   OH2 8786   2.179   5.576   3.285 -0.1983  0.0538 -0.3999
 2927TIP3    H1 8787   2.234   5.498   3.284 -2.2125 -1.4585 -0.0254
 2927TIP3    H2 8788   2.217   5.631   3.354  0.8520 -0.9115 -0.1790
 2928TIP3   OH2 8789   3.874   2.197   1.183  0.5003 -0.5569 -0.0780
 2928TIP3    H1 8790   3.802   2.133   1.182 -1.6394  1.7051 -0.8358
 2928TIP3    H2 8791   3.936   2.164   1.117 -2.5046  0.0997 -3.5694
 2929TIP3   OH2 8792   0.142   2.664   1.027  0.6070 -0.0526  0.7979
 2929TIP3    H1 8793   0.049   2.683   1.040  0.4541 -0.9896  1.1518
 2929TIP3    H2 8794   0.182   2.681   1.112  0.4804 -1.1590  1.0987
 2930TIP3   OH2 8795   1.370   1.060   2.099 -0.2763  0.2348  0.4312
 2930TIP3    H1 8796   1.436   1.028   2.160 -1.0586 -1.2174  0.5555
 2930TIP3    H2 8797   1.420   1.089   2.023  0.7576  2.6478  1.9246
 2931TIP3   OH2 8798   4.316   2.774   1.254 -0.2452  0.4868  0.3300
 2931TIP3    H1 8799   4.399   2.794   1.298  0.1550 -0.3153 -0.0372
 2931TIP3    H2 8800   4.249   2.794   1.320  0.3213 -0.3637  1.1944
 2932TIP3   OH2 8801   4.684   0.483   2.335  0.1336 -0.2600 -0.1118
 2932TIP3    H1 8802   4.649   0.528   2.259 -2.0288  0.5693  1.2685
 2932TIP3    H2 8803   4.757   0.538   2.365 -0.1083  0.3311 -0.5965
 2933TIP3   OH2 8804   5.478   2.821   3.960 -0.1953  0.5215  0.0345
 2933TIP3    H1 8805   5.499   2.886   3.893 -1.0171 -0.0837 -0.8386
 2933TIP3    H2 8806   5.402   2.774   3.925 -0.4217 -0.0443  1.2392
 2934TIP3   OH2 8807   5.501   1.442   2.960  0.3905  0.2523  0.1513
 2934TIP3    H1 8808   5.588   1.438   2.999  1.0727 -1.5140 -1.3766
 2934TIP3    H2 8809   5.515   1.475   2.871 -0.1496 -1.8585 -0.7991
 2935TIP3   OH2 8810   1.609   5.709   3.075 -0.0349 -0.2212 -0.0161
 2935TIP3    H1 8811   1.533   5.698   3.133 -0.9409 -1.6379 -1.3684
 2935TIP3    H2 8812   1.583   5.781   3.016  2.1589  3.4696  3.1179
 2936TIP3   OH2 8813   3.849   2.207   0.744 -0.1498  0.1839 -0.1048
 2936TIP3    H1 8814   3.890   2.120   0.737  3.5862  1.6522  0.9341
 2936TIP3    H2 8815   3.853   2.228   0.837 -0.7152  1.5650 -0.3684
 2937TIP3   OH2 8816   2.986   3.389   1.158 -0.2564  0.0408 -0.5531
 2937TIP3    H1 8817   2.911   3.349   1.115 -0.7024  1.2442 -0.9096
 2937TIP3    H2 8818   2.957   3.401   1.249  1.1124 -3.6619  0.5675
 2938TIP3   OH2 8819   1.460   4.874   2.714  0.6045 -0.0122 -0.2856
 2938TIP3    H1 8820   1.379   4.898   2.669  0.7252  0.5743 -0.1924
 2938TIP3    H2 8821   1.530   4.907   2.658  0.7503  1.8082  0.8883
 2939TIP3   OH2 8822   1.021   3.933   3.722  0.4576  0.2289 -0.0374
 2939TIP3    H1 8823   0.932   3.896   3.717 -0.9591  3.0204  1.9942
 2939TIP3    H2 8824   1.077   3.858   3.742 -1.4345 -1.5881 -1.1201
 2940TIP3   OH2 8825   6.181   0.667   0.683  0.0014  0.5238 -0.0381
 2940TIP3    H1 8826   6.230   0.749   0.673 -0.8939  1.1210  0.3352
 2940TIP3    H2 8827   6.217   0.609   0.615 -0.1964  1.6466 -1.1490
 2941TIP3   OH2 8828   3.356   0.453   4.031  0.3976  0.1639  0.4718
 2941TIP3    H1 8829   3.289   0.424   3.968  1.4532 -0.6208 -0.3264
 2941TIP3    H2 8830   3.322   0.535   4.066 -0.4137  0.4278 -0.8436
 2942TIP3   OH2 8831   3.733   4.381   3.904 -0.0256  0.2880  0.0622
 2942TIP3    H1 8832   3.729   4.335   3.820 -1.2735  1.4158 -0.5378
 2942TIP3    H2 8833   3.646   4.420   3.914 -0.4748 -1.1489  2.6712
 2943TIP3   OH2 8834   2.654   4.559   1.761 -0.4795  0.1127 -0.2825
 2943TIP3    H1 8835   2.591   4.602   1.703 -0.1220 -0.0487 -0.7964
 2943TIP3    H2 8836   2.682   4.628   1.821 -1.2560  0.1453  0.0459
 2944TIP3   OH2 8837   3.422   5.927   5.100 -0.1508  0.4612 -0.0364
 2944TIP3    H1 8838   3.462   5.933   5.186 -0.1781 -0.3255  0.0432
 2944TIP3    H2 8839   3.335   5.966   5.110 -1.1336 -1.7905  0.9547
 2945TIP3   OH2 8840   5.312   4.737   3.610  0.0255  0.5073  0.0913
 2945TIP3    H1 8841   5.391   4.762   3.659 -0.4133  1.4782  0.3460
 2945TIP3    H2 8842   5.254   4.699   3.676  0.1244  0.1799 -0.0127
 2946TIP3   OH2 8843   4.363   4.722   1.523 -0.2811  0.0876 -0.1068
 2946TIP3    H1 8844   4.403   4.706   1.609 -2.0893  1.0866  0.9624
 2946TIP3    H2 8845   4.386   4.644   1.472  0.9449 -0.4745  1.2225
 2947TIP3   OH2 8846   4.043   3.539   3.071  0.2868 -0.5388  0.3166
 2947TIP3    H1 8847   3.964   3.485   3.068 -0.6309  0.7898 -2.0826
 2947TIP3    H2 8848   4.011   3.628   3.056  2.2917 -0.1042 -1.9083
 2948TIP3   OH2 8849   4.683   2.988   4.281 -0.4957  0.1899 -0.4859
 2948TIP3    H1 8850   4.601   2.940   4.292  0.1045 -0.4994  1.4115
 2948TIP3    H2 8851   4.692   3.000   4.186 -1.3340 -2.3085 -0.9467
 2949TIP3   OH2 8852   2.666   3.708   1.688  0.3688 -0.5958  0.2399
 2949TIP3    H1 8853   2.666   3.803   1.698 -2.0103 -0.5983  0.9860
 2949TIP3    H2 8854   2.715   3.692   1.607 -0.9089  1.4509 -1.0504
 2950TIP3   OH2 8855   4.725   2.102   3.926 -0.6113 -0.6787 -0.0596
 2950TIP3    H1 8856   4.791   2.132   3.989 -1.6951  0.1514  0.7399
 2950TIP3    H2 8857   4.663   2.051   3.979 -2.1997  1.0369 -0.1472
 2951TIP3   OH2 8858   2.515   0.462   3.268  0.0425  0.0608 -0.9585
 2951TIP3    H1 8859   2.589   0.511   3.230 -0.0711 -0.7464 -2.2747
 2951TIP3    H2 8860   2.464   0.528   3.315  1.8865  0.5547  0.4955
 2952TIP3   OH2 8861   2.656   5.490   0.952 -0.4535  0.0313 -0.4271
 2952TIP3    H1 8862   2.720   5.478   0.882 -0.5728  0.5244 -0.6214
 2952TIP3    H2 8863   2.579   5.526   0.908 -0.2759  1.0513  0.0663
 2953TIP3   OH2 8864   3.519   5.268   3.798  0.4447 -0.0048  0.0214
 2953TIP3    H1 8865   3.519   5.226   3.712  0.9132 -0.3433  0.1785
 2953TIP3    H2 8866   3.486   5.200   3.857 -0.6381  0.4839  0.0021
 2954TIP3   OH2 8867   5.561   1.076   1.842  0.1583 -0.6407 -0.0361
 2954TIP3    H1 8868   5.539   0.985   1.862 -1.6406 -0.5142 -1.2225
 2954TIP3    H2 8869   5.477   1.119   1.828  1.0015  1.0406 -0.2905
 2955TIP3   OH2 8870   4.920   3.114   4.297  0.1437 -0.0627  0.5103
 2955TIP3    H1 8871   4.947   3.096   4.387  1.3270  0.7263  0.3268
 2955TIP3    H2 8872   4.831   3.080   4.292  0.6830 -1.7002  1.4676
 2956TIP3   OH2 8873   2.315   5.353   1.320  0.4356 -0.2357 -0.5675
 2956TIP3    H1 8874   2.389   5.384   1.268  0.2015  1.1874 -0.0818
 2956TIP3    H2 8875   2.264   5.431   1.339 -1.4082 -1.2225 -1.1688
 2957TIP3   OH2 8876   5.806   1.246   0.988 -0.8935 -0.6094  0.3499
 2957TIP3    H1 8877   5.756   1.256   1.069  0.1563  0.7499  0.8685
 2957TIP3    H2 8878   5.896   1.268   1.013 -0.5230 -0.3165 -1.1633
 2958TIP3   OH2 8879   0.112   0.374   4.244  0.0688  0.2655  0.3885
 2958TIP3    H1 8880   0.199   0.397   4.278  0.0973  0.3618  0.2494
 2958TIP3    H2 8881   0.123   0.371   4.149 -0.0214  0.0323  0.3841
 2959TIP3   OH2 8882   0.694   3.892   3.574  0.1172 -0.2996  0.1173
 2959TIP3    H1 8883   0.602   3.871   3.558  0.1693  0.6197 -1.6909
 2959TIP3    H2 8884   0.732   3.811   3.609 -0.6375 -1.8650 -2.4207
 2960TIP3   OH2 8885   3.027   5.032   3.505  0.1734  0.2297 -0.1756
 2960TIP3    H1 8886   2.990   5.038   3.417 -1.4447 -1.1547  0.3516
 2960TIP3    H2 8887   3.012   4.942   3.532 -1.7263  1.1895  2.4487
 2961TIP3   OH2 8888   1.905   0.373   3.869  0.0725  0.2981 -0.4762
 2961TIP3    H1 8889   1.923   0.420   3.788 -0.3612  1.6152  0.1622
 2961TIP3    H2 8890   1.976   0.398   3.928 -0.2639  0.3122 -0.0701
 2962TIP3   OH2 8891   3.282   4.109   4.012  0.0347 -0.2971  0.1715
 2962TIP3    H1 8892   3.194   4.139   4.034 -0.4906 -0.6382 -1.3386
 2962TIP3    H2 8893   3.337   4.139   4.084 -1.2925  0.0338  1.0756
 2963TIP3   OH2 8894   2.606   1.034   0.940 -0.4230 -0.4700  0.1317
 2963TIP3    H1 8895   2.516   1.015   0.912 -0.6840  1.0117 -0.0904
 2963TIP3    H2 8896   2.601   1.120   0.981  0.6723 -0.9492  1.3327
 2964TIP3   OH2 8897   0.933   1.984   4.299  0.4750 -0.0647  0.1639
 2964TIP3    H1 8898   0.993   2.002   4.227  0.0473 -1.9022 -0.7150
 2964TIP3    H2 8899   0.939   1.889   4.312 -1.5324 -0.1681  0.6692
 2965TIP3   OH2 8900   1.521   0.705   1.618 -0.5704 -0.4880  0.1272
 2965TIP3    H1 8901   1.511   0.677   1.709 -2.8585  1.1947  0.4807
 2965TIP3    H2 8902   1.512   0.624   1.567 -2.8917 -1.0493  1.2751
 2966TIP3   OH2 8903   5.733   2.118   0.832  0.8086 -0.0035  0.5418
 2966TIP3    H1 8904   5.646   2.099   0.796  1.0378  0.7715 -0.4835
 2966TIP3    H2 8905   5.760   2.037   0.874 -0.9923  0.1572  2.1182
 2967TIP3   OH2 8906   3.726   4.373   2.001 -0.4597 -0.4039 -0.3216
 2967TIP3    H1 8907   3.708   4.467   1.999  0.7258 -0.1271  0.7308
 2967TIP3    H2 8908   3.659   4.337   2.059  0.6451  0.2225  1.4442
 2968TIP3   OH2 8909   3.051   5.567   0.497 -0.1171  0.0842  0.6895
 2968TIP3    H1 8910   2.957   5.550   0.505 -0.0043 -0.5828  0.6863
 2968TIP3    H2 8911   3.062   5.604   0.410 -0.4456  0.6703  0.8940
 2969TIP3   OH2 8912   4.845   1.626   5.078 -0.0547  0.0310  0.4404
 2969TIP3    H1 8913   4.778   1.693   5.097 -0.5393 -0.2860 -0.1070
 2969TIP3    H2 8914   4.866   1.640   4.986  0.0435 -0.4015  0.3986
 2970TIP3   OH2 8915   4.955   0.635   4.139 -0.0528  0.0341 -0.4596
 2970TIP3    H1 8916   4.953   0.688   4.060  1.6813 -0.6613 -1.0102
 2970TIP3    H2 8917   4.933   0.547   4.110 -1.4554  0.1405  0.2036
 2971TIP3   OH2 8918   2.386   2.199   0.615 -0.6640  0.2243 -0.3998
 2971TIP3    H1 8919   2.386   2.212   0.520  0.8443 -0.3446 -0.5091
 2971TIP3    H2 8920   2.383   2.288   0.651  0.9171  0.5572 -1.0176
 2972TIP3   OH2 8921   3.926   0.198   0.914 -0.2469 -0.4119 -0.5525
 2972TIP3    H1 8922   3.878   0.192   0.996  1.5643 -1.8672  0.4704
 2972TIP3    H2 8923   3.959   0.109   0.899  2.7413  0.6120 -0.7576
 2973TIP3   OH2 8924   3.755   2.630   3.207 -0.6936 -0.1226 -0.0584
 2973TIP3    H1 8925   3.826   2.637   3.145 -0.6843  0.3333  0.0029
 2973TIP3    H2 8926   3.796   2.639   3.293 -0.4327 -2.5229  0.1494
 2974TIP3   OH2 8927   4.479   1.375   4.851  0.1000  0.2569 -0.7470
 2974TIP3    H1 8928   4.493   1.408   4.940  2.4975  2.3061 -1.7861
 2974TIP3    H2 8929   4.531   1.294   4.848  1.5832  1.1760 -0.7924
 2975TIP3   OH2 8930   2.279   3.209   0.014 -0.4755  0.0258  0.0490
 2975TIP3    H1 8931   2.233   3.187  -0.067  1.7831 -2.1721 -0.7829
 2975TIP3    H2 8932   2.259   3.137   0.073  1.0616 -0.5064 -0.0264
 2976TIP3   OH2 8933   5.147   5.877   4.580  0.1224 -0.4068  0.0512
 2976TIP3    H1 8934   5.160   5.967   4.549  0.1935 -1.2070 -2.4722
 2976TIP3    H2 8935   5.052   5.869   4.591  0.1474  0.0743  0.6886
 2977TIP3   OH2 8936   1.474   3.927   4.654 -0.1291 -0.5008  0.2320
 2977TIP3    H1 8937   1.462   4.012   4.611 -0.5145 -1.0307 -0.7380
 2977TIP3    H2 8938   1.464   3.947   4.748 -0.3839  0.4954  0.0133
 2978TIP3   OH2 8939   5.368   3.736   3.778  0.2775  0.2237 -0.2832
 2978TIP3    H1 8940   5.399   3.801   3.715 -1.2802  1.4167  0.1159
 2978TIP3    H2 8941   5.421   3.752   3.857 -0.8021  1.7897  0.1737
 2979TIP3   OH2 8942   5.098   5.758   3.577 -0.1244 -0.5699  0.3282
 2979TIP3    H1 8943   5.146   5.769   3.659 -1.0102  0.2351  0.7601
 2979TIP3    H2 8944   5.077   5.847   3.549 -2.9799 -0.8806  1.1666
 2980TIP3   OH2 8945   3.179   3.064   1.271 -0.0590 -0.2201 -0.1555
 2980TIP3    H1 8946   3.267   3.103   1.266 -0.0760 -0.0060  1.0382
 2980TIP3    H2 8947   3.192   2.974   1.241  0.3119  0.1597 -1.2233
 2981TIP3   OH2 8948   1.288   5.858   2.639 -0.5478 -0.0910 -0.3197
 2981TIP3    H1 8949   1.375   5.820   2.651 -0.9986 -0.6821  1.2947
 2981TIP3    H2 8950   1.257   5.823   2.556 -0.1308 -1.6915  0.1739
 2982TIP3   OH2 8951   1.880   0.114   3.102  0.4311 -0.3776  0.4731
 2982TIP3    H1 8952   1.891   0.155   3.016 -0.0789 -0.4793  0.3538
 2982TIP3    H2 8953   1.807   0.162   3.142  0.8353 -0.1571  0.9584
 2983TIP3   OH2 8954   5.921   3.005   4.499 -0.3418 -0.4081  0.1334
 2983TIP3    H1 8955   5.872   3.085   4.517 -0.9033 -0.9539  1.0757
 2983TIP3    H2 8956   6.011   3.026   4.526 -0.2832  0.1991 -0.4957
 2984TIP3   OH2 8957   2.494   0.675   0.834  0.1676 -0.0702  0.2628
 2984TIP3    H1 8958   2.531   0.648   0.750 -2.5418 -3.3042 -0.1310
 2984TIP3    H2 8959   2.485   0.593   0.883  0.0497  1.5035  3.0306
 2985TIP3   OH2 8960   1.700   3.214   1.975 -0.3383 -0.1802 -0.1027
 2985TIP3    H1 8961   1.763   3.236   2.043 -1.4363 -1.8221  1.5488
 2985TIP3    H2 8962   1.647   3.293   1.964  0.4304  0.3932  0.2762
 2986TIP3   OH2 8963   4.677   3.021   2.175  0.1842 -0.1684  0.0637
 2986TIP3    H1 8964   4.695   2.928   2.185 -0.6216 -0.2799  0.5952
 2986TIP3    H2 8965   4.730   3.062   2.244 -0.3516 -0.3501  0.5967
 2987TIP3   OH2 8966   1.785   3.395   4.725 -0.0854 -0.2838 -0.3943
 2987TIP3    H1 8967   1.786   3.327   4.657 -2.6446 -1.1540  0.3263
 2987TIP3    H2 8968   1.766   3.476   4.678 -0.5752 -0.6730 -0.8756
 2988TIP3   OH2 8969   5.015   2.424   0.692 -0.0330 -0.1067 -0.0601
 2988TIP3    H1 8970   5.017   2.519   0.704 -0.1065 -0.2222  0.9501
 2988TIP3    H2 8971   5.103   2.395   0.719  0.0643 -0.3049 -0.5804
 2989TIP3   OH2 8972   1.851   4.769   1.925  0.3726 -0.2634 -0.0751
 2989TIP3    H1 8973   1.774   4.777   1.868 -1.1409  0.7136  1.9748
 2989TIP3    H2 8974   1.821   4.714   1.997  1.8876 -0.5375  0.3846
 2990TIP3   OH2 8975   4.173   5.784   3.316  0.1335  0.2416 -0.1676
 2990TIP3    H1 8976   4.215   5.702   3.288 -1.5451 -0.9273  0.5359
 2990TIP3    H2 8977   4.087   5.782   3.274 -0.4915  0.8996  1.0237
 2991TIP3   OH2 8978   0.382   1.845   5.125  0.5678 -0.3476 -0.4782
 2991TIP3    H1 8979   0.365   1.765   5.176 -0.7699 -0.6033 -1.2647
 2991TIP3    H2 8980   0.295   1.883   5.112  1.2933  2.1520  1.2733
 2992TIP3   OH2 8981   3.069   1.107   2.466 -0.5060 -0.6397  0.0431
 2992TIP3    H1 8982   3.081   1.020   2.503 -0.1180  0.2442  2.0994
 2992TIP3    H2 8983   3.038   1.160   2.539 -1.3538  0.8269 -1.3199
 2993TIP3   OH2 8984   1.581   5.663   3.630  0.1258  0.1217  0.4910
 2993TIP3    H1 8985   1.571   5.586   3.573  3.1725  0.3909 -0.5657
 2993TIP3    H2 8986   1.635   5.632   3.703  0.4294  0.9881  0.6407
 2994TIP3   OH2 8987   4.266   3.277   3.279  0.5567 -0.5277 -0.4634
 2994TIP3    H1 8988   4.214   3.299   3.356 -0.4108 -1.7065 -0.7580
 2994TIP3    H2 8989   4.345   3.236   3.314 -0.0161 -1.3353 -0.0988
 2995TIP3   OH2 8990   5.522   1.441   2.117  0.5095  0.0492 -0.2240
 2995TIP3    H1 8991   5.556   1.363   2.073 -1.1625 -0.2757 -1.0592
 2995TIP3    H2 8992   5.427   1.430   2.113  0.2726  1.4081  1.0028
 2996TIP3   OH2 8993   1.999   1.330   4.327  0.2678  0.1010  0.6293
 2996TIP3    H1 8994   2.072   1.390   4.346  1.0682 -0.6647  0.0308
 2996TIP3    H2 8995   2.010   1.307   4.235 -0.8389  0.0951  0.4859
 2997TIP3   OH2 8996   3.172   2.086   4.743 -0.5472 -0.5428 -0.2041
 2997TIP3    H1 8997   3.127   2.134   4.812  0.0075  2.8014 -1.9097
 2997TIP3    H2 8998   3.106   2.074   4.675 -0.4660 -1.5383 -0.1172
 2998TIP3   OH2 8999   1.638   2.009   2.434  0.4000  0.3071 -0.1279
 2998TIP3    H1 9000   1.668   1.977   2.349 -0.7930 -0.9606 -0.1053
 2998TIP3    H2 9001   1.631   1.930   2.488 -0.6249  0.8625  0.5773
 2999TIP3   OH2 9002   4.854   2.080   0.616 -0.1303  0.3650 -0.0101
 2999TIP3    H1 9003   4.931   2.064   0.562  0.1744  0.6351  0.3380
 2999TIP3    H2 9004   4.888   2.087   0.705 -0.5423  0.6085  0.1325
 3000TIP3   OH2 9005   4.738   4.037   4.410  0.1720  0.2881 -0.0628
 3000TIP3    H1 9006   4.702   3.990   4.334 -1.0360  1.9892 -0.5930
 3000TIP3    H2 9007   4.832   4.042   4.392  0.1705 -0.9080 -0.5279
 3001TIP3   OH2 9008   3.400   1.633   2.554 -0.0019 -0.2625 -0.0987
 3001TIP3    H1 9009   3.362   1.715   2.520 -0.9312 -0.1026  1.2552
 3001TIP3    H2 9010   3.491   1.656   2.574 -0.4034  0.6070  0.7881
 3002TIP3   OH2 9011   0.373   2.352   3.281  0.0033 -0.0836 -0.7458
 3002TIP3    H1 9012   0.416   2.292   3.220 -0.9385  0.1059 -1.6071
 3002TIP3    H2 9013   0.285   2.315   3.293  1.1314 -2.0776  3.1833
 3003TIP3   OH2 9014   6.196   1.732   0.066  0.1537  0.3664 -0.1319
 3003TIP3    H1 9015   6.230   1.643   0.074  1.6787  0.9700  0.3849
 3003TIP3    H2 9016   6.219   1.774   0.149  0.0352  1.4334 -0.6270
 3004TIP3   OH2 9017   5.120   3.488   3.775 -0.4438 -0.2076  0.1712
 3004TIP3    H1 9018   5.176   3.459   3.704 -0.3115 -2.5998  1.1703
 3004TIP3    H2 9019   5.044   3.528   3.732  0.3559 -0.1706 -1.2401
 3005TIP3   OH2 9020   0.179   3.529   0.988  0.0738 -0.1173 -0.6152
 3005TIP3    H1 9021   0.257   3.489   0.950 -0.0101 -3.4114  2.2173
 3005TIP3    H2 9022   0.213   3.601   1.042  0.6635  0.9889 -2.3683
 3006TIP3   OH2 9023   4.956   5.539   0.306  0.2775  0.1208 -0.1520
 3006TIP3    H1 9024   5.031   5.553   0.365 -0.0718  0.9211  0.1132
 3006TIP3    H2 9025   4.989   5.478   0.240  1.1413  0.3923  0.0094
 3007TIP3   OH2 9026   1.010   2.924   4.662 -0.1274  0.3116 -0.0193
 3007TIP3    H1 9027   1.019   2.945   4.569  1.1742 -0.1399 -0.0214
 3007TIP3    H2 9028   1.000   3.009   4.705 -1.9077  0.4529 -0.6657
 3008TIP3   OH2 9029   3.260   3.519   0.711 -0.3033  0.3872 -0.0290
 3008TIP3    H1 9030   3.207   3.474   0.777 -0.0598 -1.0927 -0.8011
 3008TIP3    H2 9031   3.350   3.493   0.730 -0.0703  1.2102  0.0065
 3009TIP3   OH2 9032   4.738   2.706   4.134 -0.6473 -0.3423 -0.0623
 3009TIP3    H1 9033   4.761   2.654   4.212 -1.9278 -2.1239 -0.8087
 3009TIP3    H2 9034   4.683   2.648   4.082 -1.1787  1.3978 -1.5356
 3010TIP3   OH2 9035   1.341   2.388   2.905 -0.4541  0.0708  0.0256
 3010TIP3    H1 9036   1.265   2.348   2.861  1.2674 -2.2360 -1.0475
 3010TIP3    H2 9037   1.412   2.327   2.891  1.1893  1.1545  2.7667
 3011TIP3   OH2 9038   1.509   4.375   3.366 -0.0333 -0.3558  0.5166
 3011TIP3    H1 9039   1.583   4.314   3.358 -0.1751 -0.7989  2.2194
 3011TIP3    H2 9040   1.432   4.321   3.352 -0.1184 -0.3470  0.9448
 3012TIP3   OH2 9041   5.103   1.872   4.159  0.1524  0.7416 -0.5021
 3012TIP3    H1 9042   5.059   1.956   4.171  0.2798  0.7001  0.2882
 3012TIP3    H2 9043   5.196   1.895   4.152  0.3916  0.5523  1.4686
 3013TIP3   OH2 9044   5.470   3.665   1.061 -0.1283 -0.8505 -0.0537
 3013TIP3    H1 9045   5.547   3.652   1.117  0.4725 -1.8184 -1.0594
 3013TIP3    H2 9046   5.482   3.604   0.989 -0.7315  0.5324 -1.3997
 3014TIP3   OH2 9047   1.025   5.161   3.931 -0.3908 -0.2625 -0.5883
 3014TIP3    H1 9048   0.989   5.228   3.873  3.4646  1.2019 -1.5641
 3014TIP3    H2 9049   1.009   5.194   4.019  0.9258  1.7416 -1.0463
 3015TIP3   OH2 9050   5.946   2.737   1.455  0.4036 -0.1235  0.2838
 3015TIP3    H1 9051   5.900   2.732   1.371  2.2763 -0.5262 -0.7762
 3015TIP3    H2 9052   5.906   2.670   1.509 -0.3613 -0.3527 -0.5492
 3016TIP3   OH2 9053   2.201   5.359   2.092 -0.0493  0.2353  0.4379
 3016TIP3    H1 9054   2.233   5.344   2.181 -1.9455 -1.1429  0.9309
 3016TIP3    H2 9055   2.127   5.419   2.103 -1.5720 -1.4910  0.0745
 3017TIP3   OH2 9056   4.423   2.668   2.734 -0.5697  0.2758  0.1750
 3017TIP3    H1 9057   4.498   2.634   2.687  0.5745  1.0278  1.3972
 3017TIP3    H2 9058   4.348   2.647   2.677  0.5332 -0.4753 -1.0689
 3018TIP3   OH2 9059   3.612   0.718   3.463 -0.2534  0.3124  0.6372
 3018TIP3    H1 9060   3.703   0.689   3.472  0.2999  0.5684 -2.7001
 3018TIP3    H2 9061   3.562   0.637   3.450 -0.2594  0.2657  0.9501
 3019TIP3   OH2 9062   2.768   3.386   0.739  0.1113  0.4807 -0.2163
 3019TIP3    H1 9063   2.760   3.376   0.833  2.3959 -1.3012 -0.1077
 3019TIP3    H2 9064   2.780   3.480   0.725  0.0211  0.7312  1.2955
 3020TIP3   OH2 9065   2.712   3.169   4.242 -0.1441 -0.2513  0.2590
 3020TIP3    H1 9066   2.619   3.189   4.251 -0.1490 -0.1087 -0.0948
 3020TIP3    H2 9067   2.751   3.249   4.208  0.1664 -0.2033  0.7237
 3021TIP3   OH2 9068   3.707   1.898   1.535  0.2988  0.0027 -0.0277
 3021TIP3    H1 9069   3.700   1.989   1.564 -2.9116 -0.2270  0.3348
 3021TIP3    H2 9070   3.641   1.851   1.586  0.9259 -2.2964 -1.1572
 3022TIP3   OH2 9071   1.440   0.832   0.351  0.0064 -0.0400 -0.8159
 3022TIP3    H1 9072   1.361   0.794   0.313 -0.5006  0.4512 -0.2754
 3022TIP3    H2 9073   1.490   0.756   0.383 -1.3123 -0.2603  0.8643
 3023TIP3   OH2 9074   1.933   3.316   2.666  0.3777 -0.0674  0.5716
 3023TIP3    H1 9075   1.885   3.351   2.591  1.8289 -0.9819 -0.8487
 3023TIP3    H2 9076   1.992   3.251   2.628  0.8403 -0.8859  2.5786
 3024TIP3   OH2 9077   4.035   4.825   0.191  0.5131 -0.2409 -0.0643
 3024TIP3    H1 9078   4.110   4.834   0.132  0.8298  0.2597  0.4005
 3024TIP3    H2 9079   4.035   4.732   0.216  0.1005 -0.5592 -1.1869
 3025TIP3   OH2 9080   5.778   4.517   1.583 -0.1562  0.1959 -0.0961
 3025TIP3    H1 9081   5.776   4.594   1.638  1.9316  0.8755 -0.8586
 3025TIP3    H2 9082   5.857   4.527   1.530 -1.0828 -1.3085 -1.9088
 3026TIP3   OH2 9083   1.316   2.888   3.915  0.1281  0.2662 -0.5301
 3026TIP3    H1 9084   1.230   2.928   3.926  0.6604  2.0448 -2.1154
 3026TIP3    H2 9085   1.300   2.811   3.861 -0.7025 -0.7509  1.0798
 3027TIP3   OH2 9086   3.857   0.572   0.552  0.2768 -0.7332 -0.4696
 3027TIP3    H1 9087   3.837   0.637   0.620  1.7182  1.2495 -1.8292
 3027TIP3    H2 9088   3.772   0.533   0.531 -0.5681  0.3345  0.7571
 3028TIP3   OH2 9089   4.802   5.264   4.059  0.0426 -0.6256 -0.0418
 3028TIP3    H1 9090   4.715   5.240   4.027 -0.7561  0.1711  1.4189
 3028TIP3    H2 9091   4.843   5.180   4.081 -0.5417 -0.9867 -0.3095
 3029TIP3   OH2 9092   2.771   2.513   1.490 -0.4829  0.2336  0.0773
 3029TIP3    H1 9093   2.815   2.477   1.568 -1.2785  1.6747  1.2446
 3029TIP3    H2 9094   2.800   2.457   1.418  2.0764  0.2097  1.0259
 3030TIP3   OH2 9095   0.231   4.810   0.875  0.0656 -0.1549  0.1811
 3030TIP3    H1 9096   0.324   4.816   0.898  0.6462 -3.7061 -0.6096
 3030TIP3    H2 9097   0.225   4.845   0.786  0.1623  1.9648  0.9394
 3031TIP3   OH2 9098   0.438   2.531   2.532 -0.0754  0.1323 -0.3828
 3031TIP3    H1 9099   0.407   2.544   2.621 -1.6078  1.5600 -1.0601
 3031TIP3    H2 9100   0.470   2.617   2.504  0.7942 -0.3982 -1.0747
 3032TIP3   OH2 9101   5.398   5.385   1.822  0.0089  0.0693  0.3697
 3032TIP3    H1 9102   5.351   5.339   1.891 -0.6367  1.6906  1.0622
 3032TIP3    H2 9103   5.462   5.321   1.790 -1.2516 -1.4899  0.8295
 3033TIP3   OH2 9104   2.377   1.190   4.983  0.0189  0.4993 -0.0906
 3033TIP3    H1 9105   2.401   1.114   5.036 -1.2947 -1.0894 -1.6413
 3033TIP3    H2 9106   2.444   1.195   4.915  1.5063  2.3268  1.3870
 3034TIP3   OH2 9107   5.008   3.642   2.382  0.0528 -0.2124 -0.2258
 3034TIP3    H1 9108   4.944   3.663   2.450 -0.9829 -0.0111 -1.2239
 3034TIP3    H2 9109   5.069   3.582   2.424  0.6296  1.4565  1.4670
 3035TIP3   OH2 9110   3.534   5.465   4.162  0.4011  0.4365 -0.6585
 3035TIP3    H1 9111   3.524   5.469   4.067  0.0203  1.3525 -0.5851
 3035TIP3    H2 9112   3.586   5.542   4.184  0.9715 -0.0701 -0.1693
 3036TIP3   OH2 9113   0.830   1.678   2.371  0.5611 -0.3448  0.7952
 3036TIP3    H1 9114   0.894   1.655   2.303  0.9503 -2.2840  1.7337
 3036TIP3    H2 9115   0.883   1.719   2.440  0.7587 -1.4905  1.3542
 3037TIP3   OH2 9116   3.901   3.491   1.852 -0.3413  0.6740 -0.1179
 3037TIP3    H1 9117   3.908   3.420   1.788 -1.0917 -2.1042  2.5687
 3037TIP3    H2 9118   3.927   3.570   1.805 -0.7753 -1.1266 -3.7371
 3038TIP3   OH2 9119   1.245   4.731   3.227  0.2166 -0.3544 -0.1978
 3038TIP3    H1 9120   1.197   4.798   3.275  1.0091 -0.7504  1.1936
 3038TIP3    H2 9121   1.209   4.648   3.259  0.0501 -0.6322 -1.0578
 3039TIP3   OH2 9122   4.257   1.527   1.385  0.4870  0.3708 -0.6126
 3039TIP3    H1 9123   4.282   1.607   1.431 -0.8894  1.1151 -1.1175
 3039TIP3    H2 9124   4.256   1.459   1.453 -0.8470  1.3032  0.3435
 3040TIP3   OH2 9125   5.557   4.275   3.093  0.2083  0.1399  1.0083
 3040TIP3    H1 9126   5.646   4.238   3.090  0.2607  0.2970 -0.6659
 3040TIP3    H2 9127   5.563   4.346   3.157  1.8308  1.3578 -0.3610
 3041TIP3   OH2 9128   3.764   3.173   2.183  0.1757  0.0890 -0.4101
 3041TIP3    H1 9129   3.837   3.148   2.239  0.3556  0.8034 -0.3156
 3041TIP3    H2 9130   3.687   3.141   2.229  0.3402  0.4453  0.1217
 3042TIP3   OH2 9131   0.851   2.171   1.171 -0.6092  0.6578 -0.4737
 3042TIP3    H1 9132   0.812   2.242   1.222  0.1730  0.1857  0.8412
 3042TIP3    H2 9133   0.885   2.213   1.092 -0.7189  1.6368 -0.0091
 3043TIP3   OH2 9134   2.475   3.905   2.518  0.2638  0.0139  0.0161
 3043TIP3    H1 9135   2.540   3.880   2.583  0.8984  1.1479 -0.1555
 3043TIP3    H2 9136   2.452   3.823   2.474  2.5630 -0.2411 -0.8235
 3044TIP3   OH2 9137   1.615   3.642   2.376 -0.0911 -0.4331 -0.3437
 3044TIP3    H1 9138   1.605   3.576   2.308  1.0315 -0.8549 -0.1100
 3044TIP3    H2 9139   1.698   3.622   2.419 -0.5547  0.0906  0.8689
 3045TIP3   OH2 9140   3.711   5.703   0.028  0.1624 -0.3324 -0.0012
 3045TIP3    H1 9141   3.722   5.614   0.060  1.2108 -0.2317 -0.0368
 3045TIP3    H2 9142   3.683   5.753   0.105  1.4707 -0.3279  0.4913
 3046TIP3   OH2 9143   6.249   4.587   1.142 -0.3936 -0.2775  0.1494
 3046TIP3    H1 9144   6.213   4.499   1.150  1.5921 -1.1831 -0.2936
 3046TIP3    H2 9145   6.299   4.585   1.061 -0.5778  1.3711 -0.0331
 3047TIP3   OH2 9146   2.827   2.758   1.346  0.2633  0.1723 -0.2577
 3047TIP3    H1 9147   2.887   2.797   1.410  0.3276  1.0089 -0.8134
 3047TIP3    H2 9148   2.797   2.677   1.388  1.3673  0.0046  0.2507
 3048TIP3   OH2 9149   5.584   3.325   0.077  0.2413 -0.1033 -0.3664
 3048TIP3    H1 9150   5.497   3.286   0.079  0.5612 -0.8776 -1.0520
 3048TIP3    H2 9151   5.612   3.317  -0.014  0.6566  0.9819 -0.3448
 3049TIP3   OH2 9152   1.128   0.517   3.007 -0.1088  0.3223  0.0364
 3049TIP3    H1 9153   1.181   0.439   3.023 -1.0300 -0.3519 -0.1173
 3049TIP3    H2 9154   1.102   0.546   3.095 -1.8824 -1.0659  0.0229
 3050TIP3   OH2 9155   1.327   1.224   4.297 -0.4994 -0.7897 -0.7023
 3050TIP3    H1 9156   1.242   1.230   4.340 -1.1061 -1.3741 -1.7908
 3050TIP3    H2 9157   1.339   1.131   4.278  0.9966 -0.9118  0.5932
 3051TIP3   OH2 9158   1.749   0.150   0.169  0.1322  0.2587 -0.0943
 3051TIP3    H1 9159   1.763   0.057   0.152  0.3748  0.0944  0.9314
 3051TIP3    H2 9160   1.789   0.195   0.094  0.0974 -0.4574 -0.5468
 3052TIP3   OH2 9161   0.867   4.511   0.896  0.1881  0.4974  0.5517
 3052TIP3    H1 9162   0.851   4.451   0.968  0.7846  1.6404  1.6815
 3052TIP3    H2 9163   0.785   4.559   0.884  0.3772  0.9694  1.1231
 3053TIP3   OH2 9164   0.949   4.032   1.926  0.4919  0.4655  0.0682
 3053TIP3    H1 9165   0.908   4.016   2.011 -0.3450 -1.2131 -0.6165
 3053TIP3    H2 9166   0.999   3.953   1.908 -0.6274  0.1226 -1.7125
 3054TIP3   OH2 9167   5.366   3.828   2.524  0.1666  0.2439  0.7398
 3054TIP3    H1 9168   5.451   3.852   2.559 -0.2676  0.8606  1.4102
 3054TIP3    H2 9169   5.381   3.747   2.475  1.0148  0.0047  1.3852
 3055TIP3   OH2 9170  -0.019   4.540   4.675 -0.1664 -0.0851  0.1213
 3055TIP3    H1 9171   0.033   4.509   4.749  1.0310  1.5877  0.0510
 3055TIP3    H2 9172  -0.003   4.476   4.606  0.6899 -0.3669  0.5629
 3056TIP3   OH2 9173   1.848   3.655   4.170 -0.1161  0.5881  0.0305
 3056TIP3    H1 9174   1.837   3.750   4.182  0.3993  0.6439  0.0889
 3056TIP3    H2 9175   1.922   3.647   4.109 -0.4123  0.2287 -0.2901
 3057TIP3   OH2 9176   4.924   3.672   3.628  0.3502  0.8341  0.1974
 3057TIP3    H1 9177   4.899   3.752   3.582 -2.4857  0.0122  0.0716
 3057TIP3    H2 9178   4.866   3.670   3.705  0.2461 -1.1292  0.1112
 3058TIP3   OH2 9179   1.686   2.069   0.927 -0.0163  0.1487  0.5411
 3058TIP3    H1 9180   1.598   2.033   0.932  0.4183 -1.0252 -0.0381
 3058TIP3    H2 9181   1.739   2.012   0.983  0.7418 -0.3413 -0.6337
 3059TIP3   OH2 9182   5.123   5.483   2.439  0.4034 -0.0777 -0.0897
 3059TIP3    H1 9183   5.032   5.471   2.411  0.2718 -0.3960  0.4822
 3059TIP3    H2 9184   5.169   5.407   2.403  0.4937  0.1988 -0.5731
 3060TIP3   OH2 9185   3.138   4.216   1.490  0.1200 -0.6767  0.3668
 3060TIP3    H1 9186   3.115   4.308   1.477 -0.4022 -0.3807  2.9359
 3060TIP3    H2 9187   3.211   4.201   1.429 -0.4571  1.1216 -0.8397
 3061TIP3   OH2 9188   5.409   5.111   0.383 -0.0224 -0.3114 -0.5551
 3061TIP3    H1 9189   5.378   5.146   0.299 -1.0100  0.0576 -0.0608
 3061TIP3    H2 9190   5.372   5.023   0.387  1.0782 -0.8155 -1.0546
 3062TIP3   OH2 9191   3.614   5.851   4.744 -0.0348  0.0402  0.4782
 3062TIP3    H1 9192   3.672   5.781   4.772  0.4530 -0.3149 -1.2616
 3062TIP3    H2 9193   3.669   5.930   4.747  0.0325 -0.0070  0.4860
 3063TIP3   OH2 9194   0.913   4.030   0.616  0.2422 -0.6578 -0.6671
 3063TIP3    H1 9195   0.927   4.053   0.708  0.5905 -0.1891 -0.8311
 3063TIP3    H2 9196   0.827   3.989   0.614 -0.2553  0.3226 -0.2892
 3064TIP3   OH2 9197   2.286   6.004   1.117 -0.1059 -0.5223  0.1355
 3064TIP3    H1 9198   2.230   6.048   1.182 -0.3578 -0.8709  0.1574
 3064TIP3    H2 9199   2.300   5.917   1.153 -0.6495 -0.8825 -0.5033
 3065TIP3   OH2 9200   6.053   3.575   3.598  0.2644 -0.4174  0.2335
 3065TIP3    H1 9201   5.993   3.613   3.662  1.4967 -0.4787  1.4658
 3065TIP3    H2 9202   6.091   3.499   3.642  2.6800  0.7240  0.2757
 3066TIP3   OH2 9203   3.674   5.628   0.840 -0.3343  0.2943  0.5444
 3066TIP3    H1 9204   3.639   5.562   0.781  0.8167 -1.3015  1.5625
 3066TIP3    H2 9205   3.735   5.679   0.785 -1.4281  0.7233 -0.3094
 3067TIP3   OH2 9206   2.412   0.954   4.138  0.2256  0.4512 -0.1291
 3067TIP3    H1 9207   2.424   0.914   4.051  0.4858  0.2292  0.0084
 3067TIP3    H2 9208   2.318   0.969   4.144  0.0201 -0.8500  0.1298
 3068TIP3   OH2 9209   1.024   5.610   2.123 -0.1750  0.0900  0.2002
 3068TIP3    H1 9210   1.044   5.703   2.131 -0.0030  0.2383 -1.5435
 3068TIP3    H2 9211   1.109   5.566   2.136  0.5624  0.4531 -2.7197
 3069TIP3   OH2 9212   4.084   3.855   2.226  0.1267  0.5248 -0.5955
 3069TIP3    H1 9213   4.145   3.914   2.181 -1.5847  1.6015 -1.6275
 3069TIP3    H2 9214   4.100   3.769   2.186  0.6523  0.8844 -1.1761
 3070TIP3   OH2 9215   5.826   1.253   0.670  0.5932 -0.2171  0.1937
 3070TIP3    H1 9216   5.735   1.251   0.642  0.4767 -1.1100  0.5960
 3070TIP3    H2 9217   5.839   1.342   0.703  0.2342  0.2956 -1.0119
 3071TIP3   OH2 9218   5.143   4.299   3.015 -0.4516  0.0561 -1.0370
 3071TIP3    H1 9219   5.151   4.217   2.967  0.3116 -0.4764 -0.0486
 3071TIP3    H2 9220   5.090   4.276   3.092 -0.1866  0.4753 -0.7248
 3072TIP3   OH2 9221   1.234   5.602   0.752  1.0378  0.7823  0.1488
 3072TIP3    H1 9222   1.324   5.628   0.730  1.4217 -0.6893 -0.0686
 3072TIP3    H2 9223   1.239   5.509   0.770 -0.5459  0.5724 -0.3297
 3073TIP3   OH2 9224   4.678   1.532   3.905 -0.0257 -0.0019 -0.4413
 3073TIP3    H1 9225   4.640   1.546   3.818  0.1116 -0.0411 -0.5090
 3073TIP3    H2 9226   4.614   1.568   3.966 -1.1948 -2.0101 -0.4152
 3074TIP3   OH2 9227   3.642   1.739   0.228 -0.0024  0.2666 -0.0727
 3074TIP3    H1 9228   3.574   1.803   0.213 -0.0406 -0.0764 -1.4971
 3074TIP3    H2 9229   3.668   1.752   0.319 -2.2459  0.1204  0.6460
 3075TIP3   OH2 9230   5.723   0.106   1.609  0.1042  0.6197  0.1772
 3075TIP3    H1 9231   5.673   0.050   1.669 -1.3861  0.6714 -0.9575
 3075TIP3    H2 9232   5.798   0.134   1.660  1.0984 -2.5922  0.7495
 3076TIP3   OH2 9233   2.947   1.302   3.455 -0.2870 -0.0277 -0.1801
 3076TIP3    H1 9234   2.905   1.245   3.520 -1.6385  0.4820 -0.5777
 3076TIP3    H2 9235   2.903   1.386   3.464  0.8192  0.6130 -0.4816
 3077TIP3   OH2 9236   2.265   0.128   4.690 -0.0904  0.1269 -0.1408
 3077TIP3    H1 9237   2.286   0.038   4.666 -1.1928 -0.1604 -0.1012
 3077TIP3    H2 9238   2.194   0.152   4.630 -1.0066  0.3445  0.9877
 3078TIP3   OH2 9239   4.244   4.332   3.248 -0.0557 -0.2322 -0.6350
 3078TIP3    H1 9240   4.309   4.397   3.223  0.8296 -0.7745  0.1788
 3078TIP3    H2 9241   4.264   4.256   3.192 -0.3987 -0.1857 -0.8254
 3079TIP3   OH2 9242   1.459   2.134   3.553 -0.1743 -0.0094 -0.1222
 3079TIP3    H1 9243   1.390   2.151   3.617  1.8141  0.3746  2.0663
 3079TIP3    H2 9244   1.533   2.103   3.606  1.1768 -0.8809 -2.4104
 3080TIP3   OH2 9245   3.919   2.002   3.752 -0.4425 -0.9187 -0.1991
 3080TIP3    H1 9246   3.998   2.012   3.805 -0.3662 -3.5471  0.3074
 3080TIP3    H2 9247   3.943   2.038   3.666  0.5909  0.1703  0.5092
 3081TIP3   OH2 9248   1.170   2.941   1.457 -0.8136  0.0805 -0.2906
 3081TIP3    H1 9249   1.222   2.862   1.444 -1.1293 -0.5678  1.9769
 3081TIP3    H2 9250   1.084   2.920   1.421 -0.3401  0.1624 -1.5313
 3082TIP3   OH2 9251   5.758   2.400   0.938 -0.0356  0.1346  0.3593
 3082TIP3    H1 9252   5.682   2.405   0.996 -0.3178 -0.1415  0.0207
 3082TIP3    H2 9253   5.756   2.310   0.904  0.3286  0.1864  0.1925
 3083TIP3   OH2 9254   0.857   1.992   0.846 -0.4914  0.2726  0.7008
 3083TIP3    H1 9255   0.783   2.048   0.822 -0.5262  0.3283  0.9328
 3083TIP3    H2 9256   0.929   2.053   0.862  1.0548  0.1194 -4.0744
 3084TIP3   OH2 9257   4.408   0.722   1.738  0.5003 -0.4097  0.8331
 3084TIP3    H1 9258   4.467   0.745   1.666 -0.2198 -0.8831  0.0787
 3084TIP3    H2 9259   4.450   0.759   1.816  2.0011 -1.0725  0.3750
 3085TIP3   OH2 9260   2.025   4.856   4.445 -0.4867 -0.1228 -0.4482
 3085TIP3    H1 9261   2.095   4.920   4.431 -0.0367 -0.4828  0.1034
 3085TIP3    H2 9262   1.961   4.876   4.377  0.0951  0.2898 -0.8932
 3086TIP3   OH2 9263   1.181   1.160   1.839  0.1653  0.0249  0.1959
 3086TIP3    H1 9264   1.140   1.218   1.775 -0.6527 -1.4287 -0.6492
 3086TIP3    H2 9265   1.174   1.207   1.922  0.6877  1.6742 -0.6456
 3087TIP3   OH2 9266   4.526   0.832   2.694 -0.2435 -0.3062 -0.2531
 3087TIP3    H1 9267   4.534   0.737   2.678 -1.0125 -0.3044 -0.6728
 3087TIP3    H2 9268   4.472   0.864   2.622 -1.0709  0.2426  0.5878
 3088TIP3   OH2 9269   5.570   1.660   3.320 -0.1654  0.1562 -0.1784
 3088TIP3    H1 9270   5.605   1.693   3.238 -0.1575  1.2241  0.2367
 3088TIP3    H2 9271   5.634   1.594   3.349 -1.1225 -1.6711 -1.9463
 3089TIP3   OH2 9272   3.380   4.360   3.640 -0.0323 -0.6594 -0.0617
 3089TIP3    H1 9273   3.423   4.396   3.717  1.2580 -1.1603 -0.5280
 3089TIP3    H2 9274   3.306   4.419   3.624  0.5848  0.3283  0.6493
 3090TIP3   OH2 9275   6.207   4.879   0.261 -0.2323  0.3601  0.3861
 3090TIP3    H1 9276   6.123   4.886   0.307 -0.3036  0.2275  0.2760
 3090TIP3    H2 9277   6.186   4.833   0.180 -0.5434  2.6183 -0.8812
 3091TIP3   OH2 9278   3.688   4.305   4.174 -0.1206  0.4996  0.1401
 3091TIP3    H1 9279   3.711   4.341   4.088  0.9865 -1.1082 -0.2936
 3091TIP3    H2 9280   3.599   4.272   4.163 -0.2487  0.9396 -0.1674
 3092TIP3   OH2 9281   5.595   2.137   2.556  0.1556  0.0181 -0.1262
 3092TIP3    H1 9282   5.510   2.110   2.521  0.6269 -1.0577 -0.4826
 3092TIP3    H2 9283   5.639   2.055   2.579  0.5015  0.6139  1.5128
 3093TIP3   OH2 9284   3.144   2.436   2.645 -0.2622 -0.1694 -0.1876
 3093TIP3    H1 9285   3.148   2.345   2.675  1.4408 -0.5902 -1.5089
 3093TIP3    H2 9286   3.107   2.484   2.719 -2.0864 -2.0473  0.1947
 3094TIP3   OH2 9287   4.492   2.869   2.479  0.0505  0.2591 -0.0237
 3094TIP3    H1 9288   4.464   2.867   2.387 -0.4311 -1.6337  0.1154
 3094TIP3    H2 9289   4.563   2.804   2.484 -0.0131  0.2489  0.9662
 3095TIP3   OH2 9290   5.853   5.541   2.754  0.4052 -0.2484  0.1189
 3095TIP3    H1 9291   5.894   5.506   2.675  0.1922  2.4662 -1.2876
 3095TIP3    H2 9292   5.925   5.550   2.816  1.2567  0.7757 -0.9744
 3096TIP3   OH2 9293   4.803   5.890   4.730 -0.3272 -0.1318 -0.3338
 3096TIP3    H1 9294   4.824   5.973   4.687  0.1031 -0.2251 -0.3003
 3096TIP3    H2 9295   4.780   5.831   4.658 -2.1385  0.4281 -0.2814
 3097TIP3   OH2 9296   0.701   1.767   4.452  0.8740  0.3022  0.0355
 3097TIP3    H1 9297   0.750   1.689   4.475 -0.8084 -0.5801  0.7968
 3097TIP3    H2 9298   0.687   1.760   4.357  3.6579  1.4803 -0.5442
 3098TIP3   OH2 9299   0.684   5.790   4.564 -0.0906 -0.8156 -0.6793
 3098TIP3    H1 9300   0.765   5.749   4.534  0.1402 -0.7791 -0.1232
 3098TIP3    H2 9301   0.667   5.860   4.500  0.6781 -0.3980 -0.4343
 3099TIP3   OH2 9302   0.108   1.988   0.570 -0.1416 -0.3283 -0.2880
 3099TIP3    H1 9303   0.100   2.043   0.648  3.6173 -0.7620  0.6226
 3099TIP3    H2 9304   0.063   1.907   0.593  0.5609 -0.3055  1.3467
 3100TIP3   OH2 9305   4.458   1.715   0.969 -0.3141  0.0405 -0.2639
 3100TIP3    H1 9306   4.439   1.674   1.053 -1.1391  0.7698 -0.0792
 3100TIP3    H2 9307   4.551   1.699   0.955 -0.1948 -0.2013  0.7237
 3101TIP3   OH2 9308   1.716   2.998   4.604  0.2711 -0.4948 -0.0094
 3101TIP3    H1 9309   1.782   2.974   4.669  1.9025 -1.2452 -1.8529
 3101TIP3    H2 9310   1.691   2.915   4.563 -0.7409 -0.0368 -0.3438
 3102TIP3   OH2 9311   2.598   4.659   0.843  0.2970 -0.2108 -0.3066
 3102TIP3    H1 9312   2.592   4.657   0.938  2.0555 -2.9392 -0.1380
 3102TIP3    H2 9313   2.511   4.632   0.812  0.2712 -1.2814  0.6339
 3103TIP3   OH2 9314   2.280   0.787   3.895 -0.3379  0.5542  0.1194
 3103TIP3    H1 9315   2.316   0.750   3.975 -0.7712  1.2077  0.6190
 3103TIP3    H2 9316   2.348   0.847   3.863  0.6985 -1.1597 -1.1008
 3104TIP3   OH2 9317   2.812   4.817   0.555 -0.2512  0.6434  0.2862
 3104TIP3    H1 9318   2.839   4.840   0.644 -1.0548 -1.2899  1.0816
 3104TIP3    H2 9319   2.717   4.834   0.554 -0.6491 -1.3151  0.5352
 3105TIP3   OH2 9320   4.817   5.319   2.741  0.3083  0.0761 -0.3148
 3105TIP3    H1 9321   4.890   5.274   2.783 -0.2506 -1.5070 -0.9527
 3105TIP3    H2 9322   4.797   5.266   2.664 -0.7320  1.1527 -0.8277
 3106TIP3   OH2 9323   1.102   4.567   4.773  0.3238 -0.0061  0.4663
 3106TIP3    H1 9324   1.044   4.619   4.828 -1.5820 -0.6497 -0.8300
 3106TIP3    H2 9325   1.155   4.631   4.726 -1.6911  0.8369 -0.7854
 3107TIP3   OH2 9326   2.173   1.445   3.887 -0.3384  0.1811 -0.2331
 3107TIP3    H1 9327   2.135   1.405   3.965  2.6553  0.1893  1.3585
 3107TIP3    H2 9328   2.172   1.539   3.906 -1.5015  0.3865 -1.1805
 3108TIP3   OH2 9329   1.449   0.731   2.535 -0.2303 -0.5276  0.3991
 3108TIP3    H1 9330   1.453   0.817   2.495  1.6613 -1.1884 -0.9828
 3108TIP3    H2 9331   1.411   0.675   2.467 -0.2279 -1.0145  0.7927
 3109TIP3   OH2 9332   3.149   2.600   0.173  0.1676 -0.4650  0.6627
 3109TIP3    H1 9333   3.083   2.634   0.113  0.1994 -0.5508  0.5781
 3109TIP3    H2 9334   3.231   2.602   0.123 -0.2767 -3.2765 -0.3842
 3110TIP3   OH2 9335   0.750   3.941   2.166 -0.2005 -0.2749 -0.0820
 3110TIP3    H1 9336   0.737   3.854   2.204  1.0272 -0.7707 -0.7365
 3110TIP3    H2 9337   0.838   3.967   2.196 -0.8843  1.1248  0.8173
 3111TIP3   OH2 9338   0.842   0.669   3.144 -0.4430  0.2603 -0.2153
 3111TIP3    H1 9339   0.872   0.693   3.056 -0.2597  0.5855 -0.0644
 3111TIP3    H2 9340   0.764   0.722   3.158 -0.6325 -0.0002 -0.2949
 3112TIP3   OH2 9341   1.486   3.828   0.238 -0.0699 -0.1409  0.3758
 3112TIP3    H1 9342   1.482   3.923   0.223  0.3483 -0.4384 -2.1664
 3112TIP3    H2 9343   1.558   3.799   0.183 -1.5957 -2.2025 -0.6608
 3113TIP3   OH2 9344   3.305   0.333   3.759  0.2433 -0.2451 -0.9524
 3113TIP3    H1 9345   3.258   0.270   3.704  1.3923 -0.9863 -1.1205
 3113TIP3    H2 9346   3.265   0.418   3.738 -1.7382 -0.9582 -0.2855
 3114TIP3   OH2 9347   4.286   2.015   1.515 -0.2264 -0.0400 -0.1247
 3114TIP3    H1 9348   4.337   2.070   1.457 -1.1386  1.7622  0.7154
 3114TIP3    H2 9349   4.196   2.027   1.488 -0.4140 -1.6273 -0.3065
 3115TIP3   OH2 9350   2.270   5.719   0.408  0.0354  0.1971  0.4184
 3115TIP3    H1 9351   2.329   5.643   0.404 -0.0659  0.0924  0.8564
 3115TIP3    H2 9352   2.183   5.682   0.390  0.0633  0.3025  0.0667
 3116TIP3   OH2 9353   5.603   3.915   4.469 -0.2888 -0.1204 -0.0829
 3116TIP3    H1 9354   5.686   3.912   4.517  0.1130  1.8701 -0.5811
 3116TIP3    H2 9355   5.555   3.839   4.500  0.2928  0.6013  2.8514
 3117TIP3   OH2 9356   0.226   2.593   5.189 -0.4707 -0.1959  0.4522
 3117TIP3    H1 9357   0.162   2.627   5.126 -1.1999 -0.4571  1.0371
 3117TIP3    H2 9358   0.308   2.589   5.140 -0.6124  1.3321  0.0483
 3118TIP3   OH2 9359   2.698   1.500   4.825  0.2527  0.3750 -0.7954
 3118TIP3    H1 9360   2.792   1.504   4.846  0.7528 -0.4239 -2.6861
 3118TIP3    H2 9361   2.663   1.435   4.886  0.9262  0.6126 -0.1258
 3119TIP3   OH2 9362   5.854   5.681   3.061 -0.6966 -0.1842  0.5337
 3119TIP3    H1 9363   5.916   5.697   3.133 -0.4351  0.5504  0.1500
 3119TIP3    H2 9364   5.852   5.763   3.012 -0.1248 -0.9855 -0.8742
 3120TIP3   OH2 9365   3.551   5.689   5.052  0.3726 -0.0524  0.9023
 3120TIP3    H1 9366   3.644   5.699   5.072  0.8412  0.0657 -1.0594
 3120TIP3    H2 9367   3.520   5.778   5.038  0.0957 -0.1264  1.0504
 3121TIP3   OH2 9368   4.272   4.250   1.774 -0.6094 -0.4558 -0.3058
 3121TIP3    H1 9369   4.256   4.247   1.869 -1.7377 -1.1425 -0.5010
 3121TIP3    H2 9370   4.268   4.343   1.753 -1.8443 -0.3973  0.0986
 3122TIP3   OH2 9371   3.729   3.199   1.053 -0.3640  0.2214  0.0886
 3122TIP3    H1 9372   3.809   3.245   1.029  0.6439 -0.6790  1.5796
 3122TIP3    H2 9373   3.687   3.257   1.117 -0.0437 -0.0679  0.5644
 3123TIP3   OH2 9374   1.834   4.046   0.097 -0.0996  0.4480  0.2779
 3123TIP3    H1 9375   1.777   4.037   0.020  1.4266 -3.6923 -0.6168
 3123TIP3    H2 9376   1.922   4.057   0.061  0.4503  0.0438  1.4444
 3124TIP3   OH2 9377   0.297   5.197   3.338  0.6271  0.6610  0.0572
 3124TIP3    H1 9378   0.263   5.260   3.274  0.6620 -0.7610 -1.4350
 3124TIP3    H2 9379   0.317   5.250   3.415  0.4363  2.4237 -1.0359
 3125TIP3   OH2 9380   1.087   0.295  -0.023  0.1613 -0.1736 -0.2785
 3125TIP3    H1 9381   1.102   0.235   0.051 -0.1205  2.5559  2.1685
 3125TIP3    H2 9382   1.008   0.343   0.001  0.7789  1.7043 -1.7591
 3126TIP3   OH2 9383   4.162   5.550   3.766 -0.3573  0.5430  0.1682
 3126TIP3    H1 9384   4.192   5.460   3.778  0.8993  1.0526  1.1939
 3126TIP3    H2 9385   4.155   5.561   3.671  0.5982 -0.3102 -0.0204
 3127TIP3   OH2 9386   4.718   0.404   4.621  0.5924  0.2238 -0.1043
 3127TIP3    H1 9387   4.623   0.398   4.632  0.6231 -1.6854 -0.5508
 3127TIP3    H2 9388   4.736   0.498   4.619 -1.3699  0.6324 -0.7188
 3128TIP3   OH2 9389   1.609   2.617   1.089  0.1805 -0.2606  0.1164
 3128TIP3    H1 9390   1.525   2.653   1.060  1.5334  0.7895 -2.9829
 3128TIP3    H2 9391   1.605   2.620   1.184 -3.3592 -0.5218  0.1018
 3129TIP3   OH2 9392   5.399   1.989   2.430 -0.4768  0.8001 -0.3225
 3129TIP3    H1 9393   5.432   1.905   2.398 -0.8807  0.3491  0.4289
 3129TIP3    H2 9394   5.311   1.996   2.391 -0.6036  0.6806 -0.0607
 3130TIP3   OH2 9395   4.913   4.338   4.993 -0.0712  0.3806  0.0118
 3130TIP3    H1 9396   4.945   4.253   5.023  0.7620  0.5803 -0.2922
 3130TIP3    H2 9397   4.939   4.343   4.901 -0.4636  0.7944 -0.0801
 3131TIP3   OH2 9398   0.654   0.113   4.600  0.1932  0.5548  0.2057
 3131TIP3    H1 9399   0.563   0.135   4.583  0.3265  1.3440  0.4630
 3131TIP3    H2 9400   0.699   0.132   4.518  0.1459  0.2712  0.1131
 3132TIP3   OH2 9401   0.766   2.750   0.990  0.5221  0.0547 -0.1296
 3132TIP3    H1 9402   0.681   2.708   1.005 -0.4763  1.9578 -0.0872
 3132TIP3    H2 9403   0.813   2.740   1.073  0.4649 -1.1986 -0.2216
 3133TIP3   OH2 9404   5.243   3.130   1.895 -0.3746  0.0011  0.1957
 3133TIP3    H1 9405   5.293   3.180   1.830 -1.2627  1.2685  0.4481
 3133TIP3    H2 9406   5.302   3.122   1.970 -0.1618  0.5490  0.0944
 3134TIP3   OH2 9407   1.895   5.468   4.447 -0.1220 -0.3563  0.0379
 3134TIP3    H1 9408   1.827   5.411   4.484 -1.3702  0.6655 -0.5979
 3134TIP3    H2 9409   1.875   5.471   4.353  0.1877  0.7725 -0.0033
 3135TIP3   OH2 9410   4.973   0.384   2.570  0.2092  0.1514 -0.0980
 3135TIP3    H1 9411   5.023   0.421   2.643  3.1386 -2.4271 -0.5922
 3135TIP3    H2 9412   4.903   0.335   2.611  0.7409  0.2027  0.8887
 3136TIP3   OH2 9413   3.038   5.041   4.665  0.2574  0.1034 -0.3075
 3136TIP3    H1 9414   3.107   4.996   4.714  0.0204 -2.3350 -2.0292
 3136TIP3    H2 9415   3.085   5.105   4.611  0.9750 -0.3486 -0.2297
 3137TIP3   OH2 9416   5.169   5.291   1.964  0.4361  0.5662  0.2095
 3137TIP3    H1 9417   5.170   5.209   2.012  3.4199 -1.2933 -2.5505
 3137TIP3    H2 9418   5.115   5.274   1.887  2.2927  0.4926 -1.1790
 3138TIP3   OH2 9419   0.594   3.700   3.977 -0.0134 -0.1517 -0.1637
 3138TIP3    H1 9420   0.540   3.668   4.049 -0.6766 -0.4638 -0.7823
 3138TIP3    H2 9421   0.683   3.671   3.999 -0.0753  0.4412  0.9063
 3139TIP3   OH2 9422   3.989   0.720   1.252  0.3127 -0.2661  0.1158
 3139TIP3    H1 9423   4.063   0.733   1.312  0.8141  1.8093 -0.8421
 3139TIP3    H2 9424   3.927   0.790   1.275 -0.6469 -1.0109 -0.1370
 3140TIP3   OH2 9425   5.834   4.719   2.051  0.3582  0.6046 -0.3824
 3140TIP3    H1 9426   5.914   4.685   2.012  1.0107  1.2075  0.3826
 3140TIP3    H2 9427   5.764   4.664   2.015  1.1071  0.0847 -1.0786
 3141TIP3   OH2 9428   4.381   5.172   3.203  0.0384  0.0789  0.1020
 3141TIP3    H1 9429   4.427   5.235   3.258 -0.9607  2.1200 -1.2893
 3141TIP3    H2 9430   4.317   5.132   3.262 -0.1868  1.3108  0.7288
 3142TIP3   OH2 9431   1.180   2.321   3.275 -0.3416  0.1095 -0.5813
 3142TIP3    H1 9432   1.128   2.395   3.246 -0.9521  0.6959  1.7582
 3142TIP3    H2 9433   1.152   2.248   3.220  0.1916  1.5419 -2.8463
 3143TIP3   OH2 9434   2.864   5.578   3.957 -0.4645  0.1218  0.2363
 3143TIP3    H1 9435   2.854   5.565   4.051 -0.5949 -0.8880  0.0900
 3143TIP3    H2 9436   2.807   5.512   3.917 -0.8212  0.8942 -0.5533
 3144TIP3   OH2 9437   3.829   1.622   1.509 -0.0281  0.0040 -0.2830
 3144TIP3    H1 9438   3.801   1.708   1.478  1.7826  0.0015 -2.1415
 3144TIP3    H2 9439   3.770   1.560   1.466  0.1949  0.2102 -0.9001
 3145TIP3   OH2 9440   3.597   2.886   1.258  0.0824 -0.0138 -0.4943
 3145TIP3    H1 9441   3.531   2.829   1.297  0.5978 -1.2664 -1.4042
 3145TIP3    H2 9442   3.629   2.838   1.182  1.9477  0.6234 -0.1726
 3146TIP3   OH2 9443   5.717   5.178   1.187  0.0924 -0.5363 -0.5362
 3146TIP3    H1 9444   5.794   5.140   1.146 -0.2502 -0.8861 -0.8599
 3146TIP3    H2 9445   5.644   5.122   1.160 -0.8889  1.7701 -3.2589
 3147TIP3   OH2 9446   1.120   2.705   4.097 -0.3454 -0.2586 -0.2746
 3147TIP3    H1 9447   1.188   2.681   4.033 -0.6359 -1.2161 -0.2383
 3147TIP3    H2 9448   1.039   2.671   4.060 -0.5432 -0.6682  0.5162
 3148TIP3   OH2 9449   1.962   1.517   2.685 -0.2103 -0.7499 -0.2871
 3148TIP3    H1 9450   1.978   1.538   2.593 -0.3837  0.2866 -0.0926
 3148TIP3    H2 9451   2.006   1.433   2.698  0.1721 -0.7055 -1.2082
 3149TIP3   OH2 9452   0.301   3.881   1.517  0.1714 -0.1708  0.0897
 3149TIP3    H1 9453   0.245   3.814   1.554  3.0133 -1.0662  3.2814
 3149TIP3    H2 9454   0.274   3.962   1.560  0.0795 -0.2133  0.1123
 3150TIP3   OH2 9455   6.229   2.570   2.757 -0.1340 -0.2087  0.1943
 3150TIP3    H1 9456   6.257   2.578   2.849 -0.6336  0.7995  0.2730
 3150TIP3    H2 9457   6.298   2.519   2.715  0.6645  0.2693  0.8934
 3151TIP3   OH2 9458   3.624   5.393   1.849 -0.3238  0.0726 -0.3393
 3151TIP3    H1 9459   3.649   5.302   1.869  1.2777  0.5128 -0.1746
 3151TIP3    H2 9460   3.596   5.390   1.758  1.2355 -0.3369 -0.8411
 3152TIP3   OH2 9461   4.188   2.260   2.082 -0.3073  0.4137  1.0344
 3152TIP3    H1 9462   4.136   2.263   2.162 -0.4603 -1.6857  1.0617
 3152TIP3    H2 9463   4.276   2.234   2.111  0.8872  3.7512  0.9688
 3153TIP3   OH2 9464   1.664   1.267   2.484  0.0652  0.2638 -0.3721
 3153TIP3    H1 9465   1.639   1.331   2.551 -0.2038 -0.3212  0.0976
 3153TIP3    H2 9466   1.605   1.283   2.411 -1.7125 -1.0603  0.6971
 3154TIP3   OH2 9467   2.253   2.687   0.880 -0.1786 -0.2275  0.0917
 3154TIP3    H1 9468   2.173   2.699   0.931 -0.2256 -1.4847  0.3519
 3154TIP3    H2 9469   2.261   2.767   0.828  0.5267  1.6318  2.8821
 3155TIP3   OH2 9470   2.907   5.859   0.012 -0.6807 -0.4304  0.4523
 3155TIP3    H1 9471   2.937   5.793  -0.051 -1.2248 -1.1983  0.9705
 3155TIP3    H2 9472   2.955   5.838   0.092  1.9264  2.0639 -0.2697
 3156TIP3   OH2 9473   2.567   1.700   1.004 -0.3498  0.5351 -0.4307
 3156TIP3    H1 9474   2.471   1.696   1.006 -0.4144 -0.0459 -2.3781
 3156TIP3    H2 9475   2.589   1.789   1.030 -1.3971  0.6204  0.2115
 3157TIP3   OH2 9476   2.629   0.335   0.536 -0.4877 -0.0858 -0.4263
 3157TIP3    H1 9477   2.679   0.281   0.597 -1.8945  0.3266  1.1770
 3157TIP3    H2 9478   2.565   0.275   0.497  0.3162 -0.3177 -1.4383
 3158TIP3   OH2 9479   0.985   2.659   2.104 -0.3358  0.6863  0.6835
 3158TIP3    H1 9480   0.893   2.685   2.109 -0.6834 -0.0215 -1.1401
 3158TIP3    H2 9481   1.003   2.656   2.010  0.8716 -1.4627  0.9366
 3159TIP3   OH2 9482   3.175   5.615   1.401 -0.2122 -0.3223  0.3263
 3159TIP3    H1 9483   3.267   5.597   1.379 -0.4729 -1.7708  0.3069
 3159TIP3    H2 9484   3.169   5.711   1.402  1.1196 -0.2015 -0.4069
 3160TIP3   OH2 9485   5.950   1.713   3.357  0.4518 -0.4607 -0.3604
 3160TIP3    H1 9486   5.928   1.803   3.333  3.5624  0.5891  0.1865
 3160TIP3    H2 9487   6.005   1.682   3.284 -1.9139 -2.6299 -1.3695
 3161TIP3   OH2 9488   2.242   1.998   0.016  0.2445 -0.1754  0.3792
 3161TIP3    H1 9489   2.223   1.995   0.110  0.6574  0.4280  0.4873
 3161TIP3    H2 9490   2.323   2.049   0.009 -0.5005  0.9288 -0.4097
 3162TIP3   OH2 9491   5.434   0.776   0.307  0.4466  0.6400  0.0393
 3162TIP3    H1 9492   5.375   0.822   0.247  0.3730  0.8043  0.2377
 3162TIP3    H2 9493   5.377   0.729   0.367  0.4373 -2.6295 -2.2786
 3163TIP3   OH2 9494   5.809   2.686   3.263  0.4091 -0.8843 -0.5193
 3163TIP3    H1 9495   5.796   2.775   3.295  0.2054 -1.4700  1.1467
 3163TIP3    H2 9496   5.722   2.646   3.266  0.7307 -1.5638  0.2008
 3164TIP3   OH2 9497   4.257   1.724   3.808  0.2975  0.1654 -0.1818
 3164TIP3    H1 9498   4.272   1.710   3.714 -0.5958  0.1315 -0.3222
 3164TIP3    H2 9499   4.285   1.643   3.849 -0.4837 -0.2955 -0.5454
 3165TIP3   OH2 9500   5.476   1.674   0.062 -0.5625  0.0226 -0.5773
 3165TIP3    H1 9501   5.546   1.705   0.004 -1.1217  0.6395 -0.9394
 3165TIP3    H2 9502   5.439   1.754   0.100 -2.0585 -0.1746 -1.5473
 3166TIP3   OH2 9503   6.044   4.529   0.191  0.4790 -0.4995 -0.0313
 3166TIP3    H1 9504   6.049   4.622   0.170  2.2750 -0.4689  0.3899
 3166TIP3    H2 9505   5.982   4.525   0.264 -0.9380  0.1261 -1.1410
 3167TIP3   OH2 9506   2.554   5.154   4.041  0.1677 -0.1446 -0.4689
 3167TIP3    H1 9507   2.581   5.232   3.993  0.5592 -1.3641 -2.3377
 3167TIP3    H2 9508   2.588   5.081   3.989  0.0110 -1.5753  1.3335
 3168TIP3   OH2 9509   1.223   0.383   1.966 -0.0644  0.1066 -0.2291
 3168TIP3    H1 9510   1.223   0.439   1.889 -0.0033 -1.5457 -1.4874
 3168TIP3    H2 9511   1.228   0.294   1.931 -1.4594 -0.7718  1.6305
 3169TIP3   OH2 9512   3.661   4.690   4.175 -0.9252  0.1938  0.6194
 3169TIP3    H1 9513   3.721   4.659   4.244  0.1322 -0.4206 -0.5391
 3169TIP3    H2 9514   3.575   4.662   4.204 -0.2834 -1.7011  0.8270
 3170TIP3   OH2 9515   2.404   1.904   3.055 -0.2427  0.1464 -0.0592
 3170TIP3    H1 9516   2.387   1.843   2.983 -0.6367  1.2689 -0.9408
 3170TIP3    H2 9517   2.364   1.862   3.132 -2.1294  0.1264 -0.9964
 3171TIP3   OH2 9518   3.762   2.457   1.725 -0.0656 -0.4410 -0.0646
 3171TIP3    H1 9519   3.683   2.488   1.769  0.3542  0.9790 -0.2872
 3171TIP3    H2 9520   3.801   2.395   1.787 -1.3932 -1.2521 -0.0031
 3172TIP3   OH2 9521   2.477   2.194   2.757 -0.0955  0.4519 -0.2448
 3172TIP3    H1 9522   2.482   2.278   2.804 -2.6921  0.0749  0.8746
 3172TIP3    H2 9523   2.487   2.128   2.826 -0.4804 -0.1270 -0.7340
 3173TIP3   OH2 9524   0.012   2.935   0.712 -0.5316 -0.1773 -0.5132
 3173TIP3    H1 9525  -0.029   2.952   0.796  1.2549 -0.6128  0.4942
 3173TIP3    H2 9526   0.038   3.022   0.680  0.7498 -0.1677  0.4684
 3174TIP3   OH2 9527   0.457   5.806   2.134  0.3008  0.2540  0.7502
 3174TIP3    H1 9528   0.376   5.793   2.184 -0.5780 -1.1954 -0.9358
 3174TIP3    H2 9529   0.427   5.832   2.046  1.7085  0.4817  0.3127
 3175TIP3   OH2 9530   2.692   1.714   1.421 -0.5528  0.4541  0.4576
 3175TIP3    H1 9531   2.604   1.722   1.458 -0.7876 -1.7045  0.5224
 3175TIP3    H2 9532   2.751   1.732   1.494 -0.9973 -0.8908  1.1841
 3176TIP3   OH2 9533   2.180   0.269   3.861 -0.6313 -0.2335  0.0638
 3176TIP3    H1 9534   2.105   0.209   3.864 -1.3711  0.5587 -1.5093
 3176TIP3    H2 9535   2.256   0.211   3.858 -1.2692 -1.0792 -0.4140
 3177TIP3   OH2 9536   5.742   3.250   4.889  0.0014  0.6956 -0.2815
 3177TIP3    H1 9537   5.826   3.293   4.901 -0.3325  1.2465  0.1119
 3177TIP3    H2 9538   5.689   3.277   4.964 -0.5854  0.4896 -0.6072
 3178TIP3   OH2 9539   4.443   2.131   2.661 -0.0433  0.2488  0.3114
 3178TIP3    H1 9540   4.368   2.176   2.622  0.8890  2.2648  0.6710
 3178TIP3    H2 9541   4.436   2.151   2.754  0.0071 -1.0416  0.6098
 3179TIP3   OH2 9542   4.365   5.033   2.061  0.0335 -0.3907  0.2352
 3179TIP3    H1 9543   4.392   5.125   2.066  0.1956 -0.3647 -0.7885
 3179TIP3    H2 9544   4.385   5.007   1.971 -0.6302 -1.2389  0.3138
 3180TIP3   OH2 9545   0.574   4.496   2.989 -0.1994  0.2612  0.4079
 3180TIP3    H1 9546   0.621   4.511   2.906 -0.6594 -0.6293 -0.0297
 3180TIP3    H2 9547   0.635   4.446   3.042  0.4442  1.5873  0.9802
 3181TIP3   OH2 9548   4.644   5.208   0.157  0.3650 -0.8916 -0.1969
 3181TIP3    H1 9549   4.639   5.227   0.064  1.6300  0.4712 -0.0355
 3181TIP3    H2 9550   4.737   5.192   0.174  0.6248  1.5829  1.2351
 3182TIP3   OH2 9551   1.829   1.814   4.092  0.2750 -0.2249  0.4696
 3182TIP3    H1 9552   1.853   1.879   4.026 -0.1033 -1.0867 -0.5595
 3182TIP3    H2 9553   1.734   1.806   4.084  0.5355 -2.6958 -1.2301
 3183TIP3   OH2 9554   5.004   2.386   4.218 -0.0338 -0.0209  0.3208
 3183TIP3    H1 9555   5.083   2.439   4.220  1.7642 -2.5236  2.8974
 3183TIP3    H2 9556   4.942   2.433   4.274  0.9533  0.1836  1.2715
 3184TIP3   OH2 9557   2.625   2.359   1.201 -0.1075  0.2744 -0.0532
 3184TIP3    H1 9558   2.610   2.453   1.199 -0.3417  0.2494  0.4112
 3184TIP3    H2 9559   2.546   2.323   1.239  0.1906 -0.0689  0.2459
 3185TIP3   OH2 9560   2.315   2.905   0.072  0.0191 -0.5678  0.1364
 3185TIP3    H1 9561   2.312   2.938   0.161 -0.7731 -0.9990  0.2745
 3185TIP3    H2 9562   2.230   2.928   0.034  0.3058 -0.4833 -0.4753
 3186TIP3   OH2 9563   1.022   2.102   2.329  0.3409 -0.2267  0.3490
 3186TIP3    H1 9564   1.020   2.128   2.237  0.8918 -0.7020  0.1965
 3186TIP3    H2 9565   0.929   2.099   2.355  0.1088 -1.2256 -0.5222
 3187TIP3   OH2 9566   1.254   5.077   2.665  0.6269 -0.2301  0.0129
 3187TIP3    H1 9567   1.182   5.121   2.620  0.8763  1.3961  1.1195
 3187TIP3    H2 9568   1.331   5.100   2.613  0.3464 -2.5410 -1.5760
 3188TIP3   OH2 9569   5.020  -0.010   1.955  0.1102 -0.2330 -0.3048
 3188TIP3    H1 9570   5.085   0.057   1.937  0.9283 -0.9455 -0.0609
 3188TIP3    H2 9571   4.944   0.016   1.903  0.3807  0.9154 -0.1516
 3189TIP3   OH2 9572   4.087   6.012   3.833 -0.1145 -0.4426 -0.1271
 3189TIP3    H1 9573   4.042   5.931   3.855 -1.6893 -0.0726 -1.7247
 3189TIP3    H2 9574   4.148   5.987   3.763  1.5263 -0.7334  1.3143
 3190TIP3   OH2 9575   4.873   2.738   1.310  0.4934 -0.0480 -0.0516
 3190TIP3    H1 9576   4.950   2.781   1.346  0.8901 -2.5778  2.4817
 3190TIP3    H2 9577   4.818   2.718   1.386 -2.4841  1.1862 -1.7113
 3191TIP3   OH2 9578   5.420   5.492   3.861  0.5609  0.1389  0.0937
 3191TIP3    H1 9579   5.476   5.551   3.810 -0.2277  0.7826 -0.0425
 3191TIP3    H2 9580   5.447   5.404   3.833 -0.3822  0.4616 -2.0977
 3192TIP3   OH2 9581   3.567   1.962   4.850 -0.1091  0.0152  0.5732
 3192TIP3    H1 9582   3.612   1.880   4.829 -0.7932 -0.8004  2.1419
 3192TIP3    H2 9583   3.613   1.997   4.926 -2.4219 -1.2046  2.6855
 3193TIP3   OH2 9584   1.499   1.937   1.209  1.1242  0.0297  0.2874
 3193TIP3    H1 9585   1.561   1.865   1.219  1.2694 -0.1545 -1.5489
 3193TIP3    H2 9586   1.421   1.898   1.170 -0.2438  0.2535  2.5873
 3194TIP3   OH2 9587   6.160   0.543   4.300 -0.2974  0.7616 -0.5189
 3194TIP3    H1 9588   6.193   0.473   4.356  1.2180  2.5161  0.9031
 3194TIP3    H2 9589   6.189   0.518   4.212  0.7059 -0.1197  0.0331
 3195TIP3   OH2 9590   2.036   5.167   1.264  0.4631  0.6977  0.0116
 3195TIP3    H1 9591   1.951   5.204   1.287  0.1929 -0.1172  0.3467
 3195TIP3    H2 9592   2.074   5.230   1.203 -2.6015 -1.3208 -4.5212
 3196TIP3   OH2 9593   3.152   3.306   2.749 -0.2521  0.0765  0.6701
 3196TIP3    H1 9594   3.177   3.255   2.826 -1.6580  1.5615  2.2126
 3196TIP3    H2 9595   3.205   3.385   2.753 -1.4719  0.9130  1.0984
 3197TIP3   OH2 9596   5.914   5.744   3.811 -0.4568  0.5349  0.0284
 3197TIP3    H1 9597   5.947   5.833   3.828 -0.8175  0.6781  0.0097
 3197TIP3    H2 9598   5.858   5.754   3.734 -1.3490  0.5090  0.6491
 3198TIP3   OH2 9599   5.024   4.071   4.355  0.3865  0.1358 -0.2757
 3198TIP3    H1 9600   5.023   3.986   4.399 -1.1477  0.4878  0.4499
 3198TIP3    H2 9601   5.041   4.134   4.426  0.9459  0.4872 -0.7130
 3199TIP3   OH2 9602   2.997   4.273   5.116  0.7027 -0.1131 -0.4086
 3199TIP3    H1 9603   3.028   4.291   5.204  0.6359  0.2757 -0.4612
 3199TIP3    H2 9604   2.903   4.257   5.126  0.7898 -0.6141 -0.3399
 3200TIP3   OH2 9605   2.353   5.536   0.956  0.6579 -0.1328  0.1171
 3200TIP3    H1 9606   2.309   5.545   0.872  0.1659 -0.7944  0.2967
 3200TIP3    H2 9607   2.371   5.443   0.965  0.4391 -0.1145  0.8709
 3201TIP3   OH2 9608   4.100   3.910   4.445 -0.2147  0.6111  0.0453
 3201TIP3    H1 9609   4.063   3.883   4.529  1.5489  0.2248  0.7536
 3201TIP3    H2 9610   4.034   3.887   4.381 -0.4208 -1.8828  1.0421
 3202TIP3   OH2 9611   4.016   5.764   0.246 -0.4881 -0.4439  0.6140
 3202TIP3    H1 9612   4.105   5.800   0.251 -0.8044  0.1868  2.6407
 3202TIP3    H2 9613   4.029   5.672   0.222  0.5961 -0.0295 -0.5094
 3203TIP3   OH2 9614   2.292   0.131   2.675  0.0225 -0.5502  0.1571
 3203TIP3    H1 9615   2.307   0.198   2.742  0.8948  0.4786 -1.0412
 3203TIP3    H2 9616   2.376   0.085   2.668  0.1282 -0.2383 -0.6720
 3204TIP3   OH2 9617   5.552   0.081   4.773  0.0349  0.1800 -0.3447
 3204TIP3    H1 9618   5.597   0.053   4.694 -0.2762 -0.8049 -0.1824
 3204TIP3    H2 9619   5.502   0.158   4.746 -0.1604 -0.2175 -1.1428
 3205TIP3   OH2 9620   3.162   3.902   2.594 -0.6387 -0.1551 -0.1246
 3205TIP3    H1 9621   3.221   3.831   2.619 -1.7480 -1.2427 -0.5118
 3205TIP3    H2 9622   3.213   3.982   2.608  0.8650 -1.0519 -0.2979
 3206TIP3   OH2 9623   0.375   1.106   3.542  0.2381  0.3318  0.0071
 3206TIP3    H1 9624   0.433   1.151   3.481  0.5014  0.3012  0.2317
 3206TIP3    H2 9625   0.308   1.066   3.486  1.7929 -1.7239 -0.5179
 3207TIP3   OH2 9626   1.151   0.282   4.720  0.3244  0.3200  0.0335
 3207TIP3    H1 9627   1.216   0.343   4.753  1.2586 -0.3218 -0.5433
 3207TIP3    H2 9628   1.127   0.229   4.796  0.1681  0.8274  0.3397
 3208TIP3   OH2 9629   4.828   4.899   4.149 -0.7655  0.1261  0.5668
 3208TIP3    H1 9630   4.749   4.932   4.192 -0.9530 -0.9507  1.0885
 3208TIP3    H2 9631   4.897   4.958   4.178 -1.0198 -0.1532  1.8154
 3209TIP3   OH2 9632   2.873   4.208   0.089  0.0774 -0.4737  0.1807
 3209TIP3    H1 9633   2.909   4.133   0.136 -1.8957  0.2416  3.0849
 3209TIP3    H2 9634   2.946   4.270   0.082  0.6452 -0.9677  1.5187
 3210TIP3   OH2 9635   2.377   1.041   0.214 -0.0499 -0.0427  0.0598
 3210TIP3    H1 9636   2.295   1.090   0.217 -0.3342 -0.3863 -1.2818
 3210TIP3    H2 9637   2.445   1.108   0.219 -0.3712  0.2011  1.8546
 3211TIP3   OH2 9638   4.615   2.065   4.784 -0.0730 -0.2346 -0.1401
 3211TIP3    H1 9639   4.537   2.120   4.775  0.6952  0.9295  0.1699
 3211TIP3    H2 9640   4.644   2.080   4.874  0.6924 -0.4209 -0.3521
 3212TIP3   OH2 9641   3.838   5.236   2.256 -0.2033 -0.1013 -0.8734
 3212TIP3    H1 9642   3.829   5.296   2.182  1.5045 -0.5540 -1.4954
 3212TIP3    H2 9643   3.887   5.286   2.321 -1.1130  0.0674 -0.3078
 3213TIP3   OH2 9644   3.597   2.327   3.457 -0.3717 -0.1535  0.3251
 3213TIP3    H1 9645   3.565   2.346   3.369 -1.5377 -2.8299  0.0846
 3213TIP3    H2 9646   3.521   2.339   3.513 -0.4772 -1.4876  0.4945
 3214TIP3   OH2 9647   5.395   1.987   1.304 -0.5105 -0.0022  0.2739
 3214TIP3    H1 9648   5.345   1.908   1.323 -1.6450  0.3762 -0.9529
 3214TIP3    H2 9649   5.378   2.045   1.379 -1.3131 -0.1826  0.2449
 3215TIP3   OH2 9650   5.655   3.210   3.631  0.5169  0.2826  0.0118
 3215TIP3    H1 9651   5.730   3.242   3.581 -0.2948  0.8613 -0.8702
 3215TIP3    H2 9652   5.580   3.220   3.572 -0.4392  0.7901  1.2608
 3216TIP3   OH2 9653   4.742   4.827   5.018 -0.8398 -0.0597 -0.0116
 3216TIP3    H1 9654   4.794   4.766   5.070 -1.1329  0.2224  0.6247
 3216TIP3    H2 9655   4.735   4.905   5.073 -3.8093 -0.8575  0.9162
 3217TIP3   OH2 9656   4.345   4.137   3.063  0.5673 -0.9497 -0.0246
 3217TIP3    H1 9657   4.417   4.167   3.007 -0.9770  0.2634 -1.4509
 3217TIP3    H2 9658   4.321   4.051   3.027 -1.2759  0.3729 -2.2093
 3218TIP3   OH2 9659   6.072   1.265   4.984 -0.4754 -0.4271  0.1095
 3218TIP3    H1 9660   6.022   1.187   5.011 -0.7366 -0.6692 -1.0292
 3218TIP3    H2 9661   6.155   1.231   4.952 -0.3873 -0.1921  0.0844
 3219TIP3   OH2 9662   6.162   2.820   1.692 -0.0585  0.3976  0.6647
 3219TIP3    H1 9663   6.095   2.857   1.634 -1.6376 -0.7362  1.6735
 3219TIP3    H2 9664   6.118   2.746   1.734  2.1091 -0.8873  0.7863
 3220TIP3   OH2 9665   2.314   5.572   4.892 -0.4534 -0.6631  0.5530
 3220TIP3    H1 9666   2.336   5.592   4.802 -0.8200 -0.1919  0.5626
 3220TIP3    H2 9667   2.241   5.510   4.886 -0.0909 -1.0897  0.5259
 3221TIP3   OH2 9668   3.125   1.380   1.634 -0.0769  0.1241 -0.1794
 3221TIP3    H1 9669   3.160   1.467   1.616  0.3514 -0.3135 -1.6578
 3221TIP3    H2 9670   3.032   1.386   1.613  0.2585 -0.1571 -1.9258
 3222TIP3   OH2 9671   2.591   4.736   2.374 -0.1006 -0.6271  0.1642
 3222TIP3    H1 9672   2.574   4.826   2.401  0.8922 -0.0537 -1.0115
 3222TIP3    H2 9673   2.521   4.685   2.413  1.3996  0.0158  4.1503
 3223TIP3   OH2 9674   1.192   2.347   1.194  0.5408 -0.8021 -0.1419
 3223TIP3    H1 9675   1.233   2.279   1.141 -0.4986 -0.9000 -0.8266
 3223TIP3    H2 9676   1.236   2.339   1.279  1.6759 -1.1463 -0.7350
 3224TIP3   OH2 9677   5.502   2.664   0.894  0.0503  0.1442 -0.2250
 3224TIP3    H1 9678   5.407   2.654   0.903 -0.1281  1.8246  0.0765
 3224TIP3    H2 9679   5.523   2.744   0.942  1.4992  0.2497 -0.9605
 3225TIP3   OH2 9680   0.546   3.402   0.402 -0.1272 -0.5498  0.2465
 3225TIP3    H1 9681   0.612   3.335   0.418 -0.2803 -0.4981  1.1438
 3225TIP3    H2 9682   0.581   3.481   0.444 -0.7781 -0.5340  0.7657
 3226TIP3   OH2 9683   5.701   1.855   2.477  0.0682 -0.3708  0.4466
 3226TIP3    H1 9684   5.620   1.803   2.482 -1.7936  2.3259  0.2271
 3226TIP3    H2 9685   5.708   1.880   2.385 -0.7729  2.1322  0.9816
 3227TIP3   OH2 9686   6.272   3.463   0.509  0.4216 -0.0195 -0.2769
 3227TIP3    H1 9687   6.310   3.474   0.596 -0.1304  0.5262 -0.1027
 3227TIP3    H2 9688   6.303   3.377   0.481  1.8669  0.4434 -0.1877
 3228TIP3   OH2 9689   0.384   4.469   2.258 -0.3328  0.3203  0.5777
 3228TIP3    H1 9690   0.338   4.553   2.263 -0.8468 -0.0148  1.6291
 3228TIP3    H2 9691   0.448   4.472   2.329  1.0058  0.5841 -0.5682
 3229TIP3   OH2 9692   0.095   4.169   1.258  0.1566 -0.3811 -0.0461
 3229TIP3    H1 9693   0.070   4.163   1.166  0.9565 -1.2075 -0.2141
 3229TIP3    H2 9694   0.041   4.103   1.302  0.7190 -0.8951 -0.1260
 3230TIP3   OH2 9695   4.529   3.188   4.044 -0.7734  0.0407 -0.0585
 3230TIP3    H1 9696   4.576   3.106   4.033 -1.1702 -0.0461 -1.1501
 3230TIP3    H2 9697   4.500   3.212   3.956 -1.2165  1.0172  0.3383
 3231TIP3   OH2 9698   5.263   4.447   2.209  0.1476  0.0822  0.2342
 3231TIP3    H1 9699   5.328   4.425   2.142 -0.1816 -0.7009  0.1572
 3231TIP3    H2 9700   5.308   4.430   2.292 -0.2800 -1.5673  0.1813
 3232TIP3   OH2 9701   1.908   1.091   1.455  0.5775  0.5282  0.1864
 3232TIP3    H1 9702   1.834   1.146   1.427 -0.2629 -0.0466  1.2171
 3232TIP3    H2 9703   1.930   1.123   1.542 -0.9295 -1.6625  1.4769
 3233TIP3   OH2 9704   0.128   1.017   3.421 -0.4304 -0.0039 -0.2475
 3233TIP3    H1 9705   0.070   1.092   3.419  0.4313  0.6736 -1.0029
 3233TIP3    H2 9706   0.111   0.974   3.505 -1.0280  0.9576  0.1304
 3234TIP3   OH2 9707   0.283   1.396   1.572  1.0626 -0.1563 -0.3634
 3234TIP3    H1 9708   0.307   1.446   1.494  0.6329 -0.8207 -0.9353
 3234TIP3    H2 9709   0.334   1.436   1.642  0.0400  1.7084 -0.6029
 3235TIP3   OH2 9710   4.517   2.541   0.082  0.9080  0.0263 -0.3742
 3235TIP3    H1 9711   4.454   2.496   0.026  1.6595 -2.7303  0.7998
 3235TIP3    H2 9712   4.464   2.598   0.138 -0.0706  0.9846 -2.2102
 3236TIP3   OH2 9713   3.493   0.243   1.232 -0.9743  0.0253  0.0607
 3236TIP3    H1 9714   3.506   0.206   1.319 -0.6921 -1.9087 -0.7471
 3236TIP3    H2 9715   3.416   0.197   1.198  0.3378 -1.0507 -1.5982
 3237TIP3   OH2 9716   5.082   5.991   3.964 -0.3218 -0.0120  0.0934
 3237TIP3    H1 9717   5.155   6.046   3.935  0.9535 -0.2528  2.5783
 3237TIP3    H2 9718   5.119   5.902   3.968 -0.2799  0.0349  2.5654
 3238TIP3   OH2 9719   3.347   4.798   1.941 -0.3239 -0.3360  0.2484
 3238TIP3    H1 9720   3.338   4.867   1.875  0.3442 -1.1313 -0.7000
 3238TIP3    H2 9721   3.388   4.841   2.016 -0.2043  0.3677 -0.2141
 3239TIP3   OH2 9722   4.701   5.464   4.605  0.4234  0.8843  0.2010
 3239TIP3    H1 9723   4.652   5.488   4.526  1.9824 -1.1564 -1.4771
 3239TIP3    H2 9724   4.776   5.524   4.605  0.7674  0.4556 -0.2367
 3240TIP3   OH2 9725   1.256   3.510   2.464  0.4977  0.0587 -0.4039
 3240TIP3    H1 9726   1.238   3.416   2.475 -0.2024  0.0085 -1.6937
 3240TIP3    H2 9727   1.319   3.531   2.532 -0.2687 -1.0771  0.7061
 3241TIP3   OH2 9728   4.685   0.815   1.318  0.2307  0.1476  0.1647
 3241TIP3    H1 9729   4.735   0.822   1.237  0.5405 -0.4087  0.3047
 3241TIP3    H2 9730   4.648   0.903   1.331 -0.4109  0.0613 -0.9511
 3242TIP3   OH2 9731   4.368   1.021   1.551 -0.3736 -0.4786  0.6033
 3242TIP3    H1 9732   4.336   1.006   1.640  0.8379 -0.1036  1.1279
 3242TIP3    H2 9733   4.305   1.082   1.512  0.0411  0.7749  1.8300
 3243TIP3   OH2 9734   6.062   3.317   2.120  0.0866  0.1007  0.2705
 3243TIP3    H1 9735   6.067   3.303   2.026 -1.0174 -1.1810  0.3650
 3243TIP3    H2 9736   5.980   3.274   2.147  1.1840 -1.0396  2.0391
 3244TIP3   OH2 9737   5.552   4.536   3.588 -0.9827 -0.0288 -0.2557
 3244TIP3    H1 9738   5.521   4.623   3.563 -2.0813 -0.6214 -1.0525
 3244TIP3    H2 9739   5.600   4.550   3.670 -2.0983  1.1670  0.2303
 3245TIP3   OH2 9740   2.025   4.108   1.412 -0.1506 -0.0241 -0.5200
 3245TIP3    H1 9741   2.041   4.093   1.319  1.3160 -1.2664 -0.1137
 3245TIP3    H2 9742   2.112   4.124   1.449 -0.3839 -1.9304  1.0090
 3246TIP3   OH2 9743   1.230   0.404   0.303  0.1805  0.1895 -0.3989
 3246TIP3    H1 9744   1.251   0.381   0.213 -1.1553 -1.2776 -0.3909
 3246TIP3    H2 9745   1.134   0.397   0.308  0.2032  0.4864  1.0655
 3247TIP3   OH2 9746   0.194   0.165   0.539 -0.1184 -0.2826  0.0628
 3247TIP3    H1 9747   0.165   0.256   0.532 -3.4151 -1.2797 -0.7070
 3247TIP3    H2 9748   0.177   0.128   0.453  0.7923 -1.7777  0.4913
 3248TIP3   OH2 9749   5.832   3.234   2.243 -0.0462  0.2186 -0.1646
 3248TIP3    H1 9750   5.778   3.155   2.251  0.3093 -0.0002  0.0869
 3248TIP3    H2 9751   5.833   3.271   2.331  0.7032 -0.1023 -0.0317
 3249TIP3   OH2 9752   4.264   3.845   3.035  0.4635  0.2802  0.3611
 3249TIP3    H1 9753   4.271   3.764   2.984 -3.1895  0.2144 -0.2886
 3249TIP3    H2 9754   4.279   3.818   3.126  0.8296 -0.8131 -0.0088
 3250TIP3   OH2 9755   2.033   3.909   4.807 -0.1495 -0.3836 -0.0340
 3250TIP3    H1 9756   2.084   3.830   4.823 -1.3169 -0.9125  1.2180
 3250TIP3    H2 9757   2.064   3.940   4.722 -0.5127 -2.8804 -1.1823
 3251TIP3   OH2 9758   6.194   4.863   2.163 -0.0797 -0.2734 -0.1999
 3251TIP3    H1 9759   6.169   4.775   2.136 -1.4333  0.4760 -1.5695
 3251TIP3    H2 9760   6.265   4.886   2.103  0.1093 -0.3452 -0.0029
 3252TIP3   OH2 9761   4.810   3.866   0.232  0.7133 -0.1212 -0.2130
 3252TIP3    H1 9762   4.819   3.833   0.321  3.2527  0.1812 -0.2894
 3252TIP3    H2 9763   4.891   3.915   0.216 -0.4063  1.2612 -2.1097
 3253TIP3   OH2 9764   4.463   0.176   1.559  0.3452  0.1763 -0.6237
 3253TIP3    H1 9765   4.456   0.081   1.570  2.7104  0.0623  0.4457
 3253TIP3    H2 9766   4.452   0.211   1.647 -2.2582  1.1212 -1.2235
 3254TIP3   OH2 9767   4.512   3.265   4.440  0.3769 -0.0280  0.0718
 3254TIP3    H1 9768   4.543   3.338   4.386 -0.8126  1.5021  1.3707
 3254TIP3    H2 9769   4.460   3.211   4.380  0.7851  0.4869 -0.7727
 3255TIP3   OH2 9770   0.961   5.289   4.183  0.3852 -0.3195  0.3592
 3255TIP3    H1 9771   1.011   5.270   4.262  1.3993  1.7574  0.2802
 3255TIP3    H2 9772   0.874   5.254   4.200  1.5824 -3.3828  0.8057
 3256TIP3   OH2 9773   0.268   0.483   1.171  0.3528  0.0714 -0.7951
 3256TIP3    H1 9774   0.248   0.544   1.243  1.5781  0.9436 -1.1671
 3256TIP3    H2 9775   0.188   0.482   1.118 -0.1418  0.3412 -0.0758
 3257TIP3   OH2 9776   6.013   2.085   4.762 -0.8895 -0.4299  0.7588
 3257TIP3    H1 9777   6.098   2.041   4.758 -0.0210  1.2399 -0.5208
 3257TIP3    H2 9778   6.000   2.119   4.674 -2.1878  0.6303  1.3273
 3258TIP3   OH2 9779   0.921   0.070   2.522 -0.0404 -0.7843 -0.2210
 3258TIP3    H1 9780   0.835   0.050   2.559  0.1028 -0.9236  0.0460
 3258TIP3    H2 9781   0.926   0.017   2.443 -0.5018 -0.1972 -0.6474
 3259TIP3   OH2 9782   3.461   1.775   1.914 -0.4658 -0.0469 -0.2096
 3259TIP3    H1 9783   3.472   1.809   1.826  1.4986 -1.6456 -0.6498
 3259TIP3    H2 9784   3.433   1.851   1.966 -1.6729  0.9133 -2.1658
 3260TIP3   OH2 9785   4.694   5.273   0.805  1.0038  0.1392  0.0682
 3260TIP3    H1 9786   4.776   5.302   0.846  0.8933  0.2219  0.2339
 3260TIP3    H2 9787   4.685   5.330   0.728 -0.6794  2.6257  1.9316
 3261TIP3   OH2 9788   1.465   2.298   0.213  0.1841  0.3633 -0.1988
 3261TIP3    H1 9789   1.483   2.263   0.300  1.0481  1.6530  0.1796
 3261TIP3    H2 9790   1.399   2.239   0.175  2.5978 -2.5242 -0.2168
 3262TIP3   OH2 9791   5.213   3.070   3.310  0.0468  0.0103  0.6446
 3262TIP3    H1 9792   5.202   3.032   3.223 -2.4923  0.5439  0.6451
 3262TIP3    H2 9793   5.258   3.002   3.360  2.9052  0.2464 -1.3726
 3263TIP3   OH2 9794   5.198   4.920   2.759  0.5387  0.3771  0.3481
 3263TIP3    H1 9795   5.215   4.829   2.782 -1.4729 -0.2699 -0.5841
 3263TIP3    H2 9796   5.152   4.955   2.835 -1.6877 -0.3799 -0.5736
 3264TIP3   OH2 9797   3.729   3.389   0.285  0.5669 -0.7478 -0.0916
 3264TIP3    H1 9798   3.722   3.480   0.260  0.2821 -0.6937  0.1846
 3264TIP3    H2 9799   3.823   3.376   0.300  0.3656  0.2130  2.4463
 3265TIP3   OH2 9800   3.701   4.096   2.516  0.4466  0.3834  0.1130
 3265TIP3    H1 9801   3.757   4.025   2.482  0.4353  1.0798 -1.4190
 3265TIP3    H2 9802   3.760   4.171   2.524  0.0667  0.6990 -0.0266
 3266TIP3   OH2 9803   3.290   4.108   3.611 -0.7106  0.5650 -0.0169
 3266TIP3    H1 9804   3.289   4.078   3.520  0.4120 -0.4687  0.2717
 3266TIP3    H2 9805   3.339   4.190   3.610 -0.6596  0.5290 -0.3395
 3267TIP3   OH2 9806   0.768   4.472   3.208 -0.4913 -0.0818 -0.1363
 3267TIP3    H1 9807   0.734   4.556   3.238 -0.0377  0.2583 -0.5617
 3267TIP3    H2 9808   0.797   4.428   3.288 -1.7606 -0.3183  0.2186
 3268TIP3   OH2 9809   2.990   5.330   4.753  0.2730  0.5096 -0.0498
 3268TIP3    H1 9810   2.994   5.281   4.671  0.2088 -0.9782  0.8086
 3268TIP3    H2 9811   2.896   5.341   4.770  0.2681  2.4795 -1.1003
 3269TIP3   OH2 9812   4.234   0.584   4.539 -0.2618  0.3530 -0.8469
 3269TIP3    H1 9813   4.220   0.503   4.489  0.9368 -0.9910  0.8434
 3269TIP3    H2 9814   4.155   0.592   4.593 -0.0176 -0.2054 -0.3899
 3270TIP3   OH2 9815   3.448   0.847   2.432 -0.2078  0.2267 -0.1663
 3270TIP3    H1 9816   3.380   0.788   2.466  0.0966  0.7044  1.3245
 3270TIP3    H2 9817   3.530   0.811   2.465  0.1609  0.4201 -0.8450
 3271TIP3   OH2 9818   0.520   5.744   5.007 -0.0781  0.5217  0.1830
 3271TIP3    H1 9819   0.473   5.661   5.002  1.0191 -0.0217 -1.7602
 3271TIP3    H2 9820   0.600   5.724   5.055  0.6265  0.2233 -1.0976
 3272TIP3   OH2 9821   5.268   2.342   4.306  0.5066 -0.5671  0.4355
 3272TIP3    H1 9822   5.312   2.392   4.375 -1.3434  0.3496  1.0189
 3272TIP3    H2 9823   5.292   2.386   4.225  0.4199  0.1292  0.7805
 3273TIP3   OH2 9824   0.393   5.494   0.269 -0.3435 -0.4432 -0.4026
 3273TIP3    H1 9825   0.401   5.497   0.173  2.3456 -0.6416 -0.2670
 3273TIP3    H2 9826   0.435   5.412   0.294 -0.6485 -0.1933  0.9864
 3274TIP3   OH2 9827   5.463   2.086   4.396 -0.0766  1.0752  0.4970
 3274TIP3    H1 9828   5.487   2.137   4.320 -0.9935  1.2219  0.2910
 3274TIP3    H2 9829   5.367   2.093   4.401 -0.1765 -0.1757  0.7688
 3275TIP3   OH2 9830   3.058   4.268   1.782  0.4613  0.5683  0.2271
 3275TIP3    H1 9831   3.084   4.251   1.692 -0.5935  0.1178 -0.0070
 3275TIP3    H2 9832   3.098   4.196   1.832  0.6070  0.5235  0.0507
 3276TIP3   OH2 9833   3.352   1.147   1.299  0.5955  0.1279  0.6100
 3276TIP3    H1 9834   3.315   1.215   1.243  1.6149  0.4322  0.2973
 3276TIP3    H2 9835   3.282   1.126   1.361  0.2835  1.4699  0.7270
 3277TIP3   OH2 9836   1.290   5.323   4.877  0.2806  0.8757  0.4760
 3277TIP3    H1 9837   1.285   5.387   4.806  0.4431  1.4063  0.9356
 3277TIP3    H2 9838   1.382   5.294   4.876 -0.0592 -0.2789 -0.5172
 3278TIP3   OH2 9839   1.868   5.629   3.469  0.0261 -0.5764 -0.1212
 3278TIP3    H1 9840   1.789   5.577   3.479  0.5497 -1.5168 -0.7319
 3278TIP3    H2 9841   1.877   5.642   3.374  0.2370  0.0971 -0.0168
 3279TIP3   OH2 9842   4.788   5.692   1.922  0.0185 -0.2539  0.1699
 3279TIP3    H1 9843   4.782   5.776   1.877 -0.0203 -0.1522  0.3645
 3279TIP3    H2 9844   4.698   5.657   1.920  0.5110 -1.6564 -2.5005
 3280TIP3   OH2 9845   1.752   4.049   2.880  0.4335 -0.2024  0.1377
 3280TIP3    H1 9846   1.794   4.099   2.810  0.4446  1.2467  1.1349
 3280TIP3    H2 9847   1.683   4.107   2.913 -0.3171 -1.3054  0.5941
 3281TIP3   OH2 9848   4.417   1.115   2.826  0.4812 -0.5773 -0.6542
 3281TIP3    H1 9849   4.508   1.100   2.853  1.0455 -0.0812 -2.2049
 3281TIP3    H2 9850   4.371   1.131   2.908  2.0594  0.5493  0.0633
 3282TIP3   OH2 9851   6.322   3.951   1.412 -0.5226 -0.3907 -0.7553
 3282TIP3    H1 9852   6.345   3.859   1.421  0.9744 -0.0309 -0.6633
 3282TIP3    H2 9853   6.231   3.950   1.384 -0.6548 -1.8834 -0.3630
 3283TIP3   OH2 9854   4.008   1.405   1.652  0.5744  0.1401 -0.3049
 3283TIP3    H1 9855   3.973   1.494   1.644  1.2216  0.4992  0.6230
 3283TIP3    H2 9856   3.994   1.383   1.744  3.2210  0.5072  0.2498
 3284TIP3   OH2 9857   4.143   0.061   2.116 -0.6603  0.1217 -0.3953
 3284TIP3    H1 9858   4.200  -0.004   2.158 -2.3690  0.4797  2.8507
 3284TIP3    H2 9859   4.181   0.145   2.141 -1.4694  0.3419  0.1493
 3285TIP3   OH2 9860   4.223   3.058   3.642  0.0649 -0.8724 -0.7859
 3285TIP3    H1 9861   4.312   3.043   3.613  0.0358 -0.8877 -0.8654
 3285TIP3    H2 9862   4.182   2.971   3.639  0.0727 -0.8811 -0.6640
 3286TIP3   OH2 9863   1.831   1.416   1.614 -0.4545 -0.2614 -0.4412
 3286TIP3    H1 9864   1.839   1.321   1.626 -3.0720 -0.5108  0.0347
 3286TIP3    H2 9865   1.921   1.447   1.607  0.5322 -2.6321  0.5424
 3287TIP3   OH2 9866   5.893   2.496   1.585  0.1514 -0.6864 -0.2081
 3287TIP3    H1 9867   5.816   2.440   1.572  1.0584 -1.9766 -0.2190
 3287TIP3    H2 9868   5.967   2.438   1.572  1.1477  0.6304 -0.5774
 3288TIP3   OH2 9869   3.696   1.139   4.733  0.1842 -0.1346 -0.6268
 3288TIP3    H1 9870   3.601   1.139   4.742  0.3443  1.2304  1.9269
 3288TIP3    H2 9871   3.720   1.231   4.729  1.4254 -0.4619 -1.3280
 3289TIP3   OH2 9872   0.213   5.629   4.128  0.2203  0.3914  0.4258
 3289TIP3    H1 9873   0.294   5.652   4.175  0.2432  1.5778 -0.1533
 3289TIP3    H2 9874   0.215   5.682   4.049 -1.2200  0.5895  0.4903
 3290TIP3   OH2 9875   5.568   2.379   2.237 -0.5151 -0.1880  0.0145
 3290TIP3    H1 9876   5.547   2.287   2.221 -1.2362 -0.5921  2.7610
 3290TIP3    H2 9877   5.490   2.427   2.210 -0.3917 -0.4355 -0.8016
 3291TIP3   OH2 9878   6.250   4.852   3.900 -0.2271 -0.1753 -0.2675
 3291TIP3    H1 9879   6.261   4.764   3.863  0.5003  0.1975 -0.9565
 3291TIP3    H2 9880   6.162   4.850   3.939 -0.6773 -0.8528 -1.2657
 3292TIP3   OH2 9881   1.246   4.940   5.087 -0.0537 -0.1046 -0.2674
 3292TIP3    H1 9882   1.152   4.934   5.103 -0.4407  0.9114 -1.9621
 3292TIP3    H2 9883   1.280   4.990   5.162 -0.5414 -1.9361  1.2554
 3293TIP3   OH2 9884   1.608   3.473   1.610  0.0364  0.4324 -0.3593
 3293TIP3    H1 9885   1.530   3.495   1.662  0.8979  0.1389  1.0777
 3293TIP3    H2 9886   1.601   3.531   1.534 -3.5361 -2.0655 -2.2667
 3294TIP3   OH2 9887   4.982   3.951   3.629 -0.4377  0.1142  0.0410
 3294TIP3    H1 9888   4.986   4.012   3.702  0.7546  0.2838 -0.1517
 3294TIP3    H2 9889   5.064   3.901   3.635 -0.9935 -0.8731 -0.3191
 3295TIP3   OH2 9890   0.053   2.681   2.231 -0.5052  0.3800 -0.2373
 3295TIP3    H1 9891  -0.010   2.662   2.301  0.7780  1.7843  1.3942
 3295TIP3    H2 9892   0.098   2.598   2.217 -1.7068 -0.2672 -0.3924
 3296TIP3   OH2 9893   0.061   2.220   2.349  0.0372 -0.0100 -0.4068
 3296TIP3    H1 9894  -0.027   2.192   2.374 -0.9193  1.6395 -1.7140
 3296TIP3    H2 9895   0.081   2.167   2.271  0.4113 -0.6835  0.1309
 3297TIP3   OH2 9896   0.418   4.680   4.203 -0.1934 -0.2567 -0.0709
 3297TIP3    H1 9897   0.492   4.738   4.221 -0.3359 -0.5036  1.3840
 3297TIP3    H2 9898   0.347   4.739   4.178  0.0051  0.1049  0.2048
 3298TIP3   OH2 9899   5.080   2.064   0.458  0.0105 -0.3838  0.7352
 3298TIP3    H1 9900   5.024   2.030   0.388  1.5146 -0.1104 -0.6674
 3298TIP3    H2 9901   5.125   2.139   0.419  1.3049 -0.5500  1.8238
 3299TIP3   OH2 9902   0.275   5.942   4.171  0.0160  0.4110  0.5058
 3299TIP3    H1 9903   0.284   5.939   4.076 -0.1945 -1.4412  0.5079
 3299TIP3    H2 9904   0.181   5.950   4.186 -0.1386 -1.1391  0.5309
 3300TIP3   OH2 9905   4.095   1.083   1.157 -0.9042 -0.3905  0.4401
 3300TIP3    H1 9906   4.134   1.026   1.091 -1.6111 -1.3717  0.8376
 3300TIP3    H2 9907   4.071   1.024   1.229 -0.3345  0.6194  1.5020
 3301TIP3   OH2 9908   3.897   1.965   4.124  0.2972 -0.1777 -0.6783
 3301TIP3    H1 9909   3.824   2.000   4.071 -0.2967 -0.4473 -0.0584
 3301TIP3    H2 9910   3.942   1.905   4.066  0.0603  0.0419 -1.0976
 3302TIP3   OH2 9911   5.433   5.707   0.111 -0.0954  0.5974  0.2354
 3302TIP3    H1 9912   5.427   5.728   0.204 -0.1541 -0.2819  0.4366
 3302TIP3    H2 9913   5.489   5.630   0.107  1.9571  2.0335 -0.6645
 3303TIP3   OH2 9914   1.131   1.469   0.083 -0.1003  0.2237  0.2811
 3303TIP3    H1 9915   1.132   1.524   0.161 -0.0821 -0.9434  1.1262
 3303TIP3    H2 9916   1.164   1.384   0.112  0.4305 -0.0902 -1.1210
 3304TIP3   OH2 9917   4.979   4.833   3.276  0.0110  0.1780  0.4138
 3304TIP3    H1 9918   4.886   4.834   3.251 -0.0012  1.0964  0.4685
 3304TIP3    H2 9919   4.981   4.872   3.363  0.5734  1.2156 -0.0521
 3305TIP3   OH2 9920   0.212   4.961   4.881  0.3451 -0.0926  0.6417
 3305TIP3    H1 9921   0.244   4.877   4.849  1.6177  0.2787  0.8683
 3305TIP3    H2 9922   0.137   4.982   4.825  0.0288 -1.3555  0.5694
 3306TIP3   OH2 9923   4.891   4.273   4.634  0.4518 -0.5122 -0.6683
 3306TIP3    H1 9924   4.812   4.286   4.582 -0.6053  1.3611  1.2485
 3306TIP3    H2 9925   4.868   4.206   4.698 -0.1642  0.9984  0.7852
 3307TIP3   OH2 9926   2.393   1.538   2.120  0.1032  0.0246  0.5117
 3307TIP3    H1 9927   2.471   1.588   2.098  0.2884  0.0262  1.1442
 3307TIP3    H2 9928   2.378   1.557   2.213 -0.1462 -0.6590  0.6168
 3308TIP3   OH2 9929   2.477   1.678   2.332  0.3692 -0.3940 -0.0730
 3308TIP3    H1 9930   2.562   1.720   2.318  1.1767 -2.6401 -2.7800
 3308TIP3    H2 9931   2.495   1.606   2.392  0.7455 -1.6402 -1.6056
 3309TIP3   OH2 9932   3.052   4.144   3.425  0.0142  0.1814 -0.4935
 3309TIP3    H1 9933   3.115   4.213   3.405 -0.5373  0.5346 -1.0604
 3309TIP3    H2 9934   3.042   4.148   3.521 -0.1520  1.0097 -0.5411
 3310TIP3   OH2 9935   2.875   4.559   0.450 -0.2190 -0.5270  0.2633
 3310TIP3    H1 9936   2.823   4.487   0.486  0.7186 -0.4004  1.9722
 3310TIP3    H2 9937   2.872   4.627   0.517  2.3251 -0.6044  0.5645
 3311TIP3   OH2 9938   3.782   4.556   4.370  0.1235  0.2827  0.4167
 3311TIP3    H1 9939   3.868   4.514   4.372  0.1901  0.2581 -1.2514
 3311TIP3    H2 9940   3.725   4.495   4.417  0.6434 -0.6379 -0.1073
 3312TIP3   OH2 9941   2.076   2.062   3.101 -0.0674  0.0928  0.1495
 3312TIP3    H1 9942   2.019   1.989   3.127  0.8584 -0.3079  1.1405
 3312TIP3    H2 9943   2.042   2.089   3.016 -1.8051 -0.0574  0.7452
 3313TIP3   OH2 9944   1.350   2.832   1.063  0.2463 -0.4794 -0.8287
 3313TIP3    H1 9945   1.292   2.899   1.100  1.7912  0.4861 -0.0429
 3313TIP3    H2 9946   1.311   2.749   1.089 -0.1426  0.1597  0.7634
 3314TIP3   OH2 9947   0.823   5.219   2.996  0.1439  0.2891  0.2934
 3314TIP3    H1 9948   0.882   5.171   3.055  1.3580 -0.5801 -1.5344
 3314TIP3    H2 9949   0.842   5.311   3.012 -0.8358  0.1847  2.4825
 3315TIP3   OH2 9950   2.717   2.524   4.852 -0.4029 -0.1515 -0.4936
 3315TIP3    H1 9951   2.650   2.527   4.784 -1.3461 -1.0484  0.3728
 3315TIP3    H2 9952   2.788   2.578   4.818 -1.4279  0.5531 -1.5635
 3316TIP3   OH2 9953   5.919   1.596   2.478  0.4194 -0.1726  0.0096
 3316TIP3    H1 9954   5.957   1.678   2.447  2.7935 -1.7129 -1.4676
 3316TIP3    H2 9955   5.837   1.588   2.429  0.6847  0.8129 -0.6187
 3317TIP3   OH2 9956   5.833   1.667   5.165  0.0749 -0.3605  0.5411
 3317TIP3    H1 9957   5.829   1.579   5.202  0.5499 -0.9090 -0.6551
 3317TIP3    H2 9958   5.788   1.659   5.081  1.0738  0.2666 -0.0707
 3318TIP3   OH2 9959   6.031   3.300   4.871  0.2586 -0.0733 -0.1329
 3318TIP3    H1 9960   6.025   3.361   4.944 -0.2185  0.9360 -0.9906
 3318TIP3    H2 9961   6.086   3.344   4.807 -2.4072  0.7989 -1.9792
 3319TIP3   OH2 9962   5.699   3.877   3.794  0.1102 -0.1910 -0.1442
 3319TIP3    H1 9963   5.662   3.842   3.875  1.5854  1.5590  1.3716
 3319TIP3    H2 9964   5.630   3.930   3.756 -0.6658 -1.1948 -0.1848
 3320TIP3   OH2 9965   0.921   5.062   3.196  0.4667  0.4359 -0.1374
 3320TIP3    H1 9966   0.880   5.007   3.129  0.5616  0.2222 -0.0221
 3320TIP3    H2 9967   0.848   5.108   3.236  0.2787 -0.2629  0.3559
 3321TIP3   OH2 9968   6.340   1.084   0.037 -0.7687 -0.5539 -0.3554
 3321TIP3    H1 9969   6.406   1.031   0.082 -0.7955 -1.6842 -1.5729
 3321TIP3    H2 9970   6.268   1.092   0.100  0.4619  0.6547  0.9682
 3322TIP3   OH2 9971   1.674   4.564   4.510 -0.2251 -0.4752  0.4076
 3322TIP3    H1 9972   1.766   4.538   4.504 -0.6396 -1.5765 -2.4328
 3322TIP3    H2 9973   1.655   4.605   4.426 -2.1509  0.4844  1.2578
 3323TIP3   OH2 9974   0.743   4.850   0.835 -0.0781 -0.5988  0.2165
 3323TIP3    H1 9975   0.710   4.935   0.806 -1.6570 -1.1883  0.1687
 3323TIP3    H2 9976   0.838   4.860   0.838 -0.0519  0.4217 -2.1382
 3324TIP3   OH2 9977   4.282   0.816   4.377  0.0343 -0.1182 -0.2429
 3324TIP3    H1 9978   4.226   0.801   4.301  1.2172 -0.2077 -1.1253
 3324TIP3    H2 9979   4.258   0.747   4.439 -0.7179 -0.2401 -0.6580
 3325TIP3   OH2 9980   2.722   0.766   1.854 -0.4232 -0.5057  0.3944
 3325TIP3    H1 9981   2.798   0.805   1.898 -0.1306 -1.1249  0.4488
 3325TIP3    H2 9982   2.711   0.681   1.896 -1.7821 -0.0192  1.0884
 3326TIP3   OH2 9983   5.129   1.275   0.901  0.3426  0.0847  0.8544
 3326TIP3    H1 9984   5.207   1.315   0.940  0.0374  1.6470 -0.0416
 3326TIP3    H2 9985   5.161   1.194   0.861  1.4063  0.4386  0.9622
 3327TIP3   OH2 9986   0.031   2.626   3.730  0.1882 -0.2574  0.3340
 3327TIP3    H1 9987   0.024   2.708   3.779  1.4450 -0.3609  0.7282
 3327TIP3    H2 9988   0.022   2.557   3.796 -1.5538 -0.4844 -0.0868
 3328TIP3   OH2 9989   3.255   1.617   5.098  0.3218 -0.4947  0.4693
 3328TIP3    H1 9990   3.205   1.658   5.028 -0.3305  0.3493  1.4111
 3328TIP3    H2 9991   3.345   1.649   5.085 -0.2173  1.4716  1.3245
 3329TIP3   OH2 9992   4.443   4.832   4.689 -0.2727 -0.0438 -0.0720
 3329TIP3    H1 9993   4.444   4.914   4.739 -0.3210 -0.4688  0.6495
 3329TIP3    H2 9994   4.531   4.797   4.699  0.5853  1.1614 -2.5538
 3330TIP3   OH2 9995   4.363   5.891   1.431  0.0854 -0.2249 -0.2815
 3330TIP3    H1 9996   4.284   5.943   1.444  0.7109  0.4999  0.8956
 3330TIP3    H2 9997   4.425   5.952   1.391  0.5336 -0.3373  0.2335
 3331TIP3   OH2 9998   0.622   4.654   2.053  0.0811  0.3493 -0.0397
 3331TIP3    H1 9999   0.673   4.688   1.979 -0.3660 -0.6964 -0.8638
 3331TIP3    H210000   0.682   4.594   2.098  0.6708  1.7170  1.0507
 3332TIP3   OH210001   1.498   3.019   0.448 -0.2078  0.5702 -0.7349
 3332TIP3    H110002   1.533   3.065   0.372  0.6692  2.0542  0.4962
 3332TIP3    H210003   1.428   3.077   0.480 -1.7357 -0.8565 -1.3495
 3333TIP3   OH210004   5.019   1.416   1.114  0.1746  0.0596 -0.3487
 3333TIP3    H110005   4.924   1.418   1.124  0.3291 -1.7380  2.4340
 3333TIP3    H210006   5.033   1.370   1.031 -1.3822 -0.0288 -0.5932
 3334TIP3   OH210007   3.818   1.937   2.252  0.2871  0.3447  0.1813
 3334TIP3    H110008   3.811   1.923   2.158 -1.4817  0.2236  0.2938
 3334TIP3    H210009   3.785   1.857   2.292  2.1491 -0.1024  0.9633
 3335TIP3   OH210010   5.161   5.315   0.686  0.3594  0.3660  0.4213
 3335TIP3    H110011   5.211   5.369   0.624 -0.8493  0.0234 -0.9102
 3335TIP3    H210012   5.209   5.233   0.690  0.8800  0.6741  0.5561
 3336TIP3   OH210013   0.291   1.591   4.350  0.4631  0.0799  0.6601
 3336TIP3    H110014   0.197   1.590   4.366  0.0876 -3.0257 -0.9960
 3336TIP3    H210015   0.305   1.668   4.295 -1.3785 -0.1922 -0.2651
 3337TIP3   OH210016   1.058   4.638   3.577 -0.6473 -0.1977  0.7793
 3337TIP3    H110017   1.121   4.707   3.598 -0.2291 -0.7004  1.1825
 3337TIP3    H210018   1.094   4.595   3.500 -1.4102  0.6564 -0.0928
 3338TIP3   OH210019   1.330   1.743   1.551 -0.1920 -0.0208  0.3724
 3338TIP3    H110020   1.336   1.706   1.639  0.8627  0.6718  0.6067
 3338TIP3    H210021   1.252   1.799   1.554 -0.1365  0.0340  0.8811
 3339TIP3   OH210022   1.120   4.241   1.459  0.0889 -0.2293 -0.4381
 3339TIP3    H110023   1.177   4.164   1.458 -0.2506 -0.5260  1.0209
 3339TIP3    H210024   1.057   4.223   1.528 -1.1550  0.5505 -1.3214
 3340TIP3   OH210025   5.381   3.902   0.567 -0.3815  0.3152  0.1458
 3340TIP3    H110026   5.362   3.923   0.658 -0.8638 -0.2073  0.1691
 3340TIP3    H210027   5.355   3.810   0.557  1.0159 -0.0757 -0.1425
 3341TIP3   OH210028   2.462   5.233   2.056  0.2444  0.2081  0.4963
 3341TIP3    H110029   2.394   5.299   2.068  0.2482  0.2160  0.4729
 3341TIP3    H210030   2.470   5.223   1.961 -0.9308 -1.0288  0.5005
 3342TIP3   OH210031   0.441   5.828   1.196 -0.9775 -0.8705 -0.0237
 3342TIP3    H110032   0.450   5.774   1.117 -1.6870 -1.5217  0.3220
 3342TIP3    H210033   0.391   5.773   1.256  1.0996 -1.1224  1.5823
 3343TIP3   OH210034   3.249   3.091   1.901  0.2646  0.6339  0.3793
 3343TIP3    H110035   3.330   3.141   1.910  1.0751 -0.6674  0.5455
 3343TIP3    H210036   3.240   3.076   1.807  0.3953  0.4981  0.3882
 3344TIP3   OH210037   0.300   2.114   1.272  0.2714  0.4943 -0.3389
 3344TIP3    H110038   0.245   2.106   1.350 -0.7718  0.6989 -1.0268
 3344TIP3    H210039   0.390   2.114   1.305 -0.1660  1.0952  0.9037
 3345TIP3   OH210040   3.136   4.215   3.065 -0.3687  0.3714  0.3952
 3345TIP3    H110041   3.179   4.238   3.148 -0.4716  0.2268  0.4895
 3345TIP3    H210042   3.043   4.227   3.083 -0.3102  1.8621 -0.1757
 3346TIP3   OH210043   0.326   0.498   0.882  0.2947  0.2888  0.5296
 3346TIP3    H110044   0.348   0.550   0.804 -0.8433  1.4660  0.9534
 3346TIP3    H210045   0.387   0.530   0.949 -0.0197  0.6795  0.6342
 3347TIP3   OH210046   5.670   4.754   0.913  0.3813  0.4613 -0.0837
 3347TIP3    H110047   5.680   4.682   0.851 -0.1785 -0.4142  0.8136
 3347TIP3    H210048   5.757   4.794   0.916  0.1632  1.2295 -2.2307
 3348TIP3   OH210049   1.647   3.129   1.437 -0.3372  0.1615 -0.5286
 3348TIP3    H110050   1.704   3.201   1.464  0.9055 -0.7709 -0.5827
 3348TIP3    H210051   1.564   3.147   1.481  0.7148  0.3098  1.5447
 3349TIP3   OH210052   0.194   1.985   2.525  0.5921 -0.2214 -0.5914
 3349TIP3    H110053   0.124   1.920   2.516  0.2104  0.3919 -2.4854
 3349TIP3    H210054   0.155   2.056   2.577  0.5779 -0.8707  0.3151
 3350TIP3   OH210055   3.840   4.646   3.954 -0.2827  0.1244 -0.4400
 3350TIP3    H110056   3.826   4.556   3.926  0.9964 -0.1900 -0.1274
 3350TIP3    H210057   3.808   4.649   4.044  0.7121 -0.3324 -0.0577
 3351TIP3   OH210058   1.273   4.704   1.713 -0.4356  0.0706 -0.1007
 3351TIP3    H110059   1.352   4.660   1.683  0.1558  0.8291  0.3084
 3351TIP3    H210060   1.237   4.646   1.780 -0.1847 -0.2356 -0.2299
 3352TIP3   OH210061   4.967   3.808   1.195 -0.2509 -0.3450 -0.5080
 3352TIP3    H110062   4.993   3.720   1.170  1.0652  0.1349 -0.8849
 3352TIP3    H210063   5.037   3.865   1.164 -1.1137  0.8611 -0.3664
 3353TIP3   OH210064   0.707   0.332   4.791  0.2349  0.7444  0.0637
 3353TIP3    H110065   0.714   0.242   4.758  0.1677  0.1658  1.5269
 3353TIP3    H210066   0.643   0.373   4.734 -2.7019 -1.3069  1.5974
 3354TIP3   OH210067   3.831   0.316   2.190 -0.0633 -0.0204 -0.0661
 3354TIP3    H110068   3.828   0.411   2.173 -1.1939  0.3430  1.9187
 3354TIP3    H210069   3.860   0.278   2.107  0.2520  2.0437 -0.9622
 3355TIP3   OH210070   3.775   3.643   5.070  0.3233 -0.0231  0.1150
 3355TIP3    H110071   3.745   3.732   5.092  0.7217  0.7490 -2.2266
 3355TIP3    H210072   3.866   3.654   5.044  0.0199 -0.8852 -1.4299
 3356TIP3   OH210073   2.991   0.377   5.019  0.2083 -0.3928  0.0282
 3356TIP3    H110074   2.955   0.338   5.099 -0.7723 -0.7937 -0.6053
 3356TIP3    H210075   2.994   0.471   5.038 -1.1309 -0.3491  0.1231
 3357TIP3   OH210076   2.752   5.574   0.208  0.1294 -0.2412  0.3496
 3357TIP3    H110077   2.757   5.521   0.288 -2.8892 -1.1468  0.0561
 3357TIP3    H210078   2.746   5.510   0.137  0.6466  0.5471 -0.4192
 3358TIP3   OH210079   2.352   2.503   2.005  0.1013  0.2578  0.4516
 3358TIP3    H110080   2.322   2.540   2.088  0.8901 -0.1592  0.9321
 3358TIP3    H210081   2.344   2.408   2.017  1.8525  0.1079  0.7131
 3359TIP3   OH210082   5.656   2.573   1.745  0.4112 -0.0845  0.9546
 3359TIP3    H110083   5.695   2.491   1.776  3.0569  1.0551  0.8544
 3359TIP3    H210084   5.710   2.600   1.672 -1.0879  1.2439  0.2667
 3360TIP3   OH210085   4.613   3.193   0.829  0.5242  0.0716 -0.4642
 3360TIP3    H110086   4.585   3.176   0.919 -0.7180 -3.1650 -1.2977
 3360TIP3    H210087   4.708   3.206   0.835  0.4294  0.1493  1.3147
 3361TIP3   OH210088   4.194   3.146   2.801 -0.0967 -0.6230 -0.4891
 3361TIP3    H110089   4.183   3.158   2.895  1.6579 -0.4024 -0.2694
 3361TIP3    H210090   4.150   3.221   2.761  0.9769  0.4549  0.2832
 3362TIP3   OH210091   0.142   0.305   0.855 -0.2889 -0.8742 -0.1794
 3362TIP3    H110092   0.211   0.245   0.830  0.1272 -0.6650  0.4365
 3362TIP3    H210093   0.188   0.379   0.896 -0.6849  0.4013 -1.8992
 3363TIP3   OH210094   5.562   1.942   4.832  0.3738 -0.3124  0.4152
 3363TIP3    H110095   5.632   1.999   4.865  0.4413 -0.6595  0.8882
 3363TIP3    H210096   5.557   1.961   4.739  1.2238 -0.4172  0.3397
 3364TIP3   OH210097   1.360   4.439   4.306  0.2295 -0.5600 -0.6386
 3364TIP3    H110098   1.282   4.477   4.265 -0.1168 -0.5604  0.0205
 3364TIP3    H210099   1.421   4.512   4.314 -0.3294 -0.1882  0.3648
 3365TIP3   OH210100   2.837   1.822   1.892 -0.0957  0.4681 -0.9142
 3365TIP3    H110101   2.908   1.821   1.957 -1.8228  2.6329  1.1884
 3365TIP3    H210102   2.845   1.908   1.850 -2.3355  1.4631  0.5180
 3366TIP3   OH210103   0.177   2.636   0.329 -0.1137 -0.4190  0.3337
 3366TIP3    H110104   0.095   2.599   0.297 -0.6898 -1.0873  2.4503
 3366TIP3    H210105   0.163   2.731   0.326 -0.1408 -0.4424 -1.2716
 3367TIP3   OH210106   1.520   3.767   2.088 -0.0348  0.0201  0.5682
 3367TIP3    H110107   1.527   3.833   2.157 -0.1126  1.4313 -0.7036
 3367TIP3    H210108   1.608   3.762   2.051 -0.2103  0.0212  0.1397
 3368TIP3   OH210109   3.446   5.630   1.729  0.5071  0.4999 -0.5750
 3368TIP3    H110110   3.359   5.591   1.735  1.8417 -2.9638 -1.6388
 3368TIP3    H210111   3.493   5.598   1.806  0.8382  2.5643  0.1526
 3369TIP3   OH210112   4.332   5.811   2.905 -0.0777  0.5335  0.1674
 3369TIP3    H110113   4.244   5.846   2.916 -0.4012 -0.3565  0.4576
 3369TIP3    H210114   4.375   5.827   2.989  0.1987  1.3687 -0.1166
 3370TIP3   OH210115   0.458   5.578   1.070 -0.1097  0.1227  0.6945
 3370TIP3    H110116   0.522   5.619   1.128  0.4142  1.0205 -0.4884
 3370TIP3    H210117   0.508   5.553   0.992 -1.2537  1.2271 -0.4276
 3371TIP3   OH210118   4.117   5.993   3.493 -0.4498 -0.2416  0.4089
 3371TIP3    H110119   4.119   5.913   3.440  1.5841 -0.0006  0.0483
 3371TIP3    H210120   4.037   6.038   3.465 -0.5619 -1.1772 -0.8628
 3372TIP3   OH210121   2.599   0.369   1.721 -0.2782 -0.5830 -0.0036
 3372TIP3    H110122   2.592   0.275   1.710  1.7104 -0.5288 -2.9166
 3372TIP3    H210123   2.654   0.398   1.648 -2.9973  3.1854 -0.9062
 3373TIP3   OH210124   2.949   2.217   1.973  0.1524  0.0693 -0.7844
 3373TIP3    H110125   2.935   2.171   1.889 -1.2160  0.1348 -0.6268
 3373TIP3    H210126   2.861   2.243   2.000  0.7877  1.8626 -0.3279
 3374TIP3   OH210127   4.242   2.913   4.242  0.1350  0.0198  0.1163
 3374TIP3    H110128   4.287   2.985   4.286  0.2986 -0.7357  1.2285
 3374TIP3    H210129   4.221   2.948   4.155  1.3682  0.9588  0.1560
 3375TIP3   OH210130   2.652   0.090   4.080  0.3239 -0.3853  1.1969
 3375TIP3    H110131   2.598   0.070   4.156 -0.8964 -1.1775  0.1656
 3375TIP3    H210132   2.739   0.109   4.116 -0.1131 -1.1581  2.7301
 3376TIP3   OH210133   3.368   3.920   3.824  0.0633  0.1030 -0.1722
 3376TIP3    H110134   3.348   3.973   3.747 -0.3139 -0.5754 -0.5517
 3376TIP3    H210135   3.359   3.980   3.898  1.3437  0.9997 -0.7113
 3377TIP3   OH210136   5.567   2.107   2.079 -0.3821  0.1015 -0.3636
 3377TIP3    H110137   5.590   2.104   1.986 -0.3349  0.0960 -0.3516
 3377TIP3    H210138   5.647   2.081   2.124 -0.5316 -0.3354 -0.3405
 3378TIP3   OH210139   4.097   5.566   1.411 -0.3623  0.9367 -0.0672
 3378TIP3    H110140   4.014   5.598   1.447  0.4739  0.4059  2.5527
 3378TIP3    H210141   4.093   5.471   1.422  1.0908  0.9993  1.3680
 3379TIP3   OH210142   4.608   5.037   1.539  0.0423 -0.1782  0.5309
 3379TIP3    H110143   4.531   5.040   1.482  1.0310  0.0026 -0.8428
 3379TIP3    H210144   4.682   5.039   1.479  1.1309 -0.9956  1.7990
 3380TIP3   OH210145   0.788   0.503   1.223  0.3623  0.2430  0.1167
 3380TIP3    H110146   0.809   0.591   1.190 -0.5377  0.8789  1.2149
 3380TIP3    H210147   0.834   0.497   1.307 -1.4030  0.5543  1.1494
 3381TIP3   OH210148   4.967   3.871   0.826 -0.0076  0.2352 -0.2756
 3381TIP3    H110149   5.002   3.878   0.737 -1.9563 -0.0049 -1.0920
 3381TIP3    H210150   4.973   3.777   0.846 -1.3238 -0.0059 -0.9230
 3382TIP3   OH210151   0.177   0.347   2.322 -0.3767 -0.4259  0.0245
 3382TIP3    H110152   0.224   0.266   2.299 -0.2044 -0.6183  1.0077
 3382TIP3    H210153   0.236   0.391   2.383 -1.3256 -0.4983  1.0049
 3383TIP3   OH210154   2.317   5.509   1.848  0.0162  0.0671  0.1801
 3383TIP3    H110155   2.301   5.526   1.941 -0.1165 -0.5015  0.2634
 3383TIP3    H210156   2.412   5.496   1.843  0.0887  0.5666  0.1536
 3384TIP3   OH210157   2.380   3.119   4.851 -0.5811 -0.1199 -0.5878
 3384TIP3    H110158   2.348   3.149   4.766 -1.9613  0.9906  0.2934
 3384TIP3    H210159   2.406   3.199   4.896 -2.4628 -0.3663  1.0637
 3385TIP3   OH210160   2.952   2.426   1.713  0.2300 -0.0907  0.2085
 3385TIP3    H110161   2.889   2.450   1.781 -0.8749 -1.4939 -0.2666
 3385TIP3    H210162   3.030   2.479   1.733 -0.9319  1.3987  1.0476
 3386TIP3   OH210163   5.307   1.256   3.000  0.5613 -0.0265  0.2353
 3386TIP3    H110164   5.379   1.315   2.982  0.5000  0.0581  0.2653
 3386TIP3    H210165   5.347   1.182   3.045  0.9053 -0.8017 -1.2861
 3387TIP3   OH210166   4.094   1.100   2.872  0.2351  0.9665  0.2686
 3387TIP3    H110167   4.009   1.145   2.872  1.0790  2.6933 -1.0383
 3387TIP3    H210168   4.155   1.164   2.908  1.2367  0.2816 -0.1641
 3388TIP3   OH210169   5.324   0.809   3.185 -0.2993  0.4261  0.3590
 3388TIP3    H110170   5.303   0.832   3.095  0.4862 -0.5704 -0.0949
 3388TIP3    H210171   5.346   0.716   3.182  2.3074  0.9239  1.0778
 3389TIP3   OH210172   2.802   0.177   0.680  0.4075  0.0885 -0.0864
 3389TIP3    H110173   2.751   0.099   0.701 -0.9486  1.5996  2.8063
 3389TIP3    H210174   2.870   0.179   0.747  1.3819  0.6164 -1.0612
 3390TIP3   OH210175   5.835   2.395   4.936 -0.6676  0.5946  0.3029
 3390TIP3    H110176   5.890   2.321   4.962 -2.4023 -0.1850  2.0876
 3390TIP3    H210177   5.895   2.457   4.895  1.1727 -0.9962  0.4453
 3391TIP3   OH210178   4.008   2.879   4.799 -0.1102  0.1930 -0.1465
 3391TIP3    H110179   4.071   2.951   4.797  1.6222 -1.2373  0.1620
 3391TIP3    H210180   3.942   2.902   4.734 -0.3992  2.6921  0.9194
 3392TIP3   OH210181   3.170   4.462   1.930  0.2356  0.1061  0.1927
 3392TIP3    H110182   3.234   4.420   1.986  2.0828  2.0498 -0.3251
 3392TIP3    H210183   3.132   4.391   1.879  2.7071 -1.0603 -0.1616
 3393TIP3   OH210184   0.081   3.859   4.848 -0.7504 -0.4622 -0.1961
 3393TIP3    H110185   0.105   3.766   4.856  2.1727  0.2055  0.0247
 3393TIP3    H210186   0.146   3.895   4.788 -0.3242  1.8890  1.5156
 3394TIP3   OH210187   3.212   2.394   1.136 -0.3204  0.2370  0.3364
 3394TIP3    H110188   3.291   2.446   1.130  0.3651 -0.5780  1.8884
 3394TIP3    H210189   3.192   2.370   1.045  0.1060  2.0285 -0.2568
 3395TIP3   OH210190   4.239   0.855   0.237  0.1602 -0.0398  0.4999
 3395TIP3    H110191   4.167   0.841   0.175  0.0654  1.0149  0.3514
 3395TIP3    H210192   4.255   0.949   0.233  1.5139 -0.2581  0.5890
 3396TIP3   OH210193   4.892   0.290   1.895 -0.2007 -0.1195 -0.5053
 3396TIP3    H110194   4.923   0.314   1.983 -0.3927 -1.7548  0.0577
 3396TIP3    H210195   4.895   0.371   1.845  2.4457  0.3632  0.2559
 3397TIP3   OH210196   6.194   1.553   3.741  0.4476 -0.3626  0.1339
 3397TIP3    H110197   6.146   1.492   3.797 -0.2003  0.3172  0.3476
 3397TIP3    H210198   6.285   1.546   3.770  0.2510 -0.6378  0.6965
 3398TIP3   OH210199   5.971   4.773   3.729  0.8459 -0.0794 -0.1152
 3398TIP3    H110200   6.003   4.863   3.718  2.3097 -0.5538 -0.0055
 3398TIP3    H210201   5.876   4.780   3.718  0.9188  1.4797 -0.0696
 3399TIP3   OH210202   5.856   5.346   0.276  0.0012 -0.1216  0.1627
 3399TIP3    H110203   5.805   5.422   0.304  0.1791 -0.0192  0.2142
 3399TIP3    H210204   5.796   5.295   0.221  0.0905  0.4122 -0.4461
 3400TIP3   OH210205   1.875   1.826   3.479  0.4337  0.7441 -0.1631
 3400TIP3    H110206   1.924   1.789   3.552  0.3423  1.4982  0.2936
 3400TIP3    H210207   1.788   1.785   3.485  0.8415 -0.2108 -0.6723
 3401TIP3   OH210208   6.375   5.976   1.434  0.1326 -0.2875 -0.2370
 3401TIP3    H110209   6.339   6.063   1.418 -0.9114 -0.7907 -0.7046
 3401TIP3    H210210   6.299   5.918   1.435  0.7398 -1.1051  0.7715
 3402TIP3   OH210211   3.832   5.019   3.636 -0.3234 -0.2940  0.0613
 3402TIP3    H110212   3.867   5.107   3.641 -0.3378 -0.1663 -1.5165
 3402TIP3    H210213   3.880   4.969   3.703  1.0482  0.4552 -0.3379
 3403TIP3   OH210214   0.047   5.765   3.216  0.2196 -0.4318 -0.3716
 3403TIP3    H110215   0.029   5.823   3.290  0.3052 -0.1491 -0.5730
 3403TIP3    H210216   0.032   5.819   3.139  1.8138 -0.2174 -0.5570
 3404TIP3   OH210217   6.005   5.493   4.823 -0.0615  0.1636  0.1259
 3404TIP3    H110218   6.028   5.432   4.753  0.3294 -0.0325  0.4195
 3404TIP3    H210219   5.998   5.578   4.780 -1.0012 -0.1481 -0.3595
 3405TIP3   OH210220   5.026   3.979   0.075  0.1747 -0.6270 -0.8652
 3405TIP3    H110221   5.070   3.991  -0.009 -0.6207  0.6903 -1.1222
 3405TIP3    H210222   4.959   4.047   0.077 -0.1035 -0.9058  0.6607
 3406TIP3   OH210223   0.243   4.973   4.375 -0.3959  0.3767 -0.0342
 3406TIP3    H110224   0.272   4.977   4.466 -0.6086  0.6316  0.0238
 3406TIP3    H210225   0.160   4.924   4.377 -1.2504  1.7776  0.1316
 3407TIP3   OH210226   2.466   3.227   4.330 -0.3331  0.2852  0.1214
 3407TIP3    H110227   2.436   3.144   4.368  0.3498  0.2540  0.6143
 3407TIP3    H210228   2.401   3.291   4.357 -0.8775 -0.0895 -0.2788
 3408TIP3   OH210229   5.253   0.433   4.132  0.1413  0.4427  0.0153
 3408TIP3    H110230   5.241   0.527   4.129 -0.6285  0.3248 -0.6818
 3408TIP3    H210231   5.171   0.399   4.168  0.5421  0.0552  0.5960
 3409TIP3   OH210232   2.780   1.053   1.168  0.0363  0.0486 -0.2629
 3409TIP3    H110233   2.775   1.140   1.207  1.2254 -0.3067  0.7243
 3409TIP3    H210234   2.691   1.019   1.174 -0.3613  1.0423 -0.3247
 3410TIP3   OH210235   4.861   0.765   0.182  0.0365  0.9404 -0.0491
 3410TIP3    H110236   4.813   0.846   0.166  1.3090  1.4663 -1.4970
 3410TIP3    H210237   4.857   0.718   0.099  0.2870  0.0432  0.4317
 3411TIP3   OH210238   3.665   4.066   3.942  0.1141  0.0820 -0.2522
 3411TIP3    H110239   3.719   4.121   3.999  0.9757 -0.3582 -0.6257
 3411TIP3    H210240   3.670   4.109   3.856 -1.3868  0.8892  0.0230
 3412TIP3   OH210241   2.426   5.552   4.356 -0.1381 -0.1638 -0.2985
 3412TIP3    H110242   2.430   5.643   4.326 -2.4153  0.2656  0.4735
 3412TIP3    H210243   2.332   5.531   4.353  0.3991 -2.8075 -1.3216
 3413TIP3   OH210244   2.386   4.865   3.755  0.5647 -0.5977  0.9335
 3413TIP3    H110245   2.430   4.814   3.686  0.0566  0.0207  0.1305
 3413TIP3    H210246   2.457   4.899   3.808  1.0119 -0.4722  0.2692
 3414TIP3   OH210247   5.659   4.646   4.615  0.4242 -1.0281  0.0800
 3414TIP3    H110248   5.601   4.712   4.653  1.0799  0.7618 -1.8149
 3414TIP3    H210249   5.619   4.562   4.639 -2.5255  0.0941 -0.4695
 3415TIP3   OH210250   5.093   1.642   3.995  0.4452 -0.2811 -0.6286
 3415TIP3    H110251   5.105   1.698   3.919 -0.6202  1.4160  0.3675
 3415TIP3    H210252   5.089   1.704   4.069 -1.3716 -1.6034  0.4562
 3416TIP3   OH210253   4.964   0.704   3.836 -0.4194  0.5157  0.1165
 3416TIP3    H110254   4.869   0.700   3.825 -0.5528  1.3320  0.9142
 3416TIP3    H210255   4.988   0.793   3.810  0.0025  0.6120  0.8234
 3417TIP3   OH210256   2.834   0.637   2.757 -0.2200 -0.0070 -0.3960
 3417TIP3    H110257   2.774   0.569   2.727  0.8389 -0.2459 -2.1256
 3417TIP3    H210258   2.832   0.703   2.687  0.0889  0.8956  0.4212
 3418TIP3   OH210259   4.760   1.603   1.661 -0.4759 -0.2934  0.6539
 3418TIP3    H110260   4.688   1.541   1.661 -0.1745 -0.8969 -2.9645
 3418TIP3    H210261   4.786   1.609   1.569 -0.6578  5.4132  0.6390
 3419TIP3   OH210262   1.753   2.431   4.164 -0.4001  0.2630 -0.3796
 3419TIP3    H110263   1.729   2.505   4.219  2.0063  1.6772 -1.0474
 3419TIP3    H210264   1.805   2.374   4.221  1.5907  1.4334 -0.9284
 3420TIP3   OH210265   5.099   2.042   1.151  0.0966  0.2263 -0.1774
 3420TIP3    H110266   5.124   1.996   1.072  0.3365 -2.2825  1.2597
 3420TIP3    H210267   5.179   2.086   1.181  1.4446 -2.8639  1.2043
 3421TIP3   OH210268   3.441   1.309   1.696  0.4681 -0.0512  0.3103
 3421TIP3    H110269   3.498   1.377   1.731  0.0666  0.1253  0.6355
 3421TIP3    H210270   3.383   1.286   1.769 -0.8853  0.8524 -0.4293
 3422TIP3   OH210271   5.272   3.168   2.295  0.2370 -0.0512  0.0565
 3422TIP3    H110272   5.183   3.188   2.267 -0.0121 -1.0902  0.0606
 3422TIP3    H210273   5.274   3.192   2.388 -0.1644 -0.3728  0.1537
 3423TIP3   OH210274   1.350   0.754   3.868 -0.6979  0.1819 -0.0954
 3423TIP3    H110275   1.292   0.701   3.812 -0.4802 -2.5567  2.0514
 3423TIP3    H210276   1.340   0.716   3.955  1.7973  1.8144  1.0073
 3424TIP3   OH210277   0.322   2.298   4.308 -0.3430 -0.0355  0.3170
 3424TIP3    H110278   0.401   2.289   4.361 -0.5797 -0.0020  0.6756
 3424TIP3    H210279   0.292   2.388   4.324 -0.2139  0.0981 -0.1575
 3425TIP3   OH210280   6.012   3.446   4.483  0.1795 -0.7299  0.0385
 3425TIP3    H110281   6.071   3.500   4.430  2.5526  0.5052  3.5866
 3425TIP3    H210282   5.950   3.508   4.521 -0.9610 -1.4643 -0.5673
 3426TIP3   OH210283   5.073   1.297   4.845  0.6282  0.3307  0.2109
 3426TIP3    H110284   5.155   1.249   4.852 -1.2181 -3.3361 -0.7300
 3426TIP3    H210285   5.043   1.280   4.755 -1.1929  1.5091  0.5487
 3427TIP3   OH210286   2.895   1.423   4.530  0.1573 -0.4420 -0.7057
 3427TIP3    H110287   2.807   1.426   4.492 -0.2875  1.3373  0.3511
 3427TIP3    H210288   2.951   1.461   4.463  0.2524 -2.0216 -1.5820
 3428TIP3   OH210289   4.324   0.397   4.832 -0.5669  0.2788  0.0196
 3428TIP3    H110290   4.241   0.418   4.876 -0.5575 -1.0942  0.7403
 3428TIP3    H210291   4.387   0.459   4.870 -0.7664 -0.2513  1.2742
 3429TIP3   OH210292   6.074   5.373   4.050 -0.0820  0.0820 -0.2900
 3429TIP3    H110293   6.122   5.390   3.969  0.3188 -0.3173 -0.1385
 3429TIP3    H210294   6.020   5.451   4.062  0.2779  0.3938 -0.6456
 3430TIP3   OH210295   1.483   0.454   1.001 -0.2161 -0.3242  0.0388
 3430TIP3    H110296   1.546   0.493   0.940 -1.5849  1.4280 -0.3193
 3430TIP3    H210297   1.431   0.394   0.946 -0.3027 -0.0868 -0.1384
 3431TIP3   OH210298   0.536   3.673   0.918  0.4701  0.6214 -0.6246
 3431TIP3    H110299   0.608   3.724   0.955 -0.0716 -0.5286  2.3377
 3431TIP3    H210300   0.457   3.709   0.958 -0.0628 -1.4414  0.3482
 3432TIP3   OH210301   3.654   4.712   3.751  0.2232  0.4295 -0.3575
 3432TIP3    H110302   3.612   4.796   3.768  0.6377  0.5485  0.0791
 3432TIP3    H210303   3.717   4.702   3.822  0.1154 -0.2906 -0.3585
 3433TIP3   OH210304   1.807   2.777   2.239 -0.1768  0.1661  0.2009
 3433TIP3    H110305   1.823   2.701   2.294 -2.1427 -0.0220  0.5865
 3433TIP3    H210306   1.829   2.748   2.151  1.5651 -0.0013  0.6530
 3434TIP3   OH210307   0.483   3.249   5.138 -0.0715  0.0415 -0.0218
 3434TIP3    H110308   0.539   3.196   5.194  0.6680 -0.3113 -1.0735
 3434TIP3    H210309   0.400   3.201   5.135 -0.8420  1.0647  2.3417
 3435TIP3   OH210310   4.094   1.986   1.842 -0.6748 -0.5805  0.1306
 3435TIP3    H110311   4.070   1.990   1.750 -1.9355 -2.3121  0.3476
 3435TIP3    H210312   4.046   2.059   1.882  1.0941  1.1891 -0.7509
 3436TIP3   OH210313   5.248   0.824   3.821  0.0720 -0.4404 -0.0853
 3436TIP3    H110314   5.244   0.849   3.913  4.4196 -1.0546  0.5223
 3436TIP3    H210315   5.306   0.747   3.820  0.5578 -0.1749 -3.3504
 3437TIP3   OH210316   4.839   5.385   0.590 -0.0397 -0.0890 -0.0944
 3437TIP3    H110317   4.912   5.440   0.618 -0.7798  0.2284  1.3014
 3437TIP3    H210318   4.881   5.304   0.558  0.9525  0.5014 -0.3375
 3438TIP3   OH210319   0.205   5.178   3.659  0.3086 -0.2960 -0.1715
 3438TIP3    H110320   0.245   5.163   3.745 -0.5316  0.6057  0.3913
 3438TIP3    H210321   0.140   5.108   3.650  1.0385 -0.9511 -0.4991
 3439TIP3   OH210322   3.095   5.845   1.726 -0.1152  0.1004 -0.2806
 3439TIP3    H110323   3.091   5.939   1.745  0.6040 -0.0143  0.5068
 3439TIP3    H210324   3.116   5.805   1.810  2.6468 -0.4925 -1.1719
 3440TIP3   OH210325   4.431   0.932   4.054 -0.2183 -0.8255 -0.6428
 3440TIP3    H110326   4.387   1.003   4.100  2.1257  0.9028 -0.8550
 3440TIP3    H210327   4.480   0.887   4.122  2.4046  1.0809 -1.0833
 3441TIP3   OH210328   5.168   4.312   4.685  0.1851 -0.0475  0.3130
 3441TIP3    H110329   5.074   4.312   4.665 -0.3911 -0.6632  2.7278
 3441TIP3    H210330   5.198   4.225   4.658 -0.2384 -0.3376  0.7675
 3442TIP3   OH210331   4.197   2.332   1.136 -0.0528 -0.1008  0.5123
 3442TIP3    H110332   4.292   2.346   1.129 -0.2929  0.9497 -1.6072
 3442TIP3    H210333   4.160   2.420   1.130 -1.1992 -0.6160 -0.2443
 3443TIP3   OH210334   0.191   2.986   2.830  0.1222 -0.3665  0.1039
 3443TIP3    H110335   0.229   2.976   2.918 -0.2297 -1.6024  0.1389
 3443TIP3    H210336   0.120   2.922   2.828 -2.3643  2.2213  0.2288
 3444TIP3   OH210337   2.352   0.030   3.756 -0.4392 -0.4039  0.3376
 3444TIP3    H110338   2.359   0.058   3.665 -1.0586 -2.6031 -0.4389
 3444TIP3    H210339   2.442   0.032   3.789 -0.2692  0.8477 -0.1500
 3445TIP3   OH210340   3.392   2.394   2.137  0.1111  0.4088  0.4394
 3445TIP3    H110341   3.363   2.485   2.128 -0.1825  0.1421 -1.6815
 3445TIP3    H210342   3.482   2.394   2.105  1.2720  0.4865  3.3948
 3446TIP3   OH210343   5.146   0.815   1.155 -0.4049 -0.2140 -0.5321
 3446TIP3    H110344   5.125   0.901   1.191  1.3739  0.0451 -0.0158
 3446TIP3    H210345   5.229   0.828   1.109 -0.4848 -1.5014 -1.0962
 3447TIP3   OH210346   4.446   4.770   4.416  0.3034 -0.0035  0.5747
 3447TIP3    H110347   4.486   4.687   4.444 -0.4182 -0.5764 -0.0463
 3447TIP3    H210348   4.417   4.811   4.498  1.5925  0.1308  0.9753
 3448TIP3   OH210349   1.662   5.453   2.932 -0.4400 -0.0873 -0.5109
 3448TIP3    H110350   1.592   5.395   2.903  0.1545 -0.9523 -0.2559
 3448TIP3    H210351   1.617   5.525   2.977 -1.1488 -0.7171 -0.1963
 3449TIP3   OH210352   6.094   0.874   0.976  0.5318  0.4044 -0.4568
 3449TIP3    H110353   6.041   0.808   1.019  0.2774  1.6977  1.3357
 3449TIP3    H210354   6.034   0.916   0.913  0.6352 -0.8635 -1.4315
 3450TIP3   OH210355   0.245   3.021   1.696 -0.1457  0.2718  0.1732
 3450TIP3    H110356   0.158   2.989   1.722  0.0711  0.2935  0.9528
 3450TIP3    H210357   0.256   3.103   1.744  1.2418 -0.8779  1.9385
 3451TIP3   OH210358   4.455   3.791   4.664  0.0698 -0.1742 -0.5267
 3451TIP3    H110359   4.447   3.708   4.711 -0.9723 -0.2403 -0.7826
 3451TIP3    H210360   4.544   3.821   4.682  0.4019 -1.2556 -0.2850
 3452TIP3   OH210361   3.038   3.838   2.912 -0.3989  0.0138  0.0949
 3452TIP3    H110362   3.029   3.775   2.983 -0.3723 -0.5308 -0.3780
 3452TIP3    H210363   3.115   3.890   2.934  1.1057 -1.7589 -0.7459
 3453TIP3   OH210364   0.084   2.638   1.773 -0.7156 -0.0330 -0.6378
 3453TIP3    H110365   0.055   2.655   1.683  2.0384  0.4040 -1.5203
 3453TIP3    H210366   0.031   2.696   1.827 -0.8299  1.3975 -2.2190
 3454TIP3   OH210367   1.198   5.448   1.839  0.5429  0.0943  0.3799
 3454TIP3    H110368   1.278   5.419   1.882  0.5386 -0.2551  0.1524
 3454TIP3    H210369   1.133   5.449   1.910  0.9913  1.4564  0.8096
 3455TIP3   OH210370   5.044   2.209   3.395 -0.0551 -0.0732  0.0432
 3455TIP3    H110371   4.995   2.288   3.373 -0.2623 -0.8252 -2.5917
 3455TIP3    H210372   5.094   2.233   3.474 -1.9298  1.8430  0.7496
 3456TIP3   OH210373   1.160   4.935   0.857  0.5772  1.0653  0.2700
 3456TIP3    H110374   1.123   4.847   0.859  1.7106  0.5837  1.9320
 3456TIP3    H210375   1.092   4.989   0.818 -1.0359 -0.1553  1.2775
 3457TIP3   OH210376   0.121   0.751   5.052 -0.1455 -0.5512  0.4772
 3457TIP3    H110377   0.081   0.674   5.093  2.4177 -2.2381  0.0102
 3457TIP3    H210378   0.141   0.723   4.963 -0.5277  1.2104 -0.2005
 3458TIP3   OH210379   3.277   1.974   1.499  0.1025  0.0430 -0.1708
 3458TIP3    H110380   3.276   2.068   1.483 -0.4687  0.0986  0.1585
 3458TIP3    H210381   3.293   1.936   1.412  1.5025  0.4644 -0.1112
 3459TIP3   OH210382   2.619   5.698   3.688 -0.3035  0.0345  0.7900
 3459TIP3    H110383   2.582   5.768   3.742 -1.9861 -0.1098 -0.1159
 3459TIP3    H210384   2.585   5.617   3.728 -1.3178 -0.0845 -0.2587
 3460TIP3   OH210385   3.835   5.116   2.675  0.0275  0.3523 -0.0370
 3460TIP3    H110386   3.869   5.029   2.654 -0.7186 -0.1335  0.7072
 3460TIP3    H210387   3.910   5.163   2.712 -0.2183 -0.9152  2.2111
 3461TIP3   OH210388   1.702   5.772   5.068 -0.0871  0.2733 -0.0819
 3461TIP3    H110389   1.753   5.853   5.069 -2.8314  2.1422 -0.5350
 3461TIP3    H210390   1.734   5.725   4.991  0.7076  1.5405 -0.5729
 3462TIP3   OH210391   2.364   0.873   3.152 -0.9987  0.1222  0.4940
 3462TIP3    H110392   2.380   0.780   3.168  1.9221  0.4771  0.1954
 3462TIP3    H210393   2.349   0.879   3.058  2.0703  0.1833 -0.1134
 3463TIP3   OH210394   0.255   2.965   4.427  0.1139  0.2283 -0.2095
 3463TIP3    H110395   0.218   2.912   4.497 -0.5196 -0.5205 -1.0895
 3463TIP3    H210396   0.191   2.959   4.356  1.0258  0.4571 -1.0728
 3464TIP3   OH210397   4.336   1.702   3.305  0.2195  0.4702 -0.0316
 3464TIP3    H110398   4.295   1.671   3.386 -0.2932 -0.0292 -0.4760
 3464TIP3    H210399   4.263   1.730   3.250  0.3657 -1.2809 -1.1910
 3465TIP3   OH210400   5.964   1.242   3.450 -0.1984 -0.5517  0.1834
 3465TIP3    H110401   6.005   1.189   3.518  0.1811 -0.4454  0.0431
 3465TIP3    H210402   5.932   1.177   3.386  0.4439 -0.6117 -0.0879
 3466TIP3   OH210403   0.555   2.408   0.909  0.8933 -0.5799  0.0642
 3466TIP3    H110404   0.549   2.481   0.970 -0.5633 -1.6129  1.2192
 3466TIP3    H210405   0.544   2.448   0.823  2.9234  0.8882  0.4144
 3467TIP3   OH210406   0.941   1.843   3.999 -0.3398  0.0791 -0.2202
 3467TIP3    H110407   1.020   1.868   4.047 -1.1410  2.9826 -0.2271
 3467TIP3    H210408   0.942   1.747   4.000  1.8681  0.0148  1.8907
 3468TIP3   OH210409   1.780   2.328   1.953  0.1778 -0.3858 -0.4461
 3468TIP3    H110410   1.744   2.242   1.971  0.2038 -0.0782  1.2214
 3468TIP3    H210411   1.713   2.389   1.983  0.2476  0.1907 -1.4183
 3469TIP3   OH210412   6.199   3.457   4.716 -0.1264  0.3433 -0.0467
 3469TIP3    H110413   6.235   3.452   4.627 -0.1818 -1.2265 -0.0246
 3469TIP3    H210414   6.265   3.505   4.766 -0.0013  1.0695 -0.8835
 3470TIP3   OH210415   3.558   3.802   3.958  0.5558  0.5002  0.8001
 3470TIP3    H110416   3.476   3.818   3.910 -0.5030 -2.4046  1.4394
 3470TIP3    H210417   3.618   3.868   3.924 -0.8328  0.1933 -2.7456
 3471TIP3   OH210418   2.298   2.045   2.284  0.1660  0.2567  0.0241
 3471TIP3    H110419   2.247   2.014   2.359 -1.6662  1.7491 -0.5399
 3471TIP3    H210420   2.296   1.973   2.222 -1.2711  0.2697  0.0304
 3472TIP3   OH210421   5.524   1.714   2.121  0.2325  0.4661 -0.3501
 3472TIP3    H110422   5.519   1.618   2.115  2.9249  0.3062 -1.4012
 3472TIP3    H210423   5.602   1.730   2.174 -0.0078  2.0692 -0.4566
 3473TIP3   OH210424   2.777   5.011   4.737  0.1455  0.1861 -0.3567
 3473TIP3    H110425   2.865   5.023   4.700  0.9229 -1.0758  0.9326
 3473TIP3    H210426   2.745   5.100   4.751  0.4276  0.6889 -2.5456
 3474TIP3   OH210427   0.179   4.274   3.698  0.1972  0.4827  0.4596
 3474TIP3    H110428   0.169   4.364   3.669  0.9296  0.0588 -1.2090
 3474TIP3    H210429   0.262   4.246   3.661 -0.4072 -1.1337  0.2554
 3475TIP3   OH210430   5.497   4.113   4.116 -0.4637  0.5266 -0.3912
 3475TIP3    H110431   5.495   4.201   4.079 -1.6208  0.8362  0.3573
 3475TIP3    H210432   5.459   4.123   4.203  0.6826 -0.4686  0.2543
 3476TIP3   OH210433   3.900   3.998   0.807  0.1153  0.8178 -0.5091
 3476TIP3    H110434   3.907   3.938   0.881  1.8365 -1.9102 -2.6617
 3476TIP3    H210435   3.806   4.014   0.797 -0.1366  1.7315  2.4736
 3477TIP3   OH210436   3.014   2.475   2.093  0.3583  0.5124  0.1336
 3477TIP3    H110437   3.071   2.549   2.072  0.2358  0.3324 -0.8751
 3477TIP3    H210438   3.039   2.450   2.182  1.1568  1.0674  0.0746
 3478TIP3   OH210439   0.463   2.160   1.000  0.5079  0.2112  0.7365
 3478TIP3    H110440   0.469   2.255   1.002  0.7077  0.2107  0.1682
 3478TIP3    H210441   0.387   2.140   1.055  0.3110  0.7098  0.6490
 3479TIP3   OH210442   2.747   0.268   2.937  0.4047  0.5825  0.1497
 3479TIP3    H110443   2.806   0.211   2.886  1.7364  1.5340  0.5519
 3479TIP3    H210444   2.729   0.219   3.016  1.5556  0.6860  0.5006
 3480TIP3   OH210445   5.903   5.886   1.415 -0.2123  0.4068 -0.4790
 3480TIP3    H110446   5.839   5.928   1.357 -2.0817 -0.0761  1.1308
 3480TIP3    H210447   5.886   5.925   1.501  0.6946 -0.7867  0.2706
 3481TIP3   OH210448   3.085   5.938   2.176 -0.1017 -0.3461  0.3808
 3481TIP3    H110449   3.019   5.965   2.112 -1.0614  0.2739  1.6058
 3481TIP3    H210450   3.166   5.935   2.126 -0.9354 -0.5280 -1.0183
 3482TIP3   OH210451   2.129   0.726   5.062 -0.5987 -0.0745 -0.3970
 3482TIP3    H110452   2.038   0.739   5.089 -0.8224 -0.9985 -0.6619
 3482TIP3    H210453   2.141   0.631   5.064  0.6813  0.0888  0.6416
 3483TIP3   OH210454   1.885   0.931   3.172  0.1018 -0.5423 -0.0410
 3483TIP3    H110455   1.924   1.018   3.158 -2.2992  0.1488 -3.9197
 3483TIP3    H210456   1.822   0.945   3.243  1.0059  0.3894  0.6159
 3484TIP3   OH210457   6.040   2.193   2.880  0.0606  0.0042 -0.0317
 3484TIP3    H110458   6.019   2.243   2.959  0.4197 -0.1618  0.1696
 3484TIP3    H210459   5.955   2.163   2.848 -0.4486  2.7888 -1.5473
 3485TIP3   OH210460   4.144   0.969   0.697  0.0032  0.0713  0.2408
 3485TIP3    H110461   4.203   0.997   0.628 -0.0646 -1.2013 -0.3560
 3485TIP3    H210462   4.079   0.914   0.653 -1.9877  1.8541  0.7589
 3486TIP3   OH210463   5.102   5.955   5.098  0.5167  0.3242  0.6388
 3486TIP3    H110464   5.029   5.894   5.091 -1.6547  2.8812 -1.1021
 3486TIP3    H210465   5.178   5.906   5.066 -0.1995 -2.6152  3.0623
 3487TIP3   OH210466   0.002   2.881   3.370 -0.2572  0.2357  0.0752
 3487TIP3    H110467   0.073   2.894   3.306  0.3828  0.2683  0.7851
 3487TIP3    H210468   0.007   2.957   3.427  0.0223 -0.4235  0.9542
 3488TIP3   OH210469   4.299   0.418   1.319 -0.5868 -0.0288  0.0083
 3488TIP3    H110470   4.294   0.422   1.415  0.4191 -1.4472  0.1458
 3488TIP3    H210471   4.373   0.474   1.297  1.2429 -2.1807  0.3652
 3489TIP3   OH210472   2.914   3.958   1.967  0.0236  0.3510 -0.6774
 3489TIP3    H110473   2.993   4.009   1.982  0.2777 -0.3834  0.7556
 3489TIP3    H210474   2.866   3.965   2.050 -1.7716  1.3528 -1.7520
 3490TIP3   OH210475   1.996   0.538   2.800 -0.5990  0.2430  0.3032
 3490TIP3    H110476   2.019   0.554   2.709  0.5491 -2.4849  0.0084
 3490TIP3    H210477   1.913   0.584   2.813 -0.5809  1.0155 -1.9752
 3491TIP3   OH210478   3.563   1.414   3.859 -0.3341  0.2557 -0.2034
 3491TIP3    H110479   3.504   1.371   3.798  1.7005  0.9686 -2.8666
 3491TIP3    H210480   3.508   1.478   3.904 -2.2393 -1.3783 -0.0464
 3492TIP3   OH210481   1.310   1.383   1.525  0.1700  0.1628  0.1626
 3492TIP3    H110482   1.398   1.387   1.488 -0.1509  1.0868 -0.5432
 3492TIP3    H210483   1.254   1.419   1.457 -1.1474 -2.7888 -0.4640
 3493TIP3   OH210484   3.094   1.231   1.186 -0.0718  0.2494 -0.2854
 3493TIP3    H110485   3.065   1.149   1.227  0.3627  0.6393  0.8443
 3493TIP3    H210486   3.027   1.295   1.209  0.5183  0.6305  0.4204
 3494TIP3   OH210487   4.356   2.772   3.354  0.3610 -0.6001 -0.1274
 3494TIP3    H110488   4.392   2.703   3.298  0.4309 -0.7463  0.0972
 3494TIP3    H210489   4.292   2.817   3.299  1.0964 -0.1435 -0.6330
 3495TIP3   OH210490   2.877   0.686   0.438  0.1665 -0.2090  0.1114
 3495TIP3    H110491   2.969   0.677   0.410 -0.7054 -0.4932 -3.0370
 3495TIP3    H210492   2.840   0.599   0.424 -0.4208 -0.3428  2.2444
 3496TIP3   OH210493   0.463   2.196   2.672  0.5474 -0.2497 -0.0167
 3496TIP3    H110494   0.370   2.212   2.656 -0.1685 -2.7058  1.1402
 3496TIP3    H210495   0.467   2.173   2.765  1.8038 -2.9736 -0.6310
 3497TIP3   OH210496   6.039   5.348   0.081 -0.6232 -0.4889  0.0865
 3497TIP3    H110497   5.999   5.325   0.164  0.6212 -0.1470  0.8018
 3497TIP3    H210498   6.059   5.442   0.089  0.8875 -0.7783  0.0142
 3498TIP3   OH210499   3.110   5.416   0.997 -0.1259  0.5660 -0.1118
 3498TIP3    H110500   3.048   5.435   0.927 -0.5727 -1.8045 -0.4263
 3498TIP3    H210501   3.178   5.363   0.956  0.4884  0.5208  0.9176
 3499TIP3   OH210502   4.228   5.059   3.397 -0.8785 -0.1174 -0.2167
 3499TIP3    H110503   4.159   5.118   3.425 -0.6427  0.5838 -1.0458
 3499TIP3    H210504   4.262   5.020   3.477 -2.7799 -1.1101  0.1377
 3500TIP3   OH210505   5.246   5.389   2.722 -0.8197  0.1223 -0.6279
 3500TIP3    H110506   5.301   5.328   2.673 -1.4648 -2.8100  1.9561
 3500TIP3    H210507   5.307   5.453   2.757  0.9082 -2.2740  1.0779
 3501TIP3   OH210508   2.764   3.570   2.671  0.6084  0.6223  0.1377
 3501TIP3    H110509   2.858   3.586   2.676  0.7460  0.2145 -0.8658
 3501TIP3    H210510   2.755   3.475   2.673  0.2114  0.6603  0.3428
 3502TIP3   OH210511   4.662   4.305   4.364 -0.1499  0.0856 -0.4627
 3502TIP3    H110512   4.681   4.218   4.397 -0.7107  0.2870  0.4318
 3502TIP3    H210513   4.581   4.295   4.313 -0.1395  0.0606 -0.4745
 3503TIP3   OH210514   1.426   5.095   0.060  0.5072  0.5059  0.3100
 3503TIP3    H110515   1.378   5.024   0.102 -0.4999  0.4578 -0.8848
 3503TIP3    H210516   1.358   5.149   0.019  1.4343  0.7274 -0.9815
 3504TIP3   OH210517   0.255   0.975   5.077  0.5658 -0.3461  0.4728
 3504TIP3    H110518   0.191   0.905   5.063 -0.5912  0.9580 -1.2037
 3504TIP3    H210519   0.340   0.934   5.065 -0.0909 -1.4681 -0.4691
 3505TIP3   OH210520   0.214   2.581   0.785 -0.2802 -1.0878  0.0432
 3505TIP3    H110521   0.196   2.654   0.725 -0.2193 -1.3713 -0.3222
 3505TIP3    H210522   0.184   2.613   0.870 -2.2178 -1.3899 -0.4631
 3506TIP3   OH210523   3.914   2.411   2.025  0.4913  0.4591 -0.4021
 3506TIP3    H110524   3.960   2.478   1.974 -1.2251  1.6028 -0.5412
 3506TIP3    H210525   3.977   2.385   2.092  0.8325  3.1894  0.4806
 3507TIP3   OH210526   0.749   5.714   1.228 -0.2858 -0.0065 -0.2576
 3507TIP3    H110527   0.719   5.707   1.319 -1.6658 -0.1775 -0.7127
 3507TIP3    H210528   0.803   5.635   1.215  1.6391  1.0225  0.9933
 3508TIP3   OH210529   3.272   4.946   2.316 -0.4377  0.0548  0.0196
 3508TIP3    H110530   3.248   4.988   2.233 -0.9359  0.3059  0.2866
 3508TIP3    H210531   3.189   4.935   2.362 -0.1823 -0.2479  0.4087
 3509TIP3   OH210532   6.196   4.856   4.413 -0.3279 -0.1366 -0.8552
 3509TIP3    H110533   6.248   4.931   4.382  0.8931 -1.2419 -1.5976
 3509TIP3    H210534   6.139   4.835   4.339 -0.5833 -0.0118 -0.6923
 3510TIP3   OH210535   0.334   3.529   1.570  0.3431 -0.1670  0.0997
 3510TIP3    H110536   0.315   3.461   1.634 -0.5114  0.4923  0.5608
 3510TIP3    H210537   0.418   3.565   1.598  0.2858 -0.3158  0.4643
 3511TIP3   OH210538   5.144   2.415   1.036 -0.7221  0.2043 -0.2500
 3511TIP3    H110539   5.189   2.344   1.081 -0.1187  0.4327 -0.4852
 3511TIP3    H210540   5.092   2.457   1.104 -3.0452 -1.9328 -0.5232
 3512TIP3   OH210541   3.948   4.220   4.231  0.0661 -0.4753  0.5340
 3512TIP3    H110542   3.862   4.246   4.199 -0.2327 -1.5419  0.4426
 3512TIP3    H210543   4.010   4.279   4.187 -0.5857  0.0880  0.3653
 3513TIP3   OH210544   5.956   5.797   2.559  0.5858  0.3924 -0.6287
 3513TIP3    H110545   5.911   5.714   2.571 -0.1908  1.0362  1.5079
 3513TIP3    H210546   5.998   5.814   2.644  0.5744  2.2310 -0.9491
 3514TIP3   OH210547   4.162   2.417   1.835 -0.4062  0.3580 -0.1074
 3514TIP3    H110548   4.187   2.344   1.892 -1.0992 -0.4576 -0.8302
 3514TIP3    H210549   4.093   2.382   1.780 -2.8993  2.3769  1.4805
 3515TIP3   OH210550   5.465   1.631   1.097 -0.1704  0.0190 -0.2072
 3515TIP3    H110551   5.494   1.560   1.154  1.6001  0.2734 -0.7462
 3515TIP3    H210552   5.497   1.607   1.011  1.1008  1.8026 -0.2704
 3516TIP3   OH210553   5.987   5.329   0.511  0.5376  0.0300  0.2492
 3516TIP3    H110554   6.072   5.356   0.476  1.1458 -0.7653  1.0741
 3516TIP3    H210555   5.933   5.314   0.434  2.0419 -2.3211 -0.4602
 3517TIP3   OH210556   5.848   1.641   0.483 -0.4357  0.4608 -0.0190
 3517TIP3    H110557   5.817   1.702   0.417 -0.9285  0.2857  0.0472
 3517TIP3    H210558   5.924   1.598   0.443  0.5097  1.7761  0.2862
 3518TIP3   OH210559   2.990   2.994   2.968  0.8934 -0.0788  0.1857
 3518TIP3    H110560   3.054   3.065   2.969  1.4717 -0.5950  1.3870
 3518TIP3    H210561   2.987   2.963   3.058  0.9780 -1.8764 -0.4018
 3519TIP3   OH210562   0.790   3.454   2.117 -0.1497  0.2865 -0.2815
 3519TIP3    H110563   0.866   3.402   2.145 -0.1895  0.0951 -0.5302
 3519TIP3    H210564   0.715   3.396   2.129 -0.5465  1.1611  1.9975
 3520TIP3   OH210565   6.021   5.006   3.626  0.2174  0.0284  0.0867
 3520TIP3    H110566   5.989   5.092   3.652 -0.8029 -0.2377 -0.2385
 3520TIP3    H210567   6.094   5.024   3.567 -0.7564  0.7051 -0.9610
 3521TIP3   OH210568   3.066   3.229   1.442  0.2263 -0.0684  0.1686
 3521TIP3    H110569   3.083   3.318   1.412 -0.4401 -0.2447 -0.7943
 3521TIP3    H210570   3.092   3.173   1.368  1.0714 -0.7138  0.9299
 3522TIP3   OH210571   2.762   1.645   0.718  0.5672 -0.2267  0.2754
 3522TIP3    H110572   2.815   1.566   0.726 -3.1450 -3.2411 -1.8386
 3522TIP3    H210573   2.712   1.650   0.799 -1.7927 -2.3722 -0.9019
 3523TIP3   OH210574   1.712   1.133   4.321 -0.5199 -0.2570 -0.3587
 3523TIP3    H110575   1.670   1.214   4.347 -0.4976 -0.3420 -0.0571
 3523TIP3    H210576   1.666   1.065   4.370 -1.3799 -0.5669 -1.5470
 3524TIP3   OH210577   3.772   1.341   3.389 -0.1998 -0.1605  0.5341
 3524TIP3    H110578   3.756   1.349   3.295 -2.0134 -0.8615  0.7284
 3524TIP3    H210579   3.865   1.321   3.396  0.1879  0.8775 -1.0316
 3525TIP3   OH210580   2.154   0.667   3.684  0.6376 -0.0246 -0.0637
 3525TIP3    H110581   2.196   0.725   3.747  0.8782  1.0099 -1.1287
 3525TIP3    H210582   2.142   0.722   3.606  0.1134 -1.1815 -0.8235
 3526TIP3   OH210583   4.747   2.358   0.647  0.2593 -0.2303  0.3100
 3526TIP3    H110584   4.708   2.278   0.611 -0.1517 -0.1957  0.6687
 3526TIP3    H210585   4.837   2.333   0.668 -0.0794 -0.8289  1.1341
 3527TIP3   OH210586   1.479   0.302   0.372 -0.2718 -0.2585 -0.4470
 3527TIP3    H110587   1.397   0.317   0.325  0.6675  0.1350 -2.0376
 3527TIP3    H210588   1.530   0.382   0.358  0.2592 -0.3477  0.8235
 3528TIP3   OH210589   6.226   2.635   2.443 -0.1079  0.1749 -0.4301
 3528TIP3    H110590   6.173   2.560   2.470 -0.0021  0.1674 -0.2469
 3528TIP3    H210591   6.255   2.676   2.525  1.0323 -0.4181 -0.5149
 3529TIP3   OH210592   3.397   0.710   1.138  0.3859  0.4442 -0.4419
 3529TIP3    H110593   3.421   0.627   1.095 -1.2843  1.6348 -4.0932
 3529TIP3    H210594   3.331   0.685   1.202  1.1808 -1.2131 -0.2049
 3530TIP3   OH210595   2.382   0.925   0.852  0.0327  0.9058 -0.1660
 3530TIP3    H110596   2.424   0.840   0.836  1.7014  1.4991  0.7563
 3530TIP3    H210597   2.317   0.933   0.782  1.2779 -0.2110 -1.5392
 3531TIP3   OH210598   4.670   3.000   5.000 -0.0170  0.0204 -0.0458
 3531TIP3    H110599   4.607   2.929   5.013 -0.5772  0.2278 -1.4411
 3531TIP3    H210600   4.749   2.956   4.969 -0.7483  0.0564 -2.1008
 3532TIP3   OH210601   3.735   0.860   1.071  0.7978  0.0803  0.1175
 3532TIP3    H110602   3.641   0.857   1.058  0.7326  0.5732  0.4236
 3532TIP3    H210603   3.768   0.912   0.997  0.6712  1.0307  0.7034
 3533TIP3   OH210604   5.488   4.657   1.922  0.6592 -0.2891  0.1733
 3533TIP3    H110605   5.474   4.644   1.829  3.3743  0.7606 -0.4791
 3533TIP3    H210606   5.556   4.595   1.945 -0.0452 -0.6094  1.5168
 3534TIP3   OH210607   0.253   1.453   4.071  0.1527 -0.5944  0.1131
 3534TIP3    H110608   0.236   1.544   4.094 -0.1969 -0.9565  1.3944
 3534TIP3    H210609   0.347   1.441   4.086  0.2388 -0.3856 -0.2680
 3535TIP3   OH210610   1.737   3.435   1.176  0.0385  0.3164 -0.6461
 3535TIP3    H110611   1.826   3.465   1.193  1.0715 -2.2655 -0.9429
 3535TIP3    H210612   1.700   3.420   1.263  0.2904  0.3910 -0.5242
 3536TIP3   OH210613   3.069   1.016   3.850 -0.4013  0.1383  0.2110
 3536TIP3    H110614   3.004   0.999   3.782 -0.7790 -0.2889  0.6636
 3536TIP3    H210615   3.054   1.107   3.875  0.2761  0.5491 -0.8258
 3537TIP3   OH210616   3.997   0.541   4.692 -0.3222 -0.1883  0.1419
 3537TIP3    H110617   3.942   0.576   4.762 -0.5390 -0.4496  0.1068
 3537TIP3    H210618   4.001   0.447   4.710 -0.4249 -0.2662 -0.2229
 3538TIP3   OH210619   0.967   4.746   0.696 -0.0381 -0.0810  0.2239
 3538TIP3    H110620   0.920   4.662   0.695  0.9029 -0.6310 -1.5044
 3538TIP3    H210621   0.915   4.803   0.640  0.4238 -0.1583 -0.2862
 3539TIP3   OH210622   5.200   3.497   2.901 -0.4779 -0.0293 -0.6205
 3539TIP3    H110623   5.223   3.590   2.896  0.5792 -0.2781 -0.6871
 3539TIP3    H210624   5.233   3.469   2.987  1.2913 -0.8537 -1.5240
 3540TIP3   OH210625   3.064   5.327   5.172 -1.0947 -0.1692  0.2664
 3540TIP3    H110626   3.087   5.385   5.244  1.5437 -0.1677 -0.4545
 3540TIP3    H210627   3.037   5.385   5.101 -0.4861  0.0568  0.2164
 3541TIP3   OH210628   3.808   5.449   0.093 -0.3999 -0.0681  0.2161
 3541TIP3    H110629   3.806   5.380   0.159 -0.6684  0.6662  1.0070
 3541TIP3    H210630   3.881   5.427   0.036 -0.3092 -0.8454  0.6195
 3542TIP3   OH210631   2.136   0.124   1.737  0.0146 -0.2643  0.6982
 3542TIP3    H110632   2.217   0.168   1.710  0.0525 -1.8058 -2.1189
 3542TIP3    H210633   2.066   0.175   1.696 -0.1391 -1.0129 -0.0073
 3543TIP3   OH210634   3.251   1.225   2.306  0.1053 -0.2760  0.1830
 3543TIP3    H110635   3.256   1.144   2.257 -0.6985 -0.2379  0.0100
 3543TIP3    H210636   3.167   1.220   2.352 -0.4537  0.8921 -0.6499
 3544TIP3   OH210637   6.070   1.351   2.991  0.1166 -0.2441 -0.3708
 3544TIP3    H110638   6.161   1.373   2.968  0.1088  0.2542  0.0423
 3544TIP3    H210639   6.066   1.256   2.985  0.8158 -0.3140  0.1120
 3545TIP3   OH210640   6.261   3.197   0.402  0.2753  0.3481 -0.6127
 3545TIP3    H110641   6.249   3.138   0.329 -1.9545 -2.9975  2.1411
 3545TIP3    H210642   6.173   3.228   0.423  0.2300 -1.4212  2.4676
 3546TIP3   OH210643   2.191   0.351   3.362  0.0776 -0.3848 -0.6407
 3546TIP3    H110644   2.121   0.353   3.297  0.4329  0.3581 -1.0251
 3546TIP3    H210645   2.262   0.402   3.322  1.2456 -1.9638 -0.7132
 3547TIP3   OH210646   0.532   4.171   1.326 -0.4596 -0.4306  0.1893
 3547TIP3    H110647   0.515   4.179   1.420 -1.3461  1.8233 -0.1062
 3547TIP3    H210648   0.480   4.241   1.286  1.7478  0.2327 -1.7667
 3548TIP3   OH210649   4.987   0.579   1.067 -0.2521 -0.7148 -0.1651
 3548TIP3    H110650   4.903   0.537   1.086 -0.5906 -0.8417 -1.8194
 3548TIP3    H210651   4.963   0.669   1.042  0.1414 -0.6337 -0.2492
 3549TIP3   OH210652   5.943   1.601   3.950  0.3234 -0.3480 -0.3449
 3549TIP3    H110653   5.976   1.642   3.870  1.8543 -0.4124  0.2254
 3549TIP3    H210654   5.955   1.668   4.018  0.1390 -0.7118  0.0483
 3550TIP3   OH210655   0.045   5.561   3.781 -0.5118 -0.2719  0.0423
 3550TIP3    H110656   0.110   5.577   3.713  1.9216 -2.0399  1.7903
 3550TIP3    H210657  -0.006   5.487   3.748  1.0898 -1.5624  0.3262
 3551TIP3   OH210658   6.016   2.634   1.839  0.7720 -0.3648 -0.3744
 3551TIP3    H110659   5.971   2.565   1.789  2.6401 -0.6632 -1.7777
 3551TIP3    H210660   5.999   2.612   1.931 -2.0266 -0.3331 -0.8053
 3552TIP3   OH210661   2.773   5.870   2.723 -0.6559  0.1292  0.0000
 3552TIP3    H110662   2.813   5.899   2.805  1.8543 -0.1006 -1.0496
 3552TIP3    H210663   2.736   5.950   2.684  0.6727  0.7969  0.0477
 3553TIP3   OH210664   0.989   1.576   3.972  0.1674  0.3397  0.4222
 3553TIP3    H110665   1.030   1.497   3.938  1.8089  0.7574  1.3307
 3553TIP3    H210666   0.934   1.545   4.044 -1.0058 -0.1860 -0.6318
 3554TIP3   OH210667   5.170   2.410   2.998 -0.2385 -0.2403  0.1263
 3554TIP3    H110668   5.211   2.359   3.069 -0.8631 -2.1115 -0.7793
 3554TIP3    H210669   5.085   2.369   2.986 -0.7741  1.0617 -0.6732
 3555TIP3   OH210670   5.728   3.984   3.383  0.3083 -0.4339  0.1687
 3555TIP3    H110671   5.785   3.960   3.310  0.9629 -0.8303  0.7955
 3555TIP3    H210672   5.767   4.064   3.418  0.3871 -0.6138  0.4976
 3556TIP3   OH210673   4.696   4.050   3.021  0.9161 -0.2419  0.0611
 3556TIP3    H110674   4.786   4.079   3.033  0.6408  1.0002 -0.6159
 3556TIP3    H210675   4.655   4.121   2.972 -0.1994 -1.1928 -0.4315
 3557TIP3   OH210676   4.099   1.977   0.441  0.1591  0.0940 -0.2285
 3557TIP3    H110677   4.166   2.045   0.446  0.4190 -0.0205 -1.6888
 3557TIP3    H210678   4.149   1.895   0.433 -0.1554 -0.0942 -0.2765
 3558TIP3   OH210679   1.211   5.690   3.836 -0.0489  0.0051 -0.3417
 3558TIP3    H110680   1.257   5.609   3.856 -1.9412 -1.3078 -1.0655
 3558TIP3    H210681   1.243   5.715   3.749  0.2512 -0.1731 -0.2850
 3559TIP3   OH210682   1.770   5.848   3.987 -0.6657 -0.4588  0.4668
 3559TIP3    H110683   1.695   5.883   4.035  0.2757  1.3268  0.7107
 3559TIP3    H210684   1.749   5.864   3.894 -1.5904 -2.0960  0.3575
 3560TIP3   OH210685   3.430   1.620   3.966 -0.2910  0.1198 -0.4964
 3560TIP3    H110686   3.393   1.654   3.885 -1.6657  0.2645  0.1618
 3560TIP3    H210687   3.471   1.697   4.007 -0.8602  0.3748 -0.3854
 3561TIP3   OH210688   6.090   0.770   3.367 -0.9628  0.3340  0.4534
 3561TIP3    H110689   6.156   0.748   3.432 -0.7743  1.2622  0.5848
 3561TIP3    H210690   6.082   0.865   3.371  0.4771  0.6781 -2.2393
 3562TIP3   OH210691   6.333   3.353   1.306  0.2575 -0.2456 -0.1871
 3562TIP3    H110692   6.318   3.280   1.246  2.2615 -0.0065 -1.0746
 3562TIP3    H210693   6.420   3.386   1.282  0.1543  1.3102  1.3680
 3563TIP3   OH210694   0.722   2.680   2.118  0.0214  0.1034  1.2374
 3563TIP3    H110695   0.639   2.726   2.104  0.0433  0.1325  1.2035
 3563TIP3    H210696   0.706   2.624   2.194  0.2475  0.7896  1.7982
 3564TIP3   OH210697   0.826   3.651   3.376 -0.1679 -0.2912  0.3504
 3564TIP3    H110698   0.858   3.563   3.355 -0.6510 -0.3908  0.0202
 3564TIP3    H210699   0.743   3.636   3.421 -0.8582  0.0245 -0.7811
 3565TIP3   OH210700   4.174   3.792   0.471 -0.1589 -0.2566 -0.4281
 3565TIP3    H110701   4.082   3.798   0.498 -0.9428  2.2755 -3.1247
 3565TIP3    H210702   4.174   3.727   0.401 -0.1601  0.5368 -1.1834
 3566TIP3   OH210703   0.875   5.519   2.975 -0.0543  0.4894  0.1646
 3566TIP3    H110704   0.953   5.566   2.943  0.5778 -1.3485 -1.1504
 3566TIP3    H210705   0.902   5.483   3.059  1.5013 -2.1867 -1.3256
 3567TIP3   OH210706   3.232   5.929   0.752 -0.4089 -0.2413 -0.6344
 3567TIP3    H110707   3.263   5.877   0.678  0.3392  0.6717 -0.9938
 3567TIP3    H210708   3.138   5.940   0.736 -0.1643  0.3908 -1.7581
 3568TIP3   OH210709   3.441   2.224   0.776 -0.5689 -0.0392 -0.1993
 3568TIP3    H110710   3.377   2.219   0.705  1.3873  0.3109 -2.0848
 3568TIP3    H210711   3.523   2.248   0.733  1.4794 -2.9823  1.6573
 3569TIP3   OH210712   6.150   1.828   3.709  0.5057 -0.0699 -0.6542
 3569TIP3    H110713   6.139   1.739   3.744 -1.4008  0.8104  1.1347
 3569TIP3    H210714   6.245   1.840   3.704  0.8924 -0.9402  2.5418
 3570TIP3   OH210715   6.136   0.365   4.065  0.2684 -0.3482  0.1250
 3570TIP3    H110716   6.157   0.380   3.973 -0.7824  0.2820 -0.0292
 3570TIP3    H210717   6.151   0.271   4.078  0.0138 -0.5246 -0.8015
 3571TIP3   OH210718   1.115   1.471   4.315 -0.1978 -0.3525  0.2204
 3571TIP3    H110719   1.185   1.409   4.292  1.6458  1.4094  0.7344
 3571TIP3    H210720   1.102   1.457   4.409  0.3285  0.1128  0.3688
 3572TIP3   OH210721   4.799   3.232   3.445  0.4009 -0.3557  0.1608
 3572TIP3    H110722   4.827   3.323   3.433  0.0924  0.0237  2.0986
 3572TIP3    H210723   4.730   3.236   3.510  1.6069 -2.1374  1.6453
 3573TIP3   OH210724   1.917   1.686   3.721 -0.2132  0.0935 -0.6104
 3573TIP3    H110725   1.869   1.619   3.771  0.0875 -0.3167 -0.8712
 3573TIP3    H210726   1.982   1.637   3.671 -0.1511  0.5594 -0.9901
 3574TIP3   OH210727   1.015   4.679   1.097  0.2960 -0.2915 -0.3555
 3574TIP3    H110728   0.995   4.637   1.013  0.1253  0.3535 -0.6401
 3574TIP3    H210729   0.957   4.635   1.160  0.1586 -0.5217 -0.6392
 3575TIP3   OH210730   0.872   4.222   5.111 -0.1463  0.0547 -0.0154
 3575TIP3    H110731   0.806   4.202   5.178  0.3558 -4.7204 -0.5947
 3575TIP3    H210732   0.949   4.171   5.137  2.1524  2.5260 -1.3461
 3576TIP3   OH210733   4.062   3.836   1.373  0.2965  0.7858  0.4808
 3576TIP3    H110734   4.115   3.895   1.320  0.1529  0.1852 -0.3415
 3576TIP3    H210735   3.992   3.892   1.409  0.4238  1.2056  0.0855
 3577TIP3   OH210736   5.668   0.598   4.009  0.2263 -0.5117 -0.5112
 3577TIP3    H110737   5.687   0.642   3.926  0.0792 -1.0275 -0.8180
 3577TIP3    H210738   5.605   0.655   4.052 -0.2415 -0.6004 -1.0687
 3578TIP3   OH210739   1.949   0.074   2.463 -0.1525  0.0228 -0.6331
 3578TIP3    H110740   1.864   0.107   2.493 -0.6298 -1.1707 -0.6224
 3578TIP3    H210741   1.937  -0.021   2.457  1.3600 -0.2293 -0.0628
 3579TIP3   OH210742   5.228   3.926   5.098  1.0101  0.2292  0.2805
 3579TIP3    H110743   5.196   3.836   5.101  1.4250  0.0265 -0.8762
 3579TIP3    H210744   5.275   3.937   5.180  1.1413 -0.6869  0.3387
 3580TIP3   OH210745   1.215   1.719   4.195  0.2502 -0.8745  0.3312
 3580TIP3    H110746   1.191   1.770   4.272 -1.2783  0.0581 -0.6967
 3580TIP3    H210747   1.157   1.643   4.197 -0.8422 -0.1086 -0.6163
 3581TIP3   OH210748   3.703   4.699   4.816 -0.0429  0.2532  0.1289
 3581TIP3    H110749   3.710   4.631   4.748 -2.3872  0.4237 -0.3675
 3581TIP3    H210750   3.634   4.666   4.874 -1.6240  2.3950 -0.4199
 3582TIP3   OH210751   2.260   0.861   4.379 -0.2823  0.8452  0.1721
 3582TIP3    H110752   2.191   0.921   4.350 -0.9165 -1.2871 -3.3202
 3582TIP3    H210753   2.213   0.796   4.431 -0.4101  0.8971  0.1235
 3583TIP3   OH210754   5.105   5.381   3.327  0.0846  0.1042  0.2248
 3583TIP3    H110755   5.102   5.447   3.257 -0.6678 -1.3571 -1.1929
 3583TIP3    H210756   5.127   5.300   3.281  2.2942 -0.4444  2.0975
 3584TIP3   OH210757   2.459   2.212   2.119 -0.0319 -0.2860 -0.2196
 3584TIP3    H110758   2.411   2.170   2.190 -0.0588 -0.3319 -0.2651
 3584TIP3    H210759   2.512   2.142   2.081  0.6453 -0.0832  0.3080
 3585TIP3   OH210760   3.688   2.641   2.605  0.3359 -0.2286 -0.0951
 3585TIP3    H110761   3.633   2.663   2.680  1.2703  0.7599  0.3245
 3585TIP3    H210762   3.627   2.636   2.531 -0.4670 -0.3316  0.5593
 3586TIP3   OH210763   2.198   4.623   3.434  0.5589 -0.1182 -0.4938
 3586TIP3    H110764   2.191   4.574   3.516 -0.0033 -0.4280 -0.7208
 3586TIP3    H210765   2.219   4.556   3.368 -0.2012 -0.0560 -0.8033
 3587TIP3   OH210766   3.085   0.087   2.072  0.1458 -0.2817  0.3797
 3587TIP3    H110767   3.165   0.091   2.124  0.4463 -0.7472 -0.0446
 3587TIP3    H210768   3.019   0.053   2.132  0.3954 -0.4307  0.5705
 3588TIP3   OH210769   3.414   1.076   4.052 -0.8906  0.5549  0.0316
 3588TIP3    H110770   3.395   1.034   4.136 -2.5686  2.3449  0.6194
 3588TIP3    H210771   3.379   1.015   3.986 -0.8058 -0.2186  0.6861
 3589TIP3   OH210772   5.313   3.421   0.427 -1.0113  0.2056 -0.2142
 3589TIP3    H110773   5.404   3.430   0.397 -1.0256 -0.1234 -0.3578
 3589TIP3    H210774   5.318   3.359   0.499 -1.5482 -2.4690 -2.3416
 3590TIP3   OH210775   2.879   5.474   1.157 -0.5643 -0.1035 -0.0247
 3590TIP3    H110776   2.806   5.422   1.122 -1.0476  0.6099 -0.0983
 3590TIP3    H210777   2.957   5.430   1.125 -0.9051 -1.6806  1.1677
 3591TIP3   OH210778   4.205   1.131   3.577  0.5687  0.4966 -0.3143
 3591TIP3    H110779   4.253   1.212   3.597 -1.3890  1.6229  0.1041
 3591TIP3    H210780   4.113   1.155   3.587 -0.0729 -1.8974  0.1644
 3592TIP3   OH210781   1.870   1.891   1.043 -0.1510  0.1967  0.0491
 3592TIP3    H110782   1.791   1.841   1.065 -0.1446  1.0476  2.2238
 3592TIP3    H210783   1.940   1.846   1.090  0.3163  0.6317 -0.2289
 3593TIP3   OH210784   5.024   1.876   4.546  0.1954  0.0867  0.3730
 3593TIP3    H110785   4.935   1.905   4.564 -0.0678 -0.8333  0.5911
 3593TIP3    H210786   5.055   1.934   4.476 -0.6341  0.2836  0.1628
 3594TIP3   OH210787   4.124   3.446   4.924 -0.0392  0.1271  0.3507
 3594TIP3    H110788   4.081   3.367   4.892 -0.2466  0.6390 -0.6480
 3594TIP3    H210789   4.198   3.459   4.865 -0.4476  1.0981  0.0321
 3595TIP3   OH210790   2.718   0.415   2.588 -0.0899  0.0598  0.2169
 3595TIP3    H110791   2.660   0.421   2.663 -1.5920  2.3590 -0.9952
 3595TIP3    H210792   2.719   0.323   2.565 -1.1262 -0.4107  1.8856
 3596TIP3   OH210793   0.555   2.946   1.589  0.3355 -0.1785  0.1344
 3596TIP3    H110794   0.489   2.985   1.531 -0.4191  0.8691  1.6440
 3596TIP3    H210795   0.507   2.880   1.639  1.5402 -3.0335 -2.1955
 3597TIP3   OH210796   3.053   2.168   0.229  0.1732 -0.0957  0.1663
 3597TIP3    H110797   3.092   2.213   0.304  1.6248 -0.5416 -0.2941
 3597TIP3    H210798   2.971   2.133   0.263 -0.5703  2.0632  0.8019
 3598TIP3   OH210799   3.079   0.569   1.059 -0.5202  0.2264 -0.5685
 3598TIP3    H110800   3.083   0.538   1.150  0.7581  1.7214 -0.0620
 3598TIP3    H210801   3.015   0.641   1.061 -1.2646 -0.4110 -1.0883
 3599TIP3   OH210802   0.834   4.415   1.551 -0.5357 -0.0936 -0.4281
 3599TIP3    H110803   0.849   4.322   1.568 -0.3686  0.1805  1.1060
 3599TIP3    H210804   0.921   4.453   1.541 -0.4420  0.3020  1.4981
 3600TIP3   OH210805   4.477   0.578   4.956 -0.3211  0.1115 -0.0840
 3600TIP3    H110806   4.491   0.591   5.049  2.4902 -0.4874 -0.3377
 3600TIP3    H210807   4.560   0.601   4.915 -1.6673  0.9813 -2.5494
 3601TIP3   OH210808   2.138   3.073   4.492 -0.3382  0.3164  0.4297
 3601TIP3    H110809   2.077   3.068   4.418 -0.8484 -1.3331  0.9208
 3601TIP3    H210810   2.219   3.033   4.459 -0.4567 -0.1062  0.6388
 3602TIP3   OH210811   4.506   4.925   2.385  0.3487 -0.3091  0.1648
 3602TIP3    H110812   4.462   4.983   2.323 -1.8949 -1.3582  0.6792
 3602TIP3    H210813   4.491   4.965   2.471 -1.8229 -1.8570  0.6066
 3603TIP3   OH210814   0.401   3.849   0.351 -0.0601 -0.4404 -0.2539
 3603TIP3    H110815   0.353   3.816   0.427  0.5883 -0.2972  0.2240
 3603TIP3    H210816   0.332   3.877   0.290 -0.6218 -1.9750 -0.3754
 3604TIP3   OH210817   0.356   4.051   3.663  0.0940 -0.6691 -0.5901
 3604TIP3    H110818   0.303   3.975   3.687  0.0326 -0.6788 -0.7555
 3604TIP3    H210819   0.441   4.035   3.704 -0.0833 -0.5704 -0.1747
 3605TIP3   OH210820   5.102   0.438   0.329 -0.2169 -0.0281  0.4456
 3605TIP3    H110821   5.017   0.459   0.368 -0.1777  0.0871  0.4713
 3605TIP3    H210822   5.081   0.395   0.246 -0.3035  0.5821  0.1407
 3606TIP3   OH210823   5.361   0.832   0.939  0.3237 -0.2778  0.1704
 3606TIP3    H110824   5.403   0.917   0.928 -0.4228  0.0632 -0.0523
 3606TIP3    H210825   5.433   0.774   0.965  1.1752  0.0404 -1.3148
 3607TIP3   OH210826   5.744   5.974   4.356  0.3458 -0.1857  0.1058
 3607TIP3    H110827   5.662   5.992   4.402 -0.2440 -0.7584 -0.7087
 3607TIP3    H210828   5.718   5.954   4.266  1.3442 -0.7328 -0.0777
 3608TIP3   OH210829   1.080   1.472   1.380  0.0504  0.2394  0.0169
 3608TIP3    H110830   1.095   1.553   1.331 -2.5069  0.0043 -1.2564
 3608TIP3    H210831   1.054   1.408   1.315  0.2851 -1.1627  1.2399
 3609TIP3   OH210832   2.008   3.502  -0.023  0.0852  0.2801  0.4748
 3609TIP3    H110833   1.943   3.536   0.039  1.5819  2.6818  0.8885
 3609TIP3    H210834   2.089   3.499   0.028  0.9621  0.4929 -0.8791
 3610TIP3   OH210835   0.359   2.411   3.650  0.0230 -0.1303  0.3843
 3610TIP3    H110836   0.348   2.480   3.716 -0.8782  0.4235 -0.3325
 3610TIP3    H210837   0.270   2.388   3.624  0.3403 -1.0427  0.0641
 3611TIP3   OH210838   1.657   5.474   3.444 -0.2689  0.0824  0.2756
 3611TIP3    H110839   1.699   5.391   3.467 -0.0151  0.1718  0.1446
 3611TIP3    H210840   1.588   5.451   3.382 -1.0543 -0.1783  1.2287
 3612TIP3   OH210841   5.384   5.554   2.342 -0.2242  0.1929 -0.0408
 3612TIP3    H110842   5.308   5.530   2.395  0.3442  1.1124  1.2260
 3612TIP3    H210843   5.456   5.501   2.378  0.0963  0.5851 -0.0936
 3613TIP3   OH210844   2.823   0.280   4.829 -0.5666 -0.4905 -0.2542
 3613TIP3    H110845   2.893   0.299   4.892  0.2610 -0.3686 -1.1844
 3613TIP3    H210846   2.750   0.336   4.856 -0.6272 -1.2539  1.2490
 3614TIP3   OH210847   1.905   1.457   0.949  0.4691 -0.2763 -0.0249
 3614TIP3    H110848   1.948   1.461   0.864  0.2528 -0.2533 -0.1323
 3614TIP3    H210849   1.812   1.448   0.929  0.4045 -0.1393  0.2093
 3615TIP3   OH210850   6.285   5.235   2.569 -0.7856 -0.0998 -0.0236
 3615TIP3    H110851   6.355   5.189   2.616  0.1462 -0.2652 -1.5097
 3615TIP3    H210852   6.276   5.188   2.487 -1.6375  0.8181 -0.4763
 3616TIP3   OH210853   0.653   0.710   1.602 -0.3757 -0.3353 -0.1691
 3616TIP3    H110854   0.717   0.672   1.542 -1.4887 -1.9925 -0.3865
 3616TIP3    H210855   0.687   0.691   1.689  0.0150 -0.1334 -0.2766
 3617TIP3   OH210856   1.971   2.937   3.792  0.0121 -0.7113 -0.2654
 3617TIP3    H110857   1.996   3.026   3.770 -1.1779 -0.2407  0.2124
 3617TIP3    H210858   2.054   2.891   3.806  0.6551  0.9096  1.7744
 3618TIP3   OH210859   3.525   4.754   2.912 -0.5722  0.1051  0.1701
 3618TIP3    H110860   3.503   4.700   2.837 -1.1826 -0.1554  0.5261
 3618TIP3    H210861   3.569   4.830   2.875 -2.6615  0.9814 -0.6782
 3619TIP3   OH210862   2.222   5.078   0.988  0.5205 -0.6409  0.0474
 3619TIP3    H110863   2.227   5.033   0.903 -0.3341  0.8543 -0.8316
 3619TIP3    H210864   2.280   5.153   0.979 -0.8140  0.4565  0.1474
 3620TIP3   OH210865   4.637   3.885   1.275 -0.5263 -0.3159 -0.3133
 3620TIP3    H110866   4.680   3.926   1.201 -1.1622  0.0655 -0.4797
 3620TIP3    H210867   4.544   3.884   1.251 -0.6356 -0.9729  0.1050
 3621TIP3   OH210868   1.290   4.424   4.943 -0.5263  0.7337  0.1316
 3621TIP3    H110869   1.236   4.440   4.865 -0.9444 -1.1655 -0.0030
 3621TIP3    H210870   1.230   4.434   5.016 -1.1800 -1.5246 -0.0244
 3622TIP3   OH210871   0.701   1.439   0.961 -0.2300  0.2644 -0.4700
 3622TIP3    H110872   0.775   1.391   0.998 -1.3288 -0.7801  0.4634
 3622TIP3    H210873   0.676   1.501   1.029 -0.2262  0.6073 -0.7771
 3623TIP3   OH210874   4.358   4.049   0.881 -0.6189  0.0480 -0.0086
 3623TIP3    H110875   4.377   4.033   0.789 -1.0517 -2.4212  0.2546
 3623TIP3    H210876   4.272   4.091   0.881 -2.7853 -3.9142 -0.7157
 3624TIP3   OH210877   4.976   0.464   2.135  0.1421  0.1419 -0.0587
 3624TIP3    H110878   4.939   0.390   2.183 -0.1457  0.2429 -0.1218
 3624TIP3    H210879   5.015   0.519   2.202  0.6644 -0.2388 -0.0435
 3625TIP3   OH210880   1.541   1.098   0.320 -0.3788  0.2424 -0.1894
 3625TIP3    H110881   1.505   1.019   0.279 -0.0200  0.0713 -0.1855
 3625TIP3    H210882   1.589   1.065   0.396  0.2177  0.4065 -0.4864
 3626TIP3   OH210883   2.623   4.898   3.901  0.3530 -0.2442  0.9593
 3626TIP3    H110884   2.666   4.834   3.958  2.7697  0.1008 -0.3263
 3626TIP3    H210885   2.690   4.964   3.884  0.2132 -0.8896 -3.1195
 3627TIP3   OH210886   3.926   1.435   4.007  0.2093 -0.3298 -0.1926
 3627TIP3    H110887   3.902   1.374   3.937 -1.3093 -1.3558  1.1376
 3627TIP3    H210888   4.019   1.419   4.022  0.3065 -0.8423 -1.2502
 3628TIP3   OH210889   2.837   2.099   2.277  0.1314 -0.2365  0.1991
 3628TIP3    H110890   2.829   2.181   2.228  1.9917 -0.3196 -0.3307
 3628TIP3    H210891   2.862   2.126   2.365 -2.8855 -0.1051  1.1143
 3629TIP3   OH210892   2.460   0.146   0.009  0.6544  0.1631  0.6024
 3629TIP3    H110893   2.379   0.103   0.038  1.6963 -0.5181  2.7079
 3629TIP3    H210894   2.506   0.079  -0.041 -0.2288  0.6922 -0.9877
 3630TIP3   OH210895   2.007   4.232   4.546  0.0899  0.1373  0.8372
 3630TIP3    H110896   1.926   4.192   4.576  0.3807 -0.6041  0.6442
 3630TIP3    H210897   2.054   4.163   4.500 -0.2309  1.1869 -1.1668
 3631TIP3   OH210898   4.972   5.763   1.615  0.0537 -0.5533 -0.2598
 3631TIP3    H110899   4.993   5.719   1.698 -2.6947 -0.0631  0.7862
 3631TIP3    H210900   5.039   5.731   1.554  3.0173  0.0948  2.3974
 3632TIP3   OH210901   1.272   4.113   1.760  0.5446  0.2545 -0.5685
 3632TIP3    H110902   1.310   4.039   1.807 -1.2988 -0.7129 -0.4947
 3632TIP3    H210903   1.217   4.072   1.693 -0.0092  1.5669 -0.9382
 3633TIP3   OH210904   0.861   5.431   3.230 -0.4448 -0.0775 -0.1731
 3633TIP3    H110905   0.920   5.391   3.294 -0.8399 -0.2411  0.0979
 3633TIP3    H210906   0.794   5.473   3.284 -1.3440 -1.0676 -0.4742
 3634TIP3   OH210907   5.220   4.203   1.033  0.2978 -0.4275 -0.1329
 3634TIP3    H110908   5.147   4.224   0.975  0.2027 -0.0136  0.1364
 3634TIP3    H210909   5.237   4.283   1.082  1.6951 -0.1523 -1.0103
 3635TIP3   OH210910   2.632   4.293   0.990 -0.4908  0.4543 -0.4587
 3635TIP3    H110911   2.701   4.320   0.930 -0.2102  1.7066  0.4056
 3635TIP3    H210912   2.551   4.321   0.948 -0.3015  1.2374 -0.3049
 3636TIP3   OH210913   1.163   3.274   1.022  0.1479 -0.1008  0.3262
 3636TIP3    H110914   1.203   3.212   1.083  0.3327  0.1152  0.4261
 3636TIP3    H210915   1.090   3.226   0.983  0.2815 -0.3758  0.4136
 3637TIP3   OH210916   1.996   3.445   0.781 -0.3847 -0.4940  0.1101
 3637TIP3    H110917   1.975   3.484   0.695 -1.0801 -1.9098 -0.3902
 3637TIP3    H210918   1.912   3.443   0.827 -0.1599 -0.4815  0.5251
 3638TIP3   OH210919   2.668   5.272   5.144 -0.3211  0.3514 -0.1481
 3638TIP3    H110920   2.608   5.235   5.079 -0.9377 -0.8500  1.0578
 3638TIP3    H210921   2.738   5.207   5.152 -1.2734 -0.4951  1.8050
 3639TIP3   OH210922   1.382   5.839   0.394  0.1244  0.3883 -0.5859
 3639TIP3    H110923   1.382   5.824   0.488 -0.4258 -1.8182 -0.8908
 3639TIP3    H210924   1.474   5.858   0.373  0.2079  1.1566  0.4067
 3640TIP3   OH210925   5.349   2.661   0.497  0.2174  0.4473  0.3283
 3640TIP3    H110926   5.378   2.748   0.469  2.2113 -0.2780 -0.0733
 3640TIP3    H210927   5.285   2.635   0.431 -0.8174  1.7882  0.7526
 3641TIP3   OH210928   4.013   1.585   0.115 -1.0112  0.2079 -0.4895
 3641TIP3    H110929   3.982   1.618   0.199  0.2762  1.0131 -0.3158
 3641TIP3    H210930   4.012   1.662   0.058  1.6472  0.5319 -0.1913
 3642TIP3   OH210931   2.208   0.977   2.099 -0.2143  0.7473 -0.9401
 3642TIP3    H110932   2.174   0.963   2.188  0.1091 -0.6118 -0.9993
 3642TIP3    H210933   2.246   1.065   2.101  0.4489  0.4621  0.5041
 3643TIP3   OH210934   1.235   1.399   0.989 -0.3641  0.2322  0.0589
 3643TIP3    H110935   1.250   1.314   0.947 -0.4262 -0.1852  0.8626
 3643TIP3    H210936   1.185   1.378   1.068  0.3770  0.9260  0.7226
 3644TIP3   OH210937   1.265   2.051   2.044 -0.3229  0.2940  0.3568
 3644TIP3    H110938   1.286   2.140   2.015 -0.0924 -0.5786 -2.4427
 3644TIP3    H210939   1.173   2.039   2.020  0.3776 -1.0829 -1.9479
 3645TIP3   OH210940   1.020   1.194   4.670  0.2028 -0.3706 -0.0501
 3645TIP3    H110941   1.037   1.280   4.708  0.4149 -0.3900 -0.1006
 3645TIP3    H210942   0.987   1.142   4.743  1.2265 -0.5968  0.2635
 3646TIP3   OH210943   1.840   3.770   1.126 -0.1707  0.2003 -0.0978
 3646TIP3    H110944   1.871   3.682   1.149  1.3808  1.1959  2.0371
 3646TIP3    H210945   1.875   3.785   1.038  0.4784 -0.9085 -0.0556
 3647TIP3   OH210946   2.062   4.797   2.107 -0.5908 -0.0711 -0.4354
 3647TIP3    H110947   1.980   4.781   2.061  0.7552 -1.3249 -2.5826
 3647TIP3    H210948   2.100   4.874   2.064  1.4662 -2.2226 -2.7921
 3648TIP3   OH210949   0.496   2.674   5.113 -0.3144  0.5813  0.2780
 3648TIP3    H110950   0.520   2.741   5.049 -1.4103  1.3972  0.6924
 3648TIP3    H210951   0.473   2.723   5.192 -1.3558 -0.2582  0.5202
 3649TIP3   OH210952   0.941   5.518   0.196  0.0983  0.1158 -0.1249
 3649TIP3    H110953   0.876   5.570   0.243  0.5323  1.2550 -0.7376
 3649TIP3    H210954   0.899   5.499   0.112  0.2815  0.2562 -0.2491
 3650TIP3   OH210955   4.644   2.979   0.624 -0.1643 -0.1158  0.6330
 3650TIP3    H110956   4.621   3.051   0.684  0.9638  0.5603  0.2784
 3650TIP3    H210957   4.628   3.016   0.537  1.1028 -0.0315  0.4211
 3651TIP3   OH210958   1.074   4.880   3.912  0.0701  0.1190 -0.7316
 3651TIP3    H110959   1.151   4.871   3.855  0.2301 -1.4878 -0.3024
 3651TIP3    H210960   1.053   4.973   3.909  2.7622  0.8185  0.0920
 3652TIP3   OH210961   2.120  -0.008   4.144 -0.3830 -0.1139 -0.3505
 3652TIP3    H110962   2.114  -0.028   4.050  0.4601 -0.0894 -0.4155
 3652TIP3    H210963   2.079   0.078   4.152 -0.1560  0.0367 -0.7532
 3653TIP3   OH210964   5.640   3.480   2.177  0.3614  0.1894 -0.3300
 3653TIP3    H110965   5.732   3.468   2.200  0.4240  0.1163 -0.6154
 3653TIP3    H210966   5.614   3.397   2.136 -0.0862 -0.1365  0.5811
 3654TIP3   OH210967   5.594   2.550   4.913  0.0981  0.2672  0.2519
 3654TIP3    H110968   5.550   2.559   4.997 -1.1508 -0.8312 -0.2422
 3654TIP3    H210969   5.597   2.456   4.897  0.4945  0.4443 -0.8378
 3655TIP3   OH210970   6.296   1.804   0.352  0.1147  0.0486  0.7103
 3655TIP3    H110971   6.324   1.736   0.413 -1.5429 -0.9910  0.3828
 3655TIP3    H210972   6.211   1.833   0.386 -0.8007 -0.4914 -1.0054
 3656TIP3   OH210973   0.651   5.990   1.255  0.2445  0.4830 -0.4564
 3656TIP3    H110974   0.698   5.912   1.226 -0.4165  0.5090 -1.6441
 3656TIP3    H210975   0.558   5.966   1.251  0.0826  0.8360  0.6815
 3657TIP3   OH210976   5.066   1.698   2.476  0.1505  0.4986  0.4408
 3657TIP3    H110977   4.984   1.745   2.483  0.7977  1.7937 -0.3223
 3657TIP3    H210978   5.043   1.606   2.490 -1.2329  0.9600  1.3355
 3658TIP3   OH210979   2.898   4.876   4.942 -0.0763 -0.4504  0.0683
 3658TIP3    H110980   2.847   4.891   4.862 -0.2045 -1.7019 -0.1069
 3658TIP3    H210981   2.920   4.964   4.973 -2.8710  0.1717  0.5202
 3659TIP3   OH210982   0.516   3.675   1.267  0.1477  0.4416  0.2019
 3659TIP3    H110983   0.467   3.749   1.230 -2.3798 -1.7313 -1.0764
 3659TIP3    H210984   0.513   3.690   1.362 -0.3367  1.9374 -0.0226
 3660TIP3   OH210985   1.771   2.212   3.557 -0.1311 -0.4224  0.0621
 3660TIP3    H110986   1.723   2.155   3.617  1.5784 -0.2094  1.7363
 3660TIP3    H210987   1.843   2.157   3.525 -0.0822 -0.0355 -0.4976
 3661TIP3   OH210988   5.794   2.971   4.051 -0.1345 -0.4086  0.0954
 3661TIP3    H110989   5.739   2.946   4.124 -1.5967 -0.4753 -0.9930
 3661TIP3    H210990   5.763   3.057   4.025  1.9400  0.7015  0.9985
 3662TIP3   OH210991   3.391   1.913   0.943  0.1191  0.4475  0.3523
 3662TIP3    H110992   3.368   1.995   0.899  0.7451 -0.5008 -1.8647
 3662TIP3    H210993   3.308   1.867   0.953  0.0825  0.2352 -0.8201
 3663TIP3   OH210994   1.081   3.478   3.914  0.6207 -0.3743  0.3212
 3663TIP3    H110995   1.092   3.529   3.994  0.1406  0.7528 -0.3104
 3663TIP3    H210996   0.986   3.468   3.905  0.7104 -1.7059  0.6194
 3664TIP3   OH210997   5.542   2.285   5.083  0.1127  0.1361  0.2373
 3664TIP3    H110998   5.600   2.239   5.022 -0.1230  0.4873 -0.2577
 3664TIP3    H210999   5.597   2.354   5.119  0.4648 -0.5174  0.9765
 3665TIP3   OH211000   1.127   5.184   0.227  0.3285 -0.1695  0.1840
 3665TIP3    H111001   1.089   5.216   0.145 -0.2947  0.2058  0.6152
 3665TIP3    H211002   1.083   5.101   0.244 -0.5610  0.4235  0.8546
 3666TIP3   OH211003   0.078   0.386   4.713  0.4432  0.2279  0.1982
 3666TIP3    H111004   0.055   0.345   4.629  0.3688  0.4595  0.1036
 3666TIP3    H211005   0.171   0.369   4.723  0.8124  1.5522 -0.7072
 3667TIP3   OH211006   0.848   3.908   3.274 -0.5600  0.3973  0.0059
 3667TIP3    H111007   0.858   3.816   3.299 -2.1183 -0.0950 -1.0521
 3667TIP3    H211008   0.830   3.952   3.357  2.8667  0.2778  0.9624
 3668TIP3   OH211009   2.400   5.880   4.672 -0.2434  0.6053  0.4642
 3668TIP3    H111010   2.356   5.803   4.636  1.6620 -0.5673  0.4871
 3668TIP3    H211011   2.366   5.887   4.761  0.7899 -1.3098  1.0658
 3669TIP3   OH211012   1.386   0.274   0.842  0.4178  0.0712 -0.0524
 3669TIP3    H111013   1.344   0.301   0.760 -0.9183  0.3532  0.6880
 3669TIP3    H211014   1.471   0.239   0.815 -0.7703 -1.7541 -1.7929
 3670TIP3   OH211015   3.300   2.992   1.651  0.0778  0.3796  0.1833
 3670TIP3    H111016   3.380   3.012   1.604  1.3160 -0.0912  1.9910
 3670TIP3    H211017   3.242   2.954   1.586  0.8777  1.7498 -1.4087
 3671TIP3   OH211018   2.014   3.687   1.491  0.4636  0.7462 -0.1818
 3671TIP3    H111019   2.021   3.609   1.546 -0.8533  2.0375  1.9390
 3671TIP3    H211020   2.104   3.710   1.471  0.9579 -0.1328  0.9174
 3672TIP3   OH211021   5.526   5.251   0.664 -0.6175  0.1380 -0.2432
 3672TIP3    H111022   5.583   5.184   0.628 -0.7984 -0.3083  0.3002
 3672TIP3    H211023   5.539   5.248   0.758 -1.7396 -0.1761 -0.0763
 3673TIP3   OH211024   3.050   2.225   4.937  0.0985  0.0155 -0.0555
 3673TIP3    H111025   3.059   2.206   5.031  1.2948 -2.3719 -0.5708
 3673TIP3    H211026   2.956   2.220   4.920 -0.4615  3.1940  1.4436
 3674TIP3   OH211027   3.059   5.524   4.401  0.6225  0.1764  0.6513
 3674TIP3    H111028   3.147   5.527   4.364 -0.5605  1.6774 -2.3575
 3674TIP3    H211029   3.060   5.588   4.472  2.1316 -0.4133  1.1962
 3675TIP3   OH211030   4.159   3.618   1.525  0.3417  0.6040  0.1086
 3675TIP3    H111031   4.131   3.684   1.461  0.8019  0.0873 -0.6446
 3675TIP3    H211032   4.078   3.583   1.560  0.0853  1.7375  0.7086
 3676TIP3   OH211033   3.197   0.157   1.810  0.1612  0.6571 -0.3867
 3676TIP3    H111034   3.125   0.160   1.873  1.0051 -1.1387  0.7282
 3676TIP3    H211035   3.154   0.133   1.727 -0.4485 -1.6818  0.5218
 3677TIP3   OH211036   1.897   4.396   2.275  0.2233  0.4006 -0.4911
 3677TIP3    H111037   1.937   4.392   2.189 -1.0875 -1.3121 -1.0750
 3677TIP3    H211038   1.927   4.480   2.311  1.0530  1.0180 -2.4604
 3678TIP3   OH211039   1.151   0.569   2.559  0.3362 -0.1618 -0.5073
 3678TIP3    H111040   1.133   0.513   2.634 -1.2087  1.3758  0.3419
 3678TIP3    H211041   1.106   0.527   2.486 -1.0507  0.0599  0.1805
 3679TIP3   OH211042   0.575   5.051   4.123 -0.0177 -0.0183  0.4873
 3679TIP3    H111043   0.592   4.990   4.194 -1.8263 -1.3614 -0.1673
 3679TIP3    H211044   0.484   5.034   4.097  0.3035  1.0149 -1.5639
 3680TIP3   OH211045   5.193   4.949   5.012  0.3714  0.0968 -0.0825
 3680TIP3    H111046   5.181   4.957   4.918 -1.7781  0.6204  0.1869
 3680TIP3    H211047   5.161   5.032   5.048 -0.9754 -0.9242  1.2214
 3681TIP3   OH211048   0.975   4.903   5.162 -0.3786  0.0750  0.0786
 3681TIP3    H111049   0.911   4.974   5.151  0.4598  0.9555  0.8125
 3681TIP3    H211050   0.950   4.861   5.244 -0.6629 -0.2691 -0.1806
 3682TIP3   OH211051   1.326   1.270   0.184  0.1404  0.2174  0.6898
 3682TIP3    H111052   1.364   1.296   0.268  0.0483  0.2366  0.7255
 3682TIP3    H211053   1.381   1.198   0.154  0.6615  0.7350  0.3873
 3683TIP3   OH211054   0.960   0.131   0.236  0.2056  0.4024  0.4726
 3683TIP3    H111055   1.031   0.078   0.200 -0.7903 -1.5541  1.2582
 3683TIP3    H211056   0.930   0.082   0.313  0.3349  2.9670  2.3028
 3684TIP3   OH211057   6.318   4.909   0.578  0.1881  0.6939  0.1704
 3684TIP3    H111058   6.318   4.991   0.529  0.8925  0.0348 -0.9643
 3684TIP3    H211059   6.401   4.909   0.625  0.6643  0.1721 -0.6492
 3685TIP3   OH211060   2.955   3.888   3.965 -0.4664  0.0316  0.1324
 3685TIP3    H111061   2.938   3.882   3.872  0.6619  1.1260 -0.1823
 3685TIP3    H211062   3.021   3.957   3.973  0.2874 -0.7980  1.6354
 3686TIP3   OH211063   2.857   4.384   1.151  0.3643 -0.4390 -0.2311
 3686TIP3    H111064   2.829   4.476   1.146 -1.4327 -0.9495 -0.1743
 3686TIP3    H211065   2.785   4.335   1.113  1.1388 -1.8750  0.0861
 3687TIP3   OH211066   1.657   0.526   0.788  0.4900  0.2501 -0.3373
 3687TIP3    H111067   1.656   0.447   0.735 -0.6367 -0.2378  0.3859
 3687TIP3    H211068   1.745   0.563   0.775  0.7229 -0.6398 -1.3625
 3688TIP3   OH211069   2.797   4.387   1.617  1.0815  0.4449 -0.3234
 3688TIP3    H111070   2.742   4.463   1.637  1.9374  1.4446 -1.6150
 3688TIP3    H211071   2.810   4.344   1.702 -1.0745  0.5687  0.1297
 3689TIP3   OH211072   3.989   1.554   2.482  0.1853 -0.1835 -0.4371
 3689TIP3    H111073   3.987   1.634   2.535  0.5483  0.1431 -0.9010
 3689TIP3    H211074   3.898   1.527   2.475  0.0180  0.3967 -0.5679
 3690TIP3   OH211075   2.906   6.030   1.367  0.2439 -0.9060  0.4158
 3690TIP3    H111076   2.936   5.971   1.436  0.1988 -0.6848  0.6251
 3690TIP3    H211077   2.917   5.980   1.286  2.6244 -0.3130  0.3049
 3691TIP3   OH211078   2.050   2.496   1.564 -0.6207  0.4012 -0.1126
 3691TIP3    H111079   2.066   2.540   1.481  1.5797 -1.1547 -0.6050
 3691TIP3    H211080   2.133   2.505   1.612 -0.9837 -0.9269  0.8210
 3692TIP3   OH211081   6.154   5.737   3.450  0.2373  0.3793 -0.0875
 3692TIP3    H111082   6.209   5.815   3.461 -1.5624  1.5683  0.8953
 3692TIP3    H211083   6.085   5.765   3.390 -0.6696 -0.3413  0.6030
 3693TIP3   OH211084   1.967   2.266   0.971  0.2441  0.1664  0.0478
 3693TIP3    H111085   1.986   2.180   0.933 -0.0267 -1.1199  2.5675
 3693TIP3    H211086   1.879   2.287   0.941  1.2518  0.8936 -2.7119
 3694TIP3   OH211087   0.588   0.172   2.438  0.2998  0.0238 -0.8721
 3694TIP3    H111088   0.544   0.142   2.518  1.5944  0.7543  0.1513
 3694TIP3    H211089   0.529   0.237   2.401  0.5052  1.0523  0.5237
 3695TIP3   OH211090   1.159   5.831   2.149 -0.3312  0.2410  0.1564
 3695TIP3    H111091   1.233   5.816   2.090 -0.9950  0.9897 -0.9062
 3695TIP3    H211092   1.171   5.919   2.182 -1.0051  0.5676 -0.4329
 3696TIP3   OH211093   5.842   5.138   2.494 -0.6283 -0.1452 -0.6910
 3696TIP3    H111094   5.804   5.194   2.426 -0.5200 -1.3420 -1.7617
 3696TIP3    H211095   5.894   5.074   2.446  0.9889  0.1172  0.6304
 3697TIP3   OH211096   5.135   3.913   2.644  0.4202 -0.3168 -0.5400
 3697TIP3    H111097   5.218   3.909   2.595 -0.2239  0.4829 -1.7273
 3697TIP3    H211098   5.112   3.821   2.658  2.2451 -0.5921  1.1497
 3698TIP3   OH211099   0.179   4.569   1.776  0.0439 -0.2989  0.2845
 3698TIP3    H111100   0.214   4.641   1.725 -2.2706  0.6300 -0.0951
 3698TIP3    H211101   0.241   4.558   1.848  1.2477  1.0073 -0.5144
 3699TIP3   OH211102   0.095   3.220   4.911 -0.0034  0.1803  0.3640
 3699TIP3    H111103   0.184   3.202   4.882  0.2013 -0.6657  1.4383
 3699TIP3    H211104   0.041   3.158   4.861  0.1676 -0.1790  0.6151
 3700TIP3   OH211105   3.410   5.577   2.084  0.5113 -0.0468 -0.1848
 3700TIP3    H111106   3.497   5.611   2.105  0.9207 -0.1634 -1.6056
 3700TIP3    H211107   3.425   5.490   2.047 -0.2318 -0.1808 -0.1990
 3701TIP3   OH211108   2.510   1.661   4.378 -0.5793 -0.3007  0.0481
 3701TIP3    H111109   2.535   1.729   4.315  0.2719 -0.2848  0.3956
 3701TIP3    H211110   2.420   1.683   4.401 -1.3804 -1.0386 -2.1048
 3702TIP3   OH211111   5.683   4.089   1.052  0.2217 -0.2878  0.4896
 3702TIP3    H111112   5.680   4.126   1.141  0.0248 -0.2779  0.4797
 3702TIP3    H211113   5.748   4.018   1.058  2.3719  1.5181 -0.0501
 3703TIP3   OH211114   3.882   2.357   3.777 -0.7711  0.6271 -0.8080
 3703TIP3    H111115   3.843   2.430   3.728  0.5727  0.5317 -2.0849
 3703TIP3    H211116   3.971   2.349   3.742 -0.1920 -0.2985  0.7729
 3704TIP3   OH211117   3.208   1.668   0.259 -0.3279 -0.2824 -0.0479
 3704TIP3    H111118   3.223   1.762   0.246 -0.1449 -0.3015  0.0305
 3704TIP3    H211119   3.291   1.634   0.291  0.0326 -0.7219 -1.3634
 3705TIP3   OH211120   5.400   2.919   4.196 -0.0951 -0.5048  0.2024
 3705TIP3    H111121   5.409   2.867   4.116  0.7013 -0.2467  0.1205
 3705TIP3    H211122   5.489   2.947   4.218  0.4083 -3.9148  3.4746
 3706TIP3   OH211123   0.451   3.842   4.265 -0.1350 -0.1342  0.1286
 3706TIP3    H111124   0.487   3.754   4.279 -0.5441 -0.2901  0.2114
 3706TIP3    H211125   0.526   3.901   4.276  0.2014 -0.4929 -0.2284
 3707TIP3   OH211126   5.814   4.344   3.681 -0.2771 -0.3626  0.4794
 3707TIP3    H111127   5.775   4.395   3.751 -0.0356  0.3741  0.0918
 3707TIP3    H211128   5.895   4.391   3.659  0.3119 -1.2972  0.5782
 3708TIP3   OH211129   4.286   5.545   1.002 -0.4333 -0.1734 -0.2467
 3708TIP3    H111130   4.253   5.531   0.913 -0.3489  0.8403 -0.4468
 3708TIP3    H211131   4.326   5.632   0.999 -0.3603 -0.1651  0.7678
 3709TIP3   OH211132   1.640   0.581   5.042  0.1664 -0.4807  0.3391
 3709TIP3    H111133   1.653   0.510   5.105 -1.0405  0.4326  1.6915
 3709TIP3    H211134   1.648   0.661   5.094 -0.0896  0.3367 -0.8330
 3710TIP3   OH211135   6.094   3.039   3.610 -0.6178  0.0365 -0.1328
 3710TIP3    H111136   6.046   3.057   3.691  0.5679  0.6600  0.4703
 3710TIP3    H211137   6.096   2.944   3.604 -1.2357 -0.0097  0.2485
 3711TIP3   OH211138   3.755   1.521   0.114 -0.3238 -0.0586 -0.0773
 3711TIP3    H111139   3.848   1.520   0.138 -0.1725  0.7658 -0.5770
 3711TIP3    H211140   3.723   1.604   0.148 -1.3245 -1.0881  1.6324
 3712TIP3   OH211141   1.880   5.208   2.818 -0.2800  0.1644 -0.5299
 3712TIP3    H111142   1.915   5.142   2.758 -0.2584 -0.3476  0.0358
 3712TIP3    H211143   1.844   5.275   2.761  0.2168 -0.0578 -1.1186
 3713TIP3   OH211144   4.201   4.996   4.295 -0.6389 -0.2061 -0.6745
 3713TIP3    H111145   4.274   5.055   4.279  0.2617 -1.3437 -0.8859
 3713TIP3    H211146   4.197   4.988   4.391  0.1277 -0.8732 -0.6906
 3714TIP3   OH211147   5.489   1.859   4.560 -0.3909  0.5203 -0.5404
 3714TIP3    H111148   5.486   1.941   4.511 -1.3407 -0.8129 -2.8527
 3714TIP3    H211149   5.403   1.819   4.546  0.1411 -1.0119  0.2827
 3715TIP3   OH211150   6.127   5.167   0.901  0.0036 -0.1309  0.3169
 3715TIP3    H111151   6.130   5.122   0.817  1.7022 -0.4743  0.5180
 3715TIP3    H211152   6.110   5.259   0.878 -2.6939 -0.6635 -0.1401
 3716TIP3   OH211153   1.032   1.412   0.601 -0.4200 -0.2794  0.0873
 3716TIP3    H111154   1.106   1.447   0.552 -1.0840  0.3707 -0.4806
 3716TIP3    H211155   1.001   1.486   0.654  0.5967 -1.1023  1.9132
 3717TIP3   OH211156   3.666   4.202   2.962  0.2423 -0.3934 -0.2267
 3717TIP3    H111157   3.759   4.190   2.941 -0.0943 -1.7565 -1.0151
 3717TIP3    H211158   3.663   4.210   3.057  1.1749 -0.1597 -0.2096
 3718TIP3   OH211159   4.171   2.709   3.130 -0.1044  0.5322  0.0764
 3718TIP3    H111160   4.239   2.753   3.079  0.1492  1.2595  1.0074
 3718TIP3    H211161   4.218   2.642   3.180  0.1430  1.8048  1.6039
 3719TIP3   OH211162   5.206   1.024   1.517  0.5446  0.6793 -0.5207
 3719TIP3    H111163   5.252   1.091   1.567  0.5349 -0.3084  0.8441
 3719TIP3    H211164   5.220   0.943   1.565 -2.1629  0.2240 -0.3280
 3720TIP3   OH211165   5.813   3.659   4.552  0.3934  0.3816 -0.2739
 3720TIP3    H111166   5.802   3.667   4.457 -0.9116  4.1309  0.0157
 3720TIP3    H211167   5.724   3.666   4.587  0.8172 -1.2534  1.2847
 3721TIP3   OH211168   0.163   1.812   3.375  0.2499  0.4006  0.0406
 3721TIP3    H111169   0.095   1.851   3.321 -1.1187 -0.9415  0.7041
 3721TIP3    H211170   0.116   1.754   3.435  1.9847 -0.6515  0.4751
 3722TIP3   OH211171   4.535   3.330   0.575  0.1906  0.1300  0.0177
 3722TIP3    H111172   4.549   3.261   0.640 -1.2612 -0.1928  0.0051
 3722TIP3    H211173   4.494   3.401   0.624 -2.1423 -0.6152 -0.7619
 3723TIP3   OH211174   0.560   2.820   2.522  0.8130  0.2116 -0.2126
 3723TIP3    H111175   0.539   2.857   2.608 -1.1020 -2.7933  0.7574
 3723TIP3    H211176   0.493   2.856   2.464  0.5043  0.2327  0.1501
 3724TIP3   OH211177   2.608   0.031   3.816  0.2854 -0.2567  0.0847
 3724TIP3    H111178   2.614   0.038   3.911  0.4630 -1.5604  0.1881
 3724TIP3    H211179   2.689   0.070   3.784 -0.9247  2.6962  0.2753
 3725TIP3   OH211180   1.277   0.965   4.497 -0.1504  0.8056  0.2098
 3725TIP3    H111181   1.223   1.044   4.495  1.4438  2.0634  2.7363
 3725TIP3    H211182   1.229   0.904   4.554  0.1385  1.1627  0.8368
 3726TIP3   OH211183   4.764   5.296   1.639 -0.1621 -0.1260  0.6766
 3726TIP3    H111184   4.743   5.228   1.574 -0.7579 -0.3464  1.0916
 3726TIP3    H211185   4.708   5.369   1.616 -1.1243 -0.5660  1.5372
 3727TIP3   OH211186   1.588   4.549   1.269  0.3954  0.0946  0.3898
 3727TIP3    H111187   1.504   4.506   1.252  0.6074  0.8400 -3.4503
 3727TIP3    H211188   1.652   4.478   1.269 -0.0161 -0.2940  1.6031
 3728TIP3   OH211189   3.502   1.387   3.235  0.5385 -0.2368 -0.0009
 3728TIP3    H111190   3.516   1.354   3.323  0.4322 -0.3728 -0.0345
 3728TIP3    H211191   3.407   1.392   3.225  0.5548  0.7832  0.2601
 3729TIP3   OH211192   5.300   3.985   3.979  0.0670  0.1602  0.1942
 3729TIP3    H111193   5.374   4.028   4.022  1.6151 -0.9493 -1.2269
 3729TIP3    H211194   5.320   3.991   3.885 -1.4308 -0.5524 -0.1980
 3730TIP3   OH211195   1.677   3.206   4.874 -0.2173 -0.1367  0.3300
 3730TIP3    H111196   1.711   3.129   4.827 -2.4712 -0.2163 -1.3265
 3730TIP3    H211197   1.723   3.280   4.835 -0.7553 -0.3634 -0.7704
 3731TIP3   OH211198   2.627   3.061   5.095  0.2094  0.2436 -0.2106
 3731TIP3    H111199   2.546   3.015   5.118 -0.8110  1.9862 -0.1399
 3731TIP3    H211200   2.597   3.147   5.065  2.1172  1.4253  1.1011
 3732TIP3   OH211201   1.631   3.424   2.678  0.6241  1.1871  0.2918
 3732TIP3    H111202   1.680   3.395   2.601  0.0601  1.3763 -0.1487
 3732TIP3    H211203   1.558   3.475   2.642 -0.0913  0.6296  0.9125
 3733TIP3   OH211204   4.121   0.381   3.327 -0.3995 -0.0567 -0.5016
 3733TIP3    H111205   4.171   0.357   3.405  0.1344 -0.5412 -0.9838
 3733TIP3    H211206   4.030   0.384   3.357 -0.1705  0.0579  0.2026
 3734TIP3   OH211207   3.861   4.738   0.568  0.0132 -0.1270 -0.0918
 3734TIP3    H111208   3.818   4.655   0.547 -1.4906  0.4423  0.6295
 3734TIP3    H211209   3.858   4.744   0.663 -0.4245  0.9953 -0.1501
 3735TIP3   OH211210   0.528   0.421   3.354  0.2506 -0.3797 -0.1029
 3735TIP3    H111211   0.473   0.466   3.290  1.8891  1.4539 -0.3410
 3735TIP3    H211212   0.565   0.347   3.307  0.6425  0.3644 -1.0003
 3736TIP3   OH211213   6.356   5.439   5.171  0.5176  0.2384  0.2870
 3736TIP3    H111214   6.316   5.519   5.137 -2.0535 -0.9474  0.3070
 3736TIP3    H211215   6.289   5.400   5.225  1.5061 -2.2185 -0.1297
 3737TIP3   OH211216   2.198   4.407   4.654 -0.0727 -0.0260  0.3155
 3737TIP3    H111217   2.180   4.495   4.620  1.8771 -0.3780 -1.8870
 3737TIP3    H211218   2.140   4.350   4.605  1.1334 -0.2896 -0.8677
 3738TIP3   OH211219   6.002   0.176   3.737 -0.0640 -0.1988  0.1386
 3738TIP3    H111220   6.074   0.120   3.765  1.0183  0.6941 -0.7618
 3738TIP3    H211221   5.982   0.147   3.648 -0.6467 -0.2527  0.2801
 3739TIP3   OH211222   4.525   0.080   4.504 -0.2067 -0.0197 -0.4242
 3739TIP3    H111223   4.495   0.166   4.531 -0.6242 -0.2286 -0.2146
 3739TIP3    H211224   4.506   0.023   4.578  0.5221 -0.2000 -0.3693
 3740TIP3   OH211225   0.742   5.413   2.724  0.2891  0.6654 -0.3596
 3740TIP3    H111226   0.780   5.452   2.803  0.0745  3.0773 -1.3599
 3740TIP3    H211227   0.716   5.325   2.751  1.9862  0.7175  1.7013
 3741TIP3   OH211228   6.317   0.886   4.554  0.1650  0.3047 -0.2961
 3741TIP3    H111229   6.375   0.931   4.615 -0.1337 -0.7653  0.8215
 3741TIP3    H211230   6.288   0.808   4.602  0.3275 -0.8592 -1.9872
 3742TIP3   OH211231   4.030   5.047   4.045  0.4264  0.1843 -0.4531
 3742TIP3    H111232   3.947   5.067   4.088 -0.0143  0.7887 -1.5240
 3742TIP3    H211233   4.094   5.042   4.116 -0.2807  1.0299  0.2629
 3743TIP3   OH211234   6.325   4.169   4.716  0.0590  0.0345 -0.0005
 3743TIP3    H111235   6.349   4.155   4.808 -1.8876  2.0222  0.9056
 3743TIP3    H211236   6.266   4.096   4.696 -0.3499  0.1649  0.6846
 3744TIP3   OH211237   1.725   5.604   3.857 -0.3956  0.3499 -0.4700
 3744TIP3    H111238   1.755   5.692   3.881  1.4283 -0.2065 -0.5327
 3744TIP3    H211239   1.804   5.559   3.828 -0.3603 -2.6542  3.4175
 3745TIP3   OH211240   4.813   1.027   2.453 -0.4893  0.0893  0.2233
 3745TIP3    H111241   4.766   1.020   2.370  0.7752  1.9374 -0.7410
 3745TIP3    H211242   4.755   1.078   2.510 -0.3266  1.0793 -0.4559
 3746TIP3   OH211243   4.211   1.270   0.753 -0.1607  0.0782  0.0209
 3746TIP3    H111244   4.247   1.211   0.686 -1.9503  0.8031 -1.6657
 3746TIP3    H211245   4.270   1.345   0.753 -0.3032  0.2020 -0.9767
 3747TIP3   OH211246   5.583   0.707   4.373  0.1876 -0.1698 -0.3153
 3747TIP3    H111247   5.528   0.629   4.366  0.4012 -0.5533  1.5363
 3747TIP3    H211248   5.542   0.759   4.442  0.3221  1.1414 -1.1892
 3748TIP3   OH211249   3.070   2.563   0.656  0.2415  0.0832  0.1782
 3748TIP3    H111250   3.010   2.489   0.665  0.4518  0.0795  1.8745
 3748TIP3    H211251   3.157   2.525   0.665  0.3925  0.4255  0.1796
 3749TIP3   OH211252   2.355   2.067   0.961  0.3015  0.1561 -0.0543
 3749TIP3    H111253   2.351   2.163   0.954  0.2084  0.1826  0.3042
 3749TIP3    H211254   2.263   2.040   0.969  0.2158 -0.0949 -1.6393
 3750TIP3   OH211255   4.844   4.156   0.372 -1.0088  0.4198 -0.3068
 3750TIP3    H111256   4.865   4.243   0.405 -1.5251  0.0059  1.1810
 3750TIP3    H211257   4.908   4.098   0.415 -1.1348 -0.0370 -0.7193
 3751TIP3   OH211258   3.478   0.149   3.321  0.2766 -0.6405 -0.4250
 3751TIP3    H111259   3.494   0.231   3.274 -0.5201  0.1272  0.6084
 3751TIP3    H211260   3.387   0.128   3.302  0.4459 -1.2461 -0.5928
 3752TIP3   OH211261   4.492   5.750   0.448  0.1614 -0.0598  0.0877
 3752TIP3    H111262   4.544   5.676   0.479  0.0013 -0.4118 -0.4824
 3752TIP3    H211263   4.554   5.804   0.400  0.4565  0.5907  1.1483
 3753TIP3   OH211264   5.248   5.797   1.849  0.7407  0.2014 -0.7189
 3753TIP3    H111265   5.277   5.729   1.909  1.7483 -0.3581 -1.7849
 3753TIP3    H211266   5.173   5.760   1.804 -0.0043  0.6147  0.1489
 3754TIP3   OH211267   3.921   1.995   4.436  0.3560  0.5003 -0.0096
 3754TIP3    H111268   3.954   2.079   4.467 -2.7665  1.9484 -0.2973
 3754TIP3    H211269   3.899   2.010   4.344 -0.1739 -0.6785 -0.0954
 3755TIP3   OH211270   2.565   4.402   2.956 -0.4849 -0.0824  0.0538
 3755TIP3    H111271   2.509   4.370   2.885  0.1259 -0.8005 -0.1112
 3755TIP3    H211272   2.584   4.493   2.932 -1.1088 -0.0074 -0.1795
 3756TIP3   OH211273   2.353   5.643   5.146  0.7576  0.1498 -0.5799
 3756TIP3    H111274   2.333   5.627   5.054  0.7032 -1.0778 -0.3616
 3756TIP3    H211275   2.448   5.632   5.153  0.5234 -1.8121 -0.1088
 3757TIP3   OH211276   4.183   4.115   2.464 -0.2267  0.3328  0.2373
 3757TIP3    H111277   4.252   4.101   2.398 -0.8622 -1.1958 -0.1422
 3757TIP3    H211278   4.210   4.194   2.510 -0.8918  2.8594 -3.3065
 3758TIP3   OH211279   4.070   1.999   2.990  0.0008 -0.1345 -0.2899
 3758TIP3    H111280   3.987   2.030   3.026  0.1257  0.8731 -0.8183
 3758TIP3    H211281   4.126   1.988   3.066 -0.5305 -0.5790  0.0504
 3759TIP3   OH211282   2.515   2.738   4.933  0.0439  0.3298 -0.0049
 3759TIP3    H111283   2.582   2.701   4.876  0.1246  0.6397 -0.1167
 3759TIP3    H211284   2.433   2.722   4.887  0.1995  1.6041 -0.7984
 3760TIP3   OH211285   1.565   2.454   3.707  0.0263 -0.2529 -0.5585
 3760TIP3    H111286   1.480   2.495   3.718 -0.1069 -0.5093 -0.6149
 3760TIP3    H211287   1.623   2.502   3.767  0.2222  0.9856 -1.7045
 3761TIP3   OH211288   5.267   3.770   2.919 -0.3425 -0.2767 -0.4647
 3761TIP3    H111289   5.357   3.786   2.890 -0.8476  1.8711 -1.0278
 3761TIP3    H211290   5.265   3.804   3.009 -0.4177 -1.0415 -0.1673
 3762TIP3   OH211291   5.231   3.735   1.722 -0.1479  0.5425  0.5982
 3762TIP3    H111292   5.279   3.744   1.804  1.0617  2.1897 -0.2274
 3762TIP3    H211293   5.214   3.825   1.695 -1.2072  0.0124 -0.5855
 3763TIP3   OH211294   0.070   3.687   1.607 -0.1751 -0.3043 -0.4470
 3763TIP3    H111295   0.127   3.611   1.597 -2.3247 -1.9509 -0.7937
 3763TIP3    H211296   0.047   3.688   1.700  0.0946  0.1526 -0.3772
 3764TIP3   OH211297   1.412   1.387   5.108  0.4327 -0.5975 -0.0499
 3764TIP3    H111298   1.466   1.425   5.178 -0.9030  0.6771  0.3400
 3764TIP3    H211299   1.475   1.342   5.051  1.7346 -0.2989  1.0949
 3765TIP3   OH211300   3.505   5.965   2.771  0.1993 -0.0477  0.5598
 3765TIP3    H111301   3.492   5.890   2.828 -0.3804  1.4093  2.4607
 3765TIP3    H211302   3.569   6.019   2.818  0.6376  0.6235 -0.7794
 3766TIP3   OH211303   5.741   2.359   4.639  0.4518  0.0837 -0.1889
 3766TIP3    H111304   5.744   2.439   4.587  1.5761  1.4554  1.8198
 3766TIP3    H211305   5.709   2.388   4.725  1.5672 -1.4804  0.8043
 3767TIP3   OH211306   2.245   3.080   0.907 -0.1618  0.6032  0.0772
 3767TIP3    H111307   2.220   3.044   0.822 -0.6321  0.2509  0.3641
 3767TIP3    H211308   2.312   3.019   0.939  0.1086  0.8067 -0.0930
 3768TIP3   OH211309   4.207   4.905   2.723 -0.1048  0.3378  0.2829
 3768TIP3    H111310   4.252   4.875   2.802 -0.8351 -1.3774  0.0963
 3768TIP3    H211311   4.260   4.872   2.651 -1.2541 -1.1806  0.0702
 3769TIP3   OH211312   1.341   4.875   2.390  0.4007 -0.2490 -0.5898
 3769TIP3    H111313   1.384   4.809   2.444  2.2033  2.3873  1.4513
 3769TIP3    H211314   1.412   4.920   2.344 -0.6379  0.8812 -1.1804
 3770TIP3   OH211315   5.076   0.700   3.002 -0.6688 -0.0302 -0.7652
 3770TIP3    H111316   5.145   0.648   3.045 -0.2623  0.6490 -0.5891
 3770TIP3    H211317   4.994   0.662   3.035 -0.3842  0.8831  1.1680
 3771TIP3   OH211318   4.470   5.014   1.105  0.0716 -0.4999 -0.0771
 3771TIP3    H111319   4.392   4.985   1.153  0.2800  2.0587  1.9900
 3771TIP3    H211320   4.544   4.982   1.158  0.3100  1.3514  0.7941
 3772TIP3   OH211321   5.144   5.519   0.057  0.1173 -0.0693  0.0757
 3772TIP3    H111322   5.116   5.606   0.027  2.3265  0.5873 -0.2584
 3772TIP3    H211323   5.232   5.534   0.093  0.5703 -2.1928 -0.0629
 3773TIP3   OH211324   3.866   2.555   2.390 -0.2232 -0.0683  0.0761
 3773TIP3    H111325   3.817   2.606   2.454  1.4381 -0.9530  2.2131
 3773TIP3    H211326   3.909   2.620   2.335 -0.5767  0.7654  0.7621
 3774TIP3   OH211327   5.109   6.011   1.657 -0.2220 -0.0847 -0.2431
 3774TIP3    H111328   5.148   5.990   1.573 -0.8820  0.2540 -0.6465
 3774TIP3    H211329   5.035   5.950   1.666  0.6084 -0.9938  0.6943
 3775TIP3   OH211330   1.020   2.184   3.864 -0.2613  0.0973 -0.4749
 3775TIP3    H111331   0.951   2.242   3.831 -1.7151 -0.4824  1.3480
 3775TIP3    H211332   0.972   2.116   3.911  1.5709 -0.6395  0.3900
 3776TIP3   OH211333   5.097   4.652   5.040  0.0453 -0.0133  0.5076
 3776TIP3    H111334   5.128   4.741   5.027 -1.1487  0.3417 -0.0248
 3776TIP3    H211335   5.116   4.607   4.957 -0.2858  0.0258  0.4118
 3777TIP3   OH211336   0.684   0.666   4.293 -0.1281  0.0358  0.2179
 3777TIP3    H111337   0.718   0.598   4.235  0.2660 -0.1556  0.6655
 3777TIP3    H211338   0.593   0.640   4.309  0.4856 -1.3441  1.7399
 3778TIP3   OH211339   1.556   2.522   1.920  0.0846 -0.5744  0.4122
 3778TIP3    H111340   1.495   2.561   1.857  0.1949 -0.8575  0.1272
 3778TIP3    H211341   1.549   2.578   1.997  0.9917  0.6187 -0.3439
 3779TIP3   OH211342   4.335   4.061   4.447  0.3533 -0.7583 -0.7073
 3779TIP3    H111343   4.254   4.018   4.476  0.3949 -0.4464 -0.1239
 3779TIP3    H211344   4.349   4.028   4.358 -0.0124 -1.3901 -0.5352
 3780TIP3   OH211345   1.312   4.859   3.760  0.1761 -0.4316  0.1874
 3780TIP3    H111346   1.400   4.895   3.745 -0.3219  0.9702  0.4803
 3780TIP3    H211347   1.326   4.764   3.767  1.4044 -0.4538 -1.7276
 3781TIP3   OH211348  -0.025   4.766   3.275 -0.1284 -0.0908  0.2797
 3781TIP3    H111349   0.052   4.715   3.248 -0.9207 -0.3856 -1.5896
 3781TIP3    H211350   0.012   4.849   3.306  0.9554 -0.1871 -0.6730
 3782TIP3   OH211351   0.821   3.194   0.589  0.4349  0.0594  0.2666
 3782TIP3    H111352   0.750   3.216   0.649 -0.1402 -1.1221  0.0721
 3782TIP3    H211353   0.778   3.140   0.522  1.7149 -1.7375  0.8170
 3783TIP3   OH211354   6.018   1.495   4.735  0.4137  0.0159 -0.3143
 3783TIP3    H111355   6.089   1.435   4.753 -0.7100 -1.3850 -0.3914
 3783TIP3    H211356   6.038   1.573   4.787  2.0987 -0.2449 -0.5276
 3784TIP3   OH211357   5.810   5.054   3.325  0.2380 -0.1493 -0.2349
 3784TIP3    H111358   5.825   4.981   3.386 -0.4516  1.9206  2.5924
 3784TIP3    H211359   5.894   5.063   3.279  1.3891 -0.8106  1.5971
 3785TIP3   OH211360   2.529   3.961   2.006 -0.5299  0.2509  0.0318
 3785TIP3    H111361   2.529   3.873   1.967  1.2482  0.4998 -0.6393
 3785TIP3    H211362   2.539   3.946   2.100  0.5701 -0.2814 -0.1488
 3786TIP3   OH211363   4.619   1.578   2.072 -0.3144  0.8328  0.1893
 3786TIP3    H111364   4.640   1.671   2.067 -1.4379  1.1494  0.9849
 3786TIP3    H211365   4.577   1.558   1.988  0.1798  0.9656 -0.0936
 3787TIP3   OH211366   4.800   1.194   4.142  0.2899 -0.3369 -0.5185
 3787TIP3    H111367   4.878   1.235   4.103  0.6257 -1.2856 -0.8829
 3787TIP3    H211368   4.760   1.145   4.070 -0.4298 -0.1746 -0.2339
 3788TIP3   OH211369   3.502   0.443   2.693  0.4241 -0.0777 -0.3553
 3788TIP3    H111370   3.594   0.431   2.715  0.1996 -0.7493  0.2425
 3788TIP3    H211371   3.468   0.355   2.680  0.0298  0.1983 -1.3101
 3789TIP3   OH211372   3.685   5.292   2.527  0.5648  0.8336  0.2519
 3789TIP3    H111373   3.708   5.365   2.584  1.3018  0.8079 -0.0026
 3789TIP3    H211374   3.748   5.223   2.549 -0.1794  0.2252  0.5639
 3790TIP3   OH211375   5.684   2.098   3.444  0.1164  0.2488 -0.4023
 3790TIP3    H111376   5.596   2.072   3.416 -0.3699 -1.2724  2.1346
 3790TIP3    H211377   5.741   2.030   3.409 -0.0135  0.1626 -0.4474
 3791TIP3   OH211378   5.773   1.040   3.639 -0.2918 -0.6325 -0.3206
 3791TIP3    H111379   5.707   1.100   3.603 -0.1396  0.7823  1.5985
 3791TIP3    H211380   5.722   0.966   3.673 -0.6367 -0.8017 -1.1776
 3792TIP3   OH211381   5.790   4.171   3.080  0.0299  0.2111  0.0845
 3792TIP3    H111382   5.873   4.211   3.054 -0.3749  1.1556  0.2081
 3792TIP3    H211383   5.816   4.093   3.130  0.9457  2.2196  2.9773
 3793TIP3   OH211384   0.904   5.735   4.234 -0.6456 -0.3667 -0.1049
 3793TIP3    H111385   0.928   5.717   4.143 -2.5225 -0.6673 -0.5751
 3793TIP3    H211386   0.851   5.659   4.261 -0.4504 -0.0978  1.1187
 3794TIP3   OH211387   2.340   3.263   1.451  0.2746  0.1893 -0.4386
 3794TIP3    H111388   2.345   3.192   1.388  1.1786 -0.5612  0.4345
 3794TIP3    H211389   2.420   3.315   1.436 -0.3641  1.0185 -1.0529
 3795TIP3   OH211390   5.933   3.701   3.809  0.1361 -0.0294  0.1396
 3795TIP3    H111391   5.849   3.745   3.802 -0.1589 -0.6247 -0.0737
 3795TIP3    H211392   5.919   3.633   3.875  0.5855  0.1848  0.4602
 3796TIP3   OH211393   0.256   4.934   3.115 -0.6319  0.5463  0.1472
 3796TIP3    H111394   0.332   4.990   3.101 -0.6540  0.6282  0.3442
 3796TIP3    H211395   0.202   4.982   3.178 -1.7185  1.3244 -1.3371
 3797TIP3   OH211396   3.520   4.009   2.022  0.1003  0.4254  0.4152
 3797TIP3    H111397   3.453   3.972   2.078  0.4496 -0.5487  0.2066
 3797TIP3    H211398   3.510   4.104   2.031 -1.6918  0.3136 -0.0710
 3798TIP3   OH211399   5.439   4.203   2.118 -0.7066  0.5344 -0.0506
 3798TIP3    H111400   5.415   4.254   2.041  1.0965  1.2387 -0.1896
 3798TIP3    H211401   5.534   4.210   2.123 -0.7877  0.7804  2.4328
 3799TIP3   OH211402   0.629   4.720   4.814 -0.4918  0.9969 -0.7023
 3799TIP3    H111403   0.642   4.664   4.738  0.3092 -0.3831  0.4009
 3799TIP3    H211404   0.639   4.662   4.889  2.6590  2.9475  0.6077
 3800TIP3   OH211405   5.258   1.445   2.071 -0.0794  0.0251  0.2883
 3800TIP3    H111406   5.236   1.401   2.154 -0.2082 -2.1745 -0.8331
 3800TIP3    H211407   5.191   1.414   2.010  2.6480 -2.2661 -1.8093
 3801TIP3   OH211408   4.248   2.482   2.392  0.0270 -0.3478 -0.2139
 3801TIP3    H111409   4.276   2.492   2.301  0.1030  1.9537 -0.0170
 3801TIP3    H211410   4.209   2.567   2.414 -1.0284 -1.2307  1.5664
 3802TIP3   OH211411   2.815   5.834   3.517 -0.2645  0.2907  0.1671
 3802TIP3    H111412   2.762   5.902   3.476 -0.4828 -0.8888 -1.6273
 3802TIP3    H211413   2.759   5.797   3.585 -1.4152 -0.2738 -1.0463
 3803TIP3   OH211414   3.328   3.154   0.568  0.2708 -0.4222 -0.0376
 3803TIP3    H111415   3.372   3.079   0.529  0.6576 -1.4496  2.2080
 3803TIP3    H211416   3.389   3.187   0.634 -1.0016  0.1537  0.8980
 3804TIP3   OH211417   3.335   1.957   2.082  0.0288  0.3954 -0.4229
 3804TIP3    H111418   3.245   1.990   2.089 -0.9757 -2.2964  0.6578
 3804TIP3    H211419   3.363   1.944   2.173  0.8255 -0.4419 -0.7740
 3805TIP3   OH211420   3.453   0.518   3.447  0.4761  0.1674  0.0158
 3805TIP3    H111421   3.458   0.472   3.363  0.4843 -1.4039  0.8261
 3805TIP3    H211422   3.368   0.493   3.483 -0.8902  3.2108 -0.7628
 3806TIP3   OH211423   1.144   3.702   3.350  0.0297  0.5150  0.5821
 3806TIP3    H111424   1.122   3.774   3.409 -0.2149  1.4596 -0.6186
 3806TIP3    H211425   1.059   3.665   3.324  0.1644 -0.4429  1.4536
 3807TIP3   OH211426   2.087   0.124   0.077  0.4694 -0.7951 -0.5209
 3807TIP3    H111427   2.137   0.047   0.049  0.1952 -1.1772  0.0098
 3807TIP3    H211428   2.085   0.118   0.173  0.9809  0.2270 -0.4387
 3808TIP3   OH211429   5.013   0.001   0.406 -0.0680 -0.5986 -1.0834
 3808TIP3    H111430   4.937  -0.043   0.368 -2.1758  2.2800 -0.5961
 3808TIP3    H211431   5.047   0.055   0.335  0.1255 -0.2139 -0.7025
 3809TIP3   OH211432   0.153   0.692   4.463 -0.5422  0.0904 -0.0819
 3809TIP3    H111433   0.166   0.782   4.491  0.7253  0.0190 -0.4115
 3809TIP3    H211434   0.057   0.681   4.461 -0.7063  1.4371 -0.1277
 3810TIP3   OH211435   2.270   4.461   0.511  0.5925  0.5048  0.2659
 3810TIP3    H111436   2.348   4.464   0.455 -0.4664 -0.0376 -1.2816
 3810TIP3    H211437   2.245   4.552   0.522  0.7943  0.6113 -0.1531
 3811TIP3   OH211438   6.263   4.201   4.300 -0.2864 -0.1446  0.1321
 3811TIP3    H111439   6.257   4.227   4.208 -3.0866 -2.0773 -0.3369
 3811TIP3    H211440   6.269   4.106   4.298  2.2535 -0.1165  1.9667
 3812TIP3   OH211441   4.825   4.577   5.141  0.5101 -0.2856  0.1844
 3812TIP3    H111442   4.917   4.602   5.142  0.5729 -0.5120  0.1109
 3812TIP3    H211443   4.823   4.495   5.091  0.0559  0.5606 -1.2433
 3813TIP3   OH211444   4.636   5.839   4.938 -0.4681 -0.1839  0.4840
 3813TIP3    H111445   4.630   5.753   4.897 -1.5744 -0.1106  0.4566
 3813TIP3    H211446   4.682   5.894   4.874 -0.3552 -0.5864  0.2210
 3814TIP3   OH211447   1.575   0.581   0.417 -0.2259 -0.5849 -0.9413
 3814TIP3    H111448   1.574   0.593   0.322 -0.2015 -1.8266 -1.1122
 3814TIP3    H211449   1.666   0.559   0.438  0.1586  1.3519 -0.3806
 3815TIP3   OH211450   2.076   1.771   1.267  0.5630 -0.3651 -0.1597
 3815TIP3    H111451   2.093   1.863   1.250  2.0806 -0.6834 -0.5227
 3815TIP3    H211452   2.075   1.763   1.362 -1.0080  0.2525 -0.1096
 3816TIP3   OH211453   3.401   0.534   1.786  0.4032 -0.0565 -0.2679
 3816TIP3    H111454   3.357   0.476   1.848 -0.2489  1.1031  0.3712
 3816TIP3    H211455   3.492   0.536   1.816  0.5675 -1.1809 -0.6355
 3817TIP3   OH211456   0.583   1.342   3.687  0.4443  0.2795 -0.3724
 3817TIP3    H111457   0.551   1.432   3.674  0.6306  0.7334  1.9888
 3817TIP3    H211458   0.504   1.292   3.708  0.7041  0.5974  1.5304
 3818TIP3   OH211459   1.707   2.401   0.108 -0.5280 -0.0449 -0.4989
 3818TIP3    H111460   1.630   2.371   0.157  0.8964 -2.1448  0.6298
 3818TIP3    H211461   1.763   2.441   0.174  1.2941 -2.6543 -0.3446
 3819TIP3   OH211462   5.031   1.184   3.481  0.2275 -0.5505  1.3824
 3819TIP3    H111463   5.062   1.250   3.419  1.2498 -1.3280  1.0364
 3819TIP3    H211464   4.935   1.186   3.473  0.3387 -2.2394 -2.0131
 3820TIP3   OH211465   5.208   0.622   4.791  0.4124 -0.5640  0.4766
 3820TIP3    H111466   5.168   0.708   4.801  1.6946  0.0888  0.3004
 3820TIP3    H211467   5.278   0.621   4.856  1.4231 -0.8189 -0.5603
 3821TIP3   OH211468   4.958   5.419   3.049 -0.4401  0.2344  0.0938
 3821TIP3    H111469   4.991   5.504   3.080  0.1430 -0.3185  1.0026
 3821TIP3    H211470   4.900   5.389   3.118 -1.1401  0.1729 -0.5116
 3822TIP3   OH211471   3.449   4.180   2.448  0.3258  0.0066 -0.1785
 3822TIP3    H111472   3.539   4.156   2.469  0.5661 -0.9215 -2.0780
 3822TIP3    H211473   3.405   4.187   2.533  2.2352  0.7563  0.7938
 3823TIP3   OH211474   0.472   5.460   4.957  0.0383 -0.1206  0.1162
 3823TIP3    H111475   0.475   5.365   4.970  1.9903 -0.2092 -0.6230
 3823TIP3    H211476   0.394   5.475   4.904 -0.0058 -1.3735 -0.1932
 3824TIP3   OH211477   1.719   0.803   1.363  0.1502  0.2666  0.1557
 3824TIP3    H111478   1.680   0.834   1.445 -1.9285  2.0850 -1.4039
 3824TIP3    H211479   1.690   0.713   1.356 -1.7622  0.8269  0.2775
 3825TIP3   OH211480   6.148   3.742   2.374 -0.2898  0.0618 -0.8277
 3825TIP3    H111481   6.206   3.717   2.302 -0.5865  0.1992 -1.1183
 3825TIP3    H211482   6.086   3.669   2.381 -1.2750  0.7736 -1.8028
 3826TIP3   OH211483   3.889   3.580   1.586  0.0719  0.4042  0.0995
 3826TIP3    H111484   3.810   3.562   1.536 -0.0167 -3.1429  1.2829
 3826TIP3    H211485   3.869   3.659   1.636 -3.4001 -1.1920  1.5154
 3827TIP3   OH211486   5.182   3.026   1.638 -0.0260 -0.6056  0.0520
 3827TIP3    H111487   5.248   3.003   1.573  0.2887 -3.0161  1.0855
 3827TIP3    H211488   5.232   3.052   1.715 -0.3204 -0.3177  0.1461
 3828TIP3   OH211489   4.118   3.115   3.058  0.2282 -0.0808  0.8066
 3828TIP3    H111490   4.171   3.132   3.135 -0.4443 -2.4668  1.8906
 3828TIP3    H211491   4.040   3.071   3.092 -0.7069 -0.0082 -1.1146
 3829TIP3   OH211492   0.827   4.148   3.129  0.1962 -0.2313  0.3026
 3829TIP3    H111493   0.819   4.059   3.164  2.5366  0.8203  4.1571
 3829TIP3    H211494   0.757   4.197   3.172 -0.0208  0.1680 -0.4840
 3830TIP3   OH211495   0.336   1.092   4.302  0.5050  0.0019  0.1897
 3830TIP3    H111496   0.315   1.051   4.386 -0.2816  1.6341  0.8369
 3830TIP3    H211497   0.426   1.124   4.313  0.4218  0.1672  0.4001
 3831TIP3   OH211498   2.430   0.990   2.436 -0.5809  0.4486 -0.0810
 3831TIP3    H111499   2.474   0.981   2.351 -0.0326 -0.1028  0.2551
 3831TIP3    H211500   2.349   0.940   2.426 -0.0496 -0.4530  0.0390
 3832TIP3   OH211501   2.541   3.862   1.333  0.3239 -0.4037  0.4670
 3832TIP3    H111502   2.479   3.879   1.404  0.9663  0.1801  0.8981
 3832TIP3    H211503   2.542   3.767   1.325  0.2898 -0.4813  1.2909
 3833TIP3   OH211504   5.434   4.209   0.635 -0.2816  1.1531  0.4516
 3833TIP3    H111505   5.472   4.155   0.705  0.1448 -0.0720 -0.6773
 3833TIP3    H211506   5.510   4.245   0.589 -0.3426 -1.1761 -1.7183
 3834TIP3   OH211507   2.166   1.750   4.795  0.0076 -0.5386 -0.3728
 3834TIP3    H111508   2.076   1.777   4.777 -0.2165 -0.6717  0.5208
 3834TIP3    H211509   2.157   1.669   4.845  0.4893  1.1391  2.6920
 3835TIP3   OH211510   0.469   3.289   0.103 -0.3616 -0.6558 -0.4971
 3835TIP3    H111511   0.393   3.305   0.160 -1.6852 -1.6478 -1.8962
 3835TIP3    H211512   0.443   3.215   0.048  1.4743 -0.7434 -1.3313
 3836TIP3   OH211513   6.055   5.963   1.096 -0.7071  0.0824  0.1376
 3836TIP3    H111514   6.032   6.035   1.037 -0.9581 -0.5328 -0.5400
 3836TIP3    H211515   6.145   5.940   1.072 -1.4436 -1.4408 -1.4001
 3837TIP3   OH211516   2.877   3.311   3.574  0.0805  0.5250 -0.0643
 3837TIP3    H111517   2.956   3.342   3.528 -0.9320  2.1891 -0.7710
 3837TIP3    H211518   2.857   3.227   3.533  1.9193 -0.3371  0.6847
 3838TIP3   OH211519   2.948   2.717   0.916 -0.4324 -0.5552  0.1912
 3838TIP3    H111520   2.977   2.702   0.826 -0.6056 -1.4886  0.2824
 3838TIP3    H211521   2.916   2.632   0.946 -0.4005 -0.2509  1.1315
 3839TIP3   OH211522   2.662   0.417   4.481 -0.6447 -0.7475  0.4784
 3839TIP3    H111523   2.720   0.408   4.405 -1.0759  0.1020  0.0356
 3839TIP3    H211524   2.719   0.448   4.551 -0.4155 -0.6662  0.2593
 3840TIP3   OH211525   1.844   4.286   1.619  0.0437  0.0167  0.0278
 3840TIP3    H111526   1.880   4.198   1.612  0.2105  0.1542 -1.0305
 3840TIP3    H211527   1.874   4.318   1.704 -0.0812 -0.9671  0.4597
 3841TIP3   OH211528   4.663   5.983   5.157 -0.1560 -0.1276  0.0908
 3841TIP3    H111529   4.654   5.933   5.076  0.6418  0.4223 -0.3419
 3841TIP3    H211530   4.582   5.964   5.205 -0.5054 -0.6964 -0.6946
 3842TIP3   OH211531   5.234   1.746   1.181  0.9816 -0.2015  0.2441
 3842TIP3    H111532   5.307   1.690   1.155 -0.7265 -2.2257 -0.4449
 3842TIP3    H211533   5.214   1.797   1.102 -0.3819 -2.0425 -0.6822
 3843TIP3   OH211534   1.220   4.580   4.008 -0.4996 -0.0335  0.1575
 3843TIP3    H111535   1.235   4.568   3.914  0.4533 -0.4703  0.3486
 3843TIP3    H211536   1.125   4.581   4.018 -0.6089  0.2381 -0.8385
 3844TIP3   OH211537   2.724   2.373   4.018  0.0466  0.1032  0.3817
 3844TIP3    H111538   2.782   2.299   4.037 -1.1325 -0.8163  0.5299
 3844TIP3    H211539   2.672   2.345   3.942  2.2016  2.3194 -2.1156
 3845TIP3   OH211540   3.224   2.822   1.193 -0.1672  0.6800 -0.2486
 3845TIP3    H111541   3.167   2.746   1.205 -0.6015  0.8131 -1.3456
 3845TIP3    H211542   3.251   2.817   1.101  0.4924  1.3799 -0.1035
 3846TIP3   OH211543   2.907   3.159   4.965  0.0307 -0.2464  0.3458
 3846TIP3    H111544   2.820   3.174   5.002 -1.0667 -0.8579 -1.8296
 3846TIP3    H211545   2.895   3.087   4.903  1.7374  0.6434 -1.1239
 3847TIP3   OH211546   5.595   1.844   0.697 -0.3565 -0.1418  0.4052
 3847TIP3    H111547   5.565   1.907   0.632  0.1201 -1.7636 -1.4843
 3847TIP3    H211548   5.568   1.881   0.781 -0.8136  2.1294 -0.6789
 3848TIP3   OH211549   6.193   5.777   3.740 -0.1983 -0.1398 -0.0096
 3848TIP3    H111550   6.266   5.717   3.756  0.3586  0.4699 -0.2284
 3848TIP3    H211551   6.169   5.763   3.648  0.8665  0.9658 -0.4777
 3849TIP3   OH211552   3.113   4.667   1.523 -0.0453  0.0838 -0.4373
 3849TIP3    H111553   3.042   4.719   1.485 -0.9718 -2.6662 -2.8435
 3849TIP3    H211554   3.069   4.609   1.586  0.3897 -0.1940 -0.3852
 3850TIP3   OH211555   0.477   1.755   1.629 -0.1413  0.2639 -0.2709
 3850TIP3    H111556   0.562   1.799   1.624 -0.0074  0.1639  0.9342
 3850TIP3    H211557   0.487   1.689   1.698 -0.8857 -0.4498 -0.8246
 3851TIP3   OH211558   1.713   4.064   0.779 -0.7499  0.1778 -0.5878
 3851TIP3    H111559   1.786   4.102   0.730  0.0078  0.0001  0.3686
 3851TIP3    H211560   1.640   4.124   0.765 -0.2971  0.5931 -1.2061
 3852TIP3   OH211561   0.942   4.218   0.838  0.1444 -0.1298  0.2832
 3852TIP3    H111562   0.872   4.231   0.903  0.0983  1.6718 -0.0742
 3852TIP3    H211563   0.916   4.273   0.764  2.1883  1.0272  0.3575
 3853TIP3   OH211564   0.467   5.124   3.117 -0.3821  0.0196 -0.0514
 3853TIP3    H111565   0.459   5.106   3.211  4.7010  0.6164  0.7423
 3853TIP3    H211566   0.485   5.217   3.112  0.0603 -0.1277 -1.5601
 3854TIP3   OH211567   1.161   1.336   2.041  0.0656  0.2158  0.6017
 3854TIP3    H111568   1.117   1.332   2.126 -0.7294  1.9535  0.3113
 3854TIP3    H211569   1.209   1.419   2.043 -0.5060  0.6014 -0.8936
 3855TIP3   OH211570   2.577   0.979   3.536  0.0184 -0.0288  0.1457
 3855TIP3    H111571   2.505   0.917   3.537  1.5141 -1.8582 -0.5511
 3855TIP3    H211572   2.560   1.036   3.461 -1.8961  1.1631  1.3853
 3856TIP3   OH211573   3.138   4.129   2.005  0.1210 -0.4277 -0.0679
 3856TIP3    H111574   3.225   4.151   1.972  0.4994  0.3665  1.3742
 3856TIP3    H211575   3.132   4.174   2.089 -1.8117 -0.2264 -0.2747
 3857TIP3   OH211576   2.883   2.353   1.277 -0.1603  0.8869  0.0396
 3857TIP3    H111577   2.947   2.281   1.278  0.9711  1.7804 -1.7289
 3857TIP3    H211578   2.801   2.312   1.251  0.2266  0.0886  0.0296
 3858TIP3   OH211579   4.974   4.984   0.840 -0.3940 -0.2899  0.2984
 3858TIP3    H111580   4.942   5.038   0.768 -0.2423  0.6133  0.8985
 3858TIP3    H211581   5.069   4.996   0.839 -0.2025 -1.6032 -0.3870
 3859TIP3   OH211582   4.025   5.814   1.147  0.6338  0.3542 -0.2907
 3859TIP3    H111583   4.076   5.757   1.205  2.3076  1.3007 -0.7693
 3859TIP3    H211584   4.023   5.767   1.063  1.5418  0.7412 -0.5337
 3860TIP3   OH211585   4.163   1.416   0.409  0.5339 -0.2547  0.2722
 3860TIP3    H111586   4.201   1.420   0.321 -0.5311 -1.4631 -0.2765
 3860TIP3    H211587   4.207   1.343   0.452  0.2627 -0.3755  0.3470
 3861TIP3   OH211588   6.000   0.975   0.061 -1.1129  0.5213 -0.6328
 3861TIP3    H111589   5.966   0.919   0.131 -0.9889 -0.3267 -1.2299
 3861TIP3    H211590   6.035   0.913  -0.004 -0.1097  1.3211 -0.8788
 3862TIP3   OH211591   4.506   3.127   1.063  0.7939  0.1034 -0.0902
 3862TIP3    H111592   4.556   3.132   1.145 -0.1592  2.0421  0.4286
 3862TIP3    H211593   4.432   3.070   1.084  0.8458  0.1492  0.2273
 3863TIP3   OH211594   6.247   1.769   2.617  0.3699 -0.5434  0.1230
 3863TIP3    H111595   6.184   1.823   2.570  0.4575 -0.1587  0.4447
 3863TIP3    H211596   6.308   1.739   2.550 -0.7301 -1.7667 -0.3832
 3864TIP3   OH211597   2.051   3.877   3.123  0.0678 -0.1273  0.5828
 3864TIP3    H111598   2.116   3.859   3.056 -1.7421  1.3504 -1.7233
 3864TIP3    H211599   1.982   3.813   3.108 -1.4454  1.6695 -0.6516
 3865TIP3   OH211600   3.065   4.013   0.198 -0.0633 -0.3682  0.1154
 3865TIP3    H111601   3.043   3.920   0.190  0.1518 -0.4710  0.6607
 3865TIP3    H211602   3.160   4.015   0.206 -0.1972 -0.3326  2.6592
 3866TIP3   OH211603   4.578   3.884   3.222 -0.5904 -0.0400  0.7696
 3866TIP3    H111604   4.609   3.929   3.144 -2.4682  1.7610  0.9779
 3866TIP3    H211605   4.572   3.952   3.289 -0.3801 -1.2646  2.0819
 3867TIP3   OH211606   5.037   1.315   2.604  0.0661  0.7587 -0.0192
 3867TIP3    H111607   4.952   1.357   2.622  1.0508  2.6274  0.5735
 3867TIP3    H211608   5.039   1.239   2.662 -0.6637  1.4818  0.9983
 3868TIP3   OH211609   2.894   0.264   1.111  0.6376  0.2126 -0.0720
 3868TIP3    H111610   2.908   0.347   1.065  0.9282 -1.2723 -2.8858
 3868TIP3    H211611   2.946   0.200   1.061 -1.6111 -2.1370  0.3849
 3869TIP3   OH211612   1.972   4.424   3.489  0.1484 -0.2186  0.3752
 3869TIP3    H111613   1.935   4.511   3.499 -1.5797 -0.9586  0.7885
 3869TIP3    H211614   1.960   4.403   3.397  1.6222  0.3940  0.0113
 3870TIP3   OH211615   1.632   1.332   3.678  0.2036  0.3245 -0.1705
 3870TIP3    H111616   1.718   1.375   3.681 -0.3075  1.3909 -0.0164
 3870TIP3    H211617   1.628   1.292   3.591  1.6486 -1.5042  0.5328
 3871TIP3   OH211618   4.562   1.849   2.687  0.4861 -0.2785  0.5916
 3871TIP3    H111619   4.472   1.841   2.653  0.9267 -0.7258 -0.5222
 3871TIP3    H211620   4.573   1.772   2.743 -0.3119  0.5604  1.9577
 3872TIP3   OH211621   0.540   3.949   3.872 -0.3443  0.7254  0.4345
 3872TIP3    H111622   0.552   3.986   3.959  0.8773 -0.4183  0.7734
 3872TIP3    H211623   0.571   3.859   3.878 -0.8722  0.4002 -1.0172
 3873TIP3   OH211624   3.301   5.943   2.006 -0.2289 -0.4233  0.4473
 3873TIP3    H111625   3.333   5.887   2.077  1.1283  0.2070  0.3868
 3873TIP3    H211626   3.333   6.031   2.030  0.3900 -0.2283 -0.9975
 3874TIP3   OH211627   0.087   4.602   4.958 -0.1290 -0.2206 -0.0569
 3874TIP3    H111628   0.181   4.594   4.945  0.0148 -0.9655  1.3481
 3874TIP3    H211629   0.070   4.696   4.948  0.9127  0.0540  0.6297
 3875TIP3   OH211630   5.096   1.057   1.253 -0.0769 -0.0665  0.2892
 3875TIP3    H111631   5.110   1.034   1.345  1.2449  0.5963  0.2900
 3875TIP3    H211632   5.012   1.101   1.252 -1.2243 -2.1086  0.7764
 3876TIP3   OH211633   0.482   4.320   3.564 -0.5159 -0.0121 -0.2609
 3876TIP3    H111634   0.432   4.394   3.598 -0.5541 -0.1746  0.0340
 3876TIP3    H211635   0.550   4.303   3.629 -2.1500 -1.9692  1.0546
 3877TIP3   OH211636   4.148   5.250   0.697 -0.6231 -0.2767 -0.1185
 3877TIP3    H111637   4.146   5.272   0.603  2.2725 -1.4842 -0.5824
 3877TIP3    H211638   4.166   5.333   0.740  0.7295 -0.1157 -0.9330
 3878TIP3   OH211639   4.616   0.320   2.532 -0.1042 -0.0141  0.3787
 3878TIP3    H111640   4.685   0.253   2.535  0.3010  0.3321 -0.7459
 3878TIP3    H211641   4.626   0.361   2.446 -0.8586  0.9578  0.7355
 3879TIP3   OH211642   2.500   3.530   2.718  0.2661 -0.1807  0.4872
 3879TIP3    H111643   2.576   3.580   2.690 -0.1613 -0.3976 -1.1775
 3879TIP3    H211644   2.432   3.551   2.654 -0.1407 -2.3354  0.1216
 3880TIP3   OH211645   4.551   5.501   1.635  0.1354  0.0760 -0.8395
 3880TIP3    H111646   4.554   5.545   1.720 -1.4939 -0.3110 -0.5436
 3880TIP3    H211647   4.478   5.543   1.590 -2.0781 -2.8194 -0.1987
 3881TIP3   OH211648   0.233   3.735   5.175 -0.5725 -0.3082  0.4107
 3881TIP3    H111649   0.310   3.678   5.168  0.8103  1.4921  0.2914
 3881TIP3    H211650   0.168   3.681   5.220 -0.1770 -2.7674 -1.7348
 3882TIP3   OH211651   3.395   2.272   1.600  0.2964 -0.0140 -0.3460
 3882TIP3    H111652   3.333   2.262   1.528 -0.2013 -0.4341  0.1229
 3882TIP3    H211653   3.390   2.365   1.623 -1.3845 -0.3218  0.7166
 3883TIP3   OH211654   4.254   4.688   3.532  0.3884 -0.4217  0.2158
 3883TIP3    H111655   4.239   4.771   3.578 -0.1883  0.7451 -1.9240
 3883TIP3    H211656   4.347   4.671   3.544  0.5466  0.6199  0.5638
 3884TIP3   OH211657   4.809   3.599   1.421 -0.0805 -0.1600  0.2844
 3884TIP3    H111658   4.825   3.624   1.330 -0.8838  0.2119  0.2367
 3884TIP3    H211659   4.897   3.591   1.459  0.2490  0.6127 -0.2749
 3885TIP3   OH211660   1.350   0.165   3.187  0.2950 -0.3650 -0.1560
 3885TIP3    H111661   1.259   0.190   3.173  0.2278 -0.3255  0.3345
 3885TIP3    H211662   1.397   0.200   3.111  0.1409  0.9220  0.3169
 3886TIP3   OH211663   1.809   3.322   2.429 -0.2082  0.5754  0.2599
 3886TIP3    H111664   1.824   3.228   2.418  0.7240  0.4174  2.4532
 3886TIP3    H211665   1.840   3.361   2.347 -0.0328 -0.9636 -0.4367
 3887TIP3   OH211666   1.330   1.129   0.504  0.0192 -0.6086  0.4571
 3887TIP3    H111667   1.397   1.159   0.443  0.8278  0.1649  1.6607
 3887TIP3    H211668   1.342   1.034   0.509  0.5330 -0.5649  0.0994
 3888TIP3   OH211669   1.459   0.875   4.898  0.4464 -0.3748  0.1819
 3888TIP3    H111670   1.520   0.946   4.915  1.8952 -1.7391  0.9258
 3888TIP3    H211671   1.454   0.827   4.980 -1.1448 -0.6836 -0.0676
 3889TIP3   OH211672   5.081   4.119   0.520 -0.2081  0.0940 -0.3939
 3889TIP3    H111673   5.071   4.203   0.566 -0.2683  0.1422 -0.4943
 3889TIP3    H211674   5.136   4.140   0.444  3.4128 -0.7089  1.7425
 3890TIP3   OH211675   0.303   5.910   1.867 -0.0678 -0.4975  0.0382
 3890TIP3    H111676   0.218   5.874   1.891 -0.3833 -0.2683 -0.6948
 3890TIP3    H211677   0.284   5.964   1.789  0.6796 -0.1499  0.0957
 3891TIP3   OH211678   0.219   3.500   1.316  0.0148  0.1859 -0.4899
 3891TIP3    H111679   0.251   3.578   1.269 -1.2295 -0.0670 -1.8291
 3891TIP3    H211680   0.247   3.513   1.406 -0.3551  2.3092 -0.6320
 3892TIP3   OH211681   3.021   1.004   0.589  0.1363  0.3065 -0.3220
 3892TIP3    H111682   3.048   0.957   0.668 -0.1533  0.2870 -0.2355
 3892TIP3    H211683   2.926   1.010   0.595  0.2948  2.6293  0.6501
 3893TIP3   OH211684   2.831   0.487   3.127 -0.2777 -0.0785  0.0728
 3893TIP3    H111685   2.792   0.436   3.056 -2.8959  1.2848  0.4010
 3893TIP3    H211686   2.874   0.561   3.082  1.5322 -1.2493 -0.2480
 3894TIP3   OH211687   6.334   5.088   0.389 -0.6890  0.0158  0.7974
 3894TIP3    H111688   6.295   5.022   0.333 -0.2269  0.5331 -0.1529
 3894TIP3    H211689   6.427   5.088   0.365 -0.8233  1.5912  0.1667
 3895TIP3   OH211690   4.344   3.759   3.298 -0.5174 -0.3069 -0.0761
 3895TIP3    H111691   4.438   3.775   3.288 -0.3118  0.4427  2.3928
 3895TIP3    H211692   4.331   3.671   3.264  1.4194 -1.1161  1.1280
 3896TIP3   OH211693   2.222   0.424   2.269 -0.1445  0.6050 -0.3024
 3896TIP3    H111694   2.127   0.437   2.262 -0.1300  0.6577 -0.3958
 3896TIP3    H211695   2.233   0.377   2.351 -0.5300 -2.4349 -1.8807
 3897TIP3   OH211696   4.416   2.107   1.287 -0.0510 -0.7908 -0.2318
 3897TIP3    H111697   4.438   2.186   1.238 -1.0396 -0.7002 -0.5514
 3897TIP3    H211698   4.498   2.058   1.292  0.3564 -0.1895 -0.8440
 3898TIP3   OH211699   2.558   1.064   1.598  0.6683 -0.3116  0.2529
 3898TIP3    H111700   2.487   1.049   1.660  0.5436 -0.2678  0.1200
 3898TIP3    H211701   2.580   0.977   1.565  0.4379 -0.2837  0.0284
 3899TIP3   OH211702   1.543   1.829   3.590  0.3951 -0.3867 -0.1578
 3899TIP3    H111703   1.610   1.893   3.615  1.1999  0.1125 -3.1695
 3899TIP3    H211704   1.481   1.829   3.663  1.6660  2.0156  1.0320
 3900TIP3   OH211705   5.601   3.151   4.673  0.2655 -0.0690  0.0349
 3900TIP3    H111706   5.649   3.174   4.752  1.4891  0.8820 -0.9408
 3900TIP3    H211707   5.531   3.217   4.668 -0.5017 -0.7833  0.8595
 3901TIP3   OH211708   0.109   1.997   1.448 -0.0602 -0.4576  0.0113
 3901TIP3    H111709   0.189   1.955   1.481 -0.4020 -0.9469  0.2379
 3901TIP3    H211710   0.051   2.000   1.524 -0.0410  0.4488 -0.0022
 3902TIP3   OH211711   1.798   0.643   4.818  0.1077 -0.3529 -0.0614
 3902TIP3    H111712   1.853   0.565   4.807  1.2587  0.4552 -0.3043
 3902TIP3    H211713   1.746   0.625   4.897 -0.0379 -1.5729 -0.4179
 3903TIP3   OH211714   5.537   2.943   0.768  0.2900  0.1349  0.6065
 3903TIP3    H111715   5.489   2.872   0.725  0.9767  0.1124 -0.1479
 3903TIP3    H211716   5.517   2.932   0.861 -1.0823  0.0734  0.3258
 3904TIP3   OH211717   4.175   0.587  -0.029 -0.4396 -0.2300 -0.6435
 3904TIP3    H111718   4.127   0.663   0.003  2.1055  1.1061  0.2212
 3904TIP3    H211719   4.209   0.545   0.051  1.4948  0.0530 -1.2820
 3905TIP3   OH211720   5.236   3.373   4.857  0.0646  0.0342  0.1191
 3905TIP3    H111721   5.300   3.439   4.833 -1.6072  1.1349 -1.6090
 3905TIP3    H211722   5.198   3.405   4.939  0.4192  0.3454  0.1644
 3906TIP3   OH211723   5.174   1.715   3.548  0.2148 -0.5370  0.2259
 3906TIP3    H111724   5.231   1.783   3.512 -0.9121  1.7254  2.4080
 3906TIP3    H211725   5.229   1.668   3.611  0.1005  0.7844  1.3654
 3907TIP3   OH211726   3.117   2.270   0.898 -0.0815 -0.3310  0.5424
 3907TIP3    H111727   3.158   2.242   0.816 -0.2175 -1.3559  0.8114
 3907TIP3    H211728   3.072   2.192   0.930 -1.2010  0.4328  0.8865
 3908TIP3   OH211729   6.329   5.990   1.972 -0.1168 -0.4148 -0.7015
 3908TIP3    H111730   6.369   5.905   1.991 -1.9772 -1.3484 -0.7053
 3908TIP3    H211731   6.366   6.016   1.888  3.3039  0.6421  0.9352
 3909TIP3   OH211732   2.621   4.230   3.173  0.3508 -0.0971  0.6738
 3909TIP3    H111733   2.594   4.273   3.092  2.5921 -1.7962 -1.1265
 3909TIP3    H211734   2.558   4.260   3.239 -1.6358  1.2757 -1.6849
 3910TIP3   OH211735   5.330   3.082   1.196  0.0828  0.0555  0.3412
 3910TIP3    H111736   5.350   3.175   1.208  1.5580 -0.3261  1.0573
 3910TIP3    H211737   5.317   3.049   1.285  0.1334 -0.5458  0.1253
 3911TIP3   OH211738   2.607   3.129   2.369 -0.0270 -0.5545 -0.1473
 3911TIP3    H111739   2.538   3.099   2.310  0.3481 -1.6762 -0.0241
 3911TIP3    H211740   2.688   3.097   2.329  0.3622 -0.0045  0.1820
 3912TIP3   OH211741   0.194   2.847   4.012  0.6065  0.3221  0.1786
 3912TIP3    H111742   0.288   2.835   4.028  1.2922  2.7341 -1.3795
 3912TIP3    H211743   0.154   2.839   4.099  2.0248 -2.0786  0.6978
 3913TIP3   OH211744   0.142   3.259   2.820 -0.2549 -0.8102  0.0236
 3913TIP3    H111745   0.166   3.168   2.836 -0.0101 -0.9048 -0.8378
 3913TIP3    H211746   0.139   3.299   2.907  0.4114 -1.4464  0.3447
 3914TIP3   OH211747   3.447   2.688   4.691  0.2467 -0.1186 -0.6195
 3914TIP3    H111748   3.539   2.673   4.668 -0.3478  0.1259 -3.5474
 3914TIP3    H211749   3.450   2.749   4.765  2.4108 -0.5558 -0.2785
 3915TIP3   OH211750   2.052   5.790   4.055  0.1720  0.0905  0.3533
 3915TIP3    H111751   1.977   5.833   4.014  1.1502  2.2350  0.6688
 3915TIP3    H211752   2.079   5.723   3.992  0.0841  1.6187 -1.3784
 3916TIP3   OH211753   4.742   3.295   2.789  0.8123  0.1637  0.0041
 3916TIP3    H111754   4.754   3.379   2.744  0.0451 -0.0436 -0.6042
 3916TIP3    H211755   4.651   3.295   2.817  1.0335 -0.1158  0.7424
 3917TIP3   OH211756   6.296   1.700   4.652 -0.6000 -0.6835 -0.2352
 3917TIP3    H111757   6.334   1.787   4.647 -0.1621 -0.9332 -1.6428
 3917TIP3    H211758   6.263   1.693   4.742  2.5369 -0.4137  1.0491
 3918TIP3   OH211759   4.068   3.376   2.071 -0.3804  0.0187 -0.5962
 3918TIP3    H111760   3.984   3.343   2.101 -0.3636  0.8045  0.3830
 3918TIP3    H211761   4.046   3.448   2.012 -0.4156  0.8980  0.4574
 3919TIP3   OH211762   1.580   3.115   1.130 -0.0257 -0.2616  0.9225
 3919TIP3    H111763   1.542   3.066   1.203 -0.7638  0.1036  0.7915
 3919TIP3    H211764   1.657   3.158   1.168  0.8913 -1.8278  0.9462
 3920TIP3   OH211765   0.539   4.134   0.731  0.0939  0.0527  0.7736
 3920TIP3    H111766   0.453   4.165   0.760  0.4519  0.6337  1.2348
 3920TIP3    H211767   0.594   4.137   0.809  1.0742  1.6670  0.0930
 3921TIP3   OH211768   4.817   1.799   3.497 -0.0600  0.0829 -0.2200
 3921TIP3    H111769   4.807   1.704   3.492  0.1109  0.0891 -0.7326
 3921TIP3    H211770   4.888   1.818   3.436  0.8135  0.3984  0.8625
 3922TIP3   OH211771   3.763   0.166   2.716 -0.4020 -0.3290  0.4681
 3922TIP3    H111772   3.731   0.085   2.677  0.7764 -0.0343 -1.2328
 3922TIP3    H211773   3.828   0.138   2.780 -0.0619 -0.7470 -0.0534
 3923TIP3   OH211774   1.627   0.309   1.558 -0.1682  0.4184 -0.0579
 3923TIP3    H111775   1.575   0.386   1.534  0.4461  0.9684  0.3188
 3923TIP3    H211776   1.610   0.245   1.489 -0.6187  0.9314 -0.4253
 3924TIP3   OH211777   3.575   3.317   2.859  0.5034  0.1061 -0.0986
 3924TIP3    H111778   3.577   3.315   2.764 -0.2962 -2.8627 -0.1591
 3924TIP3    H211779   3.560   3.225   2.885 -0.4421  0.9631  2.8406
 3925TIP3   OH211780   2.544   5.946   4.966 -0.0438  0.0997  0.6818
 3925TIP3    H111781   2.559   6.001   5.043  0.7189  1.0340 -0.0984
 3925TIP3    H211782   2.456   5.970   4.937  0.2628  0.9121  0.3749
 3926TIP3   OH211783   5.088   3.840   0.562  0.1919 -0.0090 -0.0449
 3926TIP3    H111784   5.137   3.769   0.519  0.0670 -0.6878  0.8949
 3926TIP3    H211785   5.139   3.918   0.544  1.6107 -0.6950  0.8539
 3927TIP3   OH211786   3.653   5.059   1.258  0.2691  0.0269 -0.6025
 3927TIP3    H111787   3.724   5.023   1.312  1.6214  2.7603 -0.4310
 3927TIP3    H211788   3.688   5.058   1.169  0.3789  0.9462 -0.5796
 3928TIP3   OH211789   3.796   0.210   1.598 -0.7803  0.3516 -0.2342
 3928TIP3    H111790   3.803   0.305   1.589 -2.6274  0.5445 -0.1693
 3928TIP3    H211791   3.886   0.179   1.605 -0.1759  2.1850  0.6667
 3929TIP3   OH211792   4.152   3.253   4.642 -0.9391  0.5038  0.1634
 3929TIP3    H111793   4.165   3.343   4.611 -0.0978  0.2642 -0.2168
 3929TIP3    H211794   4.071   3.224   4.601 -1.4117  1.2053  0.5768
 3930TIP3   OH211795   4.155   4.190   1.533 -0.2686 -0.6081  0.2824
 3930TIP3    H111796   4.133   4.281   1.511 -1.1786 -0.3193  2.1922
 3930TIP3    H211797   4.221   4.198   1.602 -0.8885 -1.3698  0.9794
 3931TIP3   OH211798   4.531   1.310   4.389  0.1076 -0.1053 -0.1469
 3931TIP3    H111799   4.619   1.343   4.376  0.5598 -1.7006 -1.4685
 3931TIP3    H211800   4.541   1.236   4.449 -0.6521  0.9633  1.3808
 3932TIP3   OH211801   2.343   1.417   3.512 -0.0821  0.0372 -0.0028
 3932TIP3    H111802   2.364   1.511   3.517 -2.1032  0.6611 -1.6232
 3932TIP3    H211803   2.360   1.394   3.420  1.9314 -1.6731  0.7027
 3933TIP3   OH211804   5.104   4.766   4.420  0.8768  0.4235 -0.5039
 3933TIP3    H111805   5.197   4.741   4.423  0.1460 -2.8251 -1.2316
 3933TIP3    H211806   5.092   4.801   4.332  1.5332  1.4842 -0.1825
 3934TIP3   OH211807   1.440   5.925   4.396 -0.0054 -0.5834  0.1473
 3934TIP3    H111808   1.494   5.875   4.458  0.1029  2.1909  2.4871
 3934TIP3    H211809   1.500   5.987   4.355 -0.7347 -0.0024 -0.0611
 3935TIP3   OH211810   5.065   1.246   3.730 -1.2444 -0.0657 -0.2510
 3935TIP3    H111811   5.020   1.330   3.721  0.5417  0.8732 -0.8728
 3935TIP3    H211812   5.066   1.210   3.642  0.4411  0.6337 -0.5685
 3936TIP3   OH211813   1.854   2.874   1.866  0.1201  0.4007  0.6225
 3936TIP3    H111814   1.882   2.784   1.884  0.3933  0.1616 -0.8408
 3936TIP3    H211815   1.877   2.888   1.774 -2.1952  1.0944  0.0760
 3937TIP3   OH211816   4.480   3.773   0.338 -0.5641  0.0328  0.3784
 3937TIP3    H111817   4.512   3.770   0.428 -0.4406 -1.2275  0.3108
 3937TIP3    H211818   4.405   3.714   0.338 -1.2434  0.8699 -0.1075
 3938TIP3   OH211819   5.622   0.777   3.796 -0.3135  0.0296 -0.4849
 3938TIP3    H111820   5.573   0.851   3.830  0.4681 -0.2912  1.4905
 3938TIP3    H211821   5.556   0.719   3.759 -1.4565 -0.1928  1.7097
 3939TIP3   OH211822   1.912   2.049   4.555 -0.0296  0.0969  0.0718
 3939TIP3    H111823   1.919   1.967   4.507  2.5700  0.0547  0.4115
 3939TIP3    H211824   1.888   2.114   4.489 -1.7217 -0.8164 -0.2628
 3940TIP3   OH211825   5.807   1.865   0.343  0.5979  1.6866 -1.1985
 3940TIP3    H111826   5.819   1.839   0.252 -0.4069  0.8090 -1.1100
 3940TIP3    H211827   5.865   1.940   0.355  1.6666  1.0506 -2.2108
 3941TIP3   OH211828   4.858   1.584   3.091 -0.3359 -0.0770 -0.5636
 3941TIP3    H111829   4.937   1.637   3.104 -1.3285  1.0048  1.7361
 3941TIP3    H211830   4.810   1.629   3.022 -0.3295  1.0390  0.1269
 3942TIP3   OH211831   1.272   2.323   2.008 -0.4528  0.0825  0.2576
 3942TIP3    H111832   1.333   2.382   2.053 -1.4555  1.6585 -0.4023
 3942TIP3    H211833   1.195   2.376   1.991 -1.0404 -1.1701 -1.1939
 3943TIP3   OH211834   5.470   2.525   1.351 -0.1405 -0.0179 -0.0693
 3943TIP3    H111835   5.466   2.597   1.414 -0.6096  0.5951 -0.7764
 3943TIP3    H211836   5.381   2.520   1.316 -0.2187 -1.2113  0.2454
 3944TIP3   OH211837   2.407   2.077   3.870  0.0665  0.4638  0.1403
 3944TIP3    H111838   2.452   2.016   3.928 -0.0402 -0.0743 -0.3354
 3944TIP3    H211839   2.368   2.142   3.928  0.9031  0.5663  0.5986
 3945TIP3   OH211840   4.140   3.827   3.649 -0.5857  0.3561  0.1033
 3945TIP3    H111841   4.192   3.877   3.712  0.0694  1.0660 -0.9758
 3945TIP3    H211842   4.082   3.774   3.704  1.6475 -0.9333  1.3913
 3946TIP3   OH211843   5.314   2.599   2.885  0.1597  0.3160  0.1520
 3946TIP3    H111844   5.321   2.623   2.792  0.5958  1.3872  0.4482
 3946TIP3    H211845   5.267   2.515   2.884  1.2844 -0.3496 -1.1074
 3947TIP3   OH211846   3.325   4.142   5.067  0.1985  0.1803 -0.0647
 3947TIP3    H111847   3.233   4.134   5.043  0.2018 -0.8099  0.2082
 3947TIP3    H211848   3.343   4.236   5.064 -0.3430  0.2495 -1.8718
 3948TIP3   OH211849   5.706   0.384   0.816  0.2387  0.1429  0.6134
 3948TIP3    H111850   5.653   0.397   0.894 -2.0526 -0.9784 -0.6271
 3948TIP3    H211851   5.673   0.448   0.753  0.8800 -0.0765  0.0345
 3949TIP3   OH211852   2.175   2.522   4.099  0.2450  0.1811  0.4709
 3949TIP3    H111853   2.262   2.497   4.067  0.1124  0.5455 -0.1973
 3949TIP3    H211854   2.115   2.489   4.032 -0.5097 -3.3759  2.6204
 3950TIP3   OH211855   1.350   0.869   0.663 -0.4500 -0.1075 -0.1245
 3950TIP3    H111856   1.436   0.896   0.695  0.0961 -0.2940 -1.3921
 3950TIP3    H211857   1.367   0.797   0.603 -1.6125 -0.9902  0.5726
 3951TIP3   OH211858   2.786   0.482   0.285 -0.2641 -0.0023  0.5521
 3951TIP3    H111859   2.731   0.543   0.237  0.4075 -0.0497 -0.3021
 3951TIP3    H211860   2.726   0.417   0.320 -0.6731 -0.5585 -1.1086
 3952TIP3   OH211861   0.794   1.047   4.542 -0.0992 -0.0363 -0.5391
 3952TIP3    H111862   0.854   0.980   4.512 -0.3512  0.6679 -2.8262
 3952TIP3    H211863   0.850   1.121   4.567  0.0700  0.3042 -1.8411
 3953TIP3   OH211864   1.790   0.823   0.747  0.1848 -0.1267 -0.5287
 3953TIP3    H111865   1.838   0.751   0.704  0.7679 -0.4785  0.6698
 3953TIP3    H211866   1.855   0.893   0.755  0.2924 -0.3118  0.3702
 3954TIP3   OH211867   0.512   2.869   4.405 -0.2275 -0.4686  0.3954
 3954TIP3    H111868   0.435   2.925   4.398  0.1000 -0.0929 -0.3083
 3954TIP3    H211869   0.583   2.927   4.432  0.2610 -0.3830 -0.9695
 3955TIP3   OH211870   6.257   3.560   0.142 -0.1878  0.0256  0.6837
 3955TIP3    H111871   6.339   3.524   0.173 -0.5838 -1.3340  0.2199
 3955TIP3    H211872   6.283   3.632   0.084  0.5978  0.9189  2.0921
 3956TIP3   OH211873   3.763   3.453   4.271  0.2111  0.2104 -0.3337
 3956TIP3    H111874   3.758   3.456   4.175 -0.7247  0.1323 -0.2931
 3956TIP3    H211875   3.729   3.366   4.293 -0.7677  0.7023  0.1336
 3957TIP3   OH211876   4.959   0.103   0.894  0.8094 -0.1718  0.5928
 3957TIP3    H111877   4.995   0.167   0.955  0.3472  0.3149  0.3606
 3957TIP3    H211878   4.873   0.081   0.930  0.5723  0.0507  0.1636
 3958TIP3   OH211879   1.702   3.183   0.701 -0.5487  0.3274 -0.1895
 3958TIP3    H111880   1.716   3.277   0.712 -0.1350  0.0614  1.8254
 3958TIP3    H211881   1.631   3.163   0.761  0.2606 -0.8823  0.3811
 3959TIP3   OH211882   3.539   2.208   1.305 -0.4052 -0.3240 -0.3236
 3959TIP3    H111883   3.610   2.251   1.352  0.0722 -0.6181 -0.7734
 3959TIP3    H211884   3.556   2.227   1.213 -1.1110 -0.0884 -0.4147
 3960TIP3   OH211885   6.126   2.225   2.167 -0.3218 -0.5776  0.0469
 3960TIP3    H111886   6.096   2.136   2.153  0.9663 -0.9994 -0.1809
 3960TIP3    H211887   6.176   2.221   2.249  0.1076 -0.1772 -0.1861
 3961TIP3   OH211888   0.051   4.078   5.001 -0.4666 -0.4104  0.5047
 3961TIP3    H111889   0.051   3.999   4.947  1.0303  0.8123 -1.4280
 3961TIP3    H211890   0.121   4.064   5.065  0.6605 -0.1777 -0.6478
 3962TIP3   OH211891   3.104   3.248   3.825 -0.1323 -0.2156  0.3171
 3962TIP3    H111892   3.140   3.168   3.787  0.0815  0.0532 -0.0534
 3962TIP3    H211893   3.050   3.286   3.756 -0.0701  0.0652  0.4194
 3963TIP3   OH211894   3.246   0.754   4.717  0.4031  0.1261  0.5017
 3963TIP3    H111895   3.338   0.758   4.741  0.9577 -0.6273 -1.3474
 3963TIP3    H211896   3.238   0.674   4.665 -1.6050 -0.5876  1.7827
 3964TIP3   OH211897   2.354   0.289   1.232  0.4162 -0.1536  0.4332
 3964TIP3    H111898   2.442   0.291   1.194 -0.8893  2.5121 -3.1195
 3964TIP3    H211899   2.348   0.370   1.283 -0.5713  1.0676 -1.4503
 3965TIP3   OH211900   1.786   3.594   2.847 -0.6184 -0.1300  0.4446
 3965TIP3    H111901   1.731   3.540   2.789 -0.4301  1.0253 -0.8594
 3965TIP3    H211902   1.866   3.543   2.859 -0.8349 -0.5767  0.0197
 3966TIP3   OH211903   2.326   5.473   3.792 -0.1647  0.1658 -0.3935
 3966TIP3    H111904   2.364   5.416   3.726  0.1144 -1.2212  0.9168
 3966TIP3    H211905   2.387   5.470   3.865 -1.1030  0.5990  0.4412
 3967TIP3   OH211906   5.423   2.275   1.719 -0.1431 -0.2054 -0.5079
 3967TIP3    H111907   5.329   2.282   1.734  0.0499 -0.0979  0.7547
 3967TIP3    H211908   5.444   2.183   1.737 -0.1999 -0.5340 -2.0300
 3968TIP3   OH211909   3.825   5.334   3.483  0.2864 -0.2771  0.0408
 3968TIP3    H111910   3.780   5.418   3.486  0.3961 -0.1999 -0.3344
 3968TIP3    H211911   3.879   5.332   3.561  2.2826  1.1453 -1.2035
 3969TIP3   OH211912   4.029   2.248   4.797 -0.2959 -0.2203  0.3527
 3969TIP3    H111913   4.020   2.341   4.775  2.3340  0.2034  0.7957
 3969TIP3    H211914   4.062   2.208   4.717  0.3335 -0.4223  0.7132
 3970TIP3   OH211915   2.166   3.246   0.658  0.0434 -0.4208  0.3617
 3970TIP3    H111916   2.262   3.244   0.656  0.0152 -1.6960 -0.5306
 3970TIP3    H211917   2.145   3.321   0.713  1.5563  0.0114  0.3886
 3971TIP3   OH211918   5.349   4.106   3.158  0.5343  0.0418  0.5011
 3971TIP3    H111919   5.292   4.183   3.149 -0.0680 -0.4159  0.3103
 3971TIP3    H211920   5.436   4.137   3.134  0.1724  0.4977 -0.2568
 3972TIP3   OH211921   6.083   2.024   1.529 -0.0798  0.2040 -0.4731
 3972TIP3    H111922   5.999   1.980   1.516 -0.6664  1.3276 -0.5819
 3972TIP3    H211923   6.144   1.953   1.551 -1.1584 -0.5683  0.1312
 3973TIP3   OH211924   3.605   3.591   0.945  0.1957 -0.3477  0.2676
 3973TIP3    H111925   3.639   3.608   0.857 -0.4906 -0.1496  0.0349
 3973TIP3    H211926   3.528   3.536   0.931 -0.3199  0.2523  0.6948
 3974TIP3   OH211927   2.671   4.946   2.645  0.0065 -0.2304  0.3440
 3974TIP3    H111928   2.751   4.894   2.640  0.4614  0.0265  3.1901
 3974TIP3    H211929   2.698   5.034   2.617  0.6513 -0.2311  0.9430
 3975TIP3   OH211930   1.261   0.733   0.081  0.1390  0.1682 -0.0189
 3975TIP3    H111931   1.196   0.793   0.116  0.3443  0.8217 -0.7202
 3975TIP3    H211932   1.221   0.695   0.002  0.0580 -0.5330  0.3487
 3976TIP3   OH211933   5.193   2.571   1.279  0.2237 -0.4727 -0.0193
 3976TIP3    H111934   5.110   2.524   1.281  1.4336 -2.7023  1.7555
 3976TIP3    H211935   5.181   2.644   1.339 -0.6791 -0.3475 -0.3428
 3977TIP3   OH211936   2.977   0.628   5.093  0.1991  0.5498 -0.1893
 3977TIP3    H111937   2.963   0.639   5.187 -0.2025 -3.2795  0.3884
 3977TIP3    H211938   3.062   0.668   5.076  0.0137  1.8531  1.6515
 3978TIP3   OH211939   3.019   0.699   1.845  0.0932  0.1113  0.0913
 3978TIP3    H111940   2.931   0.662   1.847  0.0553  0.1807  1.8475
 3978TIP3    H211941   3.077   0.624   1.858  0.1700  0.2941  0.8630
 3979TIP3   OH211942   4.673   1.062   3.005  0.0504 -0.1073  0.3139
 3979TIP3    H111943   4.690   1.154   2.984  1.0972 -0.5382 -0.8959
 3979TIP3    H211944   4.740   1.040   3.070  0.2317 -0.1994  0.0946
 3980TIP3   OH211945   5.661   3.897   4.783  0.3625  0.0405 -0.2872
 3980TIP3    H111946   5.607   3.835   4.733 -0.3218  0.0809  0.3979
 3980TIP3    H211947   5.715   3.940   4.716 -1.2411  0.8180 -1.1372
 3981TIP3   OH211948   4.969   1.594   2.833  0.7658 -0.6057  0.1352
 3981TIP3    H111949   4.974   1.685   2.861  0.7161 -0.3569 -0.6437
 3981TIP3    H211950   5.047   1.553   2.869  0.5380 -0.3811  0.9107
 3982TIP3   OH211951   6.161   3.968   4.597 -0.2052  0.0497  0.3681
 3982TIP3    H111952   6.137   4.033   4.530  1.9539 -0.2458 -0.7849
 3982TIP3    H211953   6.219   3.907   4.551  1.2405 -0.2669  2.4754
 3983TIP3   OH211954   5.918   1.083   3.177 -0.3274 -0.0663 -0.1744
 3983TIP3    H111955   5.844   1.126   3.219 -0.2007  0.8507 -0.8659
 3983TIP3    H211956   5.880   1.011   3.127 -0.7352  0.3136 -0.4134
 3984TIP3   OH211957   1.823   3.673   3.116  0.1906  0.3346 -0.5215
 3984TIP3    H111958   1.761   3.745   3.130  0.3276  0.2319  0.7357
 3984TIP3    H211959   1.794   3.632   3.035 -0.4479  1.2335 -0.7702
 3985TIP3   OH211960   2.583   0.698   0.166 -0.0442  0.0160  0.6677
 3985TIP3    H111961   2.490   0.687   0.147  0.0893 -2.2223  1.1021
 3985TIP3    H211962   2.607   0.778   0.119 -2.2761  0.9518  0.9684
 3986TIP3   OH211963   2.192   0.456   5.008 -0.7435 -0.6717  0.2422
 3986TIP3    H111964   2.191   0.361   4.994 -0.2873 -0.6553  0.0417
 3986TIP3    H211965   2.280   0.482   4.979 -0.3917 -0.3720  1.5252
 3987TIP3   OH211966   1.947   5.534   3.724  0.6288 -0.2729  0.3610
 3987TIP3    H111967   2.012   5.471   3.692  0.3014 -0.5495  0.2439
 3987TIP3    H211968   1.935   5.594   3.651  0.5631 -0.3697  0.2926
 3988TIP3   OH211969   3.569   5.891   0.971  0.0344 -0.2391  0.2970
 3988TIP3    H111970   3.481   5.878   1.006 -0.5736  0.3959 -0.9372
 3988TIP3    H211971   3.597   5.804   0.943 -0.0115 -0.5204  1.1275
 3989TIP3   OH211972   0.464   5.267   1.980  0.4419 -0.3936 -0.4682
 3989TIP3    H111973   0.511   5.336   2.027  0.3735 -1.9222  2.0408
 3989TIP3    H211974   0.447   5.200   2.046 -3.3778 -0.9101 -1.7148
 3990TIP3   OH211975   1.952   3.912   2.594 -0.0792 -0.6010 -0.3826
 3990TIP3    H111976   1.888   3.977   2.622 -0.2309 -0.5213 -0.9042
 3990TIP3    H211977   2.024   3.921   2.656 -0.2297 -0.1486 -0.2707
 3991TIP3   OH211978   2.750   2.508   3.592  0.1231  0.1680 -0.0813
 3991TIP3    H111979   2.842   2.502   3.617  0.4241  2.5596 -0.3634
 3991TIP3    H211980   2.722   2.417   3.578  1.5074 -0.8917  3.1395
 3992TIP3   OH211981   1.295   2.470   0.572 -0.4304 -0.1795  0.4375
 3992TIP3    H111982   1.260   2.473   0.661  0.1127  1.7526  0.6187
 3992TIP3    H211983   1.390   2.460   0.583 -0.2154  1.2778  0.1510
 3993TIP3   OH211984   2.729   0.916   0.637 -0.1384 -0.7295  0.2451
 3993TIP3    H111985   2.648   0.905   0.587  0.4411  2.0474 -1.4656
 3993TIP3    H211986   2.704   0.973   0.710  0.5166  1.6597 -1.2862
 3994TIP3   OH211987   2.543   0.355   0.164  0.0946 -0.2101  0.1835
 3994TIP3    H111988   2.585   0.419   0.107 -1.8700  2.6353  1.7084
 3994TIP3    H211989   2.510   0.288   0.104  2.2059  0.1286 -1.4805
 3995TIP3   OH211990   0.334   0.609   0.401 -0.1870  0.1092  0.3020
 3995TIP3    H111991   0.373   0.555   0.470  0.6165 -0.3869 -0.5157
 3995TIP3    H211992   0.240   0.605   0.418 -0.1496 -1.5255  0.3131
 3996TIP3   OH211993   3.679   2.800   3.466  0.1885 -0.2608  0.1523
 3996TIP3    H111994   3.625   2.857   3.520 -0.2126  0.1587 -0.6662
 3996TIP3    H211995   3.769   2.828   3.484 -0.0102  0.8164 -0.4031
 3997TIP3   OH211996   6.143   1.915   5.054 -0.0432  0.2311  0.4834
 3997TIP3    H111997   6.180   1.901   5.142 -0.8155  0.4958  0.8562
 3997TIP3    H211998   6.049   1.923   5.068 -0.1825  0.2167 -0.3830
 3998TIP3   OH211999   5.175   2.939   1.001  0.2082 -0.6053  0.0474
 3998TIP3    H112000   5.227   2.995   1.059  0.3678 -0.9118  0.2001
 3998TIP3    H212001   5.217   2.854   1.006  0.7572 -0.4236 -1.1966
 3999TIP3   OH212002   4.838   2.011   4.996 -0.2209 -0.1635  0.0862
 3999TIP3    H112003   4.883   1.971   5.071  1.2417  1.5479  0.1780
 3999TIP3    H212004   4.754   2.039   5.031  0.0445 -0.2730  0.8302
 4000TIP3   OH212005   3.531   0.882   4.744 -0.1925  0.1515 -0.2734
 4000TIP3    H112006   3.587   0.863   4.669 -0.8004 -0.9568 -0.4686
 4000TIP3    H212007   3.465   0.942   4.710 -2.4028 -2.7429 -1.5893
 4001TIP3   OH212008   5.612   4.806   5.068  0.1363 -0.5032 -0.3773
 4001TIP3    H112009   5.544   4.780   5.006 -1.0375  2.1010 -0.2999
 4001TIP3    H212010   5.588   4.762   5.150 -0.2069 -1.2857 -0.8903
 4002TIP3   OH212011   0.281   2.412   1.060  0.2789 -0.5574 -0.0730
 4002TIP3    H112012   0.208   2.456   1.017  1.0267 -1.2617 -2.2164
 4002TIP3    H212013   0.254   2.402   1.151 -1.0910  1.6825 -0.1798
 4003TIP3   OH212014   0.409   3.933   1.230 -0.0063  0.0441 -0.2182
 4003TIP3    H112015   0.372   3.931   1.318  0.2689  3.0298  0.0959
 4003TIP3    H212016   0.465   4.011   1.230  0.5211 -0.2409 -2.8420
 4004TIP3   OH212017   4.151   0.579   3.594 -0.2680 -0.1668  0.1026
 4004TIP3    H112018   4.138   0.584   3.689  1.2242 -0.8927  0.3813
 4004TIP3    H212019   4.189   0.492   3.580  2.1017  0.9250 -0.7930
 4005TIP3   OH212020   2.551   0.716   4.844  0.1532  0.0083 -0.0860
 4005TIP3    H112021   2.503   0.704   4.762 -0.1509  0.5626  0.0100
 4005TIP3    H212022   2.483   0.726   4.910  0.3743 -1.5057  0.4222
 4006TIP3   OH212023   2.102   5.091   3.463  0.5121 -0.5593 -0.7166
 4006TIP3    H112024   2.026   5.085   3.405 -0.1221 -1.3929  0.1617
 4006TIP3    H212025   2.120   5.000   3.487  1.2086 -0.2845 -0.1795
 4007TIP3   OH212026   5.001   4.249   0.868  1.0302  0.3501 -0.6584
 4007TIP3    H112027   4.938   4.196   0.819  0.0204  0.5187  0.3970
 4007TIP3    H212028   5.073   4.265   0.807  1.0648 -1.6930 -1.2069
 4008TIP3   OH212029   0.898   0.785   1.140 -0.0439  0.1319 -0.1350
 4008TIP3    H112030   0.899   0.822   1.051 -0.6395 -0.3848 -0.3656
 4008TIP3    H212031   0.860   0.854   1.194 -1.5687 -0.2718 -0.6402
 4009TIP3   OH212032   2.336   1.885   1.481  0.0081  0.0790 -0.4440
 4009TIP3    H112033   2.355   1.898   1.388 -1.3842 -1.8641 -1.0638
 4009TIP3    H212034   2.280   1.959   1.504  0.5028  0.6691 -1.1016
 4010TIP3   OH212035   3.053   3.085   0.549 -0.3638  0.3466  0.8904
 4010TIP3    H112036   3.021   3.107   0.636 -0.8756  0.4842  0.6667
 4010TIP3    H212037   3.148   3.077   0.560 -0.4573  0.0327  1.5278
 4011TIP3   OH212038   0.821   0.243   2.265  0.5301  0.0299  0.3599
 4011TIP3    H112039   0.747   0.263   2.323  1.3595  0.0772  1.4392
 4011TIP3    H212040   0.845   0.153   2.287  0.0525 -0.4172 -0.8451
 4012TIP3   OH212041   1.140   2.231   0.626 -0.5330 -0.7725 -0.0683
 4012TIP3    H112042   1.141   2.172   0.550 -0.4874  0.1448 -0.8033
 4012TIP3    H212043   1.199   2.303   0.601 -0.0294 -0.7589  1.0975
 4013TIP3   OH212044   3.637   1.255   3.004  0.0441 -0.3638  0.6974
 4013TIP3    H112045   3.570   1.203   2.960 -1.3035  1.1586  0.8605
 4013TIP3    H212046   3.605   1.267   3.093  0.7256  0.0596  0.9017
 4014TIP3   OH212047   4.943   1.358   0.681 -0.3486  0.1862  0.1493
 4014TIP3    H112048   4.976   1.322   0.764 -1.0353  3.3099  1.9319
 4014TIP3    H212049   5.019   1.402   0.642 -0.3812 -0.0016 -0.1269
 4015TIP3   OH212050   1.971   2.606   3.132  0.2755  1.1720  0.0229
 4015TIP3    H112051   2.024   2.618   3.053 -0.3073  2.2600 -0.2265
 4015TIP3    H212052   1.946   2.695   3.158  1.1568  0.8998  1.9365
 4016TIP3   OH212053   0.767   3.345   4.116 -0.0044  0.0745  0.6567
 4016TIP3    H112054   0.725   3.354   4.201 -1.5454  0.0511 -0.0673
 4016TIP3    H212055   0.727   3.267   4.078 -1.0828  1.3822 -1.0241
 4017TIP3   OH212056   6.190   3.907   3.414 -0.3574 -0.8647  0.5379
 4017TIP3    H112057   6.260   3.842   3.423 -1.6257 -2.3990 -0.2971
 4017TIP3    H212058   6.147   3.909   3.499  0.5943  0.0081  1.0224
 4018TIP3   OH212059   1.511   1.333   3.036 -0.6202  0.5804 -0.1866
 4018TIP3    H112060   1.591   1.285   3.013 -0.1212  1.5575 -0.5871
 4018TIP3    H212061   1.440   1.270   3.024  0.1110 -0.3848  0.4398
 4019TIP3   OH212062   2.050   1.520   1.200  0.5236 -0.0354  0.1861
 4019TIP3    H112063   2.045   1.610   1.231  1.3264  0.0499  0.0883
 4019TIP3    H212064   2.002   1.520   1.117  0.8940  0.4106 -0.0354
 4020TIP3   OH212065   0.216   3.818   1.924  0.2377  0.4340  0.3680
 4020TIP3    H112066   0.166   3.872   1.863  1.7749  2.3684  0.7060
 4020TIP3    H212067   0.173   3.733   1.922 -0.6590  0.8585 -2.2761
 4021TIP3   OH212068   4.887   2.993   3.363 -0.0178  0.2586  0.3133
 4021TIP3    H112069   4.976   2.990   3.396  0.2378  1.1882 -0.2480
 4021TIP3    H212070   4.852   3.077   3.395 -0.9443 -0.4202  1.1449
 4022TIP3   OH212071   4.926   1.519   3.755 -0.6236  0.2295 -0.2126
 4022TIP3    H112072   4.859   1.583   3.781 -1.1587 -0.7502  0.9229
 4022TIP3    H212073   4.976   1.504   3.835 -0.0806 -0.2883 -0.6431
 4023TIP3   OH212074   3.918   0.147   1.982  0.2761 -0.0470 -0.3591
 4023TIP3    H112075   3.967   0.188   1.911 -0.3420 -2.5588 -2.3825
 4023TIP3    H212076   3.985   0.111   2.039  0.7667  0.9224 -0.2911
 4024TIP3   OH212077   2.719   3.994   0.360 -0.9929  0.4354 -0.2434
 4024TIP3    H112078   2.719   3.951   0.275  3.3623  1.5558 -1.0161
 4024TIP3    H212079   2.678   3.930   0.419 -0.9046 -1.8673 -2.4909
 4025TIP3   OH212080   3.078   1.618   3.141  0.1697  0.2738  0.1927
 4025TIP3    H112081   3.106   1.657   3.058 -0.5220  0.4385  0.0307
 4025TIP3    H212082   3.013   1.679   3.175 -0.4059 -0.3770  0.2846
 4026TIP3   OH212083   0.078   4.462   2.927 -0.2552  0.6415  0.2336
 4026TIP3    H112084   0.100   4.479   2.836 -0.8767 -0.5403 -0.1571
 4026TIP3    H212085   0.127   4.528   2.977 -0.9959  2.2183 -1.0257
 4027TIP3   OH212086   3.367   0.487   2.969  0.5608  0.0307 -0.1715
 4027TIP3    H112087   3.319   0.410   2.938  1.3309 -0.1069 -1.0501
 4027TIP3    H212088   3.427   0.509   2.897  2.6656 -0.4954  1.3360
 4028TIP3   OH212089   0.085   5.737   1.920 -0.0117 -0.0203 -0.1785
 4028TIP3    H112090   0.114   5.646   1.912 -0.6718 -0.1022 -2.1256
 4028TIP3    H212091   0.022   5.749   1.849  0.5297  2.1497 -0.3727
 4029TIP3   OH212092   3.636   1.206   1.078 -0.2312 -0.0783  0.2347
 4029TIP3    H112093   3.722   1.223   1.117  1.3077 -0.6473 -2.6529
 4029TIP3    H212094   3.595   1.292   1.072  1.0292  0.5171 -0.2198
 4030TIP3   OH212095   4.799   3.302   1.240 -0.1703 -0.0666 -0.1543
 4030TIP3    H112096   4.797   3.219   1.192 -2.6204  0.5723 -1.3394
 4030TIP3    H212097   4.815   3.277   1.331  0.3351 -1.7102 -0.6599
 4031TIP3   OH212098   0.698   2.550   3.559  0.0020 -0.2788 -0.0939
 4031TIP3    H112099   0.621   2.528   3.612 -0.3954  2.1538  0.4601
 4031TIP3    H212100   0.726   2.636   3.593  2.0629 -0.4245 -1.2932
 4032TIP3   OH212101   3.439   2.861   1.904 -0.4220  0.1269  0.3315
 4032TIP3    H112102   3.394   2.890   1.825 -0.9538 -1.4222  0.0370
 4032TIP3    H212103   3.457   2.942   1.952  0.8056  1.2083 -1.8030
 4033TIP3   OH212104   0.006   0.236   2.672 -0.7704 -0.4895 -0.4034
 4033TIP3    H112105   0.005   0.209   2.764 -1.6428 -1.6862 -0.7401
 4033TIP3    H212106   0.085   0.289   2.664 -0.2496 -1.0226  0.8551
 4034TIP3   OH212107   1.059   4.035   1.095  0.1540 -0.3812  0.3529
 4034TIP3    H112108   0.976   4.043   1.142 -1.0844  0.9056 -1.8784
 4034TIP3    H212109   1.084   4.125   1.077  1.4026 -0.8079 -0.1083
 4035TIP3   OH212110   4.015   3.925   2.752 -1.1853  0.3795  0.3433
 4035TIP3    H112111   4.094   3.871   2.754 -1.9474 -0.7685  1.6199
 4035TIP3    H212112   4.001   3.944   2.659 -1.0513 -1.9074 -0.2079
 4036TIP3   OH212113   4.906   3.727   4.115 -0.3323 -0.0022  0.1006
 4036TIP3    H112114   4.970   3.738   4.045  0.1027  1.1657  0.6586
 4036TIP3    H212115   4.931   3.644   4.157  0.4441  0.1448 -0.0589
 4037TIP3   OH212116   4.268   3.015   2.183 -0.0657  0.6856 -0.3217
 4037TIP3    H112117   4.240   3.042   2.271 -0.7130 -0.2727 -0.2157
 4037TIP3    H212118   4.309   2.930   2.196 -0.1203  0.5587 -0.9428
 4038TIP3   OH212119   5.628   2.320   3.287  0.1589 -0.5815 -0.2014
 4038TIP3    H112120   5.620   2.299   3.194  0.3242 -0.4033 -0.2573
 4038TIP3    H212121   5.663   2.241   3.327 -0.7077 -0.9499 -0.1515
 4039TIP3   OH212122   0.678   3.904   0.677 -0.2673  0.5203 -1.0954
 4039TIP3    H112123   0.587   3.934   0.688 -0.3459  0.0428 -0.3785
 4039TIP3    H212124   0.701   3.866   0.762  0.4503  0.2238 -1.4165
 4040TIP3   OH212125   4.803   0.300   4.391 -0.3124  0.0850  0.0089
 4040TIP3    H112126   4.809   0.205   4.405 -0.5512  0.0893  0.1556
 4040TIP3    H212127   4.786   0.335   4.478  0.6804  0.3513  0.1094
 4041TIP3   OH212128   2.128   5.440   4.046  0.1312  0.0088  0.0418
 4041TIP3    H112129   2.178   5.420   3.967  0.8136  0.1847  0.4168
 4041TIP3    H212130   2.185   5.498   4.096 -0.6086  0.5114  0.3158
 4042TIP3   OH212131   3.822   4.115   1.095  1.1458 -0.0592  0.1958
 4042TIP3    H112132   3.798   4.025   1.075 -1.5316  0.3266  1.3182
 4042TIP3    H212133   3.774   4.168   1.031  2.0281  0.6321  0.0812
 4043TIP3   OH212134   6.199   3.547   1.420 -0.0621 -0.0744  0.1823
 4043TIP3    H112135   6.242   3.486   1.361  0.0891  0.0592  0.1523
 4043TIP3    H212136   6.269   3.578   1.478 -0.2834 -0.4969  0.6831
 4044TIP3   OH212137   5.298   5.846   0.782  0.2122  0.6427  0.2593
 4044TIP3    H112138   5.240   5.923   0.780 -3.0845 -1.6452  0.0139
 4044TIP3    H212139   5.286   5.810   0.870  1.1825 -0.0141  0.1309
 4045TIP3   OH212140   1.697   0.255   3.255 -1.1347 -0.1188 -0.2202
 4045TIP3    H112141   1.615   0.249   3.206 -1.5662  0.4700  0.4013
 4045TIP3    H212142   1.697   0.344   3.291 -0.9276 -0.5851  0.9946
 4046TIP3   OH212143   2.036   0.455   3.165  0.5954  0.5282 -0.2383
 4046TIP3    H112144   1.956   0.508   3.158  0.7524  0.8569  0.4219
 4046TIP3    H212145   2.024   0.386   3.099 -0.0636  0.7897 -0.4069
 4047TIP3   OH212146   1.014   4.827   3.327  0.1814  0.3851 -0.5607
 4047TIP3    H112147   0.968   4.774   3.263 -1.9306  0.0738  1.1292
 4047TIP3    H212148   0.976   4.915   3.318 -0.0319  0.3726  0.1643
 4048TIP3   OH212149   3.387   4.246   4.233 -0.8976 -0.4437 -0.2041
 4048TIP3    H112150   3.327   4.318   4.251  2.3013  1.9823  2.0205
 4048TIP3    H212151   3.395   4.200   4.316  0.2819 -0.6791 -0.4320
 4049TIP3   OH212152   4.434   2.454   4.323  0.3996 -0.1458  0.0728
 4049TIP3    H112153   4.486   2.501   4.257  3.0486 -2.2720  0.4763
 4049TIP3    H212154   4.428   2.515   4.397  1.2786  0.6027 -0.4471
 4050TIP3   OH212155   4.934   4.141   1.845 -0.3626  0.1972 -0.3234
 4050TIP3    H112156   4.987   4.219   1.829  0.3773 -0.6022 -2.0769
 4050TIP3    H212157   4.981   4.094   1.914  0.1338  0.4507 -0.4833
 4051TIP3   OH212158   2.498   0.415   0.939 -0.5989 -0.1688  0.1174
 4051TIP3    H112159   2.498   0.322   0.913 -0.2886  0.4136 -2.2161
 4051TIP3    H212160   2.582   0.428   0.983 -0.1805 -0.7922 -0.4670
 4052TIP3   OH212161   1.446   1.135   1.846 -0.3617 -0.0269 -0.4486
 4052TIP3    H112162   1.351   1.136   1.858 -0.4390  1.4783 -0.9435
 4052TIP3    H212163   1.458   1.152   1.752  0.3962  2.1456 -0.0100
 4053TIP3   OH212164   1.840   5.360   3.117 -0.3881 -0.2520  0.0012
 4053TIP3    H112165   1.900   5.296   3.078 -0.2541 -0.0531 -0.1217
 4053TIP3    H212166   1.791   5.394   3.042  0.3707  0.6625 -0.1034
 4054TIP3   OH212167   2.389   3.408   4.007  0.7310 -0.1008  0.4600
 4054TIP3    H112168   2.456   3.396   4.074  0.5579  0.6440  0.7693
 4054TIP3    H212169   2.337   3.482   4.038  1.0883  0.7320 -0.8400
 4055TIP3   OH212170   1.428   2.095   3.281 -0.2323  0.3017 -0.0514
 4055TIP3    H112171   1.358   2.152   3.250 -0.5046  0.7551  1.3334
 4055TIP3    H212172   1.468   2.143   3.354  0.4250 -0.6830  0.2580
 4056TIP3   OH212173   3.246   2.760   3.758  0.3859  0.2599 -0.4081
 4056TIP3    H112174   3.262   2.804   3.841  0.2559 -1.1128  0.3680
 4056TIP3    H212175   3.153   2.776   3.740 -0.3402 -1.7442  1.1671
 4057TIP3   OH212176   2.384   0.647   4.650  0.0254  0.0490  0.1514
 4057TIP3    H112177   2.292   0.672   4.663 -0.0989 -0.8379  1.1936
 4057TIP3    H212178   2.393   0.635   4.556 -0.9507  0.0795  0.0443
 4058TIP3   OH212179   1.191   2.669   3.825  0.1735  0.5377  0.2374
 4058TIP3    H112180   1.231   2.595   3.780  0.6687  0.8809  0.1075
 4058TIP3    H212181   1.101   2.672   3.791  0.4466  0.5940 -0.4874
 4059TIP3   OH212182   4.660   3.401   1.552  0.2010  0.3716  0.4070
 4059TIP3    H112183   4.580   3.383   1.504  0.7357 -0.5145 -0.1849
 4059TIP3    H212184   4.698   3.476   1.507  0.5769 -0.3060 -0.4240
 4060TIP3   OH212185   3.482   4.072   4.421 -0.0150  0.0775 -0.0881
 4060TIP3    H112186   3.526   4.031   4.347 -0.8339 -0.3714 -0.3304
 4060TIP3    H212187   3.469   4.001   4.484  1.4681  0.6209  0.8873
 4061TIP3   OH212188   0.028   5.619   0.910  0.0344  0.6825  0.0800
 4061TIP3    H112189   0.077   5.564   0.972  2.3688  1.8117 -0.6572
 4061TIP3    H212190   0.030   5.570   0.828 -1.2511  0.1548  0.3339
 4062TIP3   OH212191   1.947   3.448   4.478 -0.1729 -0.4161 -0.0349
 4062TIP3    H112192   1.868   3.501   4.490 -0.2680 -0.4973 -0.3239
 4062TIP3    H212193   1.916   3.358   4.470 -0.0836 -0.4026 -0.5679
 4063TIP3   OH212194   6.109   5.510   3.790  0.4161  0.0916  0.0671
 4063TIP3    H112195   6.056   5.496   3.711  2.1826  2.3565 -1.6308
 4063TIP3    H212196   6.086   5.598   3.819 -1.1786 -1.1266  3.0133
 4064TIP3   OH212197   5.902   1.408   4.160 -0.8237  0.2942  0.1472
 4064TIP3    H112198   5.937   1.458   4.086  0.8137 -2.1587 -0.8708
 4064TIP3    H212199   5.937   1.453   4.237  2.6201 -0.4908 -0.7698
 4065TIP3   OH212200   2.063   4.407   2.008  0.0408  0.3527 -0.2762
 4065TIP3    H112201   2.115   4.462   2.066 -0.8994  0.2292  0.7189
 4065TIP3    H212202   2.128   4.361   1.954  0.9010  1.0676  0.1182
 4066TIP3   OH212203   1.764   3.825   1.371 -0.0842 -0.1891 -0.4255
 4066TIP3    H112204   1.832   3.772   1.411 -0.3429 -0.5179 -0.4172
 4066TIP3    H212205   1.784   3.821   1.277 -0.2819 -0.5546 -0.4527
 4067TIP3   OH212206   3.374   5.786   4.214 -0.1392 -0.2109 -0.5341
 4067TIP3    H112207   3.389   5.880   4.219  0.9700 -0.3881 -0.3402
 4067TIP3    H212208   3.455   5.750   4.178 -0.0453 -1.2259  0.6151
 4068TIP3   OH212209   4.164   5.830   4.318 -0.7136 -0.1666  0.0441
 4068TIP3    H112210   4.162   5.916   4.275  0.0784 -0.2008 -0.0762
 4068TIP3    H212211   4.100   5.837   4.389  1.6493  1.6707  2.1850
 4069TIP3   OH212212   0.863   5.741   0.951 -0.3196 -0.2790  0.2462
 4069TIP3    H112213   0.946   5.716   0.912 -0.9830 -1.5678 -0.4210
 4069TIP3    H212214   0.877   5.733   1.045  0.2465 -0.7170  0.1308
 4070TIP3   OH212215   4.727   2.889   4.539  0.5694  0.8315  0.0776
 4070TIP3    H112216   4.724   2.906   4.445 -0.4346  1.5496  0.2179
 4070TIP3    H212217   4.709   2.974   4.580 -1.5736  0.0928  0.8617
 4071TIP3   OH212218   0.865   4.739   1.508 -0.5187 -0.5075 -0.2063
 4071TIP3    H112219   0.777   4.730   1.546 -0.8879 -0.5142 -1.0483
 4071TIP3    H212220   0.871   4.670   1.443 -0.6291  0.6690 -1.5269
 4072TIP3   OH212221   5.313   4.477   2.907 -0.1915  0.0533  0.1700
 4072TIP3    H112222   5.366   4.498   2.984 -0.4936  1.2597  0.0628
 4072TIP3    H212223   5.244   4.419   2.941  0.6730 -0.8370  0.4642
 4073TIP3   OH212224   3.728   1.917   2.695  0.1545  0.7600 -0.2799
 4073TIP3    H112225   3.678   1.922   2.777  1.7476 -0.5334  0.8318
 4073TIP3    H212226   3.708   1.830   2.660  0.0191  1.0441 -0.9220
 4074TIP3   OH212227   3.661   3.655   0.241  0.2132 -0.6012  0.2899
 4074TIP3    H112228   3.589   3.664   0.304 -0.7576 -3.0447 -0.3679
 4074TIP3    H212229   3.618   3.661   0.155  0.8671 -1.4289 -0.1100
 4075TIP3   OH212230   2.703   3.233   2.918 -0.1590  0.2137 -0.2542
 4075TIP3    H112231   2.614   3.266   2.930  0.1891  1.3257 -0.5914
 4075TIP3    H212232   2.755   3.281   2.983  0.0388 -1.1446  0.6169
 4076TIP3   OH212233   5.923   2.778   4.327 -0.0056 -0.3502  0.1866
 4076TIP3    H112234   5.902   2.844   4.392  3.0451 -0.8439  1.8160
 4076TIP3    H212235   6.011   2.799   4.298  0.4997 -2.8268 -0.3249
 4077TIP3   OH212236   4.397   4.362   4.244  0.1545  0.0861 -0.2809
 4077TIP3    H112237   4.361   4.450   4.233 -0.4664  0.0102  0.9571
 4077TIP3    H212238   4.329   4.315   4.293  0.4604 -1.1000 -0.9709
 4078TIP3   OH212239   1.906   4.680   3.609 -0.7451 -0.2176  0.1481
 4078TIP3    H112240   1.961   4.758   3.604 -0.5944 -0.2969  0.5498
 4078TIP3    H212241   1.878   4.676   3.700  0.8091 -1.6973  0.5900
 4079TIP3   OH212242   0.241   5.132   2.474  0.3528  0.1711 -0.0991
 4079TIP3    H112243   0.187   5.098   2.545  0.8643 -0.5983 -0.0706
 4079TIP3    H212244   0.329   5.097   2.492 -0.1090 -2.8944 -2.8978
 4080TIP3   OH212245   0.100   1.674   1.409  0.0397  0.1721 -0.9086
 4080TIP3    H112246   0.075   1.600   1.464  0.0472 -1.2437 -2.7112
 4080TIP3    H212247   0.186   1.699   1.441  0.0771 -0.6577 -0.3160
 4081TIP3   OH212248   0.045   0.647   1.213  0.0460 -0.2550  0.3558
 4081TIP3    H112249   0.034   0.644   1.118 -2.1202  0.9721  0.4981
 4081TIP3    H212250  -0.020   0.586   1.247 -0.2831  0.4778  1.0795
 4082TIP3   OH212251   3.621   3.257   4.444 -0.1220  0.1151  0.3089
 4082TIP3    H112252   3.602   3.164   4.456  1.7475 -0.5600 -1.4538
 4082TIP3    H212253   3.547   3.291   4.395 -0.7687 -0.4524  0.8772
 4083TIP3   OH212254   1.160   5.653   0.367 -0.4550  0.6847  0.2254
 4083TIP3    H112255   1.203   5.568   0.374 -1.0841  0.4719  2.2299
 4083TIP3    H212256   1.231   5.717   0.372 -0.0598  0.2973 -0.3611
 4084TIP3   OH212257   3.604   2.319   2.980  0.3216 -0.0326  0.0728
 4084TIP3    H112258   3.546   2.268   2.923  0.5505  0.2849 -0.4478
 4084TIP3    H212259   3.687   2.324   2.934 -0.4193  3.0412 -1.2172
 4085TIP3   OH212260   5.609   5.419   2.401 -0.1266 -0.4790 -1.0469
 4085TIP3    H112261   5.671   5.407   2.330 -0.1170 -0.3728 -1.0565
 4085TIP3    H212262   5.597   5.331   2.438  1.0860 -0.2886 -0.1545
 4086TIP3   OH212263   4.246   0.137   4.722  0.6770  0.5497  0.2876
 4086TIP3    H112264   4.298   0.212   4.692 -1.9390  1.7900 -1.5350
 4086TIP3    H212265   4.159   0.173   4.738 -0.1426 -1.7566  1.4293
 4087TIP3   OH212266   3.963   1.240   3.639 -0.5471  0.7602 -0.0605
 4087TIP3    H112267   3.910   1.239   3.719  0.4844 -2.0806  0.7007
 4087TIP3    H212268   3.902   1.212   3.570 -0.9448  1.1843  0.1178
 4088TIP3   OH212269   6.166   3.805   1.831  0.4917  0.3502  0.5361
 4088TIP3    H112270   6.230   3.869   1.799 -0.5188 -0.0382 -2.6044
 4088TIP3    H212271   6.219   3.732   1.861  1.5748  0.9112  0.0645
 4089TIP3   OH212272   2.954   2.930   4.528 -0.5200  0.1535 -0.3652
 4089TIP3    H112273   2.995   3.003   4.481 -0.2352  0.0411 -0.2915
 4089TIP3    H212274   2.974   2.949   4.620  1.3723 -1.1074 -0.4566
 4090TIP3   OH212275   0.966   5.713   3.962 -0.8443  0.4103  0.2057
 4090TIP3    H112276   1.057   5.684   3.956 -1.2970 -1.4036  1.4519
 4090TIP3    H212277   0.949   5.756   3.878  0.7067 -0.5744 -0.6458
 4091TIP3   OH212278   6.101   5.745   2.801  0.1315  0.0746  0.0333
 4091TIP3    H112279   6.186   5.772   2.769  0.1232 -0.5410 -0.5122
 4091TIP3    H212280   6.119   5.704   2.885  0.1521  1.6794  0.8609
 4092TIP3   OH212281   0.982   4.882   4.443  0.2965 -0.1271 -0.0852
 4092TIP3    H112282   0.890   4.855   4.437  0.0780 -0.0818  2.1919
 4092TIP3    H212283   1.030   4.800   4.452  0.3973 -0.1138 -0.5147
 4093TIP3   OH212284   3.136   5.662   1.124 -0.0042 -0.1237  0.0509
 4093TIP3    H112285   3.117   5.618   1.207  1.5427 -2.5352 -0.7559
 4093TIP3    H212286   3.101   5.603   1.057  0.6952  0.7084 -1.0832
 4094TIP3   OH212287   2.604   4.244   3.649 -0.3886 -0.3199 -0.2300
 4094TIP3    H112288   2.697   4.232   3.629  0.1127 -0.7933  2.0759
 4094TIP3    H212289   2.577   4.162   3.691 -1.5103  0.2955  0.3037
 4095TIP3   OH212290   1.317   4.610   0.363 -0.6176  0.2141 -0.1109
 4095TIP3    H112291   1.325   4.519   0.394 -0.1850 -0.0886 -1.0766
 4095TIP3    H212292   1.280   4.602   0.276 -0.0175  0.9305 -0.4410
 4096TIP3   OH212293   1.709   0.180   1.306  0.3198  0.1992 -0.2124
 4096TIP3    H112294   1.718   0.259   1.253 -0.1539 -0.0935 -0.7433
 4096TIP3    H212295   1.776   0.120   1.273  0.1521  0.0870 -0.3502
 4097TIP3   OH212296   2.061   1.572   3.087 -0.0016 -0.6382 -0.6266
 4097TIP3    H112297   2.009   1.632   3.034 -0.1857 -1.0221 -0.8870
 4097TIP3    H212298   2.001   1.543   3.156  0.3079  0.0461 -0.0572
 4098TIP3   OH212299   3.951   5.601   2.747  0.3315 -0.1476 -0.0430
 4098TIP3    H112300   3.954   5.560   2.834 -1.4298 -1.4406 -0.5238
 4098TIP3    H212301   4.013   5.550   2.695  0.1089 -0.5160  0.0413
 4099TIP3   OH212302   5.251   3.390   3.976 -1.1354 -0.3448 -0.1650
 4099TIP3    H112303   5.208   3.446   3.912 -1.8156 -1.0884 -0.3743
 4099TIP3    H212304   5.186   3.377   4.045 -0.6088 -0.0118  0.4022
 4100TIP3   OH212305   0.620   1.245   2.204 -0.1725  0.3364  0.0373
 4100TIP3    H112306   0.648   1.160   2.170  2.5913  1.9604 -2.2656
 4100TIP3    H212307   0.527   1.250   2.184 -0.0360 -1.4916 -1.3268
 4101TIP3   OH212308   6.038   2.239   0.716  0.1582  1.0810  0.9845
 4101TIP3    H112309   6.021   2.178   0.788  0.5636  0.0442  0.2282
 4101TIP3    H212310   5.958   2.237   0.664  0.9858 -0.6256 -0.3098
 4102TIP3   OH212311   2.196   3.866   1.810  0.1702  0.0117 -0.4333
 4102TIP3    H112312   2.133   3.872   1.882 -0.4548 -0.0094 -0.9750
 4102TIP3    H212313   2.211   3.772   1.799  0.8612  0.0356  0.1663
 4103TIP3   OH212314   1.957   4.233   3.680 -0.0602 -0.1753 -0.6259
 4103TIP3    H112315   1.908   4.153   3.659  1.0920 -0.7317 -1.2830
 4103TIP3    H212316   1.957   4.283   3.599  2.2659 -1.1808 -1.3175
 4104TIP3   OH212317   1.522   4.370   4.597  0.4643 -0.2770  0.1036
 4104TIP3    H112318   1.547   4.411   4.680  1.7280 -0.0722 -0.3646
 4104TIP3    H212319   1.551   4.431   4.530 -1.7090  0.2002 -0.5022
 4105TIP3   OH212320   4.248   0.155   4.232  0.5868 -0.4184  0.6168
 4105TIP3    H112321   4.238   0.066   4.267 -0.1484 -0.5827  0.0354
 4105TIP3    H212322   4.279   0.142   4.143 -0.9786 -0.1872 -0.0028
 4106TIP3   OH212323   2.062   2.626   3.402  0.1636  0.3716 -0.2716
 4106TIP3    H112324   2.039   2.571   3.327 -0.4267 -0.8393  0.7429
 4106TIP3    H212325   2.058   2.716   3.369  0.1661 -0.1381 -1.7348
 4107TIP3   OH212326   1.127   5.904   5.084 -0.4690  0.3513  0.1156
 4107TIP3    H112327   1.178   5.872   5.010  0.7987  1.0914  0.6393
 4107TIP3    H212328   1.047   5.939   5.044  0.3184  1.0220 -0.9525
 4108TIP3   OH212329   4.543   3.195   3.341 -0.1806 -0.0721  0.1920
 4108TIP3    H112330   4.581   3.178   3.255  0.7582 -0.8010  0.7295
 4108TIP3    H212331   4.603   3.259   3.381 -0.4469  0.0403  0.4120
 4109TIP3   OH212332   5.880   2.473   3.533  0.3982 -0.2270 -0.0132
 4109TIP3    H112333   5.901   2.563   3.509 -0.4290 -0.1864 -0.6343
 4109TIP3    H212334   5.784   2.471   3.539  0.4379 -0.9037  0.6753
 4110TIP3   OH212335   5.595   0.999   2.879  0.2220 -0.5137 -0.3497
 4110TIP3    H112336   5.615   1.093   2.883 -1.6310  0.0643 -2.4858
 4110TIP3    H212337   5.660   0.958   2.936 -0.1968  2.2329  2.3955
 4111TIP3   OH212338   5.560   3.484   1.853 -0.4448  0.0011  0.1782
 4111TIP3    H112339   5.540   3.410   1.910  2.2939 -0.5644  0.4993
 4111TIP3    H212340   5.563   3.560   1.912  1.6857 -0.4735  0.7688
 4112TIP3   OH212341   1.442   5.131   0.615 -0.0678  0.2041 -0.0254
 4112TIP3    H112342   1.405   5.070   0.553  0.2772 -1.0457  0.9609
 4112TIP3    H212343   1.480   5.076   0.684  2.6151  1.3982 -0.4014
 4113TIP3   OH212344   5.526   2.639   3.129 -0.4891 -0.0550 -0.2265
 4113TIP3    H112345   5.448   2.643   3.074 -0.1944 -1.0464 -0.7405
 4113TIP3    H212346   5.527   2.722   3.177 -3.0278 -0.8562  1.4141
 4114TIP3   OH212347   1.655   3.035   2.379 -0.4111 -0.5328 -0.1471
 4114TIP3    H112348   1.688   2.976   2.312 -1.6448 -2.5579  0.9134
 4114TIP3    H212349   1.628   2.977   2.450 -1.6741  1.3344  0.9764
 4115TIP3   OH212350   3.654   5.714   4.199  0.0192  0.3219  0.4090
 4115TIP3    H112351   3.681   5.703   4.291  0.1070 -1.4021  0.2193
 4115TIP3    H212352   3.737   5.715   4.150  0.0665  2.7227  0.4164
 4116TIP3   OH212353   3.435   4.114   1.727  0.4977 -0.0762  0.1633
 4116TIP3    H112354   3.345   4.084   1.715  0.5726 -0.5477  0.7518
 4116TIP3    H212355   3.447   4.117   1.822  1.9727 -2.7288  0.1603
 4117TIP3   OH212356   1.857   2.715   5.113  0.3312  1.0460 -0.5159
 4117TIP3    H112357   1.780   2.769   5.129  1.1909  2.1965 -0.0803
 4117TIP3    H212358   1.851   2.644   5.178  0.4779  2.0555  0.6249
 4118TIP3   OH212359   1.779   0.103   4.594  0.0594  0.3671 -0.4001
 4118TIP3    H112360   1.807   0.119   4.504  0.9550 -0.2825 -0.2459
 4118TIP3    H212361   1.718   0.174   4.612  0.7481  1.1825 -1.1423
 4119TIP3   OH212362   1.998   0.088   0.865 -0.0206 -0.1321  0.1124
 4119TIP3    H112363   1.917   0.133   0.890  0.2350 -0.5412  1.8168
 4119TIP3    H212364   2.068   0.140   0.904  0.5619  0.1954 -1.3203
 4120TIP3   OH212365   5.698   3.069   1.921 -0.6824  0.0552  0.1384
 4120TIP3    H112366   5.675   3.042   1.832  3.0228  0.3166 -1.0556
 4120TIP3    H212367   5.755   3.000   1.953  0.5774  1.4707  1.0554
 4121TIP3   OH212368   1.104   0.831   0.523 -0.4982  0.0371 -0.3519
 4121TIP3    H112369   1.097   0.735   0.517  0.3984  0.0175 -1.6496
 4121TIP3    H212370   1.180   0.846   0.579 -0.5089 -0.0193 -0.3222
 4122TIP3   OH212371   0.699   2.634   1.531  0.2170 -0.2754 -0.1671
 4122TIP3    H112372   0.793   2.630   1.513  0.4309  1.6514  0.2685
 4122TIP3    H212373   0.686   2.573   1.604  1.5053  0.7760  1.0087
 4123TIP3   OH212374   3.133   2.744   4.477 -0.0936 -0.5006  0.0390
 4123TIP3    H112375   3.064   2.800   4.510  0.4666 -0.3822  1.0440
 4123TIP3    H212376   3.138   2.765   4.384 -0.7739  0.1595  0.1398
 4124TIP3   OH212377   3.141   5.204   2.469 -0.3831 -0.4260  0.6815
 4124TIP3    H112378   3.063   5.248   2.502 -0.7798  0.0914 -0.8337
 4124TIP3    H212379   3.194   5.275   2.430 -0.4564 -1.0898 -0.7108
 4125TIP3   OH212380   5.530   5.115   1.542  0.7089  0.1561 -0.4673
 4125TIP3    H112381   5.580   5.193   1.519  2.1066 -0.3713  0.6154
 4125TIP3    H212382   5.544   5.104   1.636 -1.2264 -0.2094 -0.1619
 4126TIP3   OH212383   3.220   4.445   1.050 -0.2431  0.0112 -0.7245
 4126TIP3    H112384   3.177   4.360   1.057  1.2417 -0.6775  0.8132
 4126TIP3    H212385   3.190   4.493   1.127 -1.2944  1.0070 -1.7380
 4127TIP3   OH212386   1.778   3.996   3.621 -0.3140 -0.2421  0.5163
 4127TIP3    H112387   1.688   4.012   3.648 -0.9919 -0.9238 -1.1978
 4127TIP3    H212388   1.806   3.921   3.673 -0.2439  0.7892  2.0157
 4128TIP3   OH212389   5.057   0.342   0.070 -0.6564  0.0589 -0.2480
 4128TIP3    H112390   4.997   0.268   0.076 -0.5797  0.0606  0.8483
 4128TIP3    H212391   5.019   0.399   0.004 -0.4497 -1.1777 -1.4828
 4129TIP3   OH212392   4.658   3.738   2.614 -0.4588  0.0261  0.4636
 4129TIP3    H112393   4.687   3.819   2.572  2.7730 -0.5384  1.3144
 4129TIP3    H212394   4.665   3.756   2.707 -4.4093  0.2165  0.8686
 4130TIP3   OH212395   0.867   0.806   0.857  0.4679 -0.2652  0.7686
 4130TIP3    H112396   0.851   0.851   0.774  0.4110  0.5958  1.2412
 4130TIP3    H212397   0.962   0.795   0.861  0.4879 -0.1074  0.7013
 4131TIP3   OH212398   0.668   3.670   2.221  0.7244 -0.0478  0.1928
 4131TIP3    H112399   0.710   3.591   2.186 -0.5141 -0.8532  0.4737
 4131TIP3    H212400   0.603   3.694   2.156  1.1814  0.8379  0.0487
 4132TIP3   OH212401   6.103   0.987   2.739 -0.2277 -0.7297  0.6973
 4132TIP3    H112402   6.021   1.035   2.729  0.8425  1.0151 -0.1657
 4132TIP3    H212403   6.164   1.031   2.679  1.9302 -0.6209  2.8386
 4133TIP3   OH212404   2.412   1.395   2.444  0.5240 -0.3896 -0.0267
 4133TIP3    H112405   2.341   1.331   2.443  0.5042 -0.3626 -0.6811
 4133TIP3    H212406   2.487   1.347   2.480 -0.0413 -0.1666  1.5478
 4134TIP3   OH212407   1.779   4.897   2.252 -0.0250 -0.3052 -0.1796
 4134TIP3    H112408   1.859   4.867   2.294 -0.1495 -1.4517 -0.7247
 4134TIP3    H212409   1.766   4.837   2.179  0.5075  1.9452 -2.2798
 4135TIP3   OH212410   1.743   1.969   2.894  0.5867 -0.3111 -0.0276
 4135TIP3    H112411   1.749   1.875   2.911  0.0544 -0.3926 -0.2865
 4135TIP3    H212412   1.750   2.009   2.981  1.0448 -0.5775  0.0589
 4136TIP3   OH212413   0.097   0.009   4.056 -0.0507  0.1034  0.2329
 4136TIP3    H112414   0.107   0.075   3.987 -1.1461 -0.0963 -0.1425
 4136TIP3    H212415   0.121  -0.074   4.014 -1.8187 -0.1883 -0.2887
 4137TIP3   OH212416   0.403   3.101   0.695 -0.2231  0.2014  0.4001
 4137TIP3    H112417   0.337   3.164   0.723 -2.1014 -1.1008 -0.8896
 4137TIP3    H212418   0.380   3.079   0.605  1.9429 -0.3699 -0.0843
 4138TIP3   OH212419   5.011   3.655   2.689 -0.2589  0.0272  0.5110
 4138TIP3    H112420   4.939   3.593   2.676  0.4513 -0.3863 -2.2433
 4138TIP3    H212421   5.023   3.660   2.784 -1.9504 -2.1652  0.9170
 4139TIP3   OH212422   4.362   2.869   3.830 -0.0612 -0.4363  0.4509
 4139TIP3    H112423   4.350   2.790   3.883  1.8453  0.9652  3.2845
 4139TIP3    H212424   4.429   2.845   3.766  1.0368 -0.9880  1.7427
 4140TIP3   OH212425   1.876   4.532   0.729 -0.2213  0.4153  0.1050
 4140TIP3    H112426   1.913   4.619   0.742 -0.1702  0.3631  0.3120
 4140TIP3    H212427   1.869   4.523   0.634  1.2290  0.0439  0.0039
 4141TIP3   OH212428   4.867   4.352   0.559  0.3153  0.4675 -0.1215
 4141TIP3    H112429   4.908   4.438   0.549 -2.3669  1.6509 -2.2831
 4141TIP3    H212430   4.790   4.369   0.614 -0.5993 -0.3754 -1.0904
 4142TIP3   OH212431   3.990   5.030   3.012 -0.3238 -0.6886 -0.3235
 4142TIP3    H112432   4.041   4.962   3.057 -0.5076 -0.8927 -0.4213
 4142TIP3    H212433   3.953   5.083   3.082 -0.7289 -1.0923 -0.2230
 4143TIP3   OH212434   2.615   0.642   1.247  0.1447 -0.1129  0.2798
 4143TIP3    H112435   2.639   0.676   1.161 -0.6921 -0.5162 -0.1269
 4143TIP3    H212436   2.681   0.678   1.307  1.2817 -0.5555 -0.6636
 4144TIP3   OH212437   6.019   1.233   1.460 -0.2575  0.0369 -0.9027
 4144TIP3    H112438   6.074   1.173   1.511  0.4512  0.8179 -0.7148
 4144TIP3    H212439   5.960   1.271   1.525 -0.7864 -0.5369 -1.0422
 4145TIP3   OH212440   0.053   4.360   2.050  0.0927 -0.8441  0.3877
 4145TIP3    H112441   0.070   4.304   2.125 -0.0200 -0.4133  0.7401
 4145TIP3    H212442   0.123   4.340   1.988 -0.8101 -2.4815 -0.1384
 4146TIP3   OH212443   3.071   1.999   4.173 -0.2090  0.0003 -0.5625
 4146TIP3    H112444   3.166   1.999   4.163 -0.1660  1.1119 -0.2809
 4146TIP3    H212445   3.056   2.032   4.262 -0.8621  0.4703 -0.8348
 4147TIP3   OH212446   2.970   4.289   4.546 -0.3248 -0.1492  0.0004
 4147TIP3    H112447   2.886   4.279   4.591 -0.3407  0.1642  0.0390
 4147TIP3    H212448   2.980   4.207   4.497 -0.6307 -0.2092  0.0334
 4148TIP3   OH212449   5.326   4.046   1.848 -0.4530  0.0939 -0.1128
 4148TIP3    H112450   5.291   4.034   1.760  0.5308  1.0505 -0.6585
 4148TIP3    H212451   5.419   4.027   1.840 -0.4185 -0.1912  0.8151
 4149TIP3   OH212452   5.874   2.840   2.632  0.3067 -0.0715  0.1715
 4149TIP3    H112453   5.832   2.754   2.638 -1.2272  0.4948 -1.4814
 4149TIP3    H212454   5.929   2.834   2.555 -0.1995  0.5539 -0.2540
 4150TIP3   OH212455   4.309   2.153   0.478 -0.1392  0.4464 -0.0084
 4150TIP3    H112456   4.303   2.199   0.395 -0.6279  0.1065 -0.1669
 4150TIP3    H212457   4.400   2.161   0.504  0.4615 -0.9999 -1.4924
 4151TIP3   OH212458   1.014   5.620   1.551  0.1654 -0.4187 -0.3447
 4151TIP3    H112459   0.955   5.603   1.624  0.6702 -2.7030 -0.3941
 4151TIP3    H212460   1.100   5.634   1.592  0.3607 -1.2456 -0.4553
 4152TIP3   OH212461   3.424   2.720   4.392  0.1519 -0.2316  0.6823
 4152TIP3    H112462   3.338   2.694   4.424  0.5762 -1.4774  0.8932
 4152TIP3    H212463   3.479   2.642   4.406  0.8070 -0.1976 -1.4220
 4153TIP3   OH212464   0.200   4.000   2.297  0.9312 -0.2595 -0.7628
 4153TIP3    H112465   0.241   4.063   2.357  0.1568 -0.4557 -0.0148
 4153TIP3    H212466   0.111   4.033   2.286  1.0140 -0.3308 -1.6687
 4154TIP3   OH212467   2.340   0.154   3.492  0.2825 -0.2638  0.2914
 4154TIP3    H112468   2.286   0.228   3.462  0.7277  0.5046  1.3245
 4154TIP3    H212469   2.427   0.192   3.506  1.0318 -1.4175 -1.0225
 4155TIP3   OH212470   5.438   2.661   1.596 -0.7560  0.2692 -0.2346
 4155TIP3    H112471   5.506   2.639   1.659  0.5491  0.0167 -1.6891
 4155TIP3    H212472   5.361   2.612   1.626 -0.6172  1.2790  1.9606
 4156TIP3   OH212473   5.600   3.994   1.820  0.3871 -0.0785  0.2688
 4156TIP3    H112474   5.616   3.918   1.877  0.8638 -0.1794 -0.0010
 4156TIP3    H212475   5.686   4.021   1.791  0.0741 -1.4202 -2.2286
 4157TIP3   OH212476   0.066   1.160   1.264  0.6888  0.3138  0.6455
 4157TIP3    H112477  -0.003   1.117   1.213  2.6601  0.2912 -2.2684
 4157TIP3    H212478   0.048   1.254   1.255  2.4297  0.4873 -2.6202
 4158TIP3   OH212479   1.437   4.210   1.511 -0.7817 -0.1000  0.4599
 4158TIP3    H112480   1.377   4.141   1.538 -0.2661 -1.0488 -0.7372
 4158TIP3    H212481   1.512   4.164   1.475 -0.8713  1.0718 -1.3430
 4159TIP3   OH212482   2.408   3.277   4.624  0.1198 -0.4828  0.1851
 4159TIP3    H112483   2.484   3.246   4.575 -0.2545 -0.5526 -0.3618
 4159TIP3    H212484   2.424   3.370   4.637 -0.0627 -0.3242 -0.6327
 4160TIP3   OH212485   5.801   3.440   0.170  0.2559  0.6337 -0.1622
 4160TIP3    H112486   5.875   3.394   0.129  1.1021  0.0778  1.8615
 4160TIP3    H212487   5.725   3.387   0.148  0.9439 -0.6489  0.4498
 4161TIP3   OH212488   6.133   1.783   2.931  0.5053 -0.2782 -0.2472
 4161TIP3    H112489   6.171   1.867   2.908 -1.4366  1.1577  1.4151
 4161TIP3    H212490   6.059   1.773   2.871 -0.0862 -0.0943  0.4267
 4162TIP3   OH212491   2.647   5.707   2.017  0.1832  0.2326  0.0219
 4162TIP3    H112492   2.649   5.756   1.935 -0.0847  0.0511 -0.0956
 4162TIP3    H212493   2.735   5.715   2.052 -0.4011  2.7489  1.1714
 4163TIP3   OH212494   2.380   1.010   4.694  0.4838  0.3453  0.2215
 4163TIP3    H112495   2.419   0.945   4.637  0.4097 -1.9578  2.6071
 4163TIP3    H212496   2.453   1.046   4.744  0.4772  1.9538 -0.8302
 4164TIP3   OH212497   3.930   4.131   2.928 -0.0433  0.0870 -0.3679
 4164TIP3    H112498   3.956   4.061   2.867 -0.0040 -1.0193  0.8749
 4164TIP3    H212499   3.945   4.094   3.014 -1.7490  0.9626  0.3618
 4165TIP3   OH212500   5.692   1.095   1.605 -0.1779  0.2195  0.0414
 4165TIP3    H112501   5.693   1.189   1.587 -2.9240  0.0381 -1.6142
 4165TIP3    H212502   5.659   1.088   1.695  0.9410  0.8102  0.5227
 4166TIP3   OH212503   0.757   0.901   2.716  0.6843 -0.4847  0.2649
 4166TIP3    H112504   0.782   0.845   2.642  1.8175  0.9356 -0.4908
 4166TIP3    H212505   0.662   0.900   2.715  0.6655 -0.6006 -1.1728
 4167TIP3   OH212506   3.959   4.692   3.243 -0.1302 -0.5315  0.2457
 4167TIP3    H112507   4.042   4.738   3.237  0.0240 -0.8211  0.1291
 4167TIP3    H212508   3.955   4.659   3.332  0.7392 -2.1068 -0.2674
 4168TIP3   OH212509   4.198   2.701   4.684  0.9072  0.1986 -0.1545
 4168TIP3    H112510   4.144   2.729   4.758  1.1286 -0.3231  0.2126
 4168TIP3    H212511   4.240   2.781   4.653 -1.0543  0.8725 -1.2749
 4169TIP3   OH212512   6.321   0.686   0.949 -0.1367  0.2039 -0.6130
 4169TIP3    H112513   6.392   0.731   0.904 -0.9703  1.1331 -1.0423
 4169TIP3    H212514   6.251   0.752   0.956 -2.0213 -1.3957 -2.7099
 4170TIP3   OH212515   5.222   4.313   0.359 -0.1923  0.2237  0.0205
 4170TIP3    H112516   5.291   4.331   0.423 -0.9884  1.8563  0.4647
 4170TIP3    H212517   5.245   4.366   0.283  0.6786 -1.6063 -1.0864
 4171TIP3   OH212518   2.257   2.332   2.360 -0.1924  0.5731 -0.5238
 4171TIP3    H112519   2.350   2.349   2.374  0.2611 -1.2049 -1.1744
 4171TIP3    H212520   2.243   2.244   2.396 -1.7113  0.9493 -0.1133
 4172TIP3   OH212521   6.036   4.870   2.860 -0.2250  0.1162 -0.4304
 4172TIP3    H112522   6.085   4.800   2.902 -1.1512 -0.3360 -0.0686
 4172TIP3    H212523   5.993   4.916   2.932  0.5120  1.1844 -0.6449
 4173TIP3   OH212524   4.039   1.855   1.330 -0.1735  0.2255  0.2510
 4173TIP3    H112525   4.120   1.888   1.292 -0.4877  1.0986  0.3114
 4173TIP3    H212526   4.032   1.765   1.298  1.6932 -0.4623  1.6295
 4174TIP3   OH212527   3.130   4.418   3.966  0.3387  0.2583 -0.2529
 4174TIP3    H112528   3.109   4.367   4.044  1.0206  0.4795  0.0908
 4174TIP3    H212529   3.201   4.477   3.994  1.2873 -0.3426 -1.2803
 4175TIP3   OH212530   4.697   1.558   3.393  0.2628  0.4618 -0.4815
 4175TIP3    H112531   4.628   1.565   3.327 -0.2198 -0.1153 -0.0397
 4175TIP3    H212532   4.738   1.473   3.375 -1.3226 -0.7702  1.3338
 4176TIP3   OH212533   1.902   4.434   1.343  0.0761  0.5497  0.9219
 4176TIP3    H112534   1.839   4.362   1.345 -0.4785  0.9477 -0.7904
 4176TIP3    H212535   1.985   4.394   1.369  0.1488 -1.1567 -1.5765
 4177TIP3   OH212536   1.407   1.016   3.890  0.1500  0.0469 -1.2055
 4177TIP3    H112537   1.367   1.055   3.967 -1.9576  0.9849 -2.6994
 4177TIP3    H212538   1.384   0.923   3.896 -1.4415  0.3994 -1.5207
 4178TIP3   OH212539   0.337   4.741   4.790 -0.1361 -0.8354 -0.9995
 4178TIP3    H112540   0.432   4.744   4.797 -0.0137 -0.1567 -2.5330
 4178TIP3    H212541   0.319   4.668   4.731 -0.4506  0.0828 -2.0719
 4179TIP3   OH212542   5.460   0.450   4.358  0.3250  0.3043  0.0391
 4179TIP3    H112543   5.420   0.416   4.279 -0.5335  0.2669  0.4797
 4179TIP3    H212544   5.528   0.386   4.381 -0.7900 -0.7545  0.4688
 4180TIP3   OH212545   2.701   3.616   1.344  0.3396 -0.5708 -0.5435
 4180TIP3    H112546   2.768   3.672   1.383  1.7671 -3.5056  1.5568
 4180TIP3    H212547   2.723   3.614   1.251  1.0916  1.1394 -0.4444
 4181TIP3   OH212548   4.184   0.611   0.985 -0.0591  0.1771 -0.2062
 4181TIP3    H112549   4.226   0.588   0.902  1.7474 -0.2739  0.7853
 4181TIP3    H212550   4.105   0.556   0.987 -0.8257  1.1058 -2.1485
 4182TIP3   OH212551   3.926   1.554   4.607  0.2509  0.3342  0.5146
 4182TIP3    H112552   4.010   1.560   4.562 -0.7395 -2.4283 -2.0139
 4182TIP3    H212553   3.885   1.639   4.593  1.1513  0.5019 -1.4553
 4183TIP3   OH212554   3.015   3.701   3.461  0.1254 -0.2498  0.7789
 4183TIP3    H112555   3.068   3.779   3.443 -1.5510  1.3478  2.2785
 4183TIP3    H212556   3.014   3.695   3.557 -1.5727 -0.8021  0.7531
 4184TIP3   OH212557   3.842   2.317   4.036  0.1420 -0.5383  0.1208
 4184TIP3    H112558   3.849   2.323   3.940 -0.3690  1.2191  0.1540
 4184TIP3    H212559   3.773   2.253   4.051  1.0362 -1.7283 -0.6369
 4185TIP3   OH212560   5.313   1.033   0.013  0.4515  0.0884 -0.5058
 4185TIP3    H112561   5.371   0.976  -0.037  1.5627 -1.3414  2.2444
 4185TIP3    H212562   5.242   0.976   0.043  1.1031  0.2848  1.5383
 4186TIP3   OH212563   5.848   5.156   4.085  0.4023 -0.4936  0.5635
 4186TIP3    H112564   5.783   5.225   4.102  0.4967 -0.3216  0.2269
 4186TIP3    H212565   5.926   5.203   4.055 -0.3031 -0.8678 -2.0685
 4187TIP3   OH212566   5.971   4.123   2.036  0.1612  0.1225 -0.1525
 4187TIP3    H112567   5.947   4.040   1.995  2.7567  0.2947 -2.2485
 4187TIP3    H212568   5.969   4.105   2.130 -0.0821 -2.0733 -0.5305
 4188TIP3   OH212569   5.918   5.055   0.140 -0.2896 -0.2937  0.2106
 4188TIP3    H112570   5.850   5.046   0.207 -0.1357  0.2678  0.4429
 4188TIP3    H212571   5.873   5.093   0.065 -0.9323 -2.7330 -0.7587
 4189TIP3   OH212572   5.045   0.916   3.652  0.0387 -0.1232  0.2029
 4189TIP3    H112573   5.091   0.946   3.574  0.4134  0.2704  0.5667
 4189TIP3    H212574   5.112   0.870   3.703 -0.2970 -0.7089  0.1107
 4190TIP3   OH212575   1.830   5.583   0.730  0.1645  0.0276  0.2572
 4190TIP3    H112576   1.819   5.674   0.703 -0.7525  0.0502  0.6833
 4190TIP3    H212577   1.811   5.532   0.652  2.2741  0.2132 -0.4574
 4191TIP3   OH212578   1.172   4.358   1.005 -0.5201  0.1774  0.2637
 4191TIP3    H112579   1.090   4.376   1.050 -1.5895 -2.3846 -0.4781
 4191TIP3    H212580   1.236   4.349   1.075 -1.3557 -0.0229  1.0212
 4192TIP3   OH212581   3.562   5.953   4.409  0.3843 -0.4159  1.0931
 4192TIP3    H112582   3.591   5.862   4.418  0.2216 -0.3333  2.8469
 4192TIP3    H212583   3.468   5.949   4.421  0.2586 -0.1059  0.2636
 4193TIP3   OH212584   1.846   0.036   2.113 -0.2956  0.5268  0.0740
 4193TIP3    H112585   1.838  -0.034   2.177 -1.7865  0.4517 -0.1701
 4193TIP3    H212586   1.909   0.004   2.049 -1.8086 -1.1048 -0.6697
 4194TIP3   OH212587   5.877   1.936   5.149 -0.0617  0.2604 -0.0292
 4194TIP3    H112588   5.840   1.977   5.227  2.5125 -0.5945  1.7840
 4194TIP3    H212589   5.862   1.842   5.161  1.1779  0.0449 -0.0542
 4195TIP3   OH212590   4.090   2.995   0.773  0.6006 -0.2268  0.1752
 4195TIP3    H112591   4.149   2.983   0.847 -0.5083  1.2465  1.3865
 4195TIP3    H212592   4.064   3.088   0.778 -0.8258 -0.5131 -1.0344
 4196TIP3   OH212593   2.916   3.474   1.586  0.3053  0.0690  0.1589
 4196TIP3    H112594   2.918   3.519   1.670  2.6389 -1.2971  0.9343
 4196TIP3    H212595   2.943   3.541   1.523 -0.8308  0.9354  0.5676
 4197TIP3   OH212596   3.445   3.575   4.043  0.7821 -0.5140 -0.1774
 4197TIP3    H112597   3.518   3.637   4.033  0.3894  0.0466  0.3299
 4197TIP3    H212598   3.450   3.547   4.134  0.1667 -0.2087 -0.0458
 4198TIP3   OH212599   3.757   5.290   3.946  0.2836 -0.2899  0.2668
 4198TIP3    H112600   3.674   5.303   3.900 -0.1296 -0.1930  1.0083
 4198TIP3    H212601   3.734   5.233   4.020  0.9378 -0.4975  0.3110
 4199TIP3   OH212602   4.151   4.511   1.144  0.4486 -0.2790 -0.1983
 4199TIP3    H112603   4.110   4.529   1.059 -0.3512  0.3921  0.3164
 4199TIP3    H212604   4.220   4.576   1.152  0.3131 -0.1333 -0.1995
 4200TIP3   OH212605   2.797   2.517   4.347 -0.0660  0.0569 -0.2027
 4200TIP3    H112606   2.860   2.445   4.337  1.1950  0.6243  2.6433
 4200TIP3    H212607   2.712   2.473   4.357  0.2284 -0.8516 -1.3972
 4201TIP3   OH212608   1.429   0.585   0.651 -0.1073 -0.7531  0.1102
 4201TIP3    H112609   1.471   0.558   0.569  1.6730 -0.8591  1.0137
 4201TIP3    H212610   1.493   0.565   0.719 -1.3009 -0.1141  1.4854
 4202TIP3   OH212611   4.336   4.343   4.991  0.4416 -0.2625 -0.0640
 4202TIP3    H112612   4.373   4.321   4.906  1.3630 -0.5583  0.3974
 4202TIP3    H212613   4.410   4.338   5.052  0.0255  1.0122  0.5894
 4203TIP3   OH212614   2.478   4.531   4.011 -0.6521  0.0903  0.5707
 4203TIP3    H112615   2.567   4.542   4.046  0.8725 -3.1264 -1.8228
 4203TIP3    H212616   2.441   4.460   4.062 -1.2189  0.2751  0.4222
 4204TIP3   OH212617   2.214   5.920   4.384  0.1732 -0.5997 -0.1858
 4204TIP3    H112618   2.269   5.857   4.336 -1.4955 -1.8092 -0.6178
 4204TIP3    H212619   2.275   5.988   4.413  1.9791 -2.1442 -0.1494
 4205TIP3   OH212620   1.136   3.897   0.179 -0.0162  0.1661 -0.2429
 4205TIP3    H112621   1.104   3.876   0.267  0.2124 -0.4755 -0.3110
 4205TIP3    H212622   1.207   3.959   0.194 -0.3534  0.5066 -0.0125
 4206TIP3   OH212623   1.939   5.448   5.084  0.3876 -0.4050 -0.0239
 4206TIP3    H112624   1.869   5.419   5.143  1.0385  0.3510  1.1723
 4206TIP3    H212625   1.899   5.516   5.031 -0.0779 -0.7318 -0.0929
 4207TIP3   OH212626   4.604   4.541   2.408  0.1449  0.0286 -0.2688
 4207TIP3    H112627   4.526   4.548   2.354  0.1744 -2.6963 -0.7892
 4207TIP3    H212628   4.606   4.450   2.437  1.4828  0.7784  2.3078
 4208TIP3   OH212629   3.683   2.874   3.121  0.3157 -0.2737  0.1404
 4208TIP3    H112630   3.710   2.867   3.030  0.5666  0.8902  0.1068
 4208TIP3    H212631   3.673   2.784   3.150  0.6156 -0.6658 -0.9243
 4209TIP3   OH212632   0.152   4.632   0.047 -0.4221  0.3372  0.1407
 4209TIP3    H112633   0.160   4.698   0.117 -2.3366 -0.2746  0.9890
 4209TIP3    H212634   0.098   4.563   0.085 -0.1312 -0.8026 -1.4192
 4210TIP3   OH212635   5.300   5.400   3.599  0.0735  0.3055 -0.0871
 4210TIP3    H112636   5.360   5.459   3.553 -2.1848  1.7587 -1.3822
 4210TIP3    H212637   5.281   5.445   3.682  0.0121  0.3309 -0.1148
 4211TIP3   OH212638   4.541   5.092   0.403  0.3362 -0.2254 -0.3496
 4211TIP3    H112639   4.574   5.095   0.313 -2.2276 -0.5772 -1.4103
 4211TIP3    H212640   4.460   5.041   0.396  0.2640 -0.5746  2.2540
 4212TIP3   OH212641   5.632   3.423   1.062 -0.1868  0.4339  0.1031
 4212TIP3    H112642   5.713   3.469   1.085  0.5278 -0.9494  0.5029
 4212TIP3    H212643   5.611   3.454   0.974  0.0115  1.8313  0.5266
 4213TIP3   OH212644   1.194   3.127   3.449 -0.2684  0.0790  0.0510
 4213TIP3    H112645   1.226   3.206   3.406 -0.8500  0.0785 -0.3982
 4213TIP3    H212646   1.252   3.115   3.525  0.4686  0.3579 -0.4519
 4214TIP3   OH212647   1.369   1.010   2.457 -0.1183  0.5152  0.7161
 4214TIP3    H112648   1.412   0.963   2.386  0.4910  0.9074  0.8170
 4214TIP3    H212649   1.283   0.969   2.464 -0.7128  1.3411 -1.1209
 4215TIP3   OH212650   5.391   1.952   3.822 -0.3460 -0.1917 -0.4428
 4215TIP3    H112651   5.330   1.912   3.884  0.3865 -2.0301 -0.8602
 4215TIP3    H212652   5.334   2.004   3.764 -1.0860  1.1977  1.4226
 4216TIP3   OH212653   2.846   4.506   2.335  0.3688 -0.2400  0.2098
 4216TIP3    H112654   2.918   4.565   2.312  0.9009 -1.5836 -1.8190
 4216TIP3    H212655   2.819   4.535   2.423  0.0706  3.4907 -0.9183
 4217TIP3   OH212656   2.115   0.497   3.997  0.0654  0.5875  0.2033
 4217TIP3    H112657   2.174   0.430   3.960 -1.1875 -0.7657  0.5841
 4217TIP3    H212658   2.174   0.564   4.030  1.3646 -0.1139 -0.5823
 4218TIP3   OH212659   0.869   0.431   3.449  0.6512 -0.2971  1.0709
 4218TIP3    H112660   0.812   0.490   3.497  0.7227  0.3627  0.3695
 4218TIP3    H212661   0.902   0.369   3.515  0.8632  0.6646  1.8880
 4219TIP3   OH212662   3.681   3.707   4.328  0.0246  0.0862  0.1652
 4219TIP3    H112663   3.688   3.615   4.305 -2.5979  0.0967 -0.9854
 4219TIP3    H212664   3.692   3.709   4.424  0.7126 -1.2924  0.1370
 4220TIP3   OH212665   3.489   0.893   3.638  0.0007 -0.4139 -0.3200
 4220TIP3    H112666   3.541   0.823   3.600 -0.3257  0.2831 -2.1774
 4220TIP3    H212667   3.398   0.865   3.627 -0.1365  0.3054 -1.1724
 4221TIP3   OH212668   1.705   3.606   4.579 -0.0154 -0.8797  0.1379
 4221TIP3    H112669   1.739   3.695   4.567 -0.5350 -0.5340  1.1155
 4221TIP3    H212670   1.615   3.619   4.609  0.8522 -1.5987  3.4544
 4222TIP3   OH212671   2.578   2.381   4.297 -0.6380 -0.1951  0.2982
 4222TIP3    H112672   2.537   2.301   4.330 -1.9372 -0.4720 -1.8499
 4222TIP3    H212673   2.597   2.363   4.205  0.6080  1.3882  0.2046
 4223TIP3   OH212674   2.104   4.247   2.470 -0.3030  0.5075 -0.1623
 4223TIP3    H112675   2.029   4.188   2.463 -0.4813  0.9036 -1.9326
 4223TIP3    H212676   2.065   4.334   2.477 -0.0088  0.5831  0.6701
 4224TIP3   OH212677   5.527   3.325   5.109  0.3985  0.5250  0.2462
 4224TIP3    H112678   5.491   3.382   5.042 -1.6201 -1.0597 -0.1366
 4224TIP3    H212679   5.452   3.305   5.166  2.0404  1.8716  3.0788
 4225TIP3   OH212680   1.664   2.658   0.008  0.0484  0.1412 -0.4197
 4225TIP3    H112681   1.713   2.691   0.083  0.8756  0.2945 -1.0130
 4225TIP3    H212682   1.668   2.563   0.017  1.4858  0.1087 -1.0781
 4226TIP3   OH212683   2.490   1.277   1.085 -0.0183  0.0748  0.0019
 4226TIP3    H112684   2.427   1.310   1.149 -0.1218 -1.5395  0.7697
 4226TIP3    H212685   2.576   1.302   1.120 -0.1400  0.6640 -0.1070
 4227TIP3   OH212686   4.774   3.558   0.667  0.6462 -0.1027 -0.2196
 4227TIP3    H112687   4.809   3.481   0.622  3.3546  0.4491  0.7786
 4227TIP3    H212688   4.831   3.570   0.742 -0.6322  2.0317  0.4881
 4228TIP3   OH212689   3.091   2.637   1.556 -0.1800  0.6171  0.1359
 4228TIP3    H112690   3.046   2.719   1.536 -1.2433  0.0956  0.3583
 4228TIP3    H212691   3.092   2.590   1.472 -3.3882 -0.9575  0.8265
 4229TIP3   OH212692   5.921   1.672   4.364  0.7896 -0.2291  0.1351
 4229TIP3    H112693   5.870   1.723   4.428  0.9158 -0.5802  0.5251
 4229TIP3    H212694   5.924   1.584   4.402  1.9011 -0.1529  0.2380
 4230TIP3   OH212695   2.559   4.608   4.960  0.0678 -0.2099  0.2832
 4230TIP3    H112696   2.503   4.608   4.882  2.0471 -0.7155 -1.2130
 4230TIP3    H212697   2.541   4.692   5.002 -2.0331 -0.4963  0.0569
 4231TIP3   OH212698   0.267   0.958   4.539  0.6968  0.0218 -0.8524
 4231TIP3    H112699   0.230   0.999   4.617  1.2195  0.4316 -0.8186
 4231TIP3    H212700   0.358   0.939   4.562  0.6380 -0.5927 -1.0845
 4232TIP3   OH212701   0.333   3.249   3.093  0.1869  0.2199  0.4623
 4232TIP3    H112702   0.386   3.169   3.093  1.4057  0.9942 -0.2678
 4232TIP3    H212703   0.243   3.219   3.103  0.3703 -1.4335 -1.9939
 4233TIP3   OH212704   3.308   0.099   2.255  0.2414 -0.0219  0.1074
 4233TIP3    H112705   3.390   0.147   2.255  0.0176  0.4006  1.4187
 4233TIP3    H212706   3.240   0.166   2.246 -0.0029 -0.2408  0.2854
 4234TIP3   OH212707   1.550   1.381  -0.011 -0.5544  0.1089 -0.6430
 4234TIP3    H112708   1.496   1.349   0.060 -2.9539  1.0719 -1.9096
 4234TIP3    H212709   1.613   1.440   0.031 -0.1513 -1.3544  0.9176
 4235TIP3   OH212710   4.641   5.936   2.097 -0.0443  0.0009  0.0124
 4235TIP3    H112711   4.661   5.901   2.011 -1.1988 -1.0125  0.1247
 4235TIP3    H212712   4.656   5.863   2.158 -1.1790  0.0720  0.4097
 4236TIP3   OH212713   0.805   0.496   2.760 -0.1664  0.3843 -0.2167
 4236TIP3    H112714   0.852   0.571   2.797 -0.4049  0.5670 -0.2784
 4236TIP3    H212715   0.749   0.465   2.831 -0.2326  0.4065 -0.2583
 4237TIP3   OH212716   1.782   2.083   1.518 -0.2409  0.6699  0.2993
 4237TIP3    H112717   1.799   2.140   1.593  0.9545  1.4617 -0.5403
 4237TIP3    H212718   1.812   1.996   1.547  0.4825  1.0262  0.6557
 4238TIP3   OH212719   3.713   5.223   4.751 -0.5699 -0.4767 -0.6255
 4238TIP3    H112720   3.796   5.178   4.766  0.0907  1.0939  0.7322
 4238TIP3    H212721   3.679   5.241   4.839 -1.4524  0.5080 -1.1440
 4239TIP3   OH212722   0.528   5.451   1.497  0.1823  0.2712  0.1675
 4239TIP3    H112723   0.449   5.451   1.442 -0.3555  2.4635  0.8235
 4239TIP3    H212724   0.601   5.454   1.435 -0.2062 -1.6447 -0.4463
 4240TIP3   OH212725   1.700   0.172   2.510 -0.5501  0.5945 -0.1206
 4240TIP3    H112726   1.652   0.098   2.474  1.4336 -0.9252  0.1183
 4240TIP3    H212727   1.654   0.250   2.479 -1.1550 -0.6924 -2.6596
 4241TIP3   OH212728   4.692   2.087   2.954 -0.0781 -0.2907  0.4046
 4241TIP3    H112729   4.652   2.049   2.876  0.8496 -1.7512  0.5980
 4241TIP3    H212730   4.621   2.095   3.016 -0.6811  0.1847 -0.3315
 4242TIP3   OH212731   3.842   3.961   3.535  0.1032 -0.1087  0.1777
 4242TIP3    H112732   3.926   3.997   3.562 -0.9002  0.7572  2.3761
 4242TIP3    H212733   3.854   3.866   3.541  0.9977 -0.0015  0.2064
 4243TIP3   OH212734   2.268   4.288   1.066  0.3580 -0.2115 -0.3520
 4243TIP3    H112735   2.317   4.314   0.987 -2.0848  0.6568 -1.6792
 4243TIP3    H212736   2.182   4.328   1.055  0.3335  1.1951  3.5056
 4244TIP3   OH212737   2.356   5.345   4.167  0.7959  0.1339 -0.1407
 4244TIP3    H112738   2.408   5.265   4.154 -0.1593 -0.4626 -0.4258
 4244TIP3    H212739   2.284   5.317   4.225  0.2294  0.6859 -0.5695
 4245TIP3   OH212740   4.376   2.872   1.572 -0.0244  0.1334 -0.8648
 4245TIP3    H112741   4.293   2.891   1.529 -1.1272  1.2123  1.5014
 4245TIP3    H212742   4.365   2.786   1.612 -0.0744  0.3174 -0.4677
 4246TIP3   OH212743   4.516   5.345   3.426  0.0930  0.1859 -0.3859
 4246TIP3    H112744   4.472   5.402   3.488 -0.8519 -1.8987  0.9722
 4246TIP3    H212745   4.596   5.316   3.471 -0.6486 -1.4243 -0.0438
 4247TIP3   OH212746   5.775   4.367   2.415  0.2342 -0.5086 -0.1702
 4247TIP3    H112747   5.738   4.326   2.493 -0.4203  1.6521  0.7236
 4247TIP3    H212748   5.793   4.457   2.441  1.3446 -0.1089 -2.1152
 4248TIP3   OH212749   4.876   4.408   3.012  0.3459  0.0072  0.6047
 4248TIP3    H112750   4.851   4.467   2.941  1.2860 -0.1305  0.1437
 4248TIP3    H212751   4.890   4.324   2.969  1.1324 -0.0264  0.9126
 4249TIP3   OH212752   1.592   3.516   4.939  0.1502  0.1482 -0.0264
 4249TIP3    H112753   1.605   3.610   4.928 -0.1717  0.2957  0.7500
 4249TIP3    H212754   1.654   3.475   4.878 -0.0530  0.8620 -0.7244
 4250TIP3   OH212755   2.926   1.045   0.917 -0.2319 -0.0244 -0.3419
 4250TIP3    H112756   2.846   1.047   0.866 -0.8546 -0.1730  0.5920
 4250TIP3    H212757   2.896   1.048   1.008  0.8281  0.0819  0.0175
 4251TIP3   OH212758   0.401   3.809   2.125  0.0435 -0.2543 -0.1552
 4251TIP3    H112759   0.368   3.855   2.203 -1.3539 -2.1660  0.4432
 4251TIP3    H212760   0.331   3.819   2.061  0.2043 -0.6219 -0.3875
 4252TIP3   OH212761   5.749   3.138   0.213 -0.6621  0.2546 -0.2344
 4252TIP3    H112762   5.695   3.166   0.139  0.8929  0.6996 -1.2634
 4252TIP3    H212763   5.721   3.194   0.285 -0.5155  1.5799 -1.1596
 4253TIP3   OH212764   1.200   2.742   0.702  0.4522 -0.3805  0.5357
 4253TIP3    H112765   1.171   2.674   0.763  0.2541  0.0384  0.9155
 4253TIP3    H212766   1.280   2.777   0.741 -1.1732  1.8577  2.1083
 4254TIP3   OH212767   0.351   4.202   0.926 -0.6094  0.1715 -0.0889
 4254TIP3    H112768   0.368   4.227   1.016 -0.0779  0.3043 -0.2237
 4254TIP3    H212769   0.261   4.229   0.910 -1.0251 -0.7025  0.6899
 4255TIP3   OH212770   0.773   3.850   4.996 -0.2028 -0.3382 -0.1992
 4255TIP3    H112771   0.858   3.813   5.021 -0.0038 -0.2449 -0.7277
 4255TIP3    H212772   0.792   3.940   4.973 -0.5885 -0.0766  0.4834
 4256TIP3   OH212773   0.940   0.667   5.101 -0.1257 -0.1573 -0.2310
 4256TIP3    H112774   0.899   0.696   5.183 -0.0470  0.5972 -0.4512
 4256TIP3    H212775   0.907   0.578   5.088  1.2809 -1.0271  1.5912
 4257TIP3   OH212776   4.725   1.388   1.126 -0.1932  0.5840  0.3151
 4257TIP3    H112777   4.738   1.309   1.072  0.2986  0.1287  1.0866
 4257TIP3    H212778   4.682   1.449   1.067 -2.4316 -0.9319  0.2497
 4258TIP3   OH212779   3.552   1.390   3.567 -0.3464 -0.9747 -0.3438
 4258TIP3    H112780   3.494   1.315   3.564 -0.0068 -1.2172 -1.9833
 4258TIP3    H212781   3.630   1.362   3.518 -0.2721  0.4604 -1.1143
 4259TIP3   OH212782   5.142   4.050   1.349 -0.4716  0.0134 -0.1730
 4259TIP3    H112783   5.175   4.030   1.261  0.1011 -0.2421  0.0987
 4259TIP3    H212784   5.071   4.113   1.334 -0.1109  0.2806 -0.7895
 4260TIP3   OH212785   3.219   3.385  -0.031 -0.4170 -0.2806 -0.3521
 4260TIP3    H112786   3.194   3.476  -0.018 -0.1190 -0.4108  1.3908
 4260TIP3    H212787   3.215   3.346   0.057  0.0690 -1.7882 -0.9624
 4261TIP3   OH212788   0.817   2.964   3.925 -0.2450  0.0281 -0.2890
 4261TIP3    H112789   0.817   2.980   4.019 -0.2012  1.3340 -0.4918
 4261TIP3    H212790   0.747   3.020   3.891 -0.1925 -0.3506 -1.0471
 4262TIP3   OH212791   0.603   2.295   4.359 -0.5897  0.1705 -0.2255
 4262TIP3    H112792   0.689   2.253   4.350 -0.9035 -0.1624 -2.2340
 4262TIP3    H212793   0.617   2.365   4.423  0.9998 -0.3368  0.0275
 4263TIP3   OH212794   6.242   5.440   1.782 -0.0461  0.1057 -0.0357
 4263TIP3    H112795   6.190   5.513   1.816  0.6231  0.3879  0.4021
 4263TIP3    H212796   6.202   5.362   1.821 -0.9669  0.2067 -0.7624
 4264TIP3   OH212797   3.034   1.080   2.797  0.1598 -0.3096 -0.5529
 4264TIP3    H112798   2.980   1.017   2.845  1.0213 -0.3235  0.4325
 4264TIP3    H212799   3.119   1.036   2.788 -0.5560 -1.2541 -4.0947
 4265TIP3   OH212800   6.182   1.690   4.903 -0.3665 -0.1866  0.1276
 4265TIP3    H112801   6.168   1.759   4.967  0.3742  0.8027 -0.7465
 4265TIP3    H212802   6.195   1.611   4.956 -1.0529  0.3552  1.1417
 4266TIP3   OH212803   6.021   2.845   2.418  0.4359 -0.3271 -0.2792
 4266TIP3    H112804   6.097   2.902   2.421 -0.1312  0.4653 -0.7114
 4266TIP3    H212805   6.006   2.829   2.325  0.7841 -1.4644 -0.1603
 4267TIP3   OH212806   0.704   5.934   0.840  0.5319 -0.0486 -0.0341
 4267TIP3    H112807   0.615   5.915   0.869  0.8646 -0.1878  0.9495
 4267TIP3    H212808   0.759   5.872   0.890  1.1339 -0.3370 -1.0187
 4268TIP3   OH212809   0.151   1.728   1.148  0.1641 -0.1349 -0.0420
 4268TIP3    H112810   0.204   1.790   1.198 -1.0521 -0.8336  2.2391
 4268TIP3    H212811   0.121   1.664   1.212  1.1542 -3.0089 -2.2525
 4269TIP3   OH212812   0.829   5.318   1.571 -0.2000  0.5828  0.4615
 4269TIP3    H112813   0.787   5.360   1.497 -0.5954  0.3983  0.5792
 4269TIP3    H212814   0.864   5.390   1.623  2.9526  0.6990 -1.5177
 4270TIP3   OH212815   0.725   4.369   4.091 -0.3143  0.4908  0.2167
 4270TIP3    H112816   0.748   4.452   4.132  0.5130 -0.7116  2.3291
 4270TIP3    H212817   0.809   4.329   4.068 -0.6718  1.7072 -4.2769
 4271TIP3   OH212818   6.002   0.499   4.613 -0.5298 -0.0973  0.0930
 4271TIP3    H112819   6.059   0.454   4.550 -0.9707  0.0654 -0.4359
 4271TIP3    H212820   5.924   0.521   4.562 -0.2863  1.3478  0.3051
 4272TIP3   OH212821   3.447   5.512   3.916 -0.3951 -0.3591  0.5533
 4272TIP3    H112822   3.363   5.493   3.957 -0.7351  0.0240  0.0381
 4272TIP3    H212823   3.461   5.440   3.855 -1.0245  0.2979 -0.3862
 4273TIP3   OH212824   0.620   1.907   0.534  0.2840  0.2515  0.5138
 4273TIP3    H112825   0.684   1.957   0.485  0.0932  1.2677  1.2743
 4273TIP3    H212826   0.542   1.962   0.536  0.1860  0.1096  1.6712
 4274TIP3   OH212827   4.266   1.248   3.029 -0.2788 -0.2413  0.3337
 4274TIP3    H112828   4.326   1.230   3.102  0.1730  0.1565  0.0692
 4274TIP3    H212829   4.264   1.344   3.023 -1.1968 -0.2416  0.5409
 4275TIP3   OH212830   2.818   4.693   4.392  0.3351 -0.8106  0.5134
 4275TIP3    H112831   2.738   4.645   4.413 -1.6277  2.7790  2.2096
 4275TIP3    H212832   2.862   4.705   4.477  1.7922 -1.2267 -0.1497
 4276TIP3   OH212833   2.739   3.769   0.578  0.5595 -0.3452  0.4819
 4276TIP3    H112834   2.789   3.749   0.657 -0.4026 -2.0106  0.7117
 4276TIP3    H212835   2.764   3.702   0.515 -2.4866 -2.3024  1.1399
 4277TIP3   OH212836   5.907   0.877   4.544  0.0461  0.0966  0.3196
 4277TIP3    H112837   5.951   0.819   4.482 -0.4689 -0.0228  0.0571
 4277TIP3    H212838   5.826   0.832   4.566 -1.1548  1.4071 -1.1326
 4278TIP3   OH212839   4.136   4.514   5.010 -0.1327  0.0060  0.1909
 4278TIP3    H112840   4.078   4.457   5.061 -1.4950  0.4158 -0.8754
 4278TIP3    H212841   4.220   4.468   5.011 -1.2417 -2.2166 -0.8660
 4279TIP3   OH212842   0.901   4.463   3.749  0.2511  0.0133 -0.7582
 4279TIP3    H112843   0.950   4.381   3.753  0.8994  0.3700 -1.2194
 4279TIP3    H212844   0.932   4.506   3.670 -0.5599  0.4130 -0.8667
 4280TIP3   OH212845   1.567   5.557   0.989 -0.2254  0.1199 -0.2312
 4280TIP3    H112846   1.603   5.643   0.966  0.7451  0.3755  2.0001
 4280TIP3    H212847   1.613   5.496   0.931  0.1140  0.9574 -0.8724
 4281TIP3   OH212848   0.709   3.889   0.973 -0.2098  0.1272 -0.0830
 4281TIP3    H112849   0.759   3.882   1.055  0.2163  2.3216 -0.0875
 4281TIP3    H212850   0.696   3.983   0.962  1.1798  0.0648 -3.3619
 4282TIP3   OH212851   1.633   5.192   4.974  0.2693 -0.2453  0.0396
 4282TIP3    H112852   1.579   5.271   4.966  0.1418 -0.4702 -1.8674
 4282TIP3    H212853   1.722   5.221   4.953  0.3654 -0.4334  0.1886
 4283TIP3   OH212854   4.898   5.362   2.363 -0.4855 -0.1559  0.1465
 4283TIP3    H112855   4.842   5.287   2.383 -1.4978  0.1823 -1.2316
 4283TIP3    H212856   4.871   5.389   2.275  0.5030  1.2553  0.2399
 4284TIP3   OH212857   5.093   3.825   4.478 -0.1433 -0.3411  0.3591
 4284TIP3    H112858   5.044   3.758   4.527 -0.3856 -0.4764 -0.0649
 4284TIP3    H212859   5.146   3.776   4.416  0.3528 -0.1802  0.6467
 4285TIP3   OH212860   5.219   2.275   0.272 -0.3410  0.1790 -0.3047
 4285TIP3    H112861   5.153   2.342   0.252 -1.4095 -0.9183 -0.5243
 4285TIP3    H212862   5.291   2.295   0.212 -0.1360  1.8235  0.4293
 4286TIP3   OH212863   4.789   3.502   2.634  0.1811  0.1638 -0.2925
 4286TIP3    H112864   4.722   3.565   2.660  0.3241  0.0619  0.3378
 4286TIP3    H212865   4.745   3.443   2.573 -1.0366 -1.3942  1.9319
 4287TIP3   OH212866   4.920   5.028   3.012 -0.0061  0.2439 -0.5305
 4287TIP3    H112867   4.992   4.966   3.023  0.3321  0.3647 -1.9240
 4287TIP3    H212868   4.960   5.104   2.969 -0.0765  2.1232  2.4015
 4288TIP3   OH212869   4.709   0.098   1.015 -0.0821 -0.2085  0.2867
 4288TIP3    H112870   4.667   0.028   1.064 -1.1200 -0.5126 -0.9787
 4288TIP3    H212871   4.646   0.170   1.018  0.7245  0.4899  1.0795
 4289TIP3   OH212872   1.216   5.628   0.031  0.0015  0.1323  0.2188
 4289TIP3    H112873   1.214   5.719   0.060 -3.5330  0.4239 -0.4945
 4289TIP3    H212874   1.198   5.578   0.110  0.9613  0.0872  0.4228
 4290TIP3   OH212875   5.417   4.713   4.904  0.2431  0.1727  0.4631
 4290TIP3    H112876   5.364   4.782   4.865  0.2696  0.6995  1.3626
 4290TIP3    H212877   5.369   4.632   4.884  0.0802  0.4646 -0.3630
 4291TIP3   OH212878   4.110   4.594   1.820  0.0599 -0.3989  0.5595
 4291TIP3    H112879   4.152   4.611   1.905 -1.8425 -0.0180  1.4818
 4291TIP3    H212880   4.066   4.510   1.831  0.4912 -0.7535 -0.3459
 4292TIP3   OH212881   4.466   3.643   1.238 -0.0738 -0.9900 -0.1853
 4292TIP3    H112882   4.518   3.611   1.165 -0.1420  0.5873 -0.9679
 4292TIP3    H212883   4.525   3.699   1.287 -0.6935 -0.0901 -0.4346
 4293TIP3   OH212884   1.524   5.263   0.238  0.1981  0.2263 -0.0692
 4293TIP3    H112885   1.509   5.183   0.189 -1.9344  0.7192 -0.3025
 4293TIP3    H212886   1.537   5.330   0.171 -0.0231  0.4256  0.0858
 4294TIP3   OH212887   1.680   1.717   1.160 -0.9829  0.8793  0.6902
 4294TIP3    H112888   1.683   1.695   1.253 -2.4518  1.9565  1.0281
 4294TIP3    H212889   1.600   1.675   1.128  1.2243 -2.4511 -0.9799
 4295TIP3   OH212890   4.968   3.547   4.565  0.2217  0.3474 -0.4536
 4295TIP3    H112891   4.950   3.483   4.635 -1.0992 -0.1771 -1.2359
 4295TIP3    H212892   5.063   3.542   4.552  0.2408 -0.9322 -0.0033
 4296TIP3   OH212893   2.238   0.650   3.041 -0.6917 -0.3709  0.0568
 4296TIP3    H112894   2.208   0.576   3.094 -0.4319 -1.3667 -1.1159
 4296TIP3    H212895   2.326   0.625   3.014 -0.5635  0.4251 -0.2740
 4297TIP3   OH212896   5.082   5.637   3.185 -0.4683  0.2082  0.1590
 4297TIP3    H112897   5.171   5.657   3.213  0.8891 -1.3423 -2.6570
 4297TIP3    H212898   5.043   5.723   3.169  1.0795  0.8939 -0.1040
 4298TIP3   OH212899   5.929   3.563   1.460  0.0465  0.0217 -0.1397
 4298TIP3    H112900   6.018   3.595   1.445 -0.4161  0.5595 -2.0062
 4298TIP3    H212901   5.878   3.642   1.480 -0.1450 -0.2061  0.2961
 4299TIP3   OH212902   3.642   5.873   3.048 -0.4200  0.3323 -0.4314
 4299TIP3    H112903   3.648   5.963   3.080  0.7130 -0.3710  1.5137
 4299TIP3    H212904   3.698   5.871   2.970 -1.9334  1.7009 -1.6299
 4300TIP3   OH212905   0.495   4.502   0.392 -0.3938 -0.6819  0.0806
 4300TIP3    H112906   0.515   4.523   0.301  0.9390  0.2855  0.5668
 4300TIP3    H212907   0.560   4.435   0.415  2.7885  2.6429  1.7457
 4301TIP3   OH212908   0.566   4.126   4.094 -0.0359 -0.4922  0.4049
 4301TIP3    H112909   0.484   4.150   4.137  0.3922 -0.2168  1.0717
 4301TIP3    H212910   0.622   4.203   4.104 -0.4528  0.2230 -2.0304
 4302TIP3   OH212911   2.638   5.704   5.114  0.4925  0.2541  0.3383
 4302TIP3    H112912   2.667   5.673   5.029 -0.2979 -0.3202  0.2682
 4302TIP3    H212913   2.577   5.775   5.094  1.2900  0.9899  0.4658
 4303TIP3   OH212914   0.351   4.284   2.073 -0.0609  0.6027  0.5249
 4303TIP3    H112915   0.419   4.217   2.077 -1.0315 -0.4566 -0.3922
 4303TIP3    H212916   0.378   4.348   2.140  1.9263  0.3349  0.0676
 4304TIP3   OH212917   1.743   4.626   2.964 -0.3648  0.1727  0.1302
 4304TIP3    H112918   1.680   4.554   2.964  1.2364 -1.2737 -0.7446
 4304TIP3    H212919   1.776   4.629   3.054 -0.6669  0.0363  0.2476
 4305TIP3   OH212920   3.486   4.769   0.954  0.3232 -0.1100 -0.2986
 4305TIP3    H112921   3.460   4.793   1.043  1.0946 -0.7827  0.1235
 4305TIP3    H212922   3.545   4.695   0.966  1.0424  0.2785 -1.3242
 4306TIP3   OH212923   4.791   0.125   3.150  0.0209  0.5919  0.2124
 4306TIP3    H112924   4.737   0.097   3.076  0.2281  0.9510 -0.0759
 4306TIP3    H212925   4.735   0.183   3.201 -0.0538  0.5098  0.2239
 4307TIP3   OH212926   3.049   3.153   4.122 -0.1120 -0.3953 -0.9174
 4307TIP3    H112927   3.095   3.219   4.069  0.0820 -0.0358 -0.3129
 4307TIP3    H212928   2.998   3.103   4.058 -0.1478  0.2458 -1.4134
 4308TIP3   OH212929   3.684   0.007   2.114  0.2321  0.1662 -0.2714
 4308TIP3    H112930   3.755  -0.014   2.054 -0.4708  1.1650 -1.5057
 4308TIP3    H212931   3.666   0.100   2.099 -1.6754 -0.1689 -0.3876
 4309TIP3   OH212932   3.521   4.315   3.379  0.0588 -0.0383 -0.2000
 4309TIP3    H112933   3.588   4.373   3.344 -1.4475  1.2628 -1.0565
 4309TIP3    H212934   3.515   4.337   3.472 -0.1964  0.8928 -0.4280
 4310TIP3   OH212935   0.830   1.502   1.911 -0.5582  0.3060 -0.3789
 4310TIP3    H112936   0.877   1.419   1.912 -1.2972 -0.1201 -0.6149
 4310TIP3    H212937   0.776   1.501   1.990 -2.0872 -0.3512 -1.3704
 4311TIP3   OH212938   2.259   2.437   0.683 -0.9687 -0.0509  0.1853
 4311TIP3    H112939   2.343   2.463   0.719 -1.3284  1.9795 -0.3180
 4311TIP3    H212940   2.228   2.367   0.740  1.3385 -1.3365 -0.0352
 4312TIP3   OH212941   0.736   4.927   1.945  0.5418 -0.1382 -0.1032
 4312TIP3    H112942   0.780   4.921   1.860  0.1765  0.3301 -0.3364
 4312TIP3    H212943   0.645   4.906   1.926  0.7096 -1.4546  0.4382
 4313TIP3   OH212944   3.260   5.258   1.652  0.7763  0.4950 -0.6190
 4313TIP3    H112945   3.346   5.217   1.641  0.1648 -0.5804 -1.5601
 4313TIP3    H212946   3.225   5.221   1.733  0.6392 -0.0847 -0.9439
 4314TIP3   OH212947   5.003   4.594   4.026 -0.0141  0.8706  0.1515
 4314TIP3    H112948   5.092   4.608   4.060  0.5016 -0.3465 -0.6079
 4314TIP3    H212949   4.971   4.518   4.074  0.0542  0.2192 -0.8002
 4315TIP3   OH212950   5.539   1.137   3.536 -0.3481  0.3894  0.1842
 4315TIP3    H112951   5.462   1.087   3.561 -0.0887 -0.3436 -0.4385
 4315TIP3    H212952   5.514   1.228   3.549 -0.6023  0.1056  1.9760
 4316TIP3   OH212953   6.127   1.301   1.933 -0.2268 -0.2220  0.3111
 4316TIP3    H112954   6.222   1.286   1.942  0.0691 -0.8137 -2.7568
 4316TIP3    H212955   6.120   1.388   1.894 -1.0882  0.3696  1.6928
 4317TIP3   OH212956   5.984   3.515   5.079  0.4741  0.0373 -0.1771
 4317TIP3    H112957   6.070   3.552   5.060  0.6047 -0.0834  0.1584
 4317TIP3    H212958   5.921   3.576   5.040  0.6913  0.4932  0.1758
 4318TIP3   OH212959   5.653   0.994   4.292 -0.5062 -0.0869  0.3058
 4318TIP3    H112960   5.663   0.899   4.288 -0.4659 -0.0505 -1.0366
 4318TIP3    H212961   5.718   1.028   4.231 -1.3462  0.7260 -0.1799
 4319TIP3   OH212962   2.805   5.416   0.509  0.0191  0.3252  0.4774
 4319TIP3    H112963   2.877   5.360   0.480 -0.5717 -0.4402  0.4481
 4319TIP3    H212964   2.742   5.356   0.549 -2.2144  0.4371 -2.5684
 4320TIP3   OH212965   2.905   2.468   0.986 -0.2124 -0.0006  0.1163
 4320TIP3    H112966   2.976   2.423   0.941  0.5302  0.5547  0.6964
 4320TIP3    H212967   2.856   2.398   1.030  1.2538 -0.2381  1.4683
 4321TIP3   OH212968   5.242   4.595   3.857 -0.1086  0.4071  0.8331
 4321TIP3    H112969   5.225   4.512   3.811 -0.2191  0.4079  0.8714
 4321TIP3    H212970   5.261   4.568   3.947 -0.7585  0.4644  0.9941
 4322TIP3   OH212971   5.566   1.753   1.833  0.0249  0.4382  0.1917
 4322TIP3    H112972   5.535   1.768   1.923 -2.4121  0.5307 -0.5802
 4322TIP3    H212973   5.661   1.750   1.840 -0.0931  0.6800  2.7369
 4323TIP3   OH212974   5.829   5.970   2.812 -0.2203  0.0875  0.6164
 4323TIP3    H112975   5.749   5.969   2.865 -0.5160 -1.1750  0.1735
 4323TIP3    H212976   5.800   5.985   2.723  0.0271 -0.3160  0.4602
 4324TIP3   OH212977   5.892   5.622   1.471 -0.1707 -0.4031  0.4687
 4324TIP3    H112978   5.897   5.562   1.397  1.7329 -0.0718  0.2767
 4324TIP3    H212979   5.898   5.709   1.432 -0.2077 -0.1875  0.9324
 4325TIP3   OH212980   6.266   3.564   0.873 -0.1256 -0.1666 -0.6527
 4325TIP3    H112981   6.293   3.648   0.836  2.4364 -0.3803  0.4616
 4325TIP3    H212982   6.348   3.526   0.907 -1.9028 -0.7961  3.4758
 4326TIP3   OH212983   0.543   4.119   2.005 -0.4824  0.2618 -0.1403
 4326TIP3    H112984   0.507   4.073   1.930 -1.1576 -0.7988  0.7957
 4326TIP3    H212985   0.599   4.054   2.048 -1.6687  0.1753  1.3542
 4327TIP3   OH212986   1.529   1.764   2.688  0.0088 -0.6302  0.2491
 4327TIP3    H112987   1.474   1.841   2.696  1.7062  0.7765 -0.7877
 4327TIP3    H212988   1.512   1.713   2.768 -0.5405  1.2215  1.3579
 4328TIP3   OH212989   1.097   5.977   0.631 -0.1314 -1.0388  0.2102
 4328TIP3    H112990   1.057   5.902   0.587  1.3334 -1.8982  0.2928
 4328TIP3    H212991   1.167   5.940   0.683 -1.0336  0.0985  2.3576
 4329TIP3   OH212992   1.692   2.300   4.401  0.2061 -0.3155  0.8251
 4329TIP3    H112993   1.617   2.357   4.418  0.2826 -0.2264  0.8629
 4329TIP3    H212994   1.762   2.335   4.455  0.3733 -0.1941  0.5299
 4330TIP3   OH212995   4.563   3.582   0.969  0.1321 -0.0083  0.6916
 4330TIP3    H112996   4.500   3.514   0.945  0.5635 -0.1652 -0.0455
 4330TIP3    H212997   4.530   3.661   0.927  1.0320 -0.3397 -0.7079
 4331TIP3   OH212998   3.507   3.395   0.787 -0.7404  0.2186 -0.1326
 4331TIP3    H112999   3.505   3.301   0.807 -1.6126  0.3198  0.2916
 4331TIP3    H213000   3.564   3.402   0.710  1.9374 -0.2990  1.6520
 4332TIP3   OH213001   1.739   0.199   0.959 -0.0547  0.2655  0.1439
 4332TIP3    H113002   1.720   0.279   1.008  0.0582 -0.4809  1.4390
 4332TIP3    H213003   1.692   0.210   0.876  0.7705  2.1127 -0.1453
 4333TIP3   OH213004   4.298   4.322   2.031 -0.4298 -0.1762  0.0143
 4333TIP3    H113005   4.356   4.384   1.986 -0.5013 -0.3342 -0.2964
 4333TIP3    H213006   4.240   4.378   2.084  1.3143 -0.0877  1.9639
 4334TIP3   OH213007   0.708   5.749   1.552 -0.3591 -0.0555  0.3854
 4334TIP3    H113008   0.742   5.838   1.565 -1.1910  0.3007  0.2249
 4334TIP3    H213009   0.763   5.694   1.607  0.7507  0.4295 -0.1972
 4335TIP3   OH213010   1.323   2.713   1.394 -0.4358  0.2990 -0.3638
 4335TIP3    H113011   1.308   2.672   1.309 -1.9854  0.3363 -0.1527
 4335TIP3    H213012   1.416   2.735   1.395 -0.0733 -1.0689 -1.4292
 4336TIP3   OH213013   5.729   5.144   0.924  0.2121 -0.0141 -0.4233
 4336TIP3    H113014   5.671   5.085   0.972 -0.4437  0.4352 -0.6503
 4336TIP3    H213015   5.817   5.120   0.954 -0.2128  0.9352  1.7774
 4337TIP3   OH213016   1.600   5.090   1.104 -0.4373  0.3928 -0.2670
 4337TIP3    H113017   1.540   5.157   1.137 -2.4817 -0.9387 -1.0885
 4337TIP3    H213018   1.563   5.008   1.136  1.2586 -0.4537 -0.3917
 4338TIP3   OH213019   4.274   0.510   2.303  0.6256  0.6066  0.2246
 4338TIP3    H113020   4.229   0.586   2.341  0.9619  0.0667  1.7424
 4338TIP3    H213021   4.271   0.443   2.371 -1.4328 -1.4961 -1.7504
 4339TIP3   OH213022   0.618   3.275   2.736  0.0786  0.1115  0.2601
 4339TIP3    H113023   0.708   3.297   2.712 -0.2847  1.4539  0.0932
 4339TIP3    H213024   0.613   3.180   2.724  0.6146  0.3659 -2.6468
 4340TIP3   OH213025   2.215   0.141   0.603 -0.4724  0.4824 -0.3681
 4340TIP3    H113026   2.218   0.131   0.698 -2.2395 -1.5013 -0.4562
 4340TIP3    H213027   2.253   0.227   0.587 -0.3410  0.9662  2.1493
 4341TIP3   OH213028   4.816   2.433   5.145  0.0880 -0.7325  0.1391
 4341TIP3    H113029   4.779   2.519   5.128 -2.1282 -1.1911  2.0441
 4341TIP3    H213030   4.900   2.432   5.098 -0.3468  2.0005 -0.8426
 4342TIP3   OH213031   1.156   0.735   0.855 -0.4300  0.0705 -0.4308
 4342TIP3    H113032   1.212   0.663   0.827 -0.7224 -1.9130  3.3919
 4342TIP3    H213033   1.214   0.811   0.862  0.5103 -0.4908 -1.7239
 4343TIP3   OH213034   6.249   4.631   0.522 -0.1216 -0.2573  0.1606
 4343TIP3    H113035   6.154   4.624   0.528 -0.0920  0.3615  2.3784
 4343TIP3    H213036   6.266   4.724   0.533  0.7295 -0.2768 -0.8916
 4344TIP3   OH213037   3.409   3.394   3.647 -0.0625 -0.3179 -0.6309
 4344TIP3    H113038   3.435   3.365   3.735 -0.3605 -0.2772 -0.5259
 4344TIP3    H213039   3.423   3.489   3.648 -0.3529 -0.2747 -0.5236
 4345TIP3   OH213040   4.810   4.157   0.062  0.3377 -0.5169 -0.2266
 4345TIP3    H113041   4.798   4.130   0.154  0.6693 -1.1579 -0.3685
 4345TIP3    H213042   4.738   4.114   0.015  0.0295 -0.0008 -0.2379
 4346TIP3   OH213043   2.426   1.704   3.234 -0.0945 -0.3942  0.5412
 4346TIP3    H113044   2.463   1.637   3.177  1.7411  2.3483 -1.7535
 4346TIP3    H213045   2.492   1.717   3.302  0.9085  0.9859 -0.6526
 4347TIP3   OH213046   4.227   4.311   4.539  0.0565 -0.5421 -0.1223
 4347TIP3    H113047   4.276   4.343   4.614 -1.0434  0.4123  0.2213
 4347TIP3    H213048   4.258   4.221   4.525  0.7691 -0.4820  1.0184
 4348TIP3   OH213049   1.874   5.979   0.408  0.0564 -0.3006  0.0338
 4348TIP3    H113050   1.957   5.970   0.454 -0.2060 -1.6481  0.2933
 4348TIP3    H213051   1.898   6.004   0.319  0.7803 -1.3229 -0.0700
 4349TIP3   OH213052   3.730   0.079   4.587  0.7511 -0.5553 -0.1369
 4349TIP3    H113053   3.753   0.052   4.498 -0.3538 -2.6843  0.1504
 4349TIP3    H213054   3.660   0.143   4.576 -0.2078 -1.6860 -0.8007
 4350TIP3   OH213055   0.556   0.812   3.667  0.4983  0.5444  0.3071
 4350TIP3    H113056   0.468   0.817   3.702  0.3544  1.8076 -0.1537
 4350TIP3    H213057   0.604   0.882   3.712  1.4269 -0.4507  0.9317
 4351TIP3   OH213058   6.154   3.961   3.142 -0.3025 -0.0780 -0.5395
 4351TIP3    H113059   6.165   3.963   3.237 -2.0039  1.9245 -0.3293
 4351TIP3    H213060   6.062   3.937   3.129 -0.2078  0.1351 -1.6646
 4352TIP3   OH213061   2.765   0.604   4.717 -0.0669 -0.7737  0.1178
 4352TIP3    H113062   2.772   0.687   4.670  1.9314 -1.1132 -0.2651
 4352TIP3    H213063   2.690   0.615   4.775  0.6747  1.6242  0.7179
 4353TIP3   OH213064   1.298   3.495   1.080 -0.1919 -0.4490  0.0477
 4353TIP3    H113065   1.279   3.547   1.002  0.1719  1.1583  0.9757
 4353TIP3    H213066   1.276   3.405   1.056 -0.1558  0.0266 -1.8584
 4354TIP3   OH213067   3.180   2.686   1.819  0.3764  0.4321  0.8720
 4354TIP3    H113068   3.128   2.674   1.740  0.8056 -0.5709  0.7275
 4354TIP3    H213069   3.139   2.760   1.864 -1.2651 -0.4266  0.8481
 4355TIP3   OH213070   0.907   2.304   2.847  0.3982 -0.3649  0.0031
 4355TIP3    H113071   0.817   2.325   2.872  0.8129  0.9820  0.4271
 4355TIP3    H213072   0.948   2.389   2.832  1.5125 -0.9839 -0.5060
 4356TIP3   OH213073   2.798   3.224   1.454  0.2360 -0.5544  0.0834
 4356TIP3    H113074   2.804   3.177   1.371 -0.0295  1.1255 -0.9281
 4356TIP3    H213075   2.884   3.263   1.467 -0.4020  1.2241 -0.7041
 4357TIP3   OH213076   0.868   1.176   1.845  0.0474 -0.2928 -0.0294
 4357TIP3    H113077   0.917   1.210   1.770  0.4493 -0.2643  0.2395
 4357TIP3    H213078   0.883   1.082   1.842 -1.7489 -0.5964 -1.2611
 4358TIP3   OH213079   2.018   3.243   1.693  0.0538  0.7609  0.2455
 4358TIP3    H113080   2.026   3.326   1.740  1.8536  0.9850 -0.4088
 4358TIP3    H213081   2.079   3.250   1.620 -0.2401 -0.9011 -0.2046
 4359TIP3   OH213082   3.635   5.697   4.495  0.0207  0.2683  0.4421
 4359TIP3    H113083   3.598   5.756   4.562 -0.0087  1.4226 -0.5499
 4359TIP3    H213084   3.626   5.610   4.533 -2.0006  0.6702  1.0609
 4360TIP3   OH213085   1.287   5.428   0.292  0.0816  0.1283  0.9872
 4360TIP3    H113086   1.375   5.395   0.278 -0.0652  0.1123  0.0187
 4360TIP3    H213087   1.230   5.364   0.248 -0.1649  1.9190 -1.4882
 4361TIP3   OH213088   3.664   2.108   4.037  0.1149  0.0657  0.2022
 4361TIP3    H113089   3.670   2.079   3.946  1.8743 -0.6811  0.5112
 4361TIP3    H213090   3.599   2.178   4.036  0.7591  0.7002 -1.7919
 4362TIP3   OH213091   0.089   0.738   4.148 -0.2909 -0.4196 -0.4387
 4362TIP3    H113092   0.112   0.761   4.238 -1.1189 -1.5605  0.0958
 4362TIP3    H213093  -0.004   0.715   4.153 -1.2612  2.5512 -2.2126
 4363TIP3   OH213094   2.556   2.305   3.782  0.6348  0.2143 -0.1076
 4363TIP3    H113095   2.532   2.325   3.692  1.1376 -0.5117 -0.4057
 4363TIP3    H213096   2.508   2.225   3.802 -0.3595  0.9562  0.6595
 4364TIP3   OH213097   1.912   3.178   3.014  0.4581 -0.2525  0.1498
 4364TIP3    H113098   2.002   3.151   2.998  0.6948 -0.1856  1.3161
 4364TIP3    H213099   1.882   3.123   3.086 -0.4376 -0.2591 -0.2022
 4365TIP3   OH213100   1.889   2.380   4.565  0.1448 -0.5046  0.3673
 4365TIP3    H113101   1.938   2.365   4.645 -1.0792 -0.3557  1.1725
 4365TIP3    H213102   1.956   2.398   4.498  1.1772 -0.6986  1.3237
 4366TIP3   OH213103   1.338   3.563   2.198  0.0029 -0.2226 -0.2340
 4366TIP3    H113104   1.398   3.637   2.189 -0.7088  0.3265 -0.5217
 4366TIP3    H213105   1.320   3.557   2.292  0.3005 -0.2347 -0.1756
 4367TIP3   OH213106   5.130   5.851   0.390 -0.2841  0.0017 -0.8403
 4367TIP3    H113107   5.105   5.812   0.306 -0.1984 -1.1959 -0.3328
 4367TIP3    H213108   5.047   5.865   0.435 -0.3919  1.4296 -1.4349
 4368TIP3   OH213109   6.172   1.831   0.589 -0.1643 -0.2663  0.5906
 4368TIP3    H113110   6.169   1.739   0.615  0.3083  0.4031  3.3462
 4368TIP3    H213111   6.083   1.864   0.606  0.1217  0.1668  1.2892
 4369TIP3   OH213112   3.694   3.122   4.759 -0.1278 -0.1927  0.2940
 4369TIP3    H113113   3.659   3.093   4.844  0.7171  1.8424  1.4142
 4369TIP3    H213114   3.618   3.152   4.710 -0.3823  1.0070  1.3716
 4370TIP3   OH213115   1.462   1.487   0.345 -0.4937 -0.9703  0.5202
 4370TIP3    H113116   1.488   1.551   0.411  1.3883 -0.2299 -0.8527
 4370TIP3    H213117   1.411   1.537   0.282 -1.6709 -1.5178  1.0263
 4371TIP3   OH213118   1.385   2.736   5.041  0.0652  0.1674 -0.2730
 4371TIP3    H113119   1.463   2.722   5.094  0.1870  0.4964 -0.3631
 4371TIP3    H213120   1.366   2.830   5.050 -0.6871 -0.0256  0.2597
 4372TIP3   OH213121   2.294   2.522   1.716  0.0359 -0.4251  1.0786
 4372TIP3    H113122   2.339   2.539   1.798  1.4402 -0.2280  0.3064
 4372TIP3    H213123   2.351   2.561   1.649 -0.6545 -1.2905 -0.0516
 4373TIP3   OH213124   3.694   1.267   1.958  0.4545  0.1442  0.0974
 4373TIP3    H113125   3.680   1.198   2.023  2.6811  1.3392  2.0079
 4373TIP3    H213126   3.654   1.345   1.996  0.7183  0.5966 -0.5413
 4374TIP3   OH213127   3.120   0.679   0.051  0.0694 -0.4991 -0.1924
 4374TIP3    H113128   3.083   0.707   0.135  0.7049  0.4829 -0.2170
 4374TIP3    H213129   3.207   0.719   0.049 -0.3623  0.4580 -1.7909
 4375TIP3   OH213130   2.993   2.182   1.583 -0.1527  0.8318 -0.4139
 4375TIP3    H113131   3.008   2.265   1.627  1.4591  0.5503 -0.3578
 4375TIP3    H213132   3.056   2.180   1.512  0.7023 -0.8258  0.3119
 4376TIP3   OH213133   4.961   4.082   5.082  0.4267  0.1589  0.2284
 4376TIP3    H113134   4.954   3.987   5.075 -0.5899  0.3089 -1.1459
 4376TIP3    H213135   4.999   4.096   5.169  3.2803 -1.5675 -0.6004
 4377TIP3   OH213136   2.175   0.908   2.928 -0.0573 -0.0259  0.0860
 4377TIP3    H113137   2.202   0.822   2.959  0.9801 -0.1274 -1.0508
 4377TIP3    H213138   2.081   0.899   2.912 -0.1081 -0.7021  0.7051
 4378TIP3   OH213139   1.286   3.219   0.412  0.0391 -0.3635  0.3627
 4378TIP3    H113140   1.287   3.301   0.461 -0.3041  2.6527 -4.0814
 4378TIP3    H213141   1.193   3.203   0.394  0.1077 -1.7703  1.1162
 4379TIP3   OH213142   2.277   4.200   1.539 -0.2709  0.1768  0.1008
 4379TIP3    H113143   2.333   4.257   1.486 -1.1828  0.0400 -1.0489
 4379TIP3    H213144   2.239   4.258   1.605 -0.3987  0.6951 -0.4184
 4380TIP3   OH213145   2.721   4.680   3.203 -0.4540 -0.0018  0.4961
 4380TIP3    H113146   2.662   4.679   3.128  0.6355 -2.1821 -0.4170
 4380TIP3    H213147   2.691   4.607   3.257 -0.7160  1.0440  1.8095
 4381TIP3   OH213148   2.868   5.634   3.169  0.0732  0.2127  0.4859
 4381TIP3    H113149   2.829   5.612   3.253 -1.8570 -0.8541 -0.6370
 4381TIP3    H213150   2.921   5.558   3.146  1.6233  0.9992  1.2377
 4382TIP3   OH213151   4.055   0.858   2.974 -0.7007  0.7144 -0.2328
 4382TIP3    H113152   4.074   0.938   2.926  1.5486  0.1552 -0.3669
 4382TIP3    H213153   4.114   0.859   3.049 -2.0043  0.0881  0.8649
 4383TIP3   OH213154   0.735   0.612   2.285  0.2340 -0.7669  0.2132
 4383TIP3    H113155   0.746   0.553   2.210 -0.4063 -1.8128  0.9165
 4383TIP3    H213156   0.747   0.699   2.248  1.4394 -1.3300 -0.8213
 4384TIP3   OH213157   2.748   2.737   5.097  0.8371 -0.0418 -0.2256
 4384TIP3    H113158   2.716   2.650   5.071 -0.2482  0.3188 -0.1680
 4384TIP3    H213159   2.689   2.798   5.053  1.1036  0.6495  0.3512
 4385TIP3   OH213160   1.776   1.883   2.196 -0.1779  0.4162  0.0123
 4385TIP3    H113161   1.836   1.957   2.200  0.1508  0.2134 -1.0063
 4385TIP3    H213162   1.822   1.816   2.146  0.0787 -1.0168  1.9971
 4386TIP3   OH213163   4.843   0.541   5.098  0.1104  0.0577  0.3406
 4386TIP3    H113164   4.925   0.560   5.144 -0.6028  1.8765  0.9306
 4386TIP3    H213165   4.812   0.459   5.137  0.9142  0.1102  1.1108
 4387TIP3   OH213166   4.892   5.960   3.017  0.1408 -0.1068 -0.3729
 4387TIP3    H113167   4.811   5.910   3.026  0.1385  0.0709  0.7079
 4387TIP3    H213168   4.939   5.917   2.945  1.0593 -2.9876  1.7166
 4388TIP3   OH213169   0.169   4.234   0.515 -0.4466 -0.2098 -0.1755
 4388TIP3    H113170   0.234   4.226   0.446 -1.6439 -1.1660 -1.2420
 4388TIP3    H213171   0.190   4.317   0.558 -0.5649  1.2078 -2.6712
 4389TIP3   OH213172   4.895   5.981   3.341  0.2849 -0.4633 -0.5481
 4389TIP3    H113173   4.903   5.997   3.247 -0.8392  2.0167 -0.2857
 4389TIP3    H213174   4.812   5.934   3.350 -0.1571  0.2591 -0.7376
 4390TIP3   OH213175   1.616   5.322   0.489 -0.3077 -0.3209  0.0414
 4390TIP3    H113176   1.558   5.315   0.413 -0.1263  0.4673 -0.1829
 4390TIP3    H213177   1.580   5.261   0.553 -1.4873  0.2592 -0.0423
 4391TIP3   OH213178   0.263   1.921   1.694  0.3579 -0.8880 -0.5273
 4391TIP3    H113179   0.226   1.888   1.776  1.1630  2.1690  1.2139
 4391TIP3    H213180   0.354   1.890   1.695  0.3343 -0.9522 -0.3331
 4392TIP3   OH213181   4.209   5.276   2.312  0.1668  0.2578  0.4797
 4392TIP3    H113182   4.125   5.301   2.351 -0.0001 -1.8274  1.6374
 4392TIP3    H213183   4.275   5.306   2.375  0.0657 -0.6976  1.0668
 4393TIP3   OH213184   5.356   0.829   3.551 -0.3755 -0.8105 -0.1162
 4393TIP3    H113185   5.306   0.863   3.478 -0.7696 -0.0122  0.5088
 4393TIP3    H213186   5.321   0.874   3.628  0.8443 -0.7289  0.4194
 4394TIP3   OH213187   4.270   1.924   2.382 -0.0987 -0.4803 -0.3985
 4394TIP3    H113188   4.257   1.848   2.326  0.8039 -0.1993 -1.0140
 4394TIP3    H213189   4.344   1.971   2.343 -0.8474  0.8982 -0.2259
 4395TIP3   OH213190   5.863   3.665   2.168 -0.3112  0.0623 -0.7656
 4395TIP3    H113191   5.906   3.751   2.172 -0.7234  0.3220 -1.5910
 4395TIP3    H213192   5.935   3.602   2.174 -0.0536  0.4513  0.3934
 4396TIP3   OH213193   2.703   5.411   2.179  0.3691  0.1579  0.1744
 4396TIP3    H113194   2.776   5.373   2.131 -0.8163 -2.2370  0.0837
 4396TIP3    H213195   2.744   5.463   2.248  2.1370 -0.3539 -0.4346
 4397TIP3   OH213196   2.244   5.424   0.167 -0.3266  0.1537 -0.2110
 4397TIP3    H113197   2.276   5.493   0.109 -0.7709  1.4590  1.0384
 4397TIP3    H213198   2.284   5.443   0.252 -1.5579 -0.2752  0.4992
 4398TIP3   OH213199   0.338   2.188   1.658 -0.3637  0.2373  0.2808
 4398TIP3    H113200   0.263   2.131   1.676 -0.0659  0.6055  3.0195
 4398TIP3    H213201   0.413   2.142   1.695  0.2377  1.3779  0.5177
 4399TIP3   OH213202   6.162   4.691   3.048 -0.6387  0.3202  0.4485
 4399TIP3    H113203   6.136   4.607   3.085 -0.5849  0.6861  1.3476
 4399TIP3    H213204   6.197   4.740   3.123  0.8460  0.5451 -0.3458
 4400TIP3   OH213205   4.207   1.731   0.398 -0.3652 -0.1288 -0.7353
 4400TIP3    H113206   4.217   1.751   0.305  2.3867 -1.2357 -0.7798
 4400TIP3    H213207   4.131   1.673   0.402 -0.2001 -0.5059 -2.3595
 4401TIP3   OH213208   5.594  -0.002   3.935 -0.1009  0.0060  0.2514
 4401TIP3    H113209   5.669   0.056   3.948 -0.6726  1.0011 -0.6636
 4401TIP3    H213210   5.540   0.011   4.012 -0.2303  0.7195  0.0481
 4402TIP3   OH213211   4.410   2.647   3.592  0.5003 -0.2998  0.2115
 4402TIP3    H113212   4.480   2.585   3.573 -0.3752 -0.9451 -1.0547
 4402TIP3    H213213   4.385   2.682   3.506 -0.4355  0.2429  0.6842
 4403TIP3   OH213214   0.678   3.447   1.251  0.1576  0.2396  0.0388
 4403TIP3    H113215   0.626   3.527   1.256 -0.1459 -0.0402  2.1652
 4403TIP3    H213216   0.615   3.379   1.226 -0.4316  0.0163  1.9776
 4404TIP3   OH213217   6.208   4.825   2.440 -1.1001 -0.1685 -0.4488
 4404TIP3    H113218   6.135   4.884   2.460 -0.1944  0.5901  0.7430
 4404TIP3    H213219   6.218   4.831   2.345 -0.9496  1.7215 -0.3468
 4405TIP3   OH213220   3.267   3.677   1.572  0.5914 -0.0239 -0.2087
 4405TIP3    H113221   3.356   3.701   1.597 -0.0998  2.7041 -0.0209
 4405TIP3    H213222   3.219   3.675   1.654  0.0847  0.4505 -0.4910
 4406TIP3   OH213223   4.257   3.762   4.059  0.0474  0.0414 -0.1313
 4406TIP3    H113224   4.189   3.827   4.071 -0.9829 -1.0097 -0.1163
 4406TIP3    H213225   4.228   3.687   4.111  1.3606 -0.3365  0.1040
 4407TIP3   OH213226   3.806   4.433   4.691  0.4663  0.3589 -0.5646
 4407TIP3    H113227   3.900   4.424   4.680  0.3230 -0.7517 -0.9972
 4407TIP3    H213228   3.768   4.369   4.630 -0.5491  0.3573  0.0449
 4408TIP3   OH213229   1.610   0.397   2.378  0.3966 -0.2772  0.0216
 4408TIP3    H113230   1.592   0.348   2.298  0.9282  0.5762 -0.6320
 4408TIP3    H213231   1.523   0.416   2.415  0.1210  0.0267 -0.7762
 4409TIP3   OH213232   3.479   5.567   0.451 -0.0273 -0.7569 -0.2688
 4409TIP3    H113233   3.520   5.537   0.531  0.6548 -2.4849 -1.2114
 4409TIP3    H213234   3.437   5.489   0.414 -2.4946  0.5041 -0.3632
 4410TIP3   OH213235   5.016   4.613   0.682 -0.1532 -0.7441  0.0643
 4410TIP3    H113236   5.078   4.684   0.664  1.0221 -1.2764  1.7817
 4410TIP3    H213237   5.067   4.533   0.671  0.1724 -1.1704  3.4545
 4411TIP3   OH213238   4.012   3.379   0.338 -0.3077 -0.0080 -0.2935
 4411TIP3    H113239   4.055   3.408   0.257  1.2910  0.8916  0.8148
 4411TIP3    H213240   4.067   3.307   0.370  0.4134  1.0891  1.0907
 4412TIP3   OH213241   4.814   3.164   1.492  0.5148 -0.3512 -0.2869
 4412TIP3    H113242   4.800   3.239   1.549  1.1875 -0.1989 -0.3052
 4412TIP3    H213243   4.739   3.107   1.506  0.7256 -0.3690  0.8334
 4413TIP3   OH213244   3.571   3.611   3.133 -0.1650 -0.7926 -0.1138
 4413TIP3    H113245   3.583   3.528   3.086 -1.4809 -1.4403  0.6233
 4413TIP3    H213246   3.496   3.651   3.091  0.4762  0.0544 -0.4718
 4414TIP3   OH213247   4.825   2.487   2.314  0.0417 -0.0873 -0.3677
 4414TIP3    H113248   4.910   2.486   2.270 -0.3180 -0.4850 -1.0918
 4414TIP3    H213249   4.812   2.397   2.343 -0.2276 -0.0845 -0.4711
 4415TIP3   OH213250   6.151   5.585   4.444  0.1212 -0.2185  0.2293
 4415TIP3    H113251   6.205   5.577   4.366  0.6000 -1.6273  0.6603
 4415TIP3    H213252   6.189   5.522   4.506  0.2797  1.4646  1.9247
 4416TIP3   OH213253   0.348   5.912   4.647 -0.1669 -0.2148  0.1099
 4416TIP3    H113254   0.420   5.973   4.660  2.2121 -2.6973 -0.5405
 4416TIP3    H213255   0.349   5.894   4.553 -1.4262 -0.5784  0.1459
 4417TIP3   OH213256   2.597   5.383   3.516 -0.3815 -0.1632  0.5072
 4417TIP3    H113257   2.638   5.303   3.485 -0.2596  0.1857 -0.2436
 4417TIP3    H213258   2.591   5.371   3.611  2.3705  0.1944  0.8001
 4418TIP3   OH213259   2.075   4.563   4.881  0.0283  0.0031 -0.1600
 4418TIP3    H113260   2.119   4.495   4.830  0.4047  0.7243 -0.8206
 4418TIP3    H213261   2.105   4.549   4.971  1.0073  0.0057 -0.4754
 4419TIP3   OH213262   0.636   0.548   3.562 -0.0602 -0.5677 -0.1622
 4419TIP3    H113263   0.595   0.509   3.486 -0.9527 -0.1160  0.0787
 4419TIP3    H213264   0.564   0.570   3.620  0.6139 -1.0640  0.8990
 4420TIP3   OH213265   4.176   0.041   3.138 -0.6415 -0.3411  0.1400
 4420TIP3    H113266   4.092   0.054   3.093 -1.1281 -1.9996  0.4746
 4420TIP3    H213267   4.195  -0.052   3.126  0.4292 -0.3045  1.3100
 4421TIP3   OH213268   5.921   3.331   0.672  0.2016 -0.2492  0.3923
 4421TIP3    H113269   5.927   3.306   0.580  1.3339 -0.6561  0.5622
 4421TIP3    H213270   5.964   3.416   0.677 -0.4540  0.0907  0.4460
 4422TIP3   OH213271   4.284   0.804   3.823  0.4193  0.4186  0.0916
 4422TIP3    H113272   4.277   0.726   3.879  0.7580  0.4094  0.1190
 4422TIP3    H213273   4.343   0.862   3.871 -0.8175  1.2252  0.6886
 4423TIP3   OH213274   0.287   4.281   4.648 -0.4996  0.1603  0.1776
 4423TIP3    H113275   0.252   4.245   4.730  0.2336 -0.6750  0.1414
 4423TIP3    H213276   0.211   4.292   4.592 -0.6909 -2.4157 -0.2050
 4424TIP3   OH213277   5.103   3.234   3.509  0.1355  0.1816 -0.1940
 4424TIP3    H113278   5.130   3.179   3.435  0.8483  1.1278 -0.6591
 4424TIP3    H213279   5.018   3.270   3.483  0.4679  0.6552 -0.6392
 4425TIP3   OH213280   0.929   4.132   1.636 -0.2993  0.6042 -0.1825
 4425TIP3    H113281   0.939   4.087   1.719  0.2034 -0.4544 -0.7974
 4425TIP3    H213282   0.880   4.071   1.581  1.1118  0.3995 -1.2954
 4426TIP3   OH213283   2.485   1.994   1.761  0.3697 -0.0911 -0.2015
 4426TIP3    H113284   2.531   2.074   1.786  0.7223 -0.3618  0.0244
 4426TIP3    H213285   2.409   2.025   1.711 -0.9985  0.5490  2.1318
 4427TIP3   OH213286   5.164   4.937   2.342  0.3994  0.3127 -0.2373
 4427TIP3    H113287   5.128   4.886   2.414 -1.5859  1.4512 -0.3218
 4427TIP3    H213288   5.216   5.005   2.383  0.7729 -0.1136  0.0056
 4428TIP3   OH213289   5.607   5.817   1.193 -0.1830  0.3715 -0.4408
 4428TIP3    H113290   5.695   5.797   1.160 -0.0058  0.6742 -0.1564
 4428TIP3    H213291   5.569   5.731   1.210 -0.8511  0.1287 -2.8350
 4429TIP3   OH213292   2.098   1.314   3.353 -0.1284  0.1320  0.0828
 4429TIP3    H113293   2.176   1.360   3.322  0.6741 -0.9089  0.4903
 4429TIP3    H213294   2.118   1.222   3.340 -0.7031 -0.2243  1.5320
 4430TIP3   OH213295   4.259   1.376   0.152  0.1933 -0.2111  0.0373
 4430TIP3    H113296   4.224   1.407   0.069 -0.0244  0.9652  0.5495
 4430TIP3    H213297   4.349   1.410   0.155  0.2659 -0.4125  0.2013
 4431TIP3   OH213298   3.271   5.106   1.233 -0.3163  0.0164  0.2441
 4431TIP3    H113299   3.289   5.056   1.313  0.7527  1.6273  1.0860
 4431TIP3    H213300   3.178   5.093   1.216 -0.5220 -0.5348  1.6573
 4432TIP3   OH213301   1.992   0.478   1.307 -0.6264 -0.1109 -0.2007
 4432TIP3    H113302   1.962   0.568   1.320  0.4950  0.0895  1.3126
 4432TIP3    H213303   1.934   0.442   1.240 -1.7523  1.4181 -0.0865
 4433TIP3   OH213304   1.458   4.046   4.202  0.1056  0.3938 -0.0941
 4433TIP3    H113305   1.436   4.084   4.287 -0.0060  0.9212 -0.3535
 4433TIP3    H213306   1.461   3.952   4.217 -1.2509  0.3754  0.2000
 4434TIP3   OH213307   0.407   0.201   4.487 -0.3404  0.0042 -0.3790
 4434TIP3    H113308   0.396   0.216   4.394 -1.7751  0.0228 -0.2306
 4434TIP3    H213309   0.395   0.288   4.527  0.1316 -0.0267 -0.1614
 4435TIP3   OH213310   5.209   0.132   4.261 -0.0348 -0.3815  0.1015
 4435TIP3    H113311   5.166   0.174   4.336 -0.5273  1.3199 -1.0627
 4435TIP3    H213312   5.256   0.204   4.218  3.7908 -2.0545  1.0788
 4436TIP3   OH213313   3.787   1.046   0.882 -0.3519 -0.4228  0.2443
 4436TIP3    H113314   3.716   1.084   0.933 -0.3652 -0.0001 -0.0822
 4436TIP3    H213315   3.834   1.121   0.846 -0.7733 -0.7033 -0.9440
 4437TIP3   OH213316   0.942   5.700   4.496  0.0940  0.5262 -0.1509
 4437TIP3    H113317   0.938   5.606   4.511  3.4543  0.2736 -0.0545
 4437TIP3    H213318   0.952   5.709   4.401  2.8035  0.4542  0.0316
 4438TIP3   OH213319   4.725   0.483   1.057 -0.0841  0.3049  0.0091
 4438TIP3    H113320   4.675   0.441   0.988  0.0989  1.1199 -0.6289
 4438TIP3    H213321   4.661   0.537   1.103 -0.1745 -0.1243  0.4048
 4439TIP3   OH213322   3.751   0.139   0.607 -0.5405  0.0944  0.5228
 4439TIP3    H113323   3.719   0.195   0.678 -1.7623  3.1862 -2.2266
 4439TIP3    H213324   3.682   0.073   0.596 -0.6342 -0.0361  1.7087
 4440TIP3   OH213325   2.088   5.292   0.835 -0.1458 -0.0241  0.5494
 4440TIP3    H113326   2.072   5.331   0.921 -0.2228 -2.0870  1.5407
 4440TIP3    H213327   2.075   5.198   0.849  1.2946 -0.5681 -1.3811
 4441TIP3   OH213328   0.234   3.464   2.664  0.2567 -0.2080 -0.1192
 4441TIP3    H113329   0.219   3.401   2.734 -1.0011  1.1020  0.8531
 4441TIP3    H213330   0.172   3.439   2.596 -1.5527  1.0021  1.0121
 4442TIP3   OH213331   4.597   1.664   2.955  0.3499  0.1081  1.2444
 4442TIP3    H113332   4.577   1.604   3.026  0.1987  0.1593  1.2469
 4442TIP3    H213333   4.557   1.747   2.982  0.6288  0.2312  1.2812
 4443TIP3   OH213334   5.986   2.609   3.069 -0.2245  0.0433  0.1437
 4443TIP3    H113335   6.066   2.662   3.062  0.2561 -0.7704 -0.7417
 4443TIP3    H213336   5.937   2.650   3.140  0.6826  0.9500  0.2785
 4444TIP3   OH213337   1.316   5.878   4.860  0.4595  0.0598 -0.0244
 4444TIP3    H113338   1.324   5.966   4.823 -3.0370  0.6898  0.4225
 4444TIP3    H213339   1.266   5.829   4.795 -1.9930 -0.0654  1.8323
 4445TIP3   OH213340   1.774   5.087   0.352  0.1208  0.2369  0.1624
 4445TIP3    H113341   1.721   5.014   0.319  0.0730  0.1784  0.3698
 4445TIP3    H213342   1.716   5.163   0.349 -0.3080 -0.0315  1.3783
 4446TIP3   OH213343   1.154   3.675   3.718 -0.0052  0.0163  0.2024
 4446TIP3    H113344   1.245   3.700   3.706 -0.4150  1.6879  0.3407
 4446TIP3    H213345   1.157   3.601   3.779  1.3729 -1.5191 -1.5997
 4447TIP3   OH213346   5.765   5.486   3.389  0.1711 -0.2312  0.3247
 4447TIP3    H113347   5.810   5.453   3.312  0.3714  0.9992 -0.1007
 4447TIP3    H213348   5.828   5.544   3.432 -0.3165 -0.0399  0.8082
 4448TIP3   OH213349   2.132   1.106   1.236  0.2376 -0.1891  0.2680
 4448TIP3    H113350   2.046   1.081   1.270  0.4281  1.8924  2.6153
 4448TIP3    H213351   2.175   1.023   1.216 -1.0284 -1.4954  2.4937
 4449TIP3   OH213352   5.406   5.993   0.125  0.1517 -0.2941 -0.1254
 4449TIP3    H113353   5.409   5.899   0.110  0.4285 -0.1290 -1.1599
 4449TIP3    H213354   5.497   6.022   0.117  0.1514 -0.0061  0.7423
 4450TIP3   OH213355   1.797   3.259   3.359 -0.0508  0.4893 -0.7068
 4450TIP3    H113356   1.779   3.219   3.274 -0.0005  0.2313 -0.5987
 4450TIP3    H213357   1.747   3.340   3.359  0.0982  0.5808 -1.0552
 4451TIP3   OH213358   3.110   4.087   4.901  0.3086 -0.5375 -0.4857
 4451TIP3    H113359   3.070   4.174   4.904 -2.3871 -1.6862  0.4712
 4451TIP3    H213360   3.042   4.028   4.934  1.4510 -3.2326 -2.4734
 4452TIP3   OH213361   4.584   2.539   1.262 -1.0762 -0.1125 -0.0287
 4452TIP3    H113362   4.563   2.618   1.311  1.0370 -0.6900  1.9927
 4452TIP3    H213363   4.623   2.571   1.181  0.9874  1.0424  1.3228
 4453TIP3   OH213364   5.517   1.554   2.708 -0.1448 -0.1993 -0.2448
 4453TIP3    H113365   5.586   1.606   2.667  0.4628 -1.2215 -0.5695
 4453TIP3    H213366   5.438   1.606   2.698  0.2791  0.2641 -1.3498
 4454TIP3   OH213367   4.155   5.366   3.448 -0.4036  0.7351 -0.1649
 4454TIP3    H113368   4.210   5.342   3.522 -0.6791  0.4043 -0.0700
 4454TIP3    H213369   4.110   5.446   3.476 -1.8008 -0.3044  0.6866
 4455TIP3   OH213370   0.769   1.497   4.426 -0.7051  0.2580 -0.0005
 4455TIP3    H113371   0.841   1.479   4.487 -0.3014  0.4761 -0.4175
 4455TIP3    H213372   0.695   1.448   4.463 -0.0660 -0.8791 -0.1718
 4456TIP3   OH213373   3.133   3.558   4.878  0.6145 -0.4092  0.3311
 4456TIP3    H113374   3.152   3.503   4.802 -0.0101 -0.1544 -0.0195
 4456TIP3    H213375   3.112   3.644   4.840  0.2997 -0.2797  0.7926
 4457TIP3   OH213376   1.147   5.263   3.357 -0.0121 -0.1240 -0.1664
 4457TIP3    H113377   1.167   5.197   3.291 -3.2407 -1.2623 -0.1688
 4457TIP3    H213378   1.147   5.215   3.440  0.5196  0.5290  0.2192
 4458TIP3   OH213379   2.466   1.022   1.257  0.0103  0.3557 -0.0061
 4458TIP3    H113380   2.389   0.982   1.217  1.5553 -1.5996 -1.1948
 4458TIP3    H213381   2.469   1.110   1.220 -0.1192 -0.4932 -2.1663
 4459TIP3   OH213382   1.830   5.274   2.378  0.2737  0.1030 -0.0848
 4459TIP3    H113383   1.819   5.179   2.376  1.4480 -0.0597  0.1985
 4459TIP3    H213384   1.922   5.287   2.404  0.8072  1.2837 -2.2705
 4460TIP3   OH213385   3.002   4.882   1.370 -0.5256  0.2402  0.2217
 4460TIP3    H113386   2.921   4.920   1.336  0.4961  0.3546 -2.2777
 4460TIP3    H213387   3.042   4.951   1.422 -0.5317  1.3065 -1.1467
 4461TIP3   OH213388   0.062   0.841   0.273  0.3402 -0.6039 -0.0798
 4461TIP3    H113389   0.086   0.749   0.261 -0.4362 -0.8398  0.1262
 4461TIP3    H213390   0.097   0.863   0.360  0.4862 -0.7197 -0.1083
 4462TIP3   OH213391   1.560   2.044   4.363 -0.2522  0.6568  0.1000
 4462TIP3    H113392   1.577   2.138   4.363  0.0924  0.5956  0.3299
 4462TIP3    H213393   1.474   2.036   4.404  1.0569  0.6518  3.1138
 4463TIP3   OH213394   4.991   5.844   0.876 -0.0513  0.3675 -0.2165
 4463TIP3    H113395   4.938   5.883   0.945 -1.6416  1.0599 -1.7524
 4463TIP3    H213396   4.953   5.877   0.794  1.5227 -0.6983 -1.4532
 4464TIP3   OH213397   2.719   1.442   2.320 -0.0870 -0.0682  0.1950
 4464TIP3    H113398   2.630   1.456   2.287  0.2081  0.3014 -0.4792
 4464TIP3    H213399   2.734   1.348   2.306  0.4807  0.2762 -1.9933
 4465TIP3   OH213400   0.986   1.805   5.006  0.0176  0.0926 -0.1145
 4465TIP3    H113401   0.987   1.885   5.059  1.2492 -0.6812  1.1282
 4465TIP3    H213402   1.063   1.813   4.949  0.2906 -0.3047  0.1931
 4466TIP3   OH213403   2.980   5.963   0.676  0.1919 -0.2202 -0.6772
 4466TIP3    H113404   2.945   5.971   0.588 -0.1588 -0.2115 -0.5394
 4466TIP3    H213405   2.936   6.032   0.726 -0.4820 -0.9485 -0.2267
 4467TIP3   OH213406   5.010   4.159   3.802 -0.6392 -0.0113  0.0310
 4467TIP3    H113407   5.038   4.141   3.891 -1.4069 -0.3791  0.2067
 4467TIP3    H213408   5.019   4.254   3.792  0.7163 -0.1283  0.0469
 4468TIP3   OH213409   0.878   3.626   0.653 -0.6327  0.3661 -0.6948
 4468TIP3    H113410   0.788   3.594   0.644 -0.3991 -0.6320  0.3726
 4468TIP3    H213411   0.874   3.716   0.619 -1.9823  0.2779 -0.8468
 4469TIP3   OH213412   5.007   5.810   2.822  0.2424  0.0261  0.1075
 4469TIP3    H113413   5.101   5.814   2.806  0.2424 -0.0746  0.0846
 4469TIP3    H213414   4.978   5.731   2.776  0.5081 -1.1869  1.9119
 4470TIP3   OH213415   6.338   4.468   0.191  0.2806 -0.1983  0.1890
 4470TIP3    H113416   6.244   4.448   0.193  0.0553  0.3828 -1.9261
 4470TIP3    H213417   6.381   4.383   0.200 -0.4249 -0.4968  0.9402
 4471TIP3   OH213418   0.189   0.823   0.867  0.5405  0.5399  0.3851
 4471TIP3    H113419   0.268   0.791   0.824  1.2915 -2.1964  3.4517
 4471TIP3    H213420   0.219   0.900   0.916  0.8012  0.6875  0.0050
 4472TIP3   OH213421   3.427   5.610   2.608  0.4771 -0.1769 -0.3258
 4472TIP3    H113422   3.509   5.561   2.609  1.3087  1.1800  0.3503
 4472TIP3    H213423   3.450   5.696   2.572 -0.2899  0.7909  1.3565
 4473TIP3   OH213424   0.560   3.323   4.856 -0.1363 -0.6618  0.1560
 4473TIP3    H113425   0.498   3.388   4.889 -0.0808 -0.9959  0.9460
 4473TIP3    H213426   0.550   3.248   4.915  1.4358 -0.5048  0.6756
 4474TIP3   OH213427   5.651   1.501   4.648 -0.2314  0.1834 -0.2702
 4474TIP3    H113428   5.687   1.560   4.715 -1.4209 -0.7112  1.2312
 4474TIP3    H213429   5.705   1.422   4.654 -0.5436 -0.0202 -0.1424
 4475TIP3   OH213430   4.580   1.079   1.404 -0.3089 -0.1596 -0.0188
 4475TIP3    H113431   4.521   1.052   1.475  0.0826 -0.5997  0.1503
 4475TIP3    H213432   4.543   1.160   1.371 -0.6198 -0.0651  0.5513
 4476TIP3   OH213433   5.567   4.320   5.016 -0.2751 -0.2066 -0.5045
 4476TIP3    H113434   5.487   4.278   5.048 -0.3145 -0.3839 -0.8323
 4476TIP3    H213435   5.598   4.262   4.946  1.6022 -1.6177  1.3469
 4477TIP3   OH213436   5.826   1.790   0.061  0.1208 -0.2851  0.2547
 4477TIP3    H113437   5.782   1.771  -0.022  0.7423 -1.3223  0.1329
 4477TIP3    H213438   5.919   1.791   0.037  0.2290  0.7897  0.6965
 4478TIP3   OH213439   0.366   1.256   3.104 -0.4237  0.6520  0.5405
 4478TIP3    H113440   0.338   1.347   3.119  0.3361  0.8464  0.8165
 4478TIP3    H213441   0.373   1.249   3.009  0.7901  1.2947  0.5612
 4479TIP3   OH213442   0.124   4.994   3.344  0.1486 -0.0938 -0.3713
 4479TIP3    H113443   0.167   5.079   3.359  0.1124 -0.0900 -0.2918
 4479TIP3    H213444   0.160   4.937   3.412 -0.8908  0.2316  0.4829
 4480TIP3   OH213445   1.526   0.888   2.263 -0.6784  0.4061 -0.2220
 4480TIP3    H113446   1.480   0.804   2.261 -0.3059  0.0170  2.9307
 4480TIP3    H213447   1.611   0.870   2.222 -1.5273 -0.0325 -1.8948
 4481TIP3   OH213448   5.023   1.845   2.920  0.7407  0.2365 -0.7074
 4481TIP3    H113449   5.010   1.937   2.944  1.7377  0.1390  0.2913
 4481TIP3    H213450   5.068   1.807   2.995 -0.0454 -1.1866 -0.9215
 4482TIP3   OH213451   4.140   4.141   1.269  0.1977  0.1906  0.2477
 4482TIP3    H113452   4.151   4.156   1.363  1.3788  2.3220 -0.1526
 4482TIP3    H213453   4.060   4.090   1.262  0.0707 -0.0022  2.4133
 4483TIP3   OH213454   1.672   2.068   1.942 -0.1735  0.0336 -0.2340
 4483TIP3    H113455   1.657   2.026   2.027 -0.2581 -0.1657 -0.3456
 4483TIP3    H213456   1.610   2.024   1.883  0.5876 -0.5436 -0.6300
 4484TIP3   OH213457   2.409   1.258   0.503  0.2206  1.1128 -0.6230
 4484TIP3    H113458   2.369   1.176   0.535 -0.1637  0.4215 -2.7183
 4484TIP3    H213459   2.493   1.263   0.548 -0.2722  0.2030  0.4496
 4485TIP3   OH213460   3.306   2.765   0.913 -0.1646  0.2498 -0.4334
 4485TIP3    H113461   3.400   2.775   0.927 -0.2549  2.2973 -0.9895
 4485TIP3    H213462   3.298   2.680   0.869  1.1314 -1.1305  1.7966
 4486TIP3   OH213463   5.938   0.312   0.069 -0.4291  0.7543 -0.3089
 4486TIP3    H113464   5.862   0.309   0.127  0.1287  0.9118  0.4456
 4486TIP3    H213465   6.003   0.257   0.112 -0.3114  0.1388 -1.2472
 4487TIP3   OH213466   3.682   0.178   4.171 -0.0439  0.3993 -0.0651
 4487TIP3    H113467   3.602   0.182   4.224 -0.6910 -1.7284 -0.7904
 4487TIP3    H213468   3.672   0.249   4.107 -1.3836  0.1325 -0.1731
 4488TIP3   OH213469   4.225   2.545   0.503 -0.5188  0.0025 -0.0206
 4488TIP3    H113470   4.265   2.626   0.470 -0.5631  0.0583  0.0603
 4488TIP3    H213471   4.226   2.556   0.598 -2.0745  0.6656 -0.0486
 4489TIP3   OH213472   6.066   1.368   0.899 -0.2539 -0.3978  0.0477
 4489TIP3    H113473   5.981   1.405   0.877  0.8411  1.4285 -1.4404
 4489TIP3    H213474   6.078   1.297   0.835 -0.8413 -0.9824  0.5758
 4490TIP3   OH213475   4.591   3.404   4.197  0.2928 -0.0767  0.0891
 4490TIP3    H113476   4.597   3.311   4.173  1.9453  0.3136 -1.2424
 4490TIP3    H213477   4.646   3.449   4.132  0.0640  1.7678  1.0969
 4491TIP3   OH213478   2.358   0.644   3.385  0.4378  0.4834 -0.6565
 4491TIP3    H113479   2.377   0.708   3.453 -0.3959  0.3842 -0.3177
 4491TIP3    H213480   2.263   0.644   3.377  0.3951 -0.8849 -0.4749
 4492TIP3   OH213481   4.022   2.834   3.334 -0.6448 -0.6511 -0.0836
 4492TIP3    H113482   4.074   2.788   3.268  2.3083  2.7579 -0.4071
 4492TIP3    H213483   3.959   2.886   3.283 -1.1008 -1.0761  0.0400
 4493TIP3   OH213484   1.326   1.964   0.740 -0.0006 -0.0962 -0.4054
 4493TIP3    H113485   1.245   1.939   0.697 -0.8251  0.7276  0.5997
 4493TIP3    H213486   1.364   2.031   0.682 -0.5561  0.2409 -0.3903
 4494TIP3   OH213487   2.716   2.722   2.241 -0.5752 -0.4659  0.1437
 4494TIP3    H113488   2.626   2.697   2.260 -0.6536  0.3236  0.8896
 4494TIP3    H213489   2.769   2.674   2.303 -0.5804 -0.1086  0.4290
 4495TIP3   OH213490   4.687   2.224   3.677  0.0094  0.2152  0.1493
 4495TIP3    H113491   4.615   2.173   3.640  2.0070 -2.9616  0.3187
 4495TIP3    H213492   4.714   2.175   3.755  1.1314  2.3868  1.2208
 4496TIP3   OH213493   1.038   5.794   3.082  0.1789 -0.2684  0.2283
 4496TIP3    H113494   1.043   5.825   2.992 -0.5629 -1.2926 -0.1924
 4496TIP3    H213495   1.058   5.700   3.076  0.5914 -0.2575  1.2000
 4497TIP3   OH213496   1.278   3.982   1.242 -0.5296 -0.1152 -0.1456
 4497TIP3    H113497   1.191   3.992   1.204 -0.9232 -0.1017  0.7256
 4497TIP3    H213498   1.334   3.958   1.169 -1.3509 -0.5723 -0.6381
 4498TIP3   OH213499   3.193   4.771   3.392  0.0408 -0.1358  0.2932
 4498TIP3    H113500   3.131   4.735   3.328 -0.2727  0.5858  0.1822
 4498TIP3    H213501   3.231   4.847   3.348  0.5963 -0.2433  0.5776
 4499TIP3   OH213502   0.391   2.004   0.730 -0.2356 -0.3215  0.6798
 4499TIP3    H113503   0.398   1.914   0.763  0.3084 -0.5568 -0.0548
 4499TIP3    H213504   0.336   1.996   0.652  0.0500 -0.0625  0.4512
 4500TIP3   OH213505   5.054   3.251   2.491  0.3967  0.0543  0.0789
 4500TIP3    H113506   5.109   3.324   2.463 -0.9519  0.8527 -0.5674
 4500TIP3    H213507   5.038   3.267   2.584 -0.4621  1.0090 -0.2062
 4501TIP3   OH213508   2.565   4.544   4.424 -0.3725  0.6409 -0.1707
 4501TIP3    H113509   2.475   4.550   4.391  0.2470  0.4989 -2.0250
 4501TIP3    H213510   2.595   4.457   4.397  0.9667  1.4427 -1.4654
 4502TIP3   OH213511   2.652   3.445   4.317  0.5447 -0.1850  0.1251
 4502TIP3    H113512   2.560   3.438   4.342 -0.3007  0.9768 -2.3389
 4502TIP3    H213513   2.695   3.484   4.393 -1.1910  0.1576  0.9672
 4503TIP3   OH213514   4.723   1.339   3.031 -0.0956 -0.2300 -0.2356
 4503TIP3    H113515   4.768   1.416   3.066  0.3931 -0.5078 -0.2431
 4503TIP3    H213516   4.651   1.374   2.980  0.3781  0.2361 -0.5916
 4504TIP3   OH213517   5.352   1.428  -0.006 -0.6296 -0.1872  0.0167
 4504TIP3    H113518   5.417   1.490   0.028 -0.8702 -0.3996  0.9047
 4504TIP3    H213519   5.384   1.342   0.022 -0.7776 -0.3831 -0.4068
 4505TIP3   OH213520   3.293   1.924   2.754  0.0696  0.2606  0.0212
 4505TIP3    H113521   3.233   1.919   2.828  0.1373 -1.4759 -0.0106
 4505TIP3    H213522   3.236   1.920   2.677  0.1857 -2.3808 -0.0246
 4506TIP3   OH213523   3.623   1.521   5.178  0.0822  0.5381  0.0994
 4506TIP3    H113524   3.686   1.468   5.128 -0.0716  0.4036  0.0478
 4506TIP3    H213525   3.675   1.594   5.211  0.3263  0.2846  0.2823
 4507TIP3   OH213526   3.646   2.489   2.067  0.0162  0.4508  0.3449
 4507TIP3    H113527   3.621   2.537   1.988 -0.8830  0.4851  0.6383
 4507TIP3    H213528   3.737   2.463   2.051  0.2992  1.6487 -0.1102
 4508TIP3   OH213529   1.925   1.549   2.406  0.1761 -0.2072  0.2990
 4508TIP3    H113530   1.842   1.567   2.449  0.9741  0.1788  1.7465
 4508TIP3    H213531   1.901   1.508   2.323 -1.6292  3.2192 -1.1083
 4509TIP3   OH213532   0.201   0.849   3.176 -0.5261 -0.5595  0.0687
 4509TIP3    H113533   0.128   0.886   3.226 -0.8752 -1.1117 -0.0366
 4509TIP3    H213534   0.277   0.898   3.208 -0.3407 -2.4086  2.9052
 4510TIP3   OH213535   3.156   0.655   4.128  0.3715 -0.2004 -0.3755
 4510TIP3    H113536   3.163   0.688   4.218 -1.8895  0.5309 -0.4044
 4510TIP3    H213537   3.106   0.574   4.137 -0.8180  0.4341 -1.0388
 4511TIP3   OH213538   0.527   3.372   2.235  0.6742 -0.2979 -0.1481
 4511TIP3    H113539   0.533   3.333   2.323  3.0423  1.5891  0.6282
 4511TIP3    H213540   0.474   3.450   2.248  1.5754  0.3423 -0.2024
 4512TIP3   OH213541   5.277   0.139   1.183  0.0978 -0.2259 -0.0630
 4512TIP3    H113542   5.219   0.066   1.159 -1.0338  0.3811  0.7447
 4512TIP3    H213543   5.225   0.218   1.165  1.0327  0.3666 -0.2197
 4513TIP3   OH213544   4.082   4.451   2.621 -0.3275 -0.0300 -0.0271
 4513TIP3    H113545   4.157   4.399   2.592  0.2030  0.8122 -0.2029
 4513TIP3    H213546   4.114   4.541   2.620 -0.7295  0.1570  1.8263
 4514TIP3   OH213547   5.383   1.793   0.320  0.2860  0.0948 -0.2372
 4514TIP3    H113548   5.443   1.733   0.364 -0.2637  0.1320  0.5684
 4514TIP3    H213549   5.440   1.862   0.285  0.6063  0.9101  1.7770
 4515TIP3   OH213550   0.129   0.554   2.604 -0.2349  0.2102  0.3991
 4515TIP3    H113551   0.051   0.560   2.660  0.3916 -0.3421  1.3623
 4515TIP3    H213552   0.133   0.638   2.559 -0.3115  1.0008  1.8041
 4516TIP3   OH213553   2.644   0.326   1.170 -0.3435  0.3934  0.0639
 4516TIP3    H113554   2.726   0.276   1.170 -0.9637 -0.6786 -1.0189
 4516TIP3    H213555   2.667   0.410   1.209  1.0579 -0.2295  0.6265
 4517TIP3   OH213556   1.888   5.973   4.911  0.7698 -0.0982 -0.3288
 4517TIP3    H113557   1.800   5.955   4.881 -0.2529  2.3793  0.8753
 4517TIP3    H213558   1.937   5.893   4.893 -1.3770 -1.0993 -2.1837
 4518TIP3   OH213559   2.151   3.104   3.694 -0.6528  0.1647 -0.2015
 4518TIP3    H113560   2.181   3.028   3.644  0.5040  1.3335 -1.3806
 4518TIP3    H213561   2.114   3.163   3.628 -1.7222  0.5553  0.7145
 4519TIP3   OH213562   0.036   0.178   4.960 -0.1732  0.1822  0.4519
 4519TIP3    H113563   0.066   0.238   4.892  1.9891  0.3149  1.4273
 4519TIP3    H213564   0.075   0.094   4.935 -1.9021 -0.5056 -0.0698
 4520TIP3   OH213565   5.559   4.373   3.356  0.5348  0.2354 -0.3392
 4520TIP3    H113566   5.634   4.315   3.370 -0.8452 -1.5058  0.2872
 4520TIP3    H213567   5.566   4.438   3.425  0.9701 -0.4762  0.3115
 4521TIP3   OH213568   3.731   3.847   3.164 -0.4296 -0.1241 -0.0331
 4521TIP3    H113569   3.707   3.906   3.235 -1.8094 -0.2144 -0.3984
 4521TIP3    H213570   3.660   3.783   3.161  0.9328 -1.7388  0.2389
 4522TIP3   OH213571   5.795   0.478   3.541  0.7398 -0.0342 -0.2170
 4522TIP3    H113572   5.832   0.390   3.550  0.7118 -0.1019 -0.6995
 4522TIP3    H213573   5.720   0.479   3.600  2.5094  0.6871  2.1641
 4523TIP3   OH213574   3.713   4.951   3.408  0.5241 -0.2340 -0.2121
 4523TIP3    H113575   3.775   5.003   3.459 -1.5276 -0.0356  2.2391
 4523TIP3    H213576   3.729   4.861   3.435 -0.5198 -0.1367  0.7574
 4524TIP3   OH213577   1.672   2.841   2.594 -0.1609  1.0490 -0.0465
 4524TIP3    H113578   1.759   2.807   2.613  0.6406  2.6701 -0.6055
 4524TIP3    H213579   1.632   2.855   2.680  0.6159  1.4792  0.2491
 4525TIP3   OH213580   5.637   5.400   4.045  0.6000 -0.0717 -0.3303
 4525TIP3    H113581   5.568   5.381   3.982  1.5985 -0.3923 -1.3529
 4525TIP3    H213582   5.591   5.410   4.129 -0.5816 -1.2597 -0.8025
 4526TIP3   OH213583   0.416   0.265   4.229 -0.5100 -0.3918 -0.1647
 4526TIP3    H113584   0.440   0.353   4.202  0.3075 -0.1443  1.2859
 4526TIP3    H213585   0.398   0.219   4.147  1.3412  0.4641 -1.1117
 4527TIP3   OH213586   3.438   5.362   5.165  0.0079  0.2765 -0.7556
 4527TIP3    H113587   3.407   5.342   5.077 -0.9822  0.2212 -0.4111
 4527TIP3    H213588   3.483   5.282   5.193  0.3278  0.2955 -1.2065
 4528TIP3   OH213589   1.641   4.917   4.905 -0.4946  0.2900 -0.0728
 4528TIP3    H113590   1.709   4.869   4.953 -1.7919 -0.7685  0.7933
 4528TIP3    H213591   1.640   5.004   4.946  0.3933  0.3473 -0.1606
 4529TIP3   OH213592   3.626   5.064   2.233 -0.3487  0.0865 -0.1967
 4529TIP3    H113593   3.557   5.125   2.256 -1.3846 -0.9541 -0.4433
 4529TIP3    H213594   3.707   5.109   2.256 -1.1706  0.4170  2.3557
 4530TIP3   OH213595   0.244   1.094   1.512 -0.3778  0.0608  0.3262
 4530TIP3    H113596   0.178   1.091   1.443 -2.2862 -2.1026  2.0891
 4530TIP3    H213597   0.253   1.186   1.534 -3.2668  0.4001  0.3716
 4531TIP3   OH213598   3.685   2.319   1.515  0.0390  0.3512  0.8701
 4531TIP3    H113599   3.629   2.287   1.586 -1.3017  1.5906  0.4199
 4531TIP3    H213600   3.743   2.382   1.557 -0.4195  0.7167  0.9604
 4532TIP3   OH213601   0.440   4.474   3.240 -0.6396  0.2983 -0.3061
 4532TIP3    H113602   0.479   4.502   3.157  0.5044 -0.2203  0.0509
 4532TIP3    H213603   0.486   4.394   3.263 -0.5328  0.7585  1.1453
 4533TIP3   OH213604   2.162   4.538   1.477  0.6701 -0.9057  0.6250
 4533TIP3    H113605   2.123   4.486   1.547  0.8745 -0.8451  0.7839
 4533TIP3    H213606   2.097   4.606   1.458  1.7058  0.7459  2.6032
 4534TIP3   OH213607   4.685   2.191   0.220 -0.1764  0.3128 -0.0118
 4534TIP3    H113608   4.708   2.223   0.133  1.7774  0.9687  0.6853
 4534TIP3    H213609   4.759   2.137   0.246 -2.6279 -3.6306 -0.4718
 4535TIP3   OH213610   2.544   4.285   1.677 -0.2751  0.0939 -0.2221
 4535TIP3    H113611   2.494   4.358   1.640  1.8421  0.8019 -1.8795
 4535TIP3    H213612   2.631   4.293   1.639 -0.2496 -4.0710 -1.6044
 4536TIP3   OH213613   4.026   0.584   3.843 -0.0880  0.7109  0.1071
 4536TIP3    H113614   3.948   0.640   3.843 -0.1630  0.6495  1.7876
 4536TIP3    H213615   4.060   0.590   3.932 -1.2343 -3.4714  1.0452
 4537TIP3   OH213616   2.792   4.716   1.997  0.1255 -0.2630 -0.6315
 4537TIP3    H113617   2.885   4.736   1.988  0.6817 -2.8428 -1.1551
 4537TIP3    H213618   2.764   4.768   2.073  2.0796  0.2299 -0.1937
 4538TIP3   OH213619   0.610   3.739   1.813 -0.3795 -0.0582  0.0719
 4538TIP3    H113620   0.591   3.646   1.796  1.0137 -0.4415  0.4686
 4538TIP3    H213621   0.671   3.738   1.886  1.0152  1.0608 -1.0138
 4539TIP3   OH213622   4.550   4.335   3.591  0.2413 -0.0993  0.1043
 4539TIP3    H113623   4.619   4.281   3.552 -0.4368 -1.4439  0.6670
 4539TIP3    H213624   4.574   4.425   3.570  2.3000 -0.5115  0.5002
 4540TIP3   OH213625   1.203   2.791   3.263  0.0080  0.2267 -0.0504
 4540TIP3    H113626   1.178   2.722   3.201 -0.0391  1.5257 -1.5397
 4540TIP3    H213627   1.292   2.815   3.237  0.0342  0.7046  0.4739
 4541TIP3   OH213628   4.325   4.283   1.106 -0.3236 -0.1904  0.0610
 4541TIP3    H113629   4.273   4.363   1.119  1.3321  1.0809 -0.7000
 4541TIP3    H213630   4.261   4.212   1.108 -1.7932  1.0890  1.3365
 4542TIP3   OH213631   3.856   1.656   3.847 -0.0639  0.2762  0.2205
 4542TIP3    H113632   3.902   1.590   3.900  1.2542 -0.7587 -2.0746
 4542TIP3    H213633   3.763   1.637   3.861  0.2713 -2.0910 -0.3187
 4543TIP3   OH213634   0.552   4.183   4.909 -0.7145 -0.7035  0.2363
 4543TIP3    H113635   0.539   4.242   4.984  0.5779 -2.1590  1.6603
 4543TIP3    H213636   0.477   4.124   4.912 -1.7874  0.5036 -0.9461
 4544TIP3   OH213637   1.695   2.414   4.844 -0.8445  0.1614 -0.0316
 4544TIP3    H113638   1.705   2.506   4.872 -0.2536 -0.0701  0.5409
 4544TIP3    H213639   1.612   2.413   4.796 -0.6190  1.0942 -0.4633
 4545TIP3   OH213640   2.067   5.399   3.500  0.0842  0.2953  0.8173
 4545TIP3    H113641   2.147   5.362   3.463  0.2588  1.3699  0.0729
 4545TIP3    H213642   2.035   5.460   3.433 -2.3011 -1.3377  0.3379
 4546TIP3   OH213643   1.784   4.800   4.208  0.3027 -0.0882  0.0907
 4546TIP3    H113644   1.700   4.755   4.196  1.2154 -1.6455 -0.7867
 4546TIP3    H213645   1.795   4.852   4.128  0.1877  0.0990  0.1959
 4547TIP3   OH213646   5.356   3.669   3.389 -0.6824  0.3225 -0.2007
 4547TIP3    H113647   5.328   3.744   3.338 -0.1320  0.9260  0.3706
 4547TIP3    H213648   5.445   3.690   3.416  0.1781 -1.3339 -1.5562
 4548TIP3   OH213649   4.659   2.933   0.083  0.6328  0.6283  0.1656
 4548TIP3    H113650   4.573   2.893   0.087  0.9871 -0.2906 -1.0106
 4548TIP3    H213651   4.642   3.028   0.084 -0.3056  0.4574  1.1485
 4549TIP3   OH213652   4.221   1.837   3.537  0.2507 -0.2591  1.0378
 4549TIP3    H113653   4.219   1.878   3.451  1.1678 -0.8272  0.7305
 4549TIP3    H213654   4.129   1.827   3.561 -0.0027  0.4555  0.3949
 4550TIP3   OH213655   2.216   1.659   1.571 -0.3606  0.1566  0.3769
 4550TIP3    H113656   2.252   1.744   1.543 -0.4716 -0.0341 -0.3618
 4550TIP3    H213657   2.168   1.679   1.652 -0.6218  0.8548  0.0594
 4551TIP3   OH213658   5.567   0.704   1.596  0.0823  0.1606  0.0325
 4551TIP3    H113659   5.545   0.611   1.594 -1.0724  0.4109 -0.1739
 4551TIP3    H213660   5.659   0.707   1.619  1.0724 -1.1755 -3.1720
 4552TIP3   OH213661   5.835   4.823   4.443 -0.1140  0.2392 -0.3573
 4552TIP3    H113662   5.899   4.870   4.390 -0.4146  0.1210 -0.8342
 4552TIP3    H213663   5.757   4.818   4.387 -0.4249  0.0795  0.0825
 4553TIP3   OH213664   3.135   3.502   1.374  0.0824 -0.0722 -0.1022
 4553TIP3    H113665   3.197   3.559   1.329  0.6789 -0.0443  0.7287
 4553TIP3    H213666   3.138   3.530   1.465 -0.3512 -0.7910  0.1451
 4554TIP3   OH213667   5.492   0.485   4.975  0.1896 -0.7073 -0.2337
 4554TIP3    H113668   5.500   0.485   4.880  1.1221 -0.8649 -0.1618
 4554TIP3    H213669   5.576   0.518   5.006 -0.9484  1.6887  0.4790
 4555TIP3   OH213670   3.672   2.986   2.586  0.0191  0.1400  0.1348
 4555TIP3    H113671   3.692   3.063   2.533 -1.0026  0.3933  0.1051
 4555TIP3    H213672   3.754   2.936   2.587  0.0603  0.0899 -1.7410
 4556TIP3   OH213673   1.848   0.861   3.870  0.0998 -0.0992  0.1581
 4556TIP3    H113674   1.767   0.811   3.858  1.3686 -2.2882  0.2509
 4556TIP3    H213675   1.837   0.905   3.954 -1.3944  0.5140 -0.3212
 4557TIP3   OH213676   5.013   5.597   0.635  0.1513  0.1608 -0.0897
 4557TIP3    H113677   5.106   5.579   0.651 -0.0883 -0.1690  1.0049
 4557TIP3    H213678   5.010   5.691   0.619  0.6908  0.1524 -0.2677
 4558TIP3   OH213679   4.106   5.849   4.971  0.2080  0.6274  0.1158
 4558TIP3    H113680   4.116   5.890   5.057  3.0689  1.2703 -0.4419
 4558TIP3    H213681   4.192   5.855   4.931  0.1212 -3.4870 -1.1527
 4559TIP3   OH213682   4.686   4.219   3.387 -0.2139  0.3103  0.3538
 4559TIP3    H113683   4.600   4.193   3.354 -0.9838  0.9483  1.7371
 4559TIP3    H213684   4.723   4.138   3.422 -0.0674 -0.0458 -0.5909
 4560TIP3   OH213685   5.054   3.186   0.489  0.6690  0.1141 -0.3633
 4560TIP3    H113686   5.036   3.233   0.408 -2.1569 -0.6070 -0.2545
 4560TIP3    H213687   5.071   3.096   0.461  1.7355  0.2629 -0.2527
 4561TIP3   OH213688   1.620   1.669   1.419 -0.3619 -0.0341  0.2756
 4561TIP3    H113689   1.663   1.667   1.504 -0.4586  0.4826  0.3436
 4561TIP3    H213690   1.535   1.709   1.436 -2.4711 -4.2470  0.7934
 4562TIP3   OH213691   3.390   5.468   1.208 -0.5509  0.1024  0.1591
 4562TIP3    H113692   3.319   5.489   1.146  0.6329  2.3905 -0.5195
 4562TIP3    H213693   3.443   5.548   1.212  1.0528 -0.9733  1.9521
 4563TIP3   OH213694   3.318   2.791   2.348 -0.5485  0.0036 -0.2082
 4563TIP3    H113695   3.306   2.883   2.324 -3.0492  0.0948  1.0641
 4563TIP3    H213696   3.284   2.784   2.437 -0.4541 -2.1443 -0.2723
 4564TIP3   OH213697   2.682   0.723   2.183 -0.4675 -0.6243  0.1791
 4564TIP3    H113698   2.628   0.793   2.220  1.5825  1.6999 -0.8801
 4564TIP3    H213699   2.622   0.650   2.171 -2.6773  0.7931  1.6876
 4565TIP3   OH213700   3.555   3.533   4.925  0.3112 -0.1670  0.5823
 4565TIP3    H113701   3.469   3.541   4.968  0.1984  1.1576  0.1408
 4565TIP3    H213702   3.616   3.576   4.985  0.2253  1.2828 -0.3199
 4566TIP3   OH213703   3.512   2.889   3.698  0.7278  0.6756 -0.0840
 4566TIP3    H113704   3.587   2.849   3.741  0.3497 -0.1493 -0.1877
 4566TIP3    H213705   3.442   2.824   3.705 -0.0595  1.5239  0.2357
 4567TIP3   OH213706   0.172   2.199   3.867  0.1480  0.0451  0.1601
 4567TIP3    H113707   0.246   2.143   3.844 -0.7131 -1.1960  0.3116
 4567TIP3    H213708   0.171   2.200   3.963 -0.4862 -0.5812  0.1658
 4568TIP3   OH213709   3.691   0.292   2.954  0.4781 -0.2003  0.4806
 4568TIP3    H113710   3.704   0.256   2.866  0.2036  0.6895  0.0574
 4568TIP3    H213711   3.711   0.385   2.944 -0.6773  0.1301  1.0871
 4569TIP3   OH213712   1.189   0.525   4.556 -0.1071  0.2013 -0.2627
 4569TIP3    H113713   1.095   0.539   4.567  0.1047  0.8191  0.9237
 4569TIP3    H213714   1.226   0.614   4.551  0.2871 -0.0286 -2.0918
 4570TIP3   OH213715   2.667   1.871   2.849  0.4519  0.3008  0.4072
 4570TIP3    H113716   2.636   1.781   2.853  1.1899  0.0420  0.5905
 4570TIP3    H213717   2.666   1.902   2.939  0.8013  0.2538  0.4314
 4571TIP3   OH213718   4.755   1.823   4.012 -0.2556 -0.0077 -0.6087
 4571TIP3    H113719   4.796   1.894   4.061 -1.5091 -0.2057  0.8201
 4571TIP3    H213720   4.753   1.854   3.921 -1.4561  2.1482  0.0730
 4572TIP3   OH213721   4.322   0.611   2.020  0.2256 -0.1150  0.4257
 4572TIP3    H113722   4.313   0.565   2.103 -0.9011 -0.8330 -0.0604
 4572TIP3    H213723   4.394   0.672   2.033  0.3937 -0.5762  1.7573
 4573TIP3   OH213724   3.475   3.406   1.450 -0.0444 -0.0516 -0.2843
 4573TIP3    H113725   3.394   3.434   1.493  0.7365  1.9896 -0.0343
 4573TIP3    H213726   3.446   3.365   1.369 -1.3320  0.4120 -0.0868
 4574TIP3   OH213727   1.655   5.752   4.478  0.0176  0.2177 -0.0814
 4574TIP3    H113728   1.713   5.825   4.503  0.1394 -0.5247  1.9615
 4574TIP3    H213729   1.693   5.718   4.397  1.0077  1.2852 -0.0896
 4575TIP3   OH213730   6.005   4.278   2.979  1.1969  0.3611 -0.2345
 4575TIP3    H113731   6.093   4.301   3.008  0.7072  1.6927  0.2883
 4575TIP3    H213732   5.993   4.327   2.897  0.4729  1.3068  0.4077
 4576TIP3   OH213733   0.425   3.186   4.021  0.2830 -0.0625 -0.4067
 4576TIP3    H113734   0.493   3.138   4.068  0.6539 -0.1320 -1.0034
 4576TIP3    H213735   0.467   3.214   3.940 -0.0386  0.9372 -0.2473
 4577TIP3   OH213736   6.169   2.122   0.490  0.0122 -0.1455 -0.8094
 4577TIP3    H113737   6.222   2.042   0.487 -0.0070 -0.1398 -1.7756
 4577TIP3    H213738   6.163   2.144   0.583 -0.0012 -1.2842 -0.5256
 4578TIP3   OH213739   3.844   5.832   2.846  0.1611 -0.0729  0.1197
 4578TIP3    H113740   3.896   5.755   2.822 -0.8502 -1.3213  1.7355
 4578TIP3    H213741   3.832   5.879   2.764  0.7582 -1.6630 -0.9249
 4579TIP3   OH213742   3.548   4.967   5.073  0.5313  0.1641  0.1841
 4579TIP3    H113743   3.625   5.010   5.111  0.1536  0.5647  0.5151
 4579TIP3    H213744   3.541   4.884   5.121  1.5542 -0.5188 -0.8023
 4580TIP3   OH213745   1.361   2.970   2.499 -0.0658 -0.5085 -0.3419
 4580TIP3    H113746   1.362   2.880   2.531 -0.0514 -0.7232 -0.9413
 4580TIP3    H213747   1.416   3.018   2.562 -0.8005 -0.7342  0.4888
 4581TIP3   OH213748   3.167   5.557   2.746 -0.3445 -0.3262  0.0202
 4581TIP3    H113749   3.263   5.555   2.744 -0.2215  2.3693 -0.0034
 4581TIP3    H213750   3.142   5.605   2.667 -1.8073 -1.7625 -0.4447
 4582TIP3   OH213751   3.296   3.876   2.157 -0.2782 -0.1275 -0.7665
 4582TIP3    H113752   3.226   3.926   2.199 -0.5133  2.1611 -3.5759
 4582TIP3    H213753   3.252   3.827   2.087  0.6530 -0.0148 -1.4552
 4583TIP3   OH213754   1.603   5.834   0.873 -0.4827  0.0186  0.1316
 4583TIP3    H113755   1.534   5.866   0.931 -0.0419 -1.7232  1.7283
 4583TIP3    H213756   1.682   5.879   0.902 -0.5808  0.5352 -0.3831
 4584TIP3   OH213757   1.165   0.219   1.250  0.0423  0.5133  0.2502
 4584TIP3    H113758   1.109   0.273   1.195 -0.5607  0.5642  0.8943
 4584TIP3    H213759   1.201   0.153   1.191  1.3495  2.0057 -0.6993
 4585TIP3   OH213760   3.598   4.719   1.462 -0.5528 -0.0966  0.5703
 4585TIP3    H113761   3.533   4.680   1.521  1.0310  0.1132  2.5512
 4585TIP3    H213762   3.641   4.786   1.515 -1.2177  2.3774 -1.8586
 4586TIP3   OH213763   5.558   0.861   3.283  0.2199 -0.2115  0.1290
 4586TIP3    H113764   5.597   0.804   3.349 -0.3165  2.2707  2.7936
 4586TIP3    H213765   5.472   0.822   3.265  0.0607 -0.5203  1.5037
 4587TIP3   OH213766   3.589   4.922   0.509  0.7243 -0.5359  0.2137
 4587TIP3    H113767   3.591   5.011   0.476  0.6904  0.0570  1.7202
 4587TIP3    H213768   3.554   4.870   0.437  0.0328  0.7732 -0.4274
 4588TIP3   OH213769   5.018   5.387   1.245 -0.5327 -0.2187  0.2816
 4588TIP3    H113770   5.059   5.388   1.159  0.9946  0.9653  0.9648
 4588TIP3    H213771   4.944   5.327   1.236 -0.0857 -0.5458 -1.6851
 4589TIP3   OH213772   4.366   4.186   2.253  0.1733 -0.2304 -0.0102
 4589TIP3    H113773   4.409   4.109   2.216  3.7218  1.5842 -0.1079
 4589TIP3    H213774   4.328   4.230   2.178 -1.9626 -1.8108  0.0545
 4590TIP3   OH213775   6.307   0.254   3.531  0.1764  0.1202 -0.1823
 4590TIP3    H113776   6.348   0.248   3.444  0.9109  0.3054  0.1502
 4590TIP3    H213777   6.268   0.168   3.545 -1.8302  0.7142 -1.6108
 4591TIP3   OH213778   4.407   3.959   4.189  0.4069 -0.0562  0.0188
 4591TIP3    H113779   4.373   3.878   4.149  0.3308  0.8555 -1.8911
 4591TIP3    H213780   4.493   3.935   4.221 -0.2691 -1.3045  0.9967
 4592TIP3   OH213781   5.111   5.056   2.078  0.0703  0.2596 -0.2425
 4592TIP3    H113782   5.124   4.985   2.141  1.0374  1.0497  0.4713
 4592TIP3    H213783   5.146   5.022   1.996 -0.0056 -0.3024 -0.0464
 4593TIP3   OH213784   6.334   0.927   2.904 -0.2769 -0.1134 -0.6589
 4593TIP3    H113785   6.249   0.924   2.860 -0.5687 -0.8165 -0.0816
 4593TIP3    H213786   6.322   0.990   2.975 -0.1858  0.0967 -0.8288
 4594TIP3   OH213787   3.694   5.931   2.134 -0.2250 -0.3750 -0.2117
 4594TIP3    H113788   3.759   5.997   2.157  1.3886 -1.8134 -0.4656
 4594TIP3    H213789   3.611   5.968   2.165  0.5271  1.9538 -0.7390
 4595TIP3   OH213790   3.576   1.436   2.157  0.5218 -0.1093 -0.4035
 4595TIP3    H113791   3.506   1.501   2.163 -0.7686 -1.1202 -2.7678
 4595TIP3    H213792   3.657   1.487   2.150  0.1431  1.0869  2.5952
 4596TIP3   OH213793   5.168   3.758   0.138  0.2971  0.0607 -0.4030
 4596TIP3    H113794   5.134   3.847   0.128  2.1118  0.8259 -0.1310
 4596TIP3    H213795   5.163   3.741   0.232 -0.1198 -0.1565 -0.4640
 4597TIP3   OH213796   0.900   5.064   4.617  0.5245  1.1259  0.7078
 4597TIP3    H113797   0.943   4.999   4.561  1.3156  1.6159  0.7253
 4597TIP3    H213798   0.887   5.020   4.700 -1.9931 -0.1117 -0.2267
 4598TIP3   OH213799   3.915   5.163   3.269 -0.1350 -0.2481 -0.0948
 4598TIP3    H113800   3.857   5.211   3.210  1.4574  0.3491 -1.2674
 4598TIP3    H213801   3.894   5.196   3.356 -0.6838  0.8644 -0.6356
 4599TIP3   OH213802   1.473   2.009   4.924 -0.1224 -0.5733  0.5758
 4599TIP3    H113803   1.509   2.025   4.837 -1.5241 -0.7557 -0.0651
 4599TIP3    H213804   1.397   2.067   4.930  0.8275  0.5747  2.2914
 4600TIP3   OH213805   6.023   0.612   2.168 -0.4080  0.0696  0.2062
 4600TIP3    H113806   5.969   0.677   2.123 -2.1718 -0.6514  1.1855
 4600TIP3    H213807   6.104   0.609   2.118 -0.2124  3.0685  0.1624
 4601TIP3   OH213808   5.797   4.630   4.110 -0.1074 -0.0575  0.1414
 4601TIP3    H113809   5.823   4.549   4.065 -0.6283 -1.2597  1.8879
 4601TIP3    H213810   5.797   4.696   4.042  1.4138 -1.2953 -1.1496
 4602TIP3   OH213811   2.779   3.056   1.704  0.3246  0.7346 -0.9897
 4602TIP3    H113812   2.768   3.119   1.776  0.8361  0.4062 -0.6139
 4602TIP3    H213813   2.715   3.083   1.639 -0.3440  0.8721 -0.2941
 4603TIP3   OH213814   3.023   5.398   3.406  0.1833 -0.1388 -0.2263
 4603TIP3    H113815   3.093   5.460   3.385 -0.2157  0.0901 -0.9007
 4603TIP3    H213816   2.948   5.452   3.426 -0.3629 -0.3891 -1.4959
 4604TIP3   OH213817   5.827   0.846   2.658 -0.7891 -0.1265 -0.0810
 4604TIP3    H113818   5.878   0.768   2.680 -0.3312 -0.3678 -1.8493
 4604TIP3    H213819   5.860   0.913   2.719  0.7861 -0.6057 -0.3462
 4605TIP3   OH213820   2.718   5.293   4.718 -0.0299  0.6511 -0.2488
 4605TIP3    H113821   2.627   5.304   4.746 -0.5971 -2.3132 -0.5422
 4605TIP3    H213822   2.719   5.324   4.628 -1.1539 -0.4891 -0.6970
 4606TIP3   OH213823   4.448   1.056   0.852 -0.3398 -0.0563 -0.4130
 4606TIP3    H113824   4.472   0.964   0.862 -0.0421  0.1310  0.6510
 4606TIP3    H213825   4.376   1.069   0.914 -1.3800  0.0858 -1.5861
 4607TIP3   OH213826   5.727   3.294   2.502  0.1036 -0.1927 -0.0114
 4607TIP3    H113827   5.735   3.214   2.554 -1.0409 -0.0805  0.3504
 4607TIP3    H213828   5.743   3.365   2.564 -1.5689 -0.0452  0.2929
 4608TIP3   OH213829   3.977   5.814   2.537  0.3788 -0.3870 -0.5706
 4608TIP3    H113830   4.050   5.754   2.525  1.8350  1.0944  0.5248
 4608TIP3    H213831   4.017   5.900   2.546 -1.4785  0.4510  0.3581
 4609TIP3   OH213832   3.474   5.813   3.540 -0.1290  0.3447  0.7944
 4609TIP3    H113833   3.431   5.781   3.619 -1.3897  0.6230  0.2475
 4609TIP3    H213834   3.493   5.905   3.559 -0.4381  0.4134  0.7853
 4610TIP3   OH213835   3.049   4.217   1.064 -0.2982 -0.1388 -0.4182
 4610TIP3    H113836   2.972   4.256   1.107 -1.4551 -1.4294 -1.2588
 4610TIP3    H213837   3.046   4.125   1.089  2.6631  0.2446  1.9243
 4611TIP3   OH213838   1.049   3.829   0.473  0.4699 -0.2676  0.5529
 4611TIP3    H113839   1.125   3.808   0.527  1.3949 -0.0414 -0.6044
 4611TIP3    H213840   1.015   3.911   0.510 -0.7621 -1.6222  2.6156
 4612TIP3   OH213841   1.476   0.463   2.087  0.1055 -0.1152 -0.2295
 4612TIP3    H113842   1.537   0.392   2.108  2.0173  0.9399 -1.8650
 4612TIP3    H213843   1.395   0.419   2.063  0.1948 -1.5814  1.8817
 4613TIP3   OH213844   2.887   0.487   2.154 -0.2982 -0.1333 -0.0698
 4613TIP3    H113845   2.906   0.532   2.236  0.3158 -1.2972  0.4595
 4613TIP3    H213846   2.828   0.546   2.107 -0.0347  0.9094  0.8588
 4614TIP3   OH213847   4.681   0.851   0.681 -0.4610 -0.0511 -0.2155
 4614TIP3    H113848   4.723   0.772   0.715 -0.4461  0.5818  1.3031
 4614TIP3    H213849   4.590   0.826   0.669 -0.7532  0.0339  1.5253
 4615TIP3   OH213850   2.308   2.340   1.042  0.4377  0.4981  0.1739
 4615TIP3    H113851   2.371   2.402   1.005 -0.4899  1.6747  0.4821
 4615TIP3    H213852   2.242   2.395   1.084 -0.3010 -0.7199  0.6839
 4616TIP3   OH213853   4.110   5.687   2.295 -0.0100  0.1867 -0.2947
 4616TIP3    H113854   4.035   5.715   2.243 -0.4513 -0.0475  0.2093
 4616TIP3    H213855   4.141   5.767   2.338 -0.9406  0.0333  0.7220
 4617TIP3   OH213856   0.329   0.845   3.838  0.0950 -0.5337 -0.3542
 4617TIP3    H113857   0.254   0.786   3.845  2.1562 -3.3243  0.3054
 4617TIP3    H213858   0.356   0.859   3.929  0.0010  1.0182 -0.5455
 4618TIP3   OH213859   0.222   2.839   2.106  0.0447  0.1406 -0.4892
 4618TIP3    H113860   0.175   2.921   2.089 -0.4988  0.0927  0.7164
 4618TIP3    H213861   0.155   2.771   2.100  0.0383  0.0185  0.7057
 4619TIP3   OH213862   5.211   3.872   3.204  0.4385  0.0730  0.4971
 4619TIP3    H113863   5.124   3.876   3.243  0.8252 -0.1305  1.4060
 4619TIP3    H213864   5.233   3.963   3.184  0.0614  0.1332  0.3415
 4620TIP3   OH213865   4.285   5.924   2.374 -0.0442  0.2134 -0.7112
 4620TIP3    H113866   4.375   5.958   2.378 -0.4215  1.1627  0.1064
 4620TIP3    H213867   4.248   5.943   2.460 -1.1633  0.2062 -1.1691
 4621TIP3   OH213868   1.379   2.181   1.055 -0.1902 -0.0075 -0.8614
 4621TIP3    H113869   1.413   2.186   0.965  0.2771  1.1162 -0.6338
 4621TIP3    H213870   1.441   2.125   1.101 -0.6378 -0.8962 -1.3284
 4622TIP3   OH213871   0.875   0.576   1.471  0.4921 -0.6668 -0.1454
 4622TIP3    H113872   0.911   0.655   1.511 -0.5391  0.3051 -1.1165
 4622TIP3    H213873   0.915   0.504   1.521  2.8090  0.3821 -0.3761
 4623TIP3   OH213874   5.693   0.853   0.189  0.1627 -0.2610 -0.1023
 4623TIP3    H113875   5.709   0.876   0.281  0.6404 -2.1567  0.3328
 4623TIP3    H213876   5.606   0.813   0.189 -0.5108  1.1342 -0.7799
 4624TIP3   OH213877   5.259   5.639   4.551 -0.1119 -0.8589  0.3747
 4624TIP3    H113878   5.262   5.630   4.456  2.0368 -1.0413  0.4112
 4624TIP3    H213879   5.240   5.732   4.565  1.1908 -0.4535 -0.2986
 4625TIP3   OH213880   2.195   4.671   4.555 -0.6165 -0.2586  1.2411
 4625TIP3    H113881   2.238   4.753   4.531 -0.1466 -1.0134 -0.7687
 4625TIP3    H213882   2.101   4.688   4.543 -0.4810 -0.1638  0.2387
 4626TIP3   OH213883   0.181   2.770   3.054  0.5048  0.0914 -0.2539
 4626TIP3    H113884   0.104   2.746   3.004 -0.6206  0.0335  1.4097
 4626TIP3    H213885   0.210   2.688   3.094  0.9101  0.2609 -0.1959
 4627TIP3   OH213886   2.683   5.676   4.861  0.4162 -0.2860 -0.2588
 4627TIP3    H113887   2.737   5.647   4.788  0.4735  2.0046 -1.2083
 4627TIP3    H213888   2.598   5.697   4.821 -0.0822 -0.5904  0.6227
 4628TIP3   OH213889   0.879   3.696   4.763  0.1265  0.1390  0.5080
 4628TIP3    H113890   0.973   3.704   4.778 -0.1007  1.4990  1.3249
 4628TIP3    H213891   0.838   3.733   4.841 -1.0951  0.2570 -0.1518
 4629TIP3   OH213892   4.376   5.907   4.898  0.1377  0.1042  0.2809
 4629TIP3    H113893   4.457   5.881   4.941 -0.1701  0.0498  0.8381
 4629TIP3    H213894   4.374   5.857   4.817 -0.5350 -1.8239  1.4014
 4630TIP3   OH213895   0.974   4.727   4.956 -0.1236 -0.0716  0.1778
 4630TIP3    H113896   0.915   4.658   4.986 -1.1005  0.8336  0.4392
 4630TIP3    H213897   0.987   4.783   5.033  2.4995 -1.1605  0.6176
 4631TIP3   OH213898   4.669   2.426   1.498 -0.3859 -0.5012 -0.0036
 4631TIP3    H113899   4.621   2.437   1.416 -0.6450  0.6650  0.2838
 4631TIP3    H213900   4.648   2.504   1.549 -0.5245 -1.3627  1.3307
 4632TIP3   OH213901   0.615   2.507   0.069  0.0351 -0.3955 -0.0802
 4632TIP3    H113902   0.598   2.427   0.020 -0.2605 -0.0892 -0.4916
 4632TIP3    H213903   0.574   2.576   0.017  1.1910  0.1635 -0.2669
 4633TIP3   OH213904   2.476   1.499   0.761  0.3327 -0.5074 -0.1050
 4633TIP3    H113905   2.422   1.544   0.695  0.0209 -0.8996 -0.1190
 4633TIP3    H213906   2.511   1.570   0.814 -0.7526 -0.2673  0.3232
 4634TIP3   OH213907   1.763   5.411   2.658 -0.1784 -0.2491  0.0458
 4634TIP3    H113908   1.728   5.463   2.731 -1.8493 -1.1717 -0.0644
 4634TIP3    H213909   1.698   5.420   2.589  1.5570  0.9243 -1.5501
 4635TIP3   OH213910   3.540   4.342   0.233  0.6626  0.5064 -0.2451
 4635TIP3    H113911   3.505   4.302   0.313  4.9760 -0.7676  1.3105
 4635TIP3    H213912   3.546   4.435   0.253 -2.5498  0.9707 -1.0080
 4636TIP3   OH213913   0.057   1.279   1.889 -0.3822 -0.0785  0.3628
 4636TIP3    H113914   0.102   1.195   1.895 -1.4372 -0.6559  0.3545
 4636TIP3    H213915   0.035   1.288   1.796 -0.4726  0.0980  0.4012
 4637TIP3   OH213916   3.688   5.011   0.747 -0.0833 -0.0371 -0.7312
 4637TIP3    H113917   3.644   4.987   0.665  0.8555  1.1051 -1.5955
 4637TIP3    H213918   3.719   4.927   0.782 -2.0818 -0.7703 -0.5559
 4638TIP3   OH213919   0.371   3.199   2.493  0.6537 -0.1385 -0.0389
 4638TIP3    H113920   0.325   3.275   2.459  0.5695  0.0120  0.4030
 4638TIP3    H213921   0.316   3.125   2.470  0.2798  0.0228  0.3205
 4639TIP3   OH213922   5.624   5.253   3.350 -0.3562 -0.0998  0.4496
 4639TIP3    H113923   5.685   5.327   3.346 -1.4616  0.7927 -0.8623
 4639TIP3    H213924   5.680   5.176   3.343  0.8179  0.5883  1.7578
 4640TIP3   OH213925   3.059   4.062   4.384 -0.1332  0.3054  0.1808
 4640TIP3    H113926   3.120   3.998   4.348 -0.2495  1.6328 -2.6273
 4640TIP3    H213927   2.977   4.015   4.393 -0.2950  0.0499 -2.1257
 4641TIP3   OH213928   0.034   5.911   3.438 -0.1503  0.4075  0.4699
 4641TIP3    H113929   0.052   5.999   3.469  0.2355  0.4216  0.2114
 4641TIP3    H213930   0.088   5.855   3.493  0.0483  0.3797  0.2464
 4642TIP3   OH213931   2.385   2.967   4.379 -0.0120 -1.1922  0.0443
 4642TIP3    H113932   2.374   2.886   4.330  1.2976 -0.1638 -2.1065
 4642TIP3    H213933   2.460   2.951   4.436  0.0690 -1.5885 -0.1716
 4643TIP3   OH213934   0.130   1.191   0.767 -0.4823 -0.1931 -0.1735
 4643TIP3    H113935   0.153   1.169   0.857 -1.5913 -0.4325  0.0646
 4643TIP3    H213936   0.214   1.206   0.724  0.0993 -0.8324  0.7047
 4644TIP3   OH213937   2.381   3.377   3.374 -0.4292  0.5130  0.5596
 4644TIP3    H113938   2.439   3.452   3.366 -2.0670  1.8962  1.0769
 4644TIP3    H213939   2.314   3.390   3.307 -0.4443 -0.7693  0.2960
 4645TIP3   OH213940   5.081   3.424   2.007 -0.2358 -0.0256  0.5101
 4645TIP3    H113941   5.037   3.501   2.043 -0.0307  0.1489  0.3901
 4645TIP3    H213942   5.096   3.446   1.915  0.2934  0.0075  0.5986
 4646TIP3   OH213943   5.150   1.830   5.172  0.4631 -0.0008 -0.0069
 4646TIP3    H113944   5.160   1.736   5.185  1.1470  0.2372  1.3669
 4646TIP3    H213945   5.224   1.855   5.116  0.4851 -0.2219 -0.0763
 4647TIP3   OH213946   0.260   2.110   4.132  0.2880 -0.0448 -0.3101
 4647TIP3    H113947   0.286   2.183   4.188  1.6989 -1.6278  1.2330
 4647TIP3    H213948   0.192   2.064   4.181  1.2138 -1.1892 -0.0566
 4648TIP3   OH213949   2.494   0.619   4.374 -0.3637  0.1651  0.1538
 4648TIP3    H113950   2.550   0.686   4.334  0.2083 -0.0122  0.6523
 4648TIP3    H213951   2.554   0.548   4.396 -0.8252 -0.1234  0.4861
 4649TIP3   OH213952   3.142   3.540   4.526 -0.3027 -0.3298  0.4576
 4649TIP3    H113953   3.230   3.516   4.556 -0.3807 -1.0198  0.1541
 4649TIP3    H213954   3.127   3.483   4.450 -1.3107 -0.7564  0.9620
 4650TIP3   OH213955   0.899   5.638   2.415 -0.0458 -0.2321  0.4148
 4650TIP3    H113956   0.930   5.628   2.325 -0.8984  0.5570  0.0144
 4650TIP3    H213957   0.811   5.600   2.414 -0.0001 -0.3524  0.9455
 4651TIP3   OH213958   3.325   0.088   0.325  0.1995  0.0326  0.4230
 4651TIP3    H113959   3.350   0.136   0.404  1.0771  0.7033 -0.2396
 4651TIP3    H213960   3.387   0.015   0.321  0.2237  0.0593  0.3038
 4652TIP3   OH213961   4.330   4.768   2.515 -0.3313  0.3042 -0.8298
 4652TIP3    H113962   4.395   4.806   2.456 -1.3571 -0.2640 -2.4176
 4652TIP3    H213963   4.297   4.691   2.467  0.1060 -1.3177  1.3130
 4653TIP3   OH213964   0.657   2.369   1.684  0.3334 -0.3814 -0.4931
 4653TIP3    H113965   0.677   2.298   1.623  2.1223 -0.1684 -0.2133
 4653TIP3    H213966   0.704   2.345   1.764 -1.6727 -0.4706  0.7112
 4654TIP3   OH213967   4.286   0.402   4.352  0.2797  0.6210 -0.0897
 4654TIP3    H113968   4.338   0.457   4.292  0.0181 -0.0243 -0.9307
 4654TIP3    H213969   4.287   0.316   4.312 -1.4811  0.6004 -0.1605
 4655TIP3   OH213970   1.423   3.279   4.893  0.2206  0.0586 -0.2648
 4655TIP3    H113971   1.394   3.296   4.982  1.2709 -0.7533  0.2502
 4655TIP3    H213972   1.519   3.275   4.899  0.2934 -0.2012 -1.3829
 4656TIP3   OH213973   5.095   0.323   1.048 -0.2728  0.3456 -0.0801
 4656TIP3    H113974   5.175   0.365   1.017  0.0795 -0.5610 -0.4487
 4656TIP3    H213975   5.030   0.393   1.049  0.5707  1.1414  0.4147
 4657TIP3   OH213976   1.164   1.337   3.982 -0.5434  0.6720  0.3045
 4657TIP3    H113977   1.154   1.276   3.909 -0.9289 -1.2371  1.8449
 4657TIP3    H213978   1.258   1.353   3.987 -0.5027  0.7494 -0.5136
 4658TIP3   OH213979   2.156   4.044   1.174  0.3434 -0.1141 -0.1973
 4658TIP3    H113980   2.226   3.998   1.221 -0.3012  1.2576  2.3123
 4658TIP3    H213981   2.198   4.121   1.137  0.6737 -0.7416 -1.1808
 4659TIP3   OH213982   5.530   4.401   4.720  0.3691  0.0323 -0.2582
 4659TIP3    H113983   5.519   4.310   4.749  0.1935  0.1916  0.1824
 4659TIP3    H213984   5.509   4.453   4.797  0.4335  0.4501 -0.5216
 4660TIP3   OH213985   5.860   1.133   4.475  0.3412 -0.2402 -0.1067
 4660TIP3    H113986   5.874   1.132   4.381  1.6324  1.1790  0.0258
 4660TIP3    H213987   5.849   1.040   4.499 -1.1326 -0.5279 -1.7599
 4661TIP3   OH213988   3.459   1.685   3.200  0.1755  0.0985  0.4065
 4661TIP3    H113989   3.502   1.601   3.181 -0.4065  0.1184 -1.0765
 4661TIP3    H213990   3.435   1.678   3.293  3.4214  0.1241  1.4065
 4662TIP3   OH213991   0.057   1.189   4.377 -0.1620  0.6074 -0.0872
 4662TIP3    H113992   0.125   1.151   4.322 -0.2540  0.2272  0.0609
 4662TIP3    H213993  -0.019   1.132   4.366 -0.1520  0.4734  0.5054
 4663TIP3   OH213994   0.555   0.466  -0.003  0.0210 -0.2719  0.4171
 4663TIP3    H113995   0.523   0.543   0.043 -1.2432  0.2521 -1.2697
 4663TIP3    H213996   0.520   0.391   0.046 -0.3501  0.2421  0.9384
 4664TIP3   OH213997   5.300   1.096   4.169 -0.5381  0.1299 -0.0484
 4664TIP3    H113998   5.259   1.173   4.131 -0.5672  0.1491  0.0211
 4664TIP3    H213999   5.392   1.101   4.141 -0.9980 -0.9999 -1.9276
 4665TIP3   OH214000   2.669   2.385   2.180 -0.0263 -0.8648  0.6382
 4665TIP3    H114001   2.589   2.359   2.134  1.9455 -2.3913 -2.2088
 4665TIP3    H214002   2.710   2.451   2.124  0.9002 -0.2984  1.9033
 4666TIP3   OH214003   5.772   0.872   0.458 -0.1684 -0.2211  0.1920
 4666TIP3    H114004   5.831   0.944   0.480  0.9351 -0.6143 -1.2759
 4666TIP3    H214005   5.830   0.796   0.448 -1.0284 -0.8155 -0.4440
 4667TIP3   OH214006   5.471   1.082   3.137  0.3547  0.1251  0.0629
 4667TIP3    H114007   5.474   1.012   3.202 -1.7722 -0.1035 -0.0236
 4667TIP3    H214008   5.505   1.041   3.057  0.1332 -0.4817  0.2749
 4668TIP3   OH214009   3.108   1.518   4.350  0.2386 -0.1312  0.1509
 4668TIP3    H114010   3.076   1.606   4.332  0.0424  0.1300  1.6594
 4668TIP3    H214011   3.147   1.489   4.267  1.5417  1.8815 -0.0111
 4669TIP3   OH214012   5.532   0.170   3.106  0.1059 -0.0978 -0.6340
 4669TIP3    H114013   5.562   0.198   3.192 -1.6238 -1.6940  0.5698
 4669TIP3    H214014   5.463   0.106   3.124  0.6512 -1.5560 -3.1959
 4670TIP3   OH214015   1.748   0.685   3.444  0.4851  0.2440 -0.1930
 4670TIP3    H114016   1.795   0.644   3.516  0.0322 -2.0003 -1.0924
 4670TIP3    H214017   1.773   0.778   3.449  2.6928 -0.3411  1.0869
 4671TIP3   OH214018   3.598   0.040   3.044 -0.4160 -1.2312 -0.2205
 4671TIP3    H114019   3.610   0.036   3.139  0.5897 -0.1038 -0.2670
 4671TIP3    H214020   3.639   0.123   3.019  0.4858 -2.1068 -1.7999
 4672TIP3   OH214021   5.698   1.164   3.299  0.5653 -0.2241  0.2318
 4672TIP3    H114022   5.623   1.150   3.241  1.6606 -1.4428 -0.9607
 4672TIP3    H214023   5.659   1.171   3.386 -1.0221  0.3739 -0.4815
 4673TIP3   OH214024   0.430   3.752   3.601 -0.2791 -0.2687  0.2107
 4673TIP3    H114025   0.456   3.679   3.657 -1.0418 -1.0991 -0.4876
 4673TIP3    H214026   0.343   3.778   3.634 -1.8059 -2.2684 -1.9319
 4674TIP3   OH214027   5.023   1.582   1.760  0.0243  0.2055  0.3609
 4674TIP3    H114028   5.045   1.673   1.779  0.3954  0.3361 -0.6347
 4674TIP3    H214029   4.932   1.585   1.730 -0.4780  0.0321  1.8095
 4675TIP3   OH214030   0.131   4.630   4.397  0.1206 -0.1309 -0.0567
 4675TIP3    H114031   0.212   4.651   4.443  0.8628 -0.2116 -1.2874
 4675TIP3    H214032   0.123   4.534   4.405  1.3645 -0.4189 -1.8301
 4676TIP3   OH214033   4.342   0.492   1.591 -0.2955 -0.0595  0.2526
 4676TIP3    H114034   4.427   0.479   1.632 -1.0420  0.6457  2.1147
 4676TIP3    H214035   4.326   0.586   1.595 -1.9669 -0.3367  1.7568
 4677TIP3   OH214036   4.828   5.982   1.042  0.1432  0.1767 -0.3423
 4677TIP3    H114037   4.755   5.926   1.068  0.4920 -0.6882 -1.1723
 4677TIP3    H214038   4.787   6.053   0.991 -0.2724  0.5602  0.5078
 4678TIP3   OH214039   1.296   2.005   4.411 -0.3200 -0.1169  0.2424
 4678TIP3    H114040   1.219   2.054   4.438 -1.2606 -0.1810 -2.1301
 4678TIP3    H214041   1.274   1.913   4.429  0.1511  0.0149  1.6455
 4679TIP3   OH214042   0.358   4.739   1.996 -0.3446  0.1525 -0.2758
 4679TIP3    H114043   0.382   4.814   1.941 -1.3793  1.2009  0.6652
 4679TIP3    H214044   0.441   4.695   2.013  0.4068  1.5564 -0.1678
 4680TIP3   OH214045   0.533   3.431   2.939  0.7513 -0.3073  0.0793
 4680TIP3    H114046   0.489   3.349   2.959  1.6573 -0.9255 -0.3711
 4680TIP3    H214047   0.601   3.407   2.875 -0.1514  1.0811 -1.4929
 4681TIP3   OH214048   4.581   4.535   4.750  0.5934 -0.1322  0.0348
 4681TIP3    H114049   4.637   4.611   4.759  1.1246 -0.1241 -2.5781
 4681TIP3    H214050   4.583   4.514   4.656 -2.1647 -1.3467  0.1412
 4682TIP3   OH214051   2.862   3.069   1.250 -0.3785 -0.1454 -0.2445
 4682TIP3    H114052   2.949   3.078   1.211 -0.4256  1.3408 -0.0702
 4682TIP3    H214053   2.811   3.021   1.185  0.9007 -2.2335  0.2111
 4683TIP3   OH214054   4.659   3.633   0.108  0.0941 -0.2362  0.6651
 4683TIP3    H114055   4.636   3.599   0.194 -1.3352 -0.8138  0.0792
 4683TIP3    H214056   4.696   3.559   0.062 -0.7908 -0.4036  0.2000
 4684TIP3   OH214057   5.099   3.622   1.420 -0.3468 -0.0868  0.5919
 4684TIP3    H114058   5.183   3.654   1.388  1.0551 -0.9235  3.1486
 4684TIP3    H214059   5.098   3.645   1.513 -2.8798 -0.2819  0.6953
 4685TIP3   OH214060   3.458   2.471   0.457 -0.0996 -0.1794  0.3068
 4685TIP3    H114061   3.492   2.541   0.402  0.1301 -1.4126 -1.1826
 4685TIP3    H214062   3.534   2.417   0.477 -0.2822 -0.0494  1.4073
 4686TIP3   OH214063   6.207   0.433   1.270 -0.0547  0.1299 -0.6296
 4686TIP3    H114064   6.266   0.359   1.257 -1.2189 -1.4020  2.0481
 4686TIP3    H214065   6.120   0.394   1.280 -0.5927  1.7174  1.6604
 4687TIP3   OH214066   5.983   0.752   4.318  0.0906 -0.2018 -0.0255
 4687TIP3    H114067   5.914   0.687   4.327 -1.4129  1.3491  0.0871
 4687TIP3    H214068   6.064   0.700   4.313 -0.9158 -2.0034  1.2745
 4688TIP3   OH214069   5.492   5.887   3.105  0.4054  0.3974  1.0076
 4688TIP3    H114070   5.508   5.930   3.021 -1.5541 -0.0103  0.3667
 4688TIP3    H214071   5.519   5.950   3.171 -1.5628  2.3390  0.0880
 4689TIP3   OH214072   3.338   5.096   2.105 -0.0461  0.4182 -0.0367
 4689TIP3    H114073   3.397   5.089   2.029 -1.3856  1.2254 -1.1928
 4689TIP3    H214074   3.370   5.172   2.153 -0.8897  1.6764 -1.3845
 4690TIP3   OH214075   1.969   3.055   4.229  0.2516 -0.6515 -0.5715
 4690TIP3    H114076   1.882   3.074   4.192 -0.5924  0.1871  1.6574
 4690TIP3    H214077   2.010   3.141   4.237  0.4718 -0.8194  0.2118
 4691TIP3   OH214078   3.457   5.867   2.526  1.0446 -0.3410 -0.1922
 4691TIP3    H114079   3.545   5.864   2.490  1.2065  3.6172 -0.5802
 4691TIP3    H214080   3.467   5.906   2.613 -0.2499 -0.0423 -0.1443
 4692TIP3   OH214081   1.933   3.723   0.440 -0.4923 -0.5774  0.1041
 4692TIP3    H114082   1.875   3.767   0.378 -1.5572 -1.2147  0.6191
 4692TIP3    H214083   1.980   3.795   0.484 -0.1054 -0.1034 -1.0513
 4693TIP3   OH214084   0.009   4.118   3.574 -0.1019  0.7082  0.2188
 4693TIP3    H114085  -0.031   4.059   3.638  1.1338 -0.0042  0.3628
 4693TIP3    H214086   0.072   4.170   3.625  1.2506 -0.2067 -0.4607
 4694TIP3   OH214087   4.537   4.260   0.937  0.2796 -0.0273  0.1551
 4694TIP3    H114088   4.485   4.324   0.986  1.9390  1.9395 -0.4906
 4694TIP3    H214089   4.473   4.201   0.898 -1.5642  2.6495 -1.1738
 4695TIP3   OH214090   0.102   0.696   3.877 -0.6018 -0.3037  0.6835
 4695TIP3    H114091   0.041   0.657   3.816 -0.1792 -0.1653  0.1604
 4695TIP3    H214092   0.047   0.729   3.949 -1.2940  1.0266 -0.4117
 4696TIP3   OH214093   0.959   4.182   3.780 -0.7514 -0.4956 -0.4134
 4696TIP3    H114094   1.010   4.106   3.751 -0.1646 -0.7418  1.1521
 4696TIP3    H214095   0.875   4.174   3.736 -0.6152 -1.9434 -0.4323
 4697TIP3   OH214096   0.242   4.915   0.640 -0.1191  0.3123  0.0586
 4697TIP3    H114097   0.301   4.988   0.626 -1.2791  1.1059 -0.9358
 4697TIP3    H214098   0.267   4.850   0.575  1.7082 -0.7539  1.7292
 4698TIP3   OH214099   0.038   3.532   4.902  0.3366  0.1064  0.1175
 4698TIP3    H114100   0.020   3.593   4.974  3.3627 -0.0130  1.1220
 4698TIP3    H214101   0.031   3.445   4.942 -1.9748 -0.2100 -0.8213
 4699TIP3   OH214102   2.739   3.962   1.755  0.4535  0.0646  0.0805
 4699TIP3    H114103   2.802   3.964   1.827  0.8025  0.9977 -0.2379
 4699TIP3    H214104   2.789   3.990   1.678 -0.3826  1.0139 -0.1401
 4700TIP3   OH214105   2.862   4.740   0.842  0.7633  0.2944 -0.1798
 4700TIP3    H114106   2.767   4.731   0.851  0.8383 -0.6266 -0.2738
 4700TIP3    H214107   2.888   4.796   0.915  0.3589 -0.8120  0.8340
 4701TIP3   OH214108   1.399   4.345   1.787  0.2413 -0.3183 -0.3410
 4701TIP3    H114109   1.402   4.365   1.693 -0.5081  0.4081 -0.2252
 4701TIP3    H214110   1.356   4.260   1.792  0.0563 -0.2431 -0.6373
 4702TIP3   OH214111   2.096   3.970   4.518  0.2133 -0.7849 -0.1871
 4702TIP3    H114112   2.190   3.983   4.530  0.2434 -0.9916 -0.1836
 4702TIP3    H214113   2.089   3.879   4.489 -0.2185 -1.8400  2.9012
 4703TIP3   OH214114   2.119   3.899   4.109 -0.3877 -0.1805  0.2181
 4703TIP3    H114115   2.096   3.878   4.199  0.9129 -0.0413  0.5952
 4703TIP3    H214116   2.100   3.993   4.101 -1.8493 -0.4782 -0.1022
 4704TIP3   OH214117   5.063   2.485   3.314  0.7007 -0.0713 -0.2089
 4704TIP3    H114118   4.996   2.500   3.247  0.0989 -0.3810  0.3035
 4704TIP3    H214119   5.072   2.569   3.359  0.6671 -0.0235 -0.2914
 4705TIP3   OH214120   5.864   1.735   3.638  0.1714 -0.5535  0.2452
 4705TIP3    H114121   5.910   1.737   3.555 -1.7378 -1.4922 -0.9184
 4705TIP3    H214122   5.771   1.729   3.614 -0.8920  3.4435  2.3588
 4706TIP3   OH214123   2.538   4.907   4.641 -0.7044 -0.1040  0.0038
 4706TIP3    H114124   2.530   4.827   4.693 -3.2566  0.8462  1.2400
 4706TIP3    H214125   2.621   4.945   4.670 -0.1839 -1.5256  0.5024
 4707TIP3   OH214126   0.997   1.402   3.405  0.2032  0.0216  0.0233
 4707TIP3    H114127   0.976   1.391   3.498  0.5921 -0.7766  0.0268
 4707TIP3    H214128   0.978   1.317   3.366  0.4083  0.2386 -0.5542
 4708TIP3   OH214129   4.067   0.091   2.539  0.4702 -0.0323 -0.4108
 4708TIP3    H114130   4.122   0.037   2.594  0.1074  0.6209  0.6358
 4708TIP3    H214131   4.038   0.162   2.597 -0.7742  0.0982 -1.1520
 4709TIP3   OH214132   0.554   3.832   4.807 -0.1695 -0.0222 -0.7600
 4709TIP3    H114133   0.532   3.893   4.736 -1.7205 -1.6352 -1.7454
 4709TIP3    H214134   0.644   3.854   4.831 -0.2261  1.7387 -2.0011
 4710TIP3   OH214135   0.497   4.820   0.954 -0.2887  0.0243  0.2869
 4710TIP3    H114136   0.579   4.844   0.912 -0.8873  0.7881 -0.4739
 4710TIP3    H214137   0.495   4.874   1.033 -0.9056  1.4110 -0.6367
 4711TIP3   OH214138   0.402   1.612   2.344  0.0358  0.3243  0.0486
 4711TIP3    H114139   0.394   1.532   2.396  0.5602  0.2946  0.0861
 4711TIP3    H214140   0.416   1.682   2.408  1.7924  0.1349 -0.0960
 4712TIP3   OH214141   5.306   2.825   4.437  0.1845 -0.6533 -0.2218
 4712TIP3    H114142   5.306   2.870   4.352  1.8400  2.2224  1.1245
 4712TIP3    H214143   5.396   2.834   4.468 -0.9068  0.8273  2.9515
 4713TIP3   OH214144   3.939   3.801   4.253  0.3804  0.3641  0.6058
 4713TIP3    H114145   3.844   3.789   4.264  0.2971  1.3441  1.1092
 4713TIP3    H214146   3.971   3.716   4.223 -0.6806  0.0639  0.2855
 4714TIP3   OH214147   4.797   1.395   4.354  0.3652  0.3108 -0.4998
 4714TIP3    H114148   4.801   1.395   4.259  1.9220 -0.8156 -0.4769
 4714TIP3    H214149   4.803   1.487   4.379  2.1360  0.5006 -1.4653
 4715TIP3   OH214150   2.528   4.543   0.362 -0.2926  0.3857  0.2253
 4715TIP3    H114151   2.523   4.636   0.339 -0.4977 -0.3793 -3.6124
 4715TIP3    H214152   2.612   4.514   0.325 -1.4475 -1.4238 -1.1330
 4716TIP3   OH214153   0.438   3.271   3.533  0.6778  0.0467  0.0616
 4716TIP3    H114154   0.486   3.259   3.615 -0.8502  0.0225  1.0005
 4716TIP3    H214155   0.418   3.182   3.504  2.3910 -0.0047 -1.1173
 4717TIP3   OH214156   6.065   4.644   4.223  0.2545 -0.4493  0.3660
 4717TIP3    H114157   5.995   4.594   4.181  0.8247 -0.7321 -0.2799
 4717TIP3    H214158   6.049   4.635   4.316 -0.2019 -1.0415  0.2363
 4718TIP3   OH214159   0.814   2.871   1.674 -0.2807  0.1561  0.0149
 4718TIP3    H114160   0.723   2.892   1.653 -0.0525  1.7400  0.4609
 4718TIP3    H214161   0.840   2.937   1.738  1.6901  0.8251 -1.3608
 4719TIP3   OH214162   0.486   0.066   1.531  0.2825 -0.1455  0.2583
 4719TIP3    H114163   0.445   0.116   1.601 -1.4172  1.0271 -1.4680
 4719TIP3    H214164   0.572   0.106   1.520 -0.5004  1.5302 -0.1224
 4720TIP3   OH214165   3.130   4.833   0.259 -0.3093  0.5100  0.7542
 4720TIP3    H114166   3.115   4.745   0.294  0.7044  0.8305  2.0951
 4720TIP3    H214167   3.149   4.820   0.166 -0.8003 -0.6148  0.8023
 4721TIP3   OH214168   3.509   0.229   4.524  0.0145 -0.7778  0.0978
 4721TIP3    H114169   3.457   0.173   4.467  2.7121 -1.1014 -2.3001
 4721TIP3    H214170   3.506   0.315   4.481  2.3160 -1.0904 -0.7963
 4722TIP3   OH214171   5.489   0.860   4.607  0.4269  0.1226 -0.8693
 4722TIP3    H114172   5.442   0.884   4.686  1.8772  2.2748 -0.5841
 4722TIP3    H214173   5.438   0.900   4.536  0.3003  0.0234 -0.8356
 4723TIP3   OH214174   1.518   3.428   1.911 -0.4167 -0.0934 -0.0540
 4723TIP3    H114175   1.446   3.369   1.934 -1.0442 -0.5091 -2.7450
 4723TIP3    H214176   1.478   3.492   1.852  1.4765 -0.6243 -2.0322
 4724TIP3   OH214177   0.683   2.110   1.598  0.1555 -0.1470 -0.5114
 4724TIP3    H114178   0.724   2.031   1.561  2.0482  0.8530 -0.6815
 4724TIP3    H214179   0.653   2.083   1.685 -0.9428 -1.5234 -1.2680
 4725TIP3   OH214180   0.823   3.679   4.170  0.7421  0.1351  0.4455
 4725TIP3    H114181   0.916   3.677   4.147  0.4640 -0.1493 -0.6921
 4725TIP3    H214182   0.810   3.766   4.208  1.6182 -0.0863  1.3001
 4726TIP3   OH214183   4.364   5.714   2.169 -0.5407 -0.2477  0.5051
 4726TIP3    H114184   4.444   5.723   2.221 -1.3661 -0.9628  1.9616
 4726TIP3    H214185   4.302   5.670   2.227 -0.6698 -3.7250 -1.9496
 4727TIP3   OH214186   2.030   3.653   3.370 -0.5391 -0.5800  0.5080
 4727TIP3    H114187   2.099   3.720   3.371 -1.0717 -0.0190  0.9821
 4727TIP3    H214188   1.989   3.661   3.284  0.4345 -1.3969 -0.0446
 4728TIP3   OH214189   1.655   2.682   4.894 -0.0267 -0.3920 -0.1228
 4728TIP3    H114190   1.712   2.716   4.963  0.4421 -1.2629 -0.0641
 4728TIP3    H214191   1.569   2.720   4.912  0.0722 -0.6625  0.9845
 4729TIP3   OH214192   0.381   1.552   1.354  0.6274 -0.2192  0.4978
 4729TIP3    H114193   0.367   1.647   1.353  0.8727 -0.1821  0.4525
 4729TIP3    H214194   0.459   1.540   1.409  1.7366 -0.2378 -1.0075
 4730TIP3   OH214195   1.248   1.816   4.882  0.2420  0.0040 -0.2079
 4730TIP3    H114196   1.272   1.725   4.897  1.8804 -0.0071 -2.4286
 4730TIP3    H214197   1.327   1.866   4.907 -1.0593  1.0111  2.2365
 4731TIP3   OH214198   4.127   5.495   0.193 -0.6321  0.2882 -0.3735
 4731TIP3    H114199   4.144   5.407   0.160  0.3470 -0.2429  1.4160
 4731TIP3    H214200   4.088   5.482   0.280 -0.6736  1.6203 -0.1601
 4732TIP3   OH214201   5.187   1.911   0.931  0.3588  0.0929  0.2427
 4732TIP3    H114202   5.216   1.977   0.868 -1.7273  1.3789  0.5149
 4732TIP3    H214203   5.156   1.838   0.877 -0.0106  0.5531 -0.1757
 4733TIP3   OH214204   5.711   3.340   3.180 -0.1227 -0.1153 -0.1393
 4733TIP3    H114205   5.753   3.374   3.102 -1.5023  0.7594 -0.5463
 4733TIP3    H214206   5.643   3.404   3.201 -1.7685 -1.8152  0.0086
 4734TIP3   OH214207   2.256   1.251   3.711 -0.1893  0.1159 -0.1300
 4734TIP3    H114208   2.283   1.307   3.639 -0.1801 -1.4140 -1.3738
 4734TIP3    H214209   2.217   1.311   3.775 -0.1876  1.5152 -1.3881
 4735TIP3   OH214210   4.958   1.061   2.758  0.2297  0.1917  0.1719
 4735TIP3    H114211   5.051   1.047   2.743  0.2018  0.3508 -0.1453
 4735TIP3    H214212   4.918   0.975   2.743 -0.2914  0.9713 -4.3504
 4736TIP3   OH214213   0.540   4.605   0.145  0.5371 -0.2243 -0.0013
 4736TIP3    H114214   0.543   4.699   0.163 -1.2345 -0.4275  1.6509
 4736TIP3    H214215   0.552   4.599   0.050  0.3608  1.6727 -0.1931
 4737TIP3   OH214216   1.662   2.567   3.948  0.0244 -0.5519 -0.0434
 4737TIP3    H114217   1.705   2.511   4.012  0.0044  0.0575  0.5093
 4737TIP3    H214218   1.720   2.642   3.938 -0.4131 -0.2056 -0.0470
 4738TIP3   OH214219   4.966   4.429   0.126 -0.0074 -0.0984 -0.1421
 4738TIP3    H114220   5.055   4.447   0.097  0.6326  0.2924  1.9214
 4738TIP3    H214221   4.945   4.344   0.086  1.0109  0.1052 -1.1861
 4739TIP3   OH214222   1.113   1.740   3.067 -0.0784 -0.4816 -0.0386
 4739TIP3    H114223   1.190   1.683   3.054  1.0550  0.7866  0.8422
 4739TIP3    H214224   1.085   1.722   3.157 -0.1938 -0.2118 -0.0211
 4740TIP3   OH214225   5.451   2.079   3.285 -0.0508 -0.3018 -0.3246
 4740TIP3    H114226   5.449   2.037   3.199 -2.3919 -2.2494  0.5562
 4740TIP3    H214227   5.405   2.162   3.273  0.1387 -0.2931 -1.0414
 4741TIP3   OH214228   3.908   4.287   3.471  0.1455  0.1288 -0.5650
 4741TIP3    H114229   3.966   4.214   3.491 -1.0344 -0.5868  0.4253
 4741TIP3    H214230   3.921   4.304   3.377  0.3224 -1.4795 -0.8555
 4742TIP3   OH214231   2.342   5.359   2.321  0.5660 -0.0027 -0.1061
 4742TIP3    H114232   2.373   5.449   2.307  0.9621 -0.4307 -2.4576
 4742TIP3    H214233   2.422   5.307   2.329  0.3529 -0.2990  0.1189
 4743TIP3   OH214234   5.261   5.839   2.775  0.5974  0.1071  0.5024
 4743TIP3    H114235   5.286   5.750   2.801  0.7229  0.3326  1.1755
 4743TIP3    H214236   5.258   5.836   2.680  1.4506 -0.3950  0.4808
 4744TIP3   OH214237   1.863   0.616   3.697 -0.9756 -0.3661  0.0756
 4744TIP3    H114238   1.798   0.682   3.720 -0.4139 -0.2128  1.2794
 4744TIP3    H214239   1.947   0.654   3.724 -0.6653 -1.6483  1.0271
 4745TIP3   OH214240   0.540   2.830   1.285 -0.0862 -0.2902 -0.0769
 4745TIP3    H114241   0.617   2.835   1.343 -0.5827 -3.9172  1.1004
 4745TIP3    H214242   0.469   2.869   1.336 -0.3688 -2.8562  1.6760
 4746TIP3   OH214243   2.711   4.493   2.589  0.4000 -0.6982  0.4242
 4746TIP3    H114244   2.656   4.435   2.537  0.8641 -0.8696  0.1249
 4746TIP3    H214245   2.715   4.452   2.675  0.0238 -0.6589  0.4647
 4747TIP3   OH214246   2.514   4.701   3.536  0.2148  0.4197  0.1954
 4747TIP3    H114247   2.600   4.684   3.498 -0.1414 -1.0844 -0.0040
 4747TIP3    H214248   2.481   4.615   3.559 -1.8973  0.7819 -1.1671
 4748TIP3   OH214249   2.328   1.902   2.548 -0.1170  0.1358 -0.3188
 4748TIP3    H114250   2.415   1.915   2.510 -0.4441  2.5375 -0.3876
 4748TIP3    H214251   2.305   1.812   2.524  1.5596  0.0689 -1.9101
 4749TIP3   OH214252   2.792   3.014   2.216  0.4938  0.1833  0.0816
 4749TIP3    H114253   2.782   2.926   2.251  1.6113 -0.6289 -1.5198
 4749TIP3    H214254   2.841   3.002   2.134  0.0810  2.2165 -0.5194
 4750TIP3   OH214255   1.750   0.329   2.846  0.7482  1.0609  0.0490
 4750TIP3    H114256   1.790   0.244   2.828  0.3989  1.0156 -0.5609
 4750TIP3    H214257   1.664   0.324   2.803 -0.5671  0.6053  2.5617
 4751TIP3   OH214258   2.342   1.662   3.628  0.1034  0.3167 -0.2039
 4751TIP3    H114259   2.422   1.706   3.600  0.6877 -0.4397  0.2504
 4751TIP3    H214260   2.349   1.659   3.723 -1.4541  2.0960  0.0288
 4752TIP3   OH214261   0.048   2.689   4.309 -0.0268  0.4346 -0.1019
 4752TIP3    H114262   0.001   2.676   4.226 -1.4941 -0.4964  0.8357
 4752TIP3    H214263  -0.017   2.728   4.367  1.2845  2.0537  0.3371
 4753TIP3   OH214264   1.648   4.297   2.266  0.8842 -0.1606  0.0836
 4753TIP3    H114265   1.654   4.238   2.191  1.1731 -0.4727  0.3467
 4753TIP3    H214266   1.735   4.335   2.273  1.0556 -0.6368  0.6576
 4754TIP3   OH214267   5.755   2.067   1.565 -0.1240  0.1250 -0.5543
 4754TIP3    H114268   5.748   2.162   1.561 -0.4907  0.1466  0.3450
 4754TIP3    H214269   5.758   2.039   1.474 -0.8194  0.9504 -0.8432
 4755TIP3   OH214270   3.066   5.470   3.745  0.2860  0.3316 -0.0538
 4755TIP3    H114271   3.094   5.472   3.837 -0.7903  0.1718  0.2966
 4755TIP3    H214272   2.970   5.471   3.750  0.2138  1.6469 -1.2050
 4756TIP3   OH214273   2.113   0.796   1.876 -0.0657 -0.1286 -1.2194
 4756TIP3    H114274   2.138   0.872   1.929 -0.3373 -0.9903  0.1998
 4756TIP3    H214275   2.185   0.785   1.814 -0.6014  2.0331 -2.3344
 4757TIP3   OH214276   4.891   4.813   3.896 -0.0955  0.1059 -0.1673
 4757TIP3    H114277   4.907   4.720   3.907  1.4099  0.1900 -1.3846
 4757TIP3    H214278   4.870   4.845   3.984 -0.7492 -1.3777  0.2388
 4758TIP3   OH214279   4.108   4.397   4.096 -0.2083  0.5096  0.2257
 4758TIP3    H114280   4.116   4.384   4.001 -0.6056 -1.5578  0.4259
 4758TIP3    H214281   4.111   4.492   4.107  0.6329  0.7774 -1.7752
 4759TIP3   OH214282   5.342   1.275   0.421  0.1896  0.4314 -0.3287
 4759TIP3    H114283   5.273   1.333   0.452  1.2496  0.5436  2.0062
 4759TIP3    H214284   5.341   1.201   0.480  2.6347  0.8851  0.4174
 4760TIP3   OH214285   0.923   2.434   0.629  0.4474  0.3424 -0.3003
 4760TIP3    H114286   0.947   2.507   0.572  0.5083  0.5733  0.0206
 4760TIP3    H214287   0.979   2.362   0.600  1.0062  0.6687 -0.0458
 4761TIP3   OH214288   0.254   5.649   2.316  0.3290 -0.1052 -0.3573
 4761TIP3    H114289   0.219   5.566   2.282 -0.0810 -0.4941  0.9334
 4761TIP3    H214290   0.178   5.707   2.320  0.3369 -0.1182  0.0257
 4762TIP3   OH214291   4.030   5.806   4.570 -0.4452 -0.0066  0.2138
 4762TIP3    H114292   4.067   5.881   4.616 -1.3425  0.2487  0.5377
 4762TIP3    H214293   4.067   5.730   4.615  1.0199  0.2047 -0.5499
 4763TIP3   OH214294   4.397   1.019   2.356 -0.0841 -0.1193 -0.4405
 4763TIP3    H114295   4.332   1.045   2.291 -2.7719 -2.6873  0.9616
 4763TIP3    H214296   4.375   1.070   2.434 -0.2183 -0.7280 -0.0715
 4764TIP3   OH214297   2.930   2.481   3.146 -0.2626  0.6594 -0.1523
 4764TIP3    H114298   2.993   2.434   3.201  1.3969  1.9072 -0.8827
 4764TIP3    H214299   2.971   2.567   3.132 -2.4698  1.7928 -0.1031
 4765TIP3   OH214300   3.037   4.198   4.127 -0.2043  0.1376 -0.3436
 4765TIP3    H114301   2.951   4.238   4.136  0.1323  0.9820 -0.7895
 4765TIP3    H214302   3.048   4.147   4.207 -0.4906  1.2401  0.4233
 4766TIP3   OH214303   5.465   3.361   4.598  0.2544 -0.5406  0.0929
 4766TIP3    H114304   5.372   3.363   4.571  0.5584 -1.9524 -1.2221
 4766TIP3    H214305   5.484   3.451   4.622 -0.9046  0.2797 -1.7503
 4767TIP3   OH214306   1.855   2.979   4.840  0.1552 -0.0950  0.4134
 4767TIP3    H114307   1.945   2.950   4.855  0.2314  0.5482  1.2528
 4767TIP3    H214308   1.807   2.954   4.919 -0.2302  0.2388  0.2928
 4768TIP3   OH214309   0.299   1.522   0.960 -0.7918 -0.1828  0.1302
 4768TIP3    H114310   0.389   1.552   0.974  0.1746 -1.8868 -1.8215
 4768TIP3    H214311   0.248   1.567   1.027  1.6148  0.3215  1.7607
 4769TIP3   OH214312   0.575   1.618   0.387 -0.5118  0.2274  0.3090
 4769TIP3    H114313   0.644   1.552   0.394  0.7873  1.4196 -0.5978
 4769TIP3    H214314   0.559   1.646   0.477  1.1230  0.8117  0.4562
 4770TIP3   OH214315   5.692   3.007   2.252 -0.1625  0.5395  0.4730
 4770TIP3    H114316   5.623   3.025   2.188  0.6130 -0.2716 -0.6527
 4770TIP3    H214317   5.749   2.945   2.207  0.3857 -0.1010  2.0084
 4771TIP3   OH214318   4.718   3.209   1.974 -0.0096 -0.3403  0.2523
 4771TIP3    H114319   4.788   3.182   1.915 -0.6755 -1.7084  0.0702
 4771TIP3    H214320   4.683   3.128   2.010 -0.1826  0.4137  1.9084
 4772TIP3   OH214321   2.117   1.006   3.981 -0.6826  0.4313  0.5544
 4772TIP3    H114322   2.031   0.967   3.999 -0.3925 -0.3249  0.3601
 4772TIP3    H214323   2.157   0.946   3.917 -0.3577  1.2412 -0.0160
 4773TIP3   OH214324   3.163   1.789   1.044 -0.2141 -0.1020 -0.0818
 4773TIP3    H114325   3.179   1.703   1.006 -1.0641  0.2574 -1.3125
 4773TIP3    H214326   3.135   1.770   1.134 -1.3769 -1.1908 -0.6319
 4774TIP3   OH214327   5.446   0.972   2.619 -0.3671 -0.0587 -0.1593
 4774TIP3    H114328   5.503   0.906   2.581 -0.8201 -1.4201  1.3951
 4774TIP3    H214329   5.490   0.998   2.700 -0.2164  1.5550 -0.7224
 4775TIP3   OH214330   3.140   0.410   4.376  0.4083  0.3804  0.1049
 4775TIP3    H114331   3.083   0.396   4.452  1.2268 -1.6614  0.3862
 4775TIP3    H214332   3.105   0.352   4.308  0.6856  0.9549 -0.5424
 4776TIP3   OH214333   3.108   3.490   0.419 -0.9292 -0.0688  0.7739
 4776TIP3    H114334   3.169   3.467   0.489  1.2782 -0.9268 -1.3138
 4776TIP3    H214335   3.121   3.423   0.352 -3.4483  0.3290 -0.2241
 4777TIP3   OH214336   6.170   2.840   3.803  0.1339 -0.0590  0.3260
 4777TIP3    H114337   6.206   2.928   3.818 -2.6436  1.1535  0.6131
 4777TIP3    H214338   6.138   2.812   3.889  0.4527 -1.1085  0.1156
 4778TIP3   OH214339   1.933   1.554   4.028 -0.5959 -0.3486  0.0476
 4778TIP3    H114340   1.863   1.491   4.050  0.7629 -1.3411  1.7921
 4778TIP3    H214341   1.893   1.640   4.041 -1.5688 -0.8950  0.7610
 4779TIP3   OH214342   1.485   0.970   3.607  0.1898 -0.0788 -0.8808
 4779TIP3    H114343   1.395   0.942   3.588  0.5516 -0.6396 -1.7914
 4779TIP3    H214344   1.488   0.973   3.703 -0.0462 -2.6937 -0.7047
 4780TIP3   OH214345   0.949   0.084   2.934 -0.2807  0.4705 -0.9044
 4780TIP3    H114346   0.952   0.013   2.870 -1.8250 -0.4389 -0.0230
 4780TIP3    H214347   0.934   0.041   3.018  0.9464  1.6934 -0.0000
 4781TIP3   OH214348   2.657   4.167   4.006  0.1757 -0.0051  0.0797
 4781TIP3    H114349   2.562   4.182   4.010  0.3089  0.7336  0.5166
 4781TIP3    H214350   2.671   4.127   3.920 -0.4500  0.4892 -0.2578
 4782TIP3   OH214351   0.242   4.793   3.515  0.7920  0.2374  0.2655
 4782TIP3    H114352   0.328   4.755   3.497  0.7598  0.8553 -1.3506
 4782TIP3    H214353   0.185   4.718   3.531  1.4161 -0.2262  0.3446
 4783TIP3   OH214354   0.340   4.297   1.179 -0.2234 -0.1815  0.4339
 4783TIP3    H114355   0.258   4.256   1.203  0.1054 -1.4733 -0.5585
 4783TIP3    H214356   0.334   4.386   1.215 -2.0552 -0.2299  0.3252
 4784TIP3   OH214357   4.907   1.878   1.201  0.1087 -0.1465 -0.1350
 4784TIP3    H114358   4.978   1.940   1.185  0.4513 -0.5187 -0.0765
 4784TIP3    H214359   4.924   1.805   1.141 -0.1832 -0.2727 -0.0684
 4785TIP3   OH214360   0.621   3.088   0.429 -0.3488 -0.1714  0.0571
 4785TIP3    H114361   0.531   3.066   0.457 -0.7978  1.0743 -0.3325
 4785TIP3    H214362   0.645   3.018   0.368 -0.8466 -0.8012  0.5588
 4786TIP3   OH214363   1.983   2.846   4.576  0.3373 -0.8277 -0.1106
 4786TIP3    H114364   2.045   2.919   4.570  0.4203 -0.9743 -1.2121
 4786TIP3    H214365   1.983   2.807   4.489 -1.2185 -0.9026 -0.1053
 4787TIP3   OH214366   2.826   0.495   4.278 -0.6305  0.4403  0.0021
 4787TIP3    H114367   2.783   0.575   4.246 -0.5978  0.1955 -0.6727
 4787TIP3    H214368   2.873   0.462   4.202 -1.7411 -0.9675 -0.1180
 4788TIP3   OH214369   5.207   1.509   2.929 -0.5368 -0.3235 -0.2149
 4788TIP3    H114370   5.255   1.432   2.962 -1.7051 -1.5419 -1.2345
 4788TIP3    H214371   5.163   1.544   3.006 -0.7455 -1.2550  0.1069
 4789TIP3   OH214372   2.290   2.870   4.766  0.9336 -0.2876 -0.1383
 4789TIP3    H114373   2.292   2.961   4.796  2.5913 -0.8168  1.5563
 4789TIP3    H214374   2.220   2.829   4.818  0.2622 -0.0357 -0.8227
 4790TIP3   OH214375   5.104   2.971   4.812 -0.1474  0.0438 -0.5965
 4790TIP3    H114376   5.168   3.019   4.866 -0.3209 -0.2793 -0.0915
 4790TIP3    H214377   5.028   2.961   4.869 -0.8863  0.9364 -1.3949
 4791TIP3   OH214378   2.169   5.693   3.830 -0.1688 -0.2536  0.3987
 4791TIP3    H114379   2.091   5.640   3.817 -0.6181  0.7571 -1.4654
 4791TIP3    H214380   2.240   5.641   3.791 -0.6261  0.4941 -1.5310
 4792TIP3   OH214381   3.590   0.983   0.022 -0.2323  0.4615 -0.1992
 4792TIP3    H114382   3.681   0.982   0.050 -0.1781 -0.3902 -0.3857
 4792TIP3    H214383   3.554   0.899   0.052 -0.1871 -0.4870 -2.5593
 4793TIP3   OH214384   5.485   5.534   1.272 -0.0826  0.1775  0.5256
 4793TIP3    H114385   5.450   5.501   1.354 -1.1211 -0.1812 -0.0405
 4793TIP3    H214386   5.419   5.510   1.206  0.5776  0.7219 -0.3624
 4794TIP3   OH214387   0.926   3.419   0.484 -0.3626  0.3356 -0.3525
 4794TIP3    H114388   0.896   3.342   0.533  0.2977  0.0004 -0.4594
 4794TIP3    H214389   0.928   3.489   0.549 -0.4267  0.1301 -0.1239
 4795TIP3   OH214390   5.344   0.415   0.931  0.0850  0.6841 -0.1311
 4795TIP3    H114391   5.370   0.351   0.865  0.8009  0.5563  0.2712
 4795TIP3    H214392   5.363   0.500   0.891 -1.3711  0.6930 -0.8833
 4796TIP3   OH214393   0.137   0.777   1.522  0.0714  0.0945 -0.1351
 4796TIP3    H114394   0.180   0.848   1.475  1.7512 -1.0970 -0.4988
 4796TIP3    H214395   0.207   0.715   1.542 -1.1826 -1.0502  0.9528
 4797TIP3   OH214396   3.575   2.704   0.323  0.3720 -0.1764  0.6989
 4797TIP3    H114397   3.646   2.715   0.386 -0.2428  0.8838  1.2530
 4797TIP3    H214398   3.588   2.776   0.261 -0.5264  0.4006  1.1475
 4798TIP3   OH214399   1.177   2.069   0.410 -1.2244 -0.5062 -0.4710
 4798TIP3    H114400   1.168   2.071   0.315  0.0103 -0.9413 -0.6078
 4798TIP3    H214401   1.269   2.091   0.426 -1.8545  1.5588  0.7213
 4799TIP3   OH214402   0.057   0.512   3.318 -0.0969 -0.1151  0.4686
 4799TIP3    H114403   0.125   0.532   3.254 -0.8439 -0.7260 -0.5603
 4799TIP3    H214404   0.073   0.573   3.390  0.8094  0.5619 -0.2740
 4800TIP3   OH214405   0.639   0.114   0.127  0.4021 -0.6975  0.7843
 4800TIP3    H114406   0.686   0.032   0.143  0.7796 -1.0847 -1.9673
 4800TIP3    H214407   0.587   0.097   0.049  0.0955  1.5200  0.4570
 4801TIP3   OH214408   4.079   2.253   1.634  0.4917 -0.1661 -0.6012
 4801TIP3    H114409   4.035   2.170   1.618 -0.2885  0.1154  0.0186
 4801TIP3    H214410   4.107   2.283   1.547 -1.3606  0.0871 -1.1531
 4802TIP3   OH214411   0.244   3.996   4.382  0.1562 -0.5311 -0.6584
 4802TIP3    H114412   0.274   4.074   4.336  1.9840 -0.9712 -0.3106
 4802TIP3    H214413   0.318   3.935   4.376  0.9325 -0.3124  3.5415
 4803TIP3   OH214414   6.215   2.445   0.766  0.5254  0.2090  0.0767
 4803TIP3    H114415   6.132   2.399   0.760 -0.7368  1.9873  2.3248
 4803TIP3    H214416   6.281   2.375   0.763 -1.1923 -1.5901  1.3874
 4804TIP3   OH214417   1.500   1.629   4.729 -0.2488 -0.1602 -0.0897
 4804TIP3    H114418   1.541   1.551   4.769 -0.8755  0.5229  2.0294
 4804TIP3    H214419   1.553   1.702   4.761 -0.5726  0.4051 -0.8366
 4805TIP3   OH214420   3.011   3.096   2.366 -0.2325  0.0801 -0.6449
 4805TIP3    H114421   2.919   3.117   2.348 -0.4465  0.2306  0.5136
 4805TIP3    H214422   3.010   3.006   2.397 -0.2898  0.6955  1.2859
 4806TIP3   OH214423   4.951   1.051   4.729 -0.1535  0.3263  0.0773
 4806TIP3    H114424   4.947   1.114   4.656  0.0547 -0.2307 -0.4259
 4806TIP3    H214425   4.912   1.097   4.803 -1.6901  0.3946 -0.7462
 4807TIP3   OH214426   4.172   0.937   0.951 -0.1260 -0.0600 -0.1201
 4807TIP3    H114427   4.160   0.842   0.959  0.4224 -0.1900 -0.7466
 4807TIP3    H214428   4.150   0.956   0.860 -0.5698  0.4745  0.0930
 4808TIP3   OH214429   0.675   4.591   0.675  0.0332  0.4479 -0.5826
 4808TIP3    H114430   0.671   4.682   0.645 -1.3965  0.1734 -1.3150
 4808TIP3    H214431   0.607   4.584   0.742  0.7417  0.1337  0.1122
 4809TIP3   OH214432   3.647   5.977   3.326  0.8555  0.3132 -0.2618
 4809TIP3    H114433   3.662   5.908   3.392  0.2290  0.2160 -0.2162
 4809TIP3    H214434   3.585   5.938   3.265 -0.7356  1.3644  0.6173
 4810TIP3   OH214435   2.280   2.615   0.207 -0.1251 -0.3559  0.1198
 4810TIP3    H114436   2.296   2.524   0.234 -0.5440 -1.1616 -2.0767
 4810TIP3    H214437   2.185   2.620   0.195 -0.0067  0.0079 -0.8033
 4811TIP3   OH214438   2.082   1.740   0.390 -0.3539 -0.2340 -0.1924
 4811TIP3    H114439   2.167   1.697   0.398  0.3253  0.7650 -1.5735
 4811TIP3    H214440   2.104   1.832   0.374 -1.5750 -0.3797 -3.3232
 4812TIP3   OH214441   5.911   1.157   2.661 -0.1151  0.1538  0.4655
 4812TIP3    H114442   5.870   1.169   2.576  1.9579 -0.7988 -0.7406
 4812TIP3    H214443   5.961   1.237   2.677  0.5115 -0.1698  0.1672
 4813TIP3   OH214444   1.004   4.055   2.754  0.1147  0.7193 -0.5488
 4813TIP3    H114445   1.011   3.987   2.688 -0.3623  0.0622  0.0665
 4813TIP3    H214446   0.918   4.094   2.740 -0.7872 -0.6670  0.8335
 4814TIP3   OH214447   0.340   2.650   3.258  0.5005  0.3854  0.0212
 4814TIP3    H114448   0.256   2.674   3.296  0.0900  0.3102 -0.8049
 4814TIP3    H214449   0.367   2.572   3.305  0.0145  0.3027  0.1689
 4815TIP3   OH214450   5.711   5.479   2.155  0.5596  0.0410 -0.0059
 4815TIP3    H114451   5.799   5.458   2.125  0.2041 -1.3210 -0.1582
 4815TIP3    H214452   5.667   5.515   2.077  0.7910  0.1369 -0.0931
 4816TIP3   OH214453   0.281   5.687   1.375  0.1388 -0.2640 -0.0352
 4816TIP3    H114454   0.281   5.595   1.349  0.8544 -0.8574  1.8877
 4816TIP3    H214455   0.198   5.698   1.422  0.8792 -0.4810  1.3892
 4817TIP3   OH214456   6.230   5.313   2.913  0.0531  0.1349  0.2944
 4817TIP3    H114457   6.183   5.389   2.948  0.7948  0.4509  0.6290
 4817TIP3    H214458   6.298   5.351   2.858  0.0839 -0.3121  0.0202
 4818TIP3   OH214459   5.854   0.121   3.968 -0.7631 -0.4639  0.0732
 4818TIP3    H114460   5.904   0.143   3.889 -0.3571 -1.5289  0.0170
 4818TIP3    H214461   5.921   0.110   4.036 -1.0773 -0.0314  0.4602
 4819TIP3   OH214462   2.190   2.680   2.225  0.1783 -0.2618 -0.0266
 4819TIP3    H114463   2.099   2.652   2.237 -0.7704  1.5601 -2.2099
 4819TIP3    H214464   2.206   2.741   2.298 -0.7277  0.1867 -0.1812
 4820TIP3   OH214465   0.896   0.379   3.168  0.0422  0.8224 -0.4487
 4820TIP3    H114466   0.875   0.396   3.260  3.2679  1.3416  0.3363
 4820TIP3    H214467   0.899   0.466   3.127  0.7659  0.8052 -0.4558
 4821TIP3   OH214468   3.669   5.643   2.169  0.0003 -0.3422  0.2637
 4821TIP3    H114469   3.691   5.736   2.174  0.4323 -0.5086  2.8077
 4821TIP3    H214470   3.694   5.608   2.254 -2.8485 -2.2141  0.4439
 4822TIP3   OH214471   0.992   0.157   4.941 -0.8996  0.4509  0.0978
 4822TIP3    H114472   1.082   0.145   4.970 -0.8781 -3.6665 -0.9618
 4822TIP3    H214473   0.939   0.106   5.003 -1.8968 -0.8084 -1.6727
 4823TIP3   OH214474   1.308   4.050   2.178 -0.0647  0.4779  0.7549
 4823TIP3    H114475   1.319   4.046   2.273  0.8212 -2.9979  0.6371
 4823TIP3    H214476   1.367   3.984   2.144 -0.4388  1.5418 -2.2753
 4824TIP3   OH214477   0.483   2.915   3.897 -0.1011 -0.4264  0.0234
 4824TIP3    H114478   0.489   2.911   3.992 -3.4993  0.4428  0.4223
 4824TIP3    H214479   0.524   2.998   3.873 -1.4112  0.5680  1.0867
 4825TIP3   OH214480   0.479   0.841   2.386  0.0074 -0.4251  0.5910
 4825TIP3    H114481   0.554   0.897   2.404  0.5248 -1.1451  0.7296
 4825TIP3    H214482   0.515   0.766   2.338 -0.6429 -0.7002  0.5148
 4826TIP3   OH214483   4.017   5.595   4.868 -0.2415 -0.0672  0.3883
 4826TIP3    H114484   4.027   5.690   4.878  0.8242 -0.0008 -1.1290
 4826TIP3    H214485   3.923   5.580   4.880 -0.8162  1.5015 -1.6157
 4827TIP3   OH214486   0.382   1.277   2.031 -0.0296 -0.4832  0.5170
 4827TIP3    H114487   0.422   1.263   1.945 -0.3899  0.9103  0.0870
 4827TIP3    H214488   0.322   1.203   2.042  0.3486 -0.9146 -0.2266
 4828TIP3   OH214489   2.860   2.130   4.018  0.1117  0.5047 -0.3123
 4828TIP3    H114490   2.897   2.084   4.093 -1.3551 -1.2933 -0.5909
 4828TIP3    H214491   2.913   2.101   3.944  0.4619  0.8849 -0.2110
 4829TIP3   OH214492   0.225   5.838   0.922  0.0109 -0.0084  0.1624
 4829TIP3    H114493   0.163   5.776   0.883 -0.5914  0.1815  0.7945
 4829TIP3    H214494   0.181   5.868   1.002  0.9625  0.0615  0.6689
 4830TIP3   OH214495   1.101   3.491   1.876  0.3327  0.5991  0.8868
 4830TIP3    H114496   1.060   3.408   1.854 -0.3378  1.5356 -1.7164
 4830TIP3    H214497   1.081   3.504   1.969 -0.3993 -1.6353  1.0797
 4831TIP3   OH214498   0.782   4.719   2.459  0.1613  0.0567  0.1986
 4831TIP3    H114499   0.833   4.684   2.386  0.3116  1.6874 -0.4977
 4831TIP3    H214500   0.844   4.720   2.532  0.6317  0.4254 -0.2003
 4832TIP3   OH214501   3.545   3.826   1.700 -0.3025 -0.2101  0.0275
 4832TIP3    H114502   3.599   3.778   1.763 -0.5856 -1.0030 -0.3234
 4832TIP3    H214503   3.526   3.909   1.744 -0.9268 -0.9448  1.2072
 4833TIP3   OH214504   1.057   1.146   0.436  0.3737 -0.7932  0.5677
 4833TIP3    H114505   1.022   1.214   0.494 -0.8745  0.3010 -1.3560
 4833TIP3    H214506   1.149   1.140   0.460  0.3887  1.1405  1.2239
 4834TIP3   OH214507   4.374   3.615   1.714  0.1121  0.0335 -0.6166
 4834TIP3    H114508   4.314   3.591   1.643 -1.0329  2.2592 -0.5008
 4834TIP3    H214509   4.363   3.546   1.780 -0.2980 -0.9999 -1.7334
 4835TIP3   OH214510   5.715   4.889   3.650 -0.0567 -0.3677 -0.5559
 4835TIP3    H114511   5.711   4.984   3.638 -0.0716 -0.2751  0.1649
 4835TIP3    H214512   5.659   4.854   3.580 -0.9100  0.2059 -0.1734
 4836TIP3   OH214513   1.609   4.828   1.221  0.2959  0.3354  0.7474
 4836TIP3    H114514   1.635   4.788   1.139  1.7629  0.1172  1.2845
 4836TIP3    H214515   1.564   4.759   1.269 -1.6362  0.7926 -0.3019
 4837TIP3   OH214516   4.488   2.452   5.154 -0.4420 -0.7842  0.3539
 4837TIP3    H114517   4.511   2.543   5.138  0.2109 -0.6685  1.7972
 4837TIP3    H214518   4.524   2.404   5.080  0.8182 -0.0857  0.5012
 4838TIP3   OH214519   5.164   4.816   0.648  0.3553 -0.0479  0.0159
 4838TIP3    H114520   5.189   4.829   0.556 -0.9946 -0.1384 -0.3805
 4838TIP3    H214521   5.216   4.880   0.696  0.0488  0.9733 -0.9714
 4839TIP3   OH214522   5.512   5.256   3.782  0.2623  0.5166 -0.2802
 4839TIP3    H114523   5.585   5.238   3.722  0.1677 -0.9088 -0.0148
 4839TIP3    H214524   5.443   5.195   3.754 -0.4680  1.1646  0.0867
 4840TIP3   OH214525   3.789   0.490   1.466 -0.2355 -0.5510  0.2425
 4840TIP3    H114526   3.881   0.467   1.452  0.0871  0.4405  0.5956
 4840TIP3    H214527   3.771   0.558   1.401  0.3088  1.7002  2.2929
 4841TIP3   OH214528   2.845   1.189   2.296  0.4453 -0.5320  0.2613
 4841TIP3    H114529   2.860   1.190   2.201  0.9545  0.4073  0.3428
 4841TIP3    H214530   2.924   1.150   2.332  0.4031 -0.5597  0.3232
 4842TIP3   OH214531   5.707   1.514   2.311  0.1977 -0.1410 -0.0663
 4842TIP3    H114532   5.771   1.526   2.241 -0.5377 -1.7498 -1.0824
 4842TIP3    H214533   5.629   1.480   2.266 -0.2315 -1.4114  1.5512
 4843TIP3   OH214534   0.090   1.569   0.799  0.1199 -0.3597  0.7094
 4843TIP3    H114535   0.172   1.539   0.838  1.0303  0.5375 -0.4356
 4843TIP3    H214536   0.083   1.660   0.828  0.0423 -0.1398  0.0091
 4844TIP3   OH214537   5.307   5.610   0.617  0.0174  0.3282  0.5681
 4844TIP3    H114538   5.325   5.683   0.676  0.0793  0.1379  0.7845
 4844TIP3    H214539   5.317   5.648   0.529 -0.3824  0.6835  0.6739
 4845TIP3   OH214540   3.245   3.361   2.106  0.3391 -0.4301  0.9048
 4845TIP3    H114541   3.313   3.313   2.058 -0.4362 -1.1379  0.4773
 4845TIP3    H214542   3.292   3.430   2.152  1.2723 -0.5284  0.1367
 4846TIP3   OH214543   3.863   2.606   3.671 -0.2241  0.0918 -0.0082
 4846TIP3    H114544   3.944   2.655   3.653 -0.9610  0.9126 -1.2449
 4846TIP3    H214545   3.814   2.663   3.731 -0.4163  0.1602 -0.2306
 4847TIP3   OH214546   0.873   2.265   4.379  0.2525  0.3462  0.0998
 4847TIP3    H114547   0.869   2.169   4.380  0.8363  0.3179  1.0151
 4847TIP3    H214548   0.869   2.288   4.286  0.1132 -0.5626 -0.1320
 4848TIP3   OH214549   3.157   3.897   3.314  0.1372 -0.4660 -0.0333
 4848TIP3    H114550   3.251   3.883   3.326  0.1044  1.1567  3.1147
 4848TIP3    H214551   3.144   3.991   3.329 -2.0955 -0.8047  0.5618
 4849TIP3   OH214552   6.066   5.843   4.108 -0.1335  0.1146 -0.3666
 4849TIP3    H114553   6.040   5.887   4.188  0.9286 -0.1017  0.1230
 4849TIP3    H214554   6.134   5.782   4.135 -0.3241 -0.5415 -1.3115
 4850TIP3   OH214555   5.152   4.297   1.522 -0.1702 -0.1302 -0.1880
 4850TIP3    H114556   5.094   4.348   1.464 -0.1216  0.6458  0.4274
 4850TIP3    H214557   5.230   4.280   1.469 -0.5616 -0.3494 -0.7045
 4851TIP3   OH214558   2.600   3.642   3.003  0.5120  0.5022  0.1312
 4851TIP3    H114559   2.513   3.614   3.030  0.4361  1.6642  1.1979
 4851TIP3    H214560   2.592   3.663   2.910 -0.0526 -0.4666 -0.0468
 4852TIP3   OH214561   2.052   0.531   1.909 -0.5273  0.0929 -0.2174
 4852TIP3    H114562   2.127   0.472   1.900  0.1204  0.9960 -0.9831
 4852TIP3    H214563   2.083   0.614   1.874 -1.2301  1.0631  1.3783
 4853TIP3   OH214564   3.242   3.200   2.523 -0.1163  0.2195 -0.6472
 4853TIP3    H114565   3.195   3.129   2.479  0.2870 -1.3002  1.2150
 4853TIP3    H214566   3.187   3.220   2.600  1.1708 -0.0594  0.3735
 4854TIP3   OH214567   4.094   5.299   1.497 -0.2405  0.1701 -0.0415
 4854TIP3    H114568   4.045   5.295   1.579 -0.6070 -2.9883 -0.2786
 4854TIP3    H214569   4.185   5.288   1.524 -0.3076 -0.3271 -0.0123
 4855TIP3   OH214570   0.083   1.391   4.536 -0.3068 -0.5043  0.4087
 4855TIP3    H114571   0.072   1.310   4.488  1.8860 -0.6047 -0.0532
 4855TIP3    H214572   0.139   1.367   4.610 -0.9218  0.2877  1.1444
 4856TIP3   OH214573   2.034   5.352   0.556  0.5200  0.1494  0.1151
 4856TIP3    H114574   2.107   5.302   0.520 -0.4047 -2.0494  1.1449
 4856TIP3    H214575   2.028   5.324   0.647 -2.2637 -0.5720 -0.2070
 4857TIP3   OH214576   4.804   1.012   4.348 -0.7529  0.0840  0.6604
 4857TIP3    H114577   4.814   1.055   4.433 -0.8377  1.3974  0.0326
 4857TIP3    H214578   4.815   1.082   4.284 -1.7889 -0.6735 -0.3926
 4858TIP3   OH214579   0.332   6.015   3.255  0.6716 -0.0557  0.5345
 4858TIP3    H114580   0.263   6.033   3.318  0.5367 -0.2635  0.4450
 4858TIP3    H214581   0.353   5.923   3.267 -0.2151 -0.4176 -0.5765
 4859TIP3   OH214582   4.805   2.819   0.777  0.1561 -0.6817 -0.1533
 4859TIP3    H114583   4.802   2.874   0.855  1.4653  1.2415 -1.3690
 4859TIP3    H214584   4.772   2.876   0.707  1.9450 -1.2851 -1.5309
 4860TIP3   OH214585   1.174   3.717   1.507 -0.1278  0.1657 -0.1844
 4860TIP3    H114586   1.093   3.728   1.557  0.6162  0.3298  1.0373
 4860TIP3    H214587   1.147   3.672   1.427 -1.8528  2.6057 -1.0953
 4861TIP3   OH214588   5.763   2.636   2.366 -0.5289 -0.1821 -0.1575
 4861TIP3    H114589   5.841   2.688   2.384 -0.3161 -1.2043  2.2895
 4861TIP3    H214590   5.795   2.547   2.351 -1.1754 -0.8198  1.8147
 4862TIP3   OH214591   4.307   2.493   2.138 -0.0204 -0.0327  0.2123
 4862TIP3    H114592   4.259   2.427   2.088 -1.3175  0.0285  1.2926
 4862TIP3    H214593   4.397   2.461   2.141 -0.4609 -1.3520  0.0290
 4863TIP3   OH214594   5.209   4.027   1.608 -0.2276  0.0574  0.3224
 4863TIP3    H114595   5.187   3.985   1.525 -0.2907  0.1698  0.2818
 4863TIP3    H214596   5.173   4.116   1.601  0.4524  0.3270  0.1484
 4864TIP3   OH214597   1.106   1.333   2.323 -0.3765 -0.7530  0.2505
 4864TIP3    H114598   1.034   1.272   2.336 -1.6411  0.7157  0.3655
 4864TIP3    H214599   1.107   1.387   2.401  0.6632 -0.5480  0.1124
 4865TIP3   OH214600   1.530   5.463   4.994  0.2496  0.0098 -0.1721
 4865TIP3    H114601   1.485   5.547   4.998  0.8101  0.2748  1.6304
 4865TIP3    H214602   1.608   5.480   4.941  0.2808  0.5853  0.0516
 4866TIP3   OH214603   4.325   0.359   2.506 -0.7944 -0.1298  0.6235
 4866TIP3    H114604   4.404   0.336   2.554 -1.1694 -0.7260  0.9725
 4866TIP3    H214605   4.272   0.409   2.569 -0.8309  0.0077  0.4868
 4867TIP3   OH214606   4.238   3.628   2.057  0.3073  0.4837  0.2401
 4867TIP3    H114607   4.309   3.565   2.069 -0.7284 -1.3328 -2.3249
 4867TIP3    H214608   4.257   3.670   1.973 -0.9843  0.9139  0.1486
 4868TIP3   OH214609   2.099   1.253   4.085 -0.4829 -0.3471 -0.4879
 4868TIP3    H114610   2.184   1.252   4.128  0.0817 -0.7536 -1.5883
 4868TIP3    H214611   2.088   1.165   4.050 -1.2194 -0.2126 -0.6105
 4869TIP3   OH214612   0.625   0.596   2.529 -0.1541 -0.6766 -0.1736
 4869TIP3    H114613   0.679   0.619   2.604 -0.8955  0.6517 -0.0232
 4869TIP3    H214614   0.681   0.609   2.453  0.1751 -0.7092  0.0644
 4870TIP3   OH214615   1.124   1.607   1.986 -0.7622 -0.1799  0.3281
 4870TIP3    H114616   1.049   1.568   1.941  0.0243 -0.5890 -0.6589
 4870TIP3    H214617   1.182   1.637   1.916  0.2786 -0.4128  1.0640
 4871TIP3   OH214618   5.991   4.736   4.885 -0.1195 -0.7651 -0.2007
 4871TIP3    H114619   5.943   4.799   4.833 -0.6652 -1.2913 -0.3450
 4871TIP3    H214620   6.055   4.698   4.824 -1.2248 -1.8845 -0.6912
 4872TIP3   OH214621   1.891   2.044   3.902 -0.3985  0.1253 -0.1798
 4872TIP3    H114622   1.974   2.080   3.933  0.3566 -0.7033 -1.1293
 4872TIP3    H214623   1.825   2.079   3.961  0.5923  1.0724  0.3960
 4873TIP3   OH214624   0.513   3.478   1.793 -0.3336 -0.2397 -0.1249
 4873TIP3    H114625   0.431   3.487   1.842 -0.5618  0.3170 -0.6000
 4873TIP3    H214626   0.549   3.395   1.823  0.0150  0.5242  1.6869
 4874TIP3   OH214627   3.500   1.897   2.386  0.3925  0.1104 -0.3247
 4874TIP3    H114628   3.550   1.957   2.441 -0.8988 -0.1474  1.2076
 4874TIP3    H214629   3.566   1.836   2.351  1.1602 -0.4270  1.8806
 4875TIP3   OH214630   4.621   1.589   2.394  0.7177  0.2190  0.2198
 4875TIP3    H114631   4.660   1.537   2.464 -0.4283 -0.8685  0.0695
 4875TIP3    H214632   4.690   1.594   2.327  0.2014 -2.8905 -0.6763
 4876TIP3   OH214633   2.582   0.267   3.459  0.1800  0.0772 -0.1063
 4876TIP3    H114634   2.674   0.282   3.438  0.7081  0.1191  2.0449
 4876TIP3    H214635   2.534   0.307   3.387  1.8320 -0.1507 -1.3954
 4877TIP3   OH214636   0.926   3.055   5.075  0.4241 -0.6816 -0.3461
 4877TIP3    H114637   1.002   3.023   5.123 -0.3273  0.8292  1.9884
 4877TIP3    H214638   0.851   3.016   5.119 -0.3021  0.8042 -0.2100
 4878TIP3   OH214639   5.522   5.539   4.537 -0.7893  0.1099  0.5668
 4878TIP3    H114640   5.584   5.593   4.587  0.0895  1.7671 -2.1109
 4878TIP3    H214641   5.436   5.573   4.561 -0.3317  1.5444  0.2805
 4879TIP3   OH214642   2.629   3.012   0.579 -0.6569  0.6941  0.6381
 4879TIP3    H114643   2.669   3.083   0.529 -0.2965 -0.1606 -0.3247
 4879TIP3    H214644   2.624   2.939   0.517  3.0718 -1.6136  2.6606
 4880TIP3   OH214645   0.091   1.598   3.520  0.3953  0.5148 -0.5324
 4880TIP3    H114646   0.118   1.586   3.612  0.0007  2.5051 -0.1017
 4880TIP3    H214647   0.013   1.545   3.510  0.9012 -0.3565  0.0467
 4881TIP3   OH214648   2.812   5.553   3.431  0.6864  0.4033 -0.3071
 4881TIP3    H114649   2.751   5.486   3.464  0.0805  1.0287 -0.1272
 4881TIP3    H214650   2.786   5.633   3.477  0.9962  0.8990 -0.9866
 4882TIP3   OH214651   1.825   0.637   3.133 -0.1064  0.1943 -0.3718
 4882TIP3    H114652   1.830   0.625   3.038  2.8674 -0.3540 -0.2576
 4882TIP3    H214653   1.819   0.732   3.145 -0.0712  0.2980 -1.1241
 4883TIP3   OH214654   3.787   0.359   2.516  0.1512  0.4674 -0.2057
 4883TIP3    H114655   3.782   0.351   2.421 -0.9739  0.1719 -0.1290
 4883TIP3    H214656   3.772   0.270   2.549 -1.1119  0.8431  0.2909
 4884TIP3   OH214657   5.909   3.901   1.882  0.0681  0.5566 -0.4101
 4884TIP3    H114658   5.853   3.846   1.827 -0.2566 -0.8253  1.2304
 4884TIP3    H214659   5.997   3.864   1.871 -0.3387 -1.3034  1.7196
 4885TIP3   OH214660   2.344   5.257   4.588  0.3796  0.0866 -0.0416
 4885TIP3    H114661   2.428   5.262   4.544 -1.0944  1.0943 -3.0259
 4885TIP3    H214662   2.362   5.281   4.679  3.4209 -0.7910 -0.3212
 4886TIP3   OH214663   3.592   5.179   3.523  0.1738 -0.4673  0.3523
 4886TIP3    H114664   3.666   5.234   3.498  0.7612 -1.2071  0.4261
 4886TIP3    H214665   3.604   5.099   3.472 -1.8096  0.2306 -1.3860
 4887TIP3   OH214666   1.643   4.204   5.076 -0.2643 -0.2290 -0.1721
 4887TIP3    H114667   1.606   4.199   5.164  1.1787 -0.2337  0.4577
 4887TIP3    H214668   1.727   4.159   5.082 -0.7918 -1.5891 -1.9385
 4888TIP3   OH214669   3.452   1.921   0.182  0.1953 -0.1713 -0.7924
 4888TIP3    H114670   3.379   1.945   0.124  2.1469  2.2817 -2.4471
 4888TIP3    H214671   3.486   2.005   0.213  2.0529 -1.2556  0.2765
 4889TIP3   OH214672   5.775   4.125   0.694 -0.2101  0.1319 -0.0877
 4889TIP3    H114673   5.700   4.102   0.748 -0.6438  1.9266  0.1517
 4889TIP3    H214674   5.752   4.096   0.606 -0.9933  0.2582  0.0681
 4890TIP3   OH214675   1.591   4.739   3.826  0.1835 -0.7013  0.3722
 4890TIP3    H114676   1.588   4.784   3.910  0.7391 -0.8055  0.4537
 4890TIP3    H214677   1.594   4.809   3.761  0.7808 -0.6106  0.4877
 4891TIP3   OH214678   4.866   2.802   4.967  0.1869  0.0760  0.1663
 4891TIP3    H114679   4.787   2.762   5.002 -0.1801 -0.7139 -1.4543
 4891TIP3    H214680   4.937   2.744   4.993  0.2850  0.8793  1.7743
 4892TIP3   OH214681   0.910   0.288   3.739  0.7888  0.6951  0.2654
 4892TIP3    H114682   0.830   0.324   3.776 -0.3521 -2.4211  1.1186
 4892TIP3    H214683   0.971   0.284   3.813  0.6855  0.3171  0.3333
 4893TIP3   OH214684   0.290   1.187   4.008 -0.3129  0.7301 -0.3732
 4893TIP3    H114685   0.343   1.149   4.077 -1.8547  0.0335  0.4825
 4893TIP3    H214686   0.268   1.274   4.039 -0.3962  0.6871 -0.3097
 4894TIP3   OH214687   3.063   5.754   4.534 -0.2902  0.1302 -0.1129
 4894TIP3    H114688   2.994   5.819   4.550 -0.1561  0.2481 -0.0086
 4894TIP3    H214689   3.080   5.717   4.620  0.1483  0.4766 -0.0482
 4895TIP3   OH214690   2.326   0.515   0.357 -0.2467  0.0654 -0.4580
 4895TIP3    H114691   2.323   0.538   0.264  2.3921  1.3443 -0.2967
 4895TIP3    H214692   2.393   0.447   0.363 -0.0890  0.2979  0.5748
 4896TIP3   OH214693   6.190   5.187   3.845 -0.4575 -0.1270  0.2431
 4896TIP3    H114694   6.152   5.101   3.864 -1.0475  0.3430  1.2950
 4896TIP3    H214695   6.241   5.208   3.923 -1.6635  1.1870  0.7249
 4897TIP3   OH214696   5.633   4.785   4.250  0.5529  0.3906  0.0165
 4897TIP3    H114697   5.716   4.752   4.216  0.1123  0.8036 -1.5500
 4897TIP3    H214698   5.568   4.757   4.186 -0.8293 -1.4168  2.0739
 4898TIP3   OH214699   5.193   2.110   4.481  0.4117  0.0964  0.6819
 4898TIP3    H114700   5.235   2.090   4.564 -2.2189 -0.2267  2.0552
 4898TIP3    H214701   5.159   2.199   4.491 -0.7706 -0.2935  0.3789
 4899TIP3   OH214702   4.581   5.900   0.668  0.1044 -0.5571 -0.0395
 4899TIP3    H114703   4.631   5.830   0.708  0.3558 -0.1171  0.4213
 4899TIP3    H214704   4.517   5.855   0.613  0.6413 -1.1308 -0.2043
 4900TIP3   OH214705   3.977   5.008   2.366 -0.3731 -0.0545  0.8678
 4900TIP3    H114706   3.918   5.075   2.332  0.5664  0.1854 -0.3354
 4900TIP3    H214707   4.042   4.995   2.297  0.8177 -0.5342  2.0370
 4901TIP3   OH214708   3.789   5.684   1.493 -0.1045 -0.0916  0.3048
 4901TIP3    H114709   3.743   5.759   1.456 -2.3429 -0.5393  1.9796
 4901TIP3    H214710   3.846   5.722   1.561  1.0306  0.3173 -0.8222
 4902TIP3   OH214711   5.047   5.706   4.261 -1.0495  0.1362 -0.5629
 4902TIP3    H114712   5.143   5.713   4.254 -1.2015  3.0141 -0.9723
 4902TIP3    H214713   5.016   5.712   4.171 -1.6451 -0.3835 -0.3954
 4903TIP3   OH214714   2.373   2.796   3.189 -0.1634 -0.0840 -0.0484
 4903TIP3    H114715   2.287   2.827   3.214 -1.1996 -0.0162 -3.2802
 4903TIP3    H214716   2.424   2.875   3.171  0.3068 -0.1491  0.9065
 4904TIP3   OH214717   2.737   4.720   0.253 -0.5014 -0.7050 -0.5393
 4904TIP3    H114718   2.768   4.695   0.340 -0.4125  1.6690  0.1967
 4904TIP3    H214719   2.757   4.645   0.197 -0.3946 -2.2170  1.4367
 4905TIP3   OH214720   2.978   5.271   4.210  0.0986 -0.6364  0.1100
 4905TIP3    H114721   2.891   5.265   4.247 -0.2615  0.2716 -0.5566
 4905TIP3    H214722   3.027   5.326   4.271 -0.0974 -0.2908 -0.0418
 4906TIP3   OH214723   1.705   2.938   5.051 -0.2767 -0.1554 -0.7665
 4906TIP3    H114724   1.619   2.976   5.035 -0.7173 -1.1629 -0.8338
 4906TIP3    H214725   1.725   2.961   5.141 -1.3936 -1.3767 -0.1796
 4907TIP3   OH214726   0.153   2.425   1.290  0.6101 -0.1972 -0.7978
 4907TIP3    H114727   0.076   2.368   1.297 -0.8374  1.8207  1.1711
 4907TIP3    H214728   0.192   2.422   1.377  0.7472  1.4161 -0.7844
 4908TIP3   OH214729   2.503   2.587   1.540 -0.4549  0.5428 -0.0444
 4908TIP3    H114730   2.593   2.611   1.520 -0.7966  0.7207 -1.4770
 4908TIP3    H214731   2.484   2.632   1.623  0.8983  0.1128  0.5237
 4909TIP3   OH214732   2.166   3.005   1.592  0.6205  0.4164  0.3518
 4909TIP3    H114733   2.192   3.066   1.523  0.5144 -1.0992 -1.0920
 4909TIP3    H214734   2.089   3.046   1.633  0.9562  1.5514 -0.1204
 4910TIP3   OH214735   1.406   2.760   0.472  0.1242 -0.2703 -0.0375
 4910TIP3    H114736   1.337   2.755   0.538  0.9342 -0.6201  0.8115
 4910TIP3    H214737   1.411   2.853   0.450 -0.6781 -0.2593 -0.1787
 4911TIP3   OH214738   4.360   4.997   0.199  0.0268  0.4510 -0.7249
 4911TIP3    H114739   4.300   4.938   0.153 -2.0251  0.2791  1.9099
 4911TIP3    H214740   4.445   4.980   0.160 -1.2080 -1.1595 -2.9428
 4912TIP3   OH214741   1.043   4.278   1.936  0.5069  0.6280 -0.6929
 4912TIP3    H114742   0.954   4.313   1.941  0.0314  0.0040 -3.0463
 4912TIP3    H214743   1.030   4.183   1.929  1.2364  0.5931 -2.0159
 4913TIP3   OH214744   3.479   0.640   0.358  0.0700 -1.0107 -0.1031
 4913TIP3    H114745   3.414   0.708   0.339 -0.5619 -1.4209  0.5292
 4913TIP3    H214746   3.557   0.688   0.386 -0.4626 -0.5340  0.6085
 4914TIP3   OH214747   2.241   5.955   4.894  0.9860 -0.0170 -0.4608
 4914TIP3    H114748   2.209   6.024   4.837  1.4838 -0.1603 -0.9323
 4914TIP3    H214749   2.167   5.896   4.905  0.4913  0.6962  0.1274
 4915TIP3   OH214750   3.958   0.494   1.101  0.2600  0.6338  0.2169
 4915TIP3    H114751   3.990   0.414   1.144 -1.1296  0.9073  1.8824
 4915TIP3    H214752   3.976   0.564   1.164  1.3530  1.6706 -1.1743
 4916TIP3   OH214753   3.428   1.512   4.570 -0.0104 -0.0650 -0.1248
 4916TIP3    H114754   3.514   1.537   4.536  0.6977 -1.9786  0.1168
 4916TIP3    H214755   3.399   1.441   4.512 -1.3189  0.3489 -0.0252
 4917TIP3   OH214756   4.133   0.649   3.249  0.5650 -0.1131  0.2001
 4917TIP3    H114757   4.214   0.700   3.253  0.5227 -0.0523  0.2692
 4917TIP3    H214758   4.161   0.560   3.270  1.1457 -0.6872 -2.6151
 4918TIP3   OH214759   5.322   1.040   0.586  0.1586  0.2298  0.0638
 4918TIP3    H114760   5.392   0.976   0.597 -0.4706 -1.1199 -2.9630
 4918TIP3    H214761   5.268   1.030   0.665  1.6257 -0.9001  0.9782
 4919TIP3   OH214762   5.614   0.483   2.367 -0.2952  0.5976  0.6676
 4919TIP3    H114763   5.661   0.521   2.441  4.1756 -0.3440 -1.3452
 4919TIP3    H214764   5.537   0.442   2.406  0.0578  2.8567  4.2408
 4920TIP3   OH214765   2.345   4.323   2.268 -0.2555 -0.0938  0.3759
 4920TIP3    H114766   2.263   4.291   2.306 -0.3052 -0.8130 -0.3224
 4920TIP3    H214767   2.414   4.274   2.313 -0.1857  0.7024  1.1524
 4921TIP3   OH214768   4.348   5.297   1.601 -0.5817 -0.3115  0.6425
 4921TIP3    H114769   4.419   5.342   1.648 -0.7147  0.0353  0.5155
 4921TIP3    H214770   4.288   5.268   1.669 -1.8780  2.0378  0.6188
 4922TIP3   OH214771   2.779   0.304   3.882 -0.0092 -0.6023  0.2498
 4922TIP3    H114772   2.755   0.216   3.914  0.9398 -0.3777  1.6924
 4922TIP3    H214773   2.834   0.340   3.951  1.4960  0.2762 -1.3430
 4923TIP3   OH214774   1.356   3.315   3.097 -0.1476 -0.2532 -0.3970
 4923TIP3    H114775   1.310   3.336   3.178 -0.1887 -1.3866 -0.1210
 4923TIP3    H214776   1.303   3.357   3.029 -2.5275 -2.7624 -0.2540
 4924TIP3   OH214777   1.126   2.904   0.352 -0.9017  0.2639  0.9143
 4924TIP3    H114778   1.167   2.990   0.357 -0.7212  0.2428  0.0434
 4924TIP3    H214779   1.033   2.920   0.368 -0.7443  0.4906  1.6355
 4925TIP3   OH214780   3.830   5.839   0.728  0.3378  0.0851  0.1620
 4925TIP3    H114781   3.781   5.917   0.755  1.1164  0.7426 -0.2823
 4925TIP3    H214782   3.802   5.824   0.637 -3.6792 -3.1949  1.5921
 4926TIP3   OH214783   1.129   2.084   0.898  0.4426 -0.5002 -0.5159
 4926TIP3    H114784   1.177   2.022   0.843  0.7365 -0.4547 -0.3141
 4926TIP3    H214785   1.180   2.164   0.894  0.0786 -0.2806 -0.7523
 4927TIP3   OH214786   5.560   4.909   4.691  0.0829 -0.1737 -0.0427
 4927TIP3    H114787   5.544   4.961   4.612 -0.7793 -0.3646  0.0016
 4927TIP3    H214788   5.652   4.927   4.713  0.4270 -0.3418 -1.2525
 4928TIP3   OH214789   0.793   0.868   2.149 -0.1822 -0.4835 -0.2907
 4928TIP3    H114790   0.852   0.940   2.126  0.9454 -0.9151  1.1382
 4928TIP3    H214791   0.706   0.907   2.143  0.4021  1.0398  0.5297
 4929TIP3   OH214792   5.516   2.446   0.654 -0.6416  0.8476 -0.0154
 4929TIP3    H114793   5.465   2.516   0.613 -1.1501  1.3701  1.4231
 4929TIP3    H214794   5.592   2.491   0.692 -0.5340  0.4841  0.2064
 4930TIP3   OH214795   6.257   4.994   5.031 -0.1441  0.5666  0.1610
 4930TIP3    H114796   6.182   5.033   4.987 -0.9985 -0.2334  0.8821
 4930TIP3    H214797   6.317   5.068   5.045 -0.6253  1.1435 -0.7239
 4931TIP3   OH214798   1.480   5.156   2.531 -0.4106  0.0666  0.7428
 4931TIP3    H114799   1.509   5.245   2.511 -0.8286  0.1974  0.7251
 4931TIP3    H214800   1.561   5.104   2.528  0.1826  0.7683  2.7301
 4932TIP3   OH214801   1.463   5.841   3.428  0.1264  0.1314  0.4193
 4932TIP3    H114802   1.531   5.795   3.477 -0.9821 -1.3894  0.6023
 4932TIP3    H214803   1.465   5.930   3.462  1.0977 -0.2406  1.3953
 4933TIP3   OH214804   1.655   5.685   4.204 -0.1918 -0.2722 -0.3600
 4933TIP3    H114805   1.598   5.609   4.213 -1.4615  0.7725  1.2873
 4933TIP3    H214806   1.611   5.742   4.141 -1.0495  0.5389  0.9178
 4934TIP3   OH214807   1.941   1.174   1.710 -0.5231  0.1329  0.3639
 4934TIP3    H114808   1.957   1.193   1.802  1.6272 -1.0445  0.3002
 4934TIP3    H214809   1.881   1.099   1.711 -1.0616  0.5700  0.7858
 4935TIP3   OH214810   0.178   1.461   2.051  0.5898 -0.6849 -0.0363
 4935TIP3    H114811   0.267   1.426   2.061  0.5327 -0.4633  1.6168
 4935TIP3    H214812   0.132   1.395   1.999  1.4041 -1.3853  0.1058
 4936TIP3   OH214813   6.021   5.506   1.145 -0.6619  0.5208  0.5653
 4936TIP3    H114814   5.933   5.468   1.137 -0.7507  0.6609  0.8662
 4936TIP3    H214815   6.029   5.563   1.068 -0.2538 -0.6371 -0.2869
 4937TIP3   OH214816   3.037   1.004   1.301  0.2584 -0.2371  0.3951
 4937TIP3    H114817   2.959   0.964   1.339  0.2820 -0.3577  0.3128
 4937TIP3    H214818   3.086   1.036   1.377 -0.2710  0.5785  0.4108
 4938TIP3   OH214819   3.436   1.135   3.328  0.8334  0.2170 -0.5761
 4938TIP3    H114820   3.411   1.130   3.236  1.7320  0.6399 -0.8536
 4938TIP3    H214821   3.378   1.072   3.372  0.4304 -0.0216 -1.4303
 4939TIP3   OH214822   3.302   1.593   1.764  0.8383  0.2867  0.3513
 4939TIP3    H114823   3.347   1.625   1.842 -0.4232  0.8916  0.8525
 4939TIP3    H214824   3.275   1.672   1.717  0.0090 -0.0537  0.2423
 4940TIP3   OH214825   4.733   4.099   1.488 -0.3408  0.4061 -0.2982
 4940TIP3    H114826   4.668   4.128   1.424  0.1686 -2.6890 -2.4550
 4940TIP3    H214827   4.812   4.147   1.466 -0.3103 -0.2489 -1.7422
 4941TIP3   OH214828   6.313   2.789   1.327  0.6012 -0.1768  0.3663
 4941TIP3    H114829   6.304   2.821   1.417 -0.1064  0.3345  0.1205
 4941TIP3    H214830   6.407   2.795   1.309  0.6053  0.7962  0.6856
 4942TIP3   OH214831   5.775   0.346   0.311 -1.0072 -0.2730  0.0078
 4942TIP3    H114832   5.770   0.294   0.391 -0.0459  0.0655  0.3036
 4942TIP3    H214833   5.719   0.422   0.329 -4.3285 -2.1770 -1.2738
 4943TIP3   OH214834   4.491   2.303   1.113  0.1949 -0.2936 -0.0461
 4943TIP3    H114835   4.479   2.290   1.019 -0.4158 -0.3672  0.0369
 4943TIP3    H214836   4.513   2.395   1.122 -1.8053  0.2377 -0.1034
 4944TIP3   OH214837   3.508   3.275   2.486 -0.5912  0.0180  0.9261
 4944TIP3    H114838   3.432   3.264   2.544 -0.0322  0.9332  1.8522
 4944TIP3    H214839   3.476   3.331   2.416 -2.0525 -3.1543 -1.2103
 4945TIP3   OH214840   2.434   2.855   5.196  0.4136 -0.1560 -0.2920
 4945TIP3    H114841   2.464   2.800   5.124  1.4382 -3.2268  2.2332
 4945TIP3    H214842   2.339   2.844   5.198  0.6588 -2.8304  0.7175
 4946TIP3   OH214843   2.654   5.101   4.316 -0.3274 -0.3146 -0.0487
 4946TIP3    H114844   2.661   5.137   4.227 -0.1326  1.4946  0.6695
 4946TIP3    H214845   2.585   5.035   4.309 -1.5851  1.0322 -1.1752
 4947TIP3   OH214846   5.469   4.664   4.065 -0.2930  0.2999 -0.1122
 4947TIP3    H114847   5.385   4.684   4.105 -0.0770  0.4110  0.2925
 4947TIP3    H214848   5.456   4.579   4.023 -0.0509 -0.6459  1.6374
 4948TIP3   OH214849   3.567   2.977   4.443 -0.2895  0.4831  0.5903
 4948TIP3    H114850   3.580   2.906   4.505  0.3051 -0.5300 -0.6429
 4948TIP3    H214851   3.612   2.948   4.363 -1.0774  1.7002 -0.3412
 4949TIP3   OH214852   1.665   3.320   4.255 -0.0783 -0.0149  0.7480
 4949TIP3    H114853   1.575   3.346   4.239 -0.4387 -1.0733  0.9392
 4949TIP3    H214854   1.718   3.387   4.212 -0.9720 -1.0480 -2.2247
 4950TIP3   OH214855   5.617   1.135   1.156 -0.7069 -0.1161 -0.2546
 4950TIP3    H114856   5.680   1.102   1.221  0.7681 -0.2722 -1.6988
 4950TIP3    H214857   5.532   1.103   1.186 -0.2346  0.6612  2.1427
 4951TIP3   OH214858   3.196   2.424   4.795 -0.1933  1.1472  0.0922
 4951TIP3    H114859   3.146   2.371   4.856 -0.2013  0.4005 -0.5414
 4951TIP3    H214860   3.236   2.493   4.849  1.2285 -0.4940  1.2431
 4952TIP3   OH214861   0.682   3.143   2.413 -0.3229  0.3003  0.2575
 4952TIP3    H114862   0.603   3.150   2.466 -1.7259  1.5250 -1.8542
 4952TIP3    H214863   0.655   3.096   2.335  0.6796  1.7816 -1.0511
 4953TIP3   OH214864   4.586   5.888   4.554 -0.5488 -0.1467 -0.2110
 4953TIP3    H114865   4.594   5.827   4.481  3.4525 -0.6283  0.3490
 4953TIP3    H214866   4.606   5.973   4.516  0.2918 -0.2152  0.0494
 4954TIP3   OH214867   2.389   4.341   1.313 -0.0553 -0.4307 -0.6976
 4954TIP3    H114868   2.472   4.344   1.266 -0.3277  1.0922 -1.1386
 4954TIP3    H214869   2.322   4.340   1.244 -0.4234 -1.4726 -0.3472
 4955TIP3   OH214870   6.029   0.415   0.494  0.5664 -0.3523  0.4237
 4955TIP3    H114871   5.977   0.349   0.448  1.7402 -1.4774  0.6558
 4955TIP3    H214872   6.007   0.403   0.586 -0.9173  1.1391  0.3218
 4956TIP3   OH214873   2.074   3.193   4.716  0.0488  0.0888 -0.5945
 4956TIP3    H114874   2.119   3.277   4.713  4.0676 -1.7823 -0.0895
 4956TIP3    H214875   2.102   3.148   4.637  0.4120 -1.7531  0.5119
 4957TIP3   OH214876   3.126   3.226   0.280  0.5371 -0.1524  0.1688
 4957TIP3    H114877   3.127   3.190   0.369  1.9924  0.2045  0.3194
 4957TIP3    H214878   3.213   3.263   0.268  0.2261  0.1749 -1.2714
 4958TIP3   OH214879   3.106   4.642   0.778  0.2763  0.2215  0.0783
 4958TIP3    H114880   3.019   4.665   0.809 -0.2654 -0.7506 -0.6904
 4958TIP3    H214881   3.135   4.571   0.837 -0.1845 -0.6651 -0.7427
 4959TIP3   OH214882   3.123   3.473   3.276 -0.2292 -0.0271  0.2798
 4959TIP3    H114883   3.090   3.385   3.256  2.1294 -0.4416 -2.5503
 4959TIP3    H214884   3.140   3.471   3.370 -1.3841 -2.1616  0.5276
 4960TIP3   OH214885   4.158   2.967   3.984 -0.3492  0.1291  0.2613
 4960TIP3    H114886   4.239   2.946   3.938 -0.2855  1.8784 -0.5235
 4960TIP3    H214887   4.093   2.908   3.947  0.1156  0.2271 -0.7450
 4961TIP3   OH214888   4.424   2.108   2.150  0.4331 -0.3178  0.0244
 4961TIP3    H114889   4.452   2.084   2.238 -2.4258  2.1815  1.8277
 4961TIP3    H214890   4.480   2.183   2.127 -0.3382  0.5143  0.7841
 4962TIP3   OH214891   2.452   5.112   1.382 -0.0395 -0.0466  0.4498
 4962TIP3    H114892   2.422   5.043   1.441 -1.7654 -0.5729 -0.9354
 4962TIP3    H214893   2.394   5.186   1.401 -1.2428 -0.5206 -1.1274
 4963TIP3   OH214894   0.527   0.506   1.108 -0.0228  0.2873  0.0995
 4963TIP3    H114895   0.588   0.501   1.181 -0.7777  1.5546  0.8463
 4963TIP3    H214896   0.441   0.506   1.148 -0.6084 -2.0020 -0.9584
 4964TIP3   OH214897   3.456   5.923   1.768 -0.2125 -0.0106 -0.8517
 4964TIP3    H114898   3.424   5.842   1.728 -3.3629  0.8872 -0.3918
 4964TIP3    H214899   3.407   5.931   1.849  1.9197  1.1131  0.4149
 4965TIP3   OH214900   1.804   2.552   3.568  0.0946  0.1804  0.1582
 4965TIP3    H114901   1.887   2.555   3.520  0.8176  1.9888  1.3948
 4965TIP3    H214902   1.804   2.633   3.619 -1.5849 -0.6819  1.6103
 4966TIP3   OH214903   2.779   3.444   3.087  0.4420 -0.2758 -0.7046
 4966TIP3    H114904   2.823   3.502   3.149  1.4927 -1.3179 -0.4481
 4966TIP3    H214905   2.721   3.502   3.037 -3.3045  0.2357  3.5707
 4967TIP3   OH214906   5.408   2.906   2.768 -0.1388 -0.3998  0.3176
 4967TIP3    H114907   5.462   2.943   2.837 -0.3331  2.5260 -0.9259
 4967TIP3    H214908   5.449   2.936   2.687 -1.2271 -1.7161 -0.7652
 4968TIP3   OH214909   2.154   3.869   3.618 -0.0763 -0.4286 -0.1463
 4968TIP3    H114910   2.208   3.921   3.678 -0.2659 -1.0771  0.5994
 4968TIP3    H214911   2.173   3.905   3.531  1.1518 -0.2898  0.1630
 4969TIP3   OH214912   5.059   2.501   0.081  0.0601  1.2644  0.4526
 4969TIP3    H114913   4.977   2.453   0.084  0.7546  0.0418  0.5400
 4969TIP3    H214914   5.037   2.584   0.040 -1.2594  1.0478  0.6935
 4970TIP3   OH214915   3.365   5.485   4.642  0.4896  0.2685 -0.2750
 4970TIP3    H114916   3.347   5.495   4.549 -2.2500  1.3049  0.2705
 4970TIP3    H214917   3.363   5.574   4.677  4.6378  0.3052  0.4355
 4971TIP3   OH214918   2.446   2.498   2.914 -0.0270 -0.8191 -0.5645
 4971TIP3    H114919   2.386   2.424   2.898 -0.2139 -0.4037 -2.0149
 4971TIP3    H214920   2.491   2.476   2.995 -2.3301 -1.0362  0.7510
 4972TIP3   OH214921   1.041   1.981   3.397  0.0229 -0.2727  0.6885
 4972TIP3    H114922   1.040   1.941   3.310 -0.0317 -0.0365  0.5787
 4972TIP3    H214923   1.115   1.940   3.442 -0.1782 -0.6685  0.6617
 4973TIP3   OH214924   5.937   4.773   0.089 -0.4499  0.2904  0.8958
 4973TIP3    H114925   5.862   4.796   0.034  0.7324  1.7194 -0.2125
 4973TIP3    H214926   5.956   4.853   0.138  1.5273  0.6468 -0.3303
 4974TIP3   OH214927   1.208   4.625   2.021  0.1276  0.1517 -0.0732
 4974TIP3    H114928   1.138   4.606   1.959  0.8341 -1.6013 -0.4044
 4974TIP3    H214929   1.167   4.617   2.107 -0.1282 -0.6862 -0.2682
 4975TIP3   OH214930   2.286   4.456   4.335 -0.5155  0.3670 -0.1477
 4975TIP3    H114931   2.235   4.478   4.413  0.2698 -2.3053  1.2372
 4975TIP3    H214932   2.231   4.484   4.261 -2.8423 -0.1180  1.3151
 4976TIP3   OH214933   4.861   4.176   2.424 -0.2189  0.3256  0.0307
 4976TIP3    H114934   4.858   4.268   2.395  1.0121  0.6223  0.7824
 4976TIP3    H214935   4.931   4.174   2.489 -1.8157 -0.6402  1.8112
 4977TIP3   OH214936   3.266   5.730   0.534  0.7807 -0.6854  0.0254
 4977TIP3    H114937   3.342   5.684   0.499  1.1502 -0.9058  1.0737
 4977TIP3    H214938   3.204   5.660   0.555  1.1620 -0.6941  1.1961
 4978TIP3   OH214939   2.366   5.630   2.121 -0.6608 -0.0077 -0.3717
 4978TIP3    H114940   2.442   5.670   2.081 -0.7519  0.9901  0.4180
 4978TIP3    H214941   2.391   5.618   2.213 -0.7474 -1.4995 -0.5111
 4979TIP3   OH214942   2.568   0.941   0.019 -0.5204  0.3021 -0.3217
 4979TIP3    H114943   2.535   0.902  -0.062  0.6068  0.2126 -0.7543
 4979TIP3    H214944   2.490   0.974   0.063 -1.1881  0.0593 -1.2871
 4980TIP3   OH214945   1.901   2.614   2.048  0.2170  0.1196 -0.0553
 4980TIP3    H114946   1.985   2.631   2.005  0.1630 -0.4784 -0.4141
 4980TIP3    H214947   1.892   2.519   2.045  0.1449  0.0684  1.1744
 4981TIP3   OH214948   5.080   5.432   5.005 -0.1956 -0.4986 -0.4946
 4981TIP3    H114949   5.068   5.500   5.071 -0.8068 -1.3208  0.2625
 4981TIP3    H214950   5.084   5.480   4.922  1.6703  0.6342  0.2028
 4982TIP3   OH214951   5.135   2.810   1.905 -0.0897 -0.1148 -0.2412
 4982TIP3    H114952   5.219   2.838   1.869 -0.7813  1.0241 -1.0498
 4982TIP3    H214953   5.129   2.853   1.990 -1.8863  3.9594 -2.1486
 4983TIP3   OH214954   2.499   0.640   2.992  0.4983  0.0975 -0.0844
 4983TIP3    H114955   2.553   0.593   2.929 -0.0451 -0.5526 -0.0747
 4983TIP3    H214956   2.561   0.679   3.053  1.0360  0.8008 -1.0636
 4984TIP3   OH214957   0.250   3.461   4.762 -0.3608 -0.7619 -0.4105
 4984TIP3    H114958   0.246   3.377   4.717 -0.1353 -0.3735 -1.1566
 4984TIP3    H214959   0.165   3.470   4.804 -1.0545 -0.5311 -1.8324
 4985TIP3   OH214960   3.867   0.761   5.167 -0.3147  0.2153 -0.2586
 4985TIP3    H114961   3.785   0.782   5.122  0.1988  0.6326 -1.0238
 4985TIP3    H214962   3.931   0.820   5.129  0.4667 -0.4934 -0.0721
 4986TIP3   OH214963   5.086   4.213   2.547  0.3669 -0.1826 -0.2726
 4986TIP3    H114964   5.123   4.164   2.474  1.0449 -0.1631  0.0476
 4986TIP3    H214965   5.162   4.250   2.592 -0.1245  0.9758 -0.3751
 4987TIP3   OH214966   3.867   2.955   3.659  0.0284  0.2138  0.0056
 4987TIP3    H114967   3.851   3.048   3.676 -1.6742 -0.2561  1.3658
 4987TIP3    H214968   3.843   2.912   3.742  0.0278 -1.4913 -0.8415
 4988TIP3   OH214969   4.685   1.211   0.900  0.0282  0.0177 -0.2476
 4988TIP3    H114970   4.705   1.231   0.809  0.3365 -2.5780 -0.8297
 4988TIP3    H214971   4.602   1.164   0.897  1.2966 -2.4264  0.4465
 4989TIP3   OH214972   5.274   0.268   3.635  0.1317 -0.0852 -0.0809
 4989TIP3    H114973   5.179   0.278   3.644  0.1534 -0.4266  0.6022
 4989TIP3    H214974   5.307   0.283   3.724  0.7224  0.0796 -0.3271
 4990TIP3   OH214975   0.121   5.119   2.727  0.2902 -0.6208  0.3164
 4990TIP3    H114976   0.132   5.028   2.756  2.9041 -0.2743  0.6641
 4990TIP3    H214977   0.103   5.168   2.807 -3.2453 -0.9941 -0.0953
 4991TIP3   OH214978   5.056   1.318   1.903  0.0351 -0.0892 -0.0597
 4991TIP3    H114979   4.973   1.299   1.947 -0.2956 -2.2951 -1.5180
 4991TIP3    H214980   5.033   1.383   1.837 -1.0962 -2.2889 -1.9554
 4992TIP3   OH214981   5.191   0.366   2.760 -0.1785  0.0836 -0.2537
 4992TIP3    H114982   5.170   0.311   2.835  0.6075  0.4565  0.2486
 4992TIP3    H214983   5.215   0.450   2.798 -0.7619  0.5904 -0.9818
 4993TIP3   OH214984   5.611   0.705   1.044 -0.3599 -0.0809  0.1238
 4993TIP3    H114985   5.681   0.718   0.979 -0.9356  0.5279 -0.3971
 4993TIP3    H214986   5.636   0.761   1.117 -0.2293  0.0261 -0.0017
 4994TIP3   OH214987   4.176   3.993   0.271 -0.5080 -0.1074 -0.3205
 4994TIP3    H114988   4.241   3.949   0.218 -0.8240 -1.0261  0.0430
 4994TIP3    H214989   4.199   3.971   0.361 -0.6381  0.5141 -0.1281
 4995TIP3   OH214990   0.113   2.229   4.953  0.0308 -0.1966  0.6812
 4995TIP3    H114991   0.190   2.244   4.898 -0.6161  1.4582  0.1431
 4995TIP3    H214992   0.135   2.152   5.005  0.2123 -2.6692 -2.7265
 4996TIP3   OH214993   5.478   1.234   0.162 -0.0859  0.2090 -0.0282
 4996TIP3    H114994   5.439   1.245   0.249  0.1707  0.2015  0.0890
 4996TIP3    H214995   5.440   1.152   0.130 -0.5737  0.4709 -0.1370
 4997TIP3   OH214996   2.415   2.938   2.622 -0.0973 -0.7191 -0.3683
 4997TIP3    H114997   2.491   2.962   2.570 -1.0789 -0.9563 -1.9863
 4997TIP3    H214998   2.440   2.856   2.665  0.6562 -0.6377 -0.6445
 4998TIP3   OH214999   5.998   5.719   4.661 -0.3607 -0.2733  0.1072
 4998TIP3    H115000   6.048   5.800   4.670 -0.3903 -0.1427 -0.7891
 4998TIP3    H215001   6.039   5.675   4.586 -0.2657 -1.1441  0.6556
 4999TIP3   OH215002   4.580   0.727   3.306  0.3292  0.4548 -0.7114
 4999TIP3    H115003   4.643   0.726   3.378  0.2793  0.4827 -0.6665
 4999TIP3    H215004   4.495   0.737   3.349  0.1670 -0.9135 -0.6780
 5000TIP3   OH215005   2.636   5.815   0.658 -0.1112 -0.1170 -0.7632
 5000TIP3    H115006   2.581   5.843   0.731  0.6862 -0.1008 -0.1548
 5000TIP3    H215007   2.599   5.859   0.581  0.1726  1.3810 -0.0817
 5001TIP3   OH215008   2.105   3.423   1.465 -0.2795 -0.3160 -0.6882
 5001TIP3    H115009   2.179   3.387   1.415 -0.9381 -0.7418 -1.3803
 5001TIP3    H215010   2.028   3.390   1.420 -0.9398 -2.0171  1.5174
 5002TIP3   OH215011   2.934   2.176   2.511 -0.3619 -0.0325 -0.3237
 5002TIP3    H115012   2.867   2.117   2.546 -2.4182  1.9474 -0.6515
 5002TIP3    H215013   2.975   2.215   2.588 -0.1395 -0.6508 -0.1240
 5003TIP3   OH215014   2.668   3.525   3.547 -0.2349 -0.5158 -0.3638
 5003TIP3    H115015   2.735   3.458   3.536  1.6118  1.2698 -0.5829
 5003TIP3    H215016   2.648   3.524   3.640  0.6585 -0.5866 -0.1648
 5004TIP3   OH215017   5.874   4.747   3.120  0.3710 -0.1467 -0.0793
 5004TIP3    H115018   5.970   4.750   3.109  0.2845  0.2899 -0.8334
 5004TIP3    H215019   5.843   4.825   3.074 -0.3432 -0.2079  0.2885
 5005TIP3   OH215020   4.765   4.452   0.285  0.3227 -0.3194  0.1041
 5005TIP3    H115021   4.792   4.472   0.375  1.3166 -1.9595  0.2195
 5005TIP3    H215022   4.846   4.455   0.234  0.1301 -1.4944 -0.3051
 5006TIP3   OH215023   2.380   4.919   1.557  0.7550  0.1120 -0.5957
 5006TIP3    H115024   2.341   4.865   1.626  1.1063  1.2516  0.5235
 5006TIP3    H215025   2.305   4.952   1.508  0.4903 -0.5406 -0.6389
 5007TIP3   OH215026   0.497   1.190   4.805 -0.2807 -0.1478 -0.2112
 5007TIP3    H115027   0.509   1.112   4.751  0.0617  0.9943 -1.8606
 5007TIP3    H215028   0.575   1.192   4.860 -0.6074 -1.3040  0.3311
 5008TIP3   OH215029   4.367   4.214   3.945 -0.1385  0.2426  0.0909
 5008TIP3    H115030   4.367   4.226   4.040 -0.6720 -0.0298  0.1309
 5008TIP3    H215031   4.330   4.296   3.911  0.2751  0.4370  0.0986
 5009TIP3   OH215032   3.703   1.726   4.797  0.6729 -0.5333  0.0274
 5009TIP3    H115033   3.768   1.740   4.728  1.0108 -0.1730  0.4167
 5009TIP3    H215034   3.750   1.683   4.867  0.5388 -0.1106  0.3841
 5010TIP3   OH215035   0.129   0.389   3.950  0.5739 -0.2747 -0.1773
 5010TIP3    H115036   0.092   0.441   3.879  0.1412 -0.5486 -0.1559
 5010TIP3    H215037   0.157   0.307   3.909 -0.1475 -0.6434  0.0482
 5011TIP3   OH215038   5.080   4.599   3.167  0.4746  0.1817 -0.1460
 5011TIP3    H115039   5.031   4.672   3.205  2.0247  1.2227 -0.0834
 5011TIP3    H215040   5.013   4.532   3.149 -0.8470  1.2564  0.6172
 5012TIP3   OH215041   0.136   4.814   0.264 -0.0382  0.0102 -0.0605
 5012TIP3    H115042   0.170   4.874   0.197  0.9311 -0.0424  0.3696
 5012TIP3    H215043   0.041   4.828   0.263  0.1068  1.0252 -0.4600
 5013TIP3   OH215044   4.183   5.068   0.911  0.4118 -0.0607  0.6655
 5013TIP3    H115045   4.129   5.130   0.960 -0.3720 -0.4373  0.3015
 5013TIP3    H215046   4.185   5.104   0.822  0.6554 -0.1209  0.6453
 5014TIP3   OH215047   1.196   0.575   0.512  1.0470 -0.3412 -0.4931
 5014TIP3    H115048   1.224   0.513   0.444  0.3155 -0.6362 -0.5361
 5014TIP3    H215049   1.265   0.570   0.578 -0.2736 -3.4011  0.8997
 5015TIP3   OH215050   0.765   1.746   3.282 -0.2955  0.0226 -0.1551
 5015TIP3    H115051   0.852   1.719   3.312 -0.5179  0.0838  0.5776
 5015TIP3    H215052   0.781   1.810   3.213  0.2434 -1.0507 -1.0627
 5016TIP3   OH215053   4.791   5.696   1.147  0.3783  0.0060 -0.1246
 5016TIP3    H115054   4.814   5.682   1.238  2.8019  1.1477 -0.4730
 5016TIP3    H215055   4.703   5.734   1.149  1.1260  1.8001  1.8994
 5017TIP3   OH215056   5.158   0.886   4.632  0.2636 -0.1232 -0.2837
 5017TIP3    H115057   5.204   0.942   4.569  0.5956 -0.3905 -0.2860
 5017TIP3    H215058   5.087   0.941   4.666  1.4913  0.8466  0.8451
 5018TIP3   OH215059   2.451   4.944   4.202 -0.5112  0.3954  0.1903
 5018TIP3    H115060   2.521   4.883   4.178 -1.1950 -0.1566 -0.4516
 5018TIP3    H215061   2.453   5.012   4.135  0.0418  0.9241  0.7276
 5019TIP3   OH215062   0.378   0.280   5.011 -0.6965  0.9727  0.7969
 5019TIP3    H115063   0.328   0.243   5.084  0.8321  1.6644  2.2691
 5019TIP3    H215064   0.468   0.250   5.027 -0.7211 -1.6016 -2.6337
 5020TIP3   OH215065   3.408   2.488   2.619  0.1651 -0.3361  0.7548
 5020TIP3    H115066   3.320   2.451   2.615 -0.7370  1.7133 -0.0527
 5020TIP3    H215067   3.447   2.466   2.534 -0.7744  1.4002 -0.1733
 5021TIP3   OH215068   0.356   2.916   2.352  0.2880  0.5069 -0.6096
 5021TIP3    H115069   0.312   2.862   2.286 -0.2842 -0.2168  0.3313
 5021TIP3    H215070   0.431   2.953   2.307  1.8834 -2.6505 -0.8293
 5022TIP3   OH215071   5.647   3.997   2.329  0.3091  0.1520  0.5118
 5022TIP3    H115072   5.609   4.074   2.370  0.5613 -0.1405  1.3163
 5022TIP3    H215073   5.742   4.013   2.332  0.2984  1.1733 -2.0521
 5023TIP3   OH215074   6.111   3.941   4.304  0.1106 -0.2170 -0.4633
 5023TIP3    H115075   6.178   3.908   4.245  0.1821 -0.4721 -0.2405
 5023TIP3    H215076   6.038   3.964   4.246 -0.4128 -1.9289 -0.5221
 5024TIP3   OH215077   0.418   0.999   0.658  0.6006  0.3885 -0.6213
 5024TIP3    H115078   0.407   1.073   0.718  1.8491  0.1231 -0.0383
 5024TIP3    H215079   0.471   1.034   0.586  1.5563 -0.0380 -0.1349
 5025TIP3   OH215080   3.401   5.449   3.143  0.4152  0.5727 -0.1806
 5025TIP3    H115081   3.326   5.486   3.097 -0.6449  1.0973  1.8418
 5025TIP3    H215082   3.387   5.355   3.140 -1.9210  0.6853  2.4470
 5026TIP3   OH215083   4.105   1.076   4.489 -0.1338 -0.2649  0.0887
 5026TIP3    H115084   4.170   1.125   4.539 -0.2918 -1.0298  1.0907
 5026TIP3    H215085   4.027   1.132   4.488  0.4838  0.6055 -1.0204
 5027TIP3   OH215086   1.096   0.216   3.932  0.0630  0.1982 -0.2994
 5027TIP3    H115087   1.150   0.245   4.005 -1.0787  1.0350  0.2467
 5027TIP3    H215088   1.149   0.235   3.854  0.1973  1.9167  0.1587
 5028TIP3   OH215089   0.448   2.813   4.146 -0.7283  0.0050  0.0880
 5028TIP3    H115090   0.479   2.851   4.229  0.1322  1.4174 -0.8497
 5028TIP3    H215091   0.491   2.728   4.141 -0.6144 -0.0010  0.9874
 5029TIP3   OH215092   3.526   4.627   5.005 -0.0042 -0.1155 -0.2632
 5029TIP3    H115093   3.476   4.661   5.079 -0.7083 -0.1735 -0.7037
 5029TIP3    H215094   3.542   4.535   5.027  1.3842  0.3293  0.6522
 5030TIP3   OH215095   2.591   3.821   5.020  0.5939  0.0583 -0.1599
 5030TIP3    H115096   2.512   3.769   5.033  0.7838 -0.2463 -0.2026
 5030TIP3    H215097   2.579   3.898   5.075  0.4415 -0.1810  0.1428
 5031TIP3   OH215098   1.763   2.147   3.096  0.2992  0.1691  0.6297
 5031TIP3    H115099   1.766   2.103   3.181  2.6702 -0.6826  0.2028
 5031TIP3    H215100   1.781   2.239   3.117 -1.8788  0.4894  1.2643
 5032TIP3   OH215101   4.798   0.344   2.821 -0.0913 -0.3766  0.1601
 5032TIP3    H115102   4.876   0.339   2.877 -0.6627 -0.0033  0.9966
 5032TIP3    H215103   4.745   0.268   2.847 -0.6946  0.2015  0.6506
 5033TIP3   OH215104   3.054   0.523   4.760  0.1677  0.1597 -0.1225
 5033TIP3    H115105   2.974   0.502   4.808  1.5669  1.1954  2.8600
 5033TIP3    H215106   3.041   0.612   4.728 -0.2812 -0.0879 -0.6553
 5034TIP3   OH215107   4.018   5.359   1.041 -0.0129 -0.2041 -0.3631
 5034TIP3    H115108   4.088   5.403   0.992 -0.1229  0.2063 -0.1591
 5034TIP3    H215109   3.943   5.361   0.981 -0.1326  0.2533 -0.2083
 5035TIP3   OH215110   2.048   2.131   4.122  0.1320 -0.3252  0.0236
 5035TIP3    H115111   2.053   2.162   4.213  2.3708 -1.1394  0.2424
 5035TIP3    H215112   2.101   2.052   4.121  1.0664  0.2614 -2.2329
 5036TIP3   OH215113   3.236   2.860   0.602  0.3698  0.5691  0.4835
 5036TIP3    H115114   3.284   2.850   0.520 -0.8605  0.5284 -0.2553
 5036TIP3    H215115   3.196   2.774   0.617 -0.8693  1.0701  0.1668
 5037TIP3   OH215116   1.600   0.308   4.642 -0.2717 -0.0966  0.4491
 5037TIP3    H115117   1.558   0.356   4.713 -0.3067  0.2238  0.2138
 5037TIP3    H215118   1.636   0.375   4.585  1.4095 -0.3834  1.1321
 5038TIP3   OH215119   1.128   3.295   1.397 -0.2613  0.2950  0.3400
 5038TIP3    H115120   1.089   3.380   1.377  0.3851  0.3707 -0.7151
 5038TIP3    H215121   1.054   3.235   1.407 -0.6947  0.7998  0.1760
 5039TIP3   OH215122   5.086   5.572   1.811  0.0948  0.1624 -0.2076
 5039TIP3    H115123   5.064   5.529   1.893  0.0884  0.6716  0.0640
 5039TIP3    H215124   5.072   5.506   1.744  1.2990 -0.6633  0.3119
 5040TIP3   OH215125   3.729   5.942   2.554 -0.1973 -0.0022 -0.0433
 5040TIP3    H115126   3.803   5.886   2.532 -1.3737 -0.6066 -2.8761
 5040TIP3    H215127   3.770   6.024   2.585  1.5671 -1.0494  0.5678
 5041TIP3   OH215128   1.508   4.224   0.703  0.1673  0.5834  0.0908
 5041TIP3    H115129   1.525   4.214   0.610  0.0989  0.0334  0.1362
 5041TIP3    H215130   1.422   4.265   0.707  1.2614  3.0774 -0.1309
 5042TIP3   OH215131   0.407   2.388   1.811  0.2319  0.3279  0.5270
 5042TIP3    H115132   0.492   2.421   1.782 -0.4596  0.8650 -1.0239
 5042TIP3    H215133   0.398   2.303   1.769  0.4216 -0.1968  1.5206
 5043TIP3   OH215134   2.964   2.530   0.393  0.1106  0.0586  0.2083
 5043TIP3    H115135   3.013   2.590   0.337  0.3670 -0.3443 -0.0026
 5043TIP3    H215136   2.972   2.568   0.481  0.0448  0.4742  0.0357
 5044TIP3   OH215137   5.257   1.283   1.219  0.3379 -0.1542 -0.1514
 5044TIP3    H115138   5.272   1.188   1.222 -0.3590 -0.2458  0.5754
 5044TIP3    H215139   5.168   1.292   1.188  1.0151  0.3321 -2.0641
 5045TIP3   OH215140   2.729   0.410   3.641  0.5013 -0.1212  0.2362
 5045TIP3    H115141   2.730   0.380   3.732 -0.5458  1.4516  0.7924
 5045TIP3    H215142   2.656   0.363   3.601 -0.4489  0.8272  0.8181
 5046TIP3   OH215143   0.169   2.399   0.085  0.0796 -0.1574 -0.1417
 5046TIP3    H115144   0.096   2.413   0.145 -1.9536  0.5444 -2.5906
 5046TIP3    H215145   0.187   2.485   0.048  1.5037 -0.4994 -0.2956
 5047TIP3   OH215146   4.887   5.824   0.540 -0.0514  0.4729 -0.6896
 5047TIP3    H115147   4.833   5.903   0.537  0.1728  0.6421 -0.2503
 5047TIP3    H215148   4.825   5.752   0.528 -0.6651  0.5337  1.6693
 5048TIP3   OH215149   0.426   1.583   4.909 -0.2192  0.0068  0.1270
 5048TIP3    H115150   0.348   1.545   4.948  0.6606 -3.0598 -0.7802
 5048TIP3    H215151   0.410   1.579   4.815  1.5073 -2.1736 -0.1711
 5049TIP3   OH215152   0.156   3.473   3.021 -0.0051  0.2381 -0.1571
 5049TIP3    H115153   0.241   3.432   3.034 -0.7186 -1.0666  0.7334
 5049TIP3    H215154   0.125   3.492   3.110 -0.7203  0.5019 -0.4529
 5050TIP3   OH215155   4.975   2.182   0.832 -0.1090  0.9569 -0.1045
 5050TIP3    H115156   4.980   2.275   0.807  1.1734  0.9855  0.1894
 5050TIP3    H215157   4.983   2.183   0.927  3.4338  0.4011 -0.2750
 5051TIP3   OH215158   0.691   0.359   4.224  0.4972 -0.1179 -0.1575
 5051TIP3    H115159   0.759   0.372   4.291  0.5019 -1.4199  0.1108
 5051TIP3    H215160   0.656   0.272   4.242  0.8901 -0.7654 -2.1976
 5052TIP3   OH215161   2.251   0.842   0.537 -0.5438 -0.1439 -0.0347
 5052TIP3    H115162   2.334   0.829   0.491 -1.1168 -0.4051 -1.0303
 5052TIP3    H215163   2.262   0.927   0.582 -0.5563  0.9832 -2.0425
 5053TIP3   OH215164   1.872   3.231   0.104 -0.6371 -0.5765 -0.3441
 5053TIP3    H115165   1.818   3.310   0.111 -0.7144 -0.6007 -0.6629
 5053TIP3    H215166   1.914   3.223   0.190 -0.2352  0.0924 -0.4725
 5054TIP3   OH215167   0.230   3.302   1.762 -0.2607 -0.2338 -0.0431
 5054TIP3    H115168   0.250   3.319   1.854  1.8136 -0.6127 -0.3738
 5054TIP3    H215169   0.135   3.312   1.756 -0.2573  1.6230  1.7525
 5055TIP3   OH215170   4.251   2.973   2.626 -0.3827  0.0410  0.0308
 5055TIP3    H115171   4.259   3.025   2.706  0.5748  1.2213 -0.7913
 5055TIP3    H215172   4.337   2.934   2.615 -1.1712 -2.0724  0.8071
 5056TIP3   OH215173   3.722   4.428   3.245 -0.4717 -0.0775  0.1509
 5056TIP3    H115174   3.812   4.423   3.213 -0.1280 -0.6537  1.1687
 5056TIP3    H215175   3.699   4.521   3.239 -0.5878 -0.1906 -2.1413
 5057TIP3   OH215176   2.591   1.680   3.501  0.7278  0.5772  0.0331
 5057TIP3    H115177   2.651   1.747   3.470  0.1397 -0.2613 -3.4263
 5057TIP3    H215178   2.646   1.603   3.515  0.7608  0.2443 -1.6421
 5058TIP3   OH215179   5.059   0.789   2.737 -0.6227  0.1868  0.2078
 5058TIP3    H115180   5.002   0.719   2.708  1.9069 -1.5930 -0.8596
 5058TIP3    H215181   5.077   0.770   2.829 -0.5723 -0.1069  0.1360
 5059TIP3   OH215182   5.084   3.020   4.533  0.3616  0.1226  0.1450
 5059TIP3    H115183   5.119   2.935   4.506 -0.3407  0.1897 -1.0754
 5059TIP3    H215184   5.095   3.022   4.628  0.1642 -1.4261  0.2206
 5060TIP3   OH215185   5.454   3.799   0.282  0.0730 -0.1342 -0.1080
 5060TIP3    H115186   5.501   3.740   0.223 -1.1716  0.1240 -1.4079
 5060TIP3    H215187   5.467   3.886   0.245 -1.6069 -0.0834 -0.6689
 5061TIP3   OH215188   5.324   1.167   3.755 -0.8272  0.0762  0.1798
 5061TIP3    H115189   5.229   1.179   3.760 -0.9420 -0.4029 -0.6874
 5061TIP3    H215190   5.354   1.232   3.693 -0.3858  1.1434  1.4694
 5062TIP3   OH215191   0.817   2.665   3.010 -0.0378  0.3743 -0.8307
 5062TIP3    H115192   0.801   2.597   2.945  0.0242  0.1258 -0.5925
 5062TIP3    H215193   0.737   2.717   3.011  0.7357  1.6993 -2.6317
 5063TIP3   OH215194   1.914   1.150   2.191 -0.2352 -0.2945 -0.0803
 5063TIP3    H115195   1.913   1.056   2.209 -0.8104 -0.2125  0.3219
 5063TIP3    H215196   1.940   1.191   2.273 -3.0549  0.0927  0.7333
 5064TIP3   OH215197   4.626   1.140   4.596 -0.1098 -0.6394  0.4798
 5064TIP3    H115198   4.605   1.048   4.582  0.8132 -0.9378  0.9833
 5064TIP3    H215199   4.639   1.148   4.690  0.1061 -0.0542  0.4063
 5065TIP3   OH215200   0.121   2.880   4.633  0.5514 -0.0747  0.2905
 5065TIP3    H115201   0.053   2.917   4.689 -0.4008 -0.1060 -0.8073
 5065TIP3    H215202   0.076   2.813   4.582  1.5836 -0.6278  0.0776
 5066TIP3   OH215203   0.405   1.870   3.217 -0.4318  0.1451  0.4831
 5066TIP3    H115204   0.435   1.880   3.307 -1.9677 -1.2929  1.1972
 5066TIP3    H215205   0.311   1.855   3.224 -0.6640  0.4366 -1.4031
 5067TIP3   OH215206   2.662   0.150   2.552  0.1976 -0.4312  0.1023
 5067TIP3    H115207   2.607   0.099   2.612  1.7055 -1.2335  0.8484
 5067TIP3    H215208   2.633   0.122   2.465 -0.9955 -0.3674  0.4510
 5068TIP3   OH215209   4.536   0.597   3.044 -0.7540  0.5368 -0.0906
 5068TIP3    H115210   4.570   0.633   3.126 -1.4934  1.7260 -0.2833
 5068TIP3    H215211   4.509   0.673   2.994  0.1058 -0.1355 -1.6536
 5069TIP3   OH215212   5.135   5.696   1.416  0.0444  0.3266 -0.0981
 5069TIP3    H115213   5.221   5.737   1.413  0.8796 -1.3831 -1.9294
 5069TIP3    H215214   5.088   5.733   1.341  0.0789 -0.5021 -0.5430
 5070TIP3   OH215215   0.159   1.565   4.935  0.6170 -0.1987 -0.1768
 5070TIP3    H115216   0.088   1.628   4.921 -0.4176 -1.3765 -0.4527
 5070TIP3    H215217   0.115   1.489   4.973  1.5312 -1.4031 -1.4303
 5071TIP3   OH215218   1.274   3.703   5.030  0.4151 -0.2819 -1.3892
 5071TIP3    H115219   1.332   3.651   5.085 -0.2090  1.3757  1.0212
 5071TIP3    H215220   1.320   3.786   5.018 -1.8527  1.7320  1.9758
 5072TIP3   OH215221   3.799   4.048   0.004 -0.3652 -0.4656 -0.1646
 5072TIP3    H115222   3.769   4.041   0.094 -1.2331  0.2280 -0.3789
 5072TIP3    H215223   3.846   4.132   0.000  0.3444 -0.8583 -0.1791
 5073TIP3   OH215224   1.897   1.490   4.794 -0.0737 -0.2735 -0.6553
 5073TIP3    H115225   1.970   1.500   4.856 -0.5865  0.3686 -0.1450
 5073TIP3    H215226   1.934   1.438   4.723  0.5165 -1.0616  0.2054
 5074TIP3   OH215227   6.124   0.287   4.478 -0.1357  0.3143 -0.0998
 5074TIP3    H115228   6.200   0.233   4.498 -0.0782  0.0072 -1.1095
 5074TIP3    H215229   6.060   0.226   4.442 -0.1131  0.8911 -1.1467
 5075TIP3   OH215230   0.655   2.393   2.904 -0.2106 -0.5390  0.2041
 5075TIP3    H115231   0.576   2.418   2.953  0.2675  1.0552  0.2198
 5075TIP3    H215232   0.625   2.383   2.814 -0.6967 -1.4436  0.4461
 5076TIP3   OH215233   1.152   2.442   4.862  0.1566  0.1781  0.9025
 5076TIP3    H115234   1.238   2.428   4.902  1.5311  1.9472 -1.1670
 5076TIP3    H215235   1.171   2.492   4.782 -2.9399  1.8257  1.0401
 5077TIP3   OH215236   2.557   4.324   5.033  0.3274  0.4565 -0.5048
 5077TIP3    H115237   2.565   4.417   5.013 -0.9392  0.2903 -1.9154
 5077TIP3    H215238   2.484   4.294   4.980 -0.3139 -1.0207  1.1116
 5078TIP3   OH215239   6.160   3.803   3.934  0.1020  0.0920 -0.1579
 5078TIP3    H115240   6.085   3.768   3.885 -1.4521  0.3475  1.9392
 5078TIP3    H215241   6.163   3.895   3.910 -1.6545  0.5925  1.3268
 5079TIP3   OH215242   3.402   3.915   3.419 -0.1298 -0.2394 -0.0565
 5079TIP3    H115243   3.439   3.827   3.418 -0.2221 -0.2763 -0.1683
 5079TIP3    H215244   3.461   3.966   3.364 -1.8248 -0.9329 -2.6707
 5080TIP3   OH215245   4.569   3.966   1.993  0.3251 -0.2218  0.5411
 5080TIP3    H115246   4.572   4.022   1.916  0.1304 -0.8992  0.0315
 5080TIP3    H215247   4.651   3.983   2.039  0.7903 -0.3572 -0.2144
 5081TIP3   OH215248   2.229   1.205   2.514 -0.1214 -0.4640  0.4140
 5081TIP3    H115249   2.136   1.218   2.495  0.1795 -0.0604 -0.8761
 5081TIP3    H215250   2.246   1.113   2.491 -0.1908 -0.5369  0.6473
 5082TIP3   OH215251   4.776   0.693   3.489  0.2839 -0.1611  0.1495
 5082TIP3    H115252   4.742   0.606   3.470 -0.0242 -0.3273  1.4050
 5082TIP3    H215253   4.870   0.686   3.473  0.1523 -0.4973 -0.5228
 5083TIP3   OH215254   5.671   3.684   0.139 -0.1690  0.0552  0.0046
 5083TIP3    H115255   5.685   3.592   0.117  0.1074  0.3356 -1.0178
 5083TIP3    H215256   5.756   3.713   0.172 -0.4009 -0.1865  0.8402
 5084TIP3   OH215257   6.321   0.257   1.989 -0.3215 -0.0655 -0.2064
 5084TIP3    H115258   6.243   0.275   2.040  0.0275  0.4578  0.1524
 5084TIP3    H215259   6.296   0.273   1.899 -0.5608  0.3182 -0.0694
 5085TIP3   OH215260   5.161   3.859   2.251  0.1452 -0.1534 -0.3620
 5085TIP3    H115261   5.147   3.783   2.308  0.0172 -0.7708 -1.2042
 5085TIP3    H215262   5.216   3.918   2.303  0.1560 -0.7682  0.3409
 5086TIP3   OH215263   4.508   0.688   3.740  0.2572 -0.2211 -0.4625
 5086TIP3    H115264   4.493   0.613   3.682  1.4248 -0.8245 -0.0258
 5086TIP3    H215265   4.426   0.737   3.739 -0.2872 -1.1300 -1.3127
 5087TIP3   OH215266   4.573   4.065   0.210  0.2078 -0.8423 -0.6456
 5087TIP3    H115267   4.576   4.055   0.305  3.1428 -1.9617 -0.7532
 5087TIP3    H215268   4.604   4.154   0.195 -1.6235 -0.1456 -0.5745
 5088TIP3   OH215269   5.195   4.332   0.688 -0.0965  0.2014 -0.1881
 5088TIP3    H115270   5.270   4.274   0.673  0.2377  0.4211  0.5758
 5088TIP3    H215271   5.232   4.407   0.734 -0.9990 -0.2877  1.3965
 5089TIP3   OH215272   5.415   2.937   1.486  0.4911  0.0959  0.6313
 5089TIP3    H115273   5.507   2.961   1.476  0.6677 -1.1864 -1.4304
 5089TIP3    H215274   5.418   2.847   1.520 -0.0194  0.2359  1.0519
 5090TIP3   OH215275   4.319   4.179   0.053 -0.6385  0.1353 -0.2674
 5090TIP3    H115276   4.403   4.194   0.095 -1.2622  2.2581  0.3043
 5090TIP3    H215277   4.292   4.265   0.020 -1.6763 -0.8525 -2.2026
 5091TIP3   OH215278   5.638   2.996   4.284 -0.3825  0.0498 -0.2007
 5091TIP3    H115279   5.677   3.083   4.287 -2.0611  0.8415 -0.2692
 5091TIP3    H215280   5.653   2.960   4.372 -0.9583  1.0113  0.3085
 5092TIP3   OH215281   4.129   2.276   3.681  0.2331  0.2337 -0.2594
 5092TIP3    H115282   4.163   2.220   3.751  0.4298 -0.2197 -0.7087
 5092TIP3    H215283   4.195   2.345   3.672  0.0644  0.4599  0.1937
 5093TIP3   OH215284   3.131   1.493   4.724 -0.1208 -0.2945  0.2292
 5093TIP3    H115285   3.203   1.508   4.662 -0.1930 -0.8757 -0.0018
 5093TIP3    H215286   3.052   1.494   4.670 -0.2818  0.2869  0.4746
 5094TIP3   OH215287   1.121   2.317   1.622 -0.2854 -0.1466 -0.5820
 5094TIP3    H115288   1.205   2.277   1.645 -1.7791 -2.5135  1.2471
 5094TIP3    H215289   1.081   2.255   1.561 -0.3740  1.4283 -2.1909
 5095TIP3   OH215290   1.336   0.680   4.132  0.1368  0.4146 -0.0525
 5095TIP3    H115291   1.352   0.670   4.226 -0.1209 -0.6396 -0.1109
 5095TIP3    H215292   1.249   0.644   4.118 -0.0532  1.0727 -0.6127
 5096TIP3   OH215293   3.522   4.828   2.229 -0.3681 -0.5585 -0.0664
 5096TIP3    H115294   3.432   4.850   2.252 -0.4610  2.7184 -2.8623
 5096TIP3    H215295   3.567   4.912   2.223  2.3529 -1.9420 -0.8762
 5097TIP3   OH215296   4.471   2.805   0.920 -0.0350 -0.0296  0.1580
 5097TIP3    H115297   4.499   2.791   0.829 -2.0638  1.0800 -0.7021
 5097TIP3    H215298   4.550   2.789   0.972  1.7240  1.2697 -1.9513
 5098TIP3   OH215299   0.219   2.430   1.557 -0.1866  0.5063 -0.2527
 5098TIP3    H115300   0.170   2.465   1.632  0.1386 -0.5186  0.4701
 5098TIP3    H215301   0.273   2.360   1.595 -0.0645 -0.0826 -1.4602
 5099TIP3   OH215302   5.000   5.585   1.017 -0.3176 -0.8199  0.1461
 5099TIP3    H115303   4.930   5.615   1.075  0.9190  0.3119  1.0953
 5099TIP3    H215304   5.027   5.664   0.969 -0.2449 -1.4216 -0.8419
 5100TIP3   OH215305   0.489   1.330   0.551 -0.4315 -0.9514 -0.0884
 5100TIP3    H115306   0.538   1.250   0.568 -1.4700 -1.6122 -0.1169
 5100TIP3    H215307   0.542   1.400   0.590  0.8973 -1.5374 -0.7849
 5101TIP3   OH215308   4.555   0.571   1.278 -0.6861 -0.2608  0.4549
 5101TIP3    H115309   4.599   0.509   1.336  0.4614 -0.8676 -1.0060
 5101TIP3    H215310   4.607   0.651   1.286 -0.6474 -0.2812  0.4048
 5102TIP3   OH215311   3.353   4.969   3.307  0.4772  0.0266  0.3909
 5102TIP3    H115312   3.314   5.052   3.278 -0.5332  0.1404  1.9416
 5102TIP3    H215313   3.387   4.929   3.227 -0.8319  0.9985 -0.7022
 5103TIP3   OH215314   4.285   3.375   3.546  0.0706  0.4521 -0.3338
 5103TIP3    H115315   4.235   3.353   3.625  1.7043  0.2406  0.6832
 5103TIP3    H215316   4.306   3.467   3.556  0.9733  0.2299 -0.1060
 5104TIP3   OH215317   1.615   0.178   5.200  0.4383  0.6095  0.1772
 5104TIP3    H115318   1.539   0.130   5.235  0.9373 -0.4299 -0.1297
 5104TIP3    H215319   1.613   0.161   5.106  2.7263 -1.9832  0.4827
 5105TIP3   OH215320   3.743   5.341   1.576 -0.1491 -0.4301  0.6624
 5105TIP3    H115321   3.832   5.364   1.602  0.1275 -1.1133  0.3267
 5105TIP3    H215322   3.743   5.350   1.481  0.1685 -2.4626  0.4349
 5106TIP3   OH215323   6.298   5.513   3.274  0.1807 -0.1679  0.1109
 5106TIP3    H115324   6.317   5.495   3.366  1.8960 -1.4458 -0.4331
 5106TIP3    H215325   6.309   5.608   3.266 -1.6654  0.2152  1.5309
 5107TIP3   OH215326   6.320   3.672   3.507  0.3794 -0.3035  0.1997
 5107TIP3    H115327   6.264   3.596   3.520 -1.4747  0.7528 -1.0937
 5107TIP3    H215328   6.358   3.690   3.593  0.0978 -2.0848  0.7201
 5108TIP3   OH215329   6.023   5.786   2.280  0.5854 -0.2029 -0.0759
 5108TIP3    H115330   5.965   5.801   2.355  1.1650 -0.8641  0.5257
 5108TIP3    H215331   6.111   5.779   2.319  0.7491 -1.7628 -0.6638
 5109TIP3   OH215332   6.379   2.035   0.262  0.4711 -0.2081 -0.2130
 5109TIP3    H115333   6.307   2.068   0.208  1.0838  0.0678 -0.8788
 5109TIP3    H215334   6.344   1.956   0.302 -0.5769  0.5036  0.3444
 5110TIP3   OH215335   1.860   3.474   0.496  0.4998  1.2690  0.0162
 5110TIP3    H115336   1.866   3.564   0.462 -0.3053  1.6709  0.8870
 5110TIP3    H215337   1.770   3.466   0.526  0.9859  0.7181  1.4193
 5111TIP3   OH215338   0.515   1.286   1.262 -0.0449  0.2471  0.0784
 5111TIP3    H115339   0.451   1.355   1.279 -0.7994 -0.7392  1.5197
 5111TIP3    H215340   0.466   1.205   1.278  1.0460 -0.6026 -0.7344
 5112TIP3   OH215341   2.008   0.724   0.492  0.2688 -0.1696  0.1321
 5112TIP3    H115342   2.008   0.672   0.572 -0.2143 -1.1956 -0.5142
 5112TIP3    H215343   2.095   0.764   0.489  0.2182  0.0588  1.2650
 5113TIP3   OH215344   5.656   3.694   3.449 -0.0613  0.5992 -0.2365
 5113TIP3    H115345   5.729   3.658   3.399 -0.4955  0.6530 -0.9217
 5113TIP3    H215346   5.678   3.787   3.459  0.5531  0.3718  0.6295
 5114TIP3   OH215347   2.724   3.500   4.801  0.1453  0.1057 -0.0913
 5114TIP3    H115348   2.758   3.430   4.744  1.8523 -0.1183  1.1379
 5114TIP3    H215349   2.658   3.456   4.855 -2.6094  0.6228 -2.7363
 5115TIP3   OH215350   2.069   4.364   0.362 -0.0708 -0.6306  0.0411
 5115TIP3    H115351   2.101   4.369   0.272 -0.3123  2.3098  0.0184
 5115TIP3    H215352   2.141   4.397   0.416 -0.5403 -0.7084  0.7379
 5116TIP3   OH215353   2.468   3.937   3.077  0.2217 -0.6369  0.4239
 5116TIP3    H115354   2.402   3.897   3.134 -2.7982  0.8688 -1.7194
 5116TIP3    H215355   2.501   4.012   3.127 -1.4981 -0.0262  0.7020
 5117TIP3   OH215356   4.685   3.299   4.900  0.8030  0.0087  0.3332
 5117TIP3    H115357   4.635   3.226   4.937 -0.6929  1.1503  0.6589
 5117TIP3    H215358   4.743   3.327   4.971  0.1991  0.1751  0.7708
 5118TIP3   OH215359   2.798   0.419   0.845 -0.0630 -0.1167  0.2534
 5118TIP3    H115360   2.840   0.495   0.805  1.2252 -1.0153 -0.1925
 5118TIP3    H215361   2.730   0.393   0.783  0.2216  0.0155 -0.1153
 5119TIP3   OH215362   0.840   3.532   0.062  0.3414 -0.0481 -0.1407
 5119TIP3    H115363   0.908   3.469   0.042  0.8044  0.9377 -1.8616
 5119TIP3    H215364   0.872   3.579   0.139  2.4313  1.4864 -1.8543
 5120TIP3   OH215365   4.310   5.700   0.057 -0.0533 -0.2622 -0.1717
 5120TIP3    H115366   4.325   5.721   0.149  1.7276 -0.9700 -0.2735
 5120TIP3    H215367   4.241   5.633   0.059  0.2293 -0.5478  0.6687
 5121TIP3   OH215368   0.321   0.634   2.870  0.2932 -0.1829  0.1475
 5121TIP3    H115369   0.242   0.646   2.923  1.8853  0.0960  2.6430
 5121TIP3    H215370   0.290   0.635   2.780 -2.6285 -0.8188  1.0402
 5122TIP3   OH215371   1.772   2.523   1.511 -0.0592 -0.0485 -0.8776
 5122TIP3    H115372   1.819   2.440   1.517 -0.6814 -0.4290 -1.1322
 5122TIP3    H215373   1.685   2.504   1.547  0.9501  1.4605  2.8513
 5123TIP3   OH215374   3.596   1.872   2.921 -0.2879 -0.1005  0.2923
 5123TIP3    H115375   3.509   1.892   2.888 -0.6792 -3.8768 -1.4090
 5123TIP3    H215376   3.581   1.819   3.000  0.4007 -1.1454 -0.2553
 5124TIP3   OH215377   2.838   3.302   2.671  0.3221  0.2851  0.4405
 5124TIP3    H115378   2.785   3.244   2.726 -0.2465 -1.2318 -1.5816
 5124TIP3    H215379   2.911   3.329   2.727 -0.8228 -0.2324  2.2584
 5125TIP3   OH215380   1.291   5.539   4.277  0.1708 -0.0227  0.2224
 5125TIP3    H115381   1.259   5.497   4.197  0.2600  0.1820  0.0778
 5125TIP3    H215382   1.238   5.619   4.285  0.7949  0.4340 -0.1428
 5126TIP3   OH215383   5.901   3.758   0.242 -0.1670  0.6846  0.5181
 5126TIP3    H115384   5.953   3.704   0.301 -1.0615 -0.9995 -0.1707
 5126TIP3    H215385   5.938   3.741   0.155 -2.1423 -1.0245 -0.0810
 5127TIP3   OH215386   3.325   3.848   4.951 -0.1433  0.1482  0.0291
 5127TIP3    H115387   3.246   3.834   5.003  0.5487 -0.8546  0.8590
 5127TIP3    H215388   3.361   3.931   4.985  0.1697 -0.3713  1.0084
 5128TIP3   OH215389   5.074   0.384   4.324 -0.4771 -0.4089  0.0655
 5128TIP3    H115390   5.125   0.457   4.360  0.6670 -1.1769  0.0460
 5128TIP3    H215391   5.023   0.351   4.398 -0.6583  0.1207  0.1800
 5129TIP3   OH215392   0.682   5.518   3.994  0.9469  0.5213  0.3898
 5129TIP3    H115393   0.778   5.525   3.996  1.1985 -1.6603 -0.4583
 5129TIP3    H215394   0.659   5.493   4.083  1.0384  1.9335  0.8331
 5130TIP3   OH215395   1.905   1.742   4.685 -0.4786 -0.3608 -0.9557
 5130TIP3    H115396   1.878   1.659   4.723  1.3517 -0.0997  1.1597
 5130TIP3    H215397   1.936   1.720   4.597 -1.9082 -1.5433 -1.1928
 5131TIP3   OH215398   0.993   1.993   2.030 -0.6156 -0.3980 -0.3103
 5131TIP3    H115399   1.003   1.920   2.091 -1.4490  1.5516  2.3306
 5131TIP3    H215400   0.898   2.000   2.017 -0.5369  0.1644 -0.5972
 5132TIP3   OH215401   4.559   2.093   0.622 -0.1658  0.0803  0.2430
 5132TIP3    H115402   4.647   2.057   0.616 -1.3360 -2.9669 -0.7415
 5132TIP3    H215403   4.517   2.042   0.692 -1.4240  0.7456 -0.0020
 5133TIP3   OH215404   0.525   0.088   3.633  0.0874 -0.3979 -0.7219
 5133TIP3    H115405   0.590   0.082   3.563  0.5981 -0.2733 -0.2603
 5133TIP3    H215406   0.441   0.074   3.589  0.4549 -0.9074 -1.2648
 5134TIP3   OH215407   0.124   1.492   3.787 -0.4246 -0.4249 -0.0437
 5134TIP3    H115408   0.165   1.554   3.847 -0.5215  0.4823 -0.8960
 5134TIP3    H215409   0.171   1.410   3.801  0.3868  0.1063  0.3664
 5135TIP3   OH215410   3.928   3.749   1.798 -0.1821  0.1160 -0.3551
 5135TIP3    H115411   3.935   3.767   1.892  0.6945  0.4874 -0.4780
 5135TIP3    H215412   3.949   3.833   1.756  1.3765 -0.5250 -0.9088
 5136TIP3   OH215413   0.781   2.272   1.968 -0.5503  0.7562  0.0096
 5136TIP3    H115414   0.773   2.256   2.062 -1.0476  1.0466  0.0192
 5136TIP3    H215415   0.869   2.309   1.958  0.0079 -0.4803  0.1816
 5137TIP3   OH215416   1.070   3.027   3.894 -0.0960  0.4771  0.3781
 5137TIP3    H115417   1.065   3.114   3.854  2.7047 -0.0747 -1.3965
 5137TIP3    H215418   0.978   3.000   3.903 -0.9915  2.9044 -0.5744
 5138TIP3   OH215419   1.732   2.790   3.342  0.1523  0.0869  0.3067
 5138TIP3    H115420   1.705   2.766   3.430 -1.0538  2.6958  0.7397
 5138TIP3    H215421   1.779   2.713   3.309 -1.2364 -1.7636  2.3874
 5139TIP3   OH215422   3.242   3.653   3.904  0.2850 -0.3566  0.3882
 5139TIP3    H115423   3.296   3.720   3.862 -0.5507 -0.5598 -1.0977
 5139TIP3    H215424   3.303   3.605   3.960  1.9656 -1.2624 -2.0354
 5140TIP3   OH215425   5.093   1.714   3.143 -0.3905 -0.6035 -0.3153
 5140TIP3    H115426   5.155   1.661   3.193  0.7901  0.3213 -0.7456
 5140TIP3    H215427   5.059   1.778   3.205 -0.8191 -1.0193 -0.1148
 5141TIP3   OH215428   0.009   3.884   4.431 -0.2351 -0.4649 -0.0511
 5141TIP3    H115429  -0.019   3.869   4.341  0.5670  1.3279 -0.6449
 5141TIP3    H215430   0.096   3.924   4.423 -0.8597  1.3235  1.4184
 5142TIP3   OH215431   4.090   2.946   4.509  0.0292  0.0130 -0.1796
 5142TIP3    H115432   4.052   3.009   4.448 -1.4852 -0.8862 -0.2065
 5142TIP3    H215433   4.058   2.861   4.479  1.4916 -0.7206  0.2561
 5143TIP3   OH215434   3.628   1.473   1.773  0.0355 -0.2513  0.4091
 5143TIP3    H115435   3.638   1.530   1.850 -1.0233  1.1623 -0.4541
 5143TIP3    H215436   3.665   1.524   1.701  0.2025 -1.1962 -0.1811
 5144TIP3   OH215437   4.726   2.791   1.547 -0.0009 -1.3020 -0.4005
 5144TIP3    H115438   4.677   2.728   1.600  0.0251 -0.0709  1.1866
 5144TIP3    H215439   4.780   2.838   1.611  0.9594 -0.5661 -1.7112
 5145TIP3   OH215440   5.565   1.177   4.493  0.0460  0.0489  0.2598
 5145TIP3    H115441   5.634   1.218   4.545  0.7650 -0.2686 -0.4217
 5145TIP3    H215442   5.612   1.127   4.426 -0.8203 -1.6454  0.8772
 5146TIP3   OH215443   2.640   2.295   1.783  0.0668  0.3504  0.5056
 5146TIP3    H115444   2.671   2.385   1.796 -0.2913  0.4231  0.8637
 5146TIP3    H215445   2.572   2.302   1.716  2.1516 -0.0678 -1.8440
 5147TIP3   OH215446   0.774   1.320   3.964 -0.1657 -0.2805  0.0853
 5147TIP3    H115447   0.819   1.357   4.041 -0.7792 -1.1377  0.8853
 5147TIP3    H215448   0.826   1.243   3.941 -0.3818 -0.4266  0.0837
 5148TIP3   OH215449   1.209   2.018   1.358 -0.0810  0.4083 -0.0905
 5148TIP3    H115450   1.214   1.980   1.270  1.4453  0.1682  0.0723
 5148TIP3    H215451   1.300   2.029   1.385 -0.4768 -0.7664  1.9983
 5149TIP3   OH215452   3.940   4.292   0.450 -0.4718 -0.5709  0.3957
 5149TIP3    H115453   3.901   4.297   0.538 -2.2645  0.7890 -0.4260
 5149TIP3    H215454   3.928   4.379   0.414 -1.6433 -1.6497 -1.9958
 5150TIP3   OH215455   0.345   3.351   4.227  0.0301  0.2185  0.0757
 5150TIP3    H115456   0.403   3.323   4.298  0.6951  1.3567 -0.0008
 5150TIP3    H215457   0.382   3.310   4.149  1.0191  1.2726 -0.0407
 5151TIP3   OH215458   0.167   2.227   3.012  0.0801  0.3175  0.3210
 5151TIP3    H115459   0.110   2.252   3.085  0.3029 -0.7921  0.8869
 5151TIP3    H215460   0.237   2.177   3.053  0.4907  0.1350 -0.5971
 5152TIP3   OH215461   0.643   5.528   2.489  0.3934  0.5072 -0.2432
 5152TIP3    H115462   0.675   5.513   2.578  1.1005  0.8951 -0.4231
 5152TIP3    H215463   0.636   5.440   2.451  4.3984  0.4558 -1.2566
 5153TIP3   OH215464   3.019   1.344   4.116  0.2168  0.1987 -0.3343
 5153TIP3    H115465   3.025   1.328   4.022  2.4131  2.2510 -0.6422
 5153TIP3    H215466   2.935   1.389   4.127 -1.8483 -3.2147 -0.6423
 5154TIP3   OH215467   1.271   3.430   3.591 -0.3983  0.1412  0.3145
 5154TIP3    H115468   1.289   3.521   3.612 -0.8841  0.4850 -0.7209
 5154TIP3    H215469   1.340   3.381   3.637  0.4023  1.0802  0.1485
 5155TIP3   OH215470   3.096   4.707   2.007  0.5201 -0.0173  0.3764
 5155TIP3    H115471   3.164   4.765   1.973 -0.0192  0.2207 -0.3388
 5155TIP3    H215472   3.123   4.619   1.980 -0.1108  0.2029 -1.1286
 5156TIP3   OH215473   1.355   1.677   1.833  0.3900 -0.2908  0.1041
 5156TIP3    H115474   1.406   1.754   1.857 -0.2418  0.1131  0.1864
 5156TIP3    H215475   1.418   1.604   1.835  0.5675 -0.1257  2.0719
 5157TIP3   OH215476   0.469   5.667   0.485  0.1731 -0.1351 -0.2648
 5157TIP3    H115477   0.478   5.620   0.402 -1.2398 -0.4617 -0.2663
 5157TIP3    H215478   0.421   5.606   0.542  1.1861  0.0482  0.8354
 5158TIP3   OH215479   1.987   5.592   4.677  0.0635  0.5792 -0.8682
 5158TIP3    H115480   2.033   5.669   4.643  0.1613  0.8425 -0.1608
 5158TIP3    H215481   1.956   5.546   4.599 -1.2021  2.0768 -1.2923
 5159TIP3   OH215482   0.582   3.823   2.928 -0.0851  0.9862  0.0836
 5159TIP3    H115483   0.538   3.851   2.848 -1.1478  0.3036  0.4075
 5159TIP3    H215484   0.671   3.802   2.900 -1.0046 -1.3634 -1.3974
 5160TIP3   OH215485   5.573   5.040   4.441 -0.0291  0.6316 -0.2221
 5160TIP3    H115486   5.636   5.113   4.433  0.8510  0.0988  1.3889
 5160TIP3    H215487   5.592   4.984   4.365  1.9068  0.1734  0.5272
 5161TIP3   OH215488   2.483   2.978   1.090 -0.0450  0.4365  0.0088
 5161TIP3    H115489   2.531   3.033   1.028 -1.2462  0.0280 -1.3479
 5161TIP3    H215490   2.519   2.890   1.076  0.0142  0.4191  0.2580
 5162TIP3   OH215491   1.890   3.489   5.172 -0.3602  0.2277 -0.2341
 5162TIP3    H115492   1.801   3.453   5.169 -0.3259  0.1782 -1.7624
 5162TIP3    H215493   1.947   3.413   5.160 -0.2038  0.4591 -1.0782
 5163TIP3   OH215494   1.748   5.907   0.050 -0.0212 -0.1111 -0.8840
 5163TIP3    H115495   1.698   5.989   0.044  1.9389  1.3774  1.3200
 5163TIP3    H215496   1.822   5.928   0.106  1.9408 -2.7876 -2.2326
 5164TIP3   OH215497   0.698   1.850   0.033  0.2991  0.7504 -0.4504
 5164TIP3    H115498   0.716   1.756   0.038  1.5707  0.9571 -0.7295
 5164TIP3    H215499   0.740   1.878  -0.048  0.1417  1.5996 -0.2431
 5165TIP3   OH215500   2.671   3.213   1.944  0.0748  0.1450  0.2216
 5165TIP3    H115501   2.632   3.284   1.893  0.7251 -0.6566 -1.4673
 5165TIP3    H215502   2.689   3.252   2.029 -1.8161  1.3131  0.1373
 5166TIP3   OH215503   0.372   4.550   3.963  0.0247 -0.0582  0.7521
 5166TIP3    H115504   0.411   4.597   4.036 -1.1648  2.3266 -0.0413
 5166TIP3    H215505   0.438   4.552   3.894  0.1485  0.0505  0.8746
 5167TIP3   OH215506   2.287   4.754   2.340 -0.1248  0.3199  0.3397
 5167TIP3    H115507   2.311   4.845   2.330 -0.2637  0.4012  0.7165
 5167TIP3    H215508   2.264   4.745   2.433 -2.5405  0.5054 -0.1618
 5168TIP3   OH215509   4.592   4.919   0.032  0.1675 -0.2177  0.6007
 5168TIP3    H115510   4.552   4.924  -0.054  0.4746 -0.4168  0.4446
 5168TIP3    H215511   4.638   5.002   0.043  1.0926 -0.6526  0.0892
 5169TIP3   OH215512   3.466   2.642   0.052  0.1121  0.1914  0.2347
 5169TIP3    H115513   3.558   2.669   0.060  0.6560 -1.0728 -1.1308
 5169TIP3    H215514   3.457   2.619  -0.041 -1.2925 -0.7259  0.5770
 5170TIP3   OH215515   0.865   0.746   2.525 -0.3720 -0.6305 -0.2610
 5170TIP3    H115516   0.907   0.665   2.555 -0.3404 -0.6977 -0.4839
 5170TIP3    H215517   0.919   0.776   2.451  0.1158  0.0644  0.3684
 5171TIP3   OH215518   1.033   2.518   2.462  0.0701 -0.6030 -0.2161
 5171TIP3    H115519   1.109   2.465   2.487  1.3570  1.1019 -0.3516
 5171TIP3    H215520   1.025   2.506   2.368  0.5096 -0.3662 -0.2843
 5172TIP3   OH215521   0.361   0.350   4.734 -0.3342  0.1724 -0.4432
 5172TIP3    H115522   0.440   0.401   4.715  0.5536 -0.2243  1.8131
 5172TIP3    H215523   0.382   0.304   4.815 -2.6675 -0.4784 -0.1467
 5173TIP3   OH215524   4.170   3.467   2.347  0.1676  0.2715  0.1282
 5173TIP3    H115525   4.251   3.442   2.391  1.5974  2.0678 -1.3611
 5173TIP3    H215526   4.182   3.438   2.256  0.2182  2.7078 -0.6906
 5174TIP3   OH215527   0.355   1.537   3.082 -0.4126 -0.2788 -0.0215
 5174TIP3    H115528   0.439   1.583   3.078 -0.4258 -0.1520  1.0196
 5174TIP3    H215529   0.291   1.603   3.053 -0.3585  0.1942  0.8943
 5175TIP3   OH215530   5.125   1.007   0.398  0.7404 -0.6080 -0.1645
 5175TIP3    H115531   5.093   0.917   0.404  0.8150 -0.5969  0.4151
 5175TIP3    H215532   5.193   1.013   0.465  0.5538 -0.0373 -0.0266
 5176TIP3   OH215533   3.373   2.184   2.781  0.1435 -0.4226 -0.0485
 5176TIP3    H115534   3.369   2.089   2.765 -0.1984 -0.2250 -1.2852
 5176TIP3    H215535   3.397   2.221   2.696 -0.3980  0.6471  0.2474
 5177TIP3   OH215536   4.031   4.057   4.906 -0.2368  0.1915  0.3280
 5177TIP3    H115537   4.079   4.128   4.948 -0.7358  1.5185 -1.2228
 5177TIP3    H215538   4.099   4.005   4.862 -0.1167  2.2243 -2.1026
 5178TIP3   OH215539   0.109   2.296   3.575 -0.2913 -0.0434  0.2554
 5178TIP3    H115540   0.075   2.289   3.665 -1.0292 -1.0962 -0.0800
 5178TIP3    H215541   0.152   2.211   3.560 -1.4799 -0.4841 -0.8814
 5179TIP3   OH215542   6.029   2.007   0.872  0.0285  0.7302 -0.2242
 5179TIP3    H115543   6.051   1.973   0.786  1.1723  0.7833  0.0310
 5179TIP3    H215544   5.967   1.943   0.908 -0.4555  0.7134 -1.0703
 5180TIP3   OH215545   6.360   2.233   4.120 -0.0606 -0.2604 -0.2613
 5180TIP3    H115546   6.354   2.239   4.215 -1.4360  1.4171 -0.4013
 5180TIP3    H215547   6.342   2.141   4.100 -0.4163 -0.4934  1.0608
 5181TIP3   OH215548   3.347   4.381   4.947 -0.1140  0.2654  0.2775
 5181TIP3    H115549   3.316   4.314   4.886  1.3595  0.9965 -1.3851
 5181TIP3    H215550   3.441   4.367   4.952  0.1366  1.8000  0.3881
 5182TIP3   OH215551   3.197   1.462   2.407  0.0439 -0.2902 -0.6125
 5182TIP3    H115552   3.262   1.512   2.457 -1.0855  0.9219 -0.2854
 5182TIP3    H215553   3.249   1.402   2.353  1.5908  2.2220 -2.1405
 5183TIP3   OH215554   1.259   2.552   4.646  0.2979 -0.0280 -0.1536
 5183TIP3    H115555   1.305   2.507   4.575  2.2422  0.8074  0.5125
 5183TIP3    H215556   1.294   2.641   4.645  0.2638  0.0462  1.7537
 5184TIP3   OH215557   4.271   5.539   4.029  0.3790  0.6799 -0.1726
 5184TIP3    H115558   4.192   5.500   4.065  0.3608  0.6885 -0.2027
 5184TIP3    H215559   4.240   5.587   3.951 -0.1102  3.2613  1.4750
 5185TIP3   OH215560   1.452   2.406   3.341 -0.7036 -0.5602  0.1321
 5185TIP3    H115561   1.374   2.366   3.301 -1.0873  0.9263 -0.6747
 5185TIP3    H215562   1.467   2.485   3.290  0.6036 -0.1640  1.0851
 5186TIP3   OH215563   5.932   5.488   1.975  0.2475 -0.1825  0.6644
 5186TIP3    H115564   6.018   5.531   1.986  1.1151 -1.5674 -0.3979
 5186TIP3    H215565   5.928   5.465   1.883 -1.7540  0.7570  0.4684
 5187TIP3   OH215566   6.342   1.633   2.868  0.2847  0.5591  0.5870
 5187TIP3    H115567   6.264   1.657   2.917 -0.2139  1.1189 -0.4505
 5187TIP3    H215568   6.330   1.673   2.782  2.0649  1.3164  0.6452
 5188TIP3   OH215569   1.234   3.366   3.338 -0.1266  0.3672  0.5233
 5188TIP3    H115570   1.239   3.381   3.432 -1.7592 -1.0243  0.8889
 5188TIP3    H215571   1.168   3.428   3.307 -3.1601 -2.2607  1.1953
 5189TIP3   OH215572   4.680   2.960   3.986  0.1982  0.4642 -0.2665
 5189TIP3    H115573   4.663   2.954   3.892  0.2901 -0.0876 -0.2498
 5189TIP3    H215574   4.713   2.873   4.010 -1.4110  0.0489  0.5902
 5190TIP3   OH215575   5.657   1.845   2.836  0.5557  0.2827 -0.3251
 5190TIP3    H115576   5.570   1.857   2.800  0.4165 -1.3151 -0.6161
 5190TIP3    H215577   5.642   1.814   2.925  0.8534  1.3236  0.0927
 5191TIP3   OH215578   5.492   2.870   3.270 -0.4114  0.3447  0.1090
 5191TIP3    H115579   5.527   2.959   3.274 -1.1342  0.6200  0.5554
 5191TIP3    H215580   5.437   2.863   3.348  0.2034 -0.7421  0.4651
 5192TIP3   OH215581   4.881   4.669   0.445 -0.0086 -0.5825 -0.0732
 5192TIP3    H115582   4.796   4.712   0.458 -0.1147 -0.9098  0.3803
 5192TIP3    H215583   4.915   4.657   0.534 -0.6862 -2.7776 -0.0279
 5193TIP3   OH215584   0.825   1.948   2.808  0.3308 -1.2081 -0.2962
 5193TIP3    H115585   0.802   2.021   2.751 -0.8150 -1.8900 -0.7519
 5193TIP3    H215586   0.742   1.902   2.823  0.7839 -1.6578  1.0682
 5194TIP3   OH215587   3.552   2.607   1.836  0.6262  0.3047  0.0398
 5194TIP3    H115588   3.535   2.701   1.844  0.2678  0.2125  0.3788
 5194TIP3    H215589   3.485   2.575   1.776  0.2598  0.1301  0.5365
 5195TIP3   OH215590   3.054   4.332   0.806 -0.1441  0.5484  0.1946
 5195TIP3    H115591   2.971   4.380   0.807  0.1033  0.9713  0.7590
 5195TIP3    H215592   3.051   4.277   0.884  0.2046  0.7294  0.3347
 5196TIP3   OH215593   4.067   0.423   4.990  0.1355 -0.2464  0.2139
 5196TIP3    H115594   3.975   0.423   4.965  0.6066 -1.2144 -1.6698
 5196TIP3    H215595   4.088   0.515   5.005 -0.7570  0.1481 -0.8358
 5197TIP3   OH215596   3.840   2.479   3.440  0.0111 -0.0345 -0.1575
 5197TIP3    H115597   3.757   2.434   3.450 -0.1535  0.5844  1.5877
 5197TIP3    H215598   3.843   2.541   3.513  2.3954 -0.6888  0.3888
 5198TIP3   OH215599   1.217   5.553   5.025  0.4544  0.3806 -0.1567
 5198TIP3    H115600   1.274   5.485   4.988 -0.5468  0.2880 -1.6326
 5198TIP3    H215601   1.277   5.624   5.049  1.4034 -0.5761  0.3858
 5199TIP3   OH215602   2.463   4.602   4.685 -0.1035 -0.4978 -0.2579
 5199TIP3    H115603   2.529   4.585   4.618  0.8778 -1.1808  0.8490
 5199TIP3    H215604   2.380   4.600   4.637  0.4709 -2.0703 -1.2877
 5200TIP3   OH215605   3.760   0.230   1.164  0.1656  0.3624  0.2221
 5200TIP3    H115606   3.810   0.286   1.223 -1.0766  1.7281  0.0279
 5200TIP3    H215607   3.669   0.237   1.196 -0.3668  0.3308 -1.2249
 5201TIP3   OH215608   2.691   3.844   2.678 -0.1361 -0.0131  0.0480
 5201TIP3    H115609   2.751   3.867   2.748 -0.1933  3.8093 -0.9141
 5201TIP3    H215610   2.729   3.766   2.638  3.2328  1.1846  0.6025
 5202TIP3   OH215611   2.239   5.022   0.721  0.1920 -0.4789  0.2057
 5202TIP3    H115612   2.278   5.092   0.669 -0.4936  0.2414  0.6390
 5202TIP3    H215613   2.182   4.975   0.660  0.9992 -0.9533 -0.1964
 5203TIP3   OH215614   1.880   0.065   2.828 -0.3777  0.0208 -0.1415
 5203TIP3    H115615   1.788   0.043   2.837 -0.5293  1.2389  1.9304
 5203TIP3    H215616   1.917  -0.006   2.775 -2.0886 -1.5743  0.6904
 5204TIP3   OH215617   4.983   5.059   4.278 -0.1918  0.3030  0.1958
 5204TIP3    H115618   5.037   5.040   4.355 -0.9192 -0.0505  0.6291
 5204TIP3    H215619   5.031   5.128   4.232 -0.0791  1.0078  1.3321
 5205TIP3   OH215620   5.214   5.232   2.351  0.0230 -0.2828  0.0816
 5205TIP3    H115621   5.206   5.191   2.437 -0.2636 -1.7027 -0.6000
 5205TIP3    H215622   5.129   5.217   2.309  0.3183  0.0026 -0.6264
 5206TIP3   OH215623   1.247   2.710   2.191 -0.1100 -0.0063  0.3056
 5206TIP3    H115624   1.261   2.617   2.211  0.1214 -0.2238 -0.7665
 5206TIP3    H215625   1.157   2.714   2.158 -0.0600  0.1159  0.1835
 5207TIP3   OH215626   4.936   4.240   1.324 -0.2268 -0.6437 -0.0624
 5207TIP3    H115627   4.901   4.215   1.239 -1.2794 -0.4320  0.2903
 5207TIP3    H215628   4.992   4.315   1.306  0.2721 -1.1576 -0.6835
 5208TIP3   OH215629   5.472   5.338   4.327  0.2373  0.0939 -0.6244
 5208TIP3    H115630   5.398   5.285   4.359  2.0880 -1.9816  0.5415
 5208TIP3    H215631   5.481   5.408   4.391 -0.0611 -0.2740 -0.1748
 5209TIP3   OH215632   1.660   5.640   1.432 -0.1659 -0.0799  0.2400
 5209TIP3    H115633   1.609   5.697   1.491 -1.5100 -0.0222 -0.9106
 5209TIP3    H215634   1.747   5.637   1.470 -0.2143  2.2639  0.6862
 5210TIP3   OH215635   5.031   2.865   0.469 -0.3440  0.5936  0.1006
 5210TIP3    H115636   5.036   2.777   0.507  1.5462  0.4153 -0.4870
 5210TIP3    H215637   5.037   2.924   0.544  1.1087  0.2268  0.2945
 5211TIP3   OH215638   4.819   5.256   1.930 -0.1856 -0.2281 -0.5057
 5211TIP3    H115639   4.781   5.184   1.980  1.9279 -0.7803  0.4220
 5211TIP3    H215640   4.787   5.244   1.841 -2.9749 -0.0075  0.3882
 5212TIP3   OH215641   5.760   3.044   1.652  0.4608  0.4868  0.2006
 5212TIP3    H115642   5.852   3.028   1.631  0.4768  1.1953 -0.2744
 5212TIP3    H215643   5.754   3.139   1.663  0.1126  0.3177  1.7962
 5213TIP3   OH215644   0.482   0.356   1.391 -0.0008 -0.6208 -0.2595
 5213TIP3    H115645   0.400   0.309   1.405  1.3513 -2.7222  1.2155
 5213TIP3    H215646   0.522   0.313   1.314 -1.2735  2.0132 -2.5781
 5214TIP3   OH215647   1.946   1.216   3.088  0.5890 -0.3706  0.3686
 5214TIP3    H115648   1.872   1.230   3.028  1.8554 -1.3967 -1.5469
 5214TIP3    H215649   1.932   1.279   3.158 -1.3346  0.4567 -0.6734
 5215TIP3   OH215650   3.064   0.394   2.540 -0.5763 -0.1872  0.0204
 5215TIP3    H115651   3.069   0.298   2.536  1.0585 -0.1001 -1.9590
 5215TIP3    H215652   3.089   0.416   2.630  0.3426 -1.5880  0.1367
 5216TIP3   OH215653   4.218   3.364   1.837  0.4785  0.2371  0.4693
 5216TIP3    H115654   4.151   3.327   1.894  1.4929 -0.3931  1.2869
 5216TIP3    H215655   4.296   3.371   1.892  1.4294 -0.1859 -0.7517
 5217TIP3   OH215656   4.639   0.320   1.358  0.1912  0.0589  0.5092
 5217TIP3    H115657   4.727   0.305   1.324 -0.1208 -0.3838 -0.1212
 5217TIP3    H215658   4.634   0.268   1.437  0.4742  0.0377  0.5135
 5218TIP3   OH215659   4.546   1.338   4.110 -0.2286 -0.1803 -0.6931
 5218TIP3    H115660   4.640   1.327   4.095  0.0606  2.5617 -1.5478
 5218TIP3    H215661   4.534   1.319   4.203  1.5568  1.2150 -0.1198
 5219TIP3   OH215662   2.530   0.976   5.108  0.0957  0.0717 -0.2348
 5219TIP3    H115663   2.612   0.957   5.063  0.4276 -2.7042  1.3608
 5219TIP3    H215664   2.462   0.945   5.048  0.4816 -2.3080  0.4671
 5220TIP3   OH215665   5.331   1.537   3.233 -0.8623 -0.0894 -0.0587
 5220TIP3    H115666   5.381   1.591   3.295 -0.0814  0.0354 -0.7764
 5220TIP3    H215667   5.398   1.502   3.174 -1.6576  0.2296 -1.1632
 5221TIP3   OH215668   1.073   2.608   0.451 -0.0052 -0.2693  0.0926
 5221TIP3    H115669   1.146   2.556   0.487  0.0812 -0.7012 -0.6941
 5221TIP3    H215670   1.110   2.696   0.441  0.7220 -0.6980 -1.1946
 5222TIP3   OH215671   5.635   3.753   2.002  0.0341  0.6218 -0.0714
 5222TIP3    H115672   5.565   3.766   2.065  1.0816  0.4095  1.1887
 5222TIP3    H215673   5.701   3.701   2.049 -0.0377 -1.3872 -2.0095
 5223TIP3   OH215674   4.412   1.845   3.056  1.0203  0.4480 -0.3881
 5223TIP3    H115675   4.406   1.871   3.148  2.2330 -0.2043 -0.1085
 5223TIP3    H215676   4.402   1.927   3.008 -0.5747  0.6864  0.2618
 5224TIP3   OH215677   4.903   1.861   2.292  0.0588  0.2294 -0.3034
 5224TIP3    H115678   4.891   1.766   2.293  1.4319  0.0101  1.5271
 5224TIP3    H215679   4.827   1.895   2.339 -0.3842  0.0432 -0.8708
 5225TIP3   OH215680   4.200   2.611   0.770 -0.8744  0.2990 -0.1435
 5225TIP3    H115681   4.260   2.654   0.832  1.0952 -0.9223 -1.0890
 5225TIP3    H215682   4.113   2.642   0.796 -0.1021  0.3592  2.7996
 5226TIP3   OH215683   5.739   1.218   2.904  0.1447 -0.2007  0.1986
 5226TIP3    H115684   5.743   1.285   2.973  0.3934  1.5848 -1.4739
 5226TIP3    H215685   5.822   1.226   2.857 -0.5097 -0.5435 -1.0541
 5227TIP3   OH215686   4.625   5.850   0.258 -0.0326 -0.4490  0.0359
 5227TIP3    H115687   4.626   5.879   0.167  2.2248 -0.9339 -0.1680
 5227TIP3    H215688   4.659   5.761   0.255  1.2568 -0.0510  1.4374
 5228TIP3   OH215689   1.939   3.204   4.961  0.1668  0.8094  0.0001
 5228TIP3    H115690   1.849   3.171   4.961  0.2726  0.3819  2.2001
 5228TIP3    H215691   1.976   3.172   4.879 -0.7670 -1.6781  0.4583
 5229TIP3   OH215692   1.473   3.904   1.050 -0.0043  0.1240 -0.5083
 5229TIP3    H115693   1.553   3.944   1.015  1.2642 -2.4579 -0.7930
 5229TIP3    H215694   1.501   3.819   1.083 -1.9918  0.5505  2.7516
 5230TIP3   OH215695   5.336   2.332   2.586  0.1604  0.6512 -0.0683
 5230TIP3    H115696   5.285   2.412   2.577  1.2621  1.7678  2.7652
 5230TIP3    H215697   5.424   2.356   2.558  0.0119 -0.2846 -1.4663
 5231TIP3   OH215698   3.576   0.389   0.463 -0.0098  0.0538  0.0030
 5231TIP3    H115699   3.523   0.335   0.522  0.5390 -0.3803  0.0933
 5231TIP3    H215700   3.543   0.478   0.478 -0.8418 -0.2257 -0.0760
 5232TIP3   OH215701   5.669   4.440   2.797 -0.0169  0.5382  0.1507
 5232TIP3    H115702   5.646   4.475   2.883 -1.1688 -0.1066  0.1319
 5232TIP3    H215703   5.765   4.437   2.797  0.0003 -0.1100  1.6980
 5233TIP3   OH215704   4.693   1.014   3.962 -0.3342  0.3701  0.3898
 5233TIP3    H115705   4.698   1.091   3.906  0.7445  1.5601  2.0265
 5233TIP3    H215706   4.599   1.003   3.980 -0.5760  0.7032 -0.6210
 5234TIP3   OH215707   5.956   0.670   0.383  0.2331 -0.3136  0.1179
 5234TIP3    H115708   6.022   0.736   0.401  1.2052 -0.9252 -1.0917
 5234TIP3    H215709   5.988   0.591   0.428 -0.0415 -0.4251  0.1206
 5235TIP3   OH215710   3.604   3.761   1.971 -0.0193 -0.1018  0.1016
 5235TIP3    H115711   3.696   3.767   1.995  0.4634  0.6784 -1.7998
 5235TIP3    H215712   3.569   3.848   1.990 -0.2555 -0.2590  0.3885
 5236TIP3   OH215713   1.661   2.443   2.238 -0.5110  0.5577  0.3523
 5236TIP3    H115714   1.638   2.500   2.164  0.0173  0.6941  0.2881
 5236TIP3    H215715   1.648   2.499   2.315 -2.7580 -0.0986  0.5297
 5237TIP3   OH215716   2.158   2.306   1.830  0.5568  0.0020 -0.0666
 5237TIP3    H115717   2.154   2.340   1.920  0.0600 -0.7492  0.2045
 5237TIP3    H215718   2.214   2.369   1.783  0.2850  0.7629  0.6034
 5238TIP3   OH215719   2.296   3.515   2.515  0.6435  0.5546 -0.0433
 5238TIP3    H115720   2.282   3.422   2.498  3.4586  0.1470 -0.5701
 5238TIP3    H215721   2.253   3.531   2.599  0.9504 -1.4532  0.5440
 5239TIP3   OH215722   3.021   2.993   2.006 -0.0315  0.6740 -0.3614
 5239TIP3    H115723   3.103   3.025   1.968 -0.4752  2.2340 -0.0951
 5239TIP3    H215724   2.977   2.950   1.933  1.2248 -0.6587 -0.3838
 5240TIP3   OH215725   2.955   0.934   2.020  0.1364 -0.4050 -0.1508
 5240TIP3    H115726   2.965   0.916   2.113  1.7621 -0.9105 -0.3844
 5240TIP3    H215727   2.905   1.015   2.016 -0.9004 -0.9415  1.1203
 5241TIP3   OH215728   4.072   3.549   4.244 -0.5867 -0.2836  0.1000
 5241TIP3    H115729   4.166   3.542   4.264 -0.6854 -1.7486  0.1471
 5241TIP3    H215730   4.029   3.542   4.329 -0.7441  0.7017  0.1116
 5242TIP3   OH215731   2.733   4.550   4.058  0.4952 -0.0183  0.1075
 5242TIP3    H115732   2.791   4.579   3.988  1.1401  0.0705  0.6604
 5242TIP3    H215733   2.766   4.463   4.082  1.4599  0.6794  1.5119
 5243TIP3   OH215734   2.641   2.890   0.333  0.0826  0.4730 -0.5856
 5243TIP3    H115735   2.719   2.875   0.279  1.1601  1.9599  0.4531
 5243TIP3    H215736   2.582   2.818   0.312  2.5815 -1.9408  0.1344
 5244TIP3   OH215737   2.453   3.340   1.069  0.3081  0.0339  0.3763
 5244TIP3    H115738   2.452   3.401   0.995  0.5947  1.8671  1.8084
 5244TIP3    H215739   2.367   3.299   1.068  0.1126  0.4381 -0.6203
 5245TIP3   OH215740   3.420   0.178   0.570  0.2162 -0.1961  0.3361
 5245TIP3    H115741   3.346   0.121   0.591 -0.1065 -0.4003 -1.2019
 5245TIP3    H215742   3.480   0.168   0.644 -0.2568 -1.8036  0.5466
 5246TIP3   OH215743   1.431   0.623   2.787  0.3560  0.3713 -0.1269
 5246TIP3    H115744   1.424   0.647   2.695  1.1687 -0.6282 -0.4617
 5246TIP3    H215745   1.431   0.707   2.834 -0.7805  0.8624 -0.9655
 5247TIP3   OH215746   2.580   5.388   2.769 -0.5736  0.2782  0.4978
 5247TIP3    H115747   2.601   5.430   2.853 -0.5283  3.1091 -0.8227
 5247TIP3    H215748   2.592   5.457   2.704 -1.3119 -1.6242 -1.7918
 5248TIP3   OH215749   4.553   1.732   1.328  0.1065 -0.1080 -0.0911
 5248TIP3    H115750   4.620   1.663   1.329 -2.5969 -2.9564 -0.8805
 5248TIP3    H215751   4.502   1.717   1.408 -0.6436  0.9146 -0.3544
 5249TIP3   OH215752   1.193   3.090   4.170 -0.0500  0.1394 -0.1663
 5249TIP3    H115753   1.238   3.083   4.086 -0.7721  0.6203 -0.6128
 5249TIP3    H215754   1.131   3.162   4.157  0.8913  1.2573  1.2746
 5250TIP3   OH215755   3.527   1.001   0.710 -0.2627  0.2402  0.4565
 5250TIP3    H115756   3.544   1.069   0.774  2.0740  0.3988 -0.2460
 5250TIP3    H215757   3.503   0.924   0.761  0.7207  0.5919  1.4697
 5251TIP3   OH215758   4.922   3.893   1.655  0.5058 -0.3507 -0.0646
 5251TIP3    H115759   4.930   3.973   1.706  0.7568 -0.5925  0.2749
 5251TIP3    H215760   4.914   3.823   1.720  1.9229 -0.7833 -0.3192
 5252TIP3   OH215761   1.117   5.245   0.481 -0.7125  0.1370  0.1953
 5252TIP3    H115762   1.055   5.313   0.507 -1.2439 -0.5157  0.6773
 5252TIP3    H215763   1.114   5.243   0.386 -1.6272 -0.0616  0.2233
 5253TIP3   OH215764   5.813   4.864   1.717 -0.1863  0.6955  0.6137
 5253TIP3    H115765   5.894   4.916   1.714  0.2880  0.0287  1.2668
 5253TIP3    H215766   5.789   4.862   1.810  0.6572 -1.4690  0.8579
 5254TIP3   OH215767   5.982   3.501   2.957 -0.2115 -0.1006  0.6216
 5254TIP3    H115768   5.994   3.410   2.931  0.2459  0.1317  0.0110
 5254TIP3    H215769   6.065   3.525   3.000 -0.1107  0.2049  0.2550
 5255TIP3   OH215770   3.335   3.096   3.775  0.8282 -0.1578  0.0240
 5255TIP3    H115771   3.281   3.103   3.696 -0.7935  1.0495  1.1665
 5255TIP3    H215772   3.374   3.009   3.770  0.8258 -0.0897 -2.1205
 5256TIP3   OH215773   1.563   1.291   3.402 -0.5531 -0.6888  0.1547
 5256TIP3    H115774   1.473   1.303   3.371 -0.0291  0.9351 -0.8474
 5256TIP3    H215775   1.613   1.358   3.357  0.7009  0.3009  2.8062
 5257TIP3   OH215776   6.077   1.472   0.363 -0.1597  0.0205 -0.7040
 5257TIP3    H115777   6.114   1.454   0.277 -1.2529  1.9770 -1.6545
 5257TIP3    H215778   6.016   1.400   0.379 -0.9000  0.2903 -2.1787
 5258TIP3   OH215779   2.070   1.482   3.596 -0.0207 -0.2681  0.5935
 5258TIP3    H115780   2.153   1.528   3.609 -1.0749  2.2430 -0.8797
 5258TIP3    H215781   2.093   1.405   3.544  1.4847 -0.1895  1.0812
 5259TIP3   OH215782   0.791   0.869   4.936  0.2285 -0.5972  0.4511
 5259TIP3    H115783   0.860   0.809   4.966 -0.0981 -0.1665  2.1525
 5259TIP3    H215784   0.833   0.955   4.934 -0.4502 -0.1514  2.5060
 5260TIP3   OH215785   4.426   4.132   3.337  0.2251 -0.2440 -1.2488
 5260TIP3    H115786   4.354   4.084   3.377 -1.7503  2.8810 -0.6978
 5260TIP3    H215787   4.400   4.144   3.246  1.3146 -1.2115 -1.7202
 5261TIP3   OH215788   1.374   1.017   0.074  0.5617 -0.5374 -0.3641
 5261TIP3    H115789   1.309   1.067   0.024  0.9358 -0.2343 -0.5545
 5261TIP3    H215790   1.324   0.980   0.147  0.4941  1.1161  0.4747
 5262TIP3   OH215791   2.059   5.154   3.737  0.1372 -0.1948 -0.1439
 5262TIP3    H115792   2.062   5.154   3.642 -1.6420 -0.1492 -0.2238
 5262TIP3    H215793   2.136   5.104   3.764  0.8903  0.1522 -1.5778
 5263TIP3   OH215794   3.206   5.393   4.001 -0.1016  0.2506  0.0977
 5263TIP3    H115795   3.169   5.323   4.054  0.1680  1.2543  1.6595
 5263TIP3    H215796   3.188   5.474   4.050  1.1834  1.0974 -0.7437
 5264TIP3   OH215797   4.962   2.435   1.255  0.5208  0.3549 -0.0002
 5264TIP3    H115798   4.883   2.479   1.287 -1.1412 -0.8266 -2.2389
 5264TIP3    H215799   4.929   2.358   1.207  3.0327 -0.1572 -1.0412
 5265TIP3   OH215800   1.520   2.196   2.843 -0.2103  0.3678  0.3091
 5265TIP3    H115801   1.581   2.148   2.899  3.3265  2.2697 -1.6107
 5265TIP3    H215802   1.469   2.127   2.800  0.9193 -1.3747  1.5856
 5266TIP3   OH215803   5.833   5.790   1.826  0.1185 -0.6888  0.0900
 5266TIP3    H115804   5.823   5.860   1.761 -1.8308 -1.4992 -0.5754
 5266TIP3    H215805   5.857   5.836   1.907 -0.3613  0.6753 -0.5044
 5267TIP3   OH215806   1.354   3.549   1.697  0.5244  0.4674 -0.6131
 5267TIP3    H115807   1.337   3.597   1.616 -0.9201  0.9144 -0.0886
 5267TIP3    H215808   1.272   3.555   1.746  1.1149 -0.4451  0.5562
 5268TIP3   OH215809   0.955   5.847   2.613 -0.0719  0.1139  0.5013
 5268TIP3    H115810   1.003   5.782   2.666  0.1475  0.3021  0.5356
 5268TIP3    H215811   0.891   5.795   2.565 -0.1074 -0.0915  0.7651
 5269TIP3   OH215812   4.739   2.127   1.914  0.3742 -0.5285  0.4637
 5269TIP3    H115813   4.778   2.201   1.867  1.3077 -0.5368  1.1967
 5269TIP3    H215814   4.791   2.051   1.886  0.5262 -0.6318  1.0139
 5270TIP3   OH215815   5.365   0.404   3.397 -0.6558  0.3259 -0.3439
 5270TIP3    H115816   5.310   0.353   3.455 -1.2576 -0.6628 -1.7275
 5270TIP3    H215817   5.439   0.347   3.377  1.2625  1.8028  1.8824
 5271TIP3   OH215818   3.781   5.252   0.271  0.2062 -0.9601 -0.3342
 5271TIP3    H115819   3.783   5.162   0.238 -2.8375 -1.2287 -0.0206
 5271TIP3    H215820   3.688   5.272   0.281  0.8365  1.7647  0.9101
 5272TIP3   OH215821   3.450   4.426   0.735  0.1175 -0.5803 -0.2759
 5272TIP3    H115822   3.458   4.519   0.714  0.3103 -0.6703 -0.6080
 5272TIP3    H215823   3.414   4.425   0.824  2.5180 -0.1581  0.7796
 5273TIP3   OH215824   3.265   4.533   0.544 -0.1363  0.3664  0.4865
 5273TIP3    H115825   3.294   4.449   0.581 -0.3461  0.9542  2.0412
 5273TIP3    H215826   3.212   4.573   0.613  1.8817  2.8584  0.7327
 5274TIP3   OH215827   3.926   3.416   3.481 -0.4226 -0.6913  0.0976
 5274TIP3    H115828   3.963   3.458   3.559  2.5736 -0.5288 -1.2844
 5274TIP3    H215829   3.952   3.324   3.488  0.4865 -0.5383 -0.9959
 5275TIP3   OH215830   2.327   4.889   4.436  0.0080  0.1786 -0.4473
 5275TIP3    H115831   2.378   4.943   4.497 -1.1560  1.1876 -0.3320
 5275TIP3    H215832   2.359   4.915   4.349 -0.7509  1.3223 -0.4103
 5276TIP3   OH215833   1.553   1.590   2.908 -0.1086  0.6389  0.0271
 5276TIP3    H115834   1.605   1.544   2.842 -0.4208 -0.1684  0.3335
 5276TIP3    H215835   1.501   1.521   2.950 -0.7822  1.3115  0.3154
 5277TIP3   OH215836   5.830   2.849   2.063 -0.1665  0.5309  0.3717
 5277TIP3    H115837   5.918   2.881   2.041 -0.6182  0.6775 -1.3033
 5277TIP3    H215838   5.839   2.754   2.065  0.0265  0.5456  0.1943
 5278TIP3   OH215839   0.234   2.727   1.283 -0.0252  0.3088  0.1416
 5278TIP3    H115840   0.287   2.776   1.346  0.8561  0.3039 -0.5689
 5278TIP3    H215841   0.242   2.636   1.310  0.0094  0.3484  0.2668
 5279TIP3   OH215842   2.190   2.439   5.064 -0.2440  0.0492  0.0110
 5279TIP3    H115843   2.186   2.369   5.129  1.6867  0.7760  0.9904
 5279TIP3    H215844   2.281   2.438   5.033 -0.5425  1.2048 -1.0036
 5280TIP3   OH215845   1.125   5.767   4.699  0.0408 -0.4690  0.2045
 5280TIP3    H115846   1.092   5.751   4.611 -0.5244  1.3831  0.0332
 5280TIP3    H215847   1.051   5.747   4.757 -0.2279  0.1883  0.0958
 5281TIP3   OH215848   2.618   2.064   3.135  0.2035 -0.2119 -0.2428
 5281TIP3    H115849   2.580   2.146   3.102  0.7443 -0.1708 -0.7667
 5281TIP3    H215850   2.550   1.999   3.119  0.1445 -0.0418 -0.7077
 5282TIP3   OH215851   4.764   3.556   1.138  0.0388 -0.3886  0.4241
 5282TIP3    H115852   4.765   3.466   1.172 -0.2867 -0.2707  0.7424
 5282TIP3    H215853   4.681   3.564   1.092 -0.5659  0.1873  1.5834
 5283TIP3   OH215854   3.844   3.836   2.063  0.1426 -0.8044  0.3361
 5283TIP3    H115855   3.923   3.842   2.116  0.5812 -2.9164  0.0041
 5283TIP3    H215856   3.824   3.927   2.039  1.0711 -0.0063  2.4025
 5284TIP3   OH215857   2.450   2.614   2.329 -0.2968 -0.1131 -0.1684
 5284TIP3    H115858   2.371   2.615   2.274 -0.4073  0.5523 -0.0043
 5284TIP3    H215859   2.416   2.608   2.418 -0.1973  0.9367 -0.0479
 5285TIP3   OH215860   0.569   2.008   4.787  0.0113  0.1258  0.6427
 5285TIP3    H115861   0.646   2.014   4.731  0.9254  0.6575  1.9288
 5285TIP3    H215862   0.595   1.950   4.858 -1.0539 -0.3433  0.6696
 5286TIP3   OH215863   2.653   1.358   3.320 -0.4821  0.6543 -0.4388
 5286TIP3    H115864   2.700   1.381   3.239 -0.1709  2.2746  0.1584
 5286TIP3    H215865   2.696   1.409   3.388 -1.3605  0.0549  0.6011
 5287TIP3   OH215866   2.593   0.880   2.906 -0.0826 -0.1951  0.2153
 5287TIP3    H115867   2.571   0.792   2.933  3.3979 -0.6568  2.1536
 5287TIP3    H215868   2.607   0.874   2.811 -1.2929 -1.3318  0.0915
 5288TIP3   OH215869   1.372   5.833   1.984  0.2704  0.6799 -0.0785
 5288TIP3    H115870   1.413   5.806   1.902  1.0466  2.3810 -0.2930
 5288TIP3    H215871   1.445   5.850   2.044 -0.2998 -1.9145  1.5043
 5289TIP3   OH215872  -0.025   4.393   1.376 -0.3425 -0.0945  0.1534
 5289TIP3    H115873   0.034   4.456   1.334  0.4950 -0.7623  0.3098
 5289TIP3    H215874   0.013   4.308   1.356 -1.6326 -0.5793 -0.2961
 5290TIP3   OH215875   1.800   3.587   1.786  0.3518  0.0950 -0.4346
 5290TIP3    H115876   1.716   3.541   1.783 -0.9244  1.9119  2.7631
 5290TIP3    H215877   1.865   3.517   1.777 -1.4350 -1.5424 -1.6678
 5291TIP3   OH215878   6.260   2.484   3.543 -0.1027 -0.0191  0.1085
 5291TIP3    H115879   6.305   2.536   3.609 -0.2797 -0.5141  0.6227
 5291TIP3    H215880   6.303   2.399   3.546 -1.3912 -0.6677  0.9705
 5292TIP3   OH215881   0.462   3.285   1.283  0.0404  0.1386 -0.0035
 5292TIP3    H115882   0.393   3.352   1.286  1.2288  1.4351 -0.5013
 5292TIP3    H215883   0.460   3.245   1.370  0.1307  1.7112  0.7648
 5293TIP3   OH215884   3.730   2.876   1.636 -0.1388  0.1177 -0.0845
 5293TIP3    H115885   3.718   2.910   1.725 -0.2427  0.2585 -0.1529
 5293TIP3    H215886   3.654   2.908   1.588 -0.9683 -1.3323  0.1895
 5294TIP3   OH215887   3.689   1.690   2.313 -0.6290  0.5949  0.1229
 5294TIP3    H115888   3.741   1.636   2.253  0.3903  0.3110  1.2322
 5294TIP3    H215889   3.650   1.628   2.373 -1.4874  0.8962 -0.1126
 5295TIP3   OH215890   1.117   5.019   1.942  0.0223 -0.1488 -0.2704
 5295TIP3    H115891   1.046   4.970   1.900 -0.7496  0.8370 -0.1579
 5295TIP3    H215892   1.161   5.063   1.869 -0.6226  0.6750 -0.1763
 5296TIP3   OH215893   1.758   4.272   0.232  0.6924 -0.0352 -0.4070
 5296TIP3    H115894   1.718   4.319   0.158  0.4873 -1.0745 -0.9852
 5296TIP3    H215895   1.792   4.192   0.193  1.1197 -0.3243  0.5372
 5297TIP3   OH215896   1.234   1.500   2.717  0.4073  0.0641 -0.0934
 5297TIP3    H115897   1.168   1.536   2.658 -0.6471 -0.6333  0.6165
 5297TIP3    H215898   1.234   1.406   2.698  0.9801  0.0118  0.1385
 5298TIP3   OH215899   0.375   4.784   0.390 -1.0739  0.1355 -0.5484
 5298TIP3    H115900   0.377   4.689   0.390  0.5960  0.0072 -4.2259
 5298TIP3    H215901   0.309   4.808   0.325 -0.5411  1.4597 -0.6458
 5299TIP3   OH215902   0.412   0.615   4.335 -0.0571  0.0165 -1.0132
 5299TIP3    H115903   0.393   0.635   4.244 -0.2127 -1.3124 -1.2910
 5299TIP3    H215904   0.335   0.645   4.383 -0.4534 -0.2748 -1.4584
 5300TIP3   OH215905   6.312   5.314   4.483 -0.3347  0.6229  0.0415
 5300TIP3    H115906   6.380   5.329   4.418  1.4160 -2.1011  1.0547
 5300TIP3    H215907   6.316   5.220   4.500 -3.1575  0.6723  1.4866
 5301TIP3   OH215908   1.192   5.900   3.559 -0.3411 -0.1071 -0.5464
 5301TIP3    H115909   1.232   5.856   3.484  1.3715 -0.7983  0.7178
 5301TIP3    H215910   1.229   5.988   3.557 -0.2775 -0.1332 -0.4737
 5302TIP3   OH215911   1.016   3.955   2.200 -0.3576 -0.2643 -0.5920
 5302TIP3    H115912   1.104   3.981   2.174 -0.0471 -1.5085 -0.8530
 5302TIP3    H215913   1.024   3.930   2.292 -0.5224 -0.0321 -0.5128
 5303TIP3   OH215914   4.487   5.062   1.797  0.3357 -0.0188  0.1017
 5303TIP3    H115915   4.517   5.057   1.707  1.5525  3.0567  0.1946
 5303TIP3    H215916   4.568   5.062   1.849 -0.3371 -1.5619  1.2121
 5304TIP3   OH215917   0.936   0.428   0.508 -0.2809 -0.4496 -0.4347
 5304TIP3    H115918   0.937   0.421   0.413 -0.2571 -0.8075 -0.4074
 5304TIP3    H215919   1.026   0.451   0.531 -0.2459 -0.5407 -0.4829
 5305TIP3   OH215920   2.847   0.130   3.629  0.2001  0.0092  0.2668
 5305TIP3    H115921   2.890   0.096   3.551 -1.0040  0.9870 -0.8716
 5305TIP3    H215922   2.791   0.201   3.597 -0.6235  0.1870  1.9661
 5306TIP3   OH215923   2.095   1.430   1.466  0.2731  0.2892 -0.0092
 5306TIP3    H115924   2.144   1.508   1.492 -0.2049  1.0175 -1.1860
 5306TIP3    H215925   2.085   1.439   1.371  0.7247 -1.5086 -0.2636
 5307TIP3   OH215926   2.015   1.039   4.356 -0.1508  0.2231 -1.0238
 5307TIP3    H115927   1.998   1.131   4.337  0.9381  1.0497  1.5556
 5307TIP3    H215928   1.928   1.001   4.371 -0.6327  0.7095 -2.4511
 5308TIP3   OH215929   2.545   0.210   2.089 -0.5253  0.0337 -0.6326
 5308TIP3    H115930   2.449   0.203   2.089 -0.4774 -0.9745 -1.9649
 5308TIP3    H215931   2.562   0.303   2.104 -1.6441 -0.0386  1.6661
 5309TIP3   OH215932   5.804   2.176   2.394 -0.1253  0.2257  0.0957
 5309TIP3    H115933   5.791   2.269   2.379 -1.5185 -0.1697 -1.5832
 5309TIP3    H215934   5.740   2.152   2.460  0.5526  0.5198  0.8746
 5310TIP3   OH215935   1.480   4.015   3.205 -0.3779 -0.3346 -0.3578
 5310TIP3    H115936   1.574   3.998   3.213  0.2572  1.2487 -3.0599
 5310TIP3    H215937   1.438   3.933   3.231  1.7840 -1.4083 -0.0313
 5311TIP3   OH215938   3.096   0.627   3.738  0.4941  0.2823  0.2144
 5311TIP3    H115939   3.036   0.678   3.794  0.4190 -0.2499  0.6320
 5311TIP3    H215940   3.041   0.558   3.701  0.6716  0.2853 -0.0513
 5312TIP3   OH215941   0.387   2.453   3.009 -0.0025 -0.1767  0.0269
 5312TIP3    H115942   0.377   2.478   3.101 -2.8510  0.0870 -0.2704
 5312TIP3    H215943   0.335   2.373   3.000  1.1470 -0.8284 -1.1473
 5313TIP3   OH215944   1.848   1.048   4.101  0.1964  0.4410  0.1221
 5313TIP3    H115945   1.799   1.069   4.180  0.4020  0.3825  0.2689
 5313TIP3    H215946   1.807   1.098   4.032 -0.4544 -0.0698  0.1277
 5314TIP3   OH215947   2.889   3.406   2.346 -0.2916  0.0296  0.6749
 5314TIP3    H115948   2.905   3.372   2.258  0.5396  2.2164 -0.0969
 5314TIP3    H215949   2.957   3.366   2.400 -0.8830 -1.4249  0.3707
 5315TIP3   OH215950   0.122   3.869   0.860  0.4408 -0.1791  0.0355
 5315TIP3    H115951   0.094   3.791   0.813  0.4314 -0.8964  1.1892
 5315TIP3    H215952   0.087   3.942   0.809  0.4648 -0.9173 -1.0733
 5316TIP3   OH215953   4.650   4.322   3.839 -0.1054  0.7076  0.0773
 5316TIP3    H115954   4.633   4.235   3.875  1.8919  0.2797  0.0775
 5316TIP3    H215955   4.603   4.323   3.756  0.6035 -0.7295 -0.3628
 5317TIP3   OH215956   5.943   2.165   4.065  0.1171  0.6071 -0.5425
 5317TIP3    H115957   6.009   2.168   3.996  0.6360 -0.6321 -0.1387
 5317TIP3    H215958   5.883   2.236   4.045  0.8025  0.8780 -1.7107
 5318TIP3   OH215959   0.268   4.354   1.532 -0.4335 -0.0773 -0.4304
 5318TIP3    H115960   0.276   4.412   1.456  2.4922 -0.8597 -0.8479
 5318TIP3    H215961   0.330   4.389   1.596  0.6823 -2.0765 -0.3082
 5319TIP3   OH215962   5.985   1.327   3.841 -0.0054 -0.3313 -1.0402
 5319TIP3    H115963   5.978   1.348   3.934  0.8407  1.7805 -1.4008
 5319TIP3    H215964   5.895   1.337   3.808 -0.3372 -1.2347 -0.4625
 5320TIP3   OH215965   5.235   2.633   0.914 -0.1608 -0.0798 -0.5267
 5320TIP3    H115966   5.210   2.568   0.979  0.3608 -0.8501 -1.0894
 5320TIP3    H215967   5.159   2.641   0.857  0.6631 -2.1022 -1.9808
 5321TIP3   OH215968   5.852   4.044   2.810 -0.2065  0.7250 -0.2227
 5321TIP3    H115969   5.876   4.124   2.765  0.1682  0.4840 -0.4574
 5321TIP3    H215970   5.806   4.073   2.889  0.3777  1.1825 -0.0431
 5322TIP3   OH215971   5.560   5.662   3.722  0.7857 -0.4807  0.2666
 5322TIP3    H115972   5.559   5.651   3.627 -1.2514  1.4890 -0.0252
 5322TIP3    H215973   5.589   5.752   3.736 -0.1513 -0.3233  1.4055
 5323TIP3   OH215974   3.016   1.782   2.096  0.0207  0.3770  0.4179
 5323TIP3    H115975   3.039   1.713   2.158  0.0507 -0.2338 -0.2639
 5323TIP3    H215976   3.048   1.862   2.138  0.9344 -0.1342  0.7440
 5324TIP3   OH215977   1.913   0.850   2.555 -0.2232  0.4806 -0.4454
 5324TIP3    H115978   1.839   0.794   2.578  0.8987 -0.7623  0.3112
 5324TIP3    H215979   1.989   0.794   2.564  0.7686  1.4738 -2.0691
 5325TIP3   OH215980   1.797   0.857   2.133 -0.5294 -0.1810  0.1875
 5325TIP3    H115981   1.882   0.845   2.176  0.1880  2.5054 -0.2573
 5325TIP3    H215982   1.803   0.805   2.053  0.4182 -0.6064  0.5253
 5326TIP3   OH215983   3.968   0.870   0.507 -0.3247 -0.2630 -0.4485
 5326TIP3    H115984   3.973   0.803   0.439 -0.7309 -0.8521  0.0858
 5326TIP3    H215985   3.874   0.891   0.514 -0.2600 -0.0318 -0.2442
 5327TIP3   OH215986   2.690   5.152   3.423 -0.0042  0.0525  0.8478
 5327TIP3    H115987   2.734   5.067   3.426 -0.1635 -0.0174  1.4142
 5327TIP3    H215988   2.653   5.157   3.335  3.5337  1.3685 -0.7571
 5328TIP3   OH215989   3.698   4.939   1.610  0.4375  0.4953  0.1452
 5328TIP3    H115990   3.747   4.867   1.650 -0.9706 -0.0764  0.8845
 5328TIP3    H215991   3.764   4.985   1.557  0.9259 -2.9099 -2.5952
 5329TIP3   OH215992   2.768   1.402   3.828  0.3784  0.6057 -0.4441
 5329TIP3    H115993   2.811   1.473   3.780 -1.9880  3.0424  0.7764
 5329TIP3    H215994   2.682   1.393   3.786  0.8872 -2.2524 -1.1156
 5330TIP3   OH215995   4.603   3.885   3.780 -0.1589 -0.0953 -0.3270
 5330TIP3    H115996   4.653   3.812   3.816  0.8183  0.1656 -1.0992
 5330TIP3    H215997   4.511   3.857   3.786  0.1773 -1.2164 -0.2387
 5331TIP3   OH215998   3.910   3.233   4.060  0.1976  0.3750  0.3718
 5331TIP3    H115999   3.868   3.318   4.049  0.2100  0.4695  1.0498
 5331TIP3    H216000   3.862   3.175   4.001  0.0352  0.7918  0.0843
 5332TIP3   OH216001   2.904   0.243   1.940 -0.2771 -0.4396 -0.1140
 5332TIP3    H116002   2.826   0.199   1.905 -0.0353  0.1356 -1.4383
 5332TIP3    H216003   2.942   0.179   2.001 -0.3465 -1.8011 -1.4328
 5333TIP3   OH216004   4.785   2.276   4.515  0.0664  0.1978 -0.0473
 5333TIP3    H116005   4.869   2.320   4.501 -0.1912  1.0261  0.9391
 5333TIP3    H216006   4.737   2.333   4.574 -1.4861  0.0802 -1.1255
 5334TIP3   OH216007   5.895   0.102   4.701  0.1596 -0.1165  0.3699
 5334TIP3    H116008   5.856   0.171   4.754 -0.0171 -1.2316  1.7629
 5334TIP3    H216009   5.987   0.099   4.730  0.1845 -0.3968  0.2666
 5335TIP3   OH216010   5.700   5.199   0.080 -0.6912  0.1997  0.3515
 5335TIP3    H116011   5.631   5.133   0.078  0.4332 -1.0395  0.9636
 5335TIP3    H216012   5.666   5.270   0.026 -2.0844 -0.7241 -0.0546
 5336TIP3   OH216013   1.273   2.089   0.139  0.0861 -0.1444 -0.2246
 5336TIP3    H116014   1.201   2.054   0.087 -0.2072 -0.0183  0.0978
 5336TIP3    H216015   1.312   2.013   0.181 -0.9977 -0.0246  1.0452
 5337TIP3   OH216016   2.728   4.414   0.191  0.1538 -0.8542 -0.0803
 5337TIP3    H116017   2.698   4.452   0.109  0.5657 -0.3456  0.0008
 5337TIP3    H216018   2.788   4.344   0.165  0.6484 -0.3900 -0.2161
 5338TIP3   OH216019   2.723   5.848   0.258  0.4785  0.5018  0.5690
 5338TIP3    H116020   2.721   5.765   0.210 -0.5786  0.1042  1.2702
 5338TIP3    H216021   2.633   5.861   0.288  0.8417  1.3971  1.3310
 5339TIP3   OH216022   3.724   5.623   3.472  0.0554 -0.1947 -0.1833
 5339TIP3    H116023   3.720   5.687   3.542  0.0109 -1.9585  1.4996
 5339TIP3    H216024   3.634   5.591   3.463  0.2631 -0.7855 -0.2548
 5340TIP3   OH216025   2.132   0.688   1.016  0.0620  0.3309  0.6241
 5340TIP3    H116026   2.056   0.678   1.073 -0.3647 -0.4421 -0.0688
 5340TIP3    H216027   2.151   0.600   0.985  0.0508  0.7876 -0.7409
 5341TIP3   OH216028   5.867   5.549   0.652 -0.2243  0.2155 -0.1749
 5341TIP3    H116029   5.884   5.473   0.597 -0.2690 -0.3356  0.5616
 5341TIP3    H216030   5.789   5.526   0.701  0.9563 -0.1479  1.6103
 5342TIP3   OH216031   4.240   0.307   3.566  0.0443  0.7308 -0.3100
 5342TIP3    H116032   4.200   0.230   3.526  0.4591 -0.3546  1.2703
 5342TIP3    H216033   4.254   0.282   3.657  1.0409  2.3576  0.0218
 5343TIP3   OH216034   5.804   1.392   1.644 -0.4692 -0.6233 -0.4258
 5343TIP3    H116035   5.841   1.436   1.720  0.5454 -0.5680 -0.9341
 5343TIP3    H216036   5.721   1.437   1.628 -0.0170  0.3081 -0.2091
 5344TIP3   OH216037   4.459   4.523   1.365  0.1241 -0.3850  0.9227
 5344TIP3    H116038   4.449   4.582   1.291  0.4560  0.3825  1.4811
 5344TIP3    H216039   4.506   4.447   1.329  1.6961  0.6636  0.6612
 5345TIP3   OH216040   5.268   2.121   4.771 -0.5821  0.4702 -0.0534
 5345TIP3    H116041   5.336   2.186   4.752 -1.0115  0.7457 -0.6832
 5345TIP3    H216042   5.197   2.171   4.811 -0.6295  0.2667  0.1219
 5346TIP3   OH216043   1.861   5.016   3.332  0.0503 -0.0984  0.8334
 5346TIP3    H116044   1.899   4.930   3.313  0.3926  0.0892  0.6612
 5346TIP3    H216045   1.771   4.997   3.358  0.8040 -0.7366  3.1793
 5347TIP3   OH216046   4.812   4.732   4.460 -0.4791 -0.6299 -0.7055
 5347TIP3    H116047   4.796   4.824   4.438  0.0686 -0.3960 -0.1840
 5347TIP3    H216048   4.894   4.711   4.415 -0.9650 -1.0799 -1.3921
 5348TIP3   OH216049   5.168   3.016   0.283 -0.3226 -0.1666 -0.2340
 5348TIP3    H116050   5.139   2.931   0.317  0.3825 -0.4901 -0.4148
 5348TIP3    H216051   5.113   3.031   0.206 -0.5716 -0.3718 -0.0980
 5349TIP3   OH216052   5.722   3.421   2.927  0.1255 -0.3411 -0.6342
 5349TIP3    H116053   5.667   3.471   2.866  0.9146  0.8238 -0.4391
 5349TIP3    H216054   5.802   3.474   2.935 -0.2354 -0.0643  1.9649
 5350TIP3   OH216055   3.909   3.476   2.446  0.3352 -0.2458  0.6683
 5350TIP3    H116056   3.864   3.542   2.393  1.3624 -0.0415  0.0129
 5350TIP3    H216057   4.000   3.483   2.420  0.6024 -1.3182  1.2547
 5351TIP3   OH216058   0.901   0.647   2.015 -0.0738 -0.3756  0.4950
 5351TIP3    H116059   0.859   0.564   1.995 -1.7349 -0.0809  2.4129
 5351TIP3    H216060   0.835   0.695   2.066  0.4672  2.4804 -1.2458
 5352TIP3   OH216061   5.938   4.058   4.084  0.2237  0.4283 -0.4850
 5352TIP3    H116062   5.886   4.112   4.025 -0.6330  0.4373  0.2603
 5352TIP3    H216063   5.874   4.017   4.143  0.7933 -1.6235 -1.1877
 5353TIP3   OH216064   5.347   5.334   1.432  0.4187  0.4052  0.8060
 5353TIP3    H116065   5.398   5.266   1.475  0.9093 -0.0031 -0.3727
 5353TIP3    H216066   5.324   5.297   1.347 -2.6493  0.1941  1.5937
 5354TIP3   OH216067   2.249   1.912   4.079 -0.2292  0.1746  0.7299
 5354TIP3    H116068   2.230   1.899   3.986 -0.4816 -0.1985  0.8292
 5354TIP3    H216069   2.218   1.832   4.121 -1.6240  0.9884  1.3395
 5355TIP3   OH216070   0.405   5.379   3.077  0.1926  0.3757  1.0051
 5355TIP3    H116071   0.314   5.402   3.090 -0.3061 -0.1344 -1.1806
 5355TIP3    H216072   0.439   5.446   3.018  0.6052 -0.6066  0.0870
 5356TIP3   OH216073   3.205   3.738   1.913  0.5611  0.3732  0.1589
 5356TIP3    H116074   3.145   3.727   1.986 -0.4194  0.8140 -0.5573
 5356TIP3    H216075   3.214   3.651   1.875 -1.9373  0.7302 -1.4717
 5357TIP3   OH216076   4.551   0.577   2.637 -0.1121  0.3676 -0.0495
 5357TIP3    H116077   4.613   0.506   2.620 -0.8156 -0.3415  0.3125
 5357TIP3    H216078   4.513   0.597   2.551 -0.8948 -0.6326  0.0447
 5358TIP3   OH216079   0.508   4.978   3.429 -0.2543 -0.2961  0.7008
 5358TIP3    H116080   0.501   4.891   3.469 -1.8870 -0.4693  0.0781
 5358TIP3    H216081   0.426   5.022   3.453 -0.2386  0.4195 -0.5196
 5359TIP3   OH216082   2.086   3.524   0.292 -0.2100 -0.7768  0.4386
 5359TIP3    H116083   2.038   3.442   0.302 -0.5111 -0.5610  0.7563
 5359TIP3    H216084   2.025   3.592   0.320 -0.6312 -0.2630 -1.5460
 5360TIP3   OH216085   1.373   4.790   1.430  0.4916 -0.1522  0.2206
 5360TIP3    H116086   1.390   4.698   1.449 -0.3541 -0.4929 -0.5686
 5360TIP3    H216087   1.277   4.797   1.428  0.5140  0.9942  1.3623
 5361TIP3   OH216088   4.223   3.294   1.137  0.7691  0.0273 -0.3227
 5361TIP3    H116089   4.278   3.220   1.162 -0.1729 -0.6509 -0.1743
 5361TIP3    H216090   4.237   3.359   1.205  0.7280 -0.4921  0.1890
 5362TIP3   OH216091   5.369   2.009   1.780  0.0842  0.9932  0.0522
 5362TIP3    H116092   5.428   1.946   1.740 -1.9450 -0.6689 -0.5266
 5362TIP3    H216093   5.350   1.973   1.867 -0.4199  1.2737  0.0635
 5363TIP3   OH216094   5.326   5.634   4.269 -0.1812  0.3812 -0.2709
 5363TIP3    H116095   5.418   5.606   4.269 -0.7154 -1.5719  0.0591
 5363TIP3    H216096   5.293   5.608   4.183 -0.3332  1.4281 -0.5332
 5364TIP3   OH216097   1.428   3.142   2.749 -0.1791 -0.2662  0.6209
 5364TIP3    H116098   1.499   3.200   2.776 -0.5109  0.3648  0.1521
 5364TIP3    H216099   1.394   3.107   2.832  1.5751 -1.6983  0.7969
 5365TIP3   OH216100   4.130   5.200   1.213 -0.3870 -0.1284 -0.1561
 5365TIP3    H116101   4.120   5.232   1.302  0.4382 -0.7114  0.1500
 5365TIP3    H216102   4.069   5.253   1.162  0.2100  1.2358  0.5050
 5366TIP3   OH216103   5.561   1.293   0.635 -0.6923 -0.1310  0.0606
 5366TIP3    H116104   5.536   1.298   0.542 -1.4976  0.2049  0.2875
 5366TIP3    H216105   5.518   1.369   0.675  0.4914  0.3257  0.5257
 5367TIP3   OH216106   1.661   1.927   0.300 -0.3114  0.3767  0.0509
 5367TIP3    H116107   1.618   2.006   0.334  0.8697  0.7103  0.8293
 5367TIP3    H216108   1.753   1.952   0.291  0.0938 -0.9409  0.3934
 5368TIP3   OH216109   3.370   1.291   4.413  0.2705 -0.2795 -0.5592
 5368TIP3    H116110   3.397   1.318   4.326  0.2253  0.2576 -0.4063
 5368TIP3    H216111   3.286   1.246   4.400 -0.2147  0.6457 -0.6817
 5369TIP3   OH216112   4.859   2.572   4.364 -0.3529  0.4862 -0.2606
 5369TIP3    H116113   4.939   2.606   4.404 -0.4124  0.1982  0.1073
 5369TIP3    H216114   4.791   2.586   4.431 -0.1628 -1.4030  0.3770
 5370TIP3   OH216115   5.346   3.697   1.313  0.3036 -0.2522 -0.1809
 5370TIP3    H116116   5.378   3.786   1.325  0.9637 -0.5018 -0.0110
 5370TIP3    H216117   5.386   3.669   1.230  3.3722 -1.7407  1.6327
 5371TIP3   OH216118   5.052   5.270   1.705  0.5198  0.2306 -0.3630
 5371TIP3    H116119   5.071   5.332   1.635 -0.9677  1.5171  0.3051
 5371TIP3    H216120   4.956   5.266   1.708  0.5661 -0.4486  1.0321
 5372TIP3   OH216121   5.665   4.781   0.560  0.3104 -0.3767  0.2423
 5372TIP3    H116122   5.691   4.852   0.620  2.7243  0.7438 -1.9296
 5372TIP3    H216123   5.742   4.724   0.557  0.7229  0.2137 -2.5578
 5373TIP3   OH216124   4.282   3.221   0.866  0.4501  0.2826 -0.1064
 5373TIP3    H116125   4.258   3.232   0.958 -1.1070 -0.8211 -0.3308
 5373TIP3    H216126   4.377   3.208   0.867  0.4179 -0.0430  1.3743
 5374TIP3   OH216127   2.920   1.913   1.521  0.6322  0.5819  0.0619
 5374TIP3    H116128   2.971   1.993   1.530  1.8541 -0.4339  3.2208
 5374TIP3    H216129   2.831   1.944   1.503  0.6427  2.8502  3.0781
 5375TIP3   OH216130   2.911   0.057   3.372 -0.0063  0.2186 -0.0655
 5375TIP3    H116131   3.004   0.052   3.351  0.4455 -0.0723  1.8558
 5375TIP3    H216132   2.890   0.150   3.367  0.7648  0.4567  0.9581
 5376TIP3   OH216133   3.638   0.949   3.876 -0.2905 -0.1225  0.1571
 5376TIP3    H116134   3.570   0.984   3.932 -0.7215 -1.8356  0.7863
 5376TIP3    H216135   3.598   0.941   3.790 -0.1676  0.9211 -0.0063
 5377TIP3   OH216136   2.716   2.439   2.646  0.3412  0.4132  0.4279
 5377TIP3    H116137   2.749   2.384   2.717 -1.2330  0.0180  0.8929
 5377TIP3    H216138   2.634   2.397   2.620 -0.1035  1.6719 -0.2652
 5378TIP3   OH216139   4.115   3.204   3.839  0.8587 -0.2810 -0.4650
 5378TIP3    H116140   4.117   3.134   3.904 -0.6406 -1.0607 -1.2224
 5378TIP3    H216141   4.160   3.167   3.763 -0.5822 -0.7159 -1.1246
 5379TIP3   OH216142   1.211   0.790   4.681 -0.2138 -0.6217 -0.2833
 5379TIP3    H116143   1.158   0.779   4.760  0.2359 -0.5235  0.0314
 5379TIP3    H216144   1.302   0.782   4.711  0.0116  0.6970 -0.5753
 5380TIP3   OH216145   1.470   2.561   3.090 -0.2054  0.0417  0.6888
 5380TIP3    H116146   1.412   2.524   3.024 -1.3068  0.0717  1.6145
 5380TIP3    H216147   1.556   2.566   3.047 -0.9430  0.2985 -0.7973
 5381TIP3   OH216148   1.048   2.275   3.503  0.2300  0.2609 -0.0296
 5381TIP3    H116149   1.110   2.312   3.440 -0.9434  1.8076 -0.3274
 5381TIP3    H216150   1.059   2.180   3.494  3.0435  0.4512  0.4530
 5382TIP3   OH216151   3.063   5.830   3.425 -0.2078 -0.1822  0.9193
 5382TIP3    H116152   3.120   5.828   3.502  1.5561  0.3693 -0.3042
 5382TIP3    H216153   2.974   5.825   3.460  0.4597  1.6817  3.0937
 5383TIP3   OH216154   1.373   1.726   2.320  0.0438  0.0483 -0.0838
 5383TIP3    H116155   1.357   1.643   2.275 -0.6319 -0.2055  0.5882
 5383TIP3    H216156   1.441   1.705   2.384  0.6293  0.2763 -0.6354
 5384TIP3   OH216157   0.718   1.055   3.748 -0.2359  0.0538  0.1230
 5384TIP3    H116158   0.679   1.128   3.796  1.0364  0.9754 -0.2047
 5384TIP3    H216159   0.812   1.069   3.754 -0.0095 -0.1406 -2.0694
 5385TIP3   OH216160   1.164   4.321   2.932  0.0134 -0.0533 -0.0133
 5385TIP3    H116161   1.069   4.329   2.929  0.0663  0.5424 -0.2685
 5385TIP3    H216162   1.182   4.235   2.896 -0.4680 -0.4612  0.7009
 5386TIP3   OH216163   0.078   4.211   0.208 -0.7051 -0.0405  0.1186
 5386TIP3    H116164   0.144   4.142   0.204 -1.5193 -0.8432  0.1875
 5386TIP3    H216165   0.032   4.196   0.290 -1.0717  0.4088  0.0007
 5387TIP3   OH216166   3.957   2.763   0.848 -0.2907 -0.1488 -0.3654
 5387TIP3    H116167   3.871   2.784   0.885 -0.8310  2.0733 -2.6283
 5387TIP3    H216168   4.002   2.847   0.842  1.2333 -0.9837 -1.1570
 5388TIP3   OH216169   1.282   5.534   4.670  0.0544 -0.0586  0.2395
 5388TIP3    H116170   1.339   5.545   4.593  0.5395  2.1236  0.8571
 5388TIP3    H216171   1.222   5.608   4.666 -1.8330 -1.5211  0.4244
 5389TIP3   OH216172   4.566   4.663   0.141  0.0761 -0.0917 -0.3539
 5389TIP3    H116173   4.628   4.625   0.203 -1.8836 -2.1645  0.4827
 5389TIP3    H216174   4.612   4.739   0.104  2.5222 -0.6959  1.2212
 5390TIP3   OH216175   4.588   5.590   4.844 -0.4650 -0.8608 -0.2747
 5390TIP3    H116176   4.544   5.516   4.886  0.5747 -1.1174  0.4142
 5390TIP3    H216177   4.603   5.561   4.754 -1.2369 -0.9649 -0.3747
 5391TIP3   OH216178   2.650   5.872   1.798 -0.8065 -0.1011 -0.5318
 5391TIP3    H116179   2.559   5.844   1.786 -0.6020 -1.1611  0.2502
 5391TIP3    H216180   2.702   5.808   1.750 -0.3927 -0.4270  0.3178
 5392TIP3   OH216181   3.006   2.829   2.403  0.3893  0.2541 -0.5354
 5392TIP3    H116182   2.956   2.749   2.385  2.2510 -1.0757 -0.0899
 5392TIP3    H216183   3.052   2.810   2.485  0.7408  1.8567 -0.3408
 5393TIP3   OH216184   4.393   5.910   3.177  0.5200 -0.2909 -0.7199
 5393TIP3    H116185   4.307   5.880   3.205  1.6868 -2.8069  0.4634
 5393TIP3    H216186   4.389   6.005   3.186 -1.9707 -0.3625 -0.3206
 5394TIP3   OH216187   2.895   3.821   3.711 -0.5081  0.1738 -0.1807
 5394TIP3    H116188   2.831   3.809   3.641 -0.5439 -2.0391  0.1658
 5394TIP3    H216189   2.931   3.734   3.726  2.0381  1.2077  0.1925
 5395TIP3   OH216190   4.872   4.222   2.789  0.3068  0.9911  0.2775
 5395TIP3    H116191   4.894   4.286   2.721  0.4775  0.0724 -0.5589
 5395TIP3    H216192   4.842   4.145   2.740 -2.4022  1.2924  1.2937
 5396TIP3   OH216193   0.849   1.286   3.634 -0.1490  0.5392  0.3361
 5396TIP3    H116194   0.865   1.323   3.721  1.8764  0.5395  0.0080
 5396TIP3    H216195   0.754   1.290   3.623 -0.6563 -0.9478  3.2087
 5397TIP3   OH216196   0.030   3.950   1.765 -0.1135  0.5479  0.0016
 5397TIP3    H116197   0.069   4.022   1.715 -1.5863  1.3556 -0.0083
 5397TIP3    H216198  -0.014   3.992   1.839 -0.4753 -0.3934  0.3339
 5398TIP3   OH216199   3.532   1.088   5.002 -0.3592  0.3682 -0.2300
 5398TIP3    H116200   3.488   1.107   5.085 -0.4634  1.1956 -0.4694
 5398TIP3    H216201   3.480   1.134   4.936 -0.5340 -0.6359 -0.8175
 5399TIP3   OH216202   2.108   0.202   4.939  0.1015 -0.1615 -0.0794
 5399TIP3    H116203   2.161   0.154   5.002 -0.2752 -0.2759  0.1525
 5399TIP3    H216204   2.154   0.192   4.856  0.4034 -0.3194  0.1065
 5400TIP3   OH216205   2.661   4.437   0.569 -0.0504 -0.1864 -0.4580
 5400TIP3    H116206   2.599   4.501   0.534 -0.9421 -0.6079  0.3071
 5400TIP3    H216207   2.636   4.355   0.527  0.2190 -0.2935 -0.4083
 5401TIP3   OH216208   2.978   3.280   2.076 -0.0150  0.2398  0.2052
 5401TIP3    H116209   3.070   3.304   2.091  0.7144 -1.6801 -0.8627
 5401TIP3    H216210   2.976   3.185   2.086 -1.3846 -0.0484 -2.0418
 5402TIP3   OH216211   4.566   1.127   5.154 -0.2605  0.1053 -0.3904
 5402TIP3    H116212   4.509   1.202   5.136  0.8029  0.1995 -4.3617
 5402TIP3    H216213   4.654   1.162   5.144  0.2838 -1.4292 -1.2990
 5403TIP3   OH216214   0.538   3.029   3.101  0.7083 -0.1168 -0.2822
 5403TIP3    H116215   0.595   3.009   3.175  0.9495  0.1935 -0.3827
 5403TIP3    H216216   0.597   3.037   3.026  0.5074 -0.0386 -0.4339
 5404TIP3   OH216217   0.669   4.152   1.015 -0.1738  0.2564  0.0197
 5404TIP3    H116218   0.715   4.161   1.099 -0.3364 -0.2433  0.1662
 5404TIP3    H216219   0.614   4.230   1.009 -0.8343 -0.1330  0.8057
 5405TIP3   OH216220   0.850   0.413   4.443  0.4060 -0.1272 -0.2140
 5405TIP3    H116221   0.800   0.487   4.477  0.3674  0.1378 -0.8323
 5405TIP3    H216222   0.899   0.380   4.519 -1.6416 -1.2065  0.7349
 5406TIP3   OH216223   1.973   5.511   2.189  0.6266  0.4564  0.0860
 5406TIP3    H116224   1.978   5.589   2.243 -0.4513  1.0656 -0.6391
 5406TIP3    H216225   1.906   5.456   2.230  1.9489 -0.4948  1.0540
 5407TIP3   OH216226   5.389   0.303   0.685  0.2470  0.2402 -0.1141
 5407TIP3    H116227   5.339   0.309   0.604 -0.1743 -2.5811 -0.1461
 5407TIP3    H216228   5.454   0.235   0.668  2.9158  2.3856  0.6103
 5408TIP3   OH216229   5.284   2.493   5.051  0.1050 -0.8896  0.1335
 5408TIP3    H116230   5.318   2.407   5.077 -0.0643 -1.0419 -0.1543
 5408TIP3    H216231   5.328   2.554   5.111  0.0272 -1.2001  0.5161
 5409TIP3   OH216232   4.004   5.391   1.734 -0.1502  0.3010  0.1597
 5409TIP3    H116233   4.064   5.344   1.790 -0.3218 -0.3292 -0.1740
 5409TIP3    H216234   3.978   5.468   1.785 -1.5570 -1.0600  1.6272
 5410TIP3   OH216235   1.150   3.766   4.793  0.4019 -0.0560  0.4237
 5410TIP3    H116236   1.194   3.725   4.867  0.0234 -1.4193 -0.0675
 5410TIP3    H216237   1.204   3.743   4.717 -0.4061 -0.6127 -0.0045
 5411TIP3   OH216238   5.218   2.068   0.718  0.1695  0.1224  0.1866
 5411TIP3    H116239   5.202   2.161   0.738 -0.2296  0.0565  0.1803
 5411TIP3    H216240   5.176   2.055   0.633 -0.9963 -0.3979  0.8111
 5412TIP3   OH216241   2.915   0.824   2.278 -0.6690 -0.3625  0.1655
 5412TIP3    H116242   2.826   0.803   2.249 -0.5129 -1.1201  0.2244
 5412TIP3    H216243   2.953   0.740   2.303 -0.2119  0.0681  0.9371
 5413TIP3   OH216244   1.394   0.461   1.502 -0.0919  0.6421  0.0372
 5413TIP3    H116245   1.328   0.447   1.570  1.8792  0.6980  2.0554
 5413TIP3    H216246   1.354   0.426   1.423 -2.9565  1.6538  0.9144
 5414TIP3   OH216247   2.353   0.727   2.341 -0.5855 -0.0177 -0.1431
 5414TIP3    H116248   2.393   0.647   2.373  1.1066  0.2522 -1.4094
 5414TIP3    H216249   2.324   0.706   2.253 -1.3455  0.3932  0.0012
 5415TIP3   OH216250   1.632   0.225   2.178 -0.2919 -0.2741  0.0290
 5415TIP3    H116251   1.591   0.148   2.218  0.3279 -0.9531 -0.6118
 5415TIP3    H216252   1.707   0.190   2.130  1.4372  0.9782  1.6665
 5416TIP3   OH216253   1.225   1.603   0.803  0.5216  0.9155 -0.1975
 5416TIP3    H116254   1.308   1.645   0.825 -0.1142  1.6508  0.9750
 5416TIP3    H216255   1.206   1.546   0.878  0.4117  0.0353 -0.8788
 5417TIP3   OH216256   3.475   5.054   4.264 -0.1833 -0.5401  0.6358
 5417TIP3    H116257   3.488   5.000   4.186 -0.1761 -0.6628  0.7219
 5417TIP3    H216258   3.381   5.064   4.271 -0.1383  0.5896 -0.1521
 5418TIP3   OH216259   1.181   2.608   3.015  0.4331 -0.0212 -0.2657
 5418TIP3    H116260   1.221   2.526   2.987 -1.0645 -0.2627 -1.8493
 5418TIP3    H216261   1.127   2.635   2.941 -1.0601  1.0830  1.1544
 5419TIP3   OH216262   5.052   0.055   3.205  0.7612  0.0633  0.0265
 5419TIP3    H116263   4.964   0.062   3.169  0.7045 -1.6916 -0.2756
 5419TIP3    H216264   5.041   0.062   3.299  0.4605  0.9651 -0.0619
 5420TIP3   OH216265   2.990   5.117   5.007 -0.1563 -0.0468 -0.2437
 5420TIP3    H116266   3.058   5.118   4.940  0.4662  0.4842  0.3822
 5420TIP3    H216267   3.013   5.189   5.066 -0.5474 -0.6410  0.6670
 5421TIP3   OH216268   4.077   4.422   2.175  0.3818 -0.3317  0.2232
 5421TIP3    H116269   4.071   4.511   2.211 -0.7253 -0.2508 -0.1217
 5421TIP3    H216270   4.028   4.368   2.236 -0.5445 -0.3827 -0.5454
 5422TIP3   OH216271   0.467   1.871   2.049  0.5675 -0.9518 -0.8555
 5422TIP3    H116272   0.433   1.785   2.025  1.7753 -1.6965 -0.0364
 5422TIP3    H216273   0.533   1.852   2.116 -1.9038  0.8551  2.4207
 5423TIP3   OH216274   3.794   4.536   0.942  0.3685  0.1428 -0.1595
 5423TIP3    H116275   3.740   4.458   0.952  1.5125 -0.3642  3.2617
 5423TIP3    H216276   3.758   4.598   1.005  0.5739  1.8056 -1.5931
 5424TIP3   OH216277   1.182   0.852   2.584  0.1705  0.0382  0.0758
 5424TIP3    H116278   1.176   0.760   2.555 -0.7196  0.2553 -0.4677
 5424TIP3    H216279   1.193   0.847   2.679  0.6060 -0.6355 -0.0008
 5425TIP3   OH216280   3.892   0.715   4.880 -0.1901 -0.5388  0.3612
 5425TIP3    H116281   3.863   0.802   4.850 -2.1023 -1.4848 -0.7908
 5425TIP3    H216282   3.834   0.695   4.954  0.7048 -0.5599  1.0641
 5426TIP3   OH216283   2.542   4.198   2.398  0.6038  0.6734 -0.1675
 5426TIP3    H116284   2.636   4.189   2.382  0.6968  2.0443 -0.5172
 5426TIP3    H216285   2.515   4.112   2.430  2.2423  0.6138  1.2443
 5427TIP3   OH216286   1.973   2.516   2.375  0.2854  0.4231  0.5052
 5427TIP3    H116287   1.939   2.461   2.304  1.1183  0.4273  0.0840
 5427TIP3    H216288   2.023   2.456   2.430 -0.9188  0.2887  1.4928
 5428TIP3   OH216289   3.521   5.224   0.291 -0.1796 -0.5637  0.4704
 5428TIP3    H116290   3.498   5.133   0.311 -0.2148 -0.7996 -0.5908
 5428TIP3    H216291   3.439   5.265   0.264  0.3946 -1.2419 -2.7068
 5429TIP3   OH216292   5.493   3.493   3.195 -0.6339 -0.5634 -1.1511
 5429TIP3    H116293   5.422   3.492   3.260  1.2735  0.8843  1.1647
 5429TIP3    H216294   5.484   3.578   3.152 -0.6462 -0.6275 -1.2747
 5430TIP3   OH216295   4.597   1.814   3.282  0.1592 -0.0004 -0.5752
 5430TIP3    H116296   4.525   1.762   3.247  0.9072 -1.1486 -0.4379
 5430TIP3    H216297   4.676   1.769   3.253  0.8177  0.2911  0.6854
 5431TIP3   OH216298   0.645   0.102   1.951 -0.2276  0.0798 -0.2815
 5431TIP3    H116299   0.595   0.153   2.015 -0.9435  1.2479 -1.7155
 5431TIP3    H216300   0.732   0.093   1.990  0.2261  3.1954 -0.2816
 5432TIP3   OH216301   2.544   5.998   4.257  1.0730 -0.4610  0.3391
 5432TIP3    H116302   2.513   6.036   4.339 -1.6601  1.2658 -1.3060
 5432TIP3    H216303   2.601   5.926   4.284 -0.8647 -0.9602  3.7721
 5433TIP3   OH216304   5.820   4.299   0.901  0.2108 -0.0935  0.3311
 5433TIP3    H116305   5.814   4.249   0.819  1.3145 -1.0857  0.8148
 5433TIP3    H216306   5.762   4.252   0.962 -2.5710  2.0382 -0.4582
 5434TIP3   OH216307   0.683   3.000   2.854 -0.8690 -0.5779  0.0587
 5434TIP3    H116308   0.766   2.982   2.809 -2.0282 -0.9553 -2.0675
 5434TIP3    H216309   0.617   2.957   2.800 -2.6181  0.9534  0.8655
 5435TIP3   OH216310   0.315   4.924   1.249  0.0582 -0.3561 -0.0886
 5435TIP3    H116311   0.290   4.939   1.340  3.0234  1.7119  0.5368
 5435TIP3    H216312   0.332   4.830   1.244 -0.2335 -0.5188  1.4533
 5436TIP3   OH216313   4.442   2.305   3.409  0.0880  0.0318  0.0716
 5436TIP3    H116314   4.422   2.237   3.473 -1.3773 -1.9274 -2.2914
 5436TIP3    H216315   4.358   2.329   3.372  0.8885  1.1258 -1.1440
 5437TIP3   OH216316   3.340   3.413   0.245  0.5299 -0.5429  0.1666
 5437TIP3    H116317   3.427   3.403   0.208  0.6604 -0.8224  0.5423
 5437TIP3    H216318   3.312   3.501   0.220  0.8820 -0.4877 -0.0280
 5438TIP3   OH216319   1.946   0.602   0.732  0.8073  0.2927 -0.3902
 5438TIP3    H116320   1.920   0.520   0.689  0.8979  0.2972 -0.4544
 5438TIP3    H216321   1.983   0.574   0.816  0.6226  0.2841 -0.3110
 5439TIP3   OH216322   5.111   3.496   5.103  0.1150 -0.9647 -0.3432
 5439TIP3    H116323   5.165   3.535   5.172  0.2041 -2.2172  0.3231
 5439TIP3    H216324   5.082   3.570   5.051  2.0517 -0.1875 -0.4119
 5440TIP3   OH216325   3.769   3.662   3.776  0.5299 -0.1844 -0.0354
 5440TIP3    H116326   3.803   3.665   3.687  1.1377  0.4820  0.2116
 5440TIP3    H216327   3.674   3.667   3.765  0.6250  0.5988 -0.6187
 5441TIP3   OH216328   2.258   1.170   2.971  0.4626 -0.2839  0.7712
 5441TIP3    H116329   2.209   1.158   3.053 -2.3553  0.4152 -0.6896
 5441TIP3    H216330   2.225   1.102   2.913 -0.3847  1.4611 -0.9224
 5442TIP3   OH216331   4.864   0.521   0.520  0.3530  0.6709  0.4070
 5442TIP3    H116332   4.771   0.535   0.533 -0.1419 -1.0052 -0.9986
 5442TIP3    H216333   4.885   0.443   0.571  0.2174 -0.9072 -1.8172
 5443TIP3   OH216334   6.305   0.847   1.714 -0.3291 -0.3424  0.2477
 5443TIP3    H116335   6.369   0.904   1.755 -0.8450  0.5656 -0.1855
 5443TIP3    H216336   6.357   0.785   1.663  0.2136  1.2681 -1.2693
 5444TIP3   OH216337   2.159   5.563   0.747 -0.4462  0.0672  0.1322
 5444TIP3    H116338   2.144   5.599   0.660 -0.1787 -1.5258 -0.6014
 5444TIP3    H216339   2.130   5.472   0.741 -1.1341  0.1326  1.9289
 5445TIP3   OH216340   4.281   1.259   4.638  0.0592  0.7072 -0.0159
 5445TIP3    H116341   4.235   1.328   4.685 -0.3611  0.0332  0.5991
 5445TIP3    H216342   4.372   1.265   4.669 -0.5108 -0.7668  2.2413
 5446TIP3   OH216343   5.843   1.306   0.318  0.2609  0.2502 -0.2961
 5446TIP3    H116344   5.825   1.230   0.263 -1.1982  0.4299 -0.0909
 5446TIP3    H216345   5.807   1.380   0.269  0.6159  0.6584  0.0549
 5447TIP3   OH216346   0.567   4.946   1.180 -0.3255  0.1798  0.3778
 5447TIP3    H116347   0.637   4.961   1.242 -0.2182  1.0162  0.0709
 5447TIP3    H216348   0.489   4.932   1.234 -0.1166  0.2836  0.7062
 5448TIP3   OH216349   1.486   4.509   2.207  0.1560  0.1940 -0.0376
 5448TIP3    H116350   1.441   4.549   2.281 -0.2642 -0.2327 -0.0633
 5448TIP3    H216351   1.526   4.430   2.242  1.0914  0.6808  0.0390
 5449TIP3   OH216352   3.974   3.586   1.248 -0.7869  0.3362  0.1556
 5449TIP3    H116353   3.955   3.499   1.285 -1.1912  0.5868  0.5419
 5449TIP3    H216354   3.913   3.645   1.292  1.3939  1.3357  2.0490
 5450TIP3   OH216355   3.273   0.450   0.896 -0.7876  0.2759 -0.4634
 5450TIP3    H116356   3.323   0.422   0.973 -1.2087 -0.9428 -0.6029
 5450TIP3    H216357   3.195   0.492   0.933 -1.7017 -1.5709 -0.1463
 5451TIP3   OH216358   2.130   1.884   2.734 -0.9692  0.4807  0.3584
 5451TIP3    H116359   2.167   1.813   2.787 -1.6910  1.6438  2.5594
 5451TIP3    H216360   2.190   1.893   2.660  0.1350 -1.1912  0.9910
 5452TIP3   OH216361   2.777   4.098   1.481 -0.3326 -0.1793  0.2794
 5452TIP3    H116362   2.702   4.102   1.421 -2.4021 -2.0354  2.5060
 5452TIP3    H216363   2.791   4.188   1.507  0.0641  0.5705 -2.2029
 5453TIP3   OH216364   5.364   3.285   1.694 -0.1412  0.6160  0.1782
 5453TIP3    H116365   5.422   3.346   1.741 -0.8894  2.0342 -0.6735
 5453TIP3    H216366   5.413   3.263   1.614 -0.3913  1.1084 -0.1146
 5454TIP3   OH216367   1.380   0.938   1.477  0.3805  0.7519 -0.2594
 5454TIP3    H116368   1.434   0.868   1.514  0.3333  1.0038  0.2904
 5454TIP3    H216369   1.316   0.958   1.545  0.6144  1.5724 -0.2773
 5455TIP3   OH216370   5.763   2.353   1.896  0.0411 -0.0100  0.2215
 5455TIP3    H116371   5.854   2.325   1.884 -0.3322 -1.5258  0.6715
 5455TIP3    H216372   5.711   2.275   1.874 -1.0657  0.2965  1.6008
 5456TIP3   OH216373   5.498   4.406   1.646 -0.2189 -0.1357  0.3643
 5456TIP3    H116374   5.506   4.432   1.555  1.7936 -1.4678  0.0816
 5456TIP3    H216375   5.417   4.446   1.676 -0.1893  1.5262 -1.5873
 5457TIP3   OH216376   1.539   5.210   4.567 -0.4172 -0.1452 -0.4188
 5457TIP3    H116377   1.542   5.124   4.526  0.7006  0.1867 -1.0835
 5457TIP3    H216378   1.568   5.270   4.498  1.1596  0.4718  0.7295
 5458TIP3   OH216379   1.497   2.959   1.768 -0.0347  0.4285  0.5480
 5458TIP3    H116380   1.461   2.871   1.762 -0.5022  0.4060  2.8174
 5458TIP3    H216381   1.592   2.946   1.766 -0.0098 -0.4505  3.2459
 5459TIP3   OH216382   0.294   0.557   4.083 -0.5328  0.6922  0.0104
 5459TIP3    H116383   0.224   0.621   4.094 -0.6344  0.5230  0.3530
 5459TIP3    H216384   0.251   0.482   4.040 -0.3561  0.9559 -0.6374
 5460TIP3   OH216385   5.268   5.768   3.850 -0.6833  0.2351 -0.2017
 5460TIP3    H116386   5.340   5.787   3.789 -0.5879 -2.7546 -1.1841
 5460TIP3    H216387   5.301   5.698   3.905 -2.0138  0.5376  1.0500
 5461TIP3   OH216388   4.980   2.346   3.941  0.0018  0.2017  0.2997
 5461TIP3    H116389   4.977   2.390   4.026 -0.8486 -2.1227  1.5600
 5461TIP3    H216390   5.069   2.312   3.935 -0.1004 -0.1105  0.5293
 5462TIP3   OH216391   1.285   1.190   0.783 -0.2565 -0.1871  0.0155
 5462TIP3    H116392   1.307   1.128   0.852 -0.7894 -0.9065 -0.4531
 5462TIP3    H216393   1.335   1.160   0.707  2.9945  2.4899  0.8587
 5463TIP3   OH216394   2.082   5.876   2.681  0.3350  0.3036 -0.0277
 5463TIP3    H116395   2.125   5.828   2.611  0.9634  0.7250  0.0626
 5463TIP3    H216396   2.042   5.808   2.736  0.2064 -0.0451 -0.5531
 5464TIP3   OH216397   1.860   1.356   0.024 -0.0201 -0.4448 -0.2891
 5464TIP3    H116398   1.784   1.398  -0.017 -0.4373  0.8617  1.7112
 5464TIP3    H216399   1.825   1.307   0.098  1.1462  1.6058  1.7664
 5465TIP3   OH216400   1.743   1.253   0.244  0.7778  0.5548 -0.6198
 5465TIP3    H116401   1.752   1.317   0.315 -0.0802  0.4837 -0.4415
 5465TIP3    H216402   1.674   1.194   0.273  1.7007 -0.5898 -0.6888
 5466TIP3   OH216403   2.098   3.899   2.334  0.8666 -0.6083 -0.0954
 5466TIP3    H116404   2.079   3.880   2.426  0.5413 -0.9841 -0.2381
 5466TIP3    H216405   2.070   3.990   2.322 -0.3294 -0.9708 -0.1530
 5467TIP3   OH216406   3.055   0.115   2.525  0.5061  0.5393  0.2945
 5467TIP3    H116407   3.071   0.034   2.573  2.5940  0.4725 -0.4129
 5467TIP3    H216408   3.003   0.088   2.450  0.6599 -0.0490  0.3928
 5468TIP3   OH216409   5.555   2.890   1.046 -0.2319 -0.4245  0.2861
 5468TIP3    H116410   5.488   2.932   1.099 -1.7571 -0.8803 -1.2067
 5468TIP3    H216411   5.636   2.936   1.068 -1.1388  0.5917  1.6288
 5469TIP3   OH216412   5.492   2.203   4.133 -0.3830 -0.1956  0.2304
 5469TIP3    H116413   5.540   2.140   4.079 -1.0500 -0.0657 -0.5259
 5469TIP3    H216414   5.489   2.282   4.080  0.1999  0.3989  1.0608
 5470TIP3   OH216415   0.372   0.508   2.445 -0.1756 -0.3728  0.3332
 5470TIP3    H116416   0.464   0.508   2.470 -0.2528 -0.0555  0.6242
 5470TIP3    H216417   0.330   0.567   2.507 -0.0890  1.8459 -1.5543
 5471TIP3   OH216418   3.176   5.801   2.590  0.4800  0.1786 -0.1466
 5471TIP3    H116419   3.186   5.866   2.659  0.2156 -0.8046  0.8486
 5471TIP3    H216420   3.255   5.809   2.537  0.3550  1.4370 -0.1628
 5472TIP3   OH216421   0.813   2.483   4.514  0.2750  1.2365 -0.1558
 5472TIP3    H116422   0.858   2.405   4.481 -0.8463  0.9375 -1.0244
 5472TIP3    H216423   0.816   2.474   4.610 -1.5655 -0.9163 -0.2332
 5473TIP3   OH216424   3.314   5.941   0.118  0.0375  0.4856 -0.0205
 5473TIP3    H116425   3.334   5.910   0.206  0.8423  0.0693 -0.3376
 5473TIP3    H216426   3.391   5.991   0.092 -1.4227  3.3950  0.7032
 5474TIP3   OH216427   0.112   1.317   5.062 -0.0479  0.3075  0.5099
 5474TIP3    H116428   0.205   1.295   5.065  0.2807  1.3932 -0.8380
 5474TIP3    H216429   0.078   1.289   5.147  1.1578 -1.5614  0.4254
 5475TIP3   OH216430   3.352   0.101   1.541 -0.0316 -0.6772  0.2591
 5475TIP3    H116431   3.276   0.058   1.579 -1.5720  1.3734 -0.3351
 5475TIP3    H216432   3.322   0.189   1.519  2.6939  0.4350  0.5771
 5476TIP3   OH216433   0.737   5.866   1.827 -0.0477 -0.2526  0.4663
 5476TIP3    H116434   0.684   5.799   1.872  0.7583 -1.7473 -0.7101
 5476TIP3    H216435   0.688   5.947   1.840 -1.6684 -1.2485  0.9974
 5477TIP3   OH216436   0.924   3.298   2.399 -0.2239 -0.4607 -0.1659
 5477TIP3    H116437   0.935   3.217   2.449 -0.5484 -0.8006 -0.6381
 5477TIP3    H216438   0.833   3.298   2.373  0.1205 -0.6777 -1.4217
 5478TIP3   OH216439   0.062   3.539   3.268 -0.3867  0.2484 -0.3665
 5478TIP3    H116440   0.045   3.459   3.317  0.9903 -0.0024 -0.2653
 5478TIP3    H216441   0.047   3.609   3.330 -1.1060  0.0566 -0.3129
 5479TIP3   OH216442   1.495   2.529   4.209 -0.0570 -0.4931 -0.3068
 5479TIP3    H116443   1.496   2.620   4.179  0.0871 -0.5450 -0.4612
 5479TIP3    H216444   1.556   2.484   4.151  0.3192 -0.5698  0.1425
 5480TIP3   OH216445   4.970   5.326   0.908 -0.2233  0.1113  0.1532
 5480TIP3    H116446   5.024   5.318   0.829 -1.8061  1.0289 -1.1048
 5480TIP3    H216447   4.981   5.417   0.936 -0.6873  0.1628  0.1853
 5481TIP3   OH216448   4.984   0.140   5.046  0.0184  0.0441  0.0445
 5481TIP3    H116449   4.999   0.212   4.985  0.4163 -0.2264 -0.1809
 5481TIP3    H216450   4.974   0.182   5.131 -3.7450  0.7405 -0.5602
 5482TIP3   OH216451   1.102   5.613   0.998  0.1556  0.4275  0.1995
 5482TIP3    H116452   1.127   5.678   1.063  2.3746 -0.3751  0.2119
 5482TIP3    H216453   1.173   5.614   0.934 -0.6745 -0.6875 -0.7813
 5483TIP3   OH216454   5.847   5.832   3.513  0.0479  0.0266  0.1526
 5483TIP3    H116455   5.773   5.877   3.554  0.7899  0.6208  0.8848
 5483TIP3    H216456   5.901   5.903   3.478  1.1032 -0.2923  1.0863
 5484TIP3   OH216457   4.647   1.079   2.253 -0.1532  0.1083  0.4815
 5484TIP3    H116458   4.568   1.033   2.279  1.0070 -1.3878  1.5138
 5484TIP3    H216459   4.616   1.164   2.223 -2.0676 -0.0753  1.7490
 5485TIP3   OH216460   4.953   2.511   2.588  0.5569 -0.3205 -0.4816
 5485TIP3    H116461   4.907   2.475   2.512  0.3147 -1.9668  0.3965
 5485TIP3    H216462   5.040   2.534   2.554 -0.1766  0.8388 -1.6732
 5486TIP3   OH216463   0.194   3.564   3.796 -0.0968 -0.3226 -0.2893
 5486TIP3    H116464   0.163   3.529   3.712  0.0827  2.0727 -1.4378
 5486TIP3    H216465   0.288   3.544   3.797 -0.0524 -0.1451 -0.7653
 5487TIP3   OH216466   0.543   1.787   3.483  0.1624  0.2374  0.0124
 5487TIP3    H116467   0.609   1.827   3.426 -2.4163  1.0485 -2.7026
 5487TIP3    H216468   0.582   1.704   3.509  2.8381  1.3394 -0.1243
 5488TIP3   OH216469   4.303   1.631   4.207  0.7427 -0.1452 -0.3372
 5488TIP3    H116470   4.254   1.549   4.202  1.9881 -0.8837 -0.6859
 5488TIP3    H216471   4.354   1.635   4.126 -0.7074  1.9313 -1.2650
 5489TIP3   OH216472   3.353   2.848   0.272  0.0971  0.3497  0.3303
 5489TIP3    H116473   3.406   2.901   0.331  1.1502 -1.0943  0.7541
 5489TIP3    H216474   3.400   2.764   0.266 -0.7932 -0.0877 -1.3378
 5490TIP3   OH216475   2.281   1.942   0.357 -0.1084 -0.4151 -0.0259
 5490TIP3    H116476   2.360   1.893   0.333 -0.6291 -1.3619  0.1233
 5490TIP3    H216477   2.288   2.025   0.310  1.4991 -0.0412  0.8428
 5491TIP3   OH216478   1.387   3.036   2.143 -0.4732  0.0377 -0.4467
 5491TIP3    H116479   1.462   3.008   2.091  0.1552 -0.1651  0.5425
 5491TIP3    H216480   1.400   2.994   2.229 -1.1741  0.8147  0.0559
 5492TIP3   OH216481   3.625   3.921   2.821  0.0107 -0.0796 -0.1152
 5492TIP3    H116482   3.674   3.881   2.748 -1.6303 -0.5655 -0.9932
 5492TIP3    H216483   3.650   4.014   2.817 -0.7144  0.0881 -1.8944
 5493TIP3   OH216484   1.384   0.701   4.400  0.1491  0.6929  0.3355
 5493TIP3    H116485   1.361   0.793   4.415  0.2951  0.7091  0.4646
 5493TIP3    H216486   1.417   0.671   4.485  1.4336  0.9108 -0.0703
 5494TIP3   OH216487   3.650   3.088   0.277 -0.1812 -0.0157 -0.3128
 5494TIP3    H116488   3.664   3.183   0.278 -1.8245  0.2939  2.5809
 5494TIP3    H216489   3.739   3.052   0.279  0.4904  1.5398  0.9806
 5495TIP3   OH216490   6.138   3.533   4.015 -0.1382  0.0944  0.5227
 5495TIP3    H116491   6.137   3.621   3.979  0.5335 -0.4050 -0.8034
 5495TIP3    H216492   6.231   3.510   4.019 -0.3433 -1.2048 -0.9300
 5496TIP3   OH216493   3.281   5.598   5.004 -0.2177 -0.0631 -0.4727
 5496TIP3    H116494   3.316   5.513   4.980  2.3610  0.8156 -0.1576
 5496TIP3    H216495   3.333   5.661   4.954 -0.1287  1.4298  1.3627
 5497TIP3   OH216496   1.550   1.213   4.639  0.6288 -0.0185  0.0454
 5497TIP3    H116497   1.601   1.135   4.616  1.3911  0.5640 -0.2789
 5497TIP3    H216498   1.534   1.257   4.555  0.6848  0.4636  0.2847
 5498TIP3   OH216499   0.355   2.984   3.525 -0.2441 -0.2339 -0.2460
 5498TIP3    H116500   0.351   2.891   3.547 -0.8190  0.2201  1.8467
 5498TIP3    H216501   0.340   2.988   3.431 -1.6482 -2.1597 -0.1528
 5499TIP3   OH216502   4.603   2.877   1.867  0.6640  0.3893  0.5306
 5499TIP3    H116503   4.573   2.808   1.807  2.4382 -0.3869  0.4703
 5499TIP3    H216504   4.522   2.916   1.901 -0.3816  0.1946 -1.6033
 5500TIP3   OH216505   0.454   0.374   0.486 -0.4431 -0.3018 -0.0215
 5500TIP3    H116506   0.516   0.424   0.538 -0.7789  0.4458 -0.3186
 5500TIP3    H216507   0.436   0.295   0.538  0.9600 -0.6714 -0.0675
 5501TIP3   OH216508   1.038   5.186   2.135 -0.5688  0.0654 -0.5322
 5501TIP3    H116509   1.070   5.122   2.071 -0.2200  0.2884 -0.5798
 5501TIP3    H216510   1.115   5.208   2.188 -0.3812  1.3885 -1.3069
 5502TIP3   OH216511   5.481   2.473   1.950  0.2856 -0.3671 -1.0049
 5502TIP3    H116512   5.474   2.393   1.898  2.3255 -0.6149 -0.9907
 5502TIP3    H216513   5.560   2.516   1.917 -0.3368  1.2593 -0.4713
 5503TIP3   OH216514   3.112   0.425   3.105  0.1900 -0.0907 -0.3754
 5503TIP3    H116515   3.029   0.473   3.100  0.7464  1.0212  0.4963
 5503TIP3    H216516   3.162   0.456   3.030  0.3448  0.3110 -0.1114
 5504TIP3   OH216517   2.871   5.716   0.775  0.2551 -0.3406 -0.4943
 5504TIP3    H116518   2.789   5.743   0.734 -0.2174 -0.4330  0.3657
 5504TIP3    H216519   2.934   5.783   0.748 -0.3698  0.3721 -0.2357
 5505TIP3   OH216520   5.568   0.576   4.711  0.1947 -0.6300 -0.6038
 5505TIP3    H116521   5.653   0.618   4.696 -0.5721  1.1528 -0.1835
 5505TIP3    H216522   5.504   0.634   4.670 -1.1127 -0.1810  1.8269
 5506TIP3   OH216523  -0.005   4.784   1.529  0.0721  0.4974  0.2068
 5506TIP3    H116524   0.061   4.717   1.550  2.3071  2.6741  0.5704
 5506TIP3    H216525   0.002   4.795   1.434 -0.1884  0.3212  0.1673
 5507TIP3   OH216526   3.543   3.682   3.417  0.5788  0.3307  0.2369
 5507TIP3    H116527   3.568   3.641   3.335  1.2258  0.8625  0.1586
 5507TIP3    H216528   3.626   3.698   3.463  0.2804  0.7567  0.6401
 5508TIP3   OH216529   4.384   3.468   0.817  0.8928  0.2025  0.0488
 5508TIP3    H116530   4.320   3.398   0.827  0.5190  0.6711  1.1217
 5508TIP3    H216531   4.334   3.540   0.777  1.3005 -0.1613 -1.1506
 5509TIP3   OH216532   4.576   4.253   5.100  0.1185 -0.0873  0.4881
 5509TIP3    H116533   4.585   4.263   5.194 -2.4502  1.2871  0.6753
 5509TIP3    H216534   4.637   4.317   5.063 -0.0445  0.5366  1.2669
 5510TIP3   OH216535   4.733   2.400   2.867 -0.4926 -0.4788  0.4105
 5510TIP3    H116536   4.675   2.324   2.879 -0.7243 -0.3857 -0.0931
 5510TIP3    H216537   4.679   2.463   2.820  0.1212 -0.5014 -0.3296
 5511TIP3   OH216538   4.089   4.189   0.928 -0.1035  0.3301 -0.2382
 5511TIP3    H116539   4.064   4.209   1.019 -1.4715  1.0806 -0.7533
 5511TIP3    H216540   4.023   4.127   0.898  0.4151 -0.0113 -0.6970
 5512TIP3   OH216541   2.657   3.432   0.020  0.4595  0.7924 -0.6991
 5512TIP3    H116542   2.673   3.371  -0.053  1.6857 -0.0151  0.2129
 5512TIP3    H216543   2.681   3.383   0.098  0.2454  2.0339  0.1730
 5513TIP3   OH216544   3.015   4.439   4.302  0.3091  0.0665  0.2318
 5513TIP3    H116545   2.930   4.431   4.259  0.0367 -0.1916  0.8069
 5513TIP3    H216546   3.017   4.367   4.365  1.4430 -0.6410 -0.5805
 5514TIP3   OH216547   4.924   3.026   2.730 -0.5593 -0.0124  0.6735
 5514TIP3    H116548   4.839   3.043   2.690  0.3299 -0.1928 -1.4570
 5514TIP3    H216549   4.944   3.107   2.778 -0.5191  1.4083 -1.5570
 5515TIP3   OH216550   5.353   5.039   3.689  0.1376 -0.2396 -0.2039
 5515TIP3    H116551   5.380   4.998   3.607 -0.2790 -1.3214  0.1835
 5515TIP3    H216552   5.297   4.974   3.732 -1.1797  1.0183  0.0831
 5516TIP3   OH216553   1.273   3.066   1.895  0.1772  0.1447  0.5038
 5516TIP3    H116554   1.353   3.052   1.844 -0.9537 -4.0972 -0.5357
 5516TIP3    H216555   1.305   3.080   1.985  2.0915  1.4173 -0.3074
 5517TIP3   OH216556   2.771   4.252   1.874  0.2605 -0.0709 -0.4831
 5517TIP3    H116557   2.842   4.196   1.904  0.4408  0.2963 -0.2229
 5517TIP3    H216558   2.771   4.326   1.935 -0.8762 -0.4693  0.0154
 5518TIP3   OH216559   2.002   1.505   1.854 -0.3657 -0.1031  0.0169
 5518TIP3    H116560   1.993   1.417   1.890 -0.5639  0.2835  0.9691
 5518TIP3    H216561   2.093   1.510   1.825 -1.2352 -1.8055 -3.4393
 5519TIP3   OH216562   3.744   5.943   1.850  0.5640  0.0288 -0.0088
 5519TIP3    H116563   3.659   5.899   1.855 -1.0317  2.6545 -1.7413
 5519TIP3    H216564   3.770   5.953   1.941 -2.1790  1.2150  0.7527
 5520TIP3   OH216565   3.829   2.474   1.135 -0.0391  0.5117  0.2414
 5520TIP3    H116566   3.779   2.522   1.201 -0.4120 -0.2745  0.5489
 5520TIP3    H216567   3.847   2.389   1.175  0.5156  0.3485 -0.3262
 5521TIP3   OH216568   0.394   5.966   2.695 -0.0875 -0.1595  0.1688
 5521TIP3    H116569   0.389   5.880   2.653 -2.0397 -0.1280  0.2467
 5521TIP3    H216570   0.364   5.950   2.785  0.1079  0.5037  0.3573
 5522TIP3   OH216571   2.774   4.314   4.191 -0.0758  0.2831  0.4795
 5522TIP3    H116572   2.720   4.263   4.131 -1.6915  0.9082  1.3418
 5522TIP3    H216573   2.733   4.301   4.277  0.0781  2.1614  0.8820
 5523TIP3   OH216574   3.208   3.172   2.981  0.2932  0.5077  0.0158
 5523TIP3    H116575   3.165   3.227   3.047  0.6044 -0.1921  0.8180
 5523TIP3    H216576   3.290   3.146   3.022 -0.1096 -1.0241 -0.1050
 5524TIP3   OH216577   3.317   3.203   0.978  0.2393 -0.3584  0.0531
 5524TIP3    H116578   3.253   3.134   0.959  0.9185 -1.6293  1.9933
 5524TIP3    H216579   3.399   3.169   0.942  0.5398 -0.5032  0.8553
 5525TIP3   OH216580   4.491   4.475   3.217 -0.0649  0.5970 -0.4549
 5525TIP3    H116581   4.504   4.494   3.124 -2.6511 -0.9588 -1.2282
 5525TIP3    H216582   4.580   4.468   3.252  1.0005  0.7045 -2.9108
 5526TIP3   OH216583   5.640   0.547   3.208 -0.2217 -1.0784  0.4201
 5526TIP3    H116584   5.678   0.470   3.250  1.2263 -0.5689  0.1016
 5526TIP3    H216585   5.614   0.603   3.280 -0.7851 -1.6075  0.6459
 5527TIP3   OH216586   1.704   1.433   2.747  0.1321  0.0259  0.4681
 5527TIP3    H116587   1.739   1.343   2.749 -0.9071 -0.5595 -2.6151
 5527TIP3    H216588   1.777   1.486   2.715  0.1059 -0.1013  0.1951
 5528TIP3   OH216589   2.785   5.620   4.580  0.1668  0.7112  0.2493
 5528TIP3    H116590   2.733   5.694   4.549 -1.1669 -0.1228  0.4139
 5528TIP3    H216591   2.790   5.561   4.505  0.7524  0.7151  0.2822
 5529TIP3   OH216592   0.716   4.879   3.753 -0.1423  0.3211 -0.0828
 5529TIP3    H116593   0.809   4.893   3.772  0.4327 -2.7728 -0.1160
 5529TIP3    H216594   0.715   4.830   3.671 -1.8636  0.8303 -0.4084
 5530TIP3   OH216595   4.717   5.726   0.826  0.1065  0.4586  0.3741
 5530TIP3    H116596   4.778   5.694   0.893 -0.6619 -0.3039  0.7316
 5530TIP3    H216597   4.642   5.759   0.876 -1.9706 -3.1069 -0.0495
 5531TIP3   OH216598   1.756   0.006   3.885 -0.2343  0.1126 -0.5902
 5531TIP3    H116599   1.750   0.092   3.926 -0.8337 -0.1271 -0.1579
 5531TIP3    H216600   1.788  -0.052   3.954  0.0835 -0.0300 -0.8535
 5532TIP3   OH216601   5.066   4.629   2.075  0.9163 -0.1537  0.5218
 5532TIP3    H116602   5.136   4.684   2.038 -0.6473  1.2587 -0.4807
 5532TIP3    H216603   5.112   4.564   2.127  2.8908  2.4505  2.2889
 5533TIP3   OH216604   3.907   4.808   0.818  0.6615  0.1331  0.3504
 5533TIP3    H116605   3.889   4.840   0.906 -0.4021 -1.4982  0.7575
 5533TIP3    H216606   4.001   4.789   0.818  0.5445 -0.5228  1.3703
 5534TIP3   OH216607   5.134   1.772   0.511  0.3551  0.1061  0.0835
 5534TIP3    H116608   5.071   1.841   0.490  0.6534  0.4989  0.4594
 5534TIP3    H216609   5.218   1.806   0.481  0.4932 -0.1376  0.1876
 5535TIP3   OH216610   6.142   4.758   5.109  0.2228 -0.5104  0.1367
 5535TIP3    H116611   6.178   4.846   5.102 -0.0227 -0.1977  2.2004
 5535TIP3    H216612   6.080   4.752   5.036  0.8454  0.7036 -0.5231
 5536TIP3   OH216613   0.622   5.066   5.150 -0.1138 -0.7267  0.0489
 5536TIP3    H116614   0.699   5.123   5.144 -0.3211 -0.5399 -1.2646
 5536TIP3    H216615   0.551   5.116   5.111 -0.7663 -1.1413  0.6709
 5537TIP3   OH216616   1.145   2.481   0.858 -0.5802 -0.1827  0.3971
 5537TIP3    H116617   1.120   2.507   0.946  0.1662 -0.2291  0.6312
 5537TIP3    H216618   1.076   2.421   0.830 -0.5703 -0.5520  1.1387
 5538TIP3   OH216619   2.477   4.752   1.357 -0.1218 -0.0057  0.2780
 5538TIP3    H116620   2.531   4.690   1.407  0.1959 -1.1790 -1.4489
 5538TIP3    H216621   2.443   4.812   1.424  2.2087 -0.0287  1.5924
 5539TIP3   OH216622   2.090   2.701   1.799 -0.2422  0.3097  0.4840
 5539TIP3    H116623   2.163   2.653   1.760  0.3289  2.9055 -1.9419
 5539TIP3    H216624   2.039   2.732   1.724 -1.6742  1.8010  1.9843
 5540TIP3   OH216625   5.670   4.548   3.835 -0.5044 -0.2171 -0.1875
 5540TIP3    H116626   5.620   4.490   3.893 -0.0743 -0.2709  0.1328
 5540TIP3    H216627   5.641   4.636   3.857 -1.1290 -0.2973 -0.6445
 5541TIP3   OH216628   5.960   2.598   0.590  0.3642  0.1370  0.0482
 5541TIP3    H116629   6.007   2.647   0.658  1.7442 -0.3380 -0.5289
 5541TIP3    H216630   5.874   2.580   0.628  0.5328  1.2909  1.0234
 5542TIP3   OH216631   1.645   4.054   1.477 -0.4493 -0.2473 -0.5289
 5542TIP3    H116632   1.674   4.039   1.567 -1.7398 -0.9070 -0.1905
 5542TIP3    H216633   1.684   3.983   1.427 -0.8012 -0.6619 -0.2292
 5543TIP3   OH216634   3.326   3.534   5.073  0.2994  0.5060  0.2949
 5543TIP3    H116635   3.262   3.570   5.013  0.5692  0.3978 -0.0644
 5543TIP3    H216636   3.288   3.451   5.102 -0.6737  1.4199  1.7253
 5544TIP3   OH216637   4.701   1.262   3.856 -0.2839  0.1802  0.0868
 5544TIP3    H116638   4.692   1.356   3.871  1.2843  0.8155 -2.3748
 5544TIP3    H216639   4.682   1.250   3.763  0.4879 -1.7825  0.1241
 5545TIP3   OH216640   0.429   0.963   1.107 -0.1706  0.0910  0.2389
 5545TIP3    H116641   0.370   0.916   1.165  0.7373 -0.3524  0.8262
 5545TIP3    H216642   0.515   0.926   1.125  0.2250  0.3975 -0.9372
 5546TIP3   OH216643   2.165   2.882   2.018  0.2586 -0.4391 -0.2077
 5546TIP3    H116644   2.143   2.828   1.942 -1.4121 -1.7061  1.0938
 5546TIP3    H216645   2.229   2.830   2.067  1.1040  0.2401 -0.5690
 5547TIP3   OH216646   2.736   3.790   3.490 -0.0139 -0.1981 -0.3214
 5547TIP3    H116647   2.790   3.781   3.411 -0.1101 -1.2599 -0.2773
 5547TIP3    H216648   2.707   3.701   3.510 -1.3326  0.2670 -0.0222
 5548TIP3   OH216649   1.301   3.315   2.093 -0.2106 -0.2651 -0.0436
 5548TIP3    H116650   1.351   3.245   2.135 -0.8191 -0.3910  0.4707
 5548TIP3    H216651   1.325   3.394   2.142  2.0963  0.3087 -1.9062
 5549TIP3   OH216652   4.161   4.432   1.417  0.7219 -0.2948  0.1382
 5549TIP3    H116653   4.214   4.439   1.337 -0.7348  2.4052 -0.7118
 5549TIP3    H216654   4.153   4.522   1.448 -2.5451 -0.6908  0.7509
 5550TIP3   OH216655   4.994   2.057   3.750  0.0559 -0.4581 -0.1858
 5550TIP3    H116656   4.945   2.088   3.826 -0.9684 -2.1522 -0.0941
 5550TIP3    H216657   4.953   2.100   3.675  1.3219  1.5242  0.1952
 5551TIP3   OH216658   5.524   1.084   0.870  0.1223 -0.2272 -0.0941
 5551TIP3    H116659   5.531   1.135   0.789 -0.7637  0.1050  0.0307
 5551TIP3    H216660   5.605   1.104   0.918 -1.2829  3.1824  1.1544
 5552TIP3   OH216661   2.159   0.864   0.196 -0.4599 -0.1723  0.2449
 5552TIP3    H116662   2.221   0.921   0.241 -0.4193  0.2312 -0.3221
 5552TIP3    H216663   2.073   0.899   0.219 -0.4542 -0.2153  0.3343
 5553TIP3   OH216664   0.158   5.650   0.227 -0.5186  1.3021  0.0302
 5553TIP3    H116665   0.238   5.612   0.262  0.6906  2.6961 -1.0851
 5553TIP3    H216666   0.109   5.575   0.191 -0.0350  0.3601  1.2762
 5554TIP3   OH216667   4.770   0.443   3.348 -0.0236  0.0826 -0.0062
 5554TIP3    H116668   4.840   0.383   3.373 -0.2032 -0.7576 -1.3975
 5554TIP3    H216669   4.706   0.387   3.303 -0.9603  1.0579  0.0870
 5555TIP3   OH216670   6.249   5.125   3.440  0.1363 -0.0762 -0.1718
 5555TIP3    H116671   6.286   5.072   3.510 -0.6447  0.2162  0.4797
 5555TIP3    H216672   6.288   5.090   3.360 -1.3049 -2.5356  0.0792
 5556TIP3   OH216673   3.162   1.241   0.526  0.0854  0.2035 -0.6943
 5556TIP3    H116674   3.117   1.161   0.554  0.9235 -0.2920 -0.7651
 5556TIP3    H216675   3.254   1.225   0.544  0.4321  0.6127 -2.0052
 5557TIP3   OH216676   2.767   3.766   3.190  0.5220  0.2368  0.0541
 5557TIP3    H116677   2.718   3.720   3.122  0.1438 -1.5827  1.4656
 5557TIP3    H216678   2.855   3.775   3.153  0.0720  0.2453 -1.0665
 5558TIP3   OH216679   2.593   3.407   1.491  0.0492 -0.8169  0.3322
 5558TIP3    H116680   2.642   3.482   1.458 -0.7424 -0.1348  0.6587
 5558TIP3    H216681   2.655   3.334   1.489  1.2500  0.1273  1.2544
 5559TIP3   OH216682   2.976   5.082   3.207  0.2304 -0.2554  0.6548
 5559TIP3    H116683   3.024   5.107   3.128 -3.8772  1.6664 -1.5889
 5559TIP3    H216684   2.908   5.022   3.176 -1.4319  0.4321  2.6906
 5560TIP3   OH216685   3.132   5.303   1.393  0.4870  0.5350 -0.3098
 5560TIP3    H116686   3.131   5.396   1.415 -0.5973  0.8863 -1.6966
 5560TIP3    H216687   3.224   5.283   1.376  0.6261  1.5784 -0.8428
 5561TIP3   OH216688   1.002   1.753   2.170  0.2725  0.1489 -0.0237
 5561TIP3    H116689   1.089   1.772   2.206  0.2811  2.8709 -1.2510
 5561TIP3    H216690   1.017   1.689   2.100  1.5280  1.5641 -1.0995
 5562TIP3   OH216691   5.530   2.421   1.064  0.5303 -0.0455  0.3036
 5562TIP3    H116692   5.499   2.431   1.154  0.0288  0.9824  0.0335
 5562TIP3    H216693   5.513   2.506   1.023  0.2040 -0.6754 -0.9312
 5563TIP3   OH216694   1.828   1.470   5.122  0.3065 -0.1526 -0.3568
 5563TIP3    H116695   1.790   1.548   5.080 -1.0189  0.0533  1.1110
 5563TIP3    H216696   1.754   1.431   5.169  1.5789 -0.7036  1.2553
 5564TIP3   OH216697   1.160   0.145   2.671 -0.7651 -0.0583  0.1073
 5564TIP3    H116698   1.124   0.229   2.698 -0.0155  0.4980 -0.5935
 5564TIP3    H216699   1.100   0.113   2.604 -1.2950 -0.3109  0.6847
 5565TIP3   OH216700   0.935   0.480   4.732 -0.1378  0.4335  0.0964
 5565TIP3    H116701   1.005   0.416   4.745  0.7030  1.5288  1.3196
 5565TIP3    H216702   0.857   0.439   4.768  0.1164 -0.3749 -0.2636
 5566TIP3   OH216703   4.313   0.162   3.961 -0.0456 -0.5744 -0.8917
 5566TIP3    H116704   4.248   0.118   3.907 -0.9963 -0.6152  0.2421
 5566TIP3    H216705   4.323   0.249   3.922 -0.1912 -0.8373 -1.5275
 5567TIP3   OH216706   3.161   1.920   0.095 -0.2049 -0.0037  0.3960
 5567TIP3    H116707   3.086   1.963   0.137 -0.9121 -1.8190  1.0688
 5567TIP3    H216708   3.127   1.891   0.010  0.9077  2.6516 -1.1021
 5568TIP3   OH216709   4.870   1.028   0.845 -0.3110  0.8613 -0.4963
 5568TIP3    H116710   4.819   1.098   0.884 -0.0509  0.7739  0.0007
 5568TIP3    H216711   4.855   1.038   0.751 -0.1590  1.6668 -0.4401
 5569TIP3   OH216712   2.291   4.615   0.113  0.1706 -0.3100  0.0076
 5569TIP3    H116713   2.205   4.652   0.130 -0.1954 -1.4957  0.9076
 5569TIP3    H216714   2.351   4.667   0.167 -0.1361 -0.1292  0.1722
 5570TIP3   OH216715   5.893   1.363   5.182  0.1183  0.6220  0.7672
 5570TIP3    H116716   5.806   1.363   5.143  0.6757 -2.3642 -0.7585
 5570TIP3    H216717   5.952   1.342   5.110  1.7577 -0.4283  2.3367
 5571TIP3   OH216718   5.035   2.696   0.699  0.4542  0.1373  0.3548
 5571TIP3    H116719   4.956   2.740   0.729  0.9947 -0.2279  2.4862
 5571TIP3    H216720   5.099   2.766   0.687  0.5842  0.1988  1.3154
 5572TIP3   OH216721   0.289   2.206   0.225 -0.0488  0.1641  0.2471
 5572TIP3    H116722   0.370   2.217   0.174 -0.8648  0.9865 -0.9409
 5572TIP3    H216723   0.230   2.272   0.189 -1.6804 -1.2591  0.2067
 5573TIP3   OH216724   5.733   2.593   0.738 -0.7310 -0.4021 -0.2848
 5573TIP3    H116725   5.740   2.553   0.824 -3.9068 -0.4420  0.0851
 5573TIP3    H216726   5.696   2.680   0.754 -0.5397 -0.0595 -1.5431
 5574TIP3   OH216727   0.037   4.363   2.348 -0.2864  0.0935  1.0432
 5574TIP3    H116728  -0.053   4.337   2.326 -0.2320  1.4453 -1.0206
 5574TIP3    H216729   0.029   4.455   2.374  0.6790  0.8724 -1.1515
 5575TIP3   OH216730   4.896   3.476   4.300  0.3251  0.1154  0.4055
 5575TIP3    H116731   4.809   3.440   4.284  0.2679  0.2594  0.3934
 5575TIP3    H216732   4.901   3.488   4.394  0.7316 -0.9137  0.5273
 5576TIP3   OH216733   3.945   3.524   4.480  0.9218 -0.0285 -0.0511
 5576TIP3    H116734   3.886   3.468   4.429  0.3124  0.2633  0.3329
 5576TIP3    H216735   3.887   3.578   4.533  1.4570  1.6453 -1.0939
 5577TIP3   OH216736   4.691   3.132   3.120 -0.7758 -0.3173 -1.1664
 5577TIP3    H116737   4.757   3.064   3.106  0.1683  0.9474 -3.3021
 5577TIP3    H216738   4.639   3.134   3.040  0.0071  2.2336 -1.7265
 5578TIP3   OH216739   6.137   4.169   5.082  0.2305 -0.0444  0.5723
 5578TIP3    H116740   6.219   4.129   5.054 -0.3647  0.1735 -1.6781
 5578TIP3    H216741   6.160   4.260   5.102  0.5290  0.0332 -0.1215
 5579TIP3   OH216742   5.683   1.225   2.033  0.4381 -0.3106  0.3974
 5579TIP3    H116743   5.776   1.216   2.056  0.4122 -1.3053  0.1563
 5579TIP3    H216744   5.674   1.177   1.951 -0.2854 -0.1963  0.4051
 5580TIP3   OH216745   6.213   1.991   3.922 -0.1456  0.5367  0.1325
 5580TIP3    H116746   6.155   1.954   3.856 -1.8146  0.7339  1.4095
 5580TIP3    H216747   6.299   1.954   3.903 -1.1884 -1.7945 -0.3193
 5581TIP3   OH216748   3.621   3.829   0.001 -0.2392 -0.2063  0.6896
 5581TIP3    H116749   3.700   3.883  -0.001  0.5873 -1.2525 -2.6331
 5581TIP3    H216750   3.555   3.884   0.042  1.3602  2.0903  0.3878
 5582TIP3   OH216751   4.638   5.888   3.030  0.5897 -0.3074  0.1997
 5582TIP3    H116752   4.561   5.888   3.087  0.4929  1.1944  0.1055
 5582TIP3    H216753   4.641   5.799   2.995 -0.7277 -0.5854  0.7111
 5583TIP3   OH216754   2.745   2.801   0.025 -0.2404 -0.5672  0.3681
 5583TIP3    H116755   2.729   2.775  -0.066  2.2469  2.9728 -1.3131
 5583TIP3    H216756   2.677   2.867   0.044  0.5204  0.2603  0.2670
 5584TIP3   OH216757   6.205   0.372   3.799 -0.1432  0.1027 -0.0844
 5584TIP3    H116758   6.148   0.315   3.747 -0.7809  1.4670 -0.9295
 5584TIP3    H216759   6.293   0.349   3.770 -0.3797 -0.5582 -0.3089
 5585TIP3   OH216760   4.979   5.430   3.909  0.3179 -0.0470  0.4683
 5585TIP3    H116761   4.903   5.377   3.931  0.7744 -1.0634 -0.3137
 5585TIP3    H216762   4.960   5.463   3.821  1.0876 -0.9267 -0.0452
 5586TIP3   OH216763   1.301   3.019   4.624  0.0247  0.7089 -0.0672
 5586TIP3    H116764   1.244   3.089   4.656  0.9865  0.9927  1.0873
 5586TIP3    H216765   1.382   3.064   4.599  1.0378 -0.0642  1.6516
 5587TIP3   OH216766   2.354   5.238   2.702  0.3323  0.1431  0.4012
 5587TIP3    H116767   2.438   5.282   2.714  0.8668 -0.6310 -0.3748
 5587TIP3    H216768   2.303   5.263   2.779  1.1031  0.9912  0.6602
 5588TIP3   OH216769   3.946   2.367   0.042 -0.3975 -0.6452 -0.5488
 5588TIP3    H116770   3.871   2.314   0.013 -0.6958 -0.6155  0.1483
 5588TIP3    H216771   3.920   2.399   0.128 -0.4925  1.1528 -1.2041
 5589TIP3   OH216772   0.057   4.634   2.430 -0.0629 -0.6506 -0.2876
 5589TIP3    H116773   0.134   4.679   2.395  0.0478 -0.8192 -0.2585
 5589TIP3    H216774  -0.012   4.701   2.428  0.1990 -0.3645  0.1159
 5590TIP3   OH216775   3.385   5.088   3.933 -0.2500 -0.2987  0.1457
 5590TIP3    H116776   3.312   5.100   3.993 -0.1058 -0.9867  0.4613
 5590TIP3    H216777   3.434   5.014   3.968  0.5783  0.1297 -0.0900
 5591TIP3   OH216778   1.115   0.646   1.838 -0.1443 -0.1546  0.1678
 5591TIP3    H116779   1.034   0.667   1.884  0.1346  2.4971 -0.3839
 5591TIP3    H216780   1.182   0.697   1.883  0.7214 -0.1835 -1.0340
 5592TIP3   OH216781   5.660   5.152   2.248  0.6030  0.2489 -0.1387
 5592TIP3    H116782   5.730   5.177   2.188  1.4678  1.5874  1.3720
 5592TIP3    H216783   5.581   5.193   2.211  1.2737  1.7751  0.0452
 5593TIP3   OH216784   3.813   5.864   5.002 -0.1871  0.3089  0.5667
 5593TIP3    H116785   3.898   5.906   5.016  0.0821  0.6751 -1.7842
 5593TIP3    H216786   3.821   5.780   5.047  1.9036 -0.1694 -0.5285
 5594TIP3   OH216787   1.329   3.726   0.428 -0.1752  0.7201  0.0471
 5594TIP3    H116788   1.391   3.762   0.364  0.1682 -0.2511 -0.1810
 5594TIP3    H216789   1.348   3.774   0.509  1.0293  0.2972  0.0377
 5595TIP3   OH216790   1.314   5.568   2.954  0.1864  0.3523 -0.0484
 5595TIP3    H116791   1.321   5.578   3.049  1.4128  2.4706 -0.3120
 5595TIP3    H216792   1.289   5.476   2.942 -0.8968  0.2589  2.3333
 5596TIP3   OH216793   5.397   0.330   0.211 -0.2750  0.0440 -0.1237
 5596TIP3    H116794   5.428   0.339   0.301 -0.5681  0.1576 -0.0335
 5596TIP3    H216795   5.303   0.348   0.216 -0.0624  1.3836 -0.6620
 5597TIP3   OH216796   3.808   4.967   4.830 -0.3182  0.1095  0.4050
 5597TIP3    H116797   3.845   4.955   4.917 -0.1190 -1.1679  0.1640
 5597TIP3    H216798   3.786   4.878   4.801 -0.2128  0.4943 -0.9098
 5598TIP3   OH216799   4.770   0.979   3.585  0.0165 -0.3461 -0.6752
 5598TIP3    H116800   4.762   0.889   3.557 -1.0930 -0.2527 -0.6972
 5598TIP3    H216801   4.858   0.985   3.623  0.2088 -1.3464 -0.9514
 5599TIP3   OH216802   1.248   1.904   1.109 -0.5457  0.5538 -0.1938
 5599TIP3    H116803   1.204   1.827   1.072 -1.0941  0.9475 -0.3720
 5599TIP3    H216804   1.221   1.976   1.053  0.3670  0.8050 -0.3256
 5600TIP3   OH216805   5.351   3.482   2.087  0.8856 -0.2016 -0.6966
 5600TIP3    H116806   5.408   3.409   2.111  1.2112  0.6126  1.1910
 5600TIP3    H216807   5.263   3.450   2.104  1.0997  0.3099  1.6896
 5601TIP3   OH216808   0.214   4.346   2.672 -0.1708 -0.3324  0.1625
 5601TIP3    H116809   0.293   4.401   2.666 -0.5074  0.4011  1.8443
 5601TIP3    H216810   0.237   4.267   2.624  0.4601  1.1027 -2.0605
 5602TIP3   OH216811   2.947   4.683   3.921 -0.6509 -0.3704 -0.3314
 5602TIP3    H116812   2.972   4.593   3.902 -0.7082 -0.1900 -1.3349
 5602TIP3    H216813   3.029   4.727   3.943 -0.6160 -0.6595  0.1105
 5603TIP3   OH216814   5.713   5.051   5.017  0.0586  0.1355  0.0338
 5603TIP3    H116815   5.690   4.961   5.040  0.4417 -0.4156 -1.6239
 5603TIP3    H216816   5.629   5.095   5.005 -0.1278 -0.1340  0.3333
 5604TIP3   OH216817   0.699   5.965   0.378  0.0189  0.1604 -0.1168
 5604TIP3    H116818   0.711   5.914   0.458  1.0869 -0.3483 -0.5811
 5604TIP3    H216819   0.763   6.035   0.384 -0.3047  0.4716 -0.2530
 5605TIP3   OH216820   1.603   4.678   0.403  0.4357 -0.1421  0.0495
 5605TIP3    H116821   1.510   4.698   0.412  0.4110  0.2333 -0.9515
 5605TIP3    H216822   1.613   4.594   0.448 -0.7419 -1.0748 -1.3334
 5606TIP3   OH216823   4.076   5.944   2.008  0.2851 -0.5202 -0.4611
 5606TIP3    H116824   4.058   5.988   2.091  1.7118  0.3197 -0.5668
 5606TIP3    H216825   4.170   5.954   1.995  0.0412 -0.3355 -2.3590
 5607TIP3   OH216826   1.871   4.853   5.038  0.5528 -0.4513 -0.3153
 5607TIP3    H116827   1.932   4.816   4.974  0.2761 -1.5722  0.0599
 5607TIP3    H216828   1.893   4.809   5.120  0.8650  0.9280  0.3686
 5608TIP3   OH216829   1.170   4.146   4.535 -0.1406  0.0030  0.2317
 5608TIP3    H116830   1.110   4.110   4.470 -0.1159  0.2183  0.0866
 5608TIP3    H216831   1.147   4.101   4.616 -0.1085 -0.3328  0.0553
 5609TIP3   OH216832   1.611   5.673   1.905 -0.5066  0.1285 -0.2208
 5609TIP3    H116833   1.698   5.637   1.922 -0.3638  0.9423  0.9760
 5609TIP3    H216834   1.626   5.745   1.844 -0.1501  0.9540  0.7953
 5610TIP3   OH216835   0.126   5.475   1.928 -0.0338 -0.0409 -0.2667
 5610TIP3    H116836   0.183   5.405   1.896 -0.0728 -0.4253  0.4963
 5610TIP3    H216837   0.047   5.466   1.875  1.3141  1.7880 -2.8006
 5611TIP3   OH216838   2.201   4.670   2.616  0.3657 -1.0057  0.3076
 5611TIP3    H116839   2.173   4.723   2.691  0.4696 -0.0785 -0.2878
 5611TIP3    H216840   2.140   4.597   2.614 -1.2665  0.3027 -0.2080
 5612TIP3   OH216841   4.431   0.331   4.585 -0.1164 -0.2358  0.1180
 5612TIP3    H116842   4.409   0.403   4.644  0.5421 -0.2791  0.4240
 5612TIP3    H216843   4.396   0.357   4.500  0.8119  0.8080  0.0455
 5613TIP3   OH216844   6.102   4.687   1.948  0.1092  0.2459 -0.2760
 5613TIP3    H116845   6.119   4.686   1.854  1.5666  0.5582 -0.0465
 5613TIP3    H216846   6.123   4.598   1.977  0.1524  0.2879 -0.1779
 5614TIP3   OH216847   1.726   2.924   0.977  0.3855 -0.0764  0.3151
 5614TIP3    H116848   1.658   2.971   1.025 -0.0970 -0.8624  0.4116
 5614TIP3    H216849   1.803   2.930   1.034 -0.4415 -1.8523  1.7129
 5615TIP3   OH216850   6.289   1.689   4.135  0.3391 -0.2623 -0.5238
 5615TIP3    H116851   6.326   1.669   4.221 -1.1723 -1.5579 -0.1329
 5615TIP3    H216852   6.210   1.635   4.129 -1.6220  2.4514 -1.2328
 5616TIP3   OH216853   6.066   4.513   3.677 -0.1424  0.0657  0.3382
 5616TIP3    H116854   6.114   4.561   3.610  1.4904 -0.2720  1.2023
 5616TIP3    H216855   6.006   4.577   3.714 -1.1225  0.2350 -1.4418
 5617TIP3   OH216856   1.468   3.136   0.842  0.3368 -0.0232 -0.1416
 5617TIP3    H116857   1.463   3.137   0.937  0.5250  0.1247 -0.1323
 5617TIP3    H216858   1.389   3.182   0.813 -0.0016 -0.5511 -0.0712
 5618TIP3   OH216859   3.216   5.235   4.567 -0.4948  0.4838 -0.1050
 5618TIP3    H116860   3.227   5.323   4.603 -0.8880 -0.0192  1.2779
 5618TIP3    H216861   3.299   5.191   4.586 -0.9491  0.0070  0.8064
 5619TIP3   OH216862   3.222   0.131   4.015  0.7183 -0.0292 -0.2568
 5619TIP3    H116863   3.192   0.201   4.074 -0.9966 -1.0761  0.2045
 5619TIP3    H216864   3.281   0.174   3.954 -0.3284  1.8448 -0.0271
 5620TIP3   OH216865   1.307   0.050   2.895 -0.1124  0.7850  0.4486
 5620TIP3    H116866   1.340   0.140   2.898  1.2793  0.2872  0.6883
 5620TIP3    H216867   1.269   0.042   2.807 -1.2645  1.9298  0.8140
 5621TIP3   OH216868   3.244   0.807   2.917 -0.5234  0.0176  0.2796
 5621TIP3    H116869   3.221   0.776   3.004 -1.7776 -1.3174 -0.4814
 5621TIP3    H216870   3.336   0.781   2.905 -0.3581  0.1694  1.1638
 5622TIP3   OH216871   5.684   4.510   0.747 -0.7698  0.6956  0.0005
 5622TIP3    H116872   5.710   4.441   0.807 -0.5077 -0.5675 -1.4869
 5622TIP3    H216873   5.764   4.531   0.698 -0.9871  1.6302  0.0290
 5623TIP3   OH216874   1.976   2.774   0.476  0.3244 -0.0367 -0.1674
 5623TIP3    H116875   1.993   2.709   0.544  0.9164  1.9550  1.6915
 5623TIP3    H216876   1.894   2.817   0.503 -0.0455  0.0245 -1.3359
 5624TIP3   OH216877   3.028   1.320   2.914 -0.0007 -0.2877 -0.9035
 5624TIP3    H116878   3.070   1.381   2.854  0.1147  0.1268 -0.4140
 5624TIP3    H216879   2.981   1.259   2.858  1.9994 -1.3448 -1.5302
 5625TIP3   OH216880   2.399   2.247   3.046 -0.5280 -0.3627  0.2245
 5625TIP3    H116881   2.321   2.275   2.998 -0.9558 -0.4972  0.8323
 5625TIP3    H216882   2.366   2.191   3.116  0.1950 -1.1459 -0.0402
 5626TIP3   OH216883   4.146   5.475   2.604 -0.6847 -0.2519 -0.1777
 5626TIP3    H116884   4.180   5.386   2.591  0.5865  0.2036 -0.1235
 5626TIP3    H216885   4.222   5.532   2.587 -0.7117  0.7155  2.5301
 5627TIP3   OH216886   3.191   2.637   3.319  0.2060 -0.1015 -0.3655
 5627TIP3    H116887   3.147   2.666   3.239  1.3579 -1.2901 -1.4723
 5627TIP3    H216888   3.282   2.661   3.307  0.1612  1.0153  1.2645
 5628TIP3   OH216889   3.726   5.105   1.936  0.3568 -0.1320 -0.3795
 5628TIP3    H116890   3.809   5.063   1.912  0.6855  0.8635 -1.0119
 5628TIP3    H216891   3.734   5.122   2.030  0.0482 -1.8261 -0.0027
 5629TIP3   OH216892   0.209   5.079   2.216 -0.0226 -0.0298 -0.0829
 5629TIP3    H116893   0.281   5.016   2.214 -1.2587 -1.5014 -0.6401
 5629TIP3    H216894   0.211   5.115   2.304  2.6796  1.6118 -0.6894
 5630TIP3   OH216895   1.223   3.991   1.502 -0.1231 -0.3946 -0.1655
 5630TIP3    H116896   1.224   3.896   1.518 -0.9001 -0.5131 -0.7464
 5630TIP3    H216897   1.261   4.001   1.415 -0.9067 -0.2786 -0.5110
 5631TIP3   OH216898   1.970   1.837   2.448  0.2086  0.0314 -0.1488
 5631TIP3    H116899   1.924   1.755   2.432 -1.3619  0.8081  0.2291
 5631TIP3    H216900   1.907   1.892   2.494  0.0315  2.6665 -3.2282
 5632TIP3   OH216901   2.178   2.016   1.174  0.2738 -0.1991  0.0824
 5632TIP3    H116902   2.174   2.107   1.203 -0.0087 -0.1863  0.0010
 5632TIP3    H216903   2.128   2.014   1.092  0.1436 -0.4603  0.1674
 5633TIP3   OH216904   5.243   1.173   2.225  0.3801 -0.6817 -0.2209
 5633TIP3    H116905   5.274   1.124   2.148 -0.0560 -0.4244 -0.5675
 5633TIP3    H216906   5.229   1.106   2.292  1.1332 -0.8688 -0.2332
 5634TIP3   OH216907   0.590   0.457   4.552  0.5475 -0.1493 -0.8825
 5634TIP3    H116908   0.603   0.470   4.458  2.2090  0.8514 -0.5583
 5634TIP3    H216909   0.584   0.546   4.588  1.4014 -0.4842  0.1303
 5635TIP3   OH216910   3.913   1.068   3.436 -0.2876  0.4829  0.2298
 5635TIP3    H116911   3.821   1.043   3.428 -0.9114  1.2732  3.4126
 5635TIP3    H216912   3.953   0.995   3.485  1.3725 -0.7867 -2.7198
 5636TIP3   OH216913   3.613   3.436   1.170  0.0633  0.4111  0.0877
 5636TIP3    H116914   3.626   3.489   1.091  1.4026 -0.1176 -0.0672
 5636TIP3    H216915   3.641   3.492   1.242  0.6709  0.2333 -0.0013
 5637TIP3   OH216916   4.228   5.241   0.075 -0.1294 -0.2623  0.0114
 5637TIP3    H116917   4.277   5.189   0.139 -0.8365 -1.4073 -0.3474
 5637TIP3    H216918   4.241   5.195  -0.008 -2.1205 -0.8497 -0.0146
 5638TIP3   OH216919   4.745   0.006   3.472 -0.0286 -0.5342  0.5077
 5638TIP3    H116920   4.723   0.087   3.426 -0.6632 -0.9260  0.1010
 5638TIP3    H216921   4.703   0.015   3.558  0.4971 -0.1345  0.7271
 5639TIP3   OH216922   4.892   5.098   0.172 -0.6295  0.0034  0.2759
 5639TIP3    H116923   4.920   5.180   0.133 -1.4224  0.5620  0.8626
 5639TIP3    H216924   4.921   5.031   0.111 -0.1255  0.7309 -0.2884
 5640TIP3   OH216925   3.684   4.666   0.047  0.5982  0.2495  0.0871
 5640TIP3    H116926   3.757   4.635   0.102 -0.3293 -0.3388  1.0303
 5640TIP3    H216927   3.726   4.705  -0.029  1.8974 -0.2494  0.5216
 5641TIP3   OH216928   4.468   5.136   0.677  0.0848  0.0109  0.5909
 5641TIP3    H116929   4.489   5.083   0.600  0.7039 -0.7721  1.2776
 5641TIP3    H216930   4.412   5.206   0.644 -2.4185 -2.1385 -0.0625
 5642TIP3   OH216931   3.456   2.870   4.164 -0.0885 -0.1238  0.0006
 5642TIP3    H116932   3.461   2.826   4.249 -0.4888  0.9224  0.5878
 5642TIP3    H216933   3.541   2.854   4.123 -0.0195 -0.9341  0.4460
 5643TIP3   OH216934   3.052   0.345   0.298  0.9169 -0.1363  0.2205
 5643TIP3    H116935   3.019   0.287   0.367 -0.5048  0.9962  0.5476
 5643TIP3    H216936   2.977   0.401   0.276  1.5696  0.0242 -1.7265
 5644TIP3   OH216937   2.059   5.028   2.373 -0.0309 -0.2832  0.1965
 5644TIP3    H116938   2.152   5.010   2.381 -0.4636 -1.8962  2.8548
 5644TIP3    H216939   2.020   4.942   2.355 -1.1282  0.0733  0.7920
 5645TIP3   OH216940   2.207   3.556   3.590  0.0167 -0.2603  0.0590
 5645TIP3    H116941   2.225   3.482   3.532 -1.3555  0.2084 -0.9994
 5645TIP3    H216942   2.166   3.621   3.534  2.4366  1.9262  0.6222
 5646TIP3   OH216943   6.140   5.076   4.749  0.1211  0.0861 -0.2393
 5646TIP3    H116944   6.105   5.163   4.767  1.1328  0.7528 -1.3315
 5646TIP3    H216945   6.064   5.019   4.748 -0.6284  1.0558 -0.0922
 5647TIP3   OH216946   3.994   1.586   1.284 -0.4599 -0.2344  0.1183
 5647TIP3    H116947   4.077   1.543   1.306  0.1589  0.5552 -0.5624
 5647TIP3    H216948   3.936   1.567   1.357  0.2164 -1.0979  0.4434
 5648TIP3   OH216949   5.793   4.222   3.932 -0.0813  0.2675 -0.0441
 5648TIP3    H116950   5.815   4.234   3.840 -0.1966 -0.9539 -0.2394
 5648TIP3    H216951   5.698   4.238   3.937  0.0203  0.8929 -0.0270
 5649TIP3   OH216952   5.399   3.143   0.204  0.0289 -0.4354  0.4386
 5649TIP3    H116953   5.428   3.053   0.188  0.4965  0.0277 -1.4719
 5649TIP3    H216954   5.317   3.133   0.253  0.3513 -1.8673  0.7496
 5650TIP3   OH216955   2.679   2.903   4.471 -0.1249  0.1400 -0.2986
 5650TIP3    H116956   2.651   2.915   4.562  0.4280  0.4158 -0.1599
 5650TIP3    H216957   2.773   2.923   4.472  0.0076 -0.4347 -0.8167
 5651TIP3   OH216958   3.138   0.445   2.027 -0.2979 -0.6429 -0.0244
 5651TIP3    H116959   3.047   0.415   2.024 -0.2131 -1.0064  0.8505
 5651TIP3    H216960   3.176   0.399   2.101  0.5091 -0.2250 -0.1697
 5652TIP3   OH216961   0.338   0.016   1.302  0.4540  0.6501  0.1571
 5652TIP3    H116962   0.340   0.090   1.241 -0.1720  0.9804  0.5309
 5652TIP3    H216963   0.392   0.044   1.376  0.3442  0.6770  0.2281
 5653TIP3   OH216964   0.676   1.233   1.547  0.3545 -0.1557  0.2832
 5653TIP3    H116965   0.660   1.327   1.540 -1.2961 -0.4126  0.3136
 5653TIP3    H216966   0.742   1.215   1.481 -1.2993  0.5766 -1.6573
 5654TIP3   OH216967   1.155   5.354   1.420  0.3306  0.6277 -0.2203
 5654TIP3    H116968   1.135   5.356   1.326 -0.4451  0.6073 -0.0639
 5654TIP3    H216969   1.087   5.409   1.459  0.7049  0.7075  0.3219
 5655TIP3   OH216970   2.535   4.643   2.088  0.0247 -0.6854 -0.1256
 5655TIP3    H116971   2.540   4.647   2.184  0.0396 -2.0249 -0.0574
 5655TIP3    H216972   2.623   4.618   2.061 -0.1942 -1.1211 -0.4364
 5656TIP3   OH216973   5.681   0.051   0.049  0.0500 -0.2887  0.3444
 5656TIP3    H116974   5.643   0.138   0.052 -2.4470 -1.3157  0.6139
 5656TIP3    H216975   5.772   0.063   0.078 -0.4297  2.0707  1.0366
 5657TIP3   OH216976   1.774   0.408   1.148 -0.1913 -0.5172 -0.4536
 5657TIP3    H116977   1.719   0.463   1.204  1.3335  0.6086  0.0099
 5657TIP3    H216978   1.811   0.469   1.083  1.9937 -0.7895  0.4271
 5658TIP3   OH216979   2.145   0.283   2.515 -0.5482 -0.0049  0.3265
 5658TIP3    H116980   2.052   0.264   2.512 -0.3666 -0.7850 -1.5690
 5658TIP3    H216981   2.185   0.204   2.550 -0.4813 -0.2187 -0.2237
 5659TIP3   OH216982   0.660   5.895   4.826 -0.1463  0.2999  0.5293
 5659TIP3    H116983   0.595   5.843   4.872 -1.0790  0.4910 -0.5308
 5659TIP3    H216984   0.659   5.861   4.737  1.2515  0.2710  0.5053
 5660TIP3   OH216985   6.286   1.185   3.753  0.3458 -0.2586 -0.1222
 5660TIP3    H116986   6.287   1.274   3.788  1.1002 -0.8282  1.4028
 5660TIP3    H216987   6.208   1.182   3.697  0.5554  1.4673 -0.5643
 5661TIP3   OH216988   0.468   5.187   1.550  0.7474 -0.0766 -0.0087
 5661TIP3    H116989   0.504   5.275   1.538 -1.6109  1.2060  1.6365
 5661TIP3    H216990   0.516   5.151   1.625 -0.5505  1.2060  1.4979
 5662TIP3   OH216991   4.451   2.975   3.518  0.2091 -0.4832  0.6749
 5662TIP3    H116992   4.411   2.906   3.466 -1.8099  1.8469 -1.1200
 5662TIP3    H216993   4.499   3.028   3.455 -1.5235  1.9077  1.2240
 5663TIP3   OH216994   4.196   0.836   1.406 -0.3515  0.6012  0.1631
 5663TIP3    H116995   4.245   0.799   1.333 -0.4347 -0.6481  0.7107
 5663TIP3    H216996   4.258   0.895   1.449 -0.5529  1.9758 -1.3499
 5664TIP3   OH216997   0.868   1.522   0.341  0.1934 -0.2383  0.6389
 5664TIP3    H116998   0.865   1.431   0.311 -0.3932 -0.4168  1.2045
 5664TIP3    H216999   0.904   1.571   0.267  0.8748 -0.9846  0.4666
 5665TIP3   OH217000   4.635   5.680   4.362 -0.9239 -0.1898  0.9167
 5665TIP3    H117001   4.563   5.692   4.301  0.1647 -0.7191 -0.5341
 5665TIP3    H217002   4.697   5.624   4.315  1.4660  2.0534  1.1536
 5666TIP3   OH217003   4.826   5.705   4.038 -0.4693  0.2979 -0.4318
 5666TIP3    H117004   4.878   5.680   3.962 -0.1817 -0.5703  0.0286
 5666TIP3    H217005   4.791   5.791   4.017  0.9137  0.7765 -0.8926
 5667TIP3   OH217006   4.836   1.159   1.326 -0.0792 -0.0221  0.0397
 5667TIP3    H117007   4.768   1.138   1.389  1.6852  1.6158  2.7282
 5667TIP3    H217008   4.799   1.229   1.273 -1.0041 -0.1599  0.4937
 5668TIP3   OH217009   3.254   3.020   2.216  0.0828  0.0470  0.7541
 5668TIP3    H117010   3.163   3.031   2.242  0.3038 -0.3555  1.7538
 5668TIP3    H217011   3.259   3.058   2.128 -1.0631 -0.0222  0.6462
 5669TIP3   OH217012   4.694   2.717   1.067  0.3381 -0.1113 -0.2356
 5669TIP3    H117013   4.739   2.723   1.151 -0.4820 -0.0186  0.2051
 5669TIP3    H217014   4.740   2.647   1.020  0.7678 -0.2023  0.3113
 5670TIP3   OH217015   2.504   1.816   4.160 -0.6845 -0.2414 -0.4175
 5670TIP3    H117016   2.563   1.876   4.116 -1.4180 -0.1343 -1.2807
 5670TIP3    H217017   2.416   1.850   4.140 -1.0562  0.6339  2.2623
 5671TIP3   OH217018   3.052   3.675   1.056 -0.3906  0.3149 -0.5933
 5671TIP3    H117019   3.130   3.715   1.095 -0.0602 -1.0664  0.2344
 5671TIP3    H217020   3.084   3.593   1.017 -1.4932 -0.5080  0.1774
 5672TIP3   OH217021   2.761   3.815   4.256  0.2672 -0.1262  0.1961
 5672TIP3    H117022   2.842   3.768   4.239 -1.1232 -2.3911 -0.7437
 5672TIP3    H217023   2.740   3.858   4.173  0.7209  0.8644  0.5817
 5673TIP3   OH217024   1.889   2.287   1.344  0.7513  0.1996 -0.1765
 5673TIP3    H117025   1.960   2.304   1.282 -0.4007  1.6430 -1.1825
 5673TIP3    H217026   1.915   2.207   1.390  2.2958 -0.1382 -1.5572
 5674TIP3   OH217027   2.379   2.419   0.021  0.4130 -0.3776  0.3294
 5674TIP3    H117028   2.386   2.512  -0.002  0.9071  0.7634  4.4426
 5674TIP3    H217029   2.286   2.407   0.043  0.2540 -1.0347 -0.6374
 5675TIP3   OH217030   5.062   0.537   0.803 -0.3093 -0.2256 -0.2315
 5675TIP3    H117031   5.030   0.567   0.888  0.2460  1.1988 -0.4871
 5675TIP3    H217032   5.155   0.520   0.818 -0.6241 -1.9823 -0.0785
 5676TIP3   OH217033   6.235   1.163   4.637  0.4338  0.6765  0.1245
 5676TIP3    H117034   6.184   1.181   4.557  1.1627  2.4169  0.0024
 5676TIP3    H217035   6.292   1.091   4.614 -0.3973  0.1801 -0.4451
 5677TIP3   OH217036   1.540   4.420   2.973  0.4778 -0.1262 -0.1754
 5677TIP3    H117037   1.459   4.470   2.960  0.7501  0.4884  0.4556
 5677TIP3    H217038   1.513   4.328   2.965 -0.3677  0.0588  0.5027
 5678TIP3   OH217039   3.844   1.489   2.197 -0.1317 -0.0900  0.2445
 5678TIP3    H117040   3.846   1.394   2.213  1.1478  0.2256  2.3521
 5678TIP3    H217041   3.936   1.516   2.203 -0.4049  1.2061 -0.9962
 5679TIP3   OH217042   4.414   5.712   4.197  1.0278 -0.0763 -0.6018
 5679TIP3    H117043   4.353   5.770   4.241  1.7170  1.9717 -2.1874
 5679TIP3    H217044   4.358   5.648   4.152  0.1699  0.3842 -0.2114
 5680TIP3   OH217045   6.255   0.028   1.604  0.2653  0.1246 -0.0172
 5680TIP3    H117046   6.215   0.080   1.674  0.9745 -0.5010  0.8750
 5680TIP3    H217047   6.182   0.004   1.548 -0.1625  1.6199 -0.1533
 5681TIP3   OH217048   2.585   2.972   3.337  0.2515  0.2403  0.4731
 5681TIP3    H117049   2.622   2.895   3.382  1.6479  2.6252  3.8286
 5681TIP3    H217050   2.660   3.030   3.326 -0.8453  1.3462 -1.6003
 5682TIP3   OH217051   2.716   5.249   2.568  0.2978 -0.0324 -0.2846
 5682TIP3    H117052   2.798   5.280   2.608  0.7232 -0.4424 -0.8215
 5682TIP3    H217053   2.648   5.277   2.629  0.8210  0.4764  0.0823
 5683TIP3   OH217054   5.517   3.464   3.909 -0.2418 -0.6469 -0.2166
 5683TIP3    H117055   5.433   3.451   3.953  0.6497 -0.9841  1.4859
 5683TIP3    H217056   5.496   3.462   3.816 -2.1491 -0.4506  0.1667
 5684TIP3   OH217057   0.029   0.100   4.575 -0.2301  0.0460 -0.0264
 5684TIP3    H117058   0.067   0.017   4.605  1.4132  0.7879  0.0909
 5684TIP3    H217059   0.068   0.114   4.488 -3.1778 -0.9583 -1.6642
 5685TIP3   OH217060   5.109   1.521   5.035 -0.1273 -0.3517 -0.0384
 5685TIP3    H117061   5.028   1.530   5.086  0.4562 -1.4744  1.1421
 5685TIP3    H217062   5.086   1.458   4.966 -0.1618 -0.9895  0.5443
 5686TIP3   OH217063   0.623   0.187   5.095 -0.0929 -0.1453 -0.3415
 5686TIP3    H117064   0.577   0.104   5.107 -1.8581  1.0718  2.0862
 5686TIP3    H217065   0.697   0.182   5.156 -0.1752  0.0471 -0.2274
 5687TIP3   OH217066   1.119   1.674   0.263 -0.2497 -0.1544 -0.4588
 5687TIP3    H117067   1.163   1.647   0.343  0.2901 -1.3479 -1.1298
 5687TIP3    H217068   1.055   1.739   0.291  1.0256  0.6536  0.7220
 5688TIP3   OH217069   1.627   1.651   1.950 -0.7713  0.3536 -0.9293
 5688TIP3    H117070   1.685   1.630   2.024 -0.7914 -1.5766 -1.4167
 5688TIP3    H217071   1.591   1.737   1.972 -0.0373  0.2544  0.8419
 5689TIP3   OH217072   4.190   4.364   0.768  0.0426 -0.2795 -0.1283
 5689TIP3    H117073   4.151   4.305   0.832  0.9932 -0.5129  0.2520
 5689TIP3    H217074   4.136   4.444   0.773 -0.7569 -0.8102 -0.0768
 5690TIP3   OH217075   1.140   0.527   2.168 -0.2997  0.0833 -0.5332
 5690TIP3    H117076   1.080   0.471   2.218  0.3429  0.1607  0.3594
 5690TIP3    H217077   1.168   0.472   2.095  1.5261 -1.4083  1.1677
 5691TIP3   OH217078   1.508   5.010   2.222 -0.4010  0.1002  0.1823
 5691TIP3    H117079   1.601   4.995   2.238 -0.6196  0.1102  1.5605
 5691TIP3    H217080   1.500   5.015   2.127  0.9501 -0.2424  0.0419
 5692TIP3   OH217081   3.892   3.192   4.560  0.0433  0.2476  0.0835
 5692TIP3    H117082   3.832   3.216   4.489  1.3815 -0.5687 -1.4188
 5692TIP3    H217083   3.836   3.147   4.624 -1.0388  0.0019 -0.9860
 5693TIP3   OH217084   4.840   1.681   1.393  0.2104 -0.2736 -0.2511
 5693TIP3    H117085   4.912   1.622   1.367  0.5531 -0.4531  1.0538
 5693TIP3    H217086   4.870   1.768   1.365  0.2611 -0.5426 -1.0610
 5694TIP3   OH217087   0.305   2.998   4.996 -0.3039 -0.6908 -0.0604
 5694TIP3    H117088   0.395   2.976   5.020 -0.7840 -1.4485  1.1247
 5694TIP3    H217089   0.280   2.932   4.932  0.2439  0.0087 -1.0087
 5695TIP3   OH217090   3.987   4.408   2.895  0.2278  0.4242  0.3960
 5695TIP3    H117091   3.963   4.315   2.894  2.9146 -0.3401  0.5232
 5695TIP3    H217092   4.005   4.429   2.803 -2.3158  1.4615  0.0464
 5696TIP3   OH217093   2.309   3.089   3.319 -0.3180 -0.4040 -0.5150
 5696TIP3    H117094   2.299   3.162   3.380  0.0741  0.7909 -1.8088
 5696TIP3    H217095   2.400   3.060   3.331  0.0308  0.3936 -1.0835
 5697TIP3   OH217096   4.573   0.865   4.603  0.1429  0.2260  0.1439
 5697TIP3    H117097   4.504   0.852   4.667 -2.7445 -1.0520 -2.9403
 5697TIP3    H217098   4.622   0.782   4.603 -0.2254  0.0065  0.2839
 5698TIP3   OH217099   2.882   0.608   2.444  0.0058 -0.4503  0.2779
 5698TIP3    H117100   2.818   0.544   2.474 -0.9420  1.5013  2.7534
 5698TIP3    H217101   2.953   0.602   2.508  0.5142  0.0860 -0.2243
 5699TIP3   OH217102   2.949   1.575   0.123  0.2419  0.1198 -0.2099
 5699TIP3    H117103   3.037   1.602   0.149  0.4958 -0.0788 -0.8527
 5699TIP3    H217104   2.942   1.600   0.031 -0.0252 -0.7286 -0.4333
 5700TIP3   OH217105   2.056   4.777   0.697 -0.0599 -0.2850  0.0221
 5700TIP3    H117106   1.998   4.851   0.679 -1.1582 -0.7782  1.3787
 5700TIP3    H217107   2.118   4.777   0.624 -1.9037  0.1169 -1.6142
 5701TIP3   OH217108   3.234   2.339   0.088  0.3802 -0.0110 -0.2168
 5701TIP3    H117109   3.195   2.409   0.141  1.4316  0.4356 -0.0242
 5701TIP3    H217110   3.193   2.258   0.122  0.3452  0.3562  0.6362
 5702TIP3   OH217111   0.871   3.362   2.858  0.1790 -0.2929 -0.3043
 5702TIP3    H117112   0.921   3.294   2.812  2.4771  1.0911 -0.0067
 5702TIP3    H217113   0.898   3.355   2.949 -1.4388 -0.5323  0.1858
 5703TIP3   OH217114   2.391   3.115   4.079  0.6460  0.4857  0.3462
 5703TIP3    H117115   2.371   3.026   4.110  1.3615  0.2677  0.2186
 5703TIP3    H217116   2.436   3.156   4.153 -1.1082  1.3117  1.0008
 5704TIP3   OH217117   5.322   1.674   4.421 -0.3802 -0.0748 -1.0132
 5704TIP3    H117118   5.238   1.650   4.383  0.3177  0.7297 -3.1937
 5704TIP3    H217119   5.369   1.592   4.431 -1.1519 -0.4558 -0.4122
 5705TIP3   OH217120   5.516   5.014   2.447  0.1303 -0.0472  0.2617
 5705TIP3    H117121   5.588   5.066   2.410  0.6795 -1.4089 -0.6979
 5705TIP3    H217122   5.504   4.942   2.384 -2.4813  0.4343  0.0957
 5706TIP3   OH217123   6.175   1.571   0.675  0.6226  0.2242  0.6782
 5706TIP3    H117124   6.230   1.542   0.747 -0.7452 -0.9370  1.3162
 5706TIP3    H217125   6.208   1.526   0.598 -0.1070 -1.3777  1.2653
 5707TIP3   OH217126   0.736   5.810   3.091  0.5755 -0.1989 -0.5878
 5707TIP3    H117127   0.808   5.856   3.048 -0.3598  0.4773 -1.4968
 5707TIP3    H217128   0.777   5.761   3.162  1.9328  0.0972 -1.1398
 5708TIP3   OH217129   3.210   4.599   3.628  0.0280  0.2325  0.3862
 5708TIP3    H117130   3.236   4.642   3.710 -1.5094 -0.6878  1.4269
 5708TIP3    H217131   3.238   4.658   3.559  2.3902  0.5209  1.4940
 5709TIP3   OH217132   3.281   0.608   2.570 -0.5712  0.1792 -0.4014
 5709TIP3    H117133   3.322   0.559   2.642 -0.1367  0.6172 -0.3418
 5709TIP3    H217134   3.281   0.547   2.496  1.6418  0.6536 -0.8661
 5710TIP3   OH217135   0.721   1.832   1.860 -0.2424  0.0628  0.0787
 5710TIP3    H117136   0.635   1.842   1.900 -1.1101 -0.6789 -1.5054
 5710TIP3    H217137   0.746   1.741   1.879 -0.0839  0.0906  0.0106
 5711TIP3   OH217138   6.308   0.502   2.801 -0.1749 -0.3231  0.1208
 5711TIP3    H117139   6.321   0.575   2.861  0.3212 -0.1065 -0.2390
 5711TIP3    H217140   6.272   0.432   2.855  0.2167 -0.1161  0.6528
 5712TIP3   OH217141   3.208   1.502   0.567 -0.0967 -0.5985 -0.4293
 5712TIP3    H117142   3.194   1.408   0.555 -0.5133 -0.7348  0.9189
 5712TIP3    H217143   3.129   1.543   0.533 -1.0652 -0.9388  1.2719
 5713TIP3   OH217144   2.699   5.336   0.034  0.1563 -0.1373 -0.5769
 5713TIP3    H117145   2.770   5.277   0.061  0.4213  0.6629  0.5587
 5713TIP3    H217146   2.634   5.279  -0.007  0.6194 -1.1515  0.0584
 5714TIP3   OH217147   1.434   0.291   2.937 -0.0701 -0.3672 -0.2523
 5714TIP3    H117148   1.461   0.367   2.990 -0.3375 -0.8661  0.6108
 5714TIP3    H217149   1.478   0.305   2.853  0.7751  0.1799  0.2589
 5715TIP3   OH217150   5.582   3.569   0.816  0.2972  0.6050  0.1348
 5715TIP3    H117151   5.544   3.577   0.728  0.6383  0.0637 -0.0672
 5715TIP3    H217152   5.652   3.635   0.817  0.7928  0.1051 -0.2807
 5716TIP3   OH217153   1.989   3.168   1.325 -0.3634 -0.0556  0.0025
 5716TIP3    H117154   1.925   3.236   1.345  0.4980  0.4654  1.1170
 5716TIP3    H217155   2.026   3.194   1.241 -3.4654 -1.8272 -2.0914
 5717TIP3   OH217156   4.659   5.706   2.266  0.2049 -0.3499  0.1537
 5717TIP3    H117157   4.744   5.675   2.233  0.7474  0.8542  0.3725
 5717TIP3    H217158   4.667   5.701   2.361 -0.3584 -1.1929  0.1721
 5718TIP3   OH217159   0.035   5.429   0.125  0.0488  0.1523  0.0284
 5718TIP3    H117160  -0.043   5.415   0.072  0.3243 -5.1898  0.5102
 5718TIP3    H217161   0.108   5.414   0.065  0.6730  1.4493  0.4166
 5719TIP3   OH217162   4.958   3.267   3.873  0.1752  0.1164 -0.6569
 5719TIP3    H117163   4.998   3.336   3.820 -0.6237 -0.1388 -1.6239
 5719TIP3    H217164   4.994   3.280   3.961  2.4942 -0.1836 -1.4850
 5720TIP3   OH217165   5.982   2.342   3.091  0.1175 -0.0645 -0.2083
 5720TIP3    H117166   6.033   2.360   3.169 -1.2712 -0.5406  0.8435
 5720TIP3    H217167   5.957   2.428   3.057  1.3943  0.1649 -0.6083
 5721TIP3   OH217168   1.507   1.798   0.093 -0.4780  0.3192 -0.0390
 5721TIP3    H117169   1.557   1.716   0.089 -0.1610  0.5412 -0.8095
 5721TIP3    H217170   1.554   1.851   0.158 -1.4539 -0.5981  1.4628
 5722TIP3   OH217171   1.311   2.450   2.263 -0.3391 -0.0229 -0.2839
 5722TIP3    H117172   1.231   2.400   2.247 -0.8674  0.5818  0.4372
 5722TIP3    H217173   1.367   2.390   2.312 -0.9269  0.0409  0.4796
 5723TIP3   OH217174   5.322   0.829   1.694  0.0974 -0.6222  0.1245
 5723TIP3    H117175   5.341   0.817   1.787  0.8974 -0.2098  0.0291
 5723TIP3    H217176   5.389   0.776   1.650 -0.6085 -1.2430 -0.2132
 5724TIP3   OH217177   4.683   2.484   1.918  0.5829  0.1705  0.2851
 5724TIP3    H117178   4.733   2.425   1.862  0.8204 -0.8504  1.5478
 5724TIP3    H217179   4.723   2.570   1.904 -1.4710  0.7031 -3.6737
 5725TIP3   OH217180   2.825   2.079   1.766 -0.1237  0.4660  0.0098
 5725TIP3    H117181   2.752   2.139   1.783  0.0022  0.9782 -1.1454
 5725TIP3    H217182   2.868   2.116   1.689 -0.9086 -1.8894 -1.6620
 5726TIP3   OH217183   4.774   1.657   4.430 -0.3542 -0.2584  0.6526
 5726TIP3    H117184   4.700   1.704   4.393  0.2763  0.0211 -0.2792
 5726TIP3    H217185   4.805   1.713   4.502  1.3998  1.6374 -1.4491
 5727TIP3   OH217186   4.190   4.230   0.520  0.1651 -0.3817 -0.3811
 5727TIP3    H117187   4.099   4.208   0.504  0.1355  1.3199 -3.0925
 5727TIP3    H217188   4.188   4.286   0.598 -1.1433 -0.1741 -0.5475
 5728TIP3   OH217189   4.566   2.209   4.354  0.1391 -0.4396  0.0755
 5728TIP3    H117190   4.634   2.218   4.420 -0.3614  0.5075  0.4821
 5728TIP3    H217191   4.512   2.288   4.364  0.7519  0.3630 -2.2703
 5729TIP3   OH217192   4.051   4.764   5.192  0.0137  0.9266 -0.5065
 5729TIP3    H117193   4.086   4.758   5.103 -1.6743 -0.1775 -1.1524
 5729TIP3    H217194   4.128   4.758   5.249  0.9618 -0.5287 -1.8615
 5730TIP3   OH217195   0.897   5.422   1.969 -0.6048 -0.2496 -0.1774
 5730TIP3    H117196   0.896   5.335   2.010  0.1792 -0.1979 -0.0242
 5730TIP3    H217197   0.948   5.476   2.030 -1.8516  0.5543  0.1757
 5731TIP3   OH217198   4.630   3.275   2.496  0.4055  0.3190 -0.2923
 5731TIP3    H117199   4.672   3.251   2.414 -0.1648  0.4516 -0.6294
 5731TIP3    H217200   4.542   3.302   2.471  0.1223  0.0684  0.3937
 5732TIP3   OH217201   0.972   4.478   0.258  0.0816  0.5269  0.3988
 5732TIP3    H117202   0.894   4.532   0.271 -0.3478 -0.0976  0.4531
 5732TIP3    H217203   0.947   4.391   0.287  0.4926  0.0915 -0.4802
 5733TIP3   OH217204   1.641   2.946   2.039 -0.0816  0.0717 -0.1721
 5733TIP3    H117205   1.669   3.036   2.019  3.3899 -0.1876  2.6439
 5733TIP3    H217206   1.688   2.891   1.977 -0.6690  0.0533 -0.6107
 5734TIP3   OH217207   3.326   0.153   2.649  0.5271 -0.1013 -0.3088
 5734TIP3    H117208   3.356   0.063   2.661 -1.1767 -0.6490  0.1326
 5734TIP3    H217209   3.270   0.150   2.571  0.2109  0.5036 -0.1183
 5735TIP3   OH217210   1.321   0.349   3.428  0.0867 -0.0780 -0.4225
 5735TIP3    H117211   1.371   0.289   3.373  1.1926 -0.1140  0.5716
 5735TIP3    H217212   1.371   0.431   3.424 -0.5217  0.2948 -0.4764
 5736TIP3   OH217213   1.911   2.654   2.615 -0.2944  0.2384 -0.2812
 5736TIP3    H117214   1.991   2.688   2.656 -0.4831  0.7130 -0.2953
 5736TIP3    H217215   1.938   2.630   2.526  0.1437 -0.9114  0.1429
 5737TIP3   OH217216   0.249   1.003   2.867  0.7201  0.2622 -0.2645
 5737TIP3    H117217   0.288   0.920   2.895 -0.6652 -0.8743 -1.5543
 5737TIP3    H217218   0.160   1.001   2.902  0.9350  1.6131  0.4105
 5738TIP3   OH217219   0.564   3.276   1.017  0.1618  0.1477  0.2213
 5738TIP3    H117220   0.645   3.228   1.038  0.8007  0.7983 -0.6656
 5738TIP3    H217221   0.503   3.252   1.087  0.8368 -1.0397  0.4360
 5739TIP3   OH217222   3.602   0.398   4.731 -0.3121 -0.5921 -0.0906
 5739TIP3    H117223   3.583   0.323   4.675  1.1528  1.1444 -3.1821
 5739TIP3    H217224   3.628   0.468   4.670  1.1575  1.5743  2.7624
 5740TIP3   OH217225   5.804   4.234   3.440 -0.1799  0.2901  0.2593
 5740TIP3    H117226   5.813   4.270   3.528  1.2558  0.7149 -0.0409
 5740TIP3    H217227   5.892   4.236   3.404 -0.7460  0.1227 -1.1977
 5741TIP3   OH217228   2.507   1.132   3.254 -0.6411  0.1112  0.2900
 5741TIP3    H117229   2.565   1.199   3.290  0.4224 -1.1695  1.0150
 5741TIP3    H217230   2.498   1.157   3.162  2.8790 -0.8160 -0.4526
 5742TIP3   OH217231   4.923   3.581   0.905 -0.6049 -0.5520  0.1160
 5742TIP3    H117232   4.879   3.592   0.989 -0.5331 -2.4453  0.4513
 5742TIP3    H217233   4.998   3.525   0.924 -2.0965 -3.3899 -1.5883
 5743TIP3   OH217234   0.695   0.430   2.059 -0.0035 -0.4027 -0.1671
 5743TIP3    H117235   0.739   0.356   2.101 -0.8920  1.2693  4.3706
 5743TIP3    H217236   0.603   0.406   2.059  0.0589 -1.0095 -3.0315
 5744TIP3   OH217237   0.637   1.480   3.324  0.0329 -0.2224 -0.1182
 5744TIP3    H117238   0.713   1.514   3.372 -0.6558 -1.4734  1.9834
 5744TIP3    H217239   0.563   1.533   3.353 -0.4782 -1.3039  0.6019
 5745TIP3   OH217240   0.573   2.741   0.378 -0.5897 -0.3040  0.3916
 5745TIP3    H117241   0.654   2.757   0.329 -0.4138 -0.7432  0.5371
 5745TIP3    H217242   0.507   2.794   0.333  0.3852  2.6088  2.1229
 5746TIP3   OH217243   1.560   1.395   1.429  0.3201  0.2402  0.5428
 5746TIP3    H117244   1.561   1.339   1.352  0.6420  0.0618  0.6733
 5746TIP3    H217245   1.605   1.474   1.402  3.0821 -0.9245  1.3416
 5747TIP3   OH217246   5.186   4.868   3.820  0.2040 -0.7571  0.3908
 5747TIP3    H117247   5.194   4.775   3.842 -0.2714 -0.6446  1.0772
 5747TIP3    H217248   5.107   4.897   3.866  1.3742  0.4212  1.7715
 5748TIP3   OH217249   2.231   1.213   1.646 -0.0575 -0.1927  0.0750
 5748TIP3    H117250   2.136   1.222   1.643 -0.0214  0.1402 -0.0831
 5748TIP3    H217251   2.264   1.296   1.613  0.2745 -0.8290 -1.2395
 5749TIP3   OH217252   6.078   4.211   3.421 -0.0582 -0.1931  0.2580
 5749TIP3    H117253   6.147   4.190   3.358  1.5206 -1.4785  2.2880
 5749TIP3    H217254   6.062   4.128   3.467 -1.7393  0.5041  1.0115
 5750TIP3   OH217255   0.648   4.458   4.868  0.0811  0.1064  0.3476
 5750TIP3    H117256   0.665   4.412   4.786 -1.9386  4.4384 -2.9212
 5750TIP3    H217257   0.576   4.409   4.908  0.6189 -1.7266 -0.8222
 5751TIP3   OH217258   1.710   4.261   1.280 -0.9607  1.1087 -0.2587
 5751TIP3    H117259   1.695   4.194   1.346  2.1867  0.7438  0.2547
 5751TIP3    H217260   1.738   4.213   1.202 -2.4058  1.6664 -1.1577
 5752TIP3   OH217261   1.207   1.057   3.484  0.3447  0.1521  0.6778
 5752TIP3    H117262   1.242   0.973   3.454  1.0455  0.5945  0.2411
 5752TIP3    H217263   1.118   1.036   3.514  0.0600 -0.5413 -0.5538
 5753TIP3   OH217264   1.796   0.945   1.076  0.2363  0.1202  0.3062
 5753TIP3    H117265   1.751   0.942   1.160 -0.2836  1.0136  0.0733
 5753TIP3    H217266   1.811   1.038   1.060 -1.4163  0.1379 -1.4760
 5754TIP3   OH217267   3.013   1.307   0.083 -0.1817  0.1423  0.1183
 5754TIP3    H117268   3.005   1.399   0.109 -0.5886 -0.6141  3.0488
 5754TIP3    H217269   2.924   1.273   0.090 -0.0454 -0.4998 -1.0246
 5755TIP3   OH217270   6.314   2.749   0.529 -0.0154 -0.3267 -0.3781
 5755TIP3    H117271   6.341   2.816   0.592  0.4725 -0.1412 -0.7769
 5755TIP3    H217272   6.253   2.693   0.578  0.2988 -0.1440  0.2335
 5756TIP3   OH217273   4.822   5.643   1.418 -0.6374 -0.3215  0.2563
 5756TIP3    H117274   4.878   5.573   1.453 -1.5094 -1.1929 -0.0318
 5756TIP3    H217275   4.810   5.703   1.492  0.7582 -0.0502  0.2826
 5757TIP3   OH217276   1.591   4.515   3.989 -0.2285  0.7376 -0.1994
 5757TIP3    H117277   1.600   4.443   3.927  1.8270 -0.6060  1.5140
 5757TIP3    H217278   1.539   4.581   3.942 -0.5892 -1.0546 -2.5081
 5758TIP3   OH217279   4.046   1.975   4.924  0.2855  0.2731  0.5815
 5758TIP3    H117280   4.045   2.053   4.868 -3.4482 -0.7332 -1.0543
 5758TIP3    H217281   4.049   2.011   5.013  0.9613  2.1591 -0.1468
 5759TIP3   OH217282   3.209   1.221   1.832  0.3399 -0.2977  0.2671
 5759TIP3    H117283   3.184   1.270   1.911 -0.6597 -0.6567  0.1848
 5759TIP3    H217284   3.178   1.276   1.760 -0.1382 -0.7048  0.1595
 5760TIP3   OH217285   5.603   3.438   0.383 -0.0134  0.3957  0.0512
 5760TIP3    H117286   5.636   3.352   0.410 -1.3048  0.0528  0.6203
 5760TIP3    H217287   5.667   3.469   0.319  0.7676 -0.7399  0.2430
 5761TIP3   OH217288   1.337   5.005   4.088 -0.5810  0.2648 -0.1070
 5761TIP3    H117289   1.290   4.923   4.104 -2.8815  1.1655 -1.7660
 5761TIP3    H217290   1.337   5.050   4.172 -0.0979 -0.9848  0.5945
 5762TIP3   OH217291   5.583   5.924   3.649  0.1628  0.6046 -0.1227
 5762TIP3    H117292   5.608   5.978   3.724  1.1891  1.4982 -1.0725
 5762TIP3    H217293   5.532   5.983   3.593  0.9958  0.5111 -1.0041
 5763TIP3   OH217294   6.237   0.366   1.717  0.0602 -0.3331 -0.6495
 5763TIP3    H117295   6.177   0.292   1.719  0.4973 -0.6797 -0.2998
 5763TIP3    H217296   6.181   0.441   1.694 -0.5302 -0.6262 -0.1938
 5764TIP3   OH217297   5.142   0.716   0.180 -0.6744 -0.6018 -0.1664
 5764TIP3    H117298   5.089   0.682   0.251 -0.1921 -2.6482 -0.7252
 5764TIP3    H217299   5.081   0.772   0.130 -2.0788 -2.1334 -0.2667
 5765TIP3   OH217300   3.343   1.753   4.693  0.6732 -0.8715 -0.1461
 5765TIP3    H117301   3.385   1.675   4.657  2.8868  0.4760 -0.6658
 5765TIP3    H217302   3.404   1.825   4.674 -1.4203  1.0697  0.0108
 5766TIP3   OH217303   4.807   2.162   2.173  0.0126  0.0061 -0.1429
 5766TIP3    H117304   4.788   2.153   2.080 -2.4443  3.7396 -0.2309
 5766TIP3    H217305   4.900   2.186   2.176  0.0613  0.1330 -1.6622
 5767TIP3   OH217306   1.154   4.501   3.352  0.4529  0.0189 -0.3986
 5767TIP3    H117307   1.197   4.416   3.342 -0.2875 -0.7025  1.8071
 5767TIP3    H217308   1.064   4.486   3.323  0.5911  0.3743 -1.0351
 5768TIP3   OH217309   4.181   0.521   2.679  0.3780  0.7263  0.6518
 5768TIP3    H117310   4.194   0.591   2.615  2.7595 -0.0250  0.2227
 5768TIP3    H217311   4.144   0.565   2.755 -1.7052  1.7946 -0.8690
 5769TIP3   OH217312   4.756   1.846   0.494 -0.0187 -0.4495  0.2614
 5769TIP3    H117313   4.764   1.922   0.552 -1.6591  0.6411 -0.8475
 5769TIP3    H217314   4.687   1.870   0.432  1.0503 -1.8920 -1.6172
 5770TIP3   OH217315   6.016   5.864   3.205  0.3917  0.6620  0.3123
 5770TIP3    H117316   6.063   5.902   3.131 -0.3811  2.1360  0.5370
 5770TIP3    H217317   6.018   5.932   3.273 -1.4492  0.5246  0.5586
 5771TIP3   OH217318   4.496   2.979   0.357 -0.0874 -0.4858 -0.0410
 5771TIP3    H117319   4.584   2.949   0.338 -0.6186 -2.9004  0.9186
 5771TIP3    H217320   4.478   3.046   0.292  1.8065 -1.1754 -1.3395
 5772TIP3   OH217321   3.989   1.937   0.783  0.0030  0.1241  0.2391
 5772TIP3    H117322   4.031   1.887   0.853  0.2338  1.6895  1.2668
 5772TIP3    H217323   4.055   2.002   0.757 -0.1962 -0.2403 -1.2396
 5773TIP3   OH217324   0.994   2.916   1.030 -0.0561  0.3142 -0.6364
 5773TIP3    H117325   0.930   2.853   0.998  0.5373 -0.7510  0.1763
 5773TIP3    H217326   1.027   2.960   0.951 -1.7406  0.8757 -1.0626
 5774TIP3   OH217327   5.307   2.776   4.765  0.0405  0.1735  0.3047
 5774TIP3    H117328   5.233   2.835   4.780 -0.7978 -1.0957  1.3293
 5774TIP3    H217329   5.384   2.832   4.777 -0.7348  1.2912  0.2456
 5775TIP3   OH217330   6.107   5.403   2.255  0.5370  0.1930  0.8096
 5775TIP3    H117331   6.133   5.485   2.215 -0.6352 -0.7227 -2.0909
 5775TIP3    H217332   6.188   5.354   2.267  0.9686  0.6440 -0.2133
 5776TIP3   OH217333   0.382   5.570   1.702 -0.2468 -0.0628  0.6241
 5776TIP3    H117334   0.305   5.593   1.650 -0.0935 -1.1849 -0.1332
 5776TIP3    H217335   0.447   5.542   1.637  1.2619  2.0210  1.1384
 5777TIP3   OH217336   0.200   0.161   3.799  0.3151 -0.2729  0.2629
 5777TIP3    H117337   0.264   0.223   3.764 -0.4183  0.8798  0.9055
 5777TIP3    H217338   0.171   0.111   3.723  1.0492  0.0472 -0.2393
 5778TIP3   OH217339   2.212   2.743   1.493  0.6712 -0.3082  0.5765
 5778TIP3    H117340   2.123   2.751   1.456  0.6176  1.1626  0.9870
 5778TIP3    H217341   2.220   2.818   1.552  1.0895 -2.0780  2.9054
 5779TIP3   OH217342   5.490   3.739   5.101  0.2039 -0.3332  0.3017
 5779TIP3    H117343   5.541   3.802   5.049 -0.4085 -0.5967 -0.6486
 5779TIP3    H217344   5.551   3.708   5.167  0.6697  0.8910  0.4809
 5780TIP3   OH217345   1.778   0.376   5.160 -0.0802 -0.6610 -0.3560
 5780TIP3    H117346   1.717   0.315   5.203 -0.7095  0.8610  1.0044
 5780TIP3    H217347   1.810   0.327   5.084 -1.0154 -2.4605  0.3318
 5781TIP3   OH217348   4.261   3.856   2.520  0.2896 -0.2548  0.0385
 5781TIP3    H117349   4.212   3.909   2.457  1.9962  2.1256  0.5900
 5781TIP3    H217350   4.303   3.788   2.467  0.2784  0.6217 -1.1374
 5782TIP3   OH217351   1.646   5.118   2.964  0.3033  0.1453  0.3422
 5782TIP3    H117352   1.730   5.105   2.920 -0.4630  0.1596 -1.1703
 5782TIP3    H217353   1.596   5.174   2.905 -2.3159 -3.1978 -0.9155
 5783TIP3   OH217354   5.969   0.309   1.236 -0.6636 -0.4066  0.5927
 5783TIP3    H117355   5.924   0.226   1.247  0.3267 -1.5722 -2.8291
 5783TIP3    H217356   5.900   0.375   1.243 -1.9949 -1.7386  0.4755
 5784TIP3   OH217357   0.171   0.665   4.786  0.1151 -0.2865 -0.2200
 5784TIP3    H117358   0.118   0.585   4.780 -1.1703  0.6447 -2.2885
 5784TIP3    H217359   0.197   0.683   4.696 -3.2214  3.8694 -0.6639
 5785TIP3   OH217360   5.536   4.843   3.449  0.0045  0.0237  0.1524
 5785TIP3    H117361   5.583   4.787   3.387 -1.7068 -0.6934 -0.5599
 5785TIP3    H217362   5.466   4.882   3.397 -0.0490  1.2897  1.1146
 5786TIP3   OH217363   5.716   4.279   4.511 -0.3136  0.0369 -0.1433
 5786TIP3    H117364   5.669   4.323   4.582 -1.1209 -0.8878 -0.0743
 5786TIP3    H217365   5.677   4.315   4.431 -0.7705 -0.3142 -0.0879
 5787TIP3   OH217366   5.834   3.723   4.983  0.2658 -0.2676 -0.2155
 5787TIP3    H117367   5.850   3.748   4.892 -1.0710  0.8775 -0.1580
 5787TIP3    H217368   5.795   3.801   5.023 -0.0570 -1.0722  1.0884
 5788TIP3   OH217369   1.858   5.141   4.403 -0.2011 -0.0716 -0.1047
 5788TIP3    H117370   1.804   5.119   4.480  0.5657  0.0649  0.4839
 5788TIP3    H217371   1.912   5.214   4.432 -0.4279  0.4808 -1.0244
 5789TIP3   OH217372   6.135   1.565   1.855 -0.0280  0.1679  0.0193
 5789TIP3    H117373   6.045   1.596   1.860 -0.5938 -1.5427  1.0606
 5789TIP3    H217374   6.178   1.602   1.932 -0.6661 -1.4691  1.1865
 5790TIP3   OH217375   4.161   3.662   0.207 -0.0530  0.0275 -0.9526
 5790TIP3    H117376   4.155   3.589   0.145  0.0251  1.3127 -2.5315
 5790TIP3    H217377   4.188   3.737   0.154  1.0016  0.9781  0.8185
 5791TIP3   OH217378   5.560   5.143   1.813 -0.3244 -0.3341  0.1028
 5791TIP3    H117379   5.520   5.094   1.884 -0.4846 -1.7684 -0.9203
 5791TIP3    H217380   5.652   5.153   1.840 -0.7013  0.4254  1.1477
 5792TIP3   OH217381   5.166   4.912   3.064 -0.1139 -0.0795  0.0328
 5792TIP3    H117382   5.259   4.925   3.084 -0.3154  1.7183 -0.0321
 5792TIP3    H217383   5.130   4.872   3.143  0.4722  0.4322  0.5694
 5793TIP3   OH217384   2.984   3.878   0.515 -0.7462  0.2073 -0.4981
 5793TIP3    H117385   2.963   3.970   0.497 -1.4951  0.4536  1.4205
 5793TIP3    H217386   2.902   3.832   0.499 -0.4522 -0.1120 -1.1485
 5794TIP3   OH217387   0.284   4.222   4.238  0.0622 -0.1360 -0.3870
 5794TIP3    H117388   0.262   4.239   4.146  3.2196 -1.1158 -1.4461
 5794TIP3    H217389   0.346   4.291   4.261 -0.2693 -0.2339  0.8564
 5795TIP3   OH217390   1.274   5.183   4.616 -0.4228  0.2153  0.1393
 5795TIP3    H117391   1.360   5.200   4.579 -0.6765 -0.4485 -0.7783
 5795TIP3    H217392   1.290   5.124   4.690 -0.2105 -1.0801 -0.9060
 5796TIP3   OH217393   5.753   5.027   0.391  0.1339 -0.3067  0.7396
 5796TIP3    H117394   5.659   5.033   0.369 -0.3432 -2.8509  1.8316
 5796TIP3    H217395   5.755   5.022   0.486  1.1487 -2.6172  0.6613
 5797TIP3   OH217396   3.846   2.167   2.606 -0.0069  0.2191 -0.4756
 5797TIP3    H117397   3.829   2.080   2.644 -0.4110  0.6996  0.4850
 5797TIP3    H217398   3.919   2.153   2.546  0.1801 -0.7180 -0.0540
 5798TIP3   OH217399   0.579   1.233   3.338  0.8860  0.6235  0.4161
 5798TIP3    H117400   0.610   1.318   3.369 -1.3968  0.9185  2.1053
 5798TIP3    H217401   0.546   1.250   3.250  2.4067  0.9633 -0.1252
 5799TIP3   OH217402   3.879   3.602   0.492  0.4352 -0.3738 -0.1646
 5799TIP3    H117403   3.894   3.694   0.473 -1.4431 -0.0933 -0.4868
 5799TIP3    H217404   3.961   3.559   0.470  1.8501  1.3894  1.3675
 5800TIP3   OH217405   2.991   0.008   3.875 -0.0265 -0.2004  0.0681
 5800TIP3    H117406   3.037   0.045   3.951 -2.0632  2.8939 -0.0302
 5800TIP3    H217407   2.979   0.082   3.816  0.4581 -2.2817 -2.8277
 5801TIP3   OH217408   4.273   4.953   0.527  0.0093 -0.3825  0.8168
 5801TIP3    H117409   4.182   4.959   0.557 -0.1539 -2.3388  0.8953
 5801TIP3    H217410   4.268   4.901   0.446  0.7509  2.3466 -1.1152
 5802TIP3   OH217411   2.900   5.597   2.055 -0.0515  0.0163  0.4364
 5802TIP3    H117412   2.899   5.504   2.032 -3.2812 -0.1424  0.8044
 5802TIP3    H217413   2.984   5.628   2.021  0.8557 -2.8571 -0.2924
 5803TIP3   OH217414   1.856   4.623   3.904  0.0247  0.4271 -0.1637
 5803TIP3    H117415   1.860   4.685   3.977  1.7666 -1.9883  1.9847
 5803TIP3    H217416   1.763   4.606   3.892 -0.5020  3.2218 -0.7356
 5804TIP3   OH217417   5.683   5.713   4.689  0.2920 -0.4857 -0.3246
 5804TIP3    H117418   5.697   5.693   4.781  1.0985  1.9735  0.1478
 5804TIP3    H217419   5.770   5.710   4.650  0.5559  2.2250 -0.1267
 5805TIP3   OH217420   3.845   0.528   4.426 -0.2357  0.2232 -0.2827
 5805TIP3    H117421   3.889   0.605   4.462 -0.0072 -0.1151  0.1835
 5805TIP3    H217422   3.914   0.461   4.423 -0.0915  0.4085 -1.9329
 5806TIP3   OH217423   4.120   2.380   5.092 -0.1726 -0.3509 -0.1411
 5806TIP3    H117424   4.119   2.441   5.019  0.8699  0.4720  0.4978
 5806TIP3    H217425   4.033   2.387   5.132 -0.9168 -1.1581 -1.5450
 5807TIP3   OH217426   5.839   4.054   4.596 -0.1925  0.0867  1.1326
 5807TIP3    H117427   5.920   4.080   4.639 -0.3169  0.3077  1.2312
 5807TIP3    H217428   5.798   4.136   4.568  0.1703 -0.0725  0.0661
 5808TIP3   OH217429   2.935   4.867   2.816  0.2742 -0.1903  0.3386
 5808TIP3    H117430   2.999   4.810   2.858 -0.8377 -1.2158  0.7225
 5808TIP3    H217431   2.855   4.815   2.813 -0.9353  1.5038  1.1309
 5809TIP3   OH217432   0.466   0.936   1.766 -0.7253 -0.7603 -0.3892
 5809TIP3    H117433   0.513   0.914   1.685 -0.6330 -2.2051  0.0310
 5809TIP3    H217434   0.456   0.852   1.812 -1.5188 -0.0952  0.7082
 5810TIP3   OH217435   2.571   3.969   3.724  0.2633  0.1605 -0.0032
 5810TIP3    H117436   2.631   4.004   3.657 -0.5225 -1.1583 -1.4686
 5810TIP3    H217437   2.517   3.905   3.677  0.4359 -1.7025  2.1598
 5811TIP3   OH217438   4.336   3.167   4.234  0.2122 -0.4721  0.5911
 5811TIP3    H117439   4.266   3.229   4.214 -0.1150 -0.9314  0.2905
 5811TIP3    H217440   4.401   3.180   4.166 -0.6601 -1.6696 -0.5274
 5812TIP3   OH217441   5.390   1.370   3.579  0.3179 -0.0062  0.1366
 5812TIP3    H117442   5.398   1.460   3.609 -1.2764 -0.4326  2.0532
 5812TIP3    H217443   5.306   1.367   3.533  1.2179 -0.1291 -1.5617
 5813TIP3   OH217444   4.985   0.749   0.430  0.5904  0.0632 -0.2316
 5813TIP3    H117445   4.915   0.751   0.364 -0.7181  1.6303  1.0943
 5813TIP3    H217446   4.950   0.692   0.499  0.3068  1.3189  0.7040
 5814TIP3   OH217447   1.175   0.931   0.286 -0.3063  0.2464 -0.0266
 5814TIP3    H117448   1.153   0.876   0.361 -0.2366 -0.4993 -0.5409
 5814TIP3    H217449   1.120   1.008   0.296  0.2451  0.5060  1.1937
 5815TIP3   OH217450   5.379   5.133   3.404  0.5822  0.4686 -0.0394
 5815TIP3    H117451   5.461   5.179   3.387 -0.1272  1.4343 -0.9915
 5815TIP3    H217452   5.360   5.151   3.496  0.7986  1.2920 -0.1504
 5816TIP3   OH217453   1.246   2.848   4.307 -0.8567 -0.1102  0.3128
 5816TIP3    H117454   1.187   2.796   4.253  0.9106 -1.1277 -0.7269
 5816TIP3    H217455   1.249   2.934   4.263 -1.7081  0.0276  0.5093
 5817TIP3   OH217456   5.416   5.619   2.786  0.2063 -0.4519 -0.0698
 5817TIP3    H117457   5.489   5.649   2.732 -0.8854  1.2934 -0.6262
 5817TIP3    H217458   5.456   5.600   2.871  1.2407  0.8902 -0.2311
 5818TIP3   OH217459   0.220   0.776   2.477 -0.1984 -0.0862  0.1273
 5818TIP3    H117460   0.221   0.871   2.488  1.4415  0.0948 -1.2516
 5818TIP3    H217461   0.302   0.756   2.433  0.2990 -2.3616  1.9025
 5819TIP3   OH217462   2.444   1.304   0.204 -0.4965 -0.5396 -0.5173
 5819TIP3    H117463   2.352   1.325   0.218 -0.7711 -1.7192 -0.4559
 5819TIP3    H217464   2.480   1.291   0.292 -0.0056  0.8714 -0.4746
 5820TIP3   OH217465   1.957   1.151   2.479 -0.3639 -0.7055 -0.5446
 5820TIP3    H117466   1.945   1.061   2.509  1.3662 -0.5125  0.8368
 5820TIP3    H217467   1.870   1.190   2.488 -0.3953 -1.2365  2.4373
 5821TIP3   OH217468   3.232   1.272   0.254  0.0179 -0.4275 -0.0076
 5821TIP3    H117469   3.205   1.277   0.345  0.6921  3.0827  0.1583
 5821TIP3    H217470   3.155   1.299   0.204 -0.0901 -1.4942 -0.4480
 5822TIP3   OH217471   4.349   3.264   0.394 -0.1358  0.7997  0.1197
 5822TIP3    H117472   4.365   3.334   0.330  0.3280 -0.6854 -1.4644
 5822TIP3    H217473   4.419   3.276   0.459  0.1224  1.6207 -0.2873
 5823TIP3   OH217474   2.362   1.033   1.819  0.2687 -0.5809  0.1874
 5823TIP3    H117475   2.298   1.086   1.772  0.4549 -0.8953 -0.4364
 5823TIP3    H217476   2.331   0.943   1.808 -0.3890 -0.5803  1.7562
 5824TIP3   OH217477   3.081   4.278   3.727  0.2068  0.1847  0.0881
 5824TIP3    H117478   3.153   4.218   3.747 -0.3128 -0.1760  0.9150
 5824TIP3    H217479   3.092   4.351   3.789  0.6617  0.8211 -0.7132
 5825TIP3   OH217480   0.366   1.644   0.221  0.2478  0.0714 -0.7658
 5825TIP3    H117481   0.401   1.603   0.142 -1.0348 -0.3025 -1.1714
 5825TIP3    H217482   0.432   1.628   0.288  1.0199 -0.2464 -1.5890
 5826TIP3   OH217483   3.240   0.132   3.013 -0.1053  0.0498  0.5632
 5826TIP3    H117484   3.306   0.072   2.977  0.0407  0.7264 -0.3559
 5826TIP3    H217485   3.157   0.093   2.989 -0.0204  0.9832 -1.5008
 5827TIP3   OH217486   1.409   5.742   5.076 -0.3418 -0.4601 -0.3111
 5827TIP3    H117487   1.488   5.794   5.090 -0.8590  0.0564  0.8276
 5827TIP3    H217488   1.362   5.787   5.006 -0.2806  0.0199 -0.0484
 5828TIP3   OH217489   0.233   5.956   2.290 -0.4507  0.8295  0.0125
 5828TIP3    H117490   0.204   6.036   2.247 -0.3559  1.0858  0.4163
 5828TIP3    H217491   0.328   5.964   2.295 -0.4604  0.8080  0.2703
 5829TIP3   OH217492   4.195   1.744   4.866  0.7057  0.2384 -0.1691
 5829TIP3    H117493   4.173   1.837   4.880 -0.0547  0.2725 -1.4753
 5829TIP3    H217494   4.277   1.746   4.818 -0.2081  0.3065 -1.7843
 5830TIP3   OH217495   2.907   4.463   3.342  0.3800 -0.1589  0.0663
 5830TIP3    H117496   2.927   4.428   3.255 -0.7451 -0.4819 -0.0828
 5830TIP3    H217497   2.990   4.499   3.373  0.7559  0.1490 -1.2217
 5831TIP3   OH217498   2.395   5.813   0.801  0.0723  0.0485 -0.0546
 5831TIP3    H117499   2.366   5.855   0.882 -1.2023 -0.3456 -0.2798
 5831TIP3    H217500   2.314   5.782   0.760  0.8159 -0.9632 -0.8078
 5832TIP3   OH217501   1.680   4.358   1.978  0.0606  0.0425  0.1036
 5832TIP3    H117502   1.743   4.427   1.954 -0.0408  0.4196  0.9120
 5832TIP3    H217503   1.713   4.280   1.934  0.9678  0.2875  0.3288
 5833TIP3   OH217504   3.919   0.980   4.774 -0.0684 -0.5422  0.1332
 5833TIP3    H117505   3.983   1.021   4.715 -0.9632 -1.5428 -1.6313
 5833TIP3    H217506   3.837   1.025   4.754 -0.1960 -0.1929  1.4004
 5834TIP3   OH217507   5.250   2.875   2.487  0.0005  0.0060  0.0489
 5834TIP3    H117508   5.342   2.883   2.462 -0.1249  0.7714 -0.2155
 5834TIP3    H217509   5.242   2.930   2.566  0.0269 -1.0288  0.7874
 5835TIP3   OH217510   2.565   3.938   3.337 -0.3328  0.7637  0.0137
 5835TIP3    H117511   2.604   3.893   3.262 -1.1215 -0.3172  0.2392
 5835TIP3    H217512   2.611   3.903   3.413  0.5761  1.9729  0.0585
 5836TIP3   OH217513   2.818   5.519   4.248  0.4672  0.2945 -0.5476
 5836TIP3    H117514   2.790   5.610   4.245 -0.7069 -0.0239 -0.0980
 5836TIP3    H217515   2.889   5.517   4.312 -0.9636  0.5575  1.1232
 5837TIP3   OH217516   0.314   3.472   2.003 -0.0848 -0.4972 -0.4197
 5837TIP3    H117517   0.332   3.485   2.096  1.6788 -1.7291 -0.5312
 5837TIP3    H217518   0.230   3.516   1.988 -1.0810 -1.3857  2.0286
 5838TIP3   OH217519   2.552   2.334   4.615 -0.5882 -0.5750  0.2955
 5838TIP3    H117520   2.594   2.261   4.570 -1.7489 -0.3877 -1.1572
 5838TIP3    H217521   2.603   2.411   4.590  0.0265 -0.7261  1.0244
 5839TIP3   OH217522   2.093   2.003   0.910  0.0130 -0.4109  0.2497
 5839TIP3    H117523   2.025   1.939   0.930 -0.4516 -0.7046 -2.0043
 5839TIP3    H217524   2.125   1.978   0.823 -0.8743  2.9273 -1.2054
 5840TIP3   OH217525   5.536   2.942   2.473  0.2663 -0.1973  0.0913
 5840TIP3    H117526   5.598   2.978   2.536  0.2951 -0.6842  0.3449
 5840TIP3    H217527   5.565   2.977   2.388  0.6081 -0.0526  0.2672
 5841TIP3   OH217528   2.793   4.429   0.795 -0.0850  0.3878  0.0045
 5841TIP3    H117529   2.735   4.433   0.719  1.6139 -0.3747 -1.3939
 5841TIP3    H217530   2.794   4.519   0.830 -0.4598  0.8799 -1.2209
 5842TIP3   OH217531   1.370   0.660   2.276  0.2682 -0.3186 -0.1738
 5842TIP3    H117532   1.275   0.651   2.273  0.4053 -1.7275 -0.7729
 5842TIP3    H217533   1.403   0.589   2.221  1.6728  0.1075  0.0824
 5843TIP3   OH217534   0.751   1.182   1.208 -0.1674  0.1767 -0.7738
 5843TIP3    H117535   0.723   1.133   1.131 -1.1682  1.6066 -1.3680
 5843TIP3    H217536   0.675   1.235   1.232  0.3432  0.2528  0.8191
 5844TIP3   OH217537   2.459   3.340   2.891 -0.1107  0.4388  0.1296
 5844TIP3    H117538   2.473   3.406   2.823 -1.0176  1.4671  0.8977
 5844TIP3    H217539   2.398   3.278   2.852 -0.2081  0.7248 -0.1782
 5845TIP3   OH217540   4.767   0.867   2.842  0.1860  0.2130  0.1032
 5845TIP3    H117541   4.700   0.863   2.773  0.2368  1.6697 -0.0589
 5845TIP3    H217542   4.749   0.949   2.888  1.4629  0.3073  0.4730
 5846TIP3   OH217543   0.966   3.717   3.005 -0.0556  0.6624 -0.3272
 5846TIP3    H117544   0.896   3.729   3.069  0.9751  1.4384  0.6905
 5846TIP3    H217545   0.920   3.698   2.923 -1.3994 -0.9358  0.7240
 5847TIP3   OH217546   1.312   1.329   3.291  0.1202  0.2725  0.7498
 5847TIP3    H117547   1.255   1.253   3.280  0.4669  0.1245 -0.0735
 5847TIP3    H217548   1.284   1.390   3.223  0.1382  0.7001  1.1242
 5848TIP3   OH217549   0.977   0.897   1.899  0.2790  0.1995 -0.0321
 5848TIP3    H117550   0.925   0.823   1.931  1.5822  0.0251  1.8415
 5848TIP3    H217551   1.061   0.858   1.873 -0.1120  0.6113 -2.0613
 5849TIP3   OH217552   5.565   3.124   3.306  0.1459 -0.0543 -0.1466
 5849TIP3    H117553   5.620   3.193   3.271 -0.6169 -0.0828 -1.4380
 5849TIP3    H217554   5.506   3.168   3.367 -2.3585  1.0617 -3.1151
 5850TIP3   OH217555   1.306   4.493   2.763 -0.1612  0.9208  0.0589
 5850TIP3    H117556   1.267   4.418   2.807  1.2871 -0.4924 -0.9535
 5850TIP3    H217557   1.343   4.546   2.833  0.0283 -0.0438  0.7013
 5851TIP3   OH217558   1.642   4.408   4.829 -0.6402  0.1263 -0.7962
 5851TIP3    H117559   1.636   4.363   4.913  0.1852 -0.8167 -1.2075
 5851TIP3    H217560   1.628   4.500   4.849 -3.4598 -0.3822 -0.0668
 5852TIP3   OH217561   5.685   4.662   3.301  0.0438 -0.0426 -0.0883
 5852TIP3    H117562   5.767   4.685   3.256  1.4781  0.2425  2.4683
 5852TIP3    H217563   5.672   4.570   3.280  2.9247 -1.0768  2.0135
 5853TIP3   OH217564   1.628   1.069   3.058  0.2356 -0.0927 -0.4533
 5853TIP3    H117565   1.563   1.016   3.012 -1.8469  0.0670  2.0406
 5853TIP3    H217566   1.588   1.086   3.143  2.8431  1.5723  0.5512
 5854TIP3   OH217567   5.805   0.097   5.036  0.0305 -0.2080 -0.0414
 5854TIP3    H117568   5.711   0.083   5.030  0.1066 -0.1856 -1.8729
 5854TIP3    H217569   5.844   0.024   4.989  0.9886 -0.6523  1.3841
 5855TIP3   OH217570   2.255   1.673   2.933 -0.0085  0.0676  0.4647
 5855TIP3    H117571   2.180   1.638   2.982  0.1908 -0.4102  0.4362
 5855TIP3    H217572   2.313   1.597   2.921  0.6428  0.5077  0.7957
 5856TIP3   OH217573   0.422   3.959   1.814  0.4390 -1.0459 -0.1279
 5856TIP3    H117574   0.337   3.920   1.832 -0.5728 -0.6683 -3.4308
 5856TIP3    H217575   0.483   3.885   1.815 -0.5869 -1.9412 -1.3011
 5857TIP3   OH217576   0.726   2.966   3.309 -0.2399  0.0289 -0.1156
 5857TIP3    H117577   0.710   2.950   3.401  0.1377 -0.9036 -0.2041
 5857TIP3    H217578   0.819   2.988   3.304 -0.5275  1.3272 -0.1254
 5858TIP3   OH217579   4.074   0.769   4.191  0.1618 -0.9263 -0.0810
 5858TIP3    H117580   4.029   0.771   4.276  0.0208 -0.8392 -0.1572
 5858TIP3    H217581   4.014   0.814   4.131  0.7559 -0.0048  0.0021
 5859TIP3   OH217582   2.736   4.188   4.659  0.6601 -0.3124 -0.0024
 5859TIP3    H117583   2.768   4.189   4.749  3.0207 -2.9085 -0.6732
 5859TIP3    H217584   2.759   4.101   4.626 -2.5246 -0.4538 -2.3523
 5860TIP3   OH217585   3.506   4.703   0.688  0.3384  0.2851  0.2958
 5860TIP3    H117586   3.535   4.762   0.619 -1.4708  0.6381 -0.2311
 5860TIP3    H217587   3.490   4.760   0.763  0.1543  0.2362  0.2951
 5861TIP3   OH217588   1.470   0.969   1.200 -0.1055 -0.1297 -0.2716
 5861TIP3    H117589   1.477   0.979   1.295 -0.5012 -0.5880 -0.1960
 5861TIP3    H217590   1.474   0.875   1.185 -0.1650 -0.0648 -0.7022
 5862TIP3   OH217591   0.940   2.551   3.954 -0.4244 -0.1319  0.0245
 5862TIP3    H117592   0.959   2.517   3.867  1.0538  1.0104 -0.1455
 5862TIP3    H217593   0.862   2.606   3.942 -2.0559 -2.2951  0.0642
 5863TIP3   OH217594   3.360   2.940   3.428 -0.5887  0.3249 -0.5608
 5863TIP3    H117595   3.396   2.863   3.384  2.0783  2.0480 -1.6310
 5863TIP3    H217596   3.381   2.927   3.520 -0.1052 -0.1987 -0.7402
 5864TIP3   OH217597   6.175   0.812   4.054 -0.2546 -0.6156 -0.0571
 5864TIP3    H117598   6.122   0.748   4.007 -0.6490 -0.3716  0.0506
 5864TIP3    H217599   6.155   0.895   4.011  1.0597 -0.6930 -0.9049
 5865TIP3   OH217600   4.001   5.753   3.858 -0.4606  0.1337 -0.4183
 5865TIP3    H117601   4.054   5.691   3.807 -1.5478 -1.2821  0.1020
 5865TIP3    H217602   3.998   5.715   3.945 -0.2077  1.5533  0.2352
 5866TIP3   OH217603   4.371   2.569   1.053  0.0985  0.0807 -0.0051
 5866TIP3    H117604   4.325   2.623   1.117 -1.6907  0.0873 -1.2276
 5866TIP3    H217605   4.410   2.632   0.993 -2.0103  0.1028 -1.4461
 5867TIP3   OH217606   2.791   3.640   1.107 -0.2653  0.1935 -0.3493
 5867TIP3    H117607   2.886   3.652   1.099  0.0864 -0.8011  1.6371
 5867TIP3    H217608   2.759   3.640   1.017  1.5905  0.7413 -1.0546
 5868TIP3   OH217609   3.161   3.793   4.710  0.2396 -0.5044 -0.1669
 5868TIP3    H117610   3.222   3.849   4.758 -0.1962 -0.1175 -0.0603
 5868TIP3    H217611   3.215   3.752   4.642  0.5819 -0.0236 -0.1901
 5869TIP3   OH217612   2.763   3.031   3.781  0.5226 -0.0725 -0.4818
 5869TIP3    H117613   2.739   2.990   3.864  2.0404 -0.2670 -0.1184
 5869TIP3    H217614   2.712   3.111   3.778 -1.6224 -1.3588 -0.6522
 5870TIP3   OH217615   1.981   5.380   0.114 -0.1260 -0.6781  0.1451
 5870TIP3    H117616   2.072   5.393   0.141  0.8342 -0.0170 -2.9184
 5870TIP3    H217617   1.934   5.454   0.153  1.4226  1.0385 -1.0409
 5871TIP3   OH217618   3.124   4.493   4.600 -0.6039 -0.0393 -0.3677
 5871TIP3    H117619   3.069   4.417   4.580 -0.2982 -0.0814 -1.0566
 5871TIP3    H217620   3.200   4.484   4.542 -1.1328  1.4193 -1.3423
 5872TIP3   OH217621   6.211   3.612   3.057  0.1346 -0.9135  0.0421
 5872TIP3    H117622   6.282   3.569   3.106  0.9576  0.4844  0.1513
 5872TIP3    H217623   6.221   3.705   3.079 -1.1629 -0.5806 -0.6963
 5873TIP3   OH217624   0.783   1.984   4.638  0.6626  0.0593  0.2075
 5873TIP3    H117625   0.872   1.952   4.646  1.1949  1.1834 -0.8648
 5873TIP3    H217626   0.746   1.935   4.564  1.0529  0.9441 -0.5980
 5874TIP3   OH217627   4.347   1.106   0.246  0.5739  0.2687 -0.5435
 5874TIP3    H117628   4.315   1.182   0.197 -0.0080 -1.5757 -3.2666
 5874TIP3    H217629   4.443   1.110   0.237  0.6619  1.4987  0.7221
 5875TIP3   OH217630   5.730   5.422   0.878 -0.2005 -0.0422 -0.7301
 5875TIP3    H117631   5.790   5.484   0.920 -0.2854  0.8342 -1.8619
 5875TIP3    H217632   5.739   5.342   0.929  1.0632  0.4280 -0.1717
 5876TIP3   OH217633   6.133   0.475   0.890  0.7465 -0.2672  0.3905
 5876TIP3    H117634   6.193   0.487   0.963 -0.2899  2.6513  0.8992
 5876TIP3    H217635   6.173   0.523   0.817  1.1594 -2.1003 -0.6479
 5877TIP3   OH217636   5.414   4.111   4.366 -0.1257 -0.9566  0.3377
 5877TIP3    H117637   5.444   4.202   4.372 -0.0342 -0.7726 -2.0638
 5877TIP3    H217638   5.490   4.059   4.393  0.5937 -0.3622 -0.4965
 5878TIP3   OH217639   4.013   2.870   0.533 -0.2494  0.3122 -0.1559
 5878TIP3    H117640   4.018   2.889   0.626  0.0696  0.5878 -0.2257
 5878TIP3    H217641   4.105   2.868   0.504 -0.1949 -1.9946 -0.0353
 5879TIP3   OH217642   2.269   5.933   3.775 -0.0930 -0.2529 -0.3192
 5879TIP3    H117643   2.359   5.917   3.803  0.0404  0.2861 -0.4294
 5879TIP3    H217644   2.218   5.865   3.820  0.1390  0.4720  1.1110
 5880TIP3   OH217645   6.003   3.031   1.541  0.0724  0.3596 -0.3449
 5880TIP3    H117646   6.015   2.991   1.454 -2.9835  1.2621 -1.3312
 5880TIP3    H217647   6.083   3.081   1.556  2.1291 -2.4629 -1.0606
 5881TIP3   OH217648   3.426   3.465   4.677 -0.2059 -0.0117 -0.3303
 5881TIP3    H117649   3.397   3.373   4.676  1.7974 -0.7028 -1.5250
 5881TIP3    H217650   3.504   3.464   4.734  1.0237  0.4857 -1.9204
 5882TIP3   OH217651   4.638   5.143   3.655  0.0602 -0.1181  0.0015
 5882TIP3    H117652   4.683   5.059   3.657  0.4411 -0.0152 -1.8651
 5882TIP3    H217653   4.697   5.201   3.606 -0.8803  0.7853 -0.1158
 5883TIP3   OH217654   2.853   2.965   4.066 -0.0680  0.3048  0.1522
 5883TIP3    H117655   2.827   2.888   4.118 -0.2747  1.0656  1.2150
 5883TIP3    H217656   2.824   3.040   4.119  1.2295  1.1353 -0.2774
 5884TIP3   OH217657   2.975   5.162   1.179 -0.5736  0.0783  0.2915
 5884TIP3    H117658   2.891   5.192   1.215 -0.9716 -2.4791  1.6977
 5884TIP3    H217659   3.040   5.216   1.224 -1.2022 -1.6324  3.5153
 5885TIP3   OH217660   5.445   2.924   1.822 -0.1503 -0.8122 -0.6635
 5885TIP3    H117661   5.502   2.976   1.879  0.2607 -1.7070 -0.2373
 5885TIP3    H217662   5.495   2.913   1.741 -0.2361 -0.5667 -0.7530
 5886TIP3   OH217663   3.994   1.681   3.599 -0.7439 -0.1189 -0.1563
 5886TIP3    H117664   3.961   1.659   3.686 -0.7460 -0.0982 -0.1519
 5886TIP3    H217665   3.915   1.702   3.549 -0.9299 -1.7846 -0.6450
 5887TIP3   OH217666   0.576   5.276   2.378  0.2150  0.1869  0.5424
 5887TIP3    H117667   0.533   5.215   2.318  2.1360  2.1835 -3.2361
 5887TIP3    H217668   0.669   5.251   2.375  0.7330  1.9848  0.5256
 5888TIP3   OH217669   3.578   0.252   0.782  0.0734 -0.3195 -0.1130
 5888TIP3    H117670   3.619   0.288   0.860 -3.0495 -2.2550  2.6624
 5888TIP3    H217671   3.530   0.326   0.744  0.2869  0.2585  0.7219
 5889TIP3   OH217672   0.030   4.937   1.009 -0.3986 -0.6562  0.0661
 5889TIP3    H117673   0.119   4.907   0.992 -0.2007  0.2127 -0.5168
 5889TIP3    H217674   0.038   5.033   1.013 -1.4762 -0.4986 -1.0520
 5890TIP3   OH217675   1.919   1.848   3.193 -0.0884  0.3530 -0.8392
 5890TIP3    H117676   1.909   1.830   3.287  1.6094 -1.1916 -0.9125
 5890TIP3    H217677   1.847   1.800   3.153 -1.7923  2.2901 -0.2758
 5891TIP3   OH217678   2.004   5.627   1.201  0.4591 -0.0281  0.2149
 5891TIP3    H117679   1.961   5.685   1.264  0.0461 -0.7919  0.6521
 5891TIP3    H217680   1.992   5.671   1.117  0.5780  0.7571  0.5978
 5892TIP3   OH217681   3.374   0.583   5.151  0.0557 -0.2919 -0.0088
 5892TIP3    H117682   3.377   0.495   5.189  0.2512 -0.1432  0.3256
 5892TIP3    H217683   3.441   0.632   5.198  2.0010 -0.7157 -2.1339
 5893TIP3   OH217684   4.344   3.538   4.233 -0.1408 -0.2528  0.2923
 5893TIP3    H117685   4.359   3.568   4.323  0.0622  2.2077 -0.4943
 5893TIP3    H217686   4.427   3.499   4.206 -0.1214 -0.7663  1.0592
 5894TIP3   OH217687   5.285   5.020   4.069 -0.3950 -0.8908 -0.3496
 5894TIP3    H117688   5.283   5.087   4.138  3.0280 -0.7134 -0.2346
 5894TIP3    H217689   5.256   5.067   3.990  2.6135  1.1825 -0.4382
 5895TIP3   OH217690   3.909   1.485   1.036 -0.1630  0.4615 -0.0118
 5895TIP3    H117691   3.909   1.395   1.069  0.5361  0.0609 -1.0535
 5895TIP3    H217692   3.957   1.534   1.102  1.6272 -0.4159 -0.5871
 5896TIP3   OH217693   0.643   4.408   1.041  0.1281 -0.1009  0.2217
 5896TIP3    H117694   0.629   4.472   1.112  2.6405  1.3600 -0.4817
 5896TIP3    H217695   0.586   4.439   0.970  0.4930  0.7383  0.2764
 5897TIP3   OH217696   2.482   0.504   2.456  0.1620 -0.5072 -0.3536
 5897TIP3    H117697   2.436   0.506   2.540  0.7941 -1.6110  0.0308
 5897TIP3    H217698   2.564   0.458   2.474  0.0422 -1.3026 -1.7052
 5898TIP3   OH217699   3.029   0.592   1.532 -0.2506  0.7466  0.3370
 5898TIP3    H117700   3.066   0.645   1.602  0.4166 -0.5933  1.0278
 5898TIP3    H217701   3.040   0.646   1.453  2.2673  0.8417  0.6689
 5899TIP3   OH217702   1.876   5.564   1.928 -0.0725  0.5715 -0.9665
 5899TIP3    H117703   1.929   5.561   2.007 -2.1160 -0.0741  0.4440
 5899TIP3    H217704   1.932   5.525   1.860  1.6306  0.9155  0.1684
 5900TIP3   OH217705   4.533   1.527   3.178 -0.2572  1.0265  0.2549
 5900TIP3    H117706   4.512   1.444   3.220 -1.1819  1.4722  0.7225
 5900TIP3    H217707   4.465   1.587   3.209  0.4014  1.9625 -0.0568
 5901TIP3   OH217708   1.733   2.334   2.668 -0.0349  0.7957 -0.0488
 5901TIP3    H117709   1.731   2.375   2.581  2.7755 -0.3849 -0.7630
 5901TIP3    H217710   1.641   2.334   2.696 -0.7742  3.0631 -2.1016
 5902TIP3   OH217711   2.432   5.954   2.282  0.7494 -0.1112 -0.1929
 5902TIP3    H117712   2.440   6.018   2.211  1.0425 -1.2717 -1.2400
 5902TIP3    H217713   2.357   5.984   2.333  1.1777  1.3306 -0.3625
 5903TIP3   OH217714   0.952   3.634   0.281 -0.1243  0.4247 -0.5301
 5903TIP3    H117715   0.913   3.573   0.344 -0.3426  1.9067  0.8234
 5903TIP3    H217716   0.960   3.716   0.328  1.4086  1.1257 -1.8852
 5904TIP3   OH217717   5.445   4.653   2.718 -0.4769 -0.0217 -0.0105
 5904TIP3    H117718   5.410   4.624   2.803  0.1288 -1.0962 -0.1154
 5904TIP3    H217719   5.510   4.587   2.695  1.4090  1.7389  0.0121
 5905TIP3   OH217720   3.810   4.985   0.231 -0.3143 -0.7109  0.4913
 5905TIP3    H117721   3.758   4.946   0.160 -1.3311  1.1748  0.1232
 5905TIP3    H217722   3.893   4.937   0.229 -0.7592 -1.5132 -1.1879
 5906TIP3   OH217723   2.316   0.297   2.901  0.1355 -0.0166 -0.5301
 5906TIP3    H117724   2.227   0.278   2.929  0.2438  1.0697  0.6043
 5906TIP3    H217725   2.370   0.281   2.978  0.7961  0.3638 -0.8972
 5907TIP3   OH217726   0.010   0.395   0.608 -0.7179  0.0541  0.0166
 5907TIP3    H117727   0.069   0.382   0.682 -2.6052  0.7028  1.7063
 5907TIP3    H217728  -0.058   0.329   0.620 -0.6116 -0.4222 -1.6771
 5908TIP3   OH217729   5.425   1.621   4.738 -0.3836  0.7017  0.3195
 5908TIP3    H117730   5.496   1.577   4.690  0.9130 -0.7439  3.2864
 5908TIP3    H217731   5.424   1.710   4.704  0.5368 -0.1635 -2.1757
 5909TIP3   OH217732   3.359   1.077   4.640  0.6159 -0.0640 -0.3552
 5909TIP3    H117733   3.389   1.126   4.564 -0.9351  0.6850 -0.5175
 5909TIP3    H217734   3.330   1.144   4.702  0.8279 -0.7034  0.4574
 5910TIP3   OH217735   4.414   4.658   1.119  0.1749  0.5314  0.0482
 5910TIP3    H117736   4.467   4.736   1.129 -0.0614  0.6778  0.1744
 5910TIP3    H217737   4.408   4.645   1.024 -1.4603  1.8338 -0.0714
 5911TIP3   OH217738   2.512   0.851   0.388 -0.3678  0.2107  0.0955
 5911TIP3    H117739   2.527   0.780   0.326  0.8914  0.1499  0.4369
 5911TIP3    H217740   2.454   0.912   0.342  0.9129  0.4075 -1.3446
 5912TIP3   OH217741   0.505   2.302   2.335  0.0775  0.5334 -0.3972
 5912TIP3    H117742   0.436   2.357   2.372 -0.8704 -0.5991 -0.4224
 5912TIP3    H217743   0.462   2.255   2.264  0.9228 -0.0672 -0.5158
 5913TIP3   OH217744   1.961   1.879   4.980 -0.8229  0.4296  0.1648
 5913TIP3    H117745   1.900   1.927   5.036 -0.7172  0.9822 -0.1879
 5913TIP3    H217746   1.990   1.943   4.916  1.4580  0.6563  1.3367
 5914TIP3   OH217747   0.574   3.591   4.215  0.0665 -0.2441  0.1033
 5914TIP3    H117748   0.668   3.605   4.219  0.1866 -1.0492  0.1820
 5914TIP3    H217749   0.551   3.557   4.302 -0.2365 -0.4370 -0.0506
 5915TIP3   OH217750   3.776   0.248   0.322 -0.5852 -0.1261 -0.2982
 5915TIP3    H117751   3.706   0.313   0.330 -0.7715 -0.2415 -0.9490
 5915TIP3    H217752   3.782   0.209   0.409 -0.0577  1.1756  0.2755
 5916TIP3   OH217753   5.374   4.318   1.877 -0.0883 -0.1939  0.7326
 5916TIP3    H117754   5.348   4.227   1.866  1.0962 -0.5806  1.0477
 5916TIP3    H217755   5.420   4.340   1.796  0.6146 -0.2303  1.1131
 5917TIP3   OH217756   4.680   1.268   0.277 -0.1587 -0.3804  0.2303
 5917TIP3    H117757   4.664   1.362   0.268 -0.9662 -0.5552 -0.2256
 5917TIP3    H217758   4.743   1.261   0.350 -0.4239  0.4827  0.5476
 5918TIP3   OH217759   3.494   4.581   0.377 -0.2887 -0.1416  0.1482
 5918TIP3    H117760   3.401   4.569   0.398 -0.0883 -0.3218  0.9674
 5918TIP3    H217761   3.540   4.553   0.456  0.5203 -1.1377 -0.6371
 5919TIP3   OH217762   2.761   1.623   1.710 -0.8321  0.5050  0.1904
 5919TIP3    H117763   2.670   1.647   1.693 -1.1689 -0.1730  1.0182
 5919TIP3    H217764   2.789   1.682   1.780 -1.6768 -1.4169  2.2684
 5920TIP3   OH217765   0.396   5.449   0.655 -0.0036  0.1904  0.3546
 5920TIP3    H117766   0.320   5.507   0.662 -2.4317 -2.6891 -0.0866
 5920TIP3    H217767   0.381   5.383   0.723  1.3309 -1.2854 -0.7288
 5921TIP3   OH217768   0.964   5.085   0.662 -0.2345 -0.3121 -0.1192
 5921TIP3    H117769   0.998   5.140   0.592 -0.3045 -0.6696 -0.4340
 5921TIP3    H217770   0.916   5.015   0.617  0.6721 -1.1795  0.2469
 5922TIP3   OH217771   6.131   4.849   1.126  0.0326 -0.2859 -0.7902
 5922TIP3    H117772   6.208   4.902   1.104 -0.7259  1.8593  1.3418
 5922TIP3    H217773   6.165   4.760   1.135  2.4111  0.6814  0.6672
 5923TIP3   OH217774   1.374   3.896   0.648  0.4280  0.2852  0.0892
 5923TIP3    H117775   1.466   3.902   0.677  0.1052  2.0891  0.8734
 5923TIP3    H217776   1.323   3.915   0.727 -0.5659  1.6056 -0.8342
 5924TIP3   OH217777   3.426   3.843   4.539  0.4080 -0.1796 -0.0097
 5924TIP3    H117778   3.430   3.756   4.500  0.9335 -0.3644  0.4410
 5924TIP3    H217779   3.475   3.835   4.620  1.8348  0.9210 -0.7125
 5925TIP3   OH217780   3.082   3.676   2.143 -0.2402  0.1364 -0.0548
 5925TIP3    H117781   3.032   3.730   2.205  0.5844  1.0751 -0.1864
 5925TIP3    H217782   3.114   3.603   2.195  0.0052  0.6422  0.5177
 5926TIP3   OH217783   5.471   1.424   4.344 -0.4938  0.2990  0.3811
 5926TIP3    H117784   5.562   1.438   4.317 -0.6492 -3.4067 -3.0070
 5926TIP3    H217785   5.476   1.352   4.408 -1.0381 -0.9701 -0.9498
 5927TIP3   OH217786   2.064   5.842   4.591  0.0432 -0.1241  0.1544
 5927TIP3    H117787   2.027   5.918   4.636 -0.4807 -0.9264  1.1254
 5927TIP3    H217788   2.112   5.879   4.517  0.2545  1.1875  0.9135
 5928TIP3   OH217789   0.453   3.482   4.508 -0.1082  0.1199  0.4586
 5928TIP3    H117790   0.424   3.414   4.569 -0.5614  1.9218  2.3521
 5928TIP3    H217791   0.384   3.548   4.511  0.1831  0.5797 -1.5562
 5929TIP3   OH217792   5.213   3.184   2.992  0.1780 -0.2255 -0.2066
 5929TIP3    H117793   5.303   3.216   2.990 -0.7014  2.5900  0.1572
 5929TIP3    H217794   5.166   3.242   2.933 -1.3954 -1.7835 -0.5698
 5930TIP3   OH217795   4.675   3.026   2.620  0.0353 -0.1046 -0.2431
 5930TIP3    H117796   4.658   3.115   2.590 -2.1684 -0.5234 -0.3507
 5930TIP3    H217797   4.647   2.970   2.547  1.5851 -0.9269 -0.2648
 5931TIP3   OH217798   1.289   4.091   2.811  0.2927  0.2298  0.0360
 5931TIP3    H117799   1.346   4.051   2.745  0.2689  0.4016 -0.0921
 5931TIP3    H217800   1.201   4.065   2.785  0.4328 -1.7721  1.4285
 5932TIP3   OH217801   3.280   5.462   2.398 -0.2481 -0.2968  0.2356
 5932TIP3    H117802   3.229   5.515   2.337 -0.5449  0.7910  1.3923
 5932TIP3    H217803   3.320   5.525   2.458  1.4588 -1.2101  0.1304
 5933TIP3   OH217804   3.619   2.190   3.782  0.0698  0.6002  0.0511
 5933TIP3    H117805   3.690   2.236   3.737  1.5051 -1.5337  0.0027
 5933TIP3    H217806   3.605   2.112   3.729 -0.8905 -0.0359  1.2245
 5934TIP3   OH217807   5.404   2.478   4.508 -0.0396  0.2698  0.0904
 5934TIP3    H117808   5.342   2.511   4.573  0.2825  2.1069 -0.4723
 5934TIP3    H217809   5.484   2.528   4.524 -0.6212  2.5477 -3.1314
 5935TIP3   OH217810   1.487   1.446   1.730  0.0199 -0.4815 -0.1879
 5935TIP3    H117811   1.419   1.400   1.681 -0.1453 -0.2083 -0.2137
 5935TIP3    H217812   1.568   1.424   1.684  0.1655 -2.1179  0.7703
 5936TIP3   OH217813   6.134   2.027   4.217  0.2083  0.5537 -0.4226
 5936TIP3    H117814   6.058   2.061   4.172 -1.4114 -2.1178  0.0714
 5936TIP3    H217815   6.180   2.105   4.249 -1.3978  2.3010 -2.1226
 5937TIP3   OH217816   0.392   0.841   4.106  0.5566  0.4856 -0.2819
 5937TIP3    H117817   0.475   0.888   4.114  0.9653 -0.3821  0.8139
 5937TIP3    H217818   0.330   0.891   4.158  1.4393 -1.1107  2.5178
 5938TIP3   OH217819   4.930   4.472   2.608  0.1159 -0.0925  0.2958
 5938TIP3    H117820   4.967   4.388   2.581 -0.6478 -1.0279  1.9879
 5938TIP3    H217821   5.002   4.534   2.598  0.3406 -0.6471 -2.1646
 5939TIP3   OH217822   2.499   1.713   1.740  0.4467  0.4290  0.2022
 5939TIP3    H117823   2.413   1.681   1.767  1.1822 -0.7593  1.2250
 5939TIP3    H217824   2.496   1.807   1.755 -0.7495  0.4323  0.0093
 5940TIP3   OH217825   5.758   5.440   1.644 -0.3009  0.3321 -0.7061
 5940TIP3    H117826   5.750   5.376   1.573  0.5181 -0.5616 -0.0330
 5940TIP3    H217827   5.793   5.518   1.603 -1.7117  0.5077 -1.6279
 5941TIP3   OH217828   5.125   4.821   1.178 -0.6987  0.3044 -0.5969
 5941TIP3    H117829   5.077   4.792   1.255 -0.2771 -0.7265 -0.7007
 5941TIP3    H217830   5.205   4.860   1.214 -1.1803  1.2113 -0.4657
 5942TIP3   OH217831   2.069   5.237   4.625  0.1956  0.4934  0.1685
 5942TIP3    H117832   2.155   5.271   4.601 -0.0474  1.0452  0.0752
 5942TIP3    H217833   2.087   5.148   4.657  0.6223  0.0705 -1.1790
 5943TIP3   OH217834   1.034   2.421   2.206  0.3226  0.2274  0.3731
 5943TIP3    H117835   0.946   2.385   2.214  0.5877 -0.4524  0.2752
 5943TIP3    H217836   1.023   2.497   2.148  0.2054 -1.4469 -1.9644
 5944TIP3   OH217837   0.736   3.278   0.125 -0.4591  0.2873 -0.4168
 5944TIP3    H117838   0.761   3.371   0.131 -0.3239  0.3430 -1.6107
 5944TIP3    H217839   0.644   3.276   0.149 -0.4093  0.6938 -0.1791
 5945TIP3   OH217840   4.295   2.816   0.500 -0.2511 -0.2428  0.2558
 5945TIP3    H117841   4.344   2.769   0.568 -0.1229 -1.4487 -0.6236
 5945TIP3    H217842   4.362   2.863   0.451  0.0560 -1.6721 -0.7757
 5946TIP3   OH217843   1.046   3.066   1.684  0.1933  0.0884  0.0572
 5946TIP3    H117844   1.095   3.034   1.609  0.7765  1.5525 -0.2255
 5946TIP3    H217845   1.113   3.091   1.748 -0.2596 -3.2860  2.1418
 5947TIP3   OH217846   5.955   4.251   1.475 -0.1088  0.8377 -0.1033
 5947TIP3    H117847   6.032   4.238   1.530 -0.5722 -1.0885  0.1964
 5947TIP3    H217848   5.881   4.236   1.535 -0.6537  0.3800 -0.8716
 5948TIP3   OH217849   1.484   3.972   4.952  0.1137  0.0572  1.0215
 5948TIP3    H117850   1.515   4.000   5.037 -1.5269 -0.8579  1.9855
 5948TIP3    H217851   1.433   4.046   4.919 -0.9080 -0.2901  1.7655
 5949TIP3   OH217852   2.649   0.739   3.199  0.1640  0.0561  0.6899
 5949TIP3    H117853   2.732   0.704   3.232  1.2049  0.1940 -1.5624
 5949TIP3    H217854   2.653   0.833   3.218  1.5794  0.4653 -1.2338
 5950TIP3   OH217855   3.515   0.787   2.937  0.0532  0.9114 -0.1167
 5950TIP3    H117856   3.579   0.846   2.897  0.4507  0.0336 -0.7926
 5950TIP3    H217857   3.541   0.783   3.029  1.4980 -0.0551 -0.5180
 5951TIP3   OH217858   2.044   2.977   0.031 -0.0446 -0.8897  0.8223
 5951TIP3    H117859   1.975   3.023  -0.017 -0.1785 -2.0265 -0.1175
 5951TIP3    H217860   2.018   2.983   0.123  0.6260  2.0410  0.9019
 5952TIP3   OH217861   2.856   2.124   0.410  0.3024 -0.1221  0.2484
 5952TIP3    H117862   2.843   2.119   0.504  1.1244 -1.2506  0.3148
 5952TIP3    H217863   2.786   2.072   0.372  0.4805 -0.3798  0.2744
 5953TIP3   OH217864   2.101   4.989   1.465  0.0452  0.3259 -0.3620
 5953TIP3    H117865   2.032   4.923   1.475  0.4234 -0.0651 -0.3403
 5953TIP3    H217866   2.070   5.045   1.394  0.7156 -1.1505 -1.8935
 5954TIP3   OH217867   2.593   3.160   0.308  0.1942 -0.4243 -0.0121
 5954TIP3    H117868   2.633   3.074   0.295 -0.8105 -1.0586  0.9245
 5954TIP3    H217869   2.653   3.221   0.265  0.8704 -1.5960 -0.7949
 5955TIP3   OH217870   6.099   4.713   4.610 -0.1163 -0.0378 -0.1699
 5955TIP3    H117871   6.184   4.686   4.644  0.0148  0.9011  0.2808
 5955TIP3    H217872   6.119   4.784   4.549 -0.6907  1.8584  1.7115
 5956TIP3   OH217873   6.365   2.989   1.841  0.2238  0.0369  0.0943
 5956TIP3    H117874   6.302   2.940   1.788  1.4887 -0.9054 -0.6264
 5956TIP3    H217875   6.314   3.058   1.882 -1.7084 -1.9178  1.2391
 5957TIP3   OH217876   1.938   5.881   4.315 -0.4603 -0.5368  0.4358
 5957TIP3    H117877   1.984   5.854   4.235 -0.0954  1.4467 -0.0765
 5957TIP3    H217878   2.007   5.908   4.375 -0.8169 -0.1484  0.6821
 5958TIP3   OH217879   2.742   4.153   5.147  0.3642  0.0826 -0.3395
 5958TIP3    H117880   2.689   4.174   5.070 -0.1816 -0.0963 -0.0213
 5958TIP3    H217881   2.681   4.110   5.207  0.4993  1.2174  0.6585
 5959TIP3   OH217882   5.061   5.462   1.525 -0.0076  0.5668 -0.1120
 5959TIP3    H117883   5.100   5.545   1.494 -0.2377  0.0653 -1.8407
 5959TIP3    H217884   5.063   5.405   1.448 -4.4057  0.5648 -0.4694
 5960TIP3   OH217885   3.193   5.527   1.695 -0.1734 -0.9396 -0.1470
 5960TIP3    H117886   3.193   5.432   1.682 -0.5767 -0.7962 -1.2991
 5960TIP3    H217887   3.178   5.563   1.608  1.0070  0.2244  0.1057
 5961TIP3   OH217888   4.531   3.637   0.590  0.6230 -0.1203 -0.4291
 5961TIP3    H117889   4.474   3.678   0.656 -0.2129  1.8726 -2.2787
 5961TIP3    H217890   4.613   3.622   0.636  0.4480  2.2554  0.8509
 5962TIP3   OH217891   5.086   5.171   5.144  0.1475  0.5601  0.2945
 5962TIP3    H117892   5.070   5.264   5.127 -0.7827  0.9816  3.0305
 5962TIP3    H217893   5.123   5.168   5.232 -0.9045 -1.7337  0.7436
 5963TIP3   OH217894   4.533   1.417   2.841  0.5586 -0.0797  0.1282
 5963TIP3    H117895   4.547   1.511   2.851 -1.9548  0.3351  0.2359
 5963TIP3    H217896   4.454   1.409   2.788  0.8282 -2.1476 -0.0480
 5964TIP3   OH217897   0.557   5.630   2.991 -0.2776  0.3922 -0.5660
 5964TIP3    H117898   0.651   5.617   2.988  0.2473  2.8473  1.8572
 5964TIP3    H217899   0.543   5.698   3.056 -3.8503 -0.8451  0.2476
 5965TIP3   OH217900   4.000   3.751   3.876 -0.0288 -0.1253  0.4361
 5965TIP3    H117901   3.925   3.696   3.853 -0.0224  0.1604 -0.2993
 5965TIP3    H217902   3.963   3.822   3.929 -0.2553 -0.0905  0.2354
 5966TIP3   OH217903   2.425   2.370   4.854  0.2601  0.0471  0.2168
 5966TIP3    H117904   2.475   2.348   4.775 -0.2172  0.5964 -0.2524
 5966TIP3    H217905   2.370   2.444   4.828  1.1307  1.1827  1.4690
 5967TIP3   OH217906   2.082   5.187   1.692  0.5968 -0.1293  0.1676
 5967TIP3    H117907   2.024   5.151   1.760 -1.5790  2.0503 -0.4265
 5967TIP3    H217908   2.070   5.128   1.617  1.3837 -1.3214  0.9410
 5968TIP3   OH217909   0.584   5.643   1.904 -0.2931  0.1048 -0.4010
 5968TIP3    H117910   0.502   5.648   1.856 -0.1419  1.3580 -0.5592
 5968TIP3    H217911   0.570   5.574   1.969 -0.8674 -0.8684 -1.5256
 5969TIP3   OH217912   4.691   5.642   3.357 -0.8289 -0.2306 -0.4159
 5969TIP3    H117913   4.719   5.579   3.291  0.2725 -0.7193  0.5019
 5969TIP3    H217914   4.763   5.646   3.419 -0.7829  2.1033 -0.5522
 5970TIP3   OH217915   1.731   5.939   3.345  0.0616  0.0742 -0.3735
 5970TIP3    H117916   1.644   5.902   3.331 -0.8512  0.9433  2.3290
 5970TIP3    H217917   1.727   6.026   3.307 -0.1640  0.0098 -0.4993
 5971TIP3   OH217918   0.468   5.790   0.807 -0.1794 -0.1088 -0.7093
 5971TIP3    H117919   0.444   5.850   0.737  0.0575  2.3381  1.1547
 5971TIP3    H217920   0.389   5.785   0.862  1.3625  3.1093  2.1518
 5972TIP3   OH217921   4.759   1.502   2.654 -0.0791  0.0002 -0.0294
 5972TIP3    H117922   4.835   1.515   2.711 -0.4182  1.2916  0.1641
 5972TIP3    H217923   4.689   1.476   2.713  0.0690 -0.6717 -0.1402
 5973TIP3   OH217924   3.704   1.508   0.809 -0.1449  0.0642 -0.0900
 5973TIP3    H117925   3.741   1.596   0.812 -0.3703  0.1707  3.2138
 5973TIP3    H217926   3.762   1.455   0.863 -3.3640 -0.2349  3.4531
 5974TIP3   OH217927   0.664   1.258   5.007 -0.0749  0.1814  0.5740
 5974TIP3    H117928   0.711   1.246   5.090  1.3677 -0.3379 -0.2770
 5974TIP3    H217929   0.725   1.307   4.952 -0.3692 -0.7922 -0.6816
 5975TIP3   OH217930   6.229   2.345   1.258 -0.0315 -0.0600  0.0401
 5975TIP3    H117931   6.191   2.433   1.263 -1.5294 -0.7382  1.2809
 5975TIP3    H217932   6.160   2.292   1.218  1.6192 -0.3227 -2.7247
 5976TIP3   OH217933   2.862   4.125   3.672 -0.3474  0.3986 -0.2629
 5976TIP3    H117934   2.945   4.166   3.697  0.3212 -1.0419 -0.0328
 5976TIP3    H217935   2.876   4.032   3.687 -1.5236 -0.0214 -1.6342
 5977TIP3   OH217936   3.316   5.082   4.965  0.3493  0.3858 -0.2336
 5977TIP3    H117937   3.269   4.999   4.968  0.1334  0.4471 -1.3578
 5977TIP3    H217938   3.394   5.068   5.019 -0.3985 -0.0704  0.7518
 5978TIP3   OH217939   3.392   5.922   0.386 -0.0081 -0.5504  0.2825
 5978TIP3    H117940   3.440   5.970   0.454  0.9330 -2.8471  1.3588
 5978TIP3    H217941   3.332   5.866   0.434  0.7333 -2.2996 -0.7469
 5979TIP3   OH217942   5.045   4.746   0.189  0.1821  0.1926 -0.2081
 5979TIP3    H117943   5.025   4.722   0.279  3.5112  0.0307  0.6437
 5979TIP3    H217944   5.040   4.664   0.140 -0.6395  0.0947  0.0339
 5980TIP3   OH217945   1.844   4.491   0.447  0.4542 -0.1821  0.1843
 5980TIP3    H117946   1.916   4.430   0.428  1.9807  1.8960 -1.1087
 5980TIP3    H217947   1.827   4.535   0.364  1.2095  2.9352  1.5300
 5981TIP3   OH217948   0.410   4.333   1.805 -0.0674  0.1851  0.0681
 5981TIP3    H117949   0.494   4.371   1.828  0.2913 -0.5403 -0.0066
 5981TIP3    H217950   0.381   4.288   1.884  0.0753 -0.3760 -0.1917
 5982TIP3   OH217951   4.315   2.338   0.853  0.9852  0.2459 -0.0031
 5982TIP3    H117952   4.361   2.380   0.780  1.7051  1.1260  0.9303
 5982TIP3    H217953   4.331   2.396   0.928 -0.7354 -0.0211  0.5993
 5983TIP3   OH217954   5.255   2.502   3.652  0.2518 -0.4357  0.4037
 5983TIP3    H117955   5.278   2.585   3.694  2.7348 -0.0824 -1.4644
 5983TIP3    H217956   5.199   2.527   3.579  1.4500 -0.3236 -0.4884
 5984TIP3   OH217957   4.041   3.494   3.748 -0.1249 -0.3636 -0.5869
 5984TIP3    H117958   4.068   3.570   3.800  0.2404 -0.4516 -0.6508
 5984TIP3    H217959   4.062   3.419   3.802 -2.2868 -0.3700  0.3311
 5985TIP3   OH217960   0.786   3.466   3.850 -0.4108 -0.2104  0.0798
 5985TIP3    H117961   0.769   3.457   3.944  0.1900 -1.0016  0.1191
 5985TIP3    H217962   0.756   3.384   3.812 -2.4649  0.8273 -0.7178
 5986TIP3   OH217963   6.187   4.178   1.616 -0.3997  0.3458  0.1981
 5986TIP3    H117964   6.205   4.216   1.702  0.1853 -1.9071  1.1393
 5986TIP3    H217965   6.273   4.154   1.582 -0.4485  2.6463 -1.8085
 5987TIP3   OH217966   5.820   3.695   4.246  0.6199  0.5686 -0.0044
 5987TIP3    H117967   5.800   3.642   4.170 -2.2978 -0.8796  1.6017
 5987TIP3    H217968   5.756   3.766   4.244  1.3150  1.2359  0.4762
 5988TIP3   OH217969   2.373   1.895   2.068  0.7808  0.3326  0.3595
 5988TIP3    H117970   2.354   1.848   1.987  0.4125  0.2405  0.4975
 5988TIP3    H217971   2.466   1.915   2.062  0.2837  2.4820 -1.2065
 5989TIP3   OH217972   3.632   5.780   0.316 -0.5713  0.2356  0.0122
 5989TIP3    H117973   3.570   5.851   0.332 -1.2505 -0.2934 -0.2068
 5989TIP3    H217974   3.578   5.700   0.317  0.1644 -0.2690  0.1928
 5990TIP3   OH217975   0.457   3.655   3.099  0.2501  0.0224  0.2314
 5990TIP3    H117976   0.450   3.565   3.068  2.7662  0.0274 -0.6216
 5990TIP3    H217977   0.486   3.704   3.021  0.5230  1.2414  1.0759
 5991TIP3   OH217978   1.738   5.801   1.212 -0.3228 -0.1631 -0.1173
 5991TIP3    H117979   1.690   5.739   1.267 -1.5254 -0.4448 -1.4131
 5991TIP3    H217980   1.818   5.820   1.261 -1.3621 -0.3250  1.7351
 5992TIP3   OH217981   4.094   0.857   1.991 -0.0297  0.4628 -0.0619
 5992TIP3    H117982   4.044   0.860   1.910  0.6007 -0.4706 -0.5105
 5992TIP3    H217983   4.147   0.777   1.984 -0.3580  0.0648  1.5038
 5993TIP3   OH217984   2.778   3.999   2.205 -0.0095  0.0870  0.0374
 5993TIP3    H117985   2.762   4.091   2.228 -1.1188 -0.4169  1.4684
 5993TIP3    H217986   2.787   3.955   2.290 -1.4140 -1.4338 -0.5552
 5994TIP3   OH217987   1.827   0.782   4.392  0.3709  0.4092  0.0167
 5994TIP3    H117988   1.811   0.755   4.301  0.5540  0.6059 -0.0762
 5994TIP3    H217989   1.740   0.801   4.427  0.3579  1.1654 -0.3854
 5995TIP3   OH217990   6.018   0.386   1.974  0.4032  0.5259 -0.1480
 5995TIP3    H117991   5.935   0.396   2.021  0.0307  0.3630 -0.7413
 5995TIP3    H217992   6.068   0.464   1.995  0.9151 -0.2589  1.7764
 5996TIP3   OH217993   3.013   0.139   0.497  0.5005  0.7173  0.6467
 5996TIP3    H117994   2.942   0.167   0.554 -0.9852 -1.6976  0.1498
 5996TIP3    H217995   3.071   0.089   0.554 -0.1800 -0.4053  0.3850
 5997TIP3   OH217996   4.204   1.314   1.031  0.2224 -0.5040 -0.0563
 5997TIP3    H117997   4.219   1.286   0.941  1.7711 -0.7988  0.2802
 5997TIP3    H217998   4.150   1.245   1.069 -1.7756  0.3633 -1.1610
 5998TIP3   OH217999   6.289   2.191   4.371 -0.0069 -0.0213  0.5354
 5998TIP3    H118000   6.214   2.192   4.431 -0.5303  0.2430 -0.1181
 5998TIP3    H218001   6.362   2.220   4.426 -0.4621  0.1428  1.0755
 5999TIP3   OH218002   2.618   3.620   3.825 -0.5698 -0.3853 -0.3013
 5999TIP3    H118003   2.615   3.546   3.886 -2.4204  0.3123  0.5003
 5999TIP3    H218004   2.631   3.697   3.881 -0.8440  0.1190 -0.9201
 6000TIP3   OH218005   5.643   5.989   4.717  0.0146 -0.4604  0.3210
 6000TIP3    H118006   5.652   6.039   4.636 -1.2804  0.1926  0.5586
 6000TIP3    H218007   5.637   5.898   4.688 -1.8152 -0.1379 -0.4658
 6001TIP3   OH218008   5.171   0.201   1.539 -0.4462  0.0249 -0.9214
 6001TIP3    H118009   5.125   0.150   1.472 -0.5787 -0.5004 -0.4334
 6001TIP3    H218010   5.230   0.139   1.581 -3.3326 -0.8191  2.3140
 6002TIP3   OH218011   0.073   0.689   3.006  0.8002 -0.1080  0.4902
 6002TIP3    H118012   0.015   0.761   2.979  0.4680  0.1006  1.7200
 6002TIP3    H218013   0.126   0.726   3.076  0.1541 -1.2580  1.6173
 6003TIP3   OH218014   3.680   4.322   4.476  0.1840  0.5944 -0.1037
 6003TIP3    H118015   3.637   4.240   4.499  0.8778 -0.1844 -1.4569
 6003TIP3    H218016   3.719   4.305   4.390  1.1355  2.0390  0.0136
 6004TIP3   OH218017   0.600   0.115   0.715  0.5666  0.0197 -0.0409
 6004TIP3    H118018   0.671   0.178   0.711 -0.1153  0.7561 -0.8875
 6004TIP3    H218019   0.567   0.109   0.625 -1.4357  0.8775  0.5778
 6005TIP3   OH218020   0.912   5.482   1.172 -0.1007 -0.5457  0.1158
 6005TIP3    H118021   0.941   5.514   1.086  0.3083  2.3543  1.2234
 6005TIP3    H218022   0.968   5.406   1.189  2.5565  1.0965 -0.5907
 6006TIP3   OH218023   6.357   5.203   1.074  0.6967  0.4155 -0.4608
 6006TIP3    H118024   6.297   5.200   1.000  0.5806  1.7847 -0.4571
 6006TIP3    H218025   6.321   5.271   1.131  1.9778  0.9273 -0.2292
 6007TIP3   OH218026   6.087   3.609   0.366 -0.4936  0.2448 -0.4092
 6007TIP3    H118027   6.151   3.569   0.424 -0.8793 -0.1289 -0.2420
 6007TIP3    H218028   6.127   3.604   0.279 -0.8890 -1.2721 -0.5294
 6008TIP3   OH218029   1.457   1.374   3.871 -0.4637 -0.1436 -0.2021
 6008TIP3    H118030   1.418   1.459   3.849  1.3315  0.7647 -0.0444
 6008TIP3    H218031   1.530   1.364   3.809 -0.4147 -1.4006  0.0329
 6009TIP3   OH218032   1.479   2.813   3.199  0.4775  0.0020 -0.1498
 6009TIP3    H118033   1.557   2.808   3.254 -0.3501 -0.0623  1.0618
 6009TIP3    H218034   1.471   2.726   3.160  0.9615 -0.0121 -0.2220
 6010TIP3   OH218035   4.378   3.137   4.976  0.0041  0.6455 -0.1316
 6010TIP3    H118036   4.439   3.098   4.914  0.7710  1.5108  0.0518
 6010TIP3    H218037   4.361   3.068   5.040  0.9871  0.4707 -0.0493
 6011TIP3   OH218038   2.929   0.959   0.316  0.6826 -0.2587  0.0541
 6011TIP3    H118039   2.974   0.983   0.397  1.3202 -0.7530 -0.1450
 6011TIP3    H218040   2.894   0.872   0.334  1.2845 -0.5988 -0.3699
 6012TIP3   OH218041   0.011   2.490   3.966  0.0990 -0.4061 -0.3085
 6012TIP3    H118042  -0.038   2.540   4.031 -0.3111  1.4185 -1.9032
 6012TIP3    H218043   0.029   2.406   4.008 -1.3939  0.1491  1.5852
 6013TIP3   OH218044   3.991   0.850   4.441  0.6556 -0.3454  0.2136
 6013TIP3    H118045   3.899   0.875   4.454  1.2208  1.5458  0.8039
 6013TIP3    H218046   4.039   0.933   4.445  2.5069 -1.4063  0.8621
 6014TIP3   OH218047   0.384   1.814   1.377 -0.1135  0.0853 -0.4635
 6014TIP3    H118048   0.430   1.885   1.332  1.9168 -0.6990  0.2528
 6014TIP3    H218049   0.430   1.806   1.461 -1.5592 -0.8027  0.2687
 6015TIP3   OH218050   2.864   0.634   3.895  0.3322 -0.5779 -0.1633
 6015TIP3    H118051   2.786   0.630   3.950  0.1547  3.0777  0.1147
 6015TIP3    H218052   2.915   0.556   3.919 -0.8435 -0.4264  3.4323
 6016TIP3   OH218053   5.397   1.018   1.258  0.2081  0.5148  0.1778
 6016TIP3    H118054   5.333   1.024   1.329 -2.1310 -2.7323 -1.3593
 6016TIP3    H218055   5.452   0.944   1.281 -0.0639 -0.0679 -0.9475
 6017TIP3   OH218056   0.065   3.361   2.461  0.1324 -0.1045  0.1494
 6017TIP3    H118057   0.037   3.368   2.370 -1.9252  0.4579  0.7795
 6017TIP3    H218058  -0.009   3.322   2.506  1.6668 -1.7511  1.3644
 6018TIP3   OH218059   2.645   2.015   1.499 -0.0422  0.1885 -0.0643
 6018TIP3    H118060   2.578   2.062   1.449  0.4824  0.2162 -0.7520
 6018TIP3    H218061   2.599   1.984   1.577 -1.2128 -0.9872 -1.1696
 6019TIP3   OH218062   2.546   3.761   4.433  0.5313 -0.0280  0.4610
 6019TIP3    H118063   2.589   3.741   4.515  0.8790  1.8684  0.7889
 6019TIP3    H218064   2.616   3.759   4.367  0.8636  1.3766  0.7260
 6020TIP3   OH218065   0.158   1.821   2.182  0.1567  0.5137  0.3922
 6020TIP3    H118066   0.253   1.809   2.186  0.0326 -1.0675 -0.3213
 6020TIP3    H218067   0.129   1.813   2.273  0.6594  0.3676  0.5433
 6021TIP3   OH218068   0.134   2.092   2.074 -0.6602 -0.5266  0.5451
 6021TIP3    H118069   0.154   2.000   2.095  1.6489 -0.4458 -0.9685
 6021TIP3    H218070   0.062   2.086   2.012  0.3097 -1.4359 -0.5430
 6022TIP3   OH218071   1.293   0.989   4.168  0.0796  0.2414  0.5520
 6022TIP3    H118072   1.206   1.005   4.203  0.3850  0.7044  1.1340
 6022TIP3    H218073   1.303   0.894   4.171 -0.1363  0.2318  1.1698
 6023TIP3   OH218074   4.544   2.607   1.698  0.1738  0.3892  0.0406
 6023TIP3    H118075   4.563   2.554   1.776  1.4904 -0.1296 -0.5880
 6023TIP3    H218076   4.451   2.594   1.682  0.6842 -3.0906 -0.9898
 6024TIP3   OH218077   4.607   2.752   2.913 -0.6467  0.4492 -0.2709
 6024TIP3    H118078   4.564   2.730   2.830  1.0883 -1.4394 -0.7482
 6024TIP3    H218079   4.626   2.846   2.906 -1.3422  0.5149 -1.6045
 6025TIP3   OH218080   1.940   0.604   1.581 -0.0300  0.1595  0.3668
 6025TIP3    H118081   1.942   0.695   1.551 -0.5927 -0.5673 -2.1240
 6025TIP3    H218082   1.857   0.597   1.629  0.2008  1.0336  0.9175
 6026TIP3   OH218083   3.826   5.907   0.459  0.3321  0.4262 -0.7980
 6026TIP3    H118084   3.771   5.853   0.403  1.6275 -1.7041 -0.1062
 6026TIP3    H218085   3.911   5.908   0.416  1.3428 -1.2292  1.0188
 6027TIP3   OH218086   4.231   5.559   4.499  0.3190 -0.1325  1.0589
 6027TIP3    H118087   4.192   5.498   4.562  1.8488 -0.4350  1.7799
 6027TIP3    H218088   4.157   5.597   4.452 -0.7235 -1.9073  1.1888
 6028TIP3   OH218089   4.490   1.820   4.864 -0.4737  0.1447 -0.2152
 6028TIP3    H118090   4.493   1.836   4.958 -0.0993  1.4859 -0.4376
 6028TIP3    H218091   4.571   1.859   4.830 -0.4620 -0.5821 -1.0628
 6029TIP3   OH218092   4.021   3.986   4.074 -0.4249  0.1441 -0.1081
 6029TIP3    H118093   3.990   4.064   4.120 -0.8501 -0.2485  0.2831
 6029TIP3    H218094   4.013   3.915   4.138  0.8932 -0.0588 -0.1285
 6030TIP3   OH218095   2.726   2.674   3.373 -0.0142 -0.1534  0.0110
 6030TIP3    H118096   2.704   2.581   3.380  1.4645 -0.4427  1.5607
 6030TIP3    H218097   2.799   2.686   3.434  0.2775  1.8937 -0.6579
 6031TIP3   OH218098   5.932   1.415   4.457  0.2189  0.2321 -0.0624
 6031TIP3    H118099   5.922   1.325   4.425 -0.8011  0.5730 -0.7637
 6031TIP3    H218100   5.978   1.406   4.540  0.6325 -0.8925 -0.3906
 6032TIP3   OH218101   0.921   0.053   1.979  0.4321 -0.5757  0.2697
 6032TIP3    H118102   0.994   0.098   1.936  0.5431 -0.3258  0.7073
 6032TIP3    H218103   0.927  -0.037   1.948  1.0581 -0.6044  0.4629
 6033TIP3   OH218104   4.611   1.221   3.568  0.4500 -0.3163 -0.4821
 6033TIP3    H118105   4.679   1.239   3.503 -0.0646 -0.0287 -0.9561
 6033TIP3    H218106   4.602   1.125   3.566  1.6433 -0.4641  0.4370
 6034TIP3   OH218107   4.440   1.740   1.802  0.2900 -0.0552 -0.6296
 6034TIP3    H118108   4.482   1.807   1.748 -2.0597  0.2903 -2.1547
 6034TIP3    H218109   4.403   1.788   1.876  1.3422 -0.1785  0.0043
 6035TIP3   OH218110   5.721   5.170   3.632 -0.9906  0.3759 -0.1789
 6035TIP3    H118111   5.695   5.218   3.553 -0.0308 -0.9300 -1.3516
 6035TIP3    H218112   5.814   5.189   3.642 -1.0471  0.3091  0.4926
 6036TIP3   OH218113   4.149   0.071   3.432  0.4841 -0.5890  0.4648
 6036TIP3    H118114   4.065   0.025   3.420  0.4718 -0.4640  0.0491
 6036TIP3    H218115   4.175   0.096   3.343 -0.4716  1.9357  0.8015
 6037TIP3   OH218116   5.116   1.836   3.781  0.4876  0.2104  0.5130
 6037TIP3    H118117   5.102   1.789   3.699  1.1028 -0.7570  0.9372
 6037TIP3    H218118   5.065   1.916   3.772  0.8050  0.2791 -0.9401
 6038TIP3   OH218119   1.900   1.388   3.777  0.0634 -0.2189  0.2096
 6038TIP3    H118120   1.938   1.330   3.843 -0.4525 -0.6405  0.1455
 6038TIP3    H218121   1.975   1.426   3.733  0.4143 -0.1846  0.8209
 6039TIP3   OH218122   0.228   5.323   4.749  0.2218 -0.2155 -0.4040
 6039TIP3    H118123   0.292   5.332   4.680  1.3455  1.1364  0.7444
 6039TIP3    H218124   0.172   5.250   4.722  1.5156 -0.6573 -1.9858
 6040TIP3   OH218125   1.697   1.698   0.709  0.5103  0.1070  0.0777
 6040TIP3    H118126   1.742   1.648   0.778  1.6048  0.4438 -0.3728
 6040TIP3    H218127   1.759   1.768   0.686  0.5376 -0.4898 -1.8278
 6041TIP3   OH218128   4.280   4.426   3.813 -0.4786  0.1616  0.2296
 6041TIP3    H118129   4.278   4.425   3.718 -1.2037 -2.2034  0.2022
 6041TIP3    H218130   4.252   4.514   3.837  0.2893  0.9818 -1.7204
 6042TIP3   OH218131   1.064   6.005   3.298 -0.1462 -0.3919  0.2962
 6042TIP3    H118132   1.090   5.933   3.354 -1.4074 -1.2298 -0.1370
 6042TIP3    H218133   1.076   5.972   3.209  0.7924  0.5237  0.0665
 6043TIP3   OH218134   3.274   2.034   3.401  0.2026  0.3380  0.4231
 6043TIP3    H118135   3.281   1.958   3.459 -2.7302 -0.5829 -0.2756
 6043TIP3    H218136   3.279   1.998   3.313 -1.7816  0.8174  0.0759
 6044TIP3   OH218137   5.227   1.063   2.478  0.6497 -0.1383 -0.5821
 6044TIP3    H118138   5.204   1.131   2.540  2.7574  0.8204 -0.7392
 6044TIP3    H218139   5.307   1.023   2.514 -0.2708 -2.2615 -0.7220
 6045TIP3   OH218140   0.927   2.452   1.376  0.2444 -0.1974 -0.4249
 6045TIP3    H118141   0.974   2.375   1.410 -0.4616 -0.2644  0.4158
 6045TIP3    H218142   0.835   2.425   1.375 -0.1437  0.9760  0.8837
 6046TIP3   OH218143   1.055   5.274   1.192 -0.7228  0.0022  0.2151
 6046TIP3    H118144   1.010   5.193   1.173  1.4471 -1.4351  0.8265
 6046TIP3    H218145   1.140   5.267   1.148 -0.4125  1.8754  0.3874
 6047TIP3   OH218146   4.110   0.492   0.266  0.2090  0.0944 -0.6952
 6047TIP3    H118147   4.081   0.409   0.228  0.8554 -0.6337  0.3854
 6047TIP3    H218148   4.036   0.552   0.250 -0.2912 -0.6930 -1.4183
 6048TIP3   OH218149   6.134   3.202   3.375 -0.7570  0.0471  0.3189
 6048TIP3    H118150   6.133   3.148   3.454 -0.5124  0.2930  0.4914
 6048TIP3    H218151   6.093   3.147   3.308  0.0220 -0.5820  0.3401
 6049TIP3   OH218152   6.006   3.967   3.613 -0.3372  0.5256  0.1043
 6049TIP3    H118153   5.921   3.923   3.614 -0.1708  0.0821 -1.6402
 6049TIP3    H218154   6.020   3.994   3.703 -1.7821 -0.4498  0.6580
 6050TIP3   OH218155   3.745   3.392   5.180  0.4198  0.3639  0.2935
 6050TIP3    H118156   3.752   3.475   5.134  1.0458 -0.1328 -0.5316
 6050TIP3    H218157   3.831   3.351   5.170 -0.4805 -1.3149 -1.1605
 6051TIP3   OH218158   3.044   3.214   3.238  0.0818 -0.7092 -0.6517
 6051TIP3    H118159   3.017   3.123   3.234  0.5713 -1.0172  1.4829
 6051TIP3    H218160   3.136   3.210   3.266 -0.9067  0.3651  3.4239
 6052TIP3   OH218161   4.319   4.407   2.804  0.3521 -0.3144 -0.6512
 6052TIP3    H118162   4.227   4.391   2.823  0.3036  0.9248  0.2945
 6052TIP3    H218163   4.322   4.428   2.710 -0.3367 -0.2994 -0.6701
 6053TIP3   OH218164   0.534   5.064   2.211  0.2911 -0.5384  0.3151
 6053TIP3    H118165   0.627   5.072   2.192  0.7043  0.7643  2.5473
 6053TIP3    H218166   0.522   4.972   2.234  0.7434 -0.9752 -1.0715
 6054TIP3   OH218167   2.660   3.231   4.536  0.3153  0.6895  0.0697
 6054TIP3    H118168   2.719   3.210   4.464  0.2679 -0.3448  0.3277
 6054TIP3    H218169   2.715   3.276   4.600 -0.2160  4.5092 -1.8511
 6055TIP3   OH218170   5.959   0.535   4.885  0.8059 -0.3961  0.5332
 6055TIP3    H118171   5.959   0.551   4.791 -1.2531  0.1148  0.5596
 6055TIP3    H218172   6.034   0.479   4.900  0.4334 -1.5830 -1.6251
 6056TIP3   OH218173   0.789   3.808   1.248 -0.8078 -0.1754 -0.5426
 6056TIP3    H118174   0.866   3.752   1.240 -0.5288  0.1836 -0.3739
 6056TIP3    H218175   0.717   3.747   1.265 -0.3460 -0.4058  0.6359
 6057TIP3   OH218176   5.363   1.611   1.421 -0.4474 -0.1793  0.2886
 6057TIP3    H118177   5.445   1.651   1.452 -0.5211 -0.2976  0.6431
 6057TIP3    H218178   5.385   1.519   1.408 -0.0298  0.1299 -1.4147
 6058TIP3   OH218179   4.924   1.219   0.402  0.0301  0.2447 -0.1026
 6058TIP3    H118180   4.945   1.247   0.491  0.0276 -0.9240  0.2904
 6058TIP3    H218181   4.986   1.148   0.384 -0.1969  0.2307 -0.9028
 6059TIP3   OH218182   1.561   1.352   4.370 -0.3502  0.1538 -0.4096
 6059TIP3    H118183   1.539   1.440   4.401  1.0374 -0.2961  2.1693
 6059TIP3    H218184   1.479   1.316   4.338 -1.6699  1.2361  1.5985
 6060TIP3   OH218185   3.208   5.123   0.617  0.5206 -0.3958  0.7552
 6060TIP3    H118186   3.223   5.034   0.648  1.5422 -1.0676 -1.4163
 6060TIP3    H218187   3.285   5.172   0.647  0.6325 -0.5982  0.8026
 6061TIP3   OH218188   3.591   4.933   4.504  0.1532  0.1346  0.4086
 6061TIP3    H118189   3.535   4.981   4.444 -0.4016 -0.4903  0.4199
 6061TIP3    H218190   3.552   4.945   4.590 -0.7188 -1.3424  0.2547
 6062TIP3   OH218191   1.460   2.235   0.776 -0.1918 -0.0194  0.1325
 6062TIP3    H118192   1.545   2.259   0.813  0.0887 -0.0863 -0.4549
 6062TIP3    H218193   1.477   2.224   0.682 -0.9041  0.2220 -0.0295
 6063TIP3   OH218194   3.479   3.750   0.436 -0.1084 -0.1218  0.0380
 6063TIP3    H118195   3.404   3.714   0.483 -0.0248 -1.0105 -0.4897
 6063TIP3    H218196   3.443   3.822   0.385 -0.8722 -1.3214 -1.1853
 6064TIP3   OH218197   1.907   5.147   4.930  0.4022 -0.0980  0.0100
 6064TIP3    H118198   1.914   5.052   4.941  0.5945  0.0046  0.8614
 6064TIP3    H218199   1.889   5.159   4.837 -0.0747 -0.9900 -0.0280
 6065TIP3   OH218200   6.112   4.344   2.378  0.7540 -0.1301 -0.5056
 6065TIP3    H118201   6.032   4.397   2.374  0.4019 -0.5148  0.8813
 6065TIP3    H218202   6.082   4.255   2.363  1.4343  0.0579 -3.5136
 6066TIP3   OH218203   1.958   3.102   0.804  0.3957  0.3511 -0.3311
 6066TIP3    H118204   2.027   3.097   0.738 -0.6655 -0.2755 -1.4384
 6066TIP3    H218205   1.878   3.115   0.753 -0.4883 -0.4294  0.8168
 6067TIP3   OH218206   6.290   5.082   4.285  0.6288  0.8073  0.3168
 6067TIP3    H118207   6.214   5.136   4.305 -0.5428 -1.4304  2.4555
 6067TIP3    H218208   6.364   5.143   4.287 -0.7584  2.5466  1.2349
 6068TIP3   OH218209   0.054   3.506   4.020  0.2750 -0.3745  0.5263
 6068TIP3    H118210   0.115   3.540   3.954  0.5363 -0.1856  0.8639
 6068TIP3    H218211   0.098   3.522   4.104 -0.3130 -0.0778  0.7846
 6069TIP3   OH218212   4.003   4.413   4.430  0.2197  0.0313 -0.1658
 6069TIP3    H118213   4.089   4.399   4.470  0.6947  0.0863 -1.1319
 6069TIP3    H218214   3.981   4.328   4.391  0.4594  0.3745 -1.0700
 6070TIP3   OH218215   1.985   5.030   0.520 -0.0011 -0.3196 -0.0866
 6070TIP3    H118216   1.925   5.053   0.449  0.4473 -2.1933 -1.1340
 6070TIP3    H218217   2.072   5.047   0.486  0.1630  0.4849  0.6959
 6071TIP3   OH218218   1.490   2.796   4.171  0.0566 -0.0756  0.3790
 6071TIP3    H118219   1.400   2.803   4.202 -0.6916 -3.1999 -0.7170
 6071TIP3    H218220   1.496   2.859   4.099 -0.8267  1.0629  1.2777
 6072TIP3   OH218221   3.991   0.624   2.850  0.0481 -0.0820 -0.6652
 6072TIP3    H118222   4.021   0.701   2.897 -0.1946 -0.5517  0.2830
 6072TIP3    H218223   3.986   0.555   2.916  2.7745 -1.6512 -1.9258
 6073TIP3   OH218224   1.736   1.691   5.000  0.2536  0.2779  0.1207
 6073TIP3    H118225   1.665   1.735   4.954  0.6570  0.1486 -0.6614
 6073TIP3    H218226   1.813   1.744   4.981  0.7794 -0.8154 -0.9703
 6074TIP3   OH218227   0.556   4.786   2.276  0.9205 -0.3256 -0.1644
 6074TIP3    H118228   0.565   4.746   2.189 -2.3002 -3.1148  0.5642
 6074TIP3    H218229   0.620   4.739   2.331  0.2146 -1.4088 -0.2451
 6075TIP3   OH218230   1.007   2.549   3.232  0.1884  0.5663  0.2551
 6075TIP3    H118231   0.929   2.495   3.245 -0.6520  1.7299  0.2571
 6075TIP3    H218232   0.989   2.597   3.151  1.4586 -0.0423 -0.4182
 6076TIP3   OH218233   0.757   1.172   0.825 -0.5578 -0.4478 -0.0025
 6076TIP3    H118234   0.715   1.254   0.798 -1.2102 -1.0986 -1.0753
 6076TIP3    H218235   0.850   1.193   0.831 -0.6539  0.2651 -0.7799
 6077TIP3   OH218236   2.357   5.208   3.072 -0.2146  0.3153  0.4865
 6077TIP3    H118237   2.322   5.283   3.025  0.0116  0.0044 -0.1970
 6077TIP3    H218238   2.313   5.132   3.034 -0.5249  0.1050  1.2487
 6078TIP3   OH218239   2.870   1.436   1.531  0.3492 -0.2668  0.2856
 6078TIP3    H118240   2.880   1.473   1.443 -0.9110 -0.4755  0.0271
 6078TIP3    H218241   2.844   1.511   1.585 -1.2563 -0.5489 -0.0410
 6079TIP3   OH218242   4.589   0.232   3.314 -0.3184 -0.2445 -0.2973
 6079TIP3    H118243   4.557   0.288   3.385 -0.5887  0.0326 -0.6365
 6079TIP3    H218244   4.514   0.219   3.257  0.2005  0.5776 -1.2056
 6080TIP3   OH218245   3.829   1.163   2.824  0.8854 -0.1899  0.1079
 6080TIP3    H118246   3.745   1.201   2.849  0.4944  0.1277 -1.5545
 6080TIP3    H218247   3.822   1.070   2.846 -0.0630 -0.2409 -0.3820
 6081TIP3   OH218248   1.905   0.601   4.152 -0.5433  0.3536  0.4664
 6081TIP3    H118249   1.816   0.609   4.119 -0.2868 -0.7336 -0.5883
 6081TIP3    H218250   1.949   0.544   4.089  0.4538 -0.4397  1.8043
 6082TIP3   OH218251   1.343   2.698   2.490  0.5890 -0.1978 -0.1433
 6082TIP3    H118252   1.337   2.676   2.398  1.4379  1.4890 -0.6360
 6082TIP3    H218253   1.359   2.615   2.534  0.5909 -0.9605 -1.5422
 6083TIP3   OH218254   0.551   2.103   1.876 -0.6930  0.2685  0.5946
 6083TIP3    H118255   0.552   2.020   1.923  2.1712  0.3464  0.8307
 6083TIP3    H218256   0.566   2.170   1.943 -0.2473  0.7071  0.0768
 6084TIP3   OH218257   1.972   4.776   3.327  0.2810  0.2716  0.2012
 6084TIP3    H118258   2.063   4.757   3.351  0.5458  0.7366 -0.4201
 6084TIP3    H218259   1.923   4.700   3.358  0.8092  0.2368  0.9725
 6085TIP3   OH218260   0.171   3.137   2.186 -0.3257 -0.3627  0.1822
 6085TIP3    H118261   0.238   3.162   2.122 -2.0495 -0.3709 -1.7321
 6085TIP3    H218262   0.121   3.218   2.199 -1.1053 -0.8234  0.0793
 6086TIP3   OH218263   6.287   2.027   4.847 -0.6104 -0.3866  0.1157
 6086TIP3    H118264   6.271   1.970   4.922  1.3230 -1.7130 -0.4191
 6086TIP3    H218265   6.334   2.102   4.883 -2.8203  0.7950  0.7538
 6087TIP3   OH218266   4.051   4.669   2.335  0.2024 -0.2270  0.0307
 6087TIP3    H118267   3.970   4.641   2.378  0.0639  2.1397  1.5161
 6087TIP3    H218268   4.025   4.746   2.283  0.8798 -1.5141 -2.3722
 6088TIP3   OH218269   2.860   4.577   5.199  0.1854  0.5139  0.7905
 6088TIP3    H118270   2.934   4.553   5.143 -0.8273  0.3548 -0.5372
 6088TIP3    H218271   2.787   4.524   5.167 -1.0789  2.3287  0.4901
 6089TIP3   OH218272   2.805   1.152   0.157  0.6445  0.1159 -0.3350
 6089TIP3    H118273   2.834   1.095   0.228  0.4641 -0.5267 -0.7682
 6089TIP3    H218274   2.748   1.097   0.103 -1.9793  1.5217  0.8462
 6090TIP3   OH218275   5.418   5.616   1.965  0.4090 -0.3836 -0.1095
 6090TIP3    H118276   5.392   5.530   1.930 -0.0441  0.0329 -0.8305
 6090TIP3    H218277   5.504   5.632   1.926  0.0854 -0.1064 -0.7372
 6091TIP3   OH218278   1.636   0.178   1.826  0.4420 -0.2124 -0.0579
 6091TIP3    H118279   1.613   0.170   1.733  0.3796  0.3589 -0.0939
 6091TIP3    H218280   1.576   0.118   1.870 -0.3682  0.4319 -0.2668
 6092TIP3   OH218281   1.299   0.429   4.318  0.1621  0.4780  0.1481
 6092TIP3    H118282   1.317   0.504   4.374 -0.2442 -0.1218  1.1048
 6092TIP3    H218283   1.222   0.388   4.357  0.3400 -0.4017 -0.3998
 6093TIP3   OH218284   3.469   4.841   1.226  0.0740 -0.1213  0.0238
 6093TIP3    H118285   3.526   4.918   1.231  0.4973 -0.3662 -0.8360
 6093TIP3    H218286   3.475   4.801   1.313  1.8062 -0.5555 -0.2596
 6094TIP3   OH218287   2.179   5.044   2.915  0.1782 -0.4515 -0.8377
 6094TIP3    H118288   2.120   5.052   2.840  0.5245 -2.4575 -1.3760
 6094TIP3    H218289   2.123   5.013   2.986 -0.1943  1.6535 -0.1331
 6095TIP3   OH218290   5.952   4.409   4.033 -0.1435  0.2369 -0.2577
 6095TIP3    H118291   5.901   4.329   4.020 -1.2234  0.7845  0.4770
 6095TIP3    H218292   6.038   4.388   3.996 -0.8540 -0.7425 -1.4504
 6096TIP3   OH218293   2.396   5.021   2.234 -0.0597  0.4141  0.1206
 6096TIP3    H118294   2.453   5.068   2.295 -0.7468  0.9585  0.3507
 6096TIP3    H218295   2.392   5.077   2.157 -0.3349  0.4009  0.1259
 6097TIP3   OH218296   0.016   1.323   1.627 -0.5150 -0.6388  0.2355
 6097TIP3    H118297  -0.047   1.334   1.555  0.3061 -1.6644 -0.6846
 6097TIP3    H218298   0.101   1.341   1.587 -0.2663  2.1642  1.8051
 6098TIP3   OH218299   6.139   3.300   4.150 -0.1175 -0.6380  0.2196
 6098TIP3    H118300   6.133   3.382   4.100  0.6305  2.2471  4.3914
 6098TIP3    H218301   6.048   3.273   4.162 -0.3703 -0.6123 -1.3585
 6099TIP3   OH218302   0.913   2.329   4.112 -0.7962  0.2791  0.3035
 6099TIP3    H118303   0.980   2.283   4.062 -3.5505 -2.2399 -1.3845
 6099TIP3    H218304   0.899   2.411   4.064 -0.6941 -0.3454 -0.8207
 6100TIP3   OH218305   0.991   3.168   4.811 -0.0393  0.8871 -0.1382
 6100TIP3    H118306   0.966   3.126   4.893 -0.4136 -1.4677 -1.3663
 6100TIP3    H218307   0.911   3.211   4.781 -0.0300  1.3478  0.4697
 6101TIP3   OH218308   3.113   5.004   0.008  0.0861  0.8661 -0.0965
 6101TIP3    H118309   3.168   5.073   0.046  0.0607  0.8701 -0.0671
 6101TIP3    H218310   3.031   5.009   0.056 -0.0477  1.0578 -0.3483
 6102TIP3   OH218311   0.325   0.220   1.705 -0.1748 -0.2003  0.4229
 6102TIP3    H118312   0.283   0.234   1.620  0.7759 -1.0715 -0.2000
 6102TIP3    H218313   0.268   0.157   1.750 -1.0636  0.7966  0.7390
 6103TIP3   OH218314   2.785   2.719   2.795  0.4058 -0.3578 -0.1741
 6103TIP3    H118315   2.696   2.682   2.794  1.2013 -2.3865 -0.2985
 6103TIP3    H218316   2.778   2.800   2.745 -1.9493  1.0242  2.1032
 6104TIP3   OH218317   2.912   3.611   0.728  1.1571  0.1403 -0.7601
 6104TIP3    H118318   2.960   3.674   0.783  1.5048  0.0341 -0.9411
 6104TIP3    H218319   2.974   3.540   0.713  0.5342 -0.5712  0.0074
 6105TIP3   OH218320   0.067   0.583   0.428 -0.4695 -0.5620 -0.4562
 6105TIP3    H118321  -0.005   0.553   0.372 -0.4168  0.0488 -0.8620
 6105TIP3    H218322   0.061   0.529   0.507 -0.0316 -2.0673 -1.3877
 6106TIP3   OH218323   1.726   2.551   2.980 -0.1481 -0.4390  0.3253
 6106TIP3    H118324   1.770   2.493   2.918 -1.3821  1.3568 -2.4399
 6106TIP3    H218325   1.789   2.622   2.996 -0.2154 -0.3665  0.2738
 6107TIP3   OH218326   0.398   3.422   0.872  0.3135 -0.2520  0.1102
 6107TIP3    H118327   0.419   3.515   0.880  0.1253 -0.2943  1.1810
 6107TIP3    H218328   0.466   3.378   0.923  0.2165 -0.6810 -0.1287
 6108TIP3   OH218329   3.337   4.123   4.726  0.1405  0.2975 -0.6643
 6108TIP3    H118330   3.276   4.126   4.799 -0.8784 -0.0452 -1.4766
 6108TIP3    H218331   3.282   4.106   4.650  1.3122 -0.5055 -1.3545
 6109TIP3   OH218332   1.978   5.376   1.064 -0.7741  0.4066 -0.6890
 6109TIP3    H118333   1.931   5.315   1.121 -0.6980  1.8109  0.9663
 6109TIP3    H218334   1.976   5.459   1.111  2.2916  0.8292 -1.0782
 6110TIP3   OH218335   1.103   3.436   4.512 -0.1856 -0.1476  0.0439
 6110TIP3    H118336   1.017   3.477   4.522 -0.5766 -0.8491 -0.3417
 6110TIP3    H218337   1.129   3.410   4.600  0.3717  1.4981  0.3943
 6111TIP3   OH218338   3.690   4.064   0.244  0.5171 -0.1823  0.5357
 6111TIP3    H118339   3.601   4.031   0.238  0.5313 -0.0203 -1.3497
 6111TIP3    H218340   3.691   4.119   0.322 -0.4880 -1.6883  1.6554
 6112TIP3   OH218341   5.161   5.158   3.209  0.7860  0.2775 -0.3775
 6112TIP3    H118342   5.198   5.120   3.129 -0.5092  0.5598 -1.1456
 6112TIP3    H218343   5.232   5.153   3.273  1.3392 -1.4825 -1.0612
 6113TIP3   OH218344   4.381   3.165   1.735 -0.4018 -0.1257  0.0293
 6113TIP3    H118345   4.378   3.071   1.753  0.6048  0.1713  2.0456
 6113TIP3    H218346   4.309   3.202   1.786  0.8904  0.4664  1.4891
 6114TIP3   OH218347   0.969   1.068   1.434  0.4646 -0.2209 -0.1464
 6114TIP3    H118348   0.968   1.122   1.355 -2.7678  1.3865  0.7928
 6114TIP3    H218349   0.903   1.001   1.418  1.2438 -1.1378  0.4239
 6115TIP3   OH218350   3.130   2.477   4.532 -0.5634  0.7521 -0.4686
 6115TIP3    H118351   3.155   2.454   4.621 -2.3664 -0.0501 -0.1201
 6115TIP3    H218352   3.141   2.572   4.528  2.3363  0.4936 -0.3807
 6116TIP3   OH218353   5.715   5.981   1.630  0.7214 -0.2178  0.1881
 6116TIP3    H118354   5.705   6.025   1.546 -1.3890 -0.0885  0.4568
 6116TIP3    H218355   5.627   5.952   1.653  1.4254 -1.2102  1.8482
 6117TIP3   OH218356   0.557   3.021   2.186  0.1152  0.1479 -0.0096
 6117TIP3    H118357   0.590   2.965   2.115  1.2925  1.9038 -0.9262
 6117TIP3    H218358   0.492   3.077   2.144 -0.8924 -0.3465  0.8483
 6118TIP3   OH218359   6.172   0.065   0.106 -0.0712 -0.4333  0.4227
 6118TIP3    H118360   6.230   0.123   0.155  0.2431 -1.4862  1.3340
 6118TIP3    H218361   6.226   0.032   0.034 -0.1215  0.0414  0.1600
 6119TIP3   OH218362   0.137   3.729   2.415 -0.2151 -0.5050  0.2872
 6119TIP3    H118363   0.088   3.694   2.342  0.1009  0.1256 -0.2427
 6119TIP3    H218364   0.164   3.816   2.386  0.3384 -0.4426  0.9598
 6120TIP3   OH218365   2.279   3.445   4.329 -0.1419  0.2462 -0.1044
 6120TIP3    H118366   2.293   3.534   4.296 -2.5436  0.5756 -0.4305
 6120TIP3    H218367   2.301   3.450   4.422  0.7010  0.8994 -0.3224
 6121TIP3   OH218368   3.987   5.998   1.358 -0.1512  0.2152  0.2062
 6121TIP3    H118369   3.990   5.919   1.304 -0.2536  0.1384  0.3113
 6121TIP3    H218370   3.896   6.004   1.386 -0.1220  0.3161  0.2782
 6122TIP3   OH218371   3.187   0.722   4.993 -0.3791  0.2212  0.0803
 6122TIP3    H118372   3.250   0.682   5.052  0.1826  1.3268  0.2584
 6122TIP3    H218373   3.214   0.694   4.905  0.1234  0.3581  0.1874
 6123TIP3   OH218374   6.084   2.887   1.187  0.7038  0.7024  0.4190
 6123TIP3    H118375   6.158   2.851   1.236  1.0976  1.6025  0.5269
 6123TIP3    H218376   6.029   2.812   1.166  1.7854 -0.0324  0.1008
 6124TIP3   OH218377   0.365   1.843   4.237 -0.5863  0.0235  0.3735
 6124TIP3    H118378   0.366   1.878   4.326 -0.8680 -0.4405  0.5646
 6124TIP3    H218379   0.290   1.885   4.195 -1.0457 -0.4920  0.6642
 6125TIP3   OH218380   3.233   1.865   4.933 -0.4737  0.3467  0.2062
 6125TIP3    H118381   3.295   1.811   4.884 -3.4865 -1.1787 -2.2586
 6125TIP3    H218382   3.240   1.952   4.894  1.5862  0.8601  1.5200
 6126TIP3   OH218383   5.064   0.651   1.679 -0.1164 -0.2164  0.6086
 6126TIP3    H118384   5.130   0.714   1.708 -1.2516  0.6763  1.3758
 6126TIP3    H218385   5.090   0.568   1.719  1.6502 -0.3986 -0.7701
 6127TIP3   OH218386   2.066   2.433   4.345  0.6324  0.4988  0.0673
 6127TIP3    H118387   2.097   2.467   4.261  0.8037 -0.8490 -0.4404
 6127TIP3    H218388   2.145   2.410   4.393  0.5715 -2.2821 -0.9532
 6128TIP3   OH218389   3.289   1.315   5.127  0.6605 -0.1897 -0.5625
 6128TIP3    H118390   3.280   1.404   5.160  2.0085  0.8725 -2.8247
 6128TIP3    H218391   3.339   1.269   5.196 -0.9650  0.4354  1.1052
 6129TIP3   OH218392   4.342   4.397   2.536  0.1890  0.2538  0.1294
 6129TIP3    H118393   4.431   4.367   2.521  0.1838  0.0800  0.4343
 6129TIP3    H218394   4.319   4.446   2.457  0.4436  0.0385 -0.0778
 6130TIP3   OH218395   1.966   3.005   2.759 -0.1235  0.3241  0.5795
 6130TIP3    H118396   2.025   2.932   2.776  0.6296  1.2828  2.4089
 6130TIP3    H218397   2.008   3.054   2.688 -0.1324 -0.4620  0.0188
 6131TIP3   OH218398   4.799   0.604   1.923 -0.7649  0.6525 -0.3763
 6131TIP3    H118399   4.788   0.694   1.893 -0.0329  1.0006  0.3816
 6131TIP3    H218400   4.850   0.611   2.003 -2.3706 -0.2995  0.7901
 6132TIP3   OH218401   3.814   4.850   1.102 -0.9254 -0.0128 -0.5013
 6132TIP3    H118402   3.893   4.860   1.155 -1.0506 -1.0252 -0.0956
 6132TIP3    H218403   3.769   4.774   1.140 -3.4003  2.0074  0.9429
 6133TIP3   OH218404   5.587   2.402   2.546 -0.1780  0.0327 -0.5011
 6133TIP3    H118405   5.598   2.408   2.451 -0.6038 -1.3515 -0.6541
 6133TIP3    H218406   5.607   2.310   2.567  0.9829  0.5547  0.9008
 6134TIP3   OH218407   6.072   2.952   2.086  1.0327  0.0273  0.0714
 6134TIP3    H118408   6.135   2.895   2.041  1.7289  0.8239  0.0054
 6134TIP3    H218409   6.120   2.987   2.161  0.5816  0.4362  0.1761
 6135TIP3   OH218410   2.304   0.473   1.848  0.5882  0.1268 -0.2549
 6135TIP3    H118411   2.302   0.477   1.753  2.2385 -0.7633 -0.3693
 6135TIP3    H218412   2.397   0.464   1.870  0.1779 -0.5420  1.3887
 6136TIP3   OH218413   5.865   1.949   3.276  0.5699  0.1314  0.1624
 6136TIP3    H118414   5.818   2.023   3.238  0.2784 -0.1402 -0.0086
 6136TIP3    H218415   5.945   1.987   3.312 -0.2529  0.7901  1.3950
 6137TIP3   OH218416   6.247   0.060   1.016  0.9426 -0.5845 -0.2273
 6137TIP3    H118417   6.194   0.038   1.093  0.2848  2.2105  0.2228
 6137TIP3    H218418   6.183   0.068   0.945  0.7261  2.2560  0.1968
 6138TIP3   OH218419   3.137   0.725   0.382  0.4451 -0.2542  0.4396
 6138TIP3    H118420   3.191   0.791   0.426  1.0413  0.4097 -1.2121
 6138TIP3    H218421   3.156   0.644   0.429  2.1920  0.1453  0.4864
 6139TIP3   OH218422   0.467   3.543   3.784 -0.1286 -0.2939  1.0229
 6139TIP3    H118423   0.552   3.576   3.815  0.3147  0.2769 -0.7152
 6139TIP3    H218424   0.487   3.456   3.748 -0.6535 -0.9770  2.3103
 6140TIP3   OH218425   3.500   4.508   3.872  0.3900 -0.1202 -0.1026
 6140TIP3    H118426   3.529   4.579   3.816 -2.6706  1.5168  0.1507
 6140TIP3    H218427   3.459   4.552   3.947 -0.2225 -2.1864  0.8532
 6141TIP3   OH218428   3.092   0.994   4.656  0.7383 -0.3980 -0.0454
 6141TIP3    H118429   3.167   1.021   4.604  0.0763 -1.1474 -1.4305
 6141TIP3    H218430   3.121   0.915   4.701  1.8504  1.1077  2.0829
 6142TIP3   OH218431   0.732   5.927   4.342  0.0893 -0.1738  0.5053
 6142TIP3    H118432   0.758   6.017   4.322  0.0066 -0.4284 -0.8506
 6142TIP3    H218433   0.805   5.873   4.310 -1.0381 -0.7464 -1.2713
 6143TIP3   OH218434   4.350   2.458   2.936  0.2987 -0.0170  0.4731
 6143TIP3    H118435   4.263   2.418   2.939  0.6290 -0.7910  3.3714
 6143TIP3    H218436   4.357   2.494   2.848 -2.6254 -0.6244 -0.1241
 6144TIP3   OH218437   3.834   0.776   2.098 -0.0296 -0.5365 -0.2720
 6144TIP3    H118438   3.837   0.709   2.029  0.6781  0.4008 -1.1876
 6144TIP3    H218439   3.906   0.835   2.077 -1.2543  1.0867 -0.0989
 6145TIP3   OH218440   1.740   0.485   1.787  0.0196 -0.0147  0.6269
 6145TIP3    H118441   1.784   0.439   1.859 -0.0463 -1.0567  0.0315
 6145TIP3    H218442   1.695   0.415   1.740  0.6640  0.5332 -0.8476
 6146TIP3   OH218443   5.582   1.168   4.796  0.2188  0.1261 -0.4036
 6146TIP3    H118444   5.529   1.212   4.729  1.4085  1.2141 -0.6763
 6146TIP3    H218445   5.672   1.196   4.778  0.5602  0.6116  1.7751
 6147TIP3   OH218446   5.517   3.231   2.052 -0.2593  0.2296  0.2418
 6147TIP3    H118447   5.581   3.183   1.999  2.2917  3.1337  0.3705
 6147TIP3    H218448   5.465   3.164   2.094 -0.6336 -2.3016 -3.7334
 6148TIP3   OH218449   1.267   5.092   1.411  0.4606  0.4196 -0.0625
 6148TIP3    H118450   1.276   5.092   1.316 -1.9935 -0.9506 -0.3574
 6148TIP3    H218451   1.234   5.180   1.432  2.7352  1.3731 -0.2027
 6149TIP3   OH218452   0.186   5.754   3.602  0.4662  0.3938  0.1078
 6149TIP3    H118453   0.277   5.754   3.633  1.5893  0.4465 -2.9037
 6149TIP3    H218454   0.184   5.691   3.530 -1.5677  1.3245 -0.7500
 6150TIP3   OH218455   4.135   1.823   0.966 -0.3713 -0.6743 -0.1699
 6150TIP3    H118456   4.141   1.836   1.060  0.9565 -0.5248 -0.2502
 6150TIP3    H218457   4.201   1.756   0.946  0.0288 -0.0334 -1.0997
 6151TIP3   OH218458   0.797   5.544   1.747  0.0851 -0.1965 -0.4253
 6151TIP3    H118459   0.817   5.491   1.824 -0.5246  0.2776  0.0767
 6151TIP3    H218460   0.724   5.599   1.774 -0.7847 -0.7057 -1.6664
 6152TIP3   OH218461   4.636   4.902   0.803  0.0833  0.0915  0.5515
 6152TIP3    H118462   4.657   4.942   0.718 -0.1751  1.6690  1.1909
 6152TIP3    H218463   4.719   4.863   0.832  0.5661  0.8506  0.2413
 6153TIP3   OH218464   1.519   3.953   2.638  0.1394  0.0801 -0.3275
 6153TIP3    H118465   1.547   3.903   2.714 -0.1983  0.5973  0.1462
 6153TIP3    H218466   1.601   3.989   2.602  0.2643  0.1578  0.0270
 6154TIP3   OH218467   4.867   1.578   2.228  0.1748  0.0046 -0.0843
 6154TIP3    H118468   4.802   1.583   2.158  0.3143 -0.8402 -0.2892
 6154TIP3    H218469   4.854   1.491   2.266  0.0341  0.4953  1.0116
 6155TIP3   OH218470   0.780   3.121   1.368  0.9284 -0.0679 -0.0048
 6155TIP3    H118471   0.839   3.147   1.438  0.9238 -0.9851  0.3542
 6155TIP3    H218472   0.703   3.176   1.380  1.7687  1.3051 -0.6218
 6156TIP3   OH218473   1.030   0.756   2.296 -0.4832 -0.0321 -0.4810
 6156TIP3    H118474   1.036   0.834   2.241 -1.1086 -0.4905 -1.2152
 6156TIP3    H218475   1.050   0.683   2.236 -2.2945 -0.6384 -0.4032
 6157TIP3   OH218476   5.534   3.642   0.546 -0.2294  0.4939 -0.1812
 6157TIP3    H118477   5.535   3.573   0.480 -0.6464  1.4700 -1.2423
 6157TIP3    H218478   5.584   3.714   0.507 -0.9695  1.2970  0.3031
 6158TIP3   OH218479   4.303   0.737   1.192  0.0411 -0.3202 -0.0106
 6158TIP3    H118480   4.366   0.667   1.210  0.9454  0.3594 -0.4160
 6158TIP3    H218481   4.259   0.709   1.112  0.5470 -0.3379 -0.2901
 6159TIP3   OH218482   2.388   3.314   3.677 -0.0936 -0.0126 -0.2710
 6159TIP3    H118483   2.478   3.347   3.674 -0.1513  0.0603 -1.6103
 6159TIP3    H218484   2.356   3.323   3.588 -1.6210  0.4389  0.2984
 6160TIP3   OH218485   0.092   3.672   2.838 -0.4449 -0.2690  0.0241
 6160TIP3    H118486   0.096   3.621   2.757 -2.3858  0.8002 -0.8039
 6160TIP3    H218487   0.096   3.607   2.907 -0.7407 -1.3679 -0.9601
 6161TIP3   OH218488   2.214   2.653   2.994  0.0789  0.6488 -0.4526
 6161TIP3    H118489   2.257   2.705   3.062 -1.8759 -1.3063  2.5325
 6161TIP3    H218490   2.270   2.576   2.984 -0.0320  0.5689 -0.4615
 6162TIP3   OH218491   1.217   3.061   1.182 -0.1159  0.5813 -0.3164
 6162TIP3    H118492   1.214   3.057   1.278  0.8312 -0.0928 -0.3045
 6162TIP3    H218493   1.142   3.008   1.154 -0.5494  0.9946  0.0431
 6163TIP3   OH218494   4.450   1.117   3.206 -0.1390  0.6776 -0.2614
 6163TIP3    H118495   4.541   1.106   3.181 -0.5130  0.9589 -1.8297
 6163TIP3    H218496   4.442   1.068   3.288  1.3546  0.4657 -0.2166
 6164TIP3   OH218497   0.742   5.789   3.469 -0.4776 -0.0899 -0.4806
 6164TIP3    H118498   0.812   5.804   3.532 -0.4755 -0.2538 -0.4417
 6164TIP3    H218499   0.713   5.876   3.442 -0.3725 -0.0215 -0.3702
 6165TIP3   OH218500   1.613   2.741   4.547  0.4009  0.1068 -0.1011
 6165TIP3    H118501   1.521   2.761   4.534  0.5757  1.2593  0.2887
 6165TIP3    H218502   1.622   2.725   4.641  0.8305  1.4523  0.1119
 6166TIP3   OH218503   2.864   3.312   4.692 -0.2038  0.1467  0.3464
 6166TIP3    H118504   2.938   3.355   4.648 -0.2764  0.2067  0.2838
 6166TIP3    H218505   2.905   3.258   4.759 -0.1589  1.1261  1.1397
 6167TIP3   OH218506   3.937   2.384   3.188  0.0657  0.1757  0.2338
 6167TIP3    H118507   3.913   2.457   3.132  0.5991 -0.3222 -0.6780
 6167TIP3    H218508   3.910   2.410   3.276 -1.6809  0.5753 -0.3897
 6168TIP3   OH218509   0.416   5.109   0.635  0.3642  0.3081  0.1670
 6168TIP3    H118510   0.381   5.134   0.721  2.3249 -0.0160  1.1274
 6168TIP3    H218511   0.477   5.179   0.612 -0.5045  0.6427 -1.2286
 6169TIP3   OH218512   1.970   2.709   0.930 -0.0010 -0.4192 -0.8260
 6169TIP3    H118513   1.986   2.789   0.979  1.6004 -1.2980  0.1838
 6169TIP3    H218514   1.908   2.734   0.862  0.6527  1.7212 -0.6956
 6170TIP3   OH218515   5.460   4.536   0.303 -0.1787  0.2386  0.1501
 6170TIP3    H118516   5.480   4.533   0.396  1.7444  1.1350 -0.1847
 6170TIP3    H218517   5.511   4.464   0.265  0.5110  1.0132 -0.4195
 6171TIP3   OH218518   6.184   3.833   5.207 -0.4998  0.1562 -0.3603
 6171TIP3    H118519   6.157   3.813   5.118 -1.3853 -0.3248 -0.0046
 6171TIP3    H218520   6.121   3.897   5.238 -1.4966 -1.2134  0.5931
 6172TIP3   OH218521   0.488   0.461   1.743  0.5470 -0.2283  0.2506
 6172TIP3    H118522   0.489   0.365   1.739  0.0753 -0.2098 -0.6129
 6172TIP3    H218523   0.430   0.487   1.671  0.0844  0.6915  0.9455
 6173TIP3   OH218524   5.786   1.503   3.411  0.3204 -0.5212  0.2290
 6173TIP3    H118525   5.828   1.422   3.441  2.3249  0.1874 -0.4999
 6173TIP3    H218526   5.859   1.563   3.395 -1.1298  1.8538  1.8586
 6174TIP3   OH218527   3.597   1.850   0.747 -0.6037 -0.1129 -0.2988
 6174TIP3    H118528   3.551   1.917   0.798 -1.5969 -1.3064  0.4150
 6174TIP3    H218529   3.527   1.793   0.714  0.2182 -0.7376 -0.9949
 6175TIP3   OH218530   0.144   3.471   0.688  0.4055  0.2982 -0.1493
 6175TIP3    H118531   0.137   3.423   0.770 -0.3460 -0.2265 -0.5018
 6175TIP3    H218532   0.180   3.408   0.626  3.3956  1.3994  0.3165
 6176TIP3   OH218533   6.160   4.648   1.677  0.0541 -0.1406  0.0589
 6176TIP3    H118534   6.215   4.571   1.695  0.0152  0.2069  1.9092
 6176TIP3    H218535   6.215   4.705   1.623  1.5136  0.1276  1.7292
 6177TIP3   OH218536   4.927   3.910   3.329  0.2651 -0.1812 -0.6181
 6177TIP3    H118537   4.925   3.944   3.419  0.5824 -0.9157 -0.3296
 6177TIP3    H218538   4.848   3.856   3.323  0.6882 -0.8163 -0.5069
 6178TIP3   OH218539   5.540   2.985   3.003 -0.3043 -0.7426 -0.2816
 6178TIP3    H118540   5.508   2.916   3.061 -0.6939  0.5390  1.0885
 6178TIP3    H218541   5.525   3.066   3.052  1.9690  0.1816 -0.9937
 6179TIP3   OH218542   3.308   0.635   3.178  0.4015  0.5434 -0.2610
 6179TIP3    H118543   3.389   0.680   3.204  0.3949  0.8984 -0.8330
 6179TIP3    H218544   3.336   0.570   3.113 -0.0965  2.8483 -3.0039
 6180TIP3   OH218545   2.112   1.092   4.616  0.6703 -0.2414  0.0816
 6180TIP3    H118546   2.068   1.067   4.535 -2.2170 -2.7647  2.1977
 6180TIP3    H218547   2.189   1.034   4.621  0.3546 -0.7056 -0.4310
 6181TIP3   OH218548   4.623   2.343   2.532 -0.0006  0.2002 -0.2502
 6181TIP3    H118549   4.699   2.293   2.504  0.8854  0.1606  2.0559
 6181TIP3    H218550   4.555   2.277   2.546  1.3484 -0.6644  3.4193
 6182TIP3   OH218551   2.757   2.015   2.632  0.0974 -0.0472 -0.2403
 6182TIP3    H118552   2.746   1.953   2.704 -1.0982 -0.0380 -0.3868
 6182TIP3    H218553   2.667   2.040   2.608  0.4527  4.4290  2.1079
 6183TIP3   OH218554   5.366   1.860   2.778  0.2259 -0.5775 -0.1995
 6183TIP3    H118555   5.322   1.933   2.735 -1.1988  1.6106  4.2949
 6183TIP3    H218556   5.307   1.786   2.766 -1.1787  0.4955 -0.2618
 6184TIP3   OH218557   2.172   4.501   3.704 -0.0393  0.1766  0.1608
 6184TIP3    H118558   2.078   4.489   3.716  0.2368 -1.3474  0.9224
 6184TIP3    H218559   2.203   4.532   3.789  0.4421 -1.2585  0.5195
 6185TIP3   OH218560   0.804   0.096   4.324 -0.5538  0.2009 -0.1791
 6185TIP3    H118561   0.837   0.065   4.239 -0.4469  0.5138 -0.2535
 6185TIP3    H218562   0.881   0.133   4.367 -0.0771 -2.0392  1.0332
 6186TIP3   OH218563   5.671   5.569   1.879 -0.3941 -0.0883 -0.1625
 6186TIP3    H118564   5.713   5.504   1.823 -0.7753  0.3528 -0.9864
 6186TIP3    H218565   5.731   5.644   1.878 -0.4308 -0.0580 -0.0399
 6187TIP3   OH218566   2.373   4.726   3.181  0.3766  0.2416 -0.8067
 6187TIP3    H118567   2.360   4.637   3.215  0.4740  0.1711 -0.9540
 6187TIP3    H218568   2.400   4.777   3.258  0.2303  0.1661 -0.7037
 6188TIP3   OH218569   5.945   1.584   3.039 -0.5471  0.4329  0.0474
 6188TIP3    H118570   5.997   1.661   3.016 -1.7611  0.7063 -2.0478
 6188TIP3    H218571   6.006   1.511   3.032  0.6980  1.1541  2.3519
 6189TIP3   OH218572   5.203   2.681   0.258  0.2164  0.1148 -0.6495
 6189TIP3    H118573   5.287   2.679   0.212  0.3361 -1.3376 -0.4104
 6189TIP3    H218574   5.147   2.622   0.207  0.3015 -1.3958  0.9166
 6190TIP3   OH218575   3.273   5.931   4.479  0.0848 -0.4375 -0.2634
 6190TIP3    H118576   3.247   5.851   4.525  1.5711  0.0268  1.4555
 6190TIP3    H218577   3.209   5.996   4.508 -1.5279 -1.0527 -2.1578
 6191TIP3   OH218578   5.640   2.101   4.630  0.4722 -0.2919  0.0401
 6191TIP3    H118579   5.603   2.121   4.543  2.0660 -0.3489 -0.6838
 6191TIP3    H218580   5.701   2.172   4.648 -1.3103  0.8275  2.0949
 6192TIP3   OH218581   2.193   0.445   4.564  0.5555  0.1073 -0.1568
 6192TIP3    H118582   2.219   0.393   4.488 -1.0916 -1.3582  0.2062
 6192TIP3    H218583   2.141   0.517   4.528 -2.4255 -1.9986 -0.3856
 6193TIP3   OH218584   6.013   0.130   2.669 -0.1201  0.0056  0.8893
 6193TIP3    H118585   6.070   0.108   2.742  0.9400  1.1826  0.4447
 6193TIP3    H218586   6.031   0.222   2.651 -1.8227  0.2819  0.4247
 6194TIP3   OH218587   6.354   5.968   3.050 -0.7663 -0.2039  0.0198
 6194TIP3    H118588   6.314   6.044   3.092  1.1281  1.1501 -0.4769
 6194TIP3    H218589   6.319   5.969   2.961  1.5958  2.1275 -1.0309
 6195TIP3   OH218590   6.120   0.099   0.767  0.1385 -0.8945  0.4365
 6195TIP3    H118591   6.044   0.157   0.761 -0.2942 -1.5794 -2.1307
 6195TIP3    H218592   6.088   0.014   0.736  1.3769 -1.8676  1.6836
 6196TIP3   OH218593   3.639   0.392   4.006 -0.2052 -0.3456  0.1733
 6196TIP3    H118594   3.697   0.467   4.020 -0.0454 -0.1055 -1.6028
 6196TIP3    H218595   3.554   0.421   4.040  0.1479  0.1716  0.6319
 6197TIP3   OH218596   2.318   4.056   0.278 -0.2353  0.1993 -0.1035
 6197TIP3    H118597   2.365   4.093   0.203 -2.0584 -1.7335 -2.3677
 6197TIP3    H218598   2.341   3.963   0.278 -0.3572  0.1342  1.7305
 6198TIP3   OH218599   0.812   2.160   2.634 -0.2918 -0.2102 -0.0833
 6198TIP3    H118600   0.862   2.182   2.713 -0.8235  0.7073  0.0088
 6198TIP3    H218601   0.779   2.244   2.602 -0.0463 -0.5727 -1.3190
 6199TIP3   OH218602   1.257   4.311   2.095  0.3707 -0.1825 -0.0476
 6199TIP3    H118603   1.172   4.304   2.052 -0.1446 -0.7417  1.0060
 6199TIP3    H218604   1.270   4.224   2.135  0.5841  0.4526  1.3206
 6200TIP3   OH218605   2.809   4.237   2.354  0.3913  0.3969  0.8142
 6200TIP3    H118606   2.887   4.217   2.406  0.7918  3.0137  1.3713
 6200TIP3    H218607   2.816   4.331   2.336 -2.2290  0.5425  0.1410
 6201TIP3   OH218608   0.478   0.534   3.867  0.2386 -0.1447  0.2592
 6201TIP3    H118609   0.405   0.563   3.922  1.0707 -0.9802  1.8712
 6201TIP3    H218610   0.439   0.469   3.809 -0.4333 -0.1498  0.6951
 6202TIP3   OH218611   6.062   0.697   2.689  0.6121 -0.0082  0.3754
 6202TIP3    H118612   6.089   0.636   2.620  0.0305 -1.0055  1.0030
 6202TIP3    H218613   6.111   0.777   2.671  1.7904 -0.8262 -0.1859
 6203TIP3   OH218614   1.429   4.192   4.436 -0.3664  0.5043 -0.1481
 6203TIP3    H118615   1.338   4.181   4.463 -0.3723  0.7062 -0.0834
 6203TIP3    H218616   1.458   4.272   4.481 -0.1257  0.3797 -0.0819
 6204TIP3   OH218617   0.883   1.117   2.122 -0.3931  0.2011  0.3569
 6204TIP3    H118618   0.849   1.202   2.152 -0.1176  0.8757 -1.1491
 6204TIP3    H218619   0.912   1.134   2.032 -1.6355 -1.8358 -0.4901
 6205TIP3   OH218620   0.792   3.896   0.131 -0.2486  0.0846  0.2570
 6205TIP3    H118621   0.722   3.845   0.089  0.2590 -0.7469  0.4025
 6205TIP3    H218622   0.746   3.949   0.196 -0.8047 -0.0794  0.0109
 6206TIP3   OH218623   3.590   2.224   2.518  0.3446 -0.2487  0.0259
 6206TIP3    H118624   3.678   2.200   2.547 -0.1718 -1.5842  0.5905
 6206TIP3    H218625   3.603   2.295   2.456  1.7539  0.1815  0.7769
 6207TIP3   OH218626   3.794   5.644   2.408  0.1540  0.0050 -0.1533
 6207TIP3    H118627   3.781   5.571   2.469  1.7593 -0.4830 -0.3401
 6207TIP3    H218628   3.879   5.681   2.434 -0.6749  1.8964 -0.0013
 6208TIP3   OH218629   0.886   0.017   3.637 -0.6628  0.5395 -0.2522
 6208TIP3    H118630   0.848   0.105   3.643  0.5241  1.0603 -0.0099
 6208TIP3    H218631   0.973   0.031   3.598 -0.9782 -0.6929 -1.4796
 6209TIP3   OH218632   1.519   4.517   3.641 -0.0561 -0.0074  0.4471
 6209TIP3    H118633   1.570   4.594   3.664  1.3870 -0.9080  0.3676
 6209TIP3    H218634   1.509   4.522   3.546  0.6825 -0.2722  0.3437
 6210TIP3   OH218635   0.404   2.126   2.126 -0.3200 -0.0413  0.7210
 6210TIP3    H118636   0.347   2.161   2.057  2.9875  1.0200 -1.7476
 6210TIP3    H218637   0.412   2.033   2.105  0.3164  0.1885 -0.1276
 6211TIP3   OH218638   3.022   2.728   5.056  0.1306 -0.1346  0.2705
 6211TIP3    H118639   3.057   2.817   5.056 -2.2795  0.9278 -0.4817
 6211TIP3    H218640   2.928   2.740   5.072 -0.1401 -2.6265  0.9491
 6212TIP3   OH218641   4.997   0.263   3.007 -0.7488  0.5007 -0.1201
 6212TIP3    H118642   4.926   0.237   3.065 -0.5921 -0.9951 -0.5522
 6212TIP3    H218643   5.077   0.239   3.054 -0.5929  0.2887 -0.4893
 6213TIP3   OH218644   5.548   2.370   3.583 -0.2393 -0.0108  0.1471
 6213TIP3    H118645   5.591   2.338   3.504 -0.1689 -0.9529  0.5465
 6213TIP3    H218646   5.466   2.409   3.552  0.0681  0.1720 -0.4455
 6214TIP3   OH218647   2.985   1.593   0.451  0.2419  0.2415 -0.7172
 6214TIP3    H118648   2.907   1.555   0.412  0.1483  0.2591 -0.5487
 6214TIP3    H218649   3.049   1.594   0.380  0.1137  0.1571 -0.8354
 6215TIP3   OH218650   2.290   3.576   0.619 -0.3779 -0.4845 -0.0174
 6215TIP3    H118651   2.363   3.604   0.564 -0.0592 -1.1887  0.0340
 6215TIP3    H218652   2.214   3.621   0.582 -0.0214 -0.2485 -0.4766
 6216TIP3   OH218653   4.962   1.005   3.034 -0.2763  0.2835  0.1019
 6216TIP3    H118654   4.998   0.917   3.022 -1.3193 -0.0481 -0.7751
 6216TIP3    H218655   4.933   1.031   2.946 -2.7484  0.2560  0.8343
 6217TIP3   OH218656   4.689   5.590   0.208 -0.3564 -0.5108 -0.3269
 6217TIP3    H118657   4.773   5.556   0.238  0.2094  0.6488 -0.5581
 6217TIP3    H218658   4.624   5.537   0.254  0.4872 -1.4315 -0.1546
 6218TIP3   OH218659   6.031   1.390   2.685 -0.4604  0.0263  0.7658
 6218TIP3    H118660   6.005   1.458   2.623  3.4413  0.8526 -0.2328
 6218TIP3    H218661   6.049   1.438   2.766 -0.5060 -0.2870  0.9605
 6219TIP3   OH218662   2.808   3.347   0.251  0.5583 -0.0036 -0.5734
 6219TIP3    H118663   2.864   3.289   0.199  0.7185  0.7964 -1.3320
 6219TIP3    H218664   2.815   3.314   0.340  1.4053 -0.5637 -0.8331
 6220TIP3   OH218665   0.824   5.239   0.259  0.1162  0.1590  0.3818
 6220TIP3    H118666   0.891   5.176   0.233  0.0821  0.1046  0.4268
 6220TIP3    H218667   0.865   5.324   0.244  0.5443  0.1270  1.2968
 6221TIP3   OH218668   0.771   2.949   0.787  0.6666 -0.4260  0.0347
 6221TIP3    H118669   0.680   2.967   0.761  0.4063 -0.8211  0.6437
 6221TIP3    H218670   0.766   2.864   0.832  1.2739 -0.2548  0.4325
 6222TIP3   OH218671   0.109   3.098   5.179 -0.3155  0.3705  0.3580
 6222TIP3    H118672   0.055   3.128   5.106 -0.7180 -0.7261  0.1810
 6222TIP3    H218673   0.174   3.041   5.137 -0.2096  0.1721  0.7932
 6223TIP3   OH218674   5.613   5.645   2.560  0.1670 -0.2443 -0.6247
 6223TIP3    H118675   5.626   5.560   2.517 -1.1628 -2.1546  2.4079
 6223TIP3    H218676   5.676   5.644   2.633 -0.1788  1.1980 -0.2832
 6224TIP3   OH218677   6.131   5.584   5.054 -0.5203 -0.1991 -0.0931
 6224TIP3    H118678   6.092   5.575   4.967  0.1991  0.3169 -0.4893
 6224TIP3    H218679   6.099   5.508   5.103 -1.7180  0.0263 -0.4926
 6225TIP3   OH218680   1.162   5.550   2.542  0.0507  0.0459  0.1064
 6225TIP3    H118681   1.070   5.573   2.528  0.4664  0.5112 -2.2557
 6225TIP3    H218682   1.210   5.606   2.481  1.7036 -1.8937 -0.4606
 6226TIP3   OH218683   1.356   2.577   0.247 -0.0572 -0.4693 -0.4623
 6226TIP3    H118684   1.359   2.495   0.297 -0.3287  0.3308  0.9322
 6226TIP3    H218685   1.395   2.642   0.306 -0.3729  0.5100 -1.3125
 6227TIP3   OH218686   3.352   5.529   4.378 -0.2168  0.3213  0.2075
 6227TIP3    H118687   3.328   5.614   4.342 -0.0030 -0.2448 -1.3648
 6227TIP3    H218688   3.404   5.488   4.309 -2.1193 -1.9449 -0.0268
 6228TIP3   OH218689   3.344   4.604   4.091 -0.4547 -0.6328  0.1141
 6228TIP3    H118690   3.309   4.599   4.181  0.7351  1.6625  0.7774
 6228TIP3    H218691   3.307   4.685   4.056 -1.1072 -1.6418 -1.6098
 6229TIP3   OH218692   0.955   4.232   4.060  0.5249  0.0728  0.4529
 6229TIP3    H118693   0.964   4.229   3.964  0.8688 -0.9731  0.5058
 6229TIP3    H218694   1.044   4.244   4.092  0.2212  2.5534  0.6202
 6230TIP3   OH218695   3.440   1.164   3.674 -0.1381  0.0342 -0.5804
 6230TIP3    H118696   3.517   1.173   3.730 -2.1214 -0.4797  2.5142
 6230TIP3    H218697   3.438   1.071   3.651 -0.0753 -0.0464 -0.2664
 6231TIP3   OH218698   5.551   1.236   4.072  0.2702  0.1301 -0.2940
 6231TIP3    H118699   5.576   1.322   4.039 -0.5051  0.1266 -0.9071
 6231TIP3    H218700   5.625   1.208   4.125  0.4398  1.2716  0.0917
 6232TIP3   OH218701   0.138   2.383   1.874 -0.6407 -0.1615 -0.2099
 6232TIP3    H118702   0.109   2.461   1.826 -1.6627 -0.2048  0.3127
 6232TIP3    H218703   0.232   2.381   1.861 -0.5475  1.3359  0.0006
 6233TIP3   OH218704   3.193   0.282   3.347  0.1784 -0.2027  0.2992
 6233TIP3    H118705   3.183   0.305   3.255 -0.5236  0.2558  0.4804
 6233TIP3    H218706   3.184   0.187   3.349  2.1660 -0.4432 -0.3417
 6234TIP3   OH218707   2.288   4.994   4.769 -0.2690 -0.5602  0.3796
 6234TIP3    H118708   2.336   4.914   4.791 -0.3655 -0.3561  1.3735
 6234TIP3    H218709   2.355   5.062   4.764 -0.1880 -0.6871 -0.4579
 6235TIP3   OH218710   2.848   1.130   4.644 -0.6202 -0.2746 -0.2007
 6235TIP3    H118711   2.869   1.189   4.572 -0.7551 -0.2350 -0.2066
 6235TIP3    H218712   2.931   1.086   4.663 -0.4452  0.1412  0.0128
 6236TIP3   OH218713   5.447   4.253   1.417  0.2863  0.2831  0.4659
 6236TIP3    H118714   5.455   4.254   1.513  1.9652 -1.4942  0.4019
 6236TIP3    H218715   5.536   4.238   1.386  0.0554  2.4399 -1.4959
 6237TIP3   OH218716   3.862   0.776   2.616 -0.2096 -0.5740 -0.3875
 6237TIP3    H118717   3.931   0.711   2.612 -0.3022 -0.6021 -2.1352
 6237TIP3    H218718   3.788   0.736   2.570 -0.7484  0.1891 -0.2104
 6238TIP3   OH218719   5.315   4.265   2.703  0.1079  0.0277 -0.1617
 6238TIP3    H118720   5.353   4.331   2.761  1.7384  0.3570 -1.5304
 6238TIP3    H218721   5.268   4.206   2.762  2.0500  0.1000  1.5767
 6239TIP3   OH218722   0.038   3.200   0.640 -0.5956  0.1488  0.1400
 6239TIP3    H118723  -0.027   3.233   0.702  0.7365  1.2780  0.9824
 6239TIP3    H218724  -0.008   3.200   0.556 -1.4510  1.7623  0.5582
 6240TIP3   OH218725   2.561   3.664   0.057  0.4444  0.2509  0.3168
 6240TIP3    H118726   2.510   3.669  -0.024  0.2637 -1.5082  0.2835
 6240TIP3    H218727   2.613   3.585   0.047  1.8926  1.0709  1.1091
 6241TIP3   OH218728   0.683   3.683   2.505  0.2285 -0.2504 -0.0485
 6241TIP3    H118729   0.713   3.675   2.414  0.8296 -0.1290  0.1315
 6241TIP3    H218730   0.607   3.625   2.510 -0.5786  0.6901 -0.9454
 6242TIP3   OH218731   0.487   2.821   2.021 -0.3732  0.5156  1.0307
 6242TIP3    H118732   0.399   2.848   2.049 -0.8062  0.8790 -0.5286
 6242TIP3    H218733   0.472   2.777   1.937  0.8055 -0.7384  1.4505
 6243TIP3   OH218734   6.234   0.643   4.679  0.1758  0.4307 -0.3151
 6243TIP3    H118735   6.163   0.614   4.623  0.5534  0.3156 -0.7384
 6243TIP3    H218736   6.225   0.591   4.759  1.5853 -1.8135 -1.5222
 6244TIP3   OH218737   2.992   4.128   2.524  0.1430 -0.0881  0.2585
 6244TIP3    H118738   3.030   4.042   2.537  0.2764 -0.3139 -1.4054
 6244TIP3    H218739   2.995   4.169   2.610  0.2833 -1.6492  1.0297
 6245TIP3   OH218740   2.156   4.239   4.094 -0.1939 -0.3254 -0.2657
 6245TIP3    H118741   2.124   4.274   4.177  0.3305 -0.4797  0.0010
 6245TIP3    H218742   2.095   4.275   4.029 -2.0593 -2.0860  0.4021
 6246TIP3   OH218743   4.265   2.562   3.947 -0.3177 -0.2966  0.0390
 6246TIP3    H118744   4.183   2.530   3.986 -0.1816 -0.4654  0.1933
 6246TIP3    H218745   4.251   2.555   3.853  0.1368 -1.9636  0.0644
 6247TIP3   OH218746   4.235   0.609   4.033 -0.1466 -0.1122 -0.0898
 6247TIP3    H118747   4.317   0.599   4.081  0.3197  0.9564 -0.6144
 6247TIP3    H218748   4.187   0.676   4.082 -0.3109 -0.0850 -0.2873
 6248TIP3   OH218749   2.118   3.874   0.562 -0.3346 -0.0085  0.5267
 6248TIP3    H118750   2.120   3.880   0.657  1.0102  1.2479  0.4508
 6248TIP3    H218751   2.144   3.961   0.531  1.7370 -1.0722 -0.9588
 6249TIP3   OH218752   5.737   1.147   0.116 -0.6372  0.6349  0.2909
 6249TIP3    H118753   5.654   1.188   0.139  0.3861  2.5491  0.8416
 6249TIP3    H218754   5.718   1.053   0.111 -3.0559  1.1283 -0.7855
 6250TIP3   OH218755   0.784   2.711   0.179  0.1484 -0.3961  0.3757
 6250TIP3    H118756   0.839   2.740   0.107  0.0040  0.3518  0.5570
 6250TIP3    H218757   0.729   2.642   0.142  0.1535 -0.0935 -0.1951
 6251TIP3   OH218758   3.567   1.544   1.174  0.4363  0.2897  0.2679
 6251TIP3    H118759   3.637   1.529   1.237  1.7941 -1.1519 -1.4882
 6251TIP3    H218760   3.595   1.621   1.124 -0.1079  0.7685  0.6838
 6252TIP3   OH218761   2.876   4.662   1.212 -0.1644  0.2758 -0.4943
 6252TIP3    H118762   2.969   4.686   1.206  0.0854  0.1929  1.9155
 6252TIP3    H218763   2.839   4.725   1.274 -2.1992  1.4186 -2.6953
 6253TIP3   OH218764   0.804   4.968   2.199  0.3596  0.1386 -0.7585
 6253TIP3    H118765   0.886   4.924   2.221 -0.9853 -2.0139  0.2629
 6253TIP3    H218766   0.777   4.929   2.116 -1.2553 -1.7249  0.5544
 6254TIP3   OH218767   2.646   1.245   1.393 -0.3289  0.3523 -0.3655
 6254TIP3    H118768   2.585   1.173   1.405 -1.1991  1.2763  1.0774
 6254TIP3    H218769   2.685   1.257   1.480 -1.0968  2.3806 -0.2676
 6255TIP3   OH218770   1.612   1.389   4.862 -0.5759 -0.5031 -0.2400
 6255TIP3    H118771   1.604   1.316   4.800 -1.7022 -0.7319  0.1531
 6255TIP3    H218772   1.704   1.415   4.857 -0.0103 -2.3247  0.0523
 6256TIP3   OH218773   5.736   5.735   0.846  0.0215  0.3259  0.5058
 6256TIP3    H118774   5.730   5.734   0.941 -0.9900  2.2835  0.5228
 6256TIP3    H218775   5.693   5.817   0.820  1.6531  0.6294 -1.5374
 6257TIP3   OH218776   2.004   5.547   2.642 -0.0756 -0.3060 -0.3550
 6257TIP3    H118777   1.977   5.584   2.726  0.8947 -1.2737  0.4209
 6257TIP3    H218778   1.929   5.493   2.615  0.1362 -1.1133  0.6048
 6258TIP3   OH218779   2.354   4.192   4.374  0.2508 -0.0784  0.0296
 6258TIP3    H118780   2.321   4.140   4.300  0.2811 -0.3508  0.2053
 6258TIP3    H218781   2.311   4.277   4.364  0.8686  0.1488 -0.7525
 6259TIP3   OH218782   4.169   4.155   5.134  0.3351 -0.1146  0.1196
 6259TIP3    H118783   4.108   4.214   5.179 -0.2288 -1.2164  0.8509
 6259TIP3    H218784   4.232   4.213   5.092 -1.3288  1.0881 -0.8328
 6260TIP3   OH218785   4.228   1.096   2.168 -0.1436  0.4023  0.2288
 6260TIP3    H118786   4.263   1.173   2.124  0.3006 -0.1409 -0.3656
 6260TIP3    H218787   4.168   1.057   2.105 -0.5959  0.4128  0.6388
 6261TIP3   OH218788   1.358   1.971   2.684 -0.2083 -0.1494  0.5483
 6261TIP3    H118789   1.304   1.968   2.763 -1.1100 -0.6300 -0.0780
 6261TIP3    H218790   1.300   1.945   2.613  0.5962  0.2623 -0.2876
 6262TIP3   OH218791   0.363   3.491   5.133 -0.4362  0.3344  0.1090
 6262TIP3    H118792   0.369   3.532   5.046  0.0137 -1.8366 -0.9682
 6262TIP3    H218793   0.415   3.411   5.124 -0.7243 -0.1429  2.2896
 6263TIP3   OH218794   6.298   5.045   3.009 -0.1489 -0.2068  0.1869
 6263TIP3    H118795   6.337   4.994   2.938  1.6501  2.0386 -0.5343
 6263TIP3    H218796   6.259   5.121   2.965 -0.7023  0.2456  1.4255
 6264TIP3   OH218797   5.639   1.470   3.940 -0.5490  0.0546  0.1501
 6264TIP3    H118798   5.653   1.437   3.851  1.5902  1.0210  0.0758
 6264TIP3    H218799   5.578   1.543   3.929 -1.5583 -0.8122 -0.2762
 6265TIP3   OH218800   3.958   4.376   1.900 -0.4029 -0.6335  0.3718
 6265TIP3    H118801   4.005   4.344   1.976 -0.4112 -1.2261  0.1356
 6265TIP3    H218802   3.867   4.383   1.929 -0.5702 -1.7314  0.1727
 6266TIP3   OH218803   2.997   2.098   1.262 -0.3596  0.3372  0.8410
 6266TIP3    H118804   3.080   2.054   1.243 -0.7719 -0.0251 -0.2261
 6266TIP3    H218805   2.930   2.038   1.228 -0.9668  1.4402  0.0065
 6267TIP3   OH218806   6.299   4.385   3.345  0.2540 -0.6853  0.2397
 6267TIP3    H118807   6.308   4.336   3.426  0.9024  0.0725  0.6416
 6267TIP3    H218808   6.387   4.388   3.308  0.0899 -0.4530 -0.1497
 6268TIP3   OH218809   0.886   0.694   0.147 -0.2252  0.5833 -0.6457
 6268TIP3    H118810   0.806   0.718   0.099 -0.9502 -1.3321 -0.4797
 6268TIP3    H218811   0.856   0.632   0.213  1.2006  1.0237  0.4582
 6269TIP3   OH218812   6.326   0.939   0.587  0.7215  0.3658  0.3839
 6269TIP3    H118813   6.327   1.033   0.605  0.7207  0.3128  0.6644
 6269TIP3    H218814   6.418   0.915   0.581  0.7208  0.6108 -0.9055
 6270TIP3   OH218815   4.719   4.423   0.768  0.5704 -0.1184  0.0565
 6270TIP3    H118816   4.699   4.357   0.834  0.0181 -0.5044 -0.4962
 6270TIP3    H218817   4.635   4.465   0.748  0.9712  1.0431  0.6965
 6271TIP3   OH218818   3.542   1.093   2.793  0.1129  0.1367  0.4339
 6271TIP3    H118819   3.580   1.056   2.713  0.4142  0.9383  0.2018
 6271TIP3    H218820   3.546   1.188   2.780 -0.9724  0.2518  0.8697
 6272TIP3   OH218821   3.421   1.990   0.532  0.6723  0.2228  0.1758
 6272TIP3    H118822   3.441   2.034   0.449 -0.4965  0.5573  0.0526
 6272TIP3    H218823   3.493   1.927   0.544  0.7726  0.0432 -1.1843
 6273TIP3   OH218824   0.286   0.316   2.691 -0.3263  0.0655 -0.0659
 6273TIP3    H118825   0.259   0.370   2.617  2.5706 -2.1095 -3.0160
 6273TIP3    H218826   0.382   0.317   2.688 -0.1098 -3.0602  1.2656
 6274TIP3   OH218827   3.885   1.267   4.472 -0.6024  0.1136  0.1455
 6274TIP3    H118828   3.876   1.335   4.539 -1.8174  1.3711 -1.2170
 6274TIP3    H218829   3.821   1.291   4.405  1.6384 -0.1710 -2.2507
 6275TIP3   OH218830   5.417   2.985   2.138  0.1404 -0.0923 -0.3459
 6275TIP3    H118831   5.374   2.907   2.101  0.4128  0.2122 -1.3507
 6275TIP3    H218832   5.359   3.014   2.208 -0.1705 -0.9631 -0.2303
 6276TIP3   OH218833   0.767   0.469   1.777 -0.9002  0.1965  0.3245
 6276TIP3    H118834   0.749   0.488   1.869 -1.5801 -1.7649  0.6495
 6276TIP3    H218835   0.681   0.451   1.738 -0.7696  2.1342 -1.0345
 6277TIP3   OH218836   0.128   1.450   3.224 -0.4490  0.4631  0.3281
 6277TIP3    H118837   0.186   1.423   3.295 -1.0916  1.4047  1.2491
 6277TIP3    H218838   0.186   1.488   3.158  0.1553 -0.4374  0.3302
 6278TIP3   OH218839   3.061   0.326   2.276  0.1864  0.9923 -0.1886
 6278TIP3    H118840   3.072   0.377   2.356  0.2588 -0.0472  0.4679
 6278TIP3    H218841   2.987   0.369   2.231 -0.1355  1.3174  0.6352
 6279TIP3   OH218842   4.653   5.632   2.982  0.0724 -0.2183 -0.0518
 6279TIP3    H118843   4.640   5.619   2.888 -0.1851 -0.5718  0.0312
 6279TIP3    H218844   4.681   5.546   3.015  1.9697  0.3430 -0.1035
 6280TIP3   OH218845   5.253   3.635   0.762  0.2363  0.1334  0.4343
 6280TIP3    H118846   5.205   3.561   0.799  1.0895  0.1483  1.6229
 6280TIP3    H218847   5.276   3.607   0.674 -0.8403 -0.3697  0.2984
 6281TIP3   OH218848   2.130   1.819   3.846 -0.1006  0.2428 -0.3430
 6281TIP3    H118849   2.036   1.809   3.830 -0.7279  2.6179  1.2710
 6281TIP3    H218850   2.168   1.827   3.759 -1.3225 -1.0914 -1.0477
 6282TIP3   OH218851   5.024   2.117   4.238 -0.1767 -0.1821  0.0096
 6282TIP3    H118852   5.028   2.210   4.218 -0.2582 -0.2734 -0.4527
 6282TIP3    H218853   5.074   2.107   4.319 -2.2786  0.6639  1.5199
 6283TIP3   OH218854   6.039   4.451   1.336  0.1206 -0.0909  0.4670
 6283TIP3    H118855   6.135   4.455   1.343  0.0277  1.2670  1.2200
 6283TIP3    H218856   6.017   4.363   1.368  1.1757 -0.8141 -0.6977
 6284TIP3   OH218857   0.193   4.655   3.137  0.2724  0.2499  0.2694
 6284TIP3    H118858   0.270   4.598   3.138  0.8862  1.0319 -0.4253
 6284TIP3    H218859   0.229   4.744   3.130 -0.7160  0.5558 -1.5229
 6285TIP3   OH218860   0.751   2.214   3.413  0.3630 -0.1124 -0.0301
 6285TIP3    H118861   0.775   2.298   3.374 -0.1713 -0.0652 -0.2588
 6285TIP3    H218862   0.835   2.167   3.421  0.8515  0.9506  1.3570
 6286TIP3   OH218863   1.633   0.706   3.782 -0.0495  0.1115  0.1219
 6286TIP3    H118864   1.539   0.718   3.770  0.4491  2.9328 -1.8044
 6286TIP3    H218865   1.640   0.628   3.837 -3.4772 -0.2992  0.1857
 6287TIP3   OH218866   1.491   5.922   3.768 -0.2294 -0.3414  0.0922
 6287TIP3    H118867   1.461   5.972   3.693 -1.0840 -1.2250 -0.1718
 6287TIP3    H218868   1.533   5.844   3.731  0.5333 -0.1488  0.5103
 6288TIP3   OH218869   6.011   4.327   0.527 -0.2982 -0.0629  0.1267
 6288TIP3    H118870   5.970   4.266   0.589 -0.5439  0.1823  0.2074
 6288TIP3    H218871   5.962   4.408   0.538  0.1555  0.2079  0.1547
 6289TIP3   OH218872   1.759   0.962   0.453  0.4733  0.3796  0.2993
 6289TIP3    H118873   1.787   0.893   0.393 -0.5131 -1.0287  1.3884
 6289TIP3    H218874   1.709   0.917   0.521  0.5567  2.0522  1.5661
 6290TIP3   OH218875   5.230   1.831   4.711 -0.3079  0.1454  0.0809
 6290TIP3    H118876   5.180   1.846   4.631 -0.5656  1.4038  0.4579
 6290TIP3    H218877   5.243   1.919   4.749  1.3784 -0.2242  0.4771
 6291TIP3   OH218878   6.313   2.476   0.235  0.2582  0.2243 -0.1806
 6291TIP3    H118879   6.302   2.427   0.316  2.2800 -0.2481 -0.1557
 6291TIP3    H218880   6.230   2.522   0.224  0.3156  1.2635  2.7953
 6292TIP3   OH218881   1.319   5.463   3.472  0.7318  0.6438  0.3883
 6292TIP3    H118882   1.334   5.426   3.559 -1.7259  0.4488  0.8150
 6292TIP3    H218883   1.265   5.397   3.428  0.4589  1.5367 -0.6364
 6293TIP3   OH218884   4.519   0.618   4.642  0.7320  0.2625  0.2750
 6293TIP3    H118885   4.525   0.643   4.734  2.1503 -1.1163  0.5985
 6293TIP3    H218886   4.425   0.620   4.623  0.4878  1.4183  1.4848
 6294TIP3   OH218887   3.715   1.446   2.498  0.4394  0.4703 -0.1132
 6294TIP3    H118888   3.655   1.377   2.529  3.1331 -2.3869 -0.7509
 6294TIP3    H218889   3.745   1.415   2.413  2.3269  2.1189 -0.1151
 6295TIP3   OH218890   3.819   0.886   2.874  0.2635 -0.1710  0.3356
 6295TIP3    H118891   3.899   0.867   2.922  0.9766 -0.2319 -0.8382
 6295TIP3    H218892   3.830   0.843   2.789 -0.3339  1.0956 -0.4212
 6296TIP3   OH218893   5.839   5.187   1.837  0.1160 -0.9472 -0.6161
 6296TIP3    H118894   5.913   5.135   1.808  0.2455 -0.4549 -1.1774
 6296TIP3    H218895   5.820   5.246   1.764 -0.4801 -0.6939 -0.2681
 6297TIP3   OH218896   5.481   4.182   0.901 -0.0378 -0.1575  0.7212
 6297TIP3    H118897   5.556   4.146   0.949  0.1851  0.6443  1.0053
 6297TIP3    H218898   5.406   4.166   0.959  0.3939  1.8115  1.9242
 6298TIP3   OH218899   3.393   2.628   1.316  0.1409 -0.0106 -0.5134
 6298TIP3    H118900   3.411   2.609   1.224 -1.5142 -0.3350 -0.8028
 6298TIP3    H218901   3.302   2.658   1.317  0.2765  0.4364  0.9630
 6299TIP3   OH218902   5.457   0.709   4.127  0.4524  0.1175  0.0509
 6299TIP3    H118903   5.376   0.758   4.111  0.8876  0.8413  0.0338
 6299TIP3    H218904   5.470   0.715   4.221  1.7563  2.0703 -0.2125
 6300TIP3   OH218905   6.117   0.142   5.022 -0.1620  0.2151 -0.8314
 6300TIP3    H118906   6.185   0.202   4.992 -1.7494  2.2467 -0.6482
 6300TIP3    H218907   6.078   0.186   5.097  0.2123 -2.2747  0.9504
 6301TIP3   OH218908   5.615   0.265   2.863 -0.0573  0.2087 -0.0102
 6301TIP3    H118909   5.599   0.215   2.943  2.8583 -0.6291  0.1430
 6301TIP3    H218910   5.641   0.352   2.894 -0.0133  0.2261 -0.0964
 6302TIP3   OH218911   2.312   4.120   0.543 -0.0737  0.2123  0.2934
 6302TIP3    H118912   2.268   4.132   0.459  0.0832 -1.5747 -0.0992
 6302TIP3    H218913   2.405   4.134   0.524  0.2863 -2.4997 -0.4813
 6303TIP3   OH218914   1.282   4.729   4.639 -0.1929  0.3915  0.1586
 6303TIP3    H118915   1.364   4.691   4.671 -0.4913 -0.0256  0.4273
 6303TIP3    H218916   1.295   4.824   4.647  0.7499  0.3861 -1.0098
 6304TIP3   OH218917   5.929   1.814   1.230 -0.5324  0.0971  0.5513
 6304TIP3    H118918   5.877   1.735   1.239  0.3755 -0.9616 -2.4547
 6304TIP3    H218919   6.020   1.784   1.232 -0.1751  0.8450 -1.5847
 6305TIP3   OH218920   5.098   3.481   1.745 -0.7050  0.3292  0.0703
 6305TIP3    H118921   5.137   3.568   1.744 -2.1431  1.0586  2.2351
 6305TIP3    H218922   5.156   3.429   1.689  1.8774  1.9536  1.0549
 6306TIP3   OH218923   0.673   0.873   4.121  0.1626 -0.3465  0.1448
 6306TIP3    H118924   0.743   0.855   4.058  1.4583  1.5888  0.9293
 6306TIP3    H218925   0.670   0.794   4.176  0.8936 -0.9411 -0.6372
 6307TIP3   OH218926   1.808   5.577   4.885  0.1546 -0.1490 -0.4327
 6307TIP3    H118927   1.727   5.578   4.834  0.5186 -0.8222 -1.0387
 6307TIP3    H218928   1.877   5.562   4.820  0.9591  1.9927 -0.1576
 6308TIP3   OH218929   0.470   4.423   4.248 -0.0559 -0.2416 -0.1425
 6308TIP3    H118930   0.542   4.418   4.185  0.1763  1.0384  0.0135
 6308TIP3    H218931   0.436   4.512   4.239 -1.1302 -0.5933  0.3351
 6309TIP3   OH218932   1.842   3.529   3.826  0.1564 -0.1537 -0.3408
 6309TIP3    H118933   1.888   3.590   3.884  1.5929  0.2443 -1.8088
 6309TIP3    H218934   1.853   3.567   3.739 -3.4702  0.2181 -0.7797
 6310TIP3   OH218935   2.714   3.715   2.110  0.1073 -0.2960  0.5179
 6310TIP3    H118936   2.803   3.689   2.087 -0.2586 -0.7251 -0.4701
 6310TIP3    H218937   2.725   3.776   2.182  1.2846  0.6568 -0.4263
 6311TIP3   OH218938   3.858   5.391   0.568 -0.1529  0.0035  0.3765
 6311TIP3    H118939   3.921   5.458   0.539  2.1304 -1.1038  2.3938
 6311TIP3    H218940   3.850   5.332   0.494  1.5564 -0.0264  0.1702
 6312TIP3   OH218941   0.510   2.998   1.101 -0.2166  0.1891  0.6255
 6312TIP3    H118942   0.523   2.924   1.159 -0.4140  0.4670  1.0278
 6312TIP3    H218943   0.420   3.025   1.116 -0.2749  0.2511  0.1779
 6313TIP3   OH218944   2.284   5.933   5.170  0.0808  0.1337  0.2748
 6313TIP3    H118945   2.291   5.981   5.088  0.1164  0.9495  0.7400
 6313TIP3    H218946   2.328   5.850   5.154  0.7834  0.6075 -0.2857
 6314TIP3   OH218947   4.691   5.613   0.542  0.0483  0.0723  0.8074
 6314TIP3    H118948   4.690   5.618   0.638 -0.1611 -0.7082  0.8518
 6314TIP3    H218949   4.746   5.537   0.523 -2.3136 -1.6341  0.4144
 6315TIP3   OH218950   3.515   1.252   0.116 -0.5277  0.2358  0.6946
 6315TIP3    H118951   3.426   1.244   0.152 -0.4152  0.4258  1.0212
 6315TIP3    H218952   3.555   1.167   0.133 -0.4314  0.3655  1.1514
 6316TIP3   OH218953   5.096   2.630   4.470 -0.0512 -1.1946  0.5439
 6316TIP3    H118954   5.148   2.709   4.455 -0.5207 -1.1996 -1.3984
 6316TIP3    H218955   5.134   2.591   4.549 -0.6107  1.5883  2.3450
 6317TIP3   OH218956   1.797   4.619   0.191  0.1854 -0.3157  0.4578
 6317TIP3    H118957   1.755   4.643   0.108  0.0584 -1.0364  0.3006
 6317TIP3    H218958   1.744   4.661   0.258 -0.5915 -0.9210  0.2393
 6318TIP3   OH218959   4.154   3.034   1.447 -0.3342  0.0488  0.4708
 6318TIP3    H118960   4.084   2.999   1.503 -1.5532  1.5643 -0.0426
 6318TIP3    H218961   4.140   3.129   1.447  0.8460  0.2537 -0.8099
 6319TIP3   OH218962   3.210   2.915   4.946  0.4368  0.4938  0.7502
 6319TIP3    H118963   3.214   2.931   4.852  0.7050 -1.3996  0.4124
 6319TIP3    H218964   3.188   3.001   4.983 -0.6330  1.0711 -1.0881
 6320TIP3   OH218965   1.541   4.702   4.725 -0.8563 -1.0792  0.7587
 6320TIP3    H118966   1.584   4.772   4.774 -0.7268 -1.0698  0.6338
 6320TIP3    H218967   1.609   4.670   4.666 -1.5976  0.3972 -1.0067
 6321TIP3   OH218968   5.975   5.215   4.955 -0.1684 -0.7551 -0.3653
 6321TIP3    H118969   5.975   5.311   4.957  0.6654 -0.7613  1.0250
 6321TIP3    H218970   5.931   5.189   5.036 -0.1246 -1.5566 -0.5930
 6322TIP3   OH218971   5.533   0.628   3.452 -0.2150  0.0367  0.3207
 6322TIP3    H118972   5.474   0.553   3.451  1.4690 -1.3596 -0.8450
 6322TIP3    H218973   5.514   0.673   3.534 -1.9300 -1.1283  0.6077
 6323TIP3   OH218974   6.379   3.791   0.406 -0.3600  0.7597  0.1207
 6323TIP3    H118975   6.381   3.787   0.310  0.9611  0.0250  0.1665
 6323TIP3    H218976   6.309   3.854   0.425  0.4731  2.2314 -1.3680
 6324TIP3   OH218977   1.000   4.296   1.208 -0.3620  0.7908 -0.0174
 6324TIP3    H118978   0.939   4.225   1.230 -0.4897  0.6729 -0.7026
 6324TIP3    H218979   1.049   4.312   1.288  0.6890 -1.0890 -0.2267
 6325TIP3   OH218980   0.264   2.010   0.015  0.1235 -0.3281  0.3239
 6325TIP3    H118981   0.275   2.021   0.109 -0.5401  0.8491  0.2781
 6325TIP3    H218982   0.171   1.990   0.004 -0.3405  1.8373 -0.2318
 6326TIP3   OH218983   5.587   2.309   3.015 -0.1101 -0.1055 -0.5176
 6326TIP3    H118984   5.629   2.393   3.002  1.0047 -0.6965 -0.8593
 6326TIP3    H218985   5.499   2.320   2.979 -0.1418  1.0389 -0.1188
 6327TIP3   OH218986   4.212   3.671   0.708 -0.4633 -0.2657  0.3380
 6327TIP3    H118987   4.120   3.646   0.717 -0.9732  1.2581 -0.3273
 6327TIP3    H218988   4.211   3.741   0.642  1.5557 -2.3674 -2.0987
 6328TIP3   OH218989   0.665   5.328   1.017 -0.5557 -0.2420 -0.2716
 6328TIP3    H118990   0.683   5.401   0.957 -1.8233 -2.0416 -3.0495
 6328TIP3    H218991   0.740   5.270   1.007  0.8035  0.8824  2.4820
 6329TIP3   OH218992   6.102   2.277   5.052  0.1237  0.3710 -0.3522
 6329TIP3    H118993   6.135   2.313   5.134 -2.6858 -0.1108  1.1154
 6329TIP3    H218994   6.120   2.183   5.058  0.3833  0.4056 -0.5517
 6330TIP3   OH218995   2.176   2.118   5.040  0.3138  0.3948  0.1113
 6330TIP3    H118996   2.115   2.128   4.967  0.6436 -0.9704 -0.3704
 6330TIP3    H218997   2.232   2.045   5.015  2.6485  2.0273  0.2125
 6331TIP3   OH218998   4.449   2.417   0.628 -0.5757  0.0618  0.5557
 6331TIP3    H118999   4.537   2.392   0.601 -0.5251 -1.4155  1.9412
 6331TIP3    H219000   4.409   2.455   0.549 -0.6041 -4.3384 -1.8496
 6332TIP3   OH219001   4.580   5.679   5.172 -0.4336  0.2280 -0.3399
 6332TIP3    H119002   4.586   5.730   5.091  0.3737  0.7127  0.0118
 6332TIP3    H219003   4.537   5.738   5.234  0.9040  0.6835  0.1988
 6333TIP3   OH219004   1.908   4.016   1.646  0.1088  0.0044  0.8987
 6333TIP3    H119005   1.970   3.945   1.663  0.5972  0.4112  0.8620
 6333TIP3    H219006   1.911   4.028   1.551 -0.4785 -0.3737  0.8324
 6334TIP3   OH219007   1.074   3.279   3.721  0.4946 -0.4783  0.2971
 6334TIP3    H119008   1.082   3.344   3.791 -0.6567 -0.3658  0.3340
 6334TIP3    H219009   1.148   3.298   3.663  1.7353 -0.8560  1.6934
 6335TIP3   OH219010   0.884   3.460   1.082  0.0998  0.1752  0.0693
 6335TIP3    H119011   0.890   3.368   1.056  0.6952  0.5276 -1.1195
 6335TIP3    H219012   0.812   3.463   1.145  1.0314 -1.3418  1.2860
 6336TIP3   OH219013   4.591   3.332   3.622  0.0266  0.2162  0.5112
 6336TIP3    H119014   4.512   3.280   3.606  1.8176 -2.4894 -0.2037
 6336TIP3    H219015   4.589   3.400   3.554 -0.3150 -1.5709 -1.3649
 6337TIP3   OH219016   4.410   3.789   0.851  0.0501 -0.2766 -0.8986
 6337TIP3    H119017   4.324   3.752   0.827 -0.2602 -1.3075  1.5512
 6337TIP3    H219018   4.390   3.878   0.879 -0.1713 -0.3862 -0.7025
 6338TIP3   OH219019   1.756   4.122   3.991  0.2327  0.3591 -0.2152
 6338TIP3    H119020   1.697   4.176   4.043  0.7201  1.6234 -0.9334
 6338TIP3    H219021   1.783   4.178   3.918 -0.9069 -1.5393 -2.2109
 6339TIP3   OH219022   1.527   0.132   4.902 -0.1256  0.4741  0.3411
 6339TIP3    H119023   1.562   0.197   4.840 -1.6093  1.3338  0.3442
 6339TIP3    H219024   1.508   0.056   4.848  2.2145 -0.2444  0.4377
 6340TIP3   OH219025   6.216   3.219   1.507 -0.0595  0.4846 -0.0642
 6340TIP3    H119026   6.272   3.261   1.441 -1.1679  1.8113 -0.2066
 6340TIP3    H219027   6.232   3.270   1.587 -0.2943  0.2294  0.1452
 6341TIP3   OH219028   3.208   0.242   1.140  0.0457  0.2167 -0.7853
 6341TIP3    H119029   3.184   0.318   1.192 -0.7210 -0.0749 -0.6946
 6341TIP3    H219030   3.204   0.168   1.201 -1.3518 -0.1989 -1.3348
 6342TIP3   OH219031   2.373   3.514   0.302  0.3440  0.7809 -0.3270
 6342TIP3    H119032   2.278   3.501   0.305  0.2961  0.9989 -0.7684
 6342TIP3    H219033   2.406   3.468   0.378 -0.1987  1.3971  0.2963
 6343TIP3   OH219034   4.398   0.834   4.789  0.1975  0.1036 -0.8254
 6343TIP3    H119035   4.312   0.796   4.771 -0.3670  1.0393 -0.1666
 6343TIP3    H219036   4.379   0.920   4.826  1.3380 -0.6116  1.5970
 6344TIP3   OH219037   2.904   0.673   0.755 -0.6161 -0.0886  0.3733
 6344TIP3    H119038   2.885   0.706   0.667 -0.7385  1.9496  1.1051
 6344TIP3    H219039   2.845   0.722   0.812  1.5614  0.9023  1.9040
 6345TIP3   OH219040   2.273   1.624   1.885  0.0292  0.5156  0.0904
 6345TIP3    H119041   2.227   1.701   1.920 -0.5790 -0.3328  1.2206
 6345TIP3    H219042   2.321   1.589   1.960  1.3469  0.5145 -0.7231
 6346TIP3   OH219043   0.750   2.623   0.670  0.2798 -0.5230  0.0176
 6346TIP3    H119044   0.803   2.546   0.689  1.0382 -0.6634 -2.4045
 6346TIP3    H219045   0.813   2.694   0.657 -0.1200 -0.4379 -1.7725
 6347TIP3   OH219046   2.555   5.518   1.255 -0.6458 -0.1776  0.7209
 6347TIP3    H119047   2.589   5.545   1.170  0.7345 -0.8402  1.0427
 6347TIP3    H219048   2.591   5.581   1.317 -1.2803  0.0345  0.8817
 6348TIP3   OH219049   4.242   3.141   2.433  0.3619 -0.1751 -0.6585
 6348TIP3    H119050   4.250   3.079   2.505  0.2305  0.1174 -0.3904
 6348TIP3    H219051   4.284   3.221   2.465 -2.5590  1.0605  0.3795
 6349TIP3   OH219052   3.222   4.895   0.749  0.2126  0.0556 -0.3137
 6349TIP3    H119053   3.249   4.932   0.834 -0.5487  1.2247 -0.5601
 6349TIP3    H219054   3.190   4.807   0.771  0.0030  0.3483  0.6207
 6350TIP3   OH219055   0.746   5.361   3.775 -0.1205  0.3224 -0.8934
 6350TIP3    H119056   0.723   5.410   3.854  2.5045  1.2004 -0.5657
 6350TIP3    H219057   0.740   5.269   3.800 -0.0410  0.5824  0.1032
 6351TIP3   OH219058   2.488   1.982   0.717  0.4043 -0.3415 -0.3042
 6351TIP3    H119059   2.490   2.001   0.810  1.8493  0.6767 -0.5036
 6351TIP3    H219060   2.442   2.056   0.678  0.2959 -0.4858 -0.4517
 6352TIP3   OH219061   4.884   2.418   3.687  0.1597  0.0362 -0.1392
 6352TIP3    H119062   4.811   2.357   3.694  0.5979 -0.5174 -0.3457
 6352TIP3    H219063   4.934   2.404   3.767 -0.7722  1.5089  0.7537
 6353TIP3   OH219064   4.526   4.043   1.718 -0.1434 -0.0029 -0.1911
 6353TIP3    H119065   4.447   4.077   1.759  1.3771  0.5199  2.5946
 6353TIP3    H219066   4.572   4.120   1.685  0.3832  0.0116  0.5406
 6354TIP3   OH219067   5.527   0.089   3.625 -0.1902  0.1432 -0.1645
 6354TIP3    H119068   5.435   0.094   3.597 -0.2538 -0.3731 -0.0587
 6354TIP3    H219069   5.522   0.075   3.720 -0.0692 -2.4117 -0.4746
 6355TIP3   OH219070   0.678   4.456   1.772  0.1702  0.1007 -0.3737
 6355TIP3    H119071   0.728   4.410   1.839 -0.6741  0.0546  0.2317
 6355TIP3    H219072   0.723   4.435   1.690  1.2697  0.2353  0.1747
 6356TIP3   OH219073   4.888   1.632   0.422 -0.1609  0.3580  0.0448
 6356TIP3    H119074   4.971   1.621   0.468  0.0307 -0.3376 -0.4460
 6356TIP3    H219075   4.855   1.716   0.452  0.6755  0.5985  0.3260
 6357TIP3   OH219076   4.533   4.341   0.135 -0.4171  0.3571 -0.7487
 6357TIP3    H119077   4.479   4.414   0.105  0.6823  0.9650 -1.2923
 6357TIP3    H219078   4.604   4.382   0.184  0.0107 -0.3746 -0.7418
 6358TIP3   OH219079   0.569   3.485   3.435 -0.3377  0.7297  0.0548
 6358TIP3    H119080   0.495   3.443   3.478 -1.2782 -0.1922 -2.2729
 6358TIP3    H219081   0.542   3.495   3.344  2.9197 -1.1134 -1.3127
 6359TIP3   OH219082   4.427   0.064   0.607 -0.2542  0.1544 -0.0006
 6359TIP3    H119083   4.403   0.092   0.695  0.7390  0.2610  0.2511
 6359TIP3    H219084   4.470   0.140   0.568  2.2483 -0.8237  0.6058
 6360TIP3   OH219085   3.272   4.392   2.854 -0.3434  0.7913 -0.5557
 6360TIP3    H119086   3.330   4.460   2.820  1.0482  0.0131  0.1215
 6360TIP3    H219087   3.286   4.395   2.949 -0.0921 -0.5365 -0.5292
 6361TIP3   OH219088   3.565   0.529   4.462  0.3583 -0.0591 -0.3954
 6361TIP3    H119089   3.650   0.549   4.422  1.0797 -1.3632  0.4468
 6361TIP3    H219090   3.501   0.571   4.404  1.5000 -0.1269 -1.7460
 6362TIP3   OH219091   0.299   5.387   1.347  0.0242 -0.5007 -0.5880
 6362TIP3    H119092   0.247   5.348   1.417  1.1246 -0.7542  0.0929
 6362TIP3    H219093   0.294   5.324   1.276  0.5239 -1.1575 -0.0414
 6363TIP3   OH219094   0.759   5.464   4.949 -0.6630  0.1424  0.0533
 6363TIP3    H119095   0.669   5.468   4.917 -0.4618 -1.1036 -0.7069
 6363TIP3    H219096   0.786   5.374   4.934  0.9765  0.6851 -0.4747
 6364TIP3   OH219097   5.814   0.852   1.707 -0.1855  0.3261  0.0363
 6364TIP3    H119098   5.825   0.947   1.718  1.9156  0.1021  0.1201
 6364TIP3    H219099   5.898   0.814   1.733 -1.5921 -1.7599  1.9188
 6365TIP3   OH219100   1.940   1.745   2.865  0.5115  0.0480 -0.0520
 6365TIP3    H119101   1.959   1.681   2.797 -0.0795  0.0878 -0.2543
 6365TIP3    H219102   1.966   1.829   2.828 -2.6719  0.5327 -1.4891
 6366TIP3   OH219103   1.310   4.155   4.863  1.1865  0.1948  0.1175
 6366TIP3    H119104   1.310   4.250   4.876  1.9121  0.1570  0.4539
 6366TIP3    H219105   1.232   4.138   4.810 -0.2493  0.7130  1.9647
 6367TIP3   OH219106   4.172   3.301   1.534  0.2231  0.2334  0.0495
 6367TIP3    H119107   4.233   3.352   1.481 -2.0064  2.1403 -0.8608
 6367TIP3    H219108   4.217   3.290   1.618  2.0934  0.9264 -0.8102
 6368TIP3   OH219109   5.732   5.286   4.418  0.0862 -0.2802 -0.3571
 6368TIP3    H119110   5.646   5.304   4.379 -0.7329 -1.0442  1.0269
 6368TIP3    H219111   5.778   5.370   4.414 -0.9364  0.2895 -0.6040
 6369TIP3   OH219112   0.949   4.645   4.000 -0.7483  0.2439  0.2755
 6369TIP3    H119113   0.986   4.733   3.998  1.4826 -0.6366 -1.5935
 6369TIP3    H219114   0.906   4.635   3.915 -2.0573 -0.0859  0.9560
 6370TIP3   OH219115   5.772   5.985   2.007  0.4121  0.6483  0.2985
 6370TIP3    H119116   5.682   5.986   2.041 -0.2966 -0.5681 -1.3945
 6370TIP3    H219117   5.816   5.920   2.061 -0.3236 -0.2708 -0.1697
 6371TIP3   OH219118   3.511   3.086   2.284 -0.4786 -0.1465 -0.5387
 6371TIP3    H119119   3.425   3.044   2.275  0.3038 -2.5370  1.9208
 6371TIP3    H219120   3.498   3.154   2.350 -0.4907 -0.5533 -0.1168
 6372TIP3   OH219121   6.339   5.239   2.198  0.6910  0.2689  0.3870
 6372TIP3    H119122   6.417   5.183   2.193  0.7056  0.3759 -0.6904
 6372TIP3    H219123   6.280   5.205   2.132 -0.1777  0.2223  1.1639
 6373TIP3   OH219124   1.804   4.524   3.279  0.3769  0.0547  0.2527
 6373TIP3    H119125   1.756   4.442   3.271 -0.2691  0.2369  1.9594
 6373TIP3    H219126   1.736   4.591   3.282  0.8707  0.5952 -0.3852
 6374TIP3   OH219127   3.192   4.257   2.239 -0.8135  0.5164 -0.5308
 6374TIP3    H119128   3.267   4.270   2.180 -0.5289  0.5872 -0.1554
 6374TIP3    H219129   3.220   4.189   2.299 -0.7606  1.0806  0.0932
 6375TIP3   OH219130   0.799   0.295   1.427  0.3669  0.0005 -0.2713
 6375TIP3    H119131   0.769   0.307   1.337 -0.9942  1.3794  0.3166
 6375TIP3    H219132   0.734   0.341   1.481  2.8580  2.1996  1.1711
 6376TIP3   OH219133   0.100   3.105   1.370 -0.5737  1.0695 -1.1007
 6376TIP3    H119134   0.034   3.064   1.313  0.1077  0.3512 -1.3870
 6376TIP3    H219135   0.067   3.193   1.384 -0.8074  1.2442 -2.5503
 6377TIP3   OH219136   0.287   4.013   5.163 -0.3885  0.5632  0.0696
 6377TIP3    H119137   0.373   4.014   5.205  0.2368  0.4156 -1.1585
 6377TIP3    H219138   0.252   3.926   5.184 -0.2052  0.5895  0.4968
 6378TIP3   OH219139   5.670   0.280   4.364 -0.0411 -0.2538  0.7472
 6378TIP3    H119140   5.732   0.302   4.294 -0.3517 -0.2642  0.4638
 6378TIP3    H219141   5.694   0.192   4.390  1.3968  0.4970  2.0904
 6379TIP3   OH219142   2.130   1.847   1.891 -0.0446  0.0303 -0.0862
 6379TIP3    H119143   2.048   1.869   1.846  1.4117  1.0445 -2.4493
 6379TIP3    H219144   2.143   1.919   1.953 -0.8084 -0.0063  0.1311
 6380TIP3   OH219145   4.525   5.615   1.935  0.4445 -0.3387  0.2646
 6380TIP3    H119146   4.505   5.672   2.009 -1.9087  0.9079 -1.2353
 6380TIP3    H219147   4.467   5.540   1.946  1.9690 -1.4590  1.0373
 6381TIP3   OH219148   4.878   1.481   4.093 -0.5980  0.5447 -0.2040
 6381TIP3    H119149   4.813   1.526   4.039  0.4122 -0.5929 -2.5052
 6381TIP3    H219150   4.959   1.530   4.079 -0.4060  0.5234  0.7280
 6382TIP3   OH219151   0.484   0.033   0.474  0.0341 -0.1231  0.5730
 6382TIP3    H119152   0.398   0.023   0.515  0.3480 -0.5893  1.1125
 6382TIP3    H219153   0.465   0.035   0.380 -0.3526 -2.7919  0.5207
 6383TIP3   OH219154   1.159   0.785   2.891  0.2013  0.1043 -0.4076
 6383TIP3    H119155   1.243   0.827   2.913  0.1607  0.4864 -0.9606
 6383TIP3    H219156   1.169   0.695   2.921  1.0389 -0.0192 -1.0312
 6384TIP3   OH219157   3.907   1.241   0.785  0.1311 -0.1947  0.4320
 6384TIP3    H119158   4.002   1.234   0.787  0.2684  1.3322  1.0194
 6384TIP3    H219159   3.888   1.298   0.710 -0.3299 -0.5628  0.2606
 6385TIP3   OH219160   3.512   2.644   2.807 -0.5082 -0.1689 -0.0256
 6385TIP3    H119161   3.471   2.586   2.743  0.7592  0.2376 -1.2555
 6385TIP3    H219162   3.508   2.596   2.889 -1.5452 -0.9972 -0.5366
 6386TIP3   OH219163   5.880   2.816   0.401 -0.2396  0.1054  0.1347
 6386TIP3    H119164   5.851   2.879   0.468 -1.0848 -1.0360  0.8744
 6386TIP3    H219165   5.896   2.735   0.450 -1.4948 -0.9408 -1.1254
 6387TIP3   OH219166   4.322   3.913   5.124  0.1162 -0.3649 -0.2868
 6387TIP3    H119167   4.320   4.007   5.138 -3.7591 -0.1123 -1.3845
 6387TIP3    H219168   4.306   3.875   5.210 -2.1580  0.2090 -0.4147
 6388TIP3   OH219169   6.258   4.121   1.946  0.0486 -0.4706 -0.0352
 6388TIP3    H119170   6.281   4.110   2.038  0.8278  0.9982 -0.0209
 6388TIP3    H219171   6.163   4.133   1.947  0.1372  0.2486  0.6661
 6389TIP3   OH219172   3.751   3.755   2.617 -0.2836  0.3714  0.2044
 6389TIP3    H119173   3.733   3.697   2.544 -1.4161  0.4268  0.4303
 6389TIP3    H219174   3.814   3.819   2.582 -2.2610  1.5937 -1.3384
 6390TIP3   OH219175   1.719   1.837   4.413  1.0350  0.2587  0.0997
 6390TIP3    H119176   1.680   1.924   4.423  0.8942  0.1589  0.4190
 6390TIP3    H219177   1.644   1.777   4.417  1.2582  0.0268  1.2615
 6391TIP3   OH219178   1.888   0.928   2.885 -0.1536  0.5075  0.2416
 6391TIP3    H119179   1.807   0.890   2.851  1.4540 -1.9141 -1.1741
 6391TIP3    H219180   1.880   0.921   2.980 -0.2166 -3.0687  0.0985
 6392TIP3   OH219181   4.698   4.403   1.250 -0.1515  0.4537 -0.1060
 6392TIP3    H119182   4.711   4.325   1.197 -1.1142 -0.7378  1.3166
 6392TIP3    H219183   4.741   4.473   1.202  0.3337 -0.8613 -1.6563
 6393TIP3   OH219184   3.347   1.613   3.475  0.1820 -0.0897  0.3375
 6393TIP3    H119185   3.317   1.679   3.537  0.6087 -0.1813  0.6466
 6393TIP3    H219186   3.396   1.550   3.528 -1.0382 -1.2020  0.2075
 6394TIP3   OH219187   1.105   1.945   2.857 -0.1432 -0.0697  0.2197
 6394TIP3    H119188   1.011   1.959   2.841 -0.6640 -0.7565  2.3861
 6394TIP3    H219189   1.108   1.876   2.923  1.8216  1.2844  1.6333
 6395TIP3   OH219190   5.687   3.043   2.683  0.5118 -0.5578  0.0610
 6395TIP3    H119191   5.734   2.966   2.653  1.9657  0.1796  0.3521
 6395TIP3    H219192   5.719   3.056   2.773 -0.5124 -0.2261  0.3856
 6396TIP3   OH219193   1.444   2.833   0.793  0.1149  0.1912 -0.0793
 6396TIP3    H119194   1.474   2.924   0.798 -0.1744  0.4224 -1.9961
 6396TIP3    H219195   1.411   2.815   0.881  0.5404  1.8065  0.4556
 6397TIP3   OH219196   1.539   0.618   0.157  0.2881 -0.0406  0.1947
 6397TIP3    H119197   1.556   0.562   0.081  2.1015  2.4540 -1.3994
 6397TIP3    H219198   1.457   0.662   0.136 -1.1988 -1.9839  1.4998
 6398TIP3   OH219199   1.064   4.193   0.435  0.2897 -0.1047  0.3687
 6398TIP3    H119200   1.033   4.162   0.350  0.2482 -1.1785  0.7645
 6398TIP3    H219201   1.002   4.157   0.498  0.4098  0.5561  0.8698
 6399TIP3   OH219202   1.749   2.163   0.667 -0.4686 -0.3355 -0.0918
 6399TIP3    H119203   1.673   2.152   0.610 -1.0605 -2.2903  0.9985
 6399TIP3    H219204   1.716   2.144   0.755  0.4944  2.2466  0.9311
 6400TIP3   OH219205   4.129   2.011   2.715 -0.2007  0.3425 -0.6189
 6400TIP3    H119206   4.101   2.014   2.806  1.0887  1.0226 -0.2231
 6400TIP3    H219207   4.162   2.098   2.697  1.4330 -0.3358 -1.1088
 6401TIP3   OH219208   1.109   0.762   4.929  0.8810 -0.2552 -0.4483
 6401TIP3    H119209   1.060   0.739   5.008  0.6545  0.5186 -0.3558
 6401TIP3    H219210   1.165   0.834   4.955  3.2028 -2.0543 -0.1715
 6402TIP3   OH219211   0.792   4.327   2.531 -0.2193 -0.2778  0.4964
 6402TIP3    H119212   0.757   4.333   2.620 -0.2832  0.3859  0.4307
 6402TIP3    H219213   0.752   4.248   2.495  0.1903 -0.8307  1.2193
 6403TIP3   OH219214   0.988   2.152   1.438  0.4112  0.2272 -0.1207
 6403TIP3    H119215   1.067   2.117   1.396  0.8640  0.5290  0.4631
 6403TIP3    H219216   0.917   2.126   1.380  1.0104  0.5441 -1.0238
 6404TIP3   OH219217   3.366   5.235   1.000 -0.2282 -0.0148 -0.3882
 6404TIP3    H119218   3.448   5.280   1.021  0.0022  0.2889 -1.7942
 6404TIP3    H219219   3.355   5.169   1.069  0.1992  1.2013  0.8810
 6405TIP3   OH219220   0.286   4.998   1.499  0.1395 -0.1765 -0.1269
 6405TIP3    H119221   0.351   5.069   1.499 -0.9194  0.8266  0.2297
 6405TIP3    H219222   0.202   5.043   1.497 -0.5750 -1.4186  0.6670
 6406TIP3   OH219223   4.447   2.107   3.613  0.0166 -0.3540  0.0040
 6406TIP3    H119224   4.448   2.011   3.603 -2.7598 -0.3969 -0.7113
 6406TIP3    H219225   4.393   2.122   3.690 -1.4268  0.6539 -1.1668
 6407TIP3   OH219226   5.397   5.776   2.179 -0.3931  0.0817  0.0926
 6407TIP3    H119227   5.418   5.706   2.118 -1.2465 -0.2778  0.2027
 6407TIP3    H219228   5.416   5.740   2.266  0.5656  0.4992  0.0608
 6408TIP3   OH219229   2.869   0.755   3.370  0.3106  0.0081  0.2286
 6408TIP3    H119230   2.816   0.723   3.442  0.3982 -0.7917 -0.0472
 6408TIP3    H219231   2.950   0.704   3.375  0.7305  0.6611  0.1753
 6409TIP3   OH219232   5.644   2.347   1.559 -0.5694 -0.0089 -0.0742
 6409TIP3    H119233   5.633   2.379   1.470 -0.7719 -0.6617 -0.2925
 6409TIP3    H219234   5.556   2.350   1.597 -0.4889  0.2377  0.0935
 6410TIP3   OH219235   5.439   5.888   1.676  0.2380  0.2767 -0.9006
 6410TIP3    H119236   5.396   5.928   1.752 -0.7058  2.4083 -2.4526
 6410TIP3    H219237   5.414   5.796   1.680 -1.3733  0.7160  0.3342
 6411TIP3   OH219238   4.509   0.357   0.549 -0.0518  0.4151 -0.1492
 6411TIP3    H119239   4.421   0.350   0.511  0.1084 -2.0769 -0.1734
 6411TIP3    H219240   4.550   0.428   0.500 -1.3716  0.2753 -1.5232
 6412TIP3   OH219241   1.978   3.570   1.237 -0.4149  0.6985 -0.4353
 6412TIP3    H119242   2.009   3.631   1.304  1.8210  0.4371 -1.1655
 6412TIP3    H219243   2.048   3.567   1.173 -0.2165 -2.9670 -0.2512
 6413TIP3   OH219244   3.961   3.634   0.761 -0.3416  0.1599  0.5413
 6413TIP3    H119245   3.903   3.615   0.688 -1.2236  1.3860  0.8719
 6413TIP3    H219246   3.941   3.567   0.826  0.3997 -0.8961 -0.2783
 6414TIP3   OH219247   2.131   1.682   4.172 -0.2996 -0.4647  0.0961
 6414TIP3    H119248   2.045   1.664   4.134 -1.4682  1.6415  1.5615
 6414TIP3    H219249   2.143   1.613   4.237 -2.0159  0.5335  1.5464
 6415TIP3   OH219250   0.589   0.686   2.873 -0.1820  0.1143 -0.2386
 6415TIP3    H119251   0.618   0.596   2.889  2.2954  0.8963  0.0850
 6415TIP3    H219252   0.494   0.680   2.869 -0.0886 -2.5205 -0.2709
 6416TIP3   OH219253   1.074   1.884   0.619  0.3611 -0.0570 -0.4820
 6416TIP3    H119254   1.014   1.944   0.664  1.9287  0.3894  1.1123
 6416TIP3    H219255   1.073   1.914   0.528 -3.8595 -1.7416 -1.2577
 6417TIP3   OH219256   5.762   0.091   1.183 -0.3239  0.0304 -0.1780
 6417TIP3    H119257   5.702   0.165   1.175  0.5523  0.7162 -0.5160
 6417TIP3    H219258   5.728   0.026   1.121 -0.8319  0.3191 -0.2082
 6418TIP3   OH219259   3.845   4.039   1.388  0.4382  0.1179  0.5795
 6418TIP3    H119260   3.834   4.065   1.297 -0.9350  0.3735  0.7840
 6418TIP3    H219261   3.776   4.087   1.435  0.9599 -0.1933  1.7087
 6419TIP3   OH219262   5.827   4.949   4.766 -0.9633 -0.6066 -0.2087
 6419TIP3    H119263   5.824   4.983   4.856 -0.3249 -0.8585 -0.0828
 6419TIP3    H219264   5.860   5.022   4.714 -4.2701  0.6266 -0.8168
 6420TIP3   OH219265   2.081   0.683   3.356  0.4177 -0.7732  0.0670
 6420TIP3    H119266   2.023   0.758   3.340 -0.3198 -1.3328  0.0872
 6420TIP3    H219267   2.054   0.618   3.291  0.0826 -1.5724  0.9963
 6421TIP3   OH219268   1.236   1.215   3.719  0.1378  0.2537 -0.4682
 6421TIP3    H119269   1.232   1.177   3.631 -0.4423 -1.6209  0.3103
 6421TIP3    H219270   1.327   1.204   3.746 -0.3211 -2.2508  0.3638
 6422TIP3   OH219271   4.709   2.740   3.227 -0.4281  0.0048 -0.0217
 6422TIP3    H119272   4.666   2.674   3.282 -2.2766  1.1029 -0.0362
 6422TIP3    H219273   4.731   2.811   3.288 -0.1990  0.1711 -0.2976
 6423TIP3   OH219274   0.046   2.193   1.700  0.2265  0.0473 -0.0809
 6423TIP3    H119275   0.014   2.137   1.771 -1.5531  0.8254 -0.2329
 6423TIP3    H219276   0.065   2.277   1.742 -0.3260  0.3477 -0.4222
 6424TIP3   OH219277   4.398   1.691   0.582  0.1978 -1.0852  0.1537
 6424TIP3    H119278   4.318   1.674   0.532  1.0456  0.6666 -1.9829
 6424TIP3    H219279   4.385   1.644   0.664 -2.3774 -2.0638 -0.6924
 6425TIP3   OH219280   2.162   4.985   4.203 -0.5564 -0.9423  0.5928
 6425TIP3    H119281   2.101   4.967   4.132  0.4531 -0.9250 -0.3103
 6425TIP3    H219282   2.238   4.930   4.185  0.1994 -0.0797  1.0044
 6426TIP3   OH219283   1.763   2.764   0.751 -0.7032 -0.2622  0.1377
 6426TIP3    H119284   1.767   2.823   0.675  0.7279  0.0562  0.4381
 6426TIP3    H219285   1.723   2.817   0.820  2.0969  1.0179  0.9162
 6427TIP3   OH219286   3.361   4.614   1.584 -0.7541 -0.3807  0.1449
 6427TIP3    H119287   3.350   4.573   1.670 -0.7421  1.3080  0.9937
 6427TIP3    H219288   3.284   4.671   1.576  0.6751  1.6733  0.3559
 6428TIP3   OH219289   2.650   3.055   0.885  0.1293  0.2253 -0.6141
 6428TIP3    H119290   2.720   2.994   0.909 -1.0939 -0.8313  0.4020
 6428TIP3    H219291   2.646   3.049   0.789  0.9405 -0.2266 -0.6325
 6429TIP3   OH219292   4.415   5.963   1.691 -0.0056  0.6931  0.2888
 6429TIP3    H119293   4.322   5.982   1.678 -0.1608 -0.1446  0.1748
 6429TIP3    H219294   4.440   5.912   1.614  0.1423 -0.5249  1.1150
 6430TIP3   OH219295   4.367   2.378   1.401 -0.6180  0.6543  0.0563
 6430TIP3    H119296   4.428   2.407   1.332 -0.1045 -0.7223 -0.1007
 6430TIP3    H219297   4.281   2.398   1.366 -0.3079  2.4309  0.1791
 6431TIP3   OH219298   3.187   2.837   2.834  0.1272 -0.3450 -0.0183
 6431TIP3    H119299   3.254   2.906   2.835  0.9006 -1.0732  0.3822
 6431TIP3    H219300   3.117   2.871   2.890  0.4103  0.1985  0.0123
 6432TIP3   OH219301   5.313   0.583   2.807  0.1153  0.0869 -0.4524
 6432TIP3    H119302   5.274   0.646   2.747  1.5980  0.4923 -1.0418
 6432TIP3    H219303   5.365   0.636   2.867  0.0807 -0.4540  0.0664
 6433TIP3   OH219304   0.437   1.225   0.818  0.9160 -0.3645 -0.2689
 6433TIP3    H119305   0.408   1.220   0.909 -0.8225 -0.3118 -0.7738
 6433TIP3    H219306   0.467   1.315   0.807  2.4213 -0.7283  0.5768
 6434TIP3   OH219307   6.005   4.965   3.948 -0.2275  0.3578  0.2261
 6434TIP3    H119308   5.957   5.038   3.986  0.9302  0.4808  1.5184
 6434TIP3    H219309   5.938   4.913   3.903 -1.1513  1.9014 -0.2647
 6435TIP3   OH219310   1.684   5.936   1.778 -0.1801 -0.1414 -0.0057
 6435TIP3    H119311   1.601   5.930   1.730  0.2296  3.2163 -1.3994
 6435TIP3    H219312   1.678   6.020   1.824  2.7169  0.6131 -0.8070
 6436TIP3   OH219313   3.953   2.972   2.674 -0.4331 -0.1868  0.0419
 6436TIP3    H119314   4.048   2.962   2.682 -0.2182 -0.3705 -2.1755
 6436TIP3    H219315   3.939   3.066   2.686 -0.2630 -0.3835  2.3168
 6437TIP3   OH219316   2.018   0.244   4.216 -0.4036  0.2808  0.0339
 6437TIP3    H119317   2.083   0.232   4.285 -0.0694 -0.1113 -0.3472
 6437TIP3    H219318   2.058   0.308   4.156 -0.5508  0.3658  0.0248
 6438TIP3   OH219319   2.775   0.988   3.924  0.1347 -0.6495  0.6518
 6438TIP3    H119320   2.836   0.962   3.994 -0.0766 -1.2072  0.6326
 6438TIP3    H219321   2.753   1.079   3.945  0.3709 -0.6895  1.0984
 6439TIP3   OH219322   1.584   1.690   4.013 -0.1710 -0.0454 -0.0661
 6439TIP3    H119323   1.595   1.604   4.053 -0.1808 -1.1539 -2.3032
 6439TIP3    H219324   1.540   1.673   3.930 -0.8650  2.2163 -0.2393
 6440TIP3   OH219325   5.225   5.919   3.159 -0.4020 -0.2498 -0.1975
 6440TIP3    H119326   5.248   5.928   3.251  0.2310  0.1860 -0.3898
 6440TIP3    H219327   5.308   5.901   3.115 -0.5662  0.3727 -0.7895
 6441TIP3   OH219328   0.766   2.768   3.718  0.1397 -0.1112 -0.3453
 6441TIP3    H119329   0.784   2.784   3.811  0.1668 -0.7258 -0.2391
 6441TIP3    H219330   0.691   2.824   3.698  0.6350  0.6310 -0.1623
 6442TIP3   OH219331   5.874   4.507   4.349  0.0173  0.0569  0.5191
 6442TIP3    H119332   5.868   4.411   4.342  1.7246 -0.0430 -0.2186
 6442TIP3    H219333   5.827   4.540   4.273  0.1135 -0.2266  0.3347
 6443TIP3   OH219334   0.682   5.107   3.886 -0.0685 -0.2464 -0.1477
 6443TIP3    H119335   0.639   5.083   3.968 -1.9997 -0.8420 -1.2565
 6443TIP3    H219336   0.701   5.023   3.843  2.2666 -0.0059  0.2692
 6444TIP3   OH219337   0.481   5.319   3.583  0.3839  0.3401 -0.6107
 6444TIP3    H119338   0.389   5.325   3.610  0.5085 -1.4895  0.3667
 6444TIP3    H219339   0.531   5.323   3.664  1.1781  1.0024 -1.1092
 6445TIP3   OH219340   4.775   0.804   0.997 -0.1244 -0.4118 -0.0972
 6445TIP3    H119341   4.808   0.878   0.946 -0.1235 -0.5572 -0.3089
 6445TIP3    H219342   4.743   0.742   0.931  0.4145 -0.8529  0.0516
 6446TIP3   OH219343   3.723   3.901   5.162 -0.1742 -0.2137  0.3479
 6446TIP3    H119344   3.803   3.951   5.178 -0.2606  0.2781 -0.7103
 6446TIP3    H219345   3.657   3.946   5.215  0.0396 -0.0260  0.4571
 6447TIP3   OH219346   1.149   1.877   3.666 -0.1320  0.1765  0.0073
 6447TIP3    H119347   1.230   1.874   3.717 -0.9933  0.4967  1.4538
 6447TIP3    H219348   1.087   1.926   3.721 -1.2880  0.0200 -1.0914
 6448TIP3   OH219349   2.904   4.968   0.984 -0.1425  0.3163  0.5265
 6448TIP3    H119350   2.927   5.031   1.052  1.1483  1.0864 -0.5789
 6448TIP3    H219351   2.923   5.013   0.901 -1.1853 -0.7774 -0.3485
 6449TIP3   OH219352   2.499   4.910   0.625 -0.1448 -0.4183 -0.2467
 6449TIP3    H119353   2.479   4.984   0.567  0.5483  0.2206  0.3116
 6449TIP3    H219354   2.423   4.903   0.682 -0.7985 -0.9975 -1.1571
 6450TIP3   OH219355   5.303   2.172   1.475 -0.3824  0.0232 -0.4639
 6450TIP3    H119356   5.209   2.191   1.469 -0.5595 -0.2307  1.1526
 6450TIP3    H219357   5.336   2.234   1.540  0.5715  0.0523 -0.9507
 6451TIP3   OH219358   6.105   5.417   0.786  0.3621 -0.0275  0.1129
 6451TIP3    H119359   6.041   5.423   0.715  1.1232  0.1104 -0.5728
 6451TIP3    H219360   6.085   5.492   0.842 -2.0097 -1.6118  1.5909
 6452TIP3   OH219361   5.214   5.555   4.040 -0.0083  0.2778 -0.5001
 6452TIP3    H119362   5.133   5.504   4.029  0.4096 -0.4663 -0.2046
 6452TIP3    H219363   5.282   5.503   3.997  0.3650  0.7744 -0.5238
 6453TIP3   OH219364   1.674   2.478   0.395 -0.2665  0.2973 -0.4487
 6453TIP3    H119365   1.662   2.488   0.490 -1.8040 -0.3303 -0.5377
 6453TIP3    H219366   1.640   2.391   0.376 -0.3537  0.5743 -1.6355
 6454TIP3   OH219367   5.183   0.937   3.368 -0.1082 -0.7262  0.1810
 6454TIP3    H119368   5.175   1.030   3.345 -1.3123 -0.8894 -0.1262
 6454TIP3    H219369   5.224   0.897   3.291  2.2166 -0.1752  1.0434
 6455TIP3   OH219370   4.562   1.291   2.114  0.5066 -0.1826  0.1084
 6455TIP3    H119371   4.469   1.273   2.105  0.5651 -0.4050 -0.0674
 6455TIP3    H219372   4.572   1.382   2.087  0.5515 -0.5826 -1.2903
 6456TIP3   OH219373   1.631   3.466   3.583  0.3871  0.3332 -0.0478
 6456TIP3    H119374   1.705   3.414   3.615 -1.2670 -2.0882  0.1415
 6456TIP3    H219375   1.655   3.488   3.493  0.7622 -1.7491 -0.5207
 6457TIP3   OH219376   3.508   2.214   1.932 -0.1213  0.0663  0.0966
 6457TIP3    H119377   3.445   2.143   1.923  1.5066 -1.2300 -1.9341
 6457TIP3    H219378   3.455   2.293   1.934 -1.8757 -1.0580  0.1598
 6458TIP3   OH219379   1.027   4.401   4.550 -0.0398 -0.7851  0.7128
 6458TIP3    H119380   1.035   4.420   4.644 -0.9581 -1.1928  0.8890
 6458TIP3    H219381   1.098   4.339   4.533  0.1936 -0.6379  1.1176
 6459TIP3   OH219382   4.442   3.633   2.491 -0.2788  0.1024  0.2829
 6459TIP3    H119383   4.463   3.683   2.412 -0.3023  1.1912  0.9463
 6459TIP3    H219384   4.508   3.661   2.555 -0.3027 -0.7103  0.6750
 6460TIP3   OH219385   4.641   2.924   3.710  0.0689 -0.3407  0.6320
 6460TIP3    H119386   4.688   2.862   3.654  0.2001  0.5450 -0.2625
 6460TIP3    H219387   4.572   2.960   3.653  0.2984  0.6843  0.9866
 6461TIP3   OH219388   3.079   2.882   4.227 -0.5803 -0.4243  0.1012
 6461TIP3    H119389   3.096   2.898   4.134  0.1870 -1.9956 -0.0594
 6461TIP3    H219390   2.992   2.844   4.229  0.3431 -2.7321 -0.2981
 6462TIP3   OH219391   1.747   3.099   4.114 -0.1156 -0.0646  0.5534
 6462TIP3    H119392   1.704   3.146   4.184  1.0158  1.1506  0.4645
 6462TIP3    H219393   1.777   3.167   4.053 -2.1071 -1.1038 -1.7791
 6463TIP3   OH219394   4.984   3.235   0.051 -0.0275 -0.1483  0.3044
 6463TIP3    H119395   5.038   3.260   0.126 -0.1177 -2.4118  1.1852
 6463TIP3    H219396   4.939   3.156   0.079 -1.5127  0.0005 -1.5046
 6464TIP3   OH219397   2.650   5.459   3.044 -0.0480  0.1482 -0.3607
 6464TIP3    H119398   2.622   5.512   3.119  0.9820 -1.0270  0.8888
 6464TIP3    H219399   2.744   5.474   3.037 -0.3948  1.9563 -2.8593
 6465TIP3   OH219400   2.848   0.889   2.553 -0.2953  0.2406 -0.4353
 6465TIP3    H119401   2.856   0.888   2.457 -1.1104 -2.9361 -0.5755
 6465TIP3    H219402   2.938   0.877   2.584 -0.2965 -1.4613 -0.9543
 6466TIP3   OH219403   1.823   3.339   1.503  0.2027  0.2147  0.0721
 6466TIP3    H119404   1.883   3.317   1.574 -0.9636 -4.0003  0.0080
 6466TIP3    H219405   1.744   3.372   1.547  0.6360  0.7311  0.4767
 6467TIP3   OH219406   1.528   2.688   2.116 -0.8830  0.4749  0.3303
 6467TIP3    H119407   1.452   2.716   2.166 -1.3078  1.2201 -0.6989
 6467TIP3    H219408   1.584   2.766   2.113 -1.5698  0.9306 -1.6406
 6468TIP3   OH219409   0.116   1.623   0.497 -0.6962  0.3102  0.7872
 6468TIP3    H119410   0.196   1.673   0.514  0.7050 -1.6463  0.3327
 6468TIP3    H219411   0.105   1.569   0.576 -1.4159  0.3628  0.7252
 6469TIP3   OH219412   3.194   1.631   4.076  0.3757 -0.3069  0.0023
 6469TIP3    H119413   3.273   1.600   4.030 -0.6345 -2.2059 -0.5470
 6469TIP3    H219414   3.149   1.686   4.012  0.9312  0.3086  0.1221
 6470TIP3   OH219415   1.862   0.793   5.120 -0.0700 -0.7363  0.8797
 6470TIP3    H119416   1.815   0.800   5.203 -0.4712 -0.5149  0.6375
 6470TIP3    H219417   1.897   0.881   5.105 -3.5882  0.5221 -1.2735
 6471TIP3   OH219418   2.317   4.504   1.901  0.0711 -0.2154  0.2789
 6471TIP3    H119419   2.405   4.516   1.865  1.0278 -2.9358  1.4941
 6471TIP3    H219420   2.316   4.559   1.980  0.1492  0.8579 -0.4344
 6472TIP3   OH219421   3.347   0.911   0.465  0.2371 -0.0751 -0.2666
 6472TIP3    H119422   3.337   0.845   0.534 -1.2801  0.5770  0.1781
 6472TIP3    H219423   3.412   0.972   0.500  0.1534 -0.2454  0.1997
 6473TIP3   OH219424   5.847   0.166   2.993  0.7769  0.3036  0.2465
 6473TIP3    H119425   5.940   0.185   2.978  1.2474 -0.4953  1.9418
 6473TIP3    H219426   5.802   0.244   2.961  1.8272 -0.1181 -2.5747
 6474TIP3   OH219427   4.734   0.246   0.322  0.2742  0.4279 -0.1813
 6474TIP3    H119428   4.707   0.213   0.408  2.2143  0.5208  0.5087
 6474TIP3    H219429   4.666   0.309   0.298 -1.1375 -0.7585  0.5166
 6475TIP3   OH219430   3.134   4.181   0.590 -0.2517 -0.0149  0.2158
 6475TIP3    H119431   3.051   4.192   0.543 -0.1399 -0.2616 -0.0465
 6475TIP3    H219432   3.128   4.240   0.665 -0.2707  0.6841 -0.3272
 6476TIP3   OH219433   2.472   0.469   2.184 -0.4282 -0.2368 -0.3133
 6476TIP3    H119434   2.475   0.469   2.279 -0.8107 -3.4447 -0.1939
 6476TIP3    H219435   2.379   0.474   2.162 -0.2936  3.5990 -0.7656
 6477TIP3   OH219436   2.376   5.222   5.043 -0.0008 -0.1657  0.2694
 6477TIP3    H119437   2.284   5.236   5.024  0.0666 -0.7660 -0.5389
 6477TIP3    H219438   2.377   5.156   5.112 -0.2027  0.9599  1.3901
 6478TIP3   OH219439   2.875   0.129   2.722 -0.2514  0.2960  0.3989
 6478TIP3    H119440   2.792   0.120   2.676 -0.4614 -4.0604  1.1638
 6478TIP3    H219441   2.942   0.113   2.655 -0.3408 -1.1563  0.6184
 6479TIP3   OH219442   5.478   0.106   4.172  0.1793 -1.0460 -0.3194
 6479TIP3    H119443   5.392   0.084   4.208 -0.5912 -0.8935 -1.9880
 6479TIP3    H219444   5.516   0.165   4.237 -2.7708  2.4525 -1.4043
 6480TIP3   OH219445   1.345   1.589   3.158 -0.4154  0.8064 -0.2542
 6480TIP3    H119446   1.409   1.533   3.202 -1.8573  0.4923  1.5902
 6480TIP3    H219447   1.371   1.678   3.181 -0.7567  0.6695  0.7380
 6481TIP3   OH219448   0.504   4.321   0.084 -0.1706 -0.1983 -0.2937
 6481TIP3    H119449   0.585   4.272   0.071 -0.0082 -0.5790  1.9007
 6481TIP3    H219450   0.531   4.402   0.126 -0.9154 -0.2650  0.3365
 6482TIP3   OH219451   5.260   4.833   1.911 -0.8777 -0.0667 -0.0725
 6482TIP3    H119452   5.312   4.904   1.873 -2.3865  0.9128 -0.3883
 6482TIP3    H219453   5.322   4.761   1.920  0.6708  1.2015  0.0657
 6483TIP3   OH219454   3.290   5.272   3.527 -0.3720 -0.0951 -0.1841
 6483TIP3    H119455   3.362   5.210   3.516 -0.7979 -0.2982 -2.0154
 6483TIP3    H219456   3.330   5.358   3.512 -0.4169 -0.1775 -0.7996
 6484TIP3   OH219457   4.453   0.756   2.394 -0.3202 -0.4203  0.5161
 6484TIP3    H119458   4.446   0.849   2.370  0.1115 -0.1761  1.2901
 6484TIP3    H219459   4.527   0.724   2.344  1.9183  0.6075  2.9109
 6485TIP3   OH219460   5.174   1.395   2.362 -0.0832  0.0692 -0.3264
 6485TIP3    H119461   5.157   1.312   2.319  1.9684 -0.5515 -0.0664
 6485TIP3    H219462   5.153   1.379   2.454  0.3660 -0.2070 -0.2660
 6486TIP3   OH219463   5.253   3.684   0.410 -0.0305 -0.4643 -0.6710
 6486TIP3    H119464   5.327   3.732   0.373  0.3886 -0.6596 -0.1062
 6486TIP3    H219465   5.251   3.601   0.363  0.1785 -0.5040 -0.6086
 6487TIP3   OH219466   1.125   4.522   2.261 -0.5148  0.4751 -0.3229
 6487TIP3    H119467   1.169   4.516   2.345  2.1819  3.2257 -1.3466
 6487TIP3    H219468   1.169   4.457   2.206 -0.7694  0.2080 -0.2158
 6488TIP3   OH219469   2.637   1.326   5.026  0.3272  0.5517  0.1416
 6488TIP3    H119470   2.579   1.386   5.072 -0.2826 -0.9123  1.3798
 6488TIP3    H219471   2.694   1.290   5.094  0.6366 -0.3100 -0.5447
 6489TIP3   OH219472   3.414   3.819   3.041 -0.3339  0.0351  0.2111
 6489TIP3    H119473   3.492   3.866   3.012 -0.6366 -1.3062 -3.3006
 6489TIP3    H219474   3.341   3.876   3.016 -0.5702  0.4909  1.8493
 6490TIP3   OH219475   0.190   5.643   0.616 -0.5284  0.4212 -0.2830
 6490TIP3    H119476   0.174   5.725   0.570 -0.0737 -0.4135 -2.0675
 6490TIP3    H219477   0.103   5.608   0.634 -0.8112  2.3848  2.7569
 6491TIP3   OH219478   4.795   1.357   2.356  0.4329 -0.1868  0.0013
 6491TIP3    H119479   4.784   1.280   2.300 -2.8144 -0.5467  0.9063
 6491TIP3    H219480   4.772   1.326   2.444  0.2428  1.5305  0.5966
 6492TIP3   OH219481   5.095   4.152   4.097  0.2649  0.3263  0.4983
 6492TIP3    H119482   5.168   4.094   4.075  1.7661  2.2242  0.2742
 6492TIP3    H219483   5.047   4.104   4.165  0.3582 -1.9481 -0.9165
 6493TIP3   OH219484   1.670   4.482   0.906 -0.3384 -0.1545 -0.5138
 6493TIP3    H119485   1.606   4.543   0.869 -1.1867 -0.6640  0.0888
 6493TIP3    H219486   1.738   4.476   0.839  0.1271  1.9671 -0.3099
 6494TIP3   OH219487   4.480   1.911   0.415 -0.2296  0.1924 -0.0096
 6494TIP3    H119488   4.443   1.844   0.472 -2.2747  0.1902 -1.2091
 6494TIP3    H219489   4.456   1.994   0.456 -0.2959  0.1780 -0.0182
 6495TIP3   OH219490   0.649   5.038   0.336  0.0731  0.6022 -0.2047
 6495TIP3    H119491   0.729   5.091   0.337  0.0300  0.7098  2.2150
 6495TIP3    H219492   0.584   5.091   0.382 -0.7125 -0.5064 -0.0108
 6496TIP3   OH219493   5.578   5.639   2.985 -0.7691  0.4797 -0.1023
 6496TIP3    H119494   5.580   5.716   3.042 -0.5895  0.6410 -0.3248
 6496TIP3    H219495   5.669   5.615   2.974 -0.9075 -0.7819  1.3237
 6497TIP3   OH219496   6.107   3.661   4.320 -0.5172  0.4662  0.0465
 6497TIP3    H119497   6.032   3.665   4.260 -1.2688  0.3529  0.9551
 6497TIP3    H219498   6.129   3.753   4.337 -0.2291  0.4968 -0.4877
 6498TIP3   OH219499   3.519   3.898   4.207 -0.1738 -0.1262  0.2592
 6498TIP3    H119500   3.527   3.874   4.115  0.4187  1.4892 -0.1554
 6498TIP3    H219501   3.578   3.839   4.253  0.7093  0.0438 -0.6126
 6499TIP3   OH219502   2.955   2.772   3.493  0.3957  0.4453 -0.1615
 6499TIP3    H119503   3.023   2.708   3.471  1.3032  1.7215 -1.3534
 6499TIP3    H219504   2.946   2.767   3.588  1.5154 -0.3953 -0.0797
 6500TIP3   OH219505   6.004   5.956   5.050  0.0316 -0.1869 -0.0261
 6500TIP3    H119506   6.039   5.882   5.002 -0.7876 -0.2672 -0.5224
 6500TIP3    H219507   5.979   6.020   4.983 -0.1871  0.1243  0.3405
 6501TIP3   OH219508   1.681   2.014   3.736  0.5367  0.1762  0.0800
 6501TIP3    H119509   1.770   2.014   3.772  0.2666 -2.5711  0.9699
 6501TIP3    H219510   1.624   2.008   3.813 -0.2300 -1.6716 -0.5783
 6502TIP3   OH219511   2.762   4.886   3.407  0.5100  0.3915  0.5465
 6502TIP3    H119512   2.824   4.857   3.474  0.5998  1.4484  0.9393
 6502TIP3    H219513   2.772   4.822   3.336 -0.1595 -1.1982  1.8288
 6503TIP3   OH219514   3.999   2.103   3.519 -0.3450 -0.1716 -0.6684
 6503TIP3    H119515   4.040   2.174   3.568  0.3973 -0.5616 -0.7053
 6503TIP3    H219516   4.057   2.088   3.444  1.5464 -3.1660  1.1795
 6504TIP3   OH219517   2.378   1.555   2.652  0.5034 -0.5850 -0.4360
 6504TIP3    H119518   2.311   1.607   2.607  0.9265 -0.7416 -1.2711
 6504TIP3    H219519   2.404   1.489   2.588  0.1948 -1.6488  0.5018
 6505TIP3   OH219520   0.851   0.671   4.565 -0.0058  0.0078  0.4701
 6505TIP3    H119521   0.765   0.677   4.608  0.4680 -0.9453  1.6130
 6505TIP3    H219522   0.901   0.611   4.621  1.9291  1.7490  0.7216
 6506TIP3   OH219523   2.618   1.067   4.284  0.3678 -0.4216 -0.0194
 6506TIP3    H119524   2.554   1.040   4.218 -1.4791 -0.3642  1.6531
 6506TIP3    H219525   2.684   1.116   4.235 -1.9803  1.4074 -1.5905
 6507TIP3   OH219526   3.671   1.911   3.826 -0.0553  0.3877  0.5130
 6507TIP3    H119527   3.762   1.935   3.805 -0.5437  0.8908 -1.1574
 6507TIP3    H219528   3.663   1.821   3.794 -0.1722  0.3559  0.6318
 6508TIP3   OH219529   4.942   3.073   3.677 -0.7252  0.6454 -1.0649
 6508TIP3    H119530   4.872   3.108   3.622 -0.6658 -0.0318 -1.5938
 6508TIP3    H219531   4.943   3.130   3.754 -1.7653  0.7443 -1.1046
 6509TIP3   OH219532   3.197   4.951   1.739  0.4468  0.3535 -0.2891
 6509TIP3    H119533   3.115   4.902   1.747  0.7875 -0.4232 -1.3568
 6509TIP3    H219534   3.189   5.022   1.804 -0.3698 -0.6581  0.7588
 6510TIP3   OH219535   2.361   3.538   4.602  0.0761  0.4090  0.2217
 6510TIP3    H119536   2.277   3.583   4.612  0.8828  1.9359  0.3963
 6510TIP3    H219537   2.422   3.591   4.653  1.2975 -0.2517 -0.5295
 6511TIP3   OH219538   3.332   0.978   1.053  0.5898 -0.1940 -0.2726
 6511TIP3    H119539   3.311   0.891   1.089 -2.0531 -0.0018 -1.1341
 6511TIP3    H219540   3.325   1.037   1.127  0.7931 -0.4941 -0.0097
 6512TIP3   OH219541   5.582   3.619   1.499  0.1710 -0.0666 -0.1038
 6512TIP3    H119542   5.639   3.628   1.422  0.9932  0.1121  0.5133
 6512TIP3    H219543   5.498   3.657   1.471  0.4697  0.0359 -0.8934
 6513TIP3   OH219544   5.335   0.123   4.964 -0.4575 -0.0946 -0.4491
 6513TIP3    H119545   5.408   0.180   4.939 -1.5482  0.8889 -1.5561
 6513TIP3    H219546   5.335   0.054   4.897  0.8017 -1.4138  0.8338
 6514TIP3   OH219547   2.881   4.138   3.172  0.4776 -0.2774  0.1918
 6514TIP3    H119548   2.791   4.153   3.201  0.1456  1.4479 -1.5250
 6514TIP3    H219549   2.930   4.122   3.253 -0.8441  1.7508  1.4942
 6515TIP3   OH219550   2.885   1.010   3.253  0.4593 -0.1658 -0.0445
 6515TIP3    H119551   2.887   0.928   3.301 -1.0153 -0.7964 -1.0188
 6515TIP3    H219552   2.824   1.065   3.301 -0.9723 -0.7766 -1.0721
 6516TIP3   OH219553   1.000   1.496   2.529 -0.0110 -0.0622  0.2626
 6516TIP3    H119554   0.929   1.434   2.540  1.3322 -1.5620  0.9504
 6516TIP3    H219555   0.962   1.581   2.551 -1.8347 -0.6486 -0.4411
 6517TIP3   OH219556   3.139   2.200   3.077 -0.4123  0.2060 -0.1515
 6517TIP3    H119557   3.191   2.276   3.103 -1.0052  0.4977  0.2082
 6517TIP3    H219558   3.195   2.125   3.096 -0.5765  0.4487  1.3821
 6518TIP3   OH219559   4.449   0.591   4.172 -0.2141  0.2532 -0.7030
 6518TIP3    H119560   4.495   0.671   4.200  0.1277 -0.1891  0.0094
 6518TIP3    H219561   4.509   0.520   4.193 -0.6373 -0.2201 -1.0731
 6519TIP3   OH219562   0.246   3.836   4.074 -0.0957 -0.2707 -0.4130
 6519TIP3    H119563   0.243   3.740   4.077 -0.6371 -0.2352  0.2375
 6519TIP3    H219564   0.303   3.860   4.146  0.5322 -0.1171 -0.9469
 6520TIP3   OH219565   0.680   5.433   1.280  0.0489 -0.6468 -0.5532
 6520TIP3    H119566   0.636   5.393   1.205 -0.9329  0.3315 -0.5053
 6520TIP3    H219567   0.767   5.457   1.247  0.5437 -2.4393 -0.6829
 6521TIP3   OH219568   0.327   4.739   1.581  0.1410 -0.2030 -0.2536
 6521TIP3    H119569   0.312   4.680   1.507 -0.9940  0.0123 -0.2231
 6521TIP3    H219570   0.300   4.825   1.548  1.8608  0.3507 -0.3301
 6522TIP3   OH219571   3.035   5.109   1.562  0.3290  0.0194  0.2064
 6522TIP3    H119572   3.099   5.045   1.593  1.4923  0.7712 -0.5552
 6522TIP3    H219573   3.084   5.190   1.554 -0.4096  0.3480 -1.5383
 6523TIP3   OH219574   3.858   1.041   0.071 -0.9485 -0.0314 -0.6967
 6523TIP3    H119575   3.908   1.097   0.011 -1.1014  0.0259 -0.7733
 6523TIP3    H219576   3.852   1.093   0.152 -0.3034 -0.3208 -0.4540
 6524TIP3   OH219577   3.100   1.848   2.959 -0.2728 -0.2891  0.0034
 6524TIP3    H119578   3.026   1.902   2.986 -0.8445 -0.9751 -0.1585
 6524TIP3    H219579   3.061   1.778   2.907  0.4183 -1.0018  0.4184
 6525TIP3   OH219580   1.195   1.570   5.020  0.5392  0.2988 -0.1101
 6525TIP3    H119581   1.129   1.634   5.048 -1.2131 -0.9033 -1.2895
 6525TIP3    H219582   1.233   1.537   5.102  0.0742  1.3944  0.5766
 6526TIP3   OH219583   4.369   0.731   3.462 -0.1735  0.0178 -0.5666
 6526TIP3    H119584   4.392   0.646   3.499 -0.4821  0.0507 -0.2999
 6526TIP3    H219585   4.275   0.739   3.475 -0.0098  0.8150  0.2666
 6527TIP3   OH219586   1.703   1.621   2.539 -0.2495 -0.3790  0.4261
 6527TIP3    H119587   1.685   1.679   2.612  1.6722 -0.4160  0.9952
 6527TIP3    H219588   1.624   1.567   2.530 -2.0759  2.1916 -0.0741
 6528TIP3   OH219589   5.443   1.990   3.015  0.2108  0.1653 -0.4442
 6528TIP3    H119590   5.404   2.068   2.974  0.4170 -0.2204 -1.4001
 6528TIP3    H219591   5.425   1.919   2.954  0.9022 -0.3536 -0.0592
 6529TIP3   OH219592   5.836   1.691   1.886  0.5783  0.4309  0.3352
 6529TIP3    H119593   5.881   1.775   1.898  0.3929  0.4199  1.1611
 6529TIP3    H219594   5.848   1.645   1.969 -0.2912  0.1102  0.2933
 6530TIP3   OH219595   3.810   3.168   0.638 -0.2763 -0.3089 -0.2087
 6530TIP3    H119596   3.897   3.200   0.663 -1.0179  0.9261  0.9805
 6530TIP3    H219597   3.762   3.247   0.614 -1.6065 -0.7156  0.9578
 6531TIP3   OH219598   5.656   1.674   4.909 -0.4936 -0.0115 -0.1382
 6531TIP3    H119599   5.632   1.764   4.886 -1.1936 -0.4466 -1.2019
 6531TIP3    H219600   5.572   1.630   4.926 -0.1971 -0.5705 -0.0936
 6532TIP3   OH219601   0.013  -0.013   0.720 -0.1393 -0.3559  0.5726
 6532TIP3    H119602   0.088   0.045   0.703 -0.3255 -0.3415 -0.2650
 6532TIP3    H219603  -0.059   0.047   0.740 -0.7611 -0.1412 -1.9336
 6533TIP3   OH219604   3.207   4.471   2.392 -0.3361  0.2603  0.0146
 6533TIP3    H119605   3.203   4.390   2.341 -1.5601 -0.2949  0.9332
 6533TIP3    H219606   3.166   4.537   2.335  2.1979  0.7134 -1.4505
 6534TIP3   OH219607   2.288   4.912   1.203  0.0537 -0.3529 -0.0203
 6534TIP3    H119608   2.351   4.850   1.241  1.9743  0.0138 -2.2980
 6534TIP3    H219609   2.335   4.995   1.200 -1.7121  0.7408  1.0126
 6535TIP3   OH219610   0.571   1.709   3.068 -0.2100 -0.1296  0.0804
 6535TIP3    H119611   0.506   1.774   3.092  0.2651 -0.0185  1.1230
 6535TIP3    H219612   0.650   1.734   3.117  1.0469  0.5050 -2.1391
 6536TIP3   OH219613   1.100   1.876   0.039  0.0832 -0.2136  0.4790
 6536TIP3    H119614   1.078   1.857  -0.052 -0.9287  0.8297  0.4764
 6536TIP3    H219615   1.125   1.791   0.076  0.2160 -0.7003 -0.6860
 6537TIP3   OH219616   3.392   0.247   4.212 -0.3248  0.2243 -0.1094
 6537TIP3    H119617   3.323   0.267   4.276 -1.1007 -0.9252 -0.5614
 6537TIP3    H219618   3.391   0.321   4.152 -1.7170 -0.1407 -0.5628
 6538TIP3   OH219619   5.078   5.526   4.732  0.3520 -0.2754 -0.6528
 6538TIP3    H119620   5.138   5.561   4.666  1.1890 -0.9276 -0.2510
 6538TIP3    H219621   5.073   5.432   4.713 -1.0089 -0.1416 -1.0426
 6539TIP3   OH219622   4.057   0.505   1.516 -0.4355  0.2047  0.1032
 6539TIP3    H119623   4.134   0.483   1.568 -0.5234 -0.7514 -0.1587
 6539TIP3    H219624   4.043   0.599   1.532  1.9062  0.8717 -1.3263
 6540TIP3   OH219625   0.036   2.120   0.812  0.0862 -0.1245  0.1986
 6540TIP3    H119626   0.018   2.129   0.906 -0.4274  2.0161 -0.0722
 6540TIP3    H219627   0.113   2.174   0.797  0.2556 -0.5724 -0.6157
 6541TIP3   OH219628   2.675   2.155   4.467  0.0763  0.2350 -0.0362
 6541TIP3    H119629   2.707   2.070   4.498 -0.0161  0.2706  0.1535
 6541TIP3    H219630   2.753   2.198   4.431 -0.1476 -0.5439 -1.5213
 6542TIP3   OH219631   3.284   4.143   2.691 -0.0777 -0.1543 -0.5138
 6542TIP3    H119632   3.209   4.202   2.699 -1.5518 -2.0041 -0.0451
 6542TIP3    H219633   3.354   4.187   2.739 -0.8899  1.5469 -0.8213
 6543TIP3   OH219634   3.095   3.941   2.326  0.1979  0.0457 -0.1761
 6543TIP3    H119635   3.028   4.008   2.342 -0.9440 -1.1855  0.3301
 6543TIP3    H219636   3.107   3.897   2.410  1.0703 -0.2815 -0.4579
 6544TIP3   OH219637   2.601   1.806   4.849  0.0479 -0.2932 -0.0254
 6544TIP3    H119638   2.649   1.724   4.859  0.7685 -0.2161 -2.1899
 6544TIP3    H219639   2.635   1.843   4.768 -2.3362  0.7278 -0.6521
 6545TIP3   OH219640   4.668   4.402   2.103 -0.6821 -0.6414 -0.2840
 6545TIP3    H119641   4.733   4.401   2.173 -0.5163 -0.1717 -0.4272
 6545TIP3    H219642   4.640   4.311   2.094 -1.1825 -0.6183  0.8426
 6546TIP3   OH219643   2.683   0.776   0.987  0.1043  0.3010 -0.0813
 6546TIP3    H119644   2.643   0.862   0.972 -0.3267  0.0545 -0.3641
 6546TIP3    H219645   2.628   0.715   0.937 -0.0469 -0.2451  0.7476
 6547TIP3   OH219646   3.548   0.421   3.208  0.5064  0.4555 -0.1328
 6547TIP3    H119647   3.640   0.448   3.203  0.8377 -0.7691 -1.2447
 6547TIP3    H219648   3.520   0.414   3.116 -1.1654  2.2253  0.1701
 6548TIP3   OH219649   4.326   5.841   0.954  0.7575 -0.0249  0.1959
 6548TIP3    H119650   4.258   5.883   1.006  1.1739  0.6062  0.2404
 6548TIP3    H219651   4.310   5.871   0.865 -0.7638 -2.1362 -0.3201
 6549TIP3   OH219652   5.999   1.792   4.144  0.1919 -0.2142  0.5143
 6549TIP3    H119653   5.954   1.794   4.229 -1.2631  2.3597 -0.2010
 6549TIP3    H219654   6.052   1.872   4.143  3.8995 -2.4373  0.7260
 6550TIP3   OH219655   5.981   0.120   3.456  0.2390 -0.3671  0.1623
 6550TIP3    H119656   5.894   0.106   3.419  0.9797 -1.5398 -1.2381
 6550TIP3    H219657   6.028   0.168   3.387  0.8075 -0.0369  0.7734
 6551TIP3   OH219658   3.490   1.049   2.095 -0.3156 -0.0666 -0.2444
 6551TIP3    H119659   3.481   1.136   2.057 -2.1825 -0.6080 -1.1569
 6551TIP3    H219660   3.404   1.031   2.134  0.3646 -1.0927  0.8434
 6552TIP3   OH219661   1.970   1.057   0.264  0.4819  0.6607  0.2338
 6552TIP3    H119662   1.894   1.025   0.313  1.0211  2.0045  2.0409
 6552TIP3    H219663   1.944   1.144   0.233  0.4545  0.1640 -1.2238
 6553TIP3   OH219664   2.159   5.804   2.218 -0.1344  0.1900 -0.1133
 6553TIP3    H119665   2.178   5.720   2.176 -0.6885 -0.3741  0.7295
 6553TIP3    H219666   2.243   5.833   2.253  0.2813  0.5285 -1.3137
 6554TIP3   OH219667   2.314   5.743   1.179 -0.4579  0.2104  0.4376
 6554TIP3    H119668   2.288   5.666   1.129  1.3178  0.4828 -0.9757
 6554TIP3    H219669   2.349   5.707   1.261  1.0717 -0.5743 -0.5234
 6555TIP3   OH219670   0.069   5.416   4.007  0.2132 -0.2990 -0.0884
 6555TIP3    H119671   0.021   5.434   3.926 -1.3416  2.8277  1.3842
 6555TIP3    H219672   0.126   5.492   4.019  1.5648 -1.4101  1.0452
 6556TIP3   OH219673   1.852   2.833   3.009 -0.0763 -0.9153  0.3992
 6556TIP3    H119674   1.764   2.832   2.972 -0.1419  2.2672  0.1385
 6556TIP3    H219675   1.908   2.862   2.936  0.9659 -1.5088  0.9353
 6557TIP3   OH219676   0.947   0.398   0.230 -0.9592  0.3005 -0.1657
 6557TIP3    H119677   0.927   0.306   0.243 -0.9491  0.3725  0.4036
 6557TIP3    H219678   0.930   0.414   0.137 -0.0699 -0.4900 -0.4770
 6558TIP3   OH219679   2.999   2.901   1.509 -0.3204 -0.1511 -0.2962
 6558TIP3    H119680   2.937   2.932   1.575  1.6101  2.3170  0.5249
 6558TIP3    H219681   3.021   2.979   1.457  1.9231 -0.9193 -0.6415
 6559TIP3   OH219682   0.112   3.112   3.587 -0.0438 -0.7340  0.0226
 6559TIP3    H119683   0.187   3.057   3.567 -1.7534 -3.7059  1.1271
 6559TIP3    H219684   0.117   3.127   3.681 -0.3666 -0.1891 -0.0411
 6560TIP3   OH219685   2.372   4.136   3.953  0.3290  0.4379  0.3099
 6560TIP3    H119686   2.310   4.167   4.020 -0.2753  1.0992 -0.5344
 6560TIP3    H219687   2.321   4.136   3.872  1.0920 -0.2197 -0.1819
 6561TIP3   OH219688   5.754   0.480   1.240  0.0740 -0.3179  0.1858
 6561TIP3    H119689   5.722   0.540   1.307 -1.5624 -0.6358 -0.2468
 6561TIP3    H219690   5.675   0.438   1.206  0.8451 -0.2902 -1.8219
 6562TIP3   OH219691   1.248   5.446   4.009 -0.0805 -0.0009 -0.4165
 6562TIP3    H119692   1.250   5.352   3.995 -0.9922  0.1775 -2.1485
 6562TIP3    H219693   1.335   5.476   3.984 -0.2058 -0.2611 -1.2065
 6563TIP3   OH219694   1.063   5.188   4.414  0.2617 -0.1985 -0.0361
 6563TIP3    H119695   1.128   5.193   4.483 -1.9211  1.9204  2.0512
 6563TIP3    H219696   1.041   5.095   4.408  1.6044 -0.6085  0.9809
 6564TIP3   OH219697   5.110   4.032   2.036 -0.1099  0.5577  0.2222
 6564TIP3    H119698   5.120   3.983   2.118 -1.0098  0.1318  0.0846
 6564TIP3    H219699   5.180   3.999   1.980  0.0738  0.3425  0.5743
 6565TIP3   OH219700   5.563   2.863   0.384 -0.1105 -0.4108 -0.4346
 6565TIP3    H119701   5.561   2.822   0.298 -0.5101 -0.5596 -0.3539
 6565TIP3    H219702   5.652   2.899   0.391 -0.2051 -0.0329 -1.0768
 6566TIP3   OH219703   0.002   1.316   2.982  0.8351  0.2707 -0.3755
 6566TIP3    H119704   0.001   1.226   3.012 -0.1353  0.2134 -0.5437
 6566TIP3    H219705   0.068   1.359   3.036  2.7566 -0.9728 -1.6205
 6567TIP3   OH219706   5.126   1.166   3.223 -0.3665  0.3472  0.3285
 6567TIP3    H119707   5.066   1.113   3.171  0.1101 -1.2761  1.3424
 6567TIP3    H219708   5.184   1.208   3.160  0.5332 -1.9739 -0.4783
 6568TIP3   OH219709   0.405   5.256   0.869 -0.4332 -0.1600 -0.5827
 6568TIP3    H119710   0.339   5.244   0.937 -0.0287 -0.2231 -0.1979
 6568TIP3    H219711   0.487   5.267   0.917 -0.2723  0.6678 -1.0317
 6569TIP3   OH219712   3.104   2.094   4.417  0.1142  0.6575 -0.2521
 6569TIP3    H119713   3.126   2.008   4.453 -0.4290  0.1962 -0.9976
 6569TIP3    H219714   3.185   2.144   4.422  0.3936  0.1527  0.3335
 6570TIP3   OH219715   4.496   1.536   0.183  0.1841  0.1803  0.2075
 6570TIP3    H119716   4.523   1.613   0.134  1.8861 -0.8232 -0.5279
 6570TIP3    H219717   4.537   1.547   0.269 -0.2705  0.4692  0.3947
 6571TIP3   OH219718   4.332   1.908   1.980 -0.1801  0.3097  0.5690
 6571TIP3    H119719   4.269   1.931   1.912  0.4132 -2.7123 -1.1783
 6571TIP3    H219720   4.348   1.990   2.027 -1.3891  2.3140 -2.2729
 6572TIP3   OH219721   1.068   2.739   5.113 -0.0929  0.4537  0.6178
 6572TIP3    H119722   1.087   2.747   5.020 -2.3003 -1.0116 -0.0292
 6572TIP3    H219723   1.119   2.809   5.154  0.3756  1.5955 -1.7590
 6573TIP3   OH219724   4.757   4.449   3.276  0.3241  0.5217  0.3779
 6573TIP3    H119725   4.743   4.360   3.309 -1.5705  0.1758 -1.1959
 6573TIP3    H219726   4.805   4.438   3.194  2.0344  1.1601  1.2250
 6574TIP3   OH219727   3.320   2.310   4.414 -0.4009  0.4713 -0.4424
 6574TIP3    H119728   3.250   2.368   4.444 -0.5635  1.8220 -3.1732
 6574TIP3    H219729   3.396   2.367   4.407  0.3237 -0.4236  0.0227
 6575TIP3   OH219730   5.820   0.364   2.218  0.0637  0.5808 -0.1738
 6575TIP3    H119731   5.772   0.285   2.245 -1.2391  0.9739 -1.2218
 6575TIP3    H219732   5.783   0.433   2.272 -0.3854  0.8400 -0.8002
 6576TIP3   OH219733   1.255   0.132   5.006  0.2226  0.2004  0.2287
 6576TIP3    H119734   1.348   0.117   4.988  0.1554  1.0956 -0.9389
 6576TIP3    H219735   1.250   0.222   5.036 -0.3078  0.2558 -0.0073
 6577TIP3   OH219736   2.444   1.558   3.855  0.5291  0.0373  0.0047
 6577TIP3    H119737   2.364   1.507   3.865  0.4335  0.2664  0.4255
 6577TIP3    H219738   2.488   1.550   3.940 -0.2938  2.0094  0.6897
 6578TIP3   OH219739   4.830   5.064   5.146  0.5984  0.0936 -0.3681
 6578TIP3    H119740   4.923   5.083   5.138  1.4937 -3.5833 -0.1847
 6578TIP3    H219741   4.801   5.115   5.222  2.8247  0.1231  0.5118
 6579TIP3   OH219742   0.384   2.469   0.460  0.0075  0.3243  0.7713
 6579TIP3    H119743   0.302   2.441   0.499 -0.2354 -0.8042 -0.4726
 6579TIP3    H219744   0.357   2.529   0.390  0.1450 -0.7442 -0.2327
 6580TIP3   OH219745   5.324   1.488   0.774 -0.1449  0.1158 -0.0751
 6580TIP3    H119746   5.353   1.440   0.851 -0.8770  1.6914  1.2528
 6580TIP3    H219747   5.405   1.516   0.732  0.2658 -0.3322  0.4005
 6581TIP3   OH219748   3.175   0.434   1.333 -0.3360  0.5994 -0.9662
 6581TIP3    H119749   3.117   0.496   1.376 -0.0605 -0.9046  1.8131
 6581TIP3    H219750   3.250   0.426   1.392  0.2929 -1.2940 -1.9242
 6582TIP3   OH219751   5.394   5.842   1.400  0.6419  0.2947 -0.1727
 6582TIP3    H119752   5.460   5.798   1.346 -0.0669  0.6737 -1.3968
 6582TIP3    H219753   5.436   5.853   1.485  2.4526  1.1854 -1.1209
 6583TIP3   OH219754   4.058   0.911   3.657  0.4980  0.2343 -0.1978
 6583TIP3    H119755   4.121   0.975   3.624  0.4248  1.3980  1.7776
 6583TIP3    H219756   4.100   0.875   3.735 -0.1634 -0.9817 -0.3861
 6584TIP3   OH219757   2.273   5.153   0.157  0.3988 -0.4058  0.0720
 6584TIP3    H119758   2.285   5.135   0.250 -1.2630 -0.2801  0.3521
 6584TIP3    H219759   2.250   5.246   0.154  0.3769 -0.4259 -0.4564
 6585TIP3   OH219760   0.584   4.786   5.175  0.0338 -0.2058 -0.0469
 6585TIP3    H119761   0.490   4.807   5.178  0.1275  0.2671  2.3641
 6585TIP3    H219762   0.626   4.868   5.148 -0.0462  1.0313  3.1081
 6586TIP3   OH219763   2.568   4.197   0.457  0.2934  0.0029  0.1463
 6586TIP3    H119764   2.505   4.218   0.389 -0.0909 -0.7915  0.2469
 6586TIP3    H219765   2.621   4.126   0.420  2.8420  2.3162 -0.9522
 6587TIP3   OH219766   3.021   5.599   5.137 -0.3045 -0.6536  0.2374
 6587TIP3    H119767   3.113   5.595   5.112 -0.5137 -1.3103 -0.4885
 6587TIP3    H219768   2.988   5.679   5.095 -0.8783 -2.2056 -2.6047
 6588TIP3   OH219769   5.510   4.963   0.067  0.3077 -0.3970  0.2336
 6588TIP3    H119770   5.487   4.893   0.128 -0.4248 -1.5966 -1.3296
 6588TIP3    H219771   5.425   4.998   0.038  0.5763 -0.5975 -0.8749
 6589TIP3   OH219772   6.226   4.616   3.480  0.2810  1.0786 -0.0051
 6589TIP3    H119773   6.255   4.547   3.419 -0.9503  1.0300 -0.5671
 6589TIP3    H219774   6.226   4.696   3.426  3.0337  1.8626  0.9810
 6590TIP3   OH219775   4.524   2.726   4.798  0.0528 -0.3068  0.3997
 6590TIP3    H119776   4.517   2.810   4.754 -2.3800 -0.8759 -0.4678
 6590TIP3    H219777   4.491   2.742   4.887  1.9096  0.1339  1.0525
 6591TIP3   OH219778   0.682   1.450   0.700 -0.5108  0.0532 -0.0986
 6591TIP3    H119779   0.656   1.451   0.792 -0.9015 -0.6341 -0.1913
 6591TIP3    H219780   0.760   1.506   0.696 -0.7260  0.4105  0.5716
 6592TIP3   OH219781   0.787   0.674   3.928 -0.3208 -0.4578  0.1729
 6592TIP3    H119782   0.700   0.652   3.895 -0.0269  1.4394 -2.1932
 6592TIP3    H219783   0.832   0.590   3.934 -1.5297 -1.2488 -1.0744
 6593TIP3   OH219784   1.038   0.371   2.374 -0.7998 -0.0637  0.1062
 6593TIP3    H119785   1.083   0.287   2.387  0.6534  0.5378 -0.7920
 6593TIP3    H219786   0.948   0.346   2.351 -0.1711 -1.4295 -1.0724
 6594TIP3   OH219787   4.896   5.726   4.491  0.5371  0.0491  0.0172
 6594TIP3    H119788   4.819   5.732   4.434  1.6437  0.1344 -1.5564
 6594TIP3    H219789   4.966   5.694   4.433  1.7497  0.2490  1.3134
 6595TIP3   OH219790   5.353   1.955   4.103 -0.4275  0.5328  0.5546
 6595TIP3    H119791   5.365   2.048   4.125  1.3446  0.8617 -1.4863
 6595TIP3    H219792   5.425   1.910   4.146 -0.4025  0.3126  0.2807
 6596TIP3   OH219793   0.315   3.668   0.023 -0.0423 -0.3960 -0.3640
 6596TIP3    H119794   0.405   3.647   0.046 -0.2736 -3.8073 -2.0373
 6596TIP3    H219795   0.267   3.662   0.106  0.7982 -1.5410  0.0594
 6597TIP3   OH219796   5.375   3.844   0.879  0.1268  0.3614 -0.3253
 6597TIP3    H119797   5.333   3.773   0.831  0.0167  0.2715 -0.1006
 6597TIP3    H219798   5.391   3.807   0.966 -1.2491  1.0687  0.2602
 6598TIP3   OH219799   4.141   1.028   3.901 -0.1437 -0.3768 -0.1194
 6598TIP3    H119800   4.209   1.093   3.920 -0.4545 -0.8861  3.1728
 6598TIP3    H219801   4.190   0.952   3.868  0.4778  0.5063 -1.3227
 6599TIP3   OH219802   5.982   5.224   2.716  0.8697 -0.3321  0.1183
 6599TIP3    H119803   6.063   5.273   2.704  1.1650 -0.9723 -0.5686
 6599TIP3    H219804   5.960   5.192   2.629  0.6516 -1.3746  0.5358
 6600TIP3   OH219805   1.313   4.726   4.210 -0.0913 -0.3717 -0.2559
 6600TIP3    H119806   1.239   4.723   4.271  0.5490 -0.9513  0.5057
 6600TIP3    H219807   1.285   4.671   4.136 -1.2936  1.1659 -1.0060
 6601TIP3   OH219808   5.994   5.501   2.507  0.2915  0.0117 -0.3802
 6601TIP3    H119809   6.002   5.464   2.419 -1.2081  0.2367 -0.6419
 6601TIP3    H219810   6.048   5.580   2.506 -0.1570  0.3169 -1.2883
 6602TIP3   OH219811   4.299   4.559   2.333  0.1437  0.1369  0.1095
 6602TIP3    H119812   4.209   4.590   2.325 -0.8649 -2.5770 -0.2153
 6602TIP3    H219813   4.344   4.597   2.258 -1.3634 -0.3281 -1.0885
 6603TIP3   OH219814   3.887   3.675   3.510  0.5860 -0.2287  0.1967
 6603TIP3    H119815   3.886   3.589   3.468  0.6182 -0.5887  0.9300
 6603TIP3    H219816   3.980   3.696   3.521  0.5934  0.1780 -0.5187
 6604TIP3   OH219817   5.127   3.668   4.878 -0.0595 -0.4704  0.1868
 6604TIP3    H119818   5.158   3.627   4.798  0.8591 -0.9257  0.7558
 6604TIP3    H219819   5.128   3.762   4.859  1.1388 -0.5121 -0.0120
 6605TIP3   OH219820   0.344   0.027   2.754  0.4428 -0.4451  0.2415
 6605TIP3    H119821   0.329  -0.022   2.834 -0.6063  0.8709  0.9011
 6605TIP3    H219822   0.313   0.116   2.774  2.2801  0.5203 -0.8717
 6606TIP3   OH219823   5.671   1.647   1.445 -0.3295 -0.1278 -0.0064
 6606TIP3    H119824   5.726   1.718   1.478 -0.6164 -0.4318  1.1755
 6606TIP3    H219825   5.727   1.600   1.383 -0.5965  1.9689 -1.9781
 6607TIP3   OH219826   4.430   5.060   4.859  0.1836  0.1932 -0.1610
 6607TIP3    H119827   4.429   5.127   4.791  0.1771  0.7897  0.4181
 6607TIP3    H219828   4.455   5.107   4.938  0.9154 -0.6364  0.1061
 6608TIP3   OH219829   1.159   5.912   0.070 -0.1467 -0.4837  0.1639
 6608TIP3    H119830   1.151   5.981   0.136  0.6084 -0.9226  0.7419
 6608TIP3    H219831   1.117   5.947  -0.008  0.8851  0.9246  0.2141
 6609TIP3   OH219832   3.417   0.138   4.777 -0.3385 -0.8944 -0.5427
 6609TIP3    H119833   3.342   0.197   4.790 -0.6016 -0.8624 -2.0226
 6609TIP3    H219834   3.452   0.162   4.692  0.8385 -1.5029 -0.2478
 6610TIP3   OH219835   4.632   2.438   4.843  0.2165 -0.0326  0.1794
 6610TIP3    H119836   4.536   2.440   4.838  0.2347  0.5335  0.0597
 6610TIP3    H219837   4.660   2.521   4.806  0.6679  0.9821  2.6299
 6611TIP3   OH219838   5.176   2.936   0.720  0.4741  0.0041  0.6388
 6611TIP3    H119839   5.158   3.000   0.789 -1.9139 -0.6607  0.7372
 6611TIP3    H219840   5.236   2.981   0.660 -1.7696  2.7446  0.2266
 6612TIP3   OH219841   4.067   1.820   3.987  0.2739  0.0750 -0.1904
 6612TIP3    H119842   4.126   1.808   3.913  0.1732  1.0729 -0.4520
 6612TIP3    H219843   3.992   1.764   3.969  0.2711  0.2823 -0.8316
 6613TIP3   OH219844   5.535   1.460   1.634  0.3417  0.0805 -0.2037
 6613TIP3    H119845   5.508   1.525   1.698 -1.4653 -0.4158 -0.4225
 6613TIP3    H219846   5.558   1.511   1.557 -0.2708  0.5097 -0.1102
 6614TIP3   OH219847   0.824   4.347   0.617 -0.6880 -0.2297  0.0238
 6614TIP3    H119848   0.755   4.290   0.582 -0.9622 -0.0669  0.2999
 6614TIP3    H219849   0.779   4.427   0.643 -0.3293  0.0567 -0.2059
 6615TIP3   OH219850   0.816   4.909   0.536  0.2715 -0.3353  0.3539
 6615TIP3    H119851   0.835   4.905   0.442  0.0873 -0.2112  0.3109
 6615TIP3    H219852   0.721   4.898   0.541  0.2925 -0.4432  0.5333
 6616TIP3   OH219853   2.917   3.135   0.124  0.2876  0.0340 -0.2306
 6616TIP3    H119854   2.980   3.132   0.195 -0.4640 -1.1260  0.4204
 6616TIP3    H219855   2.937   3.058   0.071  0.4702  0.5736 -0.9624
 6617TIP3   OH219856   4.155   3.339   4.101  0.4148 -0.2110  0.1853
 6617TIP3    H119857   4.135   3.407   4.165  1.8176 -1.3655  1.9452
 6617TIP3    H219858   4.071   3.297   4.083 -0.3187  1.3711 -0.2691
 6618TIP3   OH219859   3.640   2.291   0.566  0.1075  0.7346  0.1240
 6618TIP3    H119860   3.711   2.353   0.584 -1.4996  1.9056  3.0639
 6618TIP3    H219861   3.684   2.206   0.559  1.8489  1.4444  1.6888
 6619TIP3   OH219862   1.588   0.413   4.210  0.2994  0.1442 -0.2867
 6619TIP3    H119863   1.502   0.421   4.252  0.6744  1.6958  0.2461
 6619TIP3    H219864   1.644   0.373   4.277  0.2908  0.2520 -0.2167
 6620TIP3   OH219865   6.025   3.912   0.711  0.2721  0.5102  0.3218
 6620TIP3    H119866   5.935   3.881   0.719  0.5366 -0.0492  1.3294
 6620TIP3    H219867   6.040   3.964   0.789  0.7393  0.8417  0.0201
 6621TIP3   OH219868   6.087   0.721   1.823 -0.5838  0.0648  0.1474
 6621TIP3    H119869   6.057   0.787   1.884 -1.0859  0.6920 -0.7559
 6621TIP3    H219870   6.166   0.758   1.784 -0.6917  0.0045 -0.1352
 6622TIP3   OH219871   3.413   3.354   4.270 -0.1771 -0.1591 -0.0273
 6622TIP3    H119872   3.435   3.279   4.215  0.9161 -0.0454  0.2301
 6622TIP3    H219873   3.318   3.358   4.269 -0.2246 -1.2291 -0.4704
 6623TIP3   OH219874   0.129   4.546   0.424  0.7112  0.2021  0.3887
 6623TIP3    H119875   0.103   4.521   0.335  0.8852  0.3557  0.2928
 6623TIP3    H219876   0.053   4.591   0.460  1.0270  1.1431 -0.0867
 6624TIP3   OH219877   0.998   5.057   1.511 -0.2427 -0.4001  0.1768
 6624TIP3    H119878   0.983   5.151   1.515 -0.3698 -0.4182  0.1062
 6624TIP3    H219879   1.082   5.048   1.466 -0.6669 -0.3609 -0.6348
 6625TIP3   OH219880   2.771   0.506   1.888  0.2181  0.4809 -0.3020
 6625TIP3    H119881   2.829   0.430   1.894  1.9378  1.6442 -1.3361
 6625TIP3    H219882   2.688   0.471   1.854  0.6374 -1.0687  0.2138
 6626TIP3   OH219883   2.711   3.434   4.047  0.3590  0.3945  0.0037
 6626TIP3    H119884   2.802   3.461   4.035  0.2266  1.5209  1.3626
 6626TIP3    H219885   2.698   3.437   4.142  0.1692 -3.9952  0.3182
 6627TIP3   OH219886   2.066   4.476   2.894 -0.2760  0.7073 -0.1524
 6627TIP3    H119887   2.005   4.507   2.827 -0.3884 -1.0918 -0.9436
 6627TIP3    H219888   2.136   4.541   2.894 -0.8217  1.3356 -1.2280
 6628TIP3   OH219889   3.611   0.760   3.192  0.2291  0.2093 -0.0728
 6628TIP3    H119890   3.701   0.760   3.160 -0.2570 -1.3857 -1.5981
 6628TIP3    H219891   3.621   0.762   3.288  1.8704  0.3585 -0.2057
 6629TIP3   OH219892   4.008   5.607   0.486 -0.5188  0.3107  0.0997
 6629TIP3    H119893   3.996   5.685   0.431 -0.7923  0.8082  0.8453
 6629TIP3    H219894   4.077   5.633   0.548  0.1077 -0.4003 -0.2825
 6630TIP3   OH219895   4.020   3.271   0.794 -0.6090  0.1171 -0.3914
 6630TIP3    H119896   3.995   3.330   0.866 -1.2790  0.1024 -0.6125
 6630TIP3    H219897   4.114   3.258   0.806 -0.5281  0.9194 -0.1058
 6631TIP3   OH219898   5.750   0.526   5.071 -0.6295  0.7149  0.0969
 6631TIP3    H119899   5.769   0.461   5.138  1.1681  1.4022  0.3010
 6631TIP3    H219900   5.803   0.499   4.996 -2.0797  0.3530 -0.8486
 6632TIP3   OH219901   3.257   1.323   3.550  0.4177 -0.2965  0.2552
 6632TIP3    H119902   3.282   1.249   3.605  0.4621 -0.4005  0.0929
 6632TIP3    H219903   3.225   1.389   3.613  2.4377  0.4123  0.6307
 6633TIP3   OH219904   1.628   4.314   3.807 -0.2027  0.0536  0.3930
 6633TIP3    H119905   1.620   4.365   3.727  2.8052  0.3262  0.1677
 6633TIP3    H219906   1.598   4.226   3.783  3.0973 -0.5968 -1.9187
 6634TIP3   OH219907   3.988   1.418   5.152  0.0174 -0.4496 -0.3652
 6634TIP3    H119908   4.038   1.495   5.127 -0.7608  0.1957  0.0221
 6634TIP3    H219909   3.973   1.428   5.246 -0.5924 -0.7714 -0.4205
 6635TIP3   OH219910   5.334   0.996   4.425 -0.4489 -0.1288 -0.2816
 6635TIP3    H119911   5.283   1.012   4.346 -0.9414  0.2242  0.0980
 6635TIP3    H219912   5.410   1.053   4.416 -0.1573 -0.5916 -0.8098
 6636TIP3   OH219913   4.370   1.522   1.145 -0.3160  0.1080  0.4257
 6636TIP3    H119914   4.341   1.436   1.114  0.2040 -0.0249  0.2901
 6636TIP3    H219915   4.328   1.534   1.230 -0.0075 -0.4988  0.6697
 6637TIP3   OH219916   5.246   4.493   0.122  0.0681  0.0279  0.2867
 6637TIP3    H119917   5.274   4.538   0.043 -0.6403  0.8925  0.5189
 6637TIP3    H219918   5.311   4.517   0.188 -0.3773  0.8279  0.4428
 6638TIP3   OH219919   0.874   1.939   3.073  0.1283  0.3802  0.3965
 6638TIP3    H119920   0.967   1.959   3.058 -0.3005  0.5395 -2.6662
 6638TIP3    H219921   0.834   1.944   2.986 -2.6939 -0.1435  1.5589
 6639TIP3   OH219922   4.979   4.424   3.821 -0.6488 -0.4186  0.7938
 6639TIP3    H119923   4.997   4.482   3.895  0.8442  0.7584 -0.4249
 6639TIP3    H219924   4.889   4.396   3.834 -0.3179 -0.5871  3.2602
 6640TIP3   OH219925   5.736   1.470   3.694  0.3304 -0.0652 -0.1635
 6640TIP3    H119926   5.714   1.465   3.601  1.7790 -1.2180 -0.4816
 6640TIP3    H219927   5.787   1.551   3.701 -0.9990  0.7951 -0.0638
   6.35898   5.99531   5.19209   0.00000   0.00000  -2.11966   0.00000  -2.11966  -2.99766
