Title t=  11.00000 step= 5500
29212
    1ASP      N    1   2.247   3.550   4.732
    1ASP    HT1    2   2.179   3.625   4.753
    1ASP    HT2    3   2.231   3.506   4.639
    1ASP    HT3    4   2.342   3.594   4.728
    1ASP     CA    5   2.247   3.440   4.831
    1ASP     HA    6   2.276   3.481   4.927
    1ASP     CB    7   2.100   3.381   4.849
    1ASP    HB1    8   2.092   3.302   4.927
    1ASP    HB2    9   2.059   3.340   4.755
    1ASP     CG   10   2.003   3.492   4.897
    1ASP    OD1   11   2.049   3.608   4.918
    1ASP    OD2   12   1.882   3.463   4.902
    1ASP      C   13   2.351   3.326   4.802
    1ASP      O   14   2.467   3.359   4.791
    2GLY      N   15   2.300   3.207   4.780
    2GLY     HN   16   2.201   3.194   4.779
    2GLY     CA   17   2.383   3.090   4.746
    2GLY    HA1   18   2.312   3.008   4.745
    2GLY    HA2   19   2.460   3.086   4.822
    2GLY      C   20   2.462   3.083   4.619
    2GLY      O   21   2.443   3.172   4.530
    3ASP      N   22   2.562   2.992   4.607
    3ASP     HN   23   2.576   2.931   4.685
    3ASP     CA   24   2.658   2.987   4.498
    3ASP     HA   25   2.714   3.079   4.508
    3ASP     CB   26   2.759   2.870   4.520
    3ASP    HB1   27   2.836   2.885   4.441
    3ASP    HB2   28   2.706   2.773   4.530
    3ASP     CG   29   2.833   2.890   4.653
    3ASP    OD1   30   2.873   3.001   4.699
    3ASP    OD2   31   2.852   2.779   4.713
    3ASP      C   32   2.589   2.976   4.357
    3ASP      O   33   2.492   2.907   4.347
    4GLY      N   34   2.640   3.049   4.253
    4GLY     HN   35   2.732   3.086   4.263
    4GLY     CA   36   2.568   3.082   4.128
    4GLY    HA1   37   2.569   3.189   4.120
    4GLY    HA2   38   2.465   3.061   4.152
    4GLY      C   39   2.623   3.038   3.997
    4GLY      O   40   2.706   2.953   3.996
    5PRO      N   41   2.570   3.102   3.893
    5PRO     CD   42   2.438   3.162   3.886
    5PRO    HD1   43   2.455   3.260   3.934
    5PRO    HD2   44   2.362   3.101   3.940
    5PRO     CA   45   2.625   3.074   3.757
    5PRO     HA   46   2.602   2.969   3.744
    5PRO     CB   47   2.543   3.174   3.667
    5PRO    HB1   48   2.529   3.151   3.560
    5PRO    HB2   49   2.593   3.272   3.677
    5PRO     CG   50   2.406   3.189   3.737
    5PRO    HG1   51   2.367   3.293   3.724
    5PRO    HG2   52   2.334   3.115   3.696
    5PRO      C   53   2.776   3.101   3.725
    5PRO      O   54   2.847   3.169   3.802
    6GLY      N   55   2.832   3.036   3.621
    6GLY     HN   56   2.784   2.982   3.552
    6GLY     CA   57   2.965   3.060   3.583
    6GLY    HA1   58   2.993   2.989   3.506
    6GLY    HA2   59   3.030   3.058   3.669
    6GLY      C   60   2.990   3.194   3.523
    6GLY      O   61   2.906   3.285   3.525
    7ASP      N   62   3.112   3.209   3.471
    7ASP     HN   63   3.182   3.140   3.487
    7ASP     CA   64   3.155   3.327   3.397
    7ASP     HA   65   3.111   3.398   3.465
    7ASP     CB   66   3.302   3.352   3.394
    7ASP    HB1   67   3.326   3.451   3.350
    7ASP    HB2   68   3.344   3.270   3.330
    7ASP     CG   69   3.375   3.330   3.521
    7ASP    OD1   70   3.337   3.378   3.626
    7ASP    OD2   71   3.489   3.284   3.504
    7ASP      C   72   3.083   3.345   3.262
    7ASP      O   73   3.034   3.241   3.211
    8PRO      N   74   3.064   3.464   3.219
    8PRO     CD   75   3.050   3.585   3.302
    8PRO    HD1   76   3.151   3.625   3.325
    8PRO    HD2   77   2.997   3.576   3.399
    8PRO     CA   78   3.038   3.496   3.079
    8PRO     HA   79   2.939   3.456   3.064
    8PRO     CB   80   3.062   3.643   3.068
    8PRO    HB1   81   3.003   3.693   2.988
    8PRO    HB2   82   3.170   3.668   3.063
    8PRO     CG   83   2.999   3.686   3.205
    8PRO    HG1   84   3.010   3.797   3.208
    8PRO    HG2   85   2.891   3.666   3.187
    8PRO      C   86   3.127   3.423   2.979
    8PRO      O   87   3.248   3.407   3.002
    9GLY      N   88   3.064   3.390   2.868
    9GLY     HN   89   2.965   3.400   2.861
    9GLY     CA   90   3.129   3.319   2.756
    9GLY    HA1   91   3.048   3.277   2.699
    9GLY    HA2   92   3.185   3.234   2.789
    9GLY      C   93   3.229   3.393   2.669
    9GLY      O   94   3.281   3.500   2.701
   10ASP      N   95   3.271   3.336   2.551
   10ASP     HN   96   3.244   3.248   2.514
   10ASP     CA   97   3.362   3.407   2.453
   10ASP     HA   98   3.448   3.446   2.504
   10ASP     CB   99   3.399   3.310   2.339
   10ASP    HB1  100   3.445   3.365   2.254
   10ASP    HB2  101   3.308   3.259   2.301
   10ASP     CG  102   3.494   3.210   2.398
   10ASP    OD1  103   3.520   3.105   2.334
   10ASP    OD2  104   3.550   3.235   2.508
   10ASP      C  105   3.278   3.516   2.394
   10ASP      O  106   3.158   3.510   2.394
   11GLY      N  107   3.335   3.622   2.340
   11GLY     HN  108   3.434   3.633   2.343
   11GLY     CA  109   3.271   3.743   2.281
   11GLY    HA1  110   3.346   3.812   2.245
   11GLY    HA2  111   3.209   3.785   2.359
   11GLY      C  112   3.186   3.721   2.153
   11GLY    OT1  113   3.248   3.681   2.050
   11GLY    OT2  114   3.063   3.746   2.154
   12SOD    SOD  115   5.402   1.486   2.193
   13SOD    SOD  116   6.360   1.132   1.685
   14SOD    SOD  117   2.162   0.351   2.643
   15SOD    SOD  118   5.247   6.706   3.843
   16SOD    SOD  119   4.594   2.100   2.565
   17SOD    SOD  120   4.954   5.993   0.441
   18SOD    SOD  121   6.164   1.669   1.418
   19SOD    SOD  122   5.200   0.833   3.821
   20SOD    SOD  123   6.443   1.585   5.235
   21SOD    SOD  124   6.905   0.944   0.491
   22SOD    SOD  125   1.524   4.455   0.962
   23SOD    SOD  126   3.241   3.199   1.960
   24SOD    SOD  127   1.915   0.481   3.284
   25SOD    SOD  128   3.339   4.484   0.558
   26SOD    SOD  129   4.547   4.986   3.754
   27SOD    SOD  130   4.499   3.159   4.034
   28SOD    SOD  131   5.923   2.361   3.545
   29SOD    SOD  132   1.107   1.665   1.910
   30SOD    SOD  133   3.163   0.359   2.804
   31SOD    SOD  134   3.987   0.209   4.233
   32SOD    SOD  135   3.271   4.346   2.933
   33SOD    SOD  136   1.388   4.408   2.530
   34SOD    SOD  137   4.931   6.741   1.864
   35SOD    SOD  138   4.060   2.858   2.766
   36SOD    SOD  139   6.855   3.461   4.435
   37SOD    SOD  140   3.847   4.915   0.339
   38SOD    SOD  141   2.159   5.897   4.287
   39SOD    SOD  142   0.297   4.475   4.644
   40SOD    SOD  143   2.249   6.639   0.728
   41SOD    SOD  144   6.982   4.162   0.308
   42SOD    SOD  145   5.914   5.120   5.405
   43CLA    CLA  146   2.329   6.498   3.675
   44CLA    CLA  147   3.415   0.259   3.837
   45CLA    CLA  148   3.352   4.815   0.870
   46CLA    CLA  149   6.529   4.375   4.278
   47CLA    CLA  150   0.409   5.367   0.232
   48CLA    CLA  151   5.183   1.020   2.460
   49CLA    CLA  152   0.349   3.097   5.824
   50CLA    CLA  153   5.262   6.210   4.402
   51CLA    CLA  154   7.221   3.970   3.010
   52CLA    CLA  155   7.097   2.116   1.905
   53CLA    CLA  156   1.052   2.607   0.737
   54CLA    CLA  157   6.124   5.334   4.872
   55CLA    CLA  158   1.376   0.968   2.085
   56CLA    CLA  159   4.036   4.658   4.993
   57CLA    CLA  160   3.000   4.559   2.507
   58CLA    CLA  161   4.209   2.608   3.156
   59CLA    CLA  162   0.351   2.659   3.059
   60CLA    CLA  163   5.021   4.616   0.074
   61CLA    CLA  164   3.481   2.385   5.480
   62CLA    CLA  165   5.140   2.430   2.813
   63CLA    CLA  166   0.048   3.327   5.072
   64CLA    CLA  167   3.691   6.002   0.401
   65CLA    CLA  168   4.155   0.652   0.605
   66CLA    CLA  169   0.351   4.988   2.149
   67CLA    CLA  170   2.639   2.669   2.607
   68CLA    CLA  171   4.601   0.983   0.062
   69CLA    CLA  172   5.040   1.174   4.013
   70TIP3   OH2  173   3.371   2.986   1.366
   70TIP3    H1  174   3.414   3.060   1.409
   70TIP3    H2  175   3.388   3.000   1.273
   71TIP3   OH2  176   1.004   4.514   0.420
   71TIP3    H1  177   1.038   4.443   0.366
   71TIP3    H2  178   0.968   4.577   0.357
   72TIP3   OH2  179   4.085   3.985   5.512
   72TIP3    H1  180   4.083   4.079   5.499
   72TIP3    H2  181   4.052   3.972   5.601
   73TIP3   OH2  182   2.432   0.079   5.016
   73TIP3    H1  183   2.388   0.062   4.933
   73TIP3    H2  184   2.520   0.109   4.990
   74TIP3   OH2  185   2.467   6.284   3.530
   74TIP3    H1  186   2.388   6.251   3.487
   74TIP3    H2  187   2.435   6.346   3.595
   75TIP3   OH2  188   0.314   6.200   4.066
   75TIP3    H1  189   0.343   6.146   4.140
   75TIP3    H2  190   0.377   6.179   3.996
   76TIP3   OH2  191   4.891   5.488   0.403
   76TIP3    H1  192   4.912   5.442   0.484
   76TIP3    H2  193   4.976   5.519   0.370
   77TIP3   OH2  194   2.737   0.325   0.608
   77TIP3    H1  195   2.644   0.311   0.625
   77TIP3    H2  196   2.740   0.378   0.528
   78TIP3   OH2  197   3.708   0.649   0.595
   78TIP3    H1  198   3.775   0.641   0.527
   78TIP3    H2  199   3.655   0.724   0.568
   79TIP3   OH2  200   1.369   6.005   0.873
   79TIP3    H1  201   1.337   5.924   0.912
   79TIP3    H2  202   1.463   5.993   0.866
   80TIP3   OH2  203   1.629   3.126   3.186
   80TIP3    H1  204   1.616   3.043   3.140
   80TIP3    H2  205   1.618   3.193   3.118
   81TIP3   OH2  206   1.594   4.783   5.057
   81TIP3    H1  207   1.567   4.764   5.147
   81TIP3    H2  208   1.678   4.739   5.048
   82TIP3   OH2  209   0.940   4.011   2.784
   82TIP3    H1  210   0.955   3.932   2.732
   82TIP3    H2  211   0.912   4.076   2.720
   83TIP3   OH2  212   2.076   3.987   5.501
   83TIP3    H1  213   1.983   3.985   5.482
   83TIP3    H2  214   2.116   3.931   5.435
   84TIP3   OH2  215   1.043   3.453   5.800
   84TIP3    H1  216   1.016   3.417   5.885
   84TIP3    H2  217   0.986   3.411   5.737
   85TIP3   OH2  218   2.982   4.710   2.772
   85TIP3    H1  219   2.954   4.662   2.694
   85TIP3    H2  220   2.951   4.657   2.845
   86TIP3   OH2  221   1.021   1.359   5.695
   86TIP3    H1  222   1.053   1.413   5.623
   86TIP3    H2  223   1.030   1.415   5.773
   87TIP3   OH2  224   2.260   2.216   1.775
   87TIP3    H1  225   2.315   2.289   1.804
   87TIP3    H2  226   2.195   2.205   1.845
   88TIP3   OH2  227   5.618   1.125   4.884
   88TIP3    H1  228   5.528   1.099   4.905
   88TIP3    H2  229   5.608   1.189   4.813
   89TIP3   OH2  230   3.023   6.746   5.113
   89TIP3    H1  231   3.109   6.715   5.143
   89TIP3    H2  232   3.014   6.710   5.025
   90TIP3   OH2  233   1.268   2.615   3.007
   90TIP3    H1  234   1.219   2.582   2.932
   90TIP3    H2  235   1.358   2.623   2.975
   91TIP3   OH2  236   6.200   6.469   1.156
   91TIP3    H1  237   6.189   6.466   1.251
   91TIP3    H2  238   6.252   6.392   1.134
   92TIP3   OH2  239   5.962   4.858   4.383
   92TIP3    H1  240   5.893   4.794   4.403
   92TIP3    H2  241   6.041   4.821   4.423
   93TIP3   OH2  242   1.230   1.260   2.026
   93TIP3    H1  243   1.282   1.180   2.025
   93TIP3    H2  244   1.211   1.274   2.119
   94TIP3   OH2  245   2.794   6.223   2.631
   94TIP3    H1  246   2.709   6.267   2.632
   94TIP3    H2  247   2.779   6.138   2.673
   95TIP3   OH2  248   5.945   4.128   1.969
   95TIP3    H1  249   6.016   4.184   1.937
   95TIP3    H2  250   5.891   4.111   1.892
   96TIP3   OH2  251   7.093   4.055   0.482
   96TIP3    H1  252   7.082   3.972   0.528
   96TIP3    H2  253   7.186   4.075   0.491
   97TIP3   OH2  254   0.147   1.499   0.815
   97TIP3    H1  255   0.120   1.411   0.787
   97TIP3    H2  256   0.227   1.516   0.767
   98TIP3   OH2  257   2.958   5.147   2.899
   98TIP3    H1  258   2.994   5.069   2.858
   98TIP3    H2  259   2.866   5.126   2.913
   99TIP3   OH2  260   6.151   1.177   0.668
   99TIP3    H1  261   6.236   1.168   0.625
   99TIP3    H2  262   6.113   1.090   0.664
  100TIP3   OH2  263   4.611   2.216   5.537
  100TIP3    H1  264   4.653   2.299   5.516
  100TIP3    H2  265   4.579   2.226   5.626
  101TIP3   OH2  266   0.367   1.741   0.396
  101TIP3    H1  267   0.361   1.776   0.485
  101TIP3    H2  268   0.423   1.804   0.350
  102TIP3   OH2  269   5.609   2.163   5.219
  102TIP3    H1  270   5.528   2.214   5.225
  102TIP3    H2  271   5.584   2.075   5.247
  103TIP3   OH2  272   5.454   2.946   4.820
  103TIP3    H1  273   5.513   2.890   4.770
  103TIP3    H2  274   5.422   3.010   4.756
  104TIP3   OH2  275   3.681   4.227   1.733
  104TIP3    H1  276   3.652   4.294   1.796
  104TIP3    H2  277   3.675   4.270   1.648
  105TIP3   OH2  278   2.618   5.313   2.950
  105TIP3    H1  279   2.527   5.285   2.945
  105TIP3    H2  280   2.624   5.366   3.029
  106TIP3   OH2  281   3.108   5.194   1.262
  106TIP3    H1  282   3.078   5.181   1.352
  106TIP3    H2  283   3.030   5.221   1.214
  107TIP3   OH2  284   0.499   4.483   4.237
  107TIP3    H1  285   0.464   4.562   4.195
  107TIP3    H2  286   0.462   4.410   4.188
  108TIP3   OH2  287   0.846   0.525   2.267
  108TIP3    H1  288   0.940   0.504   2.263
  108TIP3    H2  289   0.840   0.615   2.236
  109TIP3   OH2  290   6.061   1.200   2.320
  109TIP3    H1  291   6.156   1.202   2.310
  109TIP3    H2  292   6.027   1.204   2.230
  110TIP3   OH2  293   3.693   5.297   4.899
  110TIP3    H1  294   3.664   5.262   4.815
  110TIP3    H2  295   3.657   5.237   4.964
  111TIP3   OH2  296   3.001   3.207   1.837
  111TIP3    H1  297   3.031   3.212   1.746
  111TIP3    H2  298   2.965   3.293   1.856
  112TIP3   OH2  299   6.485   3.409   1.082
  112TIP3    H1  300   6.473   3.316   1.101
  112TIP3    H2  301   6.579   3.419   1.069
  113TIP3   OH2  302   2.832   0.093   5.187
  113TIP3    H1  303   2.829   0.184   5.157
  113TIP3    H2  304   2.854   0.099   5.280
  114TIP3   OH2  305   5.624   6.331   1.972
  114TIP3    H1  306   5.658   6.268   2.037
  114TIP3    H2  307   5.562   6.280   1.919
  115TIP3   OH2  308   6.147   2.972   5.106
  115TIP3    H1  309   6.087   2.934   5.170
  115TIP3    H2  310   6.174   2.898   5.052
  116TIP3   OH2  311   5.022   3.507   2.518
  116TIP3    H1  312   4.942   3.461   2.492
  116TIP3    H2  313   4.994   3.570   2.584
  117TIP3   OH2  314   0.585   4.588   3.617
  117TIP3    H1  315   0.599   4.566   3.709
  117TIP3    H2  316   0.612   4.510   3.570
  118TIP3   OH2  317   6.965   6.141   3.400
  118TIP3    H1  318   7.024   6.159   3.327
  118TIP3    H2  319   6.952   6.046   3.398
  119TIP3   OH2  320   0.759   5.995   0.997
  119TIP3    H1  321   0.700   5.920   1.002
  119TIP3    H2  322   0.796   6.003   1.085
  120TIP3   OH2  323   3.056   3.020   2.887
  120TIP3    H1  324   3.000   3.009   2.810
  120TIP3    H2  325   3.131   2.963   2.871
  121TIP3   OH2  326   6.021   3.162   0.741
  121TIP3    H1  327   6.013   3.256   0.728
  121TIP3    H2  328   6.015   3.125   0.653
  122TIP3   OH2  329   6.957   4.200   4.092
  122TIP3    H1  330   6.975   4.110   4.064
  122TIP3    H2  331   7.023   4.252   4.046
  123TIP3   OH2  332   0.935   0.065   0.841
  123TIP3    H1  333   0.955   0.107   0.757
  123TIP3    H2  334   1.011   0.011   0.860
  124TIP3   OH2  335   4.891   5.787   2.184
  124TIP3    H1  336   4.821   5.851   2.170
  124TIP3    H2  337   4.866   5.713   2.130
  125TIP3   OH2  338   6.481   3.045   4.410
  125TIP3    H1  339   6.465   3.093   4.491
  125TIP3    H2  340   6.417   2.974   4.411
  126TIP3   OH2  341   1.548   5.330   1.814
  126TIP3    H1  342   1.626   5.276   1.818
  126TIP3    H2  343   1.477   5.273   1.845
  127TIP3   OH2  344   1.553   4.367   2.039
  127TIP3    H1  345   1.642   4.334   2.049
  127TIP3    H2  346   1.525   4.337   1.953
  128TIP3   OH2  347   2.009   4.817   5.173
  128TIP3    H1  348   1.935   4.827   5.233
  128TIP3    H2  349   1.968   4.801   5.088
  129TIP3   OH2  350   5.898   4.694   5.727
  129TIP3    H1  351   5.830   4.740   5.776
  129TIP3    H2  352   5.975   4.750   5.733
  130TIP3   OH2  353   5.456   3.289   2.378
  130TIP3    H1  354   5.445   3.383   2.392
  130TIP3    H2  355   5.549   3.273   2.395
  131TIP3   OH2  356   6.934   3.073   2.454
  131TIP3    H1  357   6.940   3.005   2.387
  131TIP3    H2  358   7.018   3.070   2.500
  132TIP3   OH2  359   5.500   2.749   0.248
  132TIP3    H1  360   5.428   2.711   0.297
  132TIP3    H2  361   5.548   2.673   0.213
  133TIP3   OH2  362   2.405   1.449   2.829
  133TIP3    H1  363   2.500   1.449   2.816
  133TIP3    H2  364   2.392   1.494   2.912
  134TIP3   OH2  365   0.500   0.622   1.733
  134TIP3    H1  366   0.483   0.716   1.745
  134TIP3    H2  367   0.422   0.579   1.769
  135TIP3   OH2  368   0.747   3.040   0.707
  135TIP3    H1  369   0.710   2.963   0.751
  135TIP3    H2  370   0.694   3.050   0.628
  136TIP3   OH2  371   3.125   4.558   3.874
  136TIP3    H1  372   3.163   4.627   3.929
  136TIP3    H2  373   3.199   4.502   3.850
  137TIP3   OH2  374   7.046   2.154   3.168
  137TIP3    H1  375   7.080   2.141   3.257
  137TIP3    H2  376   7.052   2.249   3.154
  138TIP3   OH2  377   1.888   1.654   1.000
  138TIP3    H1  378   1.815   1.715   1.016
  138TIP3    H2  379   1.849   1.567   1.009
  139TIP3   OH2  380   2.929   0.512   4.396
  139TIP3    H1  381   2.948   0.579   4.462
  139TIP3    H2  382   2.834   0.515   4.385
  140TIP3   OH2  383   3.262   0.268   1.556
  140TIP3    H1  384   3.251   0.192   1.613
  140TIP3    H2  385   3.347   0.255   1.514
  141TIP3   OH2  386   1.791   3.715   2.326
  141TIP3    H1  387   1.726   3.646   2.331
  141TIP3    H2  388   1.846   3.691   2.252
  142TIP3   OH2  389   5.489   3.315   4.236
  142TIP3    H1  390   5.492   3.381   4.166
  142TIP3    H2  391   5.577   3.278   4.239
  143TIP3   OH2  392   2.515   4.968   4.050
  143TIP3    H1  393   2.458   4.992   3.977
  143TIP3    H2  394   2.458   4.918   4.109
  144TIP3   OH2  395   0.861   3.250   2.284
  144TIP3    H1  396   0.945   3.238   2.328
  144TIP3    H2  397   0.798   3.201   2.336
  145TIP3   OH2  398   1.394   0.196   5.905
  145TIP3    H1  399   1.429   0.207   5.816
  145TIP3    H2  400   1.372   0.103   5.910
  146TIP3   OH2  401   2.476   3.353   5.221
  146TIP3    H1  402   2.508   3.297   5.151
  146TIP3    H2  403   2.386   3.376   5.195
  147TIP3   OH2  404   2.329   5.675   2.331
  147TIP3    H1  405   2.294   5.627   2.406
  147TIP3    H2  406   2.423   5.658   2.332
  148TIP3   OH2  407   1.641   3.295   1.476
  148TIP3    H1  408   1.631   3.216   1.528
  148TIP3    H2  409   1.718   3.277   1.421
  149TIP3   OH2  410   5.960   0.762   2.066
  149TIP3    H1  411   5.934   0.787   2.155
  149TIP3    H2  412   5.982   0.669   2.072
  150TIP3   OH2  413   4.620   0.549   0.273
  150TIP3    H1  414   4.568   0.548   0.193
  150TIP3    H2  415   4.555   0.551   0.344
  151TIP3   OH2  416   0.733   5.673   0.622
  151TIP3    H1  417   0.690   5.635   0.699
  151TIP3    H2  418   0.679   5.645   0.549
  152TIP3   OH2  419   5.369   6.732   5.692
  152TIP3    H1  420   5.311   6.685   5.634
  152TIP3    H2  421   5.398   6.667   5.756
  153TIP3   OH2  422   6.488   3.111   2.825
  153TIP3    H1  423   6.512   3.035   2.771
  153TIP3    H2  424   6.561   3.120   2.887
  154TIP3   OH2  425   6.565   4.069   4.215
  154TIP3    H1  426   6.641   4.044   4.267
  154TIP3    H2  427   6.540   4.155   4.250
  155TIP3   OH2  428   2.986   5.436   5.710
  155TIP3    H1  429   2.937   5.359   5.739
  155TIP3    H2  430   2.925   5.509   5.721
  156TIP3   OH2  431   3.464   6.081   3.105
  156TIP3    H1  432   3.416   6.159   3.132
  156TIP3    H2  433   3.401   6.009   3.112
  157TIP3   OH2  434   6.718   1.937   3.521
  157TIP3    H1  435   6.628   1.948   3.493
  157TIP3    H2  436   6.753   2.026   3.525
  158TIP3   OH2  437   4.534   4.866   2.753
  158TIP3    H1  438   4.531   4.961   2.747
  158TIP3    H2  439   4.465   4.836   2.694
  159TIP3   OH2  440   3.312   2.665   4.872
  159TIP3    H1  441   3.224   2.696   4.853
  159TIP3    H2  442   3.303   2.570   4.879
  160TIP3   OH2  443   6.826   5.845   1.879
  160TIP3    H1  444   6.840   5.809   1.967
  160TIP3    H2  445   6.851   5.774   1.820
  161TIP3   OH2  446   2.248   1.498   1.582
  161TIP3    H1  447   2.233   1.563   1.513
  161TIP3    H2  448   2.301   1.544   1.647
  162TIP3   OH2  449   2.070   3.160   5.478
  162TIP3    H1  450   2.166   3.150   5.479
  162TIP3    H2  451   2.047   3.153   5.386
  163TIP3   OH2  452   2.182   4.879   0.409
  163TIP3    H1  453   2.213   4.821   0.338
  163TIP3    H2  454   2.173   4.821   0.485
  164TIP3   OH2  455   3.967   0.153   1.204
  164TIP3    H1  456   3.974   0.195   1.118
  164TIP3    H2  457   4.053   0.164   1.243
  165TIP3   OH2  458   1.551   6.117   1.873
  165TIP3    H1  459   1.546   6.022   1.864
  165TIP3    H2  460   1.505   6.151   1.797
  166TIP3   OH2  461   7.065   2.429   3.269
  166TIP3    H1  462   7.020   2.491   3.212
  166TIP3    H2  463   7.145   2.474   3.296
  167TIP3   OH2  464   1.864   2.153   1.957
  167TIP3    H1  465   1.890   2.074   2.005
  167TIP3    H2  466   1.769   2.158   1.968
  168TIP3   OH2  467   4.573   2.407   2.074
  168TIP3    H1  468   4.505   2.340   2.083
  168TIP3    H2  469   4.584   2.417   1.979
  169TIP3   OH2  470   6.238   5.081   2.526
  169TIP3    H1  471   6.227   5.152   2.463
  169TIP3    H2  472   6.174   5.099   2.595
  170TIP3   OH2  473   2.525   0.909   4.095
  170TIP3    H1  474   2.513   0.954   4.179
  170TIP3    H2  475   2.452   0.846   4.092
  171TIP3   OH2  476   6.983   1.182   3.429
  171TIP3    H1  477   6.988   1.230   3.512
  171TIP3    H2  478   7.066   1.202   3.385
  172TIP3   OH2  479   1.559   1.924   4.724
  172TIP3    H1  480   1.469   1.939   4.752
  172TIP3    H2  481   1.557   1.936   4.629
  173TIP3   OH2  482   2.060   1.675   5.198
  173TIP3    H1  483   2.072   1.599   5.255
  173TIP3    H2  484   1.977   1.714   5.225
  174TIP3   OH2  485   4.428   2.642   0.010
  174TIP3    H1  486   4.409   2.659   0.102
  174TIP3    H2  487   4.503   2.583   0.011
  175TIP3   OH2  488   5.972   0.410   0.470
  175TIP3    H1  489   5.933   0.445   0.389
  175TIP3    H2  490   6.022   0.334   0.442
  176TIP3   OH2  491   3.663   0.369   1.814
  176TIP3    H1  492   3.695   0.428   1.746
  176TIP3    H2  493   3.568   0.383   1.815
  177TIP3   OH2  494   4.796   6.460   4.092
  177TIP3    H1  495   4.777   6.544   4.049
  177TIP3    H2  496   4.872   6.478   4.147
  178TIP3   OH2  497   4.893  -0.071   0.827
  178TIP3    H1  498   4.851  -0.082   0.912
  178TIP3    H2  499   4.959  -0.003   0.842
  179TIP3   OH2  500   6.094   1.545   2.524
  179TIP3    H1  501   6.138   1.535   2.440
  179TIP3    H2  502   6.005   1.573   2.502
  180TIP3   OH2  503   1.726   5.455   5.859
  180TIP3    H1  504   1.804   5.426   5.811
  180TIP3    H2  505   1.703   5.539   5.819
  181TIP3   OH2  506   5.938   3.580   0.481
  181TIP3    H1  507   5.961   3.592   0.389
  181TIP3    H2  508   5.886   3.657   0.503
  182TIP3   OH2  509   0.401   3.624   5.616
  182TIP3    H1  510   0.390   3.597   5.707
  182TIP3    H2  511   0.396   3.720   5.619
  183TIP3   OH2  512   4.098   0.574   2.595
  183TIP3    H1  513   4.109   0.500   2.655
  183TIP3    H2  514   4.096   0.651   2.652
  184TIP3   OH2  515   4.074   0.827   1.172
  184TIP3    H1  516   3.987   0.786   1.164
  184TIP3    H2  517   4.118   0.777   1.240
  185TIP3   OH2  518   2.490   3.764   1.383
  185TIP3    H1  519   2.561   3.770   1.447
  185TIP3    H2  520   2.529   3.718   1.308
  186TIP3   OH2  521   6.158   6.433   0.407
  186TIP3    H1  522   6.150   6.361   0.344
  186TIP3    H2  523   6.179   6.509   0.353
  187TIP3   OH2  524   0.143   2.273   2.026
  187TIP3    H1  525   0.142   2.250   2.119
  187TIP3    H2  526   0.065   2.233   1.989
  188TIP3   OH2  527   5.296   2.688   0.435
  188TIP3    H1  528   5.356   2.628   0.479
  188TIP3    H2  529   5.277   2.755   0.500
  189TIP3   OH2  530   5.819   4.764   0.899
  189TIP3    H1  531   5.793   4.827   0.832
  189TIP3    H2  532   5.857   4.691   0.850
  190TIP3   OH2  533   4.473   5.361   1.977
  190TIP3    H1  534   4.540   5.293   1.967
  190TIP3    H2  535   4.426   5.337   2.056
  191TIP3   OH2  536   1.235   4.558   1.714
  191TIP3    H1  537   1.210   4.621   1.782
  191TIP3    H2  538   1.329   4.574   1.701
  192TIP3   OH2  539   5.551   4.925   2.181
  192TIP3    H1  540   5.475   4.911   2.237
  192TIP3    H2  541   5.613   4.856   2.207
  193TIP3   OH2  542   1.194   3.256   4.578
  193TIP3    H1  543   1.172   3.305   4.658
  193TIP3    H2  544   1.110   3.225   4.545
  194TIP3   OH2  545   2.483   2.490   0.019
  194TIP3    H1  546   2.453   2.405   0.052
  194TIP3    H2  547   2.578   2.480   0.011
  195TIP3   OH2  548   5.665   4.802   5.815
  195TIP3    H1  549   5.660   4.823   5.722
  195TIP3    H2  550   5.614   4.871   5.858
  196TIP3   OH2  551   3.104   5.372   2.412
  196TIP3    H1  552   3.095   5.388   2.506
  196TIP3    H2  553   3.197   5.387   2.393
  197TIP3   OH2  554   0.564   6.527   0.113
  197TIP3    H1  555   0.508   6.559   0.184
  197TIP3    H2  556   0.625   6.599   0.097
  198TIP3   OH2  557   2.419   0.244   1.499
  198TIP3    H1  558   2.485   0.232   1.430
  198TIP3    H2  559   2.337   0.218   1.457
  199TIP3   OH2  560   5.309   1.431   0.899
  199TIP3    H1  561   5.214   1.419   0.900
  199TIP3    H2  562   5.345   1.342   0.902
  200TIP3   OH2  563   6.539   4.345   2.888
  200TIP3    H1  564   6.613   4.402   2.873
  200TIP3    H2  565   6.468   4.382   2.836
  201TIP3   OH2  566   6.632   1.923   2.187
  201TIP3    H1  567   6.592   1.839   2.210
  201TIP3    H2  568   6.716   1.899   2.148
  202TIP3   OH2  569   5.085   3.083   5.568
  202TIP3    H1  570   5.127   3.134   5.638
  202TIP3    H2  571   5.011   3.137   5.542
  203TIP3   OH2  572   2.637   5.487   3.931
  203TIP3    H1  573   2.547   5.512   3.954
  203TIP3    H2  574   2.652   5.530   3.847
  204TIP3   OH2  575   1.769   3.120   4.790
  204TIP3    H1  576   1.740   3.210   4.778
  204TIP3    H2  577   1.717   3.087   4.864
  205TIP3   OH2  578   4.234   6.750   1.140
  205TIP3    H1  579   4.149   6.727   1.176
  205TIP3    H2  580   4.217   6.769   1.048
  206TIP3   OH2  581   3.301   0.588   0.283
  206TIP3    H1  582   3.215   0.627   0.267
  206TIP3    H2  583   3.295   0.553   0.372
  207TIP3   OH2  584   1.726   6.660   4.485
  207TIP3    H1  585   1.658   6.652   4.418
  207TIP3    H2  586   1.678   6.677   4.566
  208TIP3   OH2  587   3.432   1.163   4.187
  208TIP3    H1  588   3.375   1.103   4.234
  208TIP3    H2  589   3.390   1.174   4.102
  209TIP3   OH2  590   2.251   2.424   3.026
  209TIP3    H1  591   2.250   2.410   2.931
  209TIP3    H2  592   2.343   2.434   3.049
  210TIP3   OH2  593   0.729   5.768   4.230
  210TIP3    H1  594   0.646   5.722   4.245
  210TIP3    H2  595   0.774   5.714   4.165
  211TIP3   OH2  596   6.422   6.419   0.560
  211TIP3    H1  597   6.423   6.349   0.494
  211TIP3    H2  598   6.342   6.469   0.540
  212TIP3   OH2  599   0.848   5.161   3.928
  212TIP3    H1  600   0.941   5.178   3.944
  212TIP3    H2  601   0.807   5.247   3.932
  213TIP3   OH2  602   3.639   5.784   2.572
  213TIP3    H1  603   3.731   5.806   2.557
  213TIP3    H2  604   3.641   5.710   2.633
  214TIP3   OH2  605   2.805   1.521   2.306
  214TIP3    H1  606   2.769   1.480   2.228
  214TIP3    H2  607   2.898   1.535   2.285
  215TIP3   OH2  608   1.125   3.306   2.393
  215TIP3    H1  609   1.197   3.254   2.356
  215TIP3    H2  610   1.130   3.390   2.347
  216TIP3   OH2  611   1.123   5.758   0.645
  216TIP3    H1  612   1.056   5.799   0.592
  216TIP3    H2  613   1.139   5.673   0.602
  217TIP3   OH2  614   2.921   0.977   1.295
  217TIP3    H1  615   2.828   0.981   1.318
  217TIP3    H2  616   2.946   1.068   1.279
  218TIP3   OH2  617   4.573   0.755   1.536
  218TIP3    H1  618   4.660   0.716   1.521
  218TIP3    H2  619   4.518   0.681   1.559
  219TIP3   OH2  620   6.682   0.141   0.609
  219TIP3    H1  621   6.683   0.229   0.571
  219TIP3    H2  622   6.666   0.156   0.703
  220TIP3   OH2  623   0.341   5.470   1.266
  220TIP3    H1  624   0.356   5.465   1.172
  220TIP3    H2  625   0.246   5.475   1.276
  221TIP3   OH2  626   4.613   0.540   5.166
  221TIP3    H1  627   4.697   0.512   5.203
  221TIP3    H2  628   4.609   0.499   5.080
  222TIP3   OH2  629   4.055   0.640   3.218
  222TIP3    H1  630   4.069   0.629   3.124
  222TIP3    H2  631   4.142   0.659   3.253
  223TIP3   OH2  632   4.676   6.118   2.327
  223TIP3    H1  633   4.643   6.031   2.304
  223TIP3    H2  634   4.765   6.120   2.292
  224TIP3   OH2  635   5.217   1.296   2.581
  224TIP3    H1  636   5.202   1.216   2.529
  224TIP3    H2  637   5.259   1.265   2.661
  225TIP3   OH2  638   7.018   4.385   0.760
  225TIP3    H1  639   6.943   4.400   0.817
  225TIP3    H2  640   7.031   4.290   0.763
  226TIP3   OH2  641   3.351   2.469   3.408
  226TIP3    H1  642   3.407   2.404   3.365
  226TIP3    H2  643   3.369   2.457   3.501
  227TIP3   OH2  644   3.524   3.896   4.134
  227TIP3    H1  645   3.473   3.923   4.211
  227TIP3    H2  646   3.609   3.870   4.169
  228TIP3   OH2  647   5.867   0.212   3.800
  228TIP3    H1  648   5.940   0.150   3.805
  228TIP3    H2  649   5.814   0.194   3.877
  229TIP3   OH2  650   6.908   0.423   5.363
  229TIP3    H1  651   6.979   0.367   5.330
  229TIP3    H2  652   6.839   0.362   5.388
  230TIP3   OH2  653   5.924   2.142   4.933
  230TIP3    H1  654   5.856   2.076   4.947
  230TIP3    H2  655   5.919   2.164   4.840
  231TIP3   OH2  656   5.079   2.225   4.224
  231TIP3    H1  657   5.053   2.311   4.191
  231TIP3    H2  658   5.027   2.214   4.304
  232TIP3   OH2  659   1.540   4.246   2.647
  232TIP3    H1  660   1.549   4.231   2.741
  232TIP3    H2  661   1.531   4.159   2.610
  233TIP3   OH2  662   3.048   0.494   3.635
  233TIP3    H1  663   3.034   0.586   3.613
  233TIP3    H2  664   2.962   0.453   3.624
  234TIP3   OH2  665   6.281   4.998   2.209
  234TIP3    H1  666   6.239   5.035   2.132
  234TIP3    H2  667   6.293   5.073   2.268
  235TIP3   OH2  668   3.400   1.973   0.992
  235TIP3    H1  669   3.327   1.996   0.933
  235TIP3    H2  670   3.412   2.052   1.046
  236TIP3   OH2  671   0.676   5.074   0.761
  236TIP3    H1  672   0.641   5.103   0.677
  236TIP3    H2  673   0.660   4.980   0.763
  237TIP3   OH2  674   0.767   5.044   3.409
  237TIP3    H1  675   0.812   4.960   3.403
  237TIP3    H2  676   0.732   5.059   3.322
  238TIP3   OH2  677   6.472   6.717   2.993
  238TIP3    H1  678   6.443   6.714   3.084
  238TIP3    H2  679   6.556   6.670   2.994
  239TIP3   OH2  680   6.712   2.579   2.101
  239TIP3    H1  681   6.710   2.636   2.024
  239TIP3    H2  682   6.658   2.504   2.076
  240TIP3   OH2  683   5.555   6.157   0.533
  240TIP3    H1  684   5.512   6.071   0.533
  240TIP3    H2  685   5.577   6.173   0.441
  241TIP3   OH2  686   6.352   5.040   1.088
  241TIP3    H1  687   6.346   4.962   1.034
  241TIP3    H2  688   6.313   5.015   1.172
  242TIP3   OH2  689   5.941   6.093   2.566
  242TIP3    H1  690   5.877   6.067   2.633
  242TIP3    H2  691   6.025   6.090   2.611
  243TIP3   OH2  692   4.611   6.581   0.108
  243TIP3    H1  693   4.609   6.634   0.028
  243TIP3    H2  694   4.528   6.601   0.152
  244TIP3   OH2  695   7.143   6.003   5.153
  244TIP3    H1  696   7.228   6.046   5.145
  244TIP3    H2  697   7.109   6.033   5.237
  245TIP3   OH2  698   2.576   6.184   4.311
  245TIP3    H1  699   2.621   6.189   4.395
  245TIP3    H2  700   2.641   6.148   4.251
  246TIP3   OH2  701   2.032   0.938   5.475
  246TIP3    H1  702   2.104   1.001   5.472
  246TIP3    H2  703   1.983   0.954   5.394
  247TIP3   OH2  704   2.968   6.009   4.300
  247TIP3    H1  705   3.042   6.068   4.282
  247TIP3    H2  706   3.006   5.922   4.304
  248TIP3   OH2  707   0.836   6.405   1.272
  248TIP3    H1  708   0.851   6.433   1.362
  248TIP3    H2  709   0.893   6.329   1.260
  249TIP3   OH2  710   6.994   3.095   2.885
  249TIP3    H1  711   6.962   3.159   2.822
  249TIP3    H2  712   6.976   3.010   2.845
  250TIP3   OH2  713   6.425   0.780   5.063
  250TIP3    H1  714   6.373   0.729   5.125
  250TIP3    H2  715   6.398   0.748   4.977
  251TIP3   OH2  716   1.320   2.906   4.592
  251TIP3    H1  717   1.269   2.967   4.647
  251TIP3    H2  718   1.325   2.826   4.645
  252TIP3   OH2  719   5.928   3.244   2.060
  252TIP3    H1  720   5.994   3.311   2.078
  252TIP3    H2  721   5.979   3.168   2.032
  253TIP3   OH2  722   0.782   0.744   0.200
  253TIP3    H1  723   0.733   0.689   0.138
  253TIP3    H2  724   0.872   0.740   0.169
  254TIP3   OH2  725   1.790   4.817   2.716
  254TIP3    H1  726   1.704   4.778   2.701
  254TIP3    H2  727   1.803   4.810   2.811
  255TIP3   OH2  728   7.217   0.386   0.159
  255TIP3    H1  729   7.175   0.320   0.103
  255TIP3    H2  730   7.309   0.362   0.159
  256TIP3   OH2  731   0.273   2.079   3.427
  256TIP3    H1  732   0.338   2.072   3.496
  256TIP3    H2  733   0.302   2.153   3.374
  257TIP3   OH2  734   6.864  -0.042   3.167
  257TIP3    H1  735   6.906   0.004   3.094
  257TIP3    H2  736   6.821   0.027   3.218
  258TIP3   OH2  737   6.159   3.226   2.533
  258TIP3    H1  738   6.145   3.316   2.504
  258TIP3    H2  739   6.250   3.207   2.510
  259TIP3   OH2  740   3.262   3.189   3.831
  259TIP3    H1  741   3.216   3.117   3.788
  259TIP3    H2  742   3.302   3.238   3.759
  260TIP3   OH2  743   2.270   4.738   1.206
  260TIP3    H1  744   2.359   4.707   1.220
  260TIP3    H2  745   2.261   4.743   1.111
  261TIP3   OH2  746   4.503   2.695   2.117
  261TIP3    H1  747   4.529   2.604   2.131
  261TIP3    H2  748   4.450   2.717   2.193
  262TIP3   OH2  749   7.153   5.726   1.060
  262TIP3    H1  750   7.088   5.717   0.991
  262TIP3    H2  751   7.220   5.661   1.039
  263TIP3   OH2  752   6.069   6.245   2.226
  263TIP3    H1  753   6.093   6.326   2.180
  263TIP3    H2  754   6.149   6.193   2.227
  264TIP3   OH2  755   7.082   4.762   5.617
  264TIP3    H1  756   7.094   4.856   5.606
  264TIP3    H2  757   7.099   4.725   5.530
  265TIP3   OH2  758   0.016   2.150   3.398
  265TIP3    H1  759   0.103   2.111   3.407
  265TIP3    H2  760   0.028   2.243   3.419
  266TIP3   OH2  761   0.717   3.607   4.449
  266TIP3    H1  762   0.807   3.633   4.468
  266TIP3    H2  763   0.720   3.512   4.444
  267TIP3   OH2  764   0.905   3.609   0.534
  267TIP3    H1  765   0.845   3.683   0.539
  267TIP3    H2  766   0.850   3.533   0.555
  268TIP3   OH2  767   0.738   1.496   4.793
  268TIP3    H1  768   0.665   1.439   4.768
  268TIP3    H2  769   0.697   1.574   4.829
  269TIP3   OH2  770   6.079   1.144   4.938
  269TIP3    H1  771   6.080   1.110   4.848
  269TIP3    H2  772   5.995   1.190   4.945
  270TIP3   OH2  773   3.347   3.150   3.012
  270TIP3    H1  774   3.274   3.205   2.984
  270TIP3    H2  775   3.425   3.192   2.976
  271TIP3   OH2  776   2.443   2.412   4.969
  271TIP3    H1  777   2.526   2.436   5.012
  271TIP3    H2  778   2.468   2.388   4.880
  272TIP3   OH2  779   7.018   6.759   1.607
  272TIP3    H1  780   7.081   6.689   1.628
  272TIP3    H2  781   6.934   6.714   1.599
  273TIP3   OH2  782   5.349   5.234   0.843
  273TIP3    H1  783   5.277   5.279   0.800
  273TIP3    H2  784   5.363   5.155   0.790
  274TIP3   OH2  785   4.654   5.153   3.886
  274TIP3    H1  786   4.670   5.222   3.950
  274TIP3    H2  787   4.739   5.112   3.873
  275TIP3   OH2  788   3.346   4.329   3.593
  275TIP3    H1  789   3.426   4.320   3.645
  275TIP3    H2  790   3.315   4.417   3.613
  276TIP3   OH2  791   1.767   3.868   1.305
  276TIP3    H1  792   1.820   3.805   1.354
  276TIP3    H2  793   1.701   3.815   1.261
  277TIP3   OH2  794   2.245   1.208   1.501
  277TIP3    H1  795   2.251   1.304   1.502
  277TIP3    H2  796   2.279   1.181   1.586
  278TIP3   OH2  797   4.532   4.663   5.684
  278TIP3    H1  798   4.613   4.713   5.671
  278TIP3    H2  799   4.500   4.647   5.596
  279TIP3   OH2  800   5.353   2.599   5.186
  279TIP3    H1  801   5.287   2.634   5.246
  279TIP3    H2  802   5.385   2.676   5.138
  280TIP3   OH2  803   1.037   3.904   0.542
  280TIP3    H1  804   1.093   3.928   0.468
  280TIP3    H2  805   1.093   3.853   0.599
  281TIP3   OH2  806   2.677   5.384   1.885
  281TIP3    H1  807   2.683   5.478   1.906
  281TIP3    H2  808   2.583   5.369   1.870
  282TIP3   OH2  809   2.050   0.736   2.915
  282TIP3    H1  810   2.127   0.792   2.914
  282TIP3    H2  811   1.976   0.796   2.925
  283TIP3   OH2  812   4.770   0.396   3.595
  283TIP3    H1  813   4.725   0.454   3.656
  283TIP3    H2  814   4.748   0.431   3.508
  284TIP3   OH2  815   5.599   1.710   4.200
  284TIP3    H1  816   5.596   1.632   4.256
  284TIP3    H2  817   5.521   1.759   4.224
  285TIP3   OH2  818   0.978   1.097   2.441
  285TIP3    H1  819   0.947   1.162   2.377
  285TIP3    H2  820   0.904   1.037   2.452
  286TIP3   OH2  821   0.292   4.455   3.899
  286TIP3    H1  822   0.211   4.465   3.949
  286TIP3    H2  823   0.329   4.544   3.896
  287TIP3   OH2  824   1.049   5.106   0.469
  287TIP3    H1  825   1.080   5.150   0.548
  287TIP3    H2  826   0.959   5.136   0.458
  288TIP3   OH2  827   4.137   0.294   0.170
  288TIP3    H1  828   4.165   0.363   0.229
  288TIP3    H2  829   4.069   0.335   0.116
  289TIP3   OH2  830   6.590   3.513   1.897
  289TIP3    H1  831   6.569   3.421   1.913
  289TIP3    H2  832   6.637   3.541   1.976
  290TIP3   OH2  833   4.595   2.434   0.283
  290TIP3    H1  834   4.562   2.505   0.226
  290TIP3    H2  835   4.650   2.479   0.347
  291TIP3   OH2  836   2.808   1.603   5.372
  291TIP3    H1  837   2.798   1.658   5.450
  291TIP3    H2  838   2.801   1.664   5.298
  292TIP3   OH2  839   1.594   6.011   1.441
  292TIP3    H1  840   1.591   6.072   1.515
  292TIP3    H2  841   1.556   6.060   1.368
  293TIP3   OH2  842   6.845   4.258   3.368
  293TIP3    H1  843   6.811   4.265   3.279
  293TIP3    H2  844   6.872   4.166   3.376
  294TIP3   OH2  845   5.723   5.562   0.740
  294TIP3    H1  846   5.643   5.535   0.785
  294TIP3    H2  847   5.766   5.480   0.716
  295TIP3   OH2  848   5.987   5.667   2.716
  295TIP3    H1  849   5.967   5.686   2.808
  295TIP3    H2  850   5.901   5.649   2.677
  296TIP3   OH2  851   3.387   1.659   4.875
  296TIP3    H1  852   3.303   1.704   4.886
  296TIP3    H2  853   3.449   1.712   4.925
  297TIP3   OH2  854   2.060   3.384   1.172
  297TIP3    H1  855   2.148   3.384   1.136
  297TIP3    H2  856   2.021   3.466   1.139
  298TIP3   OH2  857   4.456   2.316   2.953
  298TIP3    H1  858   4.396   2.323   3.027
  298TIP3    H2  859   4.522   2.383   2.968
  299TIP3   OH2  860   2.668   0.604   4.372
  299TIP3    H1  861   2.588   0.562   4.339
  299TIP3    H2  862   2.685   0.674   4.308
  300TIP3   OH2  863   6.955   1.420   0.354
  300TIP3    H1  864   6.968   1.421   0.448
  300TIP3    H2  865   6.904   1.498   0.336
  301TIP3   OH2  866   2.677   5.319   1.361
  301TIP3    H1  867   2.582   5.319   1.355
  301TIP3    H2  868   2.707   5.326   1.270
  302TIP3   OH2  869   0.419   1.125   0.415
  302TIP3    H1  870   0.483   1.089   0.354
  302TIP3    H2  871   0.337   1.126   0.366
  303TIP3   OH2  872   2.456   0.056   4.501
  303TIP3    H1  873   2.476   0.047   4.594
  303TIP3    H2  874   2.417   0.143   4.493
  304TIP3   OH2  875   1.637   2.704   4.592
  304TIP3    H1  876   1.705   2.762   4.558
  304TIP3    H2  877   1.555   2.743   4.562
  305TIP3   OH2  878   5.445   1.899   5.216
  305TIP3    H1  879   5.467   1.936   5.301
  305TIP3    H2  880   5.410   1.812   5.236
  306TIP3   OH2  881   4.176   6.494   3.369
  306TIP3    H1  882   4.200   6.561   3.433
  306TIP3    H2  883   4.255   6.483   3.316
  307TIP3   OH2  884   1.210   3.448   4.366
  307TIP3    H1  885   1.166   3.390   4.429
  307TIP3    H2  886   1.215   3.398   4.285
  308TIP3   OH2  887   5.824   1.924   1.905
  308TIP3    H1  888   5.842   1.959   1.818
  308TIP3    H2  889   5.857   1.992   1.965
  309TIP3   OH2  890   6.037   0.425   4.775
  309TIP3    H1  891   6.066   0.460   4.691
  309TIP3    H2  892   5.950   0.462   4.787
  310TIP3   OH2  893   1.907   4.800   1.160
  310TIP3    H1  894   1.974   4.866   1.179
  310TIP3    H2  895   1.830   4.852   1.134
  311TIP3   OH2  896   5.527   3.595   2.813
  311TIP3    H1  897   5.466   3.521   2.811
  311TIP3    H2  898   5.480   3.666   2.770
  312TIP3   OH2  899   3.007   6.341   4.119
  312TIP3    H1  900   2.992   6.403   4.190
  312TIP3    H2  901   3.055   6.269   4.160
  313TIP3   OH2  902   7.121   2.998   3.286
  313TIP3    H1  903   7.205   3.011   3.241
  313TIP3    H2  904   7.103   3.083   3.327
  314TIP3   OH2  905   0.611   4.158   1.450
  314TIP3    H1  906   0.571   4.088   1.500
  314TIP3    H2  907   0.701   4.130   1.436
  315TIP3   OH2  908   6.349   3.182   1.169
  315TIP3    H1  909   6.291   3.129   1.113
  315TIP3    H2  910   6.426   3.127   1.181
  316TIP3   OH2  911   2.343   4.694   3.973
  316TIP3    H1  912   2.312   4.751   4.043
  316TIP3    H2  913   2.270   4.634   3.956
  317TIP3   OH2  914   0.926   1.431   0.424
  317TIP3    H1  915   0.980   1.460   0.350
  317TIP3    H2  916   0.836   1.435   0.390
  318TIP3   OH2  917   5.433   0.036   5.824
  318TIP3    H1  918   5.493   0.078   5.762
  318TIP3    H2  919   5.489   0.005   5.895
  319TIP3   OH2  920   1.396   4.428   3.343
  319TIP3    H1  921   1.450   4.442   3.265
  319TIP3    H2  922   1.397   4.333   3.356
  320TIP3   OH2  923   2.515   5.804   1.420
  320TIP3    H1  924   2.580   5.857   1.375
  320TIP3    H2  925   2.564   5.757   1.487
  321TIP3   OH2  926   0.293   6.411   3.852
  321TIP3    H1  927   0.296   6.357   3.931
  321TIP3    H2  928   0.373   6.463   3.856
  322TIP3   OH2  929   4.533   3.525   4.238
  322TIP3    H1  930   4.563   3.435   4.226
  322TIP3    H2  931   4.534   3.562   4.150
  323TIP3   OH2  932   0.538   6.418   0.581
  323TIP3    H1  933   0.572   6.414   0.671
  323TIP3    H2  934   0.586   6.490   0.540
  324TIP3   OH2  935   5.244   1.921   4.384
  324TIP3    H1  936   5.242   1.917   4.479
  324TIP3    H2  937   5.166   1.873   4.356
  325TIP3   OH2  938   4.621   2.785   1.892
  325TIP3    H1  939   4.569   2.760   1.969
  325TIP3    H2  940   4.683   2.849   1.925
  326TIP3   OH2  941   0.425   1.415   1.666
  326TIP3    H1  942   0.407   1.455   1.581
  326TIP3    H2  943   0.407   1.322   1.652
  327TIP3   OH2  944   3.881   6.419   1.090
  327TIP3    H1  945   3.955   6.422   1.151
  327TIP3    H2  946   3.914   6.367   1.017
  328TIP3   OH2  947   3.915   0.192   4.996
  328TIP3    H1  948   3.986   0.132   5.020
  328TIP3    H2  949   3.928   0.268   5.053
  329TIP3   OH2  950   2.369   2.541   1.623
  329TIP3    H1  951   2.458   2.513   1.599
  329TIP3    H2  952   2.339   2.475   1.685
  330TIP3   OH2  953   5.268   4.944   5.634
  330TIP3    H1  954   5.312   4.993   5.704
  330TIP3    H2  955   5.239   5.011   5.572
  331TIP3   OH2  956   6.077   1.447   1.424
  331TIP3    H1  957   6.006   1.402   1.470
  331TIP3    H2  958   6.126   1.377   1.380
  332TIP3   OH2  959   3.869   1.938   3.441
  332TIP3    H1  960   3.780   1.909   3.420
  332TIP3    H2  961   3.915   1.858   3.467
  333TIP3   OH2  962   4.280   6.562   4.397
  333TIP3    H1  963   4.315   6.511   4.323
  333TIP3    H2  964   4.352   6.565   4.460
  334TIP3   OH2  965   1.820   1.783   4.058
  334TIP3    H1  966   1.777   1.867   4.038
  334TIP3    H2  967   1.782   1.756   4.142
  335TIP3   OH2  968   7.115   5.282   3.448
  335TIP3    H1  969   7.020   5.277   3.438
  335TIP3    H2  970   7.134   5.375   3.458
  336TIP3   OH2  971   7.203   4.136   4.776
  336TIP3    H1  972   7.151   4.061   4.805
  336TIP3    H2  973   7.138   4.207   4.766
  337TIP3   OH2  974   6.133   6.440   1.630
  337TIP3    H1  975   6.146   6.399   1.716
  337TIP3    H2  976   6.038   6.448   1.621
  338TIP3   OH2  977   2.335   6.595   1.369
  338TIP3    H1  978   2.345   6.631   1.457
  338TIP3    H2  979   2.422   6.563   1.346
  339TIP3   OH2  980   2.277   1.454   4.285
  339TIP3    H1  981   2.278   1.378   4.344
  339TIP3    H2  982   2.269   1.529   4.344
  340TIP3   OH2  983   3.296   0.738   5.354
  340TIP3    H1  984   3.382   0.696   5.360
  340TIP3    H2  985   3.234   0.669   5.375
  341TIP3   OH2  986   2.565   5.983   2.623
  341TIP3    H1  987   2.553   5.981   2.718
  341TIP3    H2  988   2.480   6.010   2.589
  342TIP3   OH2  989   6.205   5.436   0.374
  342TIP3    H1  990   6.264   5.469   0.307
  342TIP3    H2  991   6.261   5.386   0.433
  343TIP3   OH2  992   0.533   1.723   5.832
  343TIP3    H1  993   0.502   1.740   5.921
  343TIP3    H2  994   0.454   1.715   5.780
  344TIP3   OH2  995   4.301   0.226   2.023
  344TIP3    H1  996   4.280   0.145   2.069
  344TIP3    H2  997   4.266   0.213   1.934
  345TIP3   OH2  998   4.313   0.340   5.719
  345TIP3    H1  999   4.223   0.309   5.719
  345TIP3    H2 1000   4.318   0.400   5.645
  346TIP3   OH2 1001   5.518   6.596   1.924
  346TIP3    H1 1002   5.562   6.515   1.952
  346TIP3    H2 1003   5.562   6.620   1.843
  347TIP3   OH2 1004   6.103   5.155   4.299
  347TIP3    H1 1005   6.143   5.072   4.274
  347TIP3    H2 1006   6.157   5.187   4.372
  348TIP3   OH2 1007   3.244   5.960   5.663
  348TIP3    H1 1008   3.160   5.920   5.640
  348TIP3    H2 1009   3.292   5.889   5.706
  349TIP3   OH2 1010   5.796   1.948   5.896
  349TIP3    H1 1011   5.836   1.977   5.814
  349TIP3    H2 1012   5.848   1.991   5.964
  350TIP3   OH2 1013   4.274   2.977   2.456
  350TIP3    H1 1014   4.253   3.056   2.406
  350TIP3    H2 1015   4.369   2.969   2.449
  351TIP3   OH2 1016   3.516   4.327   2.953
  351TIP3    H1 1017   3.569   4.315   2.874
  351TIP3    H2 1018   3.549   4.260   3.014
  352TIP3   OH2 1019   3.746   2.095   0.345
  352TIP3    H1 1020   3.680   2.026   0.334
  352TIP3    H2 1021   3.786   2.077   0.430
  353TIP3   OH2 1022   6.740   6.494   3.766
  353TIP3    H1 1023   6.812   6.464   3.710
  353TIP3    H2 1024   6.783   6.531   3.843
  354TIP3   OH2 1025   2.210   4.544   4.906
  354TIP3    H1 1026   2.149   4.543   4.832
  354TIP3    H2 1027   2.155   4.522   4.981
  355TIP3   OH2 1028   3.482   2.285   3.188
  355TIP3    H1 1029   3.439   2.340   3.124
  355TIP3    H2 1030   3.558   2.249   3.142
  356TIP3   OH2 1031   5.185   1.484   2.097
  356TIP3    H1 1032   5.152   1.448   2.015
  356TIP3    H2 1033   5.109   1.528   2.136
  357TIP3   OH2 1034   2.913   0.095   3.329
  357TIP3    H1 1035   2.915   0.080   3.423
  357TIP3    H2 1036   2.924   0.009   3.290
  358TIP3   OH2 1037   2.978   4.582   0.672
  358TIP3    H1 1038   2.944   4.627   0.749
  358TIP3    H2 1039   3.070   4.565   0.693
  359TIP3   OH2 1040   5.459   1.666   4.621
  359TIP3    H1 1041   5.432   1.757   4.605
  359TIP3    H2 1042   5.382   1.625   4.659
  360TIP3   OH2 1043   0.917   3.856   2.349
  360TIP3    H1 1044   0.829   3.883   2.374
  360TIP3    H2 1045   0.905   3.811   2.265
  361TIP3   OH2 1046   2.551   3.625   2.879
  361TIP3    H1 1047   2.612   3.570   2.830
  361TIP3    H2 1048   2.479   3.641   2.819
  362TIP3   OH2 1049   0.146   2.046   3.847
  362TIP3    H1 1050   0.199   2.098   3.786
  362TIP3    H2 1051   0.180   1.957   3.839
  363TIP3   OH2 1052   2.276   0.531   2.234
  363TIP3    H1 1053   2.343   0.598   2.222
  363TIP3    H2 1054   2.261   0.497   2.145
  364TIP3   OH2 1055   2.107   0.778   5.765
  364TIP3    H1 1056   2.160   0.818   5.834
  364TIP3    H2 1057   2.044   0.846   5.740
  365TIP3   OH2 1058   1.346   5.269   4.994
  365TIP3    H1 1059   1.350   5.187   5.044
  365TIP3    H2 1060   1.255   5.296   4.999
  366TIP3   OH2 1061   6.888   4.615   1.838
  366TIP3    H1 1062   6.919   4.546   1.897
  366TIP3    H2 1063   6.949   4.688   1.852
  367TIP3   OH2 1064   5.027   4.222   1.226
  367TIP3    H1 1065   4.960   4.280   1.189
  367TIP3    H2 1066   5.064   4.176   1.150
  368TIP3   OH2 1067   7.072   3.004   0.217
  368TIP3    H1 1068   7.058   3.072   0.151
  368TIP3    H2 1069   7.114   3.050   0.290
  369TIP3   OH2 1070   5.609   1.414   5.885
  369TIP3    H1 1071   5.612   1.509   5.882
  369TIP3    H2 1072   5.530   1.390   5.837
  370TIP3   OH2 1073   0.223   2.826   1.646
  370TIP3    H1 1074   0.235   2.879   1.568
  370TIP3    H2 1075   0.132   2.797   1.642
  371TIP3   OH2 1076   6.767   4.024   0.710
  371TIP3    H1 1077   6.750   4.077   0.789
  371TIP3    H2 1078   6.686   3.977   0.695
  372TIP3   OH2 1079   4.429   6.062   0.404
  372TIP3    H1 1080   4.419   6.075   0.498
  372TIP3    H2 1081   4.501   5.999   0.396
  373TIP3   OH2 1082   5.394   0.504   3.851
  373TIP3    H1 1083   5.430   0.589   3.825
  373TIP3    H2 1084   5.441   0.440   3.797
  374TIP3   OH2 1085   5.806   5.453   1.553
  374TIP3    H1 1086   5.819   5.539   1.513
  374TIP3    H2 1087   5.890   5.434   1.595
  375TIP3   OH2 1088   1.154   4.593   4.163
  375TIP3    H1 1089   1.147   4.498   4.177
  375TIP3    H2 1090   1.168   4.601   4.068
  376TIP3   OH2 1091   6.165   3.419   5.258
  376TIP3    H1 1092   6.229   3.372   5.206
  376TIP3    H2 1093   6.160   3.370   5.340
  377TIP3   OH2 1094   0.832   2.711   2.760
  377TIP3    H1 1095   0.850   2.746   2.673
  377TIP3    H2 1096   0.737   2.717   2.769
  378TIP3   OH2 1097   0.752   1.775   3.914
  378TIP3    H1 1098   0.670   1.806   3.953
  378TIP3    H2 1099   0.782   1.706   3.973
  379TIP3   OH2 1100   7.020   2.846   1.685
  379TIP3    H1 1101   7.093   2.789   1.663
  379TIP3    H2 1102   6.944   2.804   1.645
  380TIP3   OH2 1103   6.390   3.712   2.520
  380TIP3    H1 1104   6.423   3.671   2.440
  380TIP3    H2 1105   6.467   3.720   2.577
  381TIP3   OH2 1106   2.767   4.914   4.064
  381TIP3    H1 1107   2.827   4.976   4.022
  381TIP3    H2 1108   2.680   4.943   4.038
  382TIP3   OH2 1109   6.375   4.154   4.779
  382TIP3    H1 1110   6.329   4.071   4.766
  382TIP3    H2 1111   6.418   4.172   4.695
  383TIP3   OH2 1112   5.130   4.678   2.667
  383TIP3    H1 1113   5.125   4.695   2.573
  383TIP3    H2 1114   5.193   4.742   2.700
  384TIP3   OH2 1115   6.837   4.439   4.250
  384TIP3    H1 1116   6.755   4.395   4.272
  384TIP3    H2 1117   6.812   4.503   4.183
  385TIP3   OH2 1118   6.956   6.726   5.585
  385TIP3    H1 1119   6.979   6.803   5.533
  385TIP3    H2 1120   6.907   6.670   5.525
  386TIP3   OH2 1121   0.669   4.385   3.471
  386TIP3    H1 1122   0.687   4.319   3.537
  386TIP3    H2 1123   0.707   4.350   3.391
  387TIP3   OH2 1124   5.068   3.017   1.962
  387TIP3    H1 1125   5.092   2.940   1.910
  387TIP3    H2 1126   5.134   3.082   1.940
  388TIP3   OH2 1127   4.044   4.044   3.595
  388TIP3    H1 1128   4.004   4.031   3.508
  388TIP3    H2 1129   4.107   3.972   3.603
  389TIP3   OH2 1130   6.112   3.403   3.594
  389TIP3    H1 1131   6.050   3.379   3.662
  389TIP3    H2 1132   6.183   3.448   3.641
  390TIP3   OH2 1133   2.410   6.780   5.618
  390TIP3    H1 1134   2.455   6.786   5.702
  390TIP3    H2 1135   2.478   6.754   5.556
  391TIP3   OH2 1136   1.439   5.416   2.275
  391TIP3    H1 1137   1.486   5.370   2.345
  391TIP3    H2 1138   1.473   5.505   2.278
  392TIP3   OH2 1139   3.442   1.478   1.467
  392TIP3    H1 1140   3.495   1.442   1.538
  392TIP3    H2 1141   3.431   1.406   1.405
  393TIP3   OH2 1142   1.395   4.487   2.793
  393TIP3    H1 1143   1.376   4.427   2.865
  393TIP3    H2 1144   1.326   4.553   2.799
  394TIP3   OH2 1145   1.410   6.363   2.002
  394TIP3    H1 1146   1.485   6.421   1.989
  394TIP3    H2 1147   1.432   6.283   1.953
  395TIP3   OH2 1148   5.700   3.748   3.092
  395TIP3    H1 1149   5.616   3.735   3.049
  395TIP3    H2 1150   5.706   3.677   3.156
  396TIP3   OH2 1151   0.571   6.581   5.185
  396TIP3    H1 1152   0.521   6.599   5.266
  396TIP3    H2 1153   0.505   6.586   5.116
  397TIP3   OH2 1154   6.002   1.178   3.035
  397TIP3    H1 1155   5.908   1.162   3.031
  397TIP3    H2 1156   6.040   1.090   3.043
  398TIP3   OH2 1157   3.590   5.072   5.087
  398TIP3    H1 1158   3.583   5.127   5.165
  398TIP3    H2 1159   3.654   5.004   5.111
  399TIP3   OH2 1160   6.274   2.305   3.081
  399TIP3    H1 1161   6.358   2.307   3.126
  399TIP3    H2 1162   6.211   2.337   3.145
  400TIP3   OH2 1163   2.128   0.651   5.497
  400TIP3    H1 1164   2.123   0.691   5.584
  400TIP3    H2 1165   2.071   0.575   5.503
  401TIP3   OH2 1166   2.192   3.065   0.275
  401TIP3    H1 1167   2.244   3.051   0.196
  401TIP3    H2 1168   2.105   3.030   0.253
  402TIP3   OH2 1169   0.912   6.451   5.458
  402TIP3    H1 1170   1.004   6.451   5.433
  402TIP3    H2 1171   0.882   6.541   5.441
  403TIP3   OH2 1172   5.731   6.125   5.590
  403TIP3    H1 1173   5.767   6.207   5.622
  403TIP3    H2 1174   5.803   6.084   5.542
  404TIP3   OH2 1175   4.462   5.762   3.579
  404TIP3    H1 1176   4.373   5.739   3.554
  404TIP3    H2 1177   4.487   5.694   3.642
  405TIP3   OH2 1178   4.623   3.913   4.250
  405TIP3    H1 1179   4.671   3.833   4.270
  405TIP3    H2 1180   4.592   3.901   4.160
  406TIP3   OH2 1181   0.680   3.433   2.773
  406TIP3    H1 1182   0.683   3.434   2.678
  406TIP3    H2 1183   0.612   3.369   2.795
  407TIP3   OH2 1184   7.196   2.206   1.485
  407TIP3    H1 1185   7.215   2.167   1.399
  407TIP3    H2 1186   7.281   2.208   1.529
  408TIP3   OH2 1187   4.849   0.525   1.240
  408TIP3    H1 1188   4.936   0.489   1.259
  408TIP3    H2 1189   4.821   0.478   1.162
  409TIP3   OH2 1190   4.208   2.863   5.097
  409TIP3    H1 1191   4.247   2.778   5.117
  409TIP3    H2 1192   4.260   2.896   5.023
  410TIP3   OH2 1193   1.489   2.476   2.446
  410TIP3    H1 1194   1.466   2.392   2.484
  410TIP3    H2 1195   1.438   2.540   2.496
  411TIP3   OH2 1196   6.394   1.438   3.263
  411TIP3    H1 1197   6.440   1.521   3.249
  411TIP3    H2 1198   6.386   1.400   3.175
  412TIP3   OH2 1199   3.413   0.098   1.948
  412TIP3    H1 1200   3.395   0.095   2.042
  412TIP3    H2 1201   3.506   0.073   1.941
  413TIP3   OH2 1202   3.905   1.198   1.965
  413TIP3    H1 1203   3.817   1.161   1.967
  413TIP3    H2 1204   3.892   1.290   1.985
  414TIP3   OH2 1205   0.024   3.029   3.037
  414TIP3    H1 1206   0.080   2.981   2.976
  414TIP3    H2 1207  -0.040   3.073   2.981
  415TIP3   OH2 1208   6.922   2.632   3.138
  415TIP3    H1 1209   6.987   2.672   3.079
  415TIP3    H2 1210   6.844   2.686   3.128
  416TIP3   OH2 1211   1.686   0.572   4.712
  416TIP3    H1 1212   1.597   0.583   4.745
  416TIP3    H2 1213   1.731   0.653   4.736
  417TIP3   OH2 1214   5.856   2.659   4.036
  417TIP3    H1 1215   5.788   2.675   4.101
  417TIP3    H2 1216   5.823   2.702   3.957
  418TIP3   OH2 1217   5.733   1.600   4.514
  418TIP3    H1 1218   5.769   1.673   4.464
  418TIP3    H2 1219   5.682   1.641   4.583
  419TIP3   OH2 1220   0.815   0.548   4.596
  419TIP3    H1 1221   0.809   0.542   4.692
  419TIP3    H2 1222   0.778   0.634   4.576
  420TIP3   OH2 1223   4.301   6.322   4.126
  420TIP3    H1 1224   4.390   6.338   4.094
  420TIP3    H2 1225   4.251   6.397   4.095
  421TIP3   OH2 1226   5.756   4.002   4.368
  421TIP3    H1 1227   5.698   3.965   4.301
  421TIP3    H2 1228   5.808   4.067   4.321
  422TIP3   OH2 1229   4.615   3.702   3.394
  422TIP3    H1 1230   4.640   3.610   3.405
  422TIP3    H2 1231   4.585   3.729   3.482
  423TIP3   OH2 1232   4.676   2.572   1.740
  423TIP3    H1 1233   4.663   2.635   1.811
  423TIP3    H2 1234   4.766   2.542   1.751
  424TIP3   OH2 1235   4.339   1.531   1.196
  424TIP3    H1 1236   4.328   1.610   1.143
  424TIP3    H2 1237   4.380   1.468   1.136
  425TIP3   OH2 1238   6.875   6.206   5.015
  425TIP3    H1 1239   6.955   6.232   4.968
  425TIP3    H2 1240   6.808   6.201   4.946
  426TIP3   OH2 1241   3.386   4.895   0.382
  426TIP3    H1 1242   3.329   4.913   0.308
  426TIP3    H2 1243   3.462   4.952   0.369
  427TIP3   OH2 1244   3.023   2.337   5.872
  427TIP3    H1 1245   3.035   2.291   5.790
  427TIP3    H2 1246   3.104   2.387   5.884
  428TIP3   OH2 1247   1.064   1.554   0.199
  428TIP3    H1 1248   1.062   1.464   0.166
  428TIP3    H2 1249   1.125   1.599   0.141
  429TIP3   OH2 1250   2.715   4.463   0.796
  429TIP3    H1 1251   2.655   4.422   0.734
  429TIP3    H2 1252   2.781   4.506   0.741
  430TIP3   OH2 1253   1.648   1.924   1.544
  430TIP3    H1 1254   1.655   1.949   1.452
  430TIP3    H2 1255   1.714   1.978   1.588
  431TIP3   OH2 1256   1.086   4.843   3.004
  431TIP3    H1 1257   1.007   4.832   2.951
  431TIP3    H2 1258   1.137   4.909   2.956
  432TIP3   OH2 1259   1.785   3.739   0.745
  432TIP3    H1 1260   1.774   3.794   0.823
  432TIP3    H2 1261   1.815   3.655   0.780
  433TIP3   OH2 1262   3.535   2.105   3.517
  433TIP3    H1 1263   3.556   2.115   3.610
  433TIP3    H2 1264   3.599   2.042   3.484
  434TIP3   OH2 1265   1.715   0.071   1.960
  434TIP3    H1 1266   1.665   0.056   1.881
  434TIP3    H2 1267   1.770   0.146   1.940
  435TIP3   OH2 1268   4.767   2.431   0.509
  435TIP3    H1 1269   4.768   2.396   0.598
  435TIP3    H2 1270   4.805   2.518   0.515
  436TIP3   OH2 1271   4.038   1.167   5.521
  436TIP3    H1 1272   4.105   1.190   5.457
  436TIP3    H2 1273   3.973   1.117   5.472
  437TIP3   OH2 1274   0.373   5.734   5.188
  437TIP3    H1 1275   0.424   5.812   5.211
  437TIP3    H2 1276   0.350   5.695   5.273
  438TIP3   OH2 1277   4.288   5.323   5.304
  438TIP3    H1 1278   4.342   5.311   5.382
  438TIP3    H2 1279   4.351   5.316   5.231
  439TIP3   OH2 1280   0.470   4.882   4.548
  439TIP3    H1 1281   0.516   4.858   4.629
  439TIP3    H2 1282   0.525   4.948   4.507
  440TIP3   OH2 1283   1.326   5.744   1.776
  440TIP3    H1 1284   1.320   5.775   1.686
  440TIP3    H2 1285   1.260   5.796   1.823
  441TIP3   OH2 1286   4.121   1.321   4.638
  441TIP3    H1 1287   4.039   1.330   4.591
  441TIP3    H2 1288   4.124   1.229   4.664
  442TIP3   OH2 1289   4.416   6.345   3.626
  442TIP3    H1 1290   4.405   6.286   3.551
  442TIP3    H2 1291   4.455   6.424   3.588
  443TIP3   OH2 1292   4.515   1.486   4.143
  443TIP3    H1 1293   4.452   1.529   4.200
  443TIP3    H2 1294   4.584   1.456   4.202
  444TIP3   OH2 1295   6.191   0.949   5.350
  444TIP3    H1 1296   6.130   0.902   5.407
  444TIP3    H2 1297   6.157   0.935   5.262
  445TIP3   OH2 1298   4.876   2.944   2.756
  445TIP3    H1 1299   4.951   2.891   2.785
  445TIP3    H2 1300   4.831   2.967   2.837
  446TIP3   OH2 1301   5.549   3.975   4.879
  446TIP3    H1 1302   5.460   4.006   4.862
  446TIP3    H2 1303   5.537   3.883   4.906
  447TIP3   OH2 1304   2.004   5.692   0.748
  447TIP3    H1 1305   1.975   5.722   0.662
  447TIP3    H2 1306   2.030   5.601   0.734
  448TIP3   OH2 1307   3.684   2.319   3.423
  448TIP3    H1 1308   3.612   2.258   3.443
  448TIP3    H2 1309   3.739   2.270   3.362
  449TIP3   OH2 1310   1.311   6.678   3.010
  449TIP3    H1 1311   1.310   6.708   2.919
  449TIP3    H2 1312   1.229   6.631   3.021
  450TIP3   OH2 1313   1.277   0.583   2.988
  450TIP3    H1 1314   1.255   0.662   3.037
  450TIP3    H2 1315   1.304   0.614   2.902
  451TIP3   OH2 1316   6.072   6.732   5.620
  451TIP3    H1 1317   6.018   6.767   5.549
  451TIP3    H2 1318   6.130   6.668   5.577
  452TIP3   OH2 1319   0.334   0.230   4.103
  452TIP3    H1 1320   0.331   0.143   4.142
  452TIP3    H2 1321   0.426   0.256   4.108
  453TIP3   OH2 1322   2.383   0.438   2.609
  453TIP3    H1 1323   2.463   0.489   2.622
  453TIP3    H2 1324   2.387   0.410   2.517
  454TIP3   OH2 1325   0.567   0.944   5.769
  454TIP3    H1 1326   0.510   0.998   5.713
  454TIP3    H2 1327   0.616   0.890   5.707
  455TIP3   OH2 1328   1.009   5.451   2.870
  455TIP3    H1 1329   0.961   5.467   2.952
  455TIP3    H2 1330   1.089   5.503   2.879
  456TIP3   OH2 1331   2.945   2.615   5.319
  456TIP3    H1 1332   3.009   2.675   5.356
  456TIP3    H2 1333   2.883   2.671   5.272
  457TIP3   OH2 1334   4.525   3.609   3.959
  457TIP3    H1 1335   4.574   3.690   3.943
  457TIP3    H2 1336   4.493   3.583   3.872
  458TIP3   OH2 1337   1.542   0.546   0.228
  458TIP3    H1 1338   1.611   0.505   0.176
  458TIP3    H2 1339   1.563   0.639   0.226
  459TIP3   OH2 1340   4.861   2.648   5.478
  459TIP3    H1 1341   4.906   2.625   5.559
  459TIP3    H2 1342   4.927   2.695   5.427
  460TIP3   OH2 1343   5.721   5.098   3.352
  460TIP3    H1 1344   5.811   5.108   3.383
  460TIP3    H2 1345   5.728   5.039   3.278
  461TIP3   OH2 1346   6.573   1.355   4.517
  461TIP3    H1 1347   6.667   1.368   4.518
  461TIP3    H2 1348   6.540   1.414   4.449
  462TIP3   OH2 1349   3.108   2.198   0.095
  462TIP3    H1 1350   3.044   2.208   0.024
  462TIP3    H2 1351   3.154   2.282   0.099
  463TIP3   OH2 1352   0.002   3.344   2.364
  463TIP3    H1 1353   0.081   3.371   2.317
  463TIP3    H2 1354  -0.050   3.424   2.371
  464TIP3   OH2 1355   1.966   4.836   2.048
  464TIP3    H1 1356   1.908   4.764   2.024
  464TIP3    H2 1357   2.054   4.797   2.052
  465TIP3   OH2 1358   0.814   4.757   3.343
  465TIP3    H1 1359   0.846   4.705   3.417
  465TIP3    H2 1360   0.866   4.726   3.269
  466TIP3   OH2 1361   4.948   6.323   4.832
  466TIP3    H1 1362   4.973   6.235   4.806
  466TIP3    H2 1363   4.971   6.329   4.925
  467TIP3   OH2 1364   4.069   0.389   2.188
  467TIP3    H1 1365   3.991   0.421   2.233
  467TIP3    H2 1366   4.140   0.398   2.252
  468TIP3   OH2 1367   5.179   0.228  -0.002
  468TIP3    H1 1368   5.155   0.303   0.054
  468TIP3    H2 1369   5.131   0.154   0.036
  469TIP3   OH2 1370   1.350   2.410   4.665
  469TIP3    H1 1371   1.355   2.315   4.676
  469TIP3    H2 1372   1.257   2.430   4.668
  470TIP3   OH2 1373   0.338   4.729   3.908
  470TIP3    H1 1374   0.421   4.760   3.871
  470TIP3    H2 1375   0.274   4.796   3.885
  471TIP3   OH2 1376   2.372   4.686   4.463
  471TIP3    H1 1377   2.293   4.737   4.478
  471TIP3    H2 1378   2.414   4.729   4.389
  472TIP3   OH2 1379   5.083   3.451   3.845
  472TIP3    H1 1380   5.115   3.517   3.906
  472TIP3    H2 1381   5.163   3.414   3.806
  473TIP3   OH2 1382   3.448   1.381   5.589
  473TIP3    H1 1383   3.502   1.449   5.629
  473TIP3    H2 1384   3.363   1.422   5.576
  474TIP3   OH2 1385   6.476   2.317   2.831
  474TIP3    H1 1386   6.540   2.385   2.852
  474TIP3    H2 1387   6.391   2.362   2.834
  475TIP3   OH2 1388   3.959   5.359   2.931
  475TIP3    H1 1389   3.938   5.408   3.011
  475TIP3    H2 1390   4.032   5.303   2.957
  476TIP3   OH2 1391   6.199   0.134   2.799
  476TIP3    H1 1392   6.153   0.083   2.733
  476TIP3    H2 1393   6.163   0.103   2.882
  477TIP3   OH2 1394   1.960   2.047   3.950
  477TIP3    H1 1395   1.923   2.017   3.867
  477TIP3    H2 1396   1.976   1.967   3.999
  478TIP3   OH2 1397   3.862   5.864   3.713
  478TIP3    H1 1398   3.943   5.891   3.755
  478TIP3    H2 1399   3.883   5.858   3.620
  479TIP3   OH2 1400   4.035   3.230   3.107
  479TIP3    H1 1401   3.992   3.241   3.023
  479TIP3    H2 1402   4.083   3.148   3.100
  480TIP3   OH2 1403   6.150   2.693   5.463
  480TIP3    H1 1404   6.243   2.680   5.482
  480TIP3    H2 1405   6.131   2.782   5.493
  481TIP3   OH2 1406   2.996   0.783   4.171
  481TIP3    H1 1407   2.903   0.758   4.164
  481TIP3    H2 1408   3.036   0.747   4.092
  482TIP3   OH2 1409   1.141   1.218   3.654
  482TIP3    H1 1410   1.131   1.133   3.698
  482TIP3    H2 1411   1.070   1.220   3.590
  483TIP3   OH2 1412   4.748   6.439   0.998
  483TIP3    H1 1413   4.688   6.436   1.073
  483TIP3    H2 1414   4.831   6.406   1.032
  484TIP3   OH2 1415   3.709   5.528   1.153
  484TIP3    H1 1416   3.706   5.540   1.247
  484TIP3    H2 1417   3.771   5.595   1.122
  485TIP3   OH2 1418   6.271   6.133   4.409
  485TIP3    H1 1419   6.187   6.094   4.382
  485TIP3    H2 1420   6.334   6.061   4.402
  486TIP3   OH2 1421   0.976   1.671   3.221
  486TIP3    H1 1422   1.036   1.622   3.277
  486TIP3    H2 1423   0.889   1.657   3.259
  487TIP3   OH2 1424   4.139   6.533   3.991
  487TIP3    H1 1425   4.067   6.483   3.951
  487TIP3    H2 1426   4.119   6.624   3.970
  488TIP3   OH2 1427   5.817   4.229   3.005
  488TIP3    H1 1428   5.801   4.146   2.960
  488TIP3    H2 1429   5.777   4.217   3.091
  489TIP3   OH2 1430   1.541   4.506   4.718
  489TIP3    H1 1431   1.547   4.601   4.724
  489TIP3    H2 1432   1.621   4.480   4.673
  490TIP3   OH2 1433   1.714   5.563   1.986
  490TIP3    H1 1434   1.656   5.501   1.941
  490TIP3    H2 1435   1.735   5.520   2.069
  491TIP3   OH2 1436   4.429   0.503   1.543
  491TIP3    H1 1437   4.473   0.470   1.464
  491TIP3    H2 1438   4.405   0.424   1.592
  492TIP3   OH2 1439   0.716   2.112   0.756
  492TIP3    H1 1440   0.710   2.207   0.757
  492TIP3    H2 1441   0.798   2.092   0.802
  493TIP3   OH2 1442   1.650   4.112   4.865
  493TIP3    H1 1443   1.695   4.129   4.782
  493TIP3    H2 1444   1.655   4.196   4.912
  494TIP3   OH2 1445   3.016   2.770   3.870
  494TIP3    H1 1446   2.948   2.816   3.919
  494TIP3    H2 1447   3.038   2.694   3.925
  495TIP3   OH2 1448   2.752   3.687   5.118
  495TIP3    H1 1449   2.736   3.640   5.036
  495TIP3    H2 1450   2.740   3.779   5.094
  496TIP3   OH2 1451   2.964   4.751   5.698
  496TIP3    H1 1452   2.894   4.688   5.684
  496TIP3    H2 1453   2.990   4.779   5.611
  497TIP3   OH2 1454   0.022   1.472   3.951
  497TIP3    H1 1455   0.118   1.479   3.945
  497TIP3    H2 1456  -0.010   1.556   3.919
  498TIP3   OH2 1457   2.111   6.217   3.463
  498TIP3    H1 1458   2.100   6.124   3.484
  498TIP3    H2 1459   2.075   6.263   3.539
  499TIP3   OH2 1460   0.518   1.678   4.113
  499TIP3    H1 1461   0.573   1.606   4.081
  499TIP3    H2 1462   0.573   1.725   4.175
  500TIP3   OH2 1463   1.598   0.391   0.650
  500TIP3    H1 1464   1.562   0.444   0.722
  500TIP3    H2 1465   1.534   0.402   0.579
  501TIP3   OH2 1466   4.729   2.718   5.837
  501TIP3    H1 1467   4.727   2.705   5.932
  501TIP3    H2 1468   4.820   2.700   5.812
  502TIP3   OH2 1469   3.070   2.568   1.406
  502TIP3    H1 1470   3.095   2.493   1.351
  502TIP3    H2 1471   3.144   2.629   1.398
  503TIP3   OH2 1472   2.416   5.615   4.023
  503TIP3    H1 1473   2.330   5.654   4.007
  503TIP3    H2 1474   2.469   5.687   4.058
  504TIP3   OH2 1475   2.706   4.285   2.182
  504TIP3    H1 1476   2.652   4.208   2.166
  504TIP3    H2 1477   2.693   4.340   2.105
  505TIP3   OH2 1478   3.641   4.794   4.252
  505TIP3    H1 1479   3.727   4.754   4.236
  505TIP3    H2 1480   3.592   4.726   4.299
  506TIP3   OH2 1481   1.793   0.952   2.399
  506TIP3    H1 1482   1.740   1.007   2.343
  506TIP3    H2 1483   1.812   1.006   2.476
  507TIP3   OH2 1484   4.311   5.714   5.386
  507TIP3    H1 1485   4.285   5.658   5.313
  507TIP3    H2 1486   4.407   5.709   5.386
  508TIP3   OH2 1487   4.720   1.516   0.291
  508TIP3    H1 1488   4.737   1.447   0.227
  508TIP3    H2 1489   4.786   1.504   0.359
  509TIP3   OH2 1490   4.870   3.250   4.145
  509TIP3    H1 1491   4.886   3.246   4.051
  509TIP3    H2 1492   4.943   3.202   4.184
  510TIP3   OH2 1493   5.084   0.436   0.173
  510TIP3    H1 1494   5.099   0.521   0.134
  510TIP3    H2 1495   4.997   0.443   0.214
  511TIP3   OH2 1496   4.602   1.399   2.400
  511TIP3    H1 1497   4.541   1.341   2.354
  511TIP3    H2 1498   4.583   1.486   2.366
  512TIP3   OH2 1499   2.461   1.933   4.703
  512TIP3    H1 1500   2.518   1.893   4.769
  512TIP3    H2 1501   2.444   2.021   4.737
  513TIP3   OH2 1502   3.570   3.496   1.339
  513TIP3    H1 1503   3.608   3.444   1.268
  513TIP3    H2 1504   3.620   3.578   1.339
  514TIP3   OH2 1505   1.439   0.553   1.017
  514TIP3    H1 1506   1.531   0.542   1.040
  514TIP3    H2 1507   1.402   0.604   1.090
  515TIP3   OH2 1508   2.485   3.671   3.496
  515TIP3    H1 1509   2.550   3.638   3.433
  515TIP3    H2 1510   2.401   3.646   3.459
  516TIP3   OH2 1511   1.649   5.189   2.804
  516TIP3    H1 1512   1.693   5.130   2.743
  516TIP3    H2 1513   1.719   5.247   2.836
  517TIP3   OH2 1514   1.577   3.834   4.894
  517TIP3    H1 1515   1.605   3.921   4.920
  517TIP3    H2 1516   1.505   3.849   4.832
  518TIP3   OH2 1517   3.995   1.033   3.507
  518TIP3    H1 1518   3.918   1.000   3.554
  518TIP3    H2 1519   4.010   1.120   3.544
  519TIP3   OH2 1520   2.351   3.592   0.877
  519TIP3    H1 1521   2.440   3.626   0.886
  519TIP3    H2 1522   2.295   3.669   0.879
  520TIP3   OH2 1523   3.943   5.273   1.555
  520TIP3    H1 1524   3.948   5.179   1.537
  520TIP3    H2 1525   4.031   5.297   1.585
  521TIP3   OH2 1526   0.886   2.553   0.062
  521TIP3    H1 1527   0.969   2.577   0.104
  521TIP3    H2 1528   0.884   2.457   0.066
  522TIP3   OH2 1529   2.822   2.238   3.518
  522TIP3    H1 1530   2.819   2.145   3.494
  522TIP3    H2 1531   2.913   2.264   3.504
  523TIP3   OH2 1532   2.099   2.488   1.797
  523TIP3    H1 1533   2.013   2.460   1.768
  523TIP3    H2 1534   2.124   2.424   1.863
  524TIP3   OH2 1535   5.734   3.365   1.051
  524TIP3    H1 1536   5.755   3.291   1.108
  524TIP3    H2 1537   5.695   3.324   0.973
  525TIP3   OH2 1538   3.856   2.604   1.970
  525TIP3    H1 1539   3.909   2.580   2.047
  525TIP3    H2 1540   3.768   2.617   2.005
  526TIP3   OH2 1541   0.433   3.540   0.110
  526TIP3    H1 1542   0.496   3.515   0.044
  526TIP3    H2 1543   0.467   3.505   0.192
  527TIP3   OH2 1544   3.213   0.829   4.808
  527TIP3    H1 1545   3.274   0.756   4.809
  527TIP3    H2 1546   3.253   0.895   4.864
  528TIP3   OH2 1547   3.119   2.134   1.563
  528TIP3    H1 1548   3.116   2.228   1.584
  528TIP3    H2 1549   3.211   2.111   1.574
  529TIP3   OH2 1550   6.570   2.073   0.828
  529TIP3    H1 1551   6.489   2.124   0.821
  529TIP3    H2 1552   6.554   1.996   0.774
  530TIP3   OH2 1553   4.368   0.025   1.227
  530TIP3    H1 1554   4.458   0.007   1.253
  530TIP3    H2 1555   4.325  -0.060   1.227
  531TIP3   OH2 1556   0.148   0.210   1.121
  531TIP3    H1 1557   0.178   0.122   1.099
  531TIP3    H2 1558   0.228   0.262   1.128
  532TIP3   OH2 1559   1.460   2.794   3.735
  532TIP3    H1 1560   1.412   2.861   3.687
  532TIP3    H2 1561   1.393   2.744   3.781
  533TIP3   OH2 1562   0.240   3.205   3.133
  533TIP3    H1 1563   0.239   3.270   3.063
  533TIP3    H2 1564   0.160   3.154   3.120
  534TIP3   OH2 1565   0.583   5.205   5.354
  534TIP3    H1 1566   0.580   5.190   5.448
  534TIP3    H2 1567   0.500   5.250   5.334
  535TIP3   OH2 1568   2.931   5.590   5.087
  535TIP3    H1 1569   3.019   5.617   5.060
  535TIP3    H2 1570   2.946   5.526   5.157
  536TIP3   OH2 1571   4.896   4.511   0.729
  536TIP3    H1 1572   4.954   4.516   0.653
  536TIP3    H2 1573   4.820   4.563   0.704
  537TIP3   OH2 1574   1.888   6.095   1.547
  537TIP3    H1 1575   1.880   6.036   1.472
  537TIP3    H2 1576   1.799   6.127   1.562
  538TIP3   OH2 1577   2.173   2.213   3.744
  538TIP3    H1 1578   2.123   2.270   3.685
  538TIP3    H2 1579   2.111   2.147   3.772
  539TIP3   OH2 1580   0.942   4.298   5.448
  539TIP3    H1 1581   0.894   4.299   5.365
  539TIP3    H2 1582   0.961   4.205   5.463
  540TIP3   OH2 1583   1.514   4.763   4.788
  540TIP3    H1 1584   1.592   4.801   4.829
  540TIP3    H2 1585   1.464   4.727   4.861
  541TIP3   OH2 1586   6.662   2.990   5.722
  541TIP3    H1 1587   6.642   2.960   5.810
  541TIP3    H2 1588   6.728   2.929   5.690
  542TIP3   OH2 1589   5.090   3.244   4.825
  542TIP3    H1 1590   5.171   3.194   4.816
  542TIP3    H2 1591   5.068   3.270   4.735
  543TIP3   OH2 1592   0.055   5.734   5.601
  543TIP3    H1 1593   0.117   5.724   5.674
  543TIP3    H2 1594   0.016   5.820   5.615
  544TIP3   OH2 1595   6.432   3.441   5.920
  544TIP3    H1 1596   6.375   3.468   5.847
  544TIP3    H2 1597   6.500   3.508   5.922
  545TIP3   OH2 1598   0.986   5.708   2.623
  545TIP3    H1 1599   1.066   5.677   2.665
  545TIP3    H2 1600   1.013   5.734   2.535
  546TIP3   OH2 1601   4.380   1.088   1.345
  546TIP3    H1 1602   4.354   1.061   1.433
  546TIP3    H2 1603   4.300   1.125   1.308
  547TIP3   OH2 1604   6.561   6.684   5.263
  547TIP3    H1 1605   6.645   6.691   5.307
  547TIP3    H2 1606   6.545   6.770   5.226
  548TIP3   OH2 1607   3.529   6.222   5.623
  548TIP3    H1 1608   3.510   6.243   5.531
  548TIP3    H2 1609   3.446   6.239   5.669
  549TIP3   OH2 1610   0.136   5.936   4.233
  549TIP3    H1 1611   0.142   5.909   4.324
  549TIP3    H2 1612   0.043   5.929   4.211
  550TIP3   OH2 1613   0.565   0.318   3.476
  550TIP3    H1 1614   0.613   0.395   3.507
  550TIP3    H2 1615   0.565   0.327   3.381
  551TIP3   OH2 1616   3.718   2.850   0.635
  551TIP3    H1 1617   3.665   2.891   0.567
  551TIP3    H2 1618   3.743   2.923   0.692
  552TIP3   OH2 1619   2.701   4.212   3.000
  552TIP3    H1 1620   2.697   4.136   3.058
  552TIP3    H2 1621   2.614   4.252   3.007
  553TIP3   OH2 1622   0.347   3.527   2.750
  553TIP3    H1 1623   0.335   3.509   2.657
  553TIP3    H2 1624   0.259   3.519   2.787
  554TIP3   OH2 1625   4.316   2.013   1.815
  554TIP3    H1 1626   4.336   1.925   1.846
  554TIP3    H2 1627   4.222   2.010   1.795
  555TIP3   OH2 1628   2.924   4.618   0.425
  555TIP3    H1 1629   2.953   4.604   0.515
  555TIP3    H2 1630   2.935   4.712   0.411
  556TIP3   OH2 1631   5.929   2.434   4.243
  556TIP3    H1 1632   5.863   2.500   4.262
  556TIP3    H2 1633   5.997   2.448   4.310
  557TIP3   OH2 1634   6.597   5.373   2.784
  557TIP3    H1 1635   6.649   5.383   2.704
  557TIP3    H2 1636   6.530   5.308   2.762
  558TIP3   OH2 1637   5.258   2.557   2.242
  558TIP3    H1 1638   5.246   2.616   2.168
  558TIP3    H2 1639   5.263   2.614   2.319
  559TIP3   OH2 1640   3.786   4.188   0.031
  559TIP3    H1 1641   3.789   4.274  -0.012
  559TIP3    H2 1642   3.711   4.193   0.089
  560TIP3   OH2 1643   5.173   2.388   4.644
  560TIP3    H1 1644   5.215   2.399   4.729
  560TIP3    H2 1645   5.083   2.417   4.659
  561TIP3   OH2 1646   0.247   0.232   0.151
  561TIP3    H1 1647   0.318   0.221   0.214
  561TIP3    H2 1648   0.291   0.229   0.066
  562TIP3   OH2 1649   5.802   2.400   3.352
  562TIP3    H1 1650   5.837   2.409   3.263
  562TIP3    H2 1651   5.711   2.373   3.339
  563TIP3   OH2 1652   6.448   2.752   2.924
  563TIP3    H1 1653   6.439   2.819   2.991
  563TIP3    H2 1654   6.376   2.690   2.941
  564TIP3   OH2 1655   6.093   0.756   4.846
  564TIP3    H1 1656   6.128   0.777   4.759
  564TIP3    H2 1657   6.153   0.690   4.881
  565TIP3   OH2 1658   0.212   2.950   0.633
  565TIP3    H1 1659   0.243   2.882   0.694
  565TIP3    H2 1660   0.125   2.973   0.666
  566TIP3   OH2 1661   6.681   3.198   3.026
  566TIP3    H1 1662   6.772   3.199   3.057
  566TIP3    H2 1663   6.629   3.208   3.105
  567TIP3   OH2 1664   7.077   5.106   5.061
  567TIP3    H1 1665   7.100   5.080   4.972
  567TIP3    H2 1666   7.055   5.024   5.105
  568TIP3   OH2 1667   3.831   1.965   2.302
  568TIP3    H1 1668   3.758   2.026   2.294
  568TIP3    H2 1669   3.792   1.878   2.294
  569TIP3   OH2 1670   3.861   3.132   5.236
  569TIP3    H1 1671   3.894   3.199   5.296
  569TIP3    H2 1672   3.935   3.072   5.225
  570TIP3   OH2 1673   4.678   4.216   4.235
  570TIP3    H1 1674   4.671   4.123   4.257
  570TIP3    H2 1675   4.759   4.222   4.185
  571TIP3   OH2 1676   5.456   0.288   2.003
  571TIP3    H1 1677   5.519   0.258   1.937
  571TIP3    H2 1678   5.498   0.268   2.087
  572TIP3   OH2 1679   3.606   6.570   0.743
  572TIP3    H1 1680   3.651   6.509   0.800
  572TIP3    H2 1681   3.675   6.630   0.713
  573TIP3   OH2 1682   3.433   3.993   3.866
  573TIP3    H1 1683   3.464   3.944   3.942
  573TIP3    H2 1684   3.354   4.037   3.898
  574TIP3   OH2 1685   2.540   2.925   2.991
  574TIP3    H1 1686   2.617   2.933   2.935
  574TIP3    H2 1687   2.466   2.926   2.931
  575TIP3   OH2 1688   3.788   1.496   2.522
  575TIP3    H1 1689   3.832   1.442   2.457
  575TIP3    H2 1690   3.857   1.517   2.585
  576TIP3   OH2 1691   5.830   0.696   1.468
  576TIP3    H1 1692   5.838   0.695   1.563
  576TIP3    H2 1693   5.756   0.638   1.449
  577TIP3   OH2 1694   1.815   2.376   3.555
  577TIP3    H1 1695   1.818   2.285   3.585
  577TIP3    H2 1696   1.899   2.391   3.513
  578TIP3   OH2 1697   5.272   3.661   0.248
  578TIP3    H1 1698   5.186   3.641   0.285
  578TIP3    H2 1699   5.324   3.583   0.263
  579TIP3   OH2 1700   2.889   0.551   4.897
  579TIP3    H1 1701   2.906   0.497   4.821
  579TIP3    H2 1702   2.872   0.638   4.862
  580TIP3   OH2 1703   6.498   4.890   1.886
  580TIP3    H1 1704   6.540   4.827   1.828
  580TIP3    H2 1705   6.543   4.880   1.969
  581TIP3   OH2 1706   4.497   1.914  -0.037
  581TIP3    H1 1707   4.483   1.971   0.038
  581TIP3    H2 1708   4.500   1.825  -0.001
  582TIP3   OH2 1709   6.489   4.207   4.549
  582TIP3    H1 1710   6.579   4.208   4.582
  582TIP3    H2 1711   6.492   4.260   4.469
  583TIP3   OH2 1712   1.215   5.224   3.159
  583TIP3    H1 1713   1.129   5.187   3.179
  583TIP3    H2 1714   1.276   5.151   3.174
  584TIP3   OH2 1715   2.009   2.560   2.117
  584TIP3    H1 1716   2.054   2.567   2.201
  584TIP3    H2 1717   2.035   2.474   2.083
  585TIP3   OH2 1718   5.726   1.253   3.271
  585TIP3    H1 1719   5.687   1.262   3.358
  585TIP3    H2 1720   5.805   1.306   3.274
  586TIP3   OH2 1721   0.837   1.289   2.659
  586TIP3    H1 1722   0.766   1.247   2.708
  586TIP3    H2 1723   0.912   1.287   2.719
  587TIP3   OH2 1724   0.607   4.122   5.641
  587TIP3    H1 1725   0.580   4.191   5.580
  587TIP3    H2 1726   0.696   4.147   5.667
  588TIP3   OH2 1727   0.144   3.209   0.180
  588TIP3    H1 1728   0.174   3.210   0.271
  588TIP3    H2 1729   0.050   3.229   0.186
  589TIP3   OH2 1730   1.814   1.202   0.850
  589TIP3    H1 1731   1.843   1.166   0.934
  589TIP3    H2 1732   1.881   1.173   0.788
  590TIP3   OH2 1733   2.491   0.214   1.780
  590TIP3    H1 1734   2.453   0.205   1.692
  590TIP3    H2 1735   2.556   0.143   1.785
  591TIP3   OH2 1736   3.596   4.772   3.572
  591TIP3    H1 1737   3.597   4.707   3.642
  591TIP3    H2 1738   3.601   4.856   3.617
  592TIP3   OH2 1739   6.824   0.088   1.762
  592TIP3    H1 1740   6.808   0.170   1.809
  592TIP3    H2 1741   6.891   0.111   1.697
  593TIP3   OH2 1742   6.364   6.263   1.051
  593TIP3    H1 1743   6.346   6.261   0.957
  593TIP3    H2 1744   6.455   6.236   1.059
  594TIP3   OH2 1745   1.271   1.216   5.426
  594TIP3    H1 1746   1.294   1.201   5.334
  594TIP3    H2 1747   1.175   1.210   5.428
  595TIP3   OH2 1748   2.240   2.327   5.143
  595TIP3    H1 1749   2.182   2.380   5.088
  595TIP3    H2 1750   2.327   2.361   5.125
  596TIP3   OH2 1751   4.082   4.745   5.774
  596TIP3    H1 1752   4.002   4.692   5.767
  596TIP3    H2 1753   4.085   4.794   5.692
  597TIP3   OH2 1754   0.574   6.011   2.981
  597TIP3    H1 1755   0.588   5.944   2.914
  597TIP3    H2 1756   0.530   5.965   3.052
  598TIP3   OH2 1757   2.241   4.223   4.915
  598TIP3    H1 1758   2.279   4.186   4.995
  598TIP3    H2 1759   2.276   4.312   4.911
  599TIP3   OH2 1760   3.388   0.989   2.205
  599TIP3    H1 1761   3.461   0.951   2.254
  599TIP3    H2 1762   3.374   0.929   2.132
  600TIP3   OH2 1763   1.105   5.520   0.197
  600TIP3    H1 1764   1.028   5.537   0.252
  600TIP3    H2 1765   1.173   5.492   0.258
  601TIP3   OH2 1766   0.425   5.392   0.623
  601TIP3    H1 1767   0.349   5.444   0.599
  601TIP3    H2 1768   0.443   5.338   0.546
  602TIP3   OH2 1769   5.123   6.780   0.010
  602TIP3    H1 1770   5.050   6.840   0.024
  602TIP3    H2 1771   5.102   6.704   0.064
  603TIP3   OH2 1772   1.349   1.859   2.325
  603TIP3    H1 1773   1.326   1.766   2.329
  603TIP3    H2 1774   1.298   1.898   2.396
  604TIP3   OH2 1775   6.403   2.219   3.552
  604TIP3    H1 1776   6.464   2.168   3.605
  604TIP3    H2 1777   6.454   2.294   3.521
  605TIP3   OH2 1778   5.962   0.757   1.769
  605TIP3    H1 1779   6.045   0.733   1.727
  605TIP3    H2 1780   5.963   0.713   1.853
  606TIP3   OH2 1781   2.760   2.632   1.863
  606TIP3    H1 1782   2.821   2.576   1.912
  606TIP3    H2 1783   2.677   2.624   1.912
  607TIP3   OH2 1784   6.576   0.519   0.777
  607TIP3    H1 1785   6.623   0.490   0.698
  607TIP3    H2 1786   6.599   0.612   0.786
  608TIP3   OH2 1787   0.981   3.138   0.581
  608TIP3    H1 1788   1.059   3.135   0.637
  608TIP3    H2 1789   0.915   3.089   0.630
  609TIP3   OH2 1790   5.854   3.078   3.021
  609TIP3    H1 1791   5.929   3.047   2.970
  609TIP3    H2 1792   5.781   3.024   2.992
  610TIP3   OH2 1793   5.491   4.813   1.593
  610TIP3    H1 1794   5.470   4.784   1.504
  610TIP3    H2 1795   5.415   4.865   1.619
  611TIP3   OH2 1796   5.274   2.497   4.932
  611TIP3    H1 1797   5.316   2.555   4.995
  611TIP3    H2 1798   5.339   2.428   4.916
  612TIP3   OH2 1799   1.485   0.958   1.029
  612TIP3    H1 1800   1.505   1.042   1.071
  612TIP3    H2 1801   1.392   0.963   1.008
  613TIP3   OH2 1802   4.114   1.615   1.811
  613TIP3    H1 1803   4.064   1.534   1.815
  613TIP3    H2 1804   4.110   1.642   1.719
  614TIP3   OH2 1805   1.264   5.073   0.102
  614TIP3    H1 1806   1.183   5.037   0.138
  614TIP3    H2 1807   1.248   5.080   0.008
  615TIP3   OH2 1808   0.499   6.102   3.870
  615TIP3    H1 1809   0.535   6.113   3.782
  615TIP3    H2 1810   0.555   6.035   3.910
  616TIP3   OH2 1811   2.270   0.196   2.236
  616TIP3    H1 1812   2.184   0.228   2.265
  616TIP3    H2 1813   2.275   0.222   2.144
  617TIP3   OH2 1814   6.966   6.768   1.953
  617TIP3    H1 1815   6.883   6.724   1.970
  617TIP3    H2 1816   6.942   6.846   1.904
  618TIP3   OH2 1817   2.208   2.978   2.599
  618TIP3    H1 1818   2.235   3.059   2.556
  618TIP3    H2 1819   2.283   2.952   2.652
  619TIP3   OH2 1820   5.235   3.160   1.800
  619TIP3    H1 1821   5.166   3.224   1.779
  619TIP3    H2 1822   5.297   3.166   1.727
  620TIP3   OH2 1823   0.808   2.146   3.677
  620TIP3    H1 1824   0.790   2.088   3.603
  620TIP3    H2 1825   0.866   2.096   3.734
  621TIP3   OH2 1826   6.006   5.127   3.395
  621TIP3    H1 1827   6.072   5.166   3.452
  621TIP3    H2 1828   6.032   5.152   3.307
  622TIP3   OH2 1829   6.953   1.798   2.176
  622TIP3    H1 1830   6.937   1.705   2.160
  622TIP3    H2 1831   7.048   1.807   2.177
  623TIP3   OH2 1832   4.544   4.544   0.801
  623TIP3    H1 1833   4.469   4.589   0.761
  623TIP3    H2 1834   4.541   4.456   0.764
  624TIP3   OH2 1835   0.503   4.418   3.257
  624TIP3    H1 1836   0.599   4.418   3.258
  624TIP3    H2 1837   0.479   4.444   3.346
  625TIP3   OH2 1838   0.429   2.681   1.895
  625TIP3    H1 1839   0.359   2.616   1.903
  625TIP3    H2 1840   0.455   2.699   1.986
  626TIP3   OH2 1841   3.413   1.320   3.235
  626TIP3    H1 1842   3.365   1.272   3.168
  626TIP3    H2 1843   3.498   1.275   3.239
  627TIP3   OH2 1844   0.070   2.518   2.247
  627TIP3    H1 1845   0.050   2.598   2.297
  627TIP3    H2 1846   0.040   2.537   2.158
  628TIP3   OH2 1847   3.948   2.722   3.857
  628TIP3    H1 1848   3.970   2.679   3.774
  628TIP3    H2 1849   3.943   2.815   3.834
  629TIP3   OH2 1850   0.650   1.743   3.661
  629TIP3    H1 1851   0.582   1.677   3.679
  629TIP3    H2 1852   0.691   1.759   3.745
  630TIP3   OH2 1853   3.494   2.316   1.214
  630TIP3    H1 1854   3.510   2.410   1.204
  630TIP3    H2 1855   3.461   2.288   1.129
  631TIP3   OH2 1856   1.287   2.412   3.750
  631TIP3    H1 1857   1.368   2.361   3.743
  631TIP3    H2 1858   1.276   2.453   3.665
  632TIP3   OH2 1859   5.074   2.803   1.778
  632TIP3    H1 1860   5.051   2.866   1.709
  632TIP3    H2 1861   5.039   2.720   1.746
  633TIP3   OH2 1862   3.692   3.942   2.771
  633TIP3    H1 1863   3.598   3.949   2.787
  633TIP3    H2 1864   3.731   3.940   2.859
  634TIP3   OH2 1865   5.352   3.976   2.787
  634TIP3    H1 1866   5.420   3.982   2.854
  634TIP3    H2 1867   5.283   3.923   2.826
  635TIP3   OH2 1868   2.385   2.381   0.474
  635TIP3    H1 1869   2.378   2.343   0.562
  635TIP3    H2 1870   2.458   2.443   0.480
  636TIP3   OH2 1871   5.428   0.729   4.147
  636TIP3    H1 1872   5.503   0.789   4.146
  636TIP3    H2 1873   5.353   0.785   4.125
  637TIP3   OH2 1874   3.729   3.112   2.141
  637TIP3    H1 1875   3.680   3.111   2.223
  637TIP3    H2 1876   3.733   3.020   2.114
  638TIP3   OH2 1877   4.472   3.112   5.035
  638TIP3    H1 1878   4.429   3.062   4.965
  638TIP3    H2 1879   4.430   3.198   5.031
  639TIP3   OH2 1880   0.643   6.214   2.741
  639TIP3    H1 1881   0.696   6.154   2.688
  639TIP3    H2 1882   0.677   6.204   2.830
  640TIP3   OH2 1883   4.737   4.716   0.617
  640TIP3    H1 1884   4.729   4.775   0.543
  640TIP3    H2 1885   4.675   4.749   0.682
  641TIP3   OH2 1886   5.891   4.194   4.969
  641TIP3    H1 1887   5.862   4.129   4.905
  641TIP3    H2 1888   5.976   4.222   4.936
  642TIP3   OH2 1889   2.116   2.487   5.623
  642TIP3    H1 1890   2.101   2.529   5.538
  642TIP3    H2 1891   2.032   2.492   5.667
  643TIP3   OH2 1892   0.951   4.531   3.797
  643TIP3    H1 1893   0.969   4.437   3.799
  643TIP3    H2 1894   0.855   4.536   3.787
  644TIP3   OH2 1895   0.992   1.325   4.937
  644TIP3    H1 1896   0.988   1.239   4.896
  644TIP3    H2 1897   1.037   1.381   4.874
  645TIP3   OH2 1898   1.155   2.898   3.042
  645TIP3    H1 1899   1.207   2.818   3.034
  645TIP3    H2 1900   1.078   2.871   3.092
  646TIP3   OH2 1901   2.788   5.663   5.641
  646TIP3    H1 1902   2.811   5.660   5.548
  646TIP3    H2 1903   2.693   5.677   5.642
  647TIP3   OH2 1904   3.928   1.661   5.796
  647TIP3    H1 1905   3.861   1.693   5.856
  647TIP3    H2 1906   3.919   1.717   5.718
  648TIP3   OH2 1907   4.647   4.405   5.624
  648TIP3    H1 1908   4.601   4.419   5.541
  648TIP3    H2 1909   4.578   4.405   5.690
  649TIP3   OH2 1910   5.438   3.473   0.788
  649TIP3    H1 1911   5.527   3.508   0.794
  649TIP3    H2 1912   5.426   3.454   0.695
  650TIP3   OH2 1913   6.536   1.019   1.597
  650TIP3    H1 1914   6.576   0.936   1.571
  650TIP3    H2 1915   6.608   1.069   1.635
  651TIP3   OH2 1916   0.794   3.825   5.389
  651TIP3    H1 1917   0.826   3.756   5.331
  651TIP3    H2 1918   0.807   3.791   5.478
  652TIP3   OH2 1919   2.661   5.439   5.309
  652TIP3    H1 1920   2.741   5.388   5.294
  652TIP3    H2 1921   2.623   5.401   5.388
  653TIP3   OH2 1922   5.609   5.414   5.562
  653TIP3    H1 1923   5.538   5.414   5.498
  653TIP3    H2 1924   5.576   5.466   5.635
  654TIP3   OH2 1925   5.015   2.225   1.934
  654TIP3    H1 1926   5.103   2.210   1.969
  654TIP3    H2 1927   4.960   2.241   2.011
  655TIP3   OH2 1928   2.162   3.335   0.205
  655TIP3    H1 1929   2.074   3.299   0.196
  655TIP3    H2 1930   2.205   3.278   0.269
  656TIP3   OH2 1931   4.071   4.452   4.372
  656TIP3    H1 1932   4.130   4.381   4.396
  656TIP3    H2 1933   3.984   4.412   4.369
  657TIP3   OH2 1934   4.439   0.737   0.160
  657TIP3    H1 1935   4.482   0.820   0.142
  657TIP3    H2 1936   4.465   0.716   0.250
  658TIP3   OH2 1937   5.679   0.783   4.568
  658TIP3    H1 1938   5.760   0.748   4.529
  658TIP3    H2 1939   5.628   0.705   4.591
  659TIP3   OH2 1940   0.411   3.473   5.163
  659TIP3    H1 1941   0.364   3.489   5.244
  659TIP3    H2 1942   0.466   3.397   5.181
  660TIP3   OH2 1943   4.152   2.373   0.042
  660TIP3    H1 1944   4.140   2.342   0.132
  660TIP3    H2 1945   4.242   2.350   0.020
  661TIP3   OH2 1946   0.968   5.751   4.843
  661TIP3    H1 1947   0.927   5.717   4.922
  661TIP3    H2 1948   0.945   5.844   4.842
  662TIP3   OH2 1949   1.230   3.832   3.408
  662TIP3    H1 1950   1.232   3.781   3.326
  662TIP3    H2 1951   1.301   3.796   3.461
  663TIP3   OH2 1952   0.615   3.658   1.436
  663TIP3    H1 1953   0.673   3.730   1.411
  663TIP3    H2 1954   0.573   3.632   1.354
  664TIP3   OH2 1955   2.582   4.949   1.793
  664TIP3    H1 1956   2.540   5.033   1.777
  664TIP3    H2 1957   2.513   4.884   1.780
  665TIP3   OH2 1958   3.125   0.247   5.218
  665TIP3    H1 1959   3.059   0.312   5.194
  665TIP3    H2 1960   3.117   0.240   5.314
  666TIP3   OH2 1961   0.290   3.613   0.618
  666TIP3    H1 1962   0.367   3.625   0.562
  666TIP3    H2 1963   0.324   3.624   0.707
  667TIP3   OH2 1964   1.638   2.438   4.607
  667TIP3    H1 1965   1.576   2.402   4.670
  667TIP3    H2 1966   1.635   2.533   4.623
  668TIP3   OH2 1967   6.202   4.076   5.660
  668TIP3    H1 1968   6.131   4.136   5.682
  668TIP3    H2 1969   6.273   4.100   5.720
  669TIP3   OH2 1970   6.197   1.713   3.213
  669TIP3    H1 1971   6.167   1.651   3.147
  669TIP3    H2 1972   6.244   1.779   3.164
  670TIP3   OH2 1973   2.738   2.225   1.843
  670TIP3    H1 1974   2.762   2.214   1.935
  670TIP3    H2 1975   2.652   2.183   1.836
  671TIP3   OH2 1976   0.844   0.739   2.118
  671TIP3    H1 1977   0.809   0.681   2.050
  671TIP3    H2 1978   0.938   0.740   2.102
  672TIP3   OH2 1979   1.405   1.001   4.726
  672TIP3    H1 1980   1.475   1.020   4.663
  672TIP3    H2 1981   1.451   0.968   4.803
  673TIP3   OH2 1982   3.046   6.716   1.416
  673TIP3    H1 1983   2.978   6.659   1.451
  673TIP3    H2 1984   3.128   6.678   1.448
  674TIP3   OH2 1985   4.809   5.692   5.012
  674TIP3    H1 1986   4.827   5.777   4.972
  674TIP3    H2 1987   4.764   5.642   4.944
  675TIP3   OH2 1988   2.483   6.350   5.069
  675TIP3    H1 1989   2.549   6.321   5.006
  675TIP3    H2 1990   2.509   6.308   5.151
  676TIP3   OH2 1991   1.206   0.383   5.837
  676TIP3    H1 1992   1.275   0.318   5.849
  676TIP3    H2 1993   1.184   0.410   5.926
  677TIP3   OH2 1994   4.226   1.336   0.282
  677TIP3    H1 1995   4.183   1.362   0.201
  677TIP3    H2 1996   4.196   1.247   0.298
  678TIP3   OH2 1997   4.049   4.437   2.983
  678TIP3    H1 1998   3.973   4.483   2.947
  678TIP3    H2 1999   4.047   4.457   3.077
  679TIP3   OH2 2000   7.105   0.174   0.536
  679TIP3    H1 2001   7.078   0.099   0.590
  679TIP3    H2 2002   7.048   0.170   0.459
  680TIP3   OH2 2003   6.691   4.288   3.664
  680TIP3    H1 2004   6.742   4.216   3.627
  680TIP3    H2 2005   6.709   4.285   3.758
  681TIP3   OH2 2006   6.404   1.983   4.934
  681TIP3    H1 2007   6.388   1.975   5.028
  681TIP3    H2 2008   6.352   1.913   4.895
  682TIP3   OH2 2009   0.961   6.106   5.918
  682TIP3    H1 2010   0.935   6.034   5.975
  682TIP3    H2 2011   0.905   6.179   5.944
  683TIP3   OH2 2012   1.273   4.023   2.780
  683TIP3    H1 2013   1.199   3.969   2.752
  683TIP3    H2 2014   1.343   3.960   2.797
  684TIP3   OH2 2015   1.556   2.532   3.034
  684TIP3    H1 2016   1.645   2.507   3.060
  684TIP3    H2 2017   1.500   2.491   3.099
  685TIP3   OH2 2018   0.585   1.408   2.947
  685TIP3    H1 2019   0.603   1.314   2.949
  685TIP3    H2 2020   0.640   1.445   3.015
  686TIP3   OH2 2021   3.013   3.919   1.966
  686TIP3    H1 2022   2.981   3.998   2.009
  686TIP3    H2 2023   3.028   3.857   2.038
  687TIP3   OH2 2024   2.080   6.435   4.221
  687TIP3    H1 2025   2.167   6.400   4.201
  687TIP3    H2 2026   2.097   6.509   4.280
  688TIP3   OH2 2027   0.230   5.635   0.273
  688TIP3    H1 2028   0.294   5.697   0.238
  688TIP3    H2 2029   0.277   5.551   0.275
  689TIP3   OH2 2030   4.952   6.122   2.149
  689TIP3    H1 2031   5.006   6.133   2.226
  689TIP3    H2 2032   4.991   6.047   2.103
  690TIP3   OH2 2033   7.188   0.061   2.017
  690TIP3    H1 2034   7.150   0.008   2.087
  690TIP3    H2 2035   7.125   0.131   2.003
  691TIP3   OH2 2036  -0.058   6.233   3.220
  691TIP3    H1 2037   0.030   6.204   3.196
  691TIP3    H2 2038  -0.080   6.299   3.154
  692TIP3   OH2 2039   1.747   0.365   3.151
  692TIP3    H1 2040   1.758   0.282   3.105
  692TIP3    H2 2041   1.653   0.383   3.148
  693TIP3   OH2 2042   0.893   2.823   2.491
  693TIP3    H1 2043   0.824   2.883   2.461
  693TIP3    H2 2044   0.948   2.810   2.413
  694TIP3   OH2 2045   6.943   4.483   1.576
  694TIP3    H1 2046   6.872   4.426   1.545
  694TIP3    H2 2047   6.902   4.538   1.642
  695TIP3   OH2 2048   7.233   5.473   5.339
  695TIP3    H1 2049   7.167   5.406   5.352
  695TIP3    H2 2050   7.188   5.541   5.288
  696TIP3   OH2 2051   5.339   6.728   0.575
  696TIP3    H1 2052   5.417   6.673   0.582
  696TIP3    H2 2053   5.313   6.744   0.665
  697TIP3   OH2 2054   0.724   6.187   2.197
  697TIP3    H1 2055   0.679   6.113   2.238
  697TIP3    H2 2056   0.789   6.215   2.261
  698TIP3   OH2 2057   3.692   5.849   0.864
  698TIP3    H1 2058   3.621   5.795   0.830
  698TIP3    H2 2059   3.673   5.937   0.832
  699TIP3   OH2 2060   3.531   4.617   0.652
  699TIP3    H1 2061   3.498   4.699   0.690
  699TIP3    H2 2062   3.623   4.615   0.678
  700TIP3   OH2 2063   3.752   6.666   0.433
  700TIP3    H1 2064   3.689   6.738   0.440
  700TIP3    H2 2065   3.797   6.682   0.350
  701TIP3   OH2 2066   3.555   1.078   3.490
  701TIP3    H1 2067   3.593   1.076   3.402
  701TIP3    H2 2068   3.505   0.997   3.497
  702TIP3   OH2 2069   4.492   3.389   2.861
  702TIP3    H1 2070   4.551   3.464   2.858
  702TIP3    H2 2071   4.549   3.313   2.849
  703TIP3   OH2 2072   3.402   5.986   0.482
  703TIP3    H1 2073   3.348   6.052   0.438
  703TIP3    H2 2074   3.492   6.009   0.459
  704TIP3   OH2 2075   5.381   1.810   1.848
  704TIP3    H1 2076   5.392   1.884   1.788
  704TIP3    H2 2077   5.449   1.822   1.914
  705TIP3   OH2 2078   5.909   1.820   2.926
  705TIP3    H1 2079   5.993   1.846   2.888
  705TIP3    H2 2080   5.921   1.831   3.020
  706TIP3   OH2 2081   4.394   1.892   3.702
  706TIP3    H1 2082   4.383   1.955   3.632
  706TIP3    H2 2083   4.482   1.856   3.690
  707TIP3   OH2 2084   3.153   3.844   3.783
  707TIP3    H1 2085   3.135   3.909   3.851
  707TIP3    H2 2086   3.206   3.777   3.827
  708TIP3   OH2 2087   3.745   6.601   5.373
  708TIP3    H1 2088   3.659   6.622   5.408
  708TIP3    H2 2089   3.754   6.507   5.383
  709TIP3   OH2 2090   7.159   0.758   2.147
  709TIP3    H1 2091   7.152   0.750   2.243
  709TIP3    H2 2092   7.072   0.732   2.115
  710TIP3   OH2 2093   5.041   0.044   3.996
  710TIP3    H1 2094   4.947   0.040   4.011
  710TIP3    H2 2095   5.055  -0.013   3.920
  711TIP3   OH2 2096   2.478   6.241   5.585
  711TIP3    H1 2097   2.407   6.195   5.540
  711TIP3    H2 2098   2.520   6.293   5.516
  712TIP3   OH2 2099   1.855   2.579   2.509
  712TIP3    H1 2100   1.874   2.638   2.582
  712TIP3    H2 2101   1.826   2.498   2.552
  713TIP3   OH2 2102   3.667   3.537   5.697
  713TIP3    H1 2103   3.590   3.536   5.754
  713TIP3    H2 2104   3.685   3.445   5.680
  714TIP3   OH2 2105   1.783   2.128   5.116
  714TIP3    H1 2106   1.834   2.159   5.191
  714TIP3    H2 2107   1.748   2.207   5.075
  715TIP3   OH2 2108   4.372   2.177   4.275
  715TIP3    H1 2109   4.367   2.140   4.186
  715TIP3    H2 2110   4.295   2.142   4.320
  716TIP3   OH2 2111   2.870   5.883   2.196
  716TIP3    H1 2112   2.925   5.845   2.265
  716TIP3    H2 2113   2.793   5.917   2.243
  717TIP3   OH2 2114   4.363   0.046   3.019
  717TIP3    H1 2115   4.427   0.026   3.088
  717TIP3    H2 2116   4.359  -0.034   2.967
  718TIP3   OH2 2117   3.246   5.731   2.783
  718TIP3    H1 2118   3.197   5.782   2.848
  718TIP3    H2 2119   3.333   5.722   2.820
  719TIP3   OH2 2120   0.509   0.216   0.277
  719TIP3    H1 2121   0.570   0.142   0.270
  719TIP3    H2 2122   0.547   0.272   0.344
  720TIP3   OH2 2123   6.017   3.249   3.890
  720TIP3    H1 2124   5.965   3.217   3.963
  720TIP3    H2 2125   6.107   3.224   3.911
  721TIP3   OH2 2126   0.549   3.231   5.255
  721TIP3    H1 2127   0.533   3.224   5.349
  721TIP3    H2 2128   0.467   3.205   5.214
  722TIP3   OH2 2129   1.205   1.870   0.320
  722TIP3    H1 2130   1.120   1.860   0.277
  722TIP3    H2 2131   1.255   1.927   0.262
  723TIP3   OH2 2132   2.197   4.598   1.422
  723TIP3    H1 2133   2.253   4.621   1.496
  723TIP3    H2 2134   2.220   4.660   1.353
  724TIP3   OH2 2135   0.930   6.798   4.710
  724TIP3    H1 2136   0.922   6.757   4.796
  724TIP3    H2 2137   1.020   6.782   4.683
  725TIP3   OH2 2138   0.713   2.001   2.819
  725TIP3    H1 2139   0.728   1.910   2.845
  725TIP3    H2 2140   0.756   2.052   2.888
  726TIP3   OH2 2141   6.789   3.995   1.484
  726TIP3    H1 2142   6.792   3.994   1.580
  726TIP3    H2 2143   6.803   3.903   1.459
  727TIP3   OH2 2144   5.381   6.826   3.683
  727TIP3    H1 2145   5.475   6.811   3.696
  727TIP3    H2 2146   5.369   6.828   3.589
  728TIP3   OH2 2147   4.895   5.435   2.301
  728TIP3    H1 2148   4.851   5.506   2.254
  728TIP3    H2 2149   4.921   5.374   2.232
  729TIP3   OH2 2150   1.821   1.127   0.516
  729TIP3    H1 2151   1.802   1.089   0.430
  729TIP3    H2 2152   1.884   1.196   0.499
  730TIP3   OH2 2153   3.184   5.686   5.090
  730TIP3    H1 2154   3.234   5.702   5.011
  730TIP3    H2 2155   3.224   5.743   5.156
  731TIP3   OH2 2156   5.243   3.762   3.452
  731TIP3    H1 2157   5.188   3.829   3.412
  731TIP3    H2 2158   5.246   3.786   3.545
  732TIP3   OH2 2159   2.372   3.257   3.352
  732TIP3    H1 2160   2.417   3.341   3.364
  732TIP3    H2 2161   2.424   3.210   3.287
  733TIP3   OH2 2162   2.072   2.607   2.377
  733TIP3    H1 2163   1.988   2.602   2.421
  733TIP3    H2 2164   2.137   2.590   2.445
  734TIP3   OH2 2165   0.213   3.726   1.223
  734TIP3    H1 2166   0.163   3.660   1.272
  734TIP3    H2 2167   0.148   3.792   1.199
  735TIP3   OH2 2168   7.169   0.067   5.400
  735TIP3    H1 2169   7.096   0.106   5.448
  735TIP3    H2 2170   7.196   0.134   5.338
  736TIP3   OH2 2171   5.611   2.645   3.505
  736TIP3    H1 2172   5.674   2.583   3.544
  736TIP3    H2 2173   5.599   2.712   3.572
  737TIP3   OH2 2174   4.619   4.041   5.731
  737TIP3    H1 2175   4.673   4.067   5.806
  737TIP3    H2 2176   4.669   3.972   5.688
  738TIP3   OH2 2177   1.893   3.505   2.939
  738TIP3    H1 2178   1.951   3.450   2.886
  738TIP3    H2 2179   1.947   3.581   2.962
  739TIP3   OH2 2180   5.025   1.200   3.652
  739TIP3    H1 2181   4.970   1.269   3.615
  739TIP3    H2 2182   5.046   1.231   3.740
  740TIP3   OH2 2183   6.778   2.125   5.060
  740TIP3    H1 2184   6.801   2.215   5.081
  740TIP3    H2 2185   6.861   2.083   5.039
  741TIP3   OH2 2186   0.900   1.080   3.168
  741TIP3    H1 2187   0.854   1.001   3.196
  741TIP3    H2 2188   0.902   1.074   3.072
  742TIP3   OH2 2189   6.885   4.520   3.156
  742TIP3    H1 2190   6.913   4.517   3.064
  742TIP3    H2 2191   6.964   4.500   3.206
  743TIP3   OH2 2192   4.784   0.910   4.016
  743TIP3    H1 2193   4.811   0.913   4.108
  743TIP3    H2 2194   4.756   1.000   3.996
  744TIP3   OH2 2195   4.188   2.349   5.238
  744TIP3    H1 2196   4.154   2.269   5.278
  744TIP3    H2 2197   4.136   2.359   5.158
  745TIP3   OH2 2198   2.476   6.532   4.752
  745TIP3    H1 2199   2.493   6.597   4.820
  745TIP3    H2 2200   2.540   6.463   4.768
  746TIP3   OH2 2201   6.867   2.065   0.756
  746TIP3    H1 2202   6.785   2.040   0.798
  746TIP3    H2 2203   6.857   2.159   0.739
  747TIP3   OH2 2204   1.316   6.158   1.699
  747TIP3    H1 2205   1.299   6.081   1.645
  747TIP3    H2 2206   1.319   6.231   1.638
  748TIP3   OH2 2207   7.105   4.348   4.361
  748TIP3    H1 2208   7.016   4.364   4.328
  748TIP3    H2 2209   7.098   4.264   4.408
  749TIP3   OH2 2210   5.191   1.570   3.576
  749TIP3    H1 2211   5.111   1.518   3.586
  749TIP3    H2 2212   5.246   1.545   3.650
  750TIP3   OH2 2213   2.479   1.268   2.024
  750TIP3    H1 2214   2.408   1.267   1.961
  750TIP3    H2 2215   2.516   1.180   2.020
  751TIP3   OH2 2216   1.095   4.318   4.120
  751TIP3    H1 2217   1.037   4.305   4.195
  751TIP3    H2 2218   1.036   4.347   4.050
  752TIP3   OH2 2219   3.506   3.662   1.995
  752TIP3    H1 2220   3.413   3.657   2.017
  752TIP3    H2 2221   3.511   3.628   1.906
  753TIP3   OH2 2222   1.084   5.319   5.044
  753TIP3    H1 2223   1.063   5.235   5.085
  753TIP3    H2 2224   0.999   5.351   5.012
  754TIP3   OH2 2225   7.031   3.522   0.119
  754TIP3    H1 2226   7.061   3.592   0.178
  754TIP3    H2 2227   7.025   3.564   0.033
  755TIP3   OH2 2228   1.254   1.807   2.012
  755TIP3    H1 2229   1.261   1.877   2.077
  755TIP3    H2 2230   1.332   1.817   1.958
  756TIP3   OH2 2231   2.165   5.666   3.467
  756TIP3    H1 2232   2.118   5.595   3.422
  756TIP3    H2 2233   2.184   5.729   3.397
  757TIP3   OH2 2234   2.977   4.583   1.582
  757TIP3    H1 2235   2.927   4.656   1.544
  757TIP3    H2 2236   3.068   4.603   1.560
  758TIP3   OH2 2237   4.567   0.499   4.643
  758TIP3    H1 2238   4.643   0.458   4.603
  758TIP3    H2 2239   4.492   0.453   4.604
  759TIP3   OH2 2240   1.166   2.184   3.150
  759TIP3    H1 2241   1.185   2.158   3.060
  759TIP3    H2 2242   1.101   2.254   3.142
  760TIP3   OH2 2243   0.390   6.308   3.247
  760TIP3    H1 2244   0.376   6.213   3.247
  760TIP3    H2 2245   0.304   6.345   3.225
  761TIP3   OH2 2246   0.133   6.204   5.234
  761TIP3    H1 2247   0.168   6.254   5.160
  761TIP3    H2 2248   0.202   6.141   5.254
  762TIP3   OH2 2249   1.047   3.875   0.089
  762TIP3    H1 2250   0.966   3.826   0.107
  762TIP3    H2 2251   1.117   3.815   0.111
  763TIP3   OH2 2252   7.041   4.089   0.779
  763TIP3    H1 2253   6.985   4.042   0.717
  763TIP3    H2 2254   7.129   4.057   0.759
  764TIP3   OH2 2255   5.419   1.867   0.410
  764TIP3    H1 2256   5.364   1.795   0.444
  764TIP3    H2 2257   5.374   1.946   0.439
  765TIP3   OH2 2258   3.773   3.671   1.268
  765TIP3    H1 2259   3.798   3.706   1.353
  765TIP3    H2 2260   3.850   3.621   1.239
  766TIP3   OH2 2261   3.128   2.345   3.809
  766TIP3    H1 2262   3.109   2.279   3.743
  766TIP3    H2 2263   3.119   2.298   3.892
  767TIP3   OH2 2264   4.383   2.242   3.271
  767TIP3    H1 2265   4.359   2.333   3.257
  767TIP3    H2 2266   4.307   2.192   3.240
  768TIP3   OH2 2267   5.834   3.644   2.833
  768TIP3    H1 2268   5.835   3.558   2.874
  768TIP3    H2 2269   5.744   3.676   2.846
  769TIP3   OH2 2270   1.000   3.413   0.797
  769TIP3    H1 2271   0.990   3.479   0.865
  769TIP3    H2 2272   1.059   3.348   0.835
  770TIP3   OH2 2273   6.992   4.535   5.001
  770TIP3    H1 2274   7.012   4.471   5.069
  770TIP3    H2 2275   6.940   4.602   5.046
  771TIP3   OH2 2276   1.371   1.391   2.358
  771TIP3    H1 2277   1.462   1.377   2.383
  771TIP3    H2 2278   1.326   1.310   2.384
  772TIP3   OH2 2279   6.931   1.925   2.436
  772TIP3    H1 2280   6.930   1.873   2.356
  772TIP3    H2 2281   6.869   1.881   2.494
  773TIP3   OH2 2282   6.386   5.579   0.175
  773TIP3    H1 2283   6.440   5.561   0.252
  773TIP3    H2 2284   6.376   5.493   0.133
  774TIP3   OH2 2285   5.940   3.329   1.299
  774TIP3    H1 2286   5.866   3.269   1.309
  774TIP3    H2 2287   5.919   3.402   1.358
  775TIP3   OH2 2288   5.476   3.101   3.901
  775TIP3    H1 2289   5.552   3.059   3.941
  775TIP3    H2 2290   5.508   3.188   3.875
  776TIP3   OH2 2291   3.501   1.867   2.376
  776TIP3    H1 2292   3.469   1.805   2.441
  776TIP3    H2 2293   3.471   1.832   2.292
  777TIP3   OH2 2294   2.640   3.899   2.604
  777TIP3    H1 2295   2.602   3.897   2.692
  777TIP3    H2 2296   2.692   3.979   2.601
  778TIP3   OH2 2297   2.253   1.619   2.408
  778TIP3    H1 2298   2.278   1.573   2.328
  778TIP3    H2 2299   2.295   1.570   2.479
  779TIP3   OH2 2300   2.673   5.814   0.785
  779TIP3    H1 2301   2.707   5.899   0.757
  779TIP3    H2 2302   2.737   5.782   0.848
  780TIP3   OH2 2303   0.663   1.942   3.485
  780TIP3    H1 2304   0.652   1.862   3.537
  780TIP3    H2 2305   0.594   1.937   3.418
  781TIP3   OH2 2306   6.848   1.419   4.509
  781TIP3    H1 2307   6.930   1.436   4.555
  781TIP3    H2 2308   6.869   1.428   4.416
  782TIP3   OH2 2309   2.359   2.957   3.410
  782TIP3    H1 2310   2.394   3.045   3.419
  782TIP3    H2 2311   2.322   2.954   3.322
  783TIP3   OH2 2312   5.861   2.408   5.880
  783TIP3    H1 2313   5.888   2.450   5.799
  783TIP3    H2 2314   5.900   2.321   5.876
  784TIP3   OH2 2315   0.230   1.992   0.825
  784TIP3    H1 2316   0.263   2.082   0.817
  784TIP3    H2 2317   0.157   1.999   0.886
  785TIP3   OH2 2318   2.419   2.687   3.201
  785TIP3    H1 2319   2.500   2.644   3.228
  785TIP3    H2 2320   2.445   2.743   3.128
  786TIP3   OH2 2321   2.390   5.358   1.883
  786TIP3    H1 2322   2.317   5.407   1.844
  786TIP3    H2 2323   2.350   5.310   1.955
  787TIP3   OH2 2324   6.695   4.721   2.956
  787TIP3    H1 2325   6.722   4.744   3.045
  787TIP3    H2 2326   6.599   4.718   2.960
  788TIP3   OH2 2327   4.265   0.919   2.587
  788TIP3    H1 2328   4.352   0.880   2.587
  788TIP3    H2 2329   4.281   1.013   2.584
  789TIP3   OH2 2330   4.159   1.269   1.505
  789TIP3    H1 2331   4.128   1.218   1.580
  789TIP3    H2 2332   4.127   1.358   1.521
  790TIP3   OH2 2333   2.814   0.929   4.394
  790TIP3    H1 2334   2.833   1.019   4.369
  790TIP3    H2 2335   2.900   0.889   4.408
  791TIP3   OH2 2336   0.305   3.799   5.272
  791TIP3    H1 2337   0.212   3.784   5.290
  791TIP3    H2 2338   0.350   3.727   5.317
  792TIP3   OH2 2339   1.454   3.473   1.606
  792TIP3    H1 2340   1.366   3.446   1.580
  792TIP3    H2 2341   1.512   3.406   1.569
  793TIP3   OH2 2342   3.036   2.354   2.303
  793TIP3    H1 2343   3.029   2.441   2.342
  793TIP3    H2 2344   3.074   2.299   2.372
  794TIP3   OH2 2345   2.792   5.347   4.711
  794TIP3    H1 2346   2.861   5.362   4.776
  794TIP3    H2 2347   2.790   5.252   4.699
  795TIP3   OH2 2348   3.265   6.618   4.261
  795TIP3    H1 2349   3.248   6.606   4.167
  795TIP3    H2 2350   3.322   6.695   4.265
  796TIP3   OH2 2351  -0.021   2.577   4.880
  796TIP3    H1 2352   0.039   2.617   4.817
  796TIP3    H2 2353   0.032   2.564   4.958
  797TIP3   OH2 2354   6.131   5.471   2.611
  797TIP3    H1 2355   6.073   5.539   2.645
  797TIP3    H2 2356   6.214   5.486   2.655
  798TIP3   OH2 2357   6.221   3.924   5.284
  798TIP3    H1 2358   6.264   3.915   5.369
  798TIP3    H2 2359   6.215   3.834   5.251
  799TIP3   OH2 2360   3.027   2.662   3.628
  799TIP3    H1 2361   3.084   2.676   3.703
  799TIP3    H2 2362   2.953   2.721   3.643
  800TIP3   OH2 2363   4.218   6.437   1.736
  800TIP3    H1 2364   4.251   6.513   1.784
  800TIP3    H2 2365   4.283   6.422   1.667
  801TIP3   OH2 2366   5.298   5.176   5.218
  801TIP3    H1 2367   5.327   5.242   5.156
  801TIP3    H2 2368   5.206   5.161   5.196
  802TIP3   OH2 2369   5.631   3.575   4.590
  802TIP3    H1 2370   5.536   3.578   4.583
  802TIP3    H2 2371   5.648   3.567   4.684
  803TIP3   OH2 2372   1.933   4.008   3.475
  803TIP3    H1 2373   1.988   4.020   3.397
  803TIP3    H2 2374   1.848   3.983   3.440
  804TIP3   OH2 2375   0.742   2.804   0.100
  804TIP3    H1 2376   0.782   2.727   0.058
  804TIP3    H2 2377   0.788   2.812   0.183
  805TIP3   OH2 2378   5.629   6.742   3.560
  805TIP3    H1 2379   5.651   6.705   3.475
  805TIP3    H2 2380   5.681   6.692   3.623
  806TIP3   OH2 2381   3.475   1.227   2.357
  806TIP3    H1 2382   3.388   1.192   2.378
  806TIP3    H2 2383   3.506   1.264   2.440
  807TIP3   OH2 2384   6.047   0.908   5.080
  807TIP3    H1 2385   6.071   0.855   5.004
  807TIP3    H2 2386   6.069   0.998   5.055
  808TIP3   OH2 2387   0.086   5.256   5.120
  808TIP3    H1 2388   0.014   5.196   5.102
  808TIP3    H2 2389   0.047   5.323   5.177
  809TIP3   OH2 2390   2.178   3.307   4.078
  809TIP3    H1 2391   2.086   3.330   4.075
  809TIP3    H2 2392   2.211   3.348   4.157
  810TIP3   OH2 2393   6.971   0.172   2.985
  810TIP3    H1 2394   7.024   0.177   2.905
  810TIP3    H2 2395   6.922   0.255   2.987
  811TIP3   OH2 2396   1.384   3.154   0.016
  811TIP3    H1 2397   1.352   3.192   0.098
  811TIP3    H2 2398   1.442   3.083   0.043
  812TIP3   OH2 2399   4.186   6.388   5.832
  812TIP3    H1 2400   4.146   6.324   5.773
  812TIP3    H2 2401   4.120   6.401   5.900
  813TIP3   OH2 2402   1.624   1.542   1.237
  813TIP3    H1 2403   1.541   1.587   1.219
  813TIP3    H2 2404   1.648   1.502   1.153
  814TIP3   OH2 2405   0.790   5.816   5.680
  814TIP3    H1 2406   0.799   5.725   5.708
  814TIP3    H2 2407   0.877   5.854   5.691
  815TIP3   OH2 2408   5.766   4.318   5.531
  815TIP3    H1 2409   5.725   4.387   5.480
  815TIP3    H2 2410   5.857   4.317   5.501
  816TIP3   OH2 2411   1.106   2.656   4.251
  816TIP3    H1 2412   1.119   2.599   4.175
  816TIP3    H2 2413   1.062   2.601   4.315
  817TIP3   OH2 2414   2.925   1.153   5.641
  817TIP3    H1 2415   2.835   1.127   5.619
  817TIP3    H2 2416   2.976   1.073   5.631
  818TIP3   OH2 2417   0.786   5.787   5.029
  818TIP3    H1 2418   0.797   5.879   5.007
  818TIP3    H2 2419   0.695   5.768   5.008
  819TIP3   OH2 2420   3.312   3.761   5.145
  819TIP3    H1 2421   3.353   3.816   5.079
  819TIP3    H2 2422   3.221   3.755   5.118
  820TIP3   OH2 2423   4.494   6.365   2.960
  820TIP3    H1 2424   4.551   6.419   2.906
  820TIP3    H2 2425   4.507   6.276   2.927
  821TIP3   OH2 2426   6.487   1.341   1.356
  821TIP3    H1 2427   6.554   1.301   1.411
  821TIP3    H2 2428   6.404   1.305   1.388
  822TIP3   OH2 2429   3.190   6.015   2.906
  822TIP3    H1 2430   3.188   5.993   2.813
  822TIP3    H2 2431   3.127   6.085   2.916
  823TIP3   OH2 2432   1.487   5.725   5.058
  823TIP3    H1 2433   1.475   5.799   5.119
  823TIP3    H2 2434   1.430   5.657   5.093
  824TIP3   OH2 2435   0.628   0.967   2.168
  824TIP3    H1 2436   0.706   0.914   2.150
  824TIP3    H2 2437   0.651   1.055   2.137
  825TIP3   OH2 2438   0.309   3.458   3.046
  825TIP3    H1 2439   0.229   3.507   3.028
  825TIP3    H2 2440   0.348   3.505   3.120
  826TIP3   OH2 2441   1.304   4.521   5.220
  826TIP3    H1 2442   1.293   4.426   5.218
  826TIP3    H2 2443   1.247   4.550   5.291
  827TIP3   OH2 2444   0.514   5.599   4.221
  827TIP3    H1 2445   0.471   5.596   4.306
  827TIP3    H2 2446   0.444   5.616   4.159
  828TIP3   OH2 2447   2.561   5.847   4.077
  828TIP3    H1 2448   2.647   5.807   4.085
  828TIP3    H2 2449   2.574   5.921   4.017
  829TIP3   OH2 2450   6.655   1.582   5.618
  829TIP3    H1 2451   6.741   1.584   5.578
  829TIP3    H2 2452   6.659   1.647   5.687
  830TIP3   OH2 2453   7.284   1.574   4.787
  830TIP3    H1 2454   7.208   1.558   4.844
  830TIP3    H2 2455   7.277   1.666   4.763
  831TIP3   OH2 2456   0.960   0.055   1.964
  831TIP3    H1 2457   1.042   0.015   1.994
  831TIP3    H2 2458   0.906   0.062   2.042
  832TIP3   OH2 2459   3.358   1.872   0.702
  832TIP3    H1 2460   3.296   1.857   0.774
  832TIP3    H2 2461   3.354   1.792   0.650
  833TIP3   OH2 2462   2.750   6.695   5.108
  833TIP3    H1 2463   2.740   6.692   5.013
  833TIP3    H2 2464   2.845   6.702   5.121
  834TIP3   OH2 2465   3.294   1.812   5.759
  834TIP3    H1 2466   3.374   1.811   5.706
  834TIP3    H2 2467   3.266   1.721   5.762
  835TIP3   OH2 2468   1.809   1.420   5.161
  835TIP3    H1 2469   1.886   1.380   5.122
  835TIP3    H2 2470   1.830   1.428   5.254
  836TIP3   OH2 2471   3.659   5.318   0.406
  836TIP3    H1 2472   3.724   5.306   0.475
  836TIP3    H2 2473   3.649   5.413   0.398
  837TIP3   OH2 2474   4.775   3.460   5.404
  837TIP3    H1 2475   4.786   3.546   5.362
  837TIP3    H2 2476   4.687   3.462   5.441
  838TIP3   OH2 2477   2.238   4.951   5.114
  838TIP3    H1 2478   2.202   4.951   5.026
  838TIP3    H2 2479   2.178   4.896   5.165
  839TIP3   OH2 2480   5.948   1.415   3.265
  839TIP3    H1 2481   5.972   1.446   3.177
  839TIP3    H2 2482   5.988   1.479   3.324
  840TIP3   OH2 2483   2.647   6.581   0.639
  840TIP3    H1 2484   2.628   6.653   0.580
  840TIP3    H2 2485   2.562   6.561   0.680
  841TIP3   OH2 2486   0.304   2.122   2.810
  841TIP3    H1 2487   0.363   2.138   2.883
  841TIP3    H2 2488   0.360   2.084   2.742
  842TIP3   OH2 2489   6.830   1.813   2.951
  842TIP3    H1 2490   6.852   1.865   2.874
  842TIP3    H2 2491   6.807   1.878   3.018
  843TIP3   OH2 2492   4.042   0.845   3.887
  843TIP3    H1 2493   4.028   0.775   3.823
  843TIP3    H2 2494   3.980   0.826   3.957
  844TIP3   OH2 2495   0.414   0.328   2.474
  844TIP3    H1 2496   0.351   0.271   2.431
  844TIP3    H2 2497   0.455   0.378   2.402
  845TIP3   OH2 2498   5.238   2.438   1.312
  845TIP3    H1 2499   5.169   2.436   1.377
  845TIP3    H2 2500   5.314   2.401   1.357
  846TIP3   OH2 2501   1.741   4.763   4.441
  846TIP3    H1 2502   1.805   4.731   4.504
  846TIP3    H2 2503   1.691   4.685   4.416
  847TIP3   OH2 2504   6.765   5.464   5.202
  847TIP3    H1 2505   6.782   5.550   5.240
  847TIP3    H2 2506   6.794   5.472   5.111
  848TIP3   OH2 2507   0.093   3.080   3.522
  848TIP3    H1 2508   0.134   3.013   3.468
  848TIP3    H2 2509   0.006   3.044   3.543
  849TIP3   OH2 2510   3.509   1.449   2.832
  849TIP3    H1 2511   3.567   1.490   2.896
  849TIP3    H2 2512   3.431   1.426   2.882
  850TIP3   OH2 2513   5.215   6.153   1.183
  850TIP3    H1 2514   5.180   6.158   1.272
  850TIP3    H2 2515   5.242   6.243   1.163
  851TIP3   OH2 2516   5.147   3.314   3.440
  851TIP3    H1 2517   5.153   3.396   3.391
  851TIP3    H2 2518   5.238   3.293   3.463
  852TIP3   OH2 2519   1.740   4.676   5.729
  852TIP3    H1 2520   1.801   4.614   5.690
  852TIP3    H2 2521   1.769   4.762   5.698
  853TIP3   OH2 2522   5.625   5.715   0.535
  853TIP3    H1 2523   5.717   5.709   0.510
  853TIP3    H2 2524   5.615   5.650   0.604
  854TIP3   OH2 2525   4.291   0.948   5.040
  854TIP3    H1 2526   4.233   0.900   5.099
  854TIP3    H2 2527   4.379   0.933   5.075
  855TIP3   OH2 2528   1.365   2.527   4.011
  855TIP3    H1 2529   1.451   2.549   4.046
  855TIP3    H2 2530   1.383   2.485   3.927
  856TIP3   OH2 2531   3.781   6.029   1.083
  856TIP3    H1 2532   3.707   6.079   1.118
  856TIP3    H2 2533   3.748   5.992   1.002
  857TIP3   OH2 2534  -0.045   1.510   5.685
  857TIP3    H1 2535   0.013   1.458   5.630
  857TIP3    H2 2536  -0.094   1.446   5.737
  858TIP3   OH2 2537   4.338   0.658   2.787
  858TIP3    H1 2538   4.380   0.657   2.701
  858TIP3    H2 2539   4.393   0.716   2.840
  859TIP3   OH2 2540   3.257   3.081   4.150
  859TIP3    H1 2541   3.270   3.174   4.164
  859TIP3    H2 2542   3.196   3.076   4.077
  860TIP3   OH2 2543   6.974   5.269   0.968
  860TIP3    H1 2544   6.983   5.274   0.872
  860TIP3    H2 2545   6.931   5.351   0.992
  861TIP3   OH2 2546   3.061   1.912   2.263
  861TIP3    H1 2547   2.983   1.890   2.314
  861TIP3    H2 2548   3.059   2.007   2.256
  862TIP3   OH2 2549   5.349   2.963   3.399
  862TIP3    H1 2550   5.396   3.027   3.452
  862TIP3    H2 2551   5.419   2.911   3.357
  863TIP3   OH2 2552   0.563   3.453   0.327
  863TIP3    H1 2553   0.508   3.429   0.401
  863TIP3    H2 2554   0.606   3.534   0.354
  864TIP3   OH2 2555   5.752   3.317   2.369
  864TIP3    H1 2556   5.702   3.364   2.302
  864TIP3    H2 2557   5.839   3.357   2.366
  865TIP3   OH2 2558   3.631   2.853   0.992
  865TIP3    H1 2559   3.579   2.914   0.938
  865TIP3    H2 2560   3.615   2.768   0.953
  866TIP3   OH2 2561   2.038   1.288   1.240
  866TIP3    H1 2562   2.069   1.213   1.291
  866TIP3    H2 2563   1.949   1.266   1.215
  867TIP3   OH2 2564   3.536   2.409   2.697
  867TIP3    H1 2565   3.603   2.394   2.763
  867TIP3    H2 2566   3.583   2.444   2.622
  868TIP3   OH2 2567   0.545   3.197   4.007
  868TIP3    H1 2568   0.640   3.213   4.009
  868TIP3    H2 2569   0.516   3.215   4.096
  869TIP3   OH2 2570   3.670   2.901   4.032
  869TIP3    H1 2571   3.634   2.965   4.092
  869TIP3    H2 2572   3.643   2.816   4.068
  870TIP3   OH2 2573   5.126   0.632   3.941
  870TIP3    H1 2574   5.172   0.551   3.965
  870TIP3    H2 2575   5.052   0.636   4.003
  871TIP3   OH2 2576   3.807   0.596   0.317
  871TIP3    H1 2577   3.835   0.686   0.334
  871TIP3    H2 2578   3.787   0.594   0.223
  872TIP3   OH2 2579   5.079   3.938   0.060
  872TIP3    H1 2580   4.998   3.901   0.024
  872TIP3    H2 2581   5.056   3.964   0.149
  873TIP3   OH2 2582   4.976   5.409   3.844
  873TIP3    H1 2583   5.071   5.399   3.851
  873TIP3    H2 2584   4.961   5.441   3.755
  874TIP3   OH2 2585   3.233   0.714   0.868
  874TIP3    H1 2586   3.179   0.788   0.841
  874TIP3    H2 2587   3.216   0.646   0.802
  875TIP3   OH2 2588   0.557   5.793   1.631
  875TIP3    H1 2589   0.521   5.706   1.614
  875TIP3    H2 2590   0.545   5.840   1.548
  876TIP3   OH2 2591   4.509   0.124   4.726
  876TIP3    H1 2592   4.562   0.103   4.803
  876TIP3    H2 2593   4.486   0.039   4.688
  877TIP3   OH2 2594   1.565   5.142   5.372
  877TIP3    H1 2595   1.600   5.211   5.315
  877TIP3    H2 2596   1.642   5.094   5.403
  878TIP3   OH2 2597   6.948   2.495   1.557
  878TIP3    H1 2598   6.938   2.476   1.651
  878TIP3    H2 2599   6.864   2.470   1.519
  879TIP3   OH2 2600   1.400   3.545   3.995
  879TIP3    H1 2601   1.309   3.573   4.004
  879TIP3    H2 2602   1.402   3.456   4.031
  880TIP3   OH2 2603   0.761   4.965   5.518
  880TIP3    H1 2604   0.730   4.997   5.603
  880TIP3    H2 2605   0.683   4.933   5.474
  881TIP3   OH2 2606   6.735   1.737   2.556
  881TIP3    H1 2607   6.800   1.669   2.538
  881TIP3    H2 2608   6.654   1.703   2.519
  882TIP3   OH2 2609   5.164   2.489   0.707
  882TIP3    H1 2610   5.233   2.528   0.760
  882TIP3    H2 2611   5.151   2.401   0.744
  883TIP3   OH2 2612   1.512   5.644   3.740
  883TIP3    H1 2613   1.503   5.556   3.703
  883TIP3    H2 2614   1.592   5.641   3.791
  884TIP3   OH2 2615   6.046   1.210   2.753
  884TIP3    H1 2616   6.084   1.297   2.750
  884TIP3    H2 2617   6.051   1.185   2.845
  885TIP3   OH2 2618   5.345   2.399   0.043
  885TIP3    H1 2619   5.417   2.348   0.005
  885TIP3    H2 2620   5.298   2.434  -0.033
  886TIP3   OH2 2621   3.118   3.046   4.672
  886TIP3    H1 2622   3.030   3.032   4.706
  886TIP3    H2 2623   3.111   3.023   4.579
  887TIP3   OH2 2624   4.519   3.905   3.594
  887TIP3    H1 2625   4.510   4.000   3.593
  887TIP3    H2 2626   4.610   3.890   3.621
  888TIP3   OH2 2627   6.162   1.443   2.790
  888TIP3    H1 2628   6.151   1.460   2.696
  888TIP3    H2 2629   6.254   1.461   2.807
  889TIP3   OH2 2630   2.315   4.171  -0.004
  889TIP3    H1 2631   2.382   4.182   0.063
  889TIP3    H2 2632   2.282   4.082   0.009
  890TIP3   OH2 2633   1.355   5.590   5.268
  890TIP3    H1 2634   1.430   5.534   5.247
  890TIP3    H2 2635   1.297   5.535   5.320
  891TIP3   OH2 2636   4.507   2.502   3.502
  891TIP3    H1 2637   4.478   2.422   3.546
  891TIP3    H2 2638   4.586   2.528   3.550
  892TIP3   OH2 2639   6.947   2.841   2.263
  892TIP3    H1 2640   6.851   2.835   2.268
  892TIP3    H2 2641   6.965   2.843   2.169
  893TIP3   OH2 2642   1.429   1.756   4.934
  893TIP3    H1 2643   1.416   1.693   4.863
  893TIP3    H2 2644   1.523   1.756   4.948
  894TIP3   OH2 2645   1.592   2.501   3.419
  894TIP3    H1 2646   1.563   2.438   3.354
  894TIP3    H2 2647   1.671   2.462   3.458
  895TIP3   OH2 2648   4.566   1.722   0.156
  895TIP3    H1 2649   4.596   1.649   0.211
  895TIP3    H2 2650   4.598   1.800   0.200
  896TIP3   OH2 2651   1.718   5.738   3.883
  896TIP3    H1 2652   1.765   5.706   3.960
  896TIP3    H2 2653   1.776   5.803   3.845
  897TIP3   OH2 2654   1.924   4.583   1.488
  897TIP3    H1 2655   1.865   4.596   1.414
  897TIP3    H2 2656   2.011   4.580   1.449
  898TIP3   OH2 2657   4.242   6.670   3.588
  898TIP3    H1 2658   4.262   6.758   3.618
  898TIP3    H2 2659   4.325   6.636   3.556
  899TIP3   OH2 2660   1.858   4.768   1.683
  899TIP3    H1 2661   1.873   4.700   1.617
  899TIP3    H2 2662   1.789   4.731   1.739
  900TIP3   OH2 2663   3.041   0.749   2.083
  900TIP3    H1 2664   3.134   0.729   2.094
  900TIP3    H2 2665   3.039   0.838   2.048
  901TIP3   OH2 2666   3.923   1.005   4.274
  901TIP3    H1 2667   3.865   1.015   4.199
  901TIP3    H2 2668   3.966   0.920   4.261
  902TIP3   OH2 2669   2.596   1.761   3.980
  902TIP3    H1 2670   2.545   1.726   3.907
  902TIP3    H2 2671   2.557   1.722   4.058
  903TIP3   OH2 2672   1.016   1.215   5.366
  903TIP3    H1 2673   0.964   1.176   5.436
  903TIP3    H2 2674   0.955   1.222   5.292
  904TIP3   OH2 2675   1.739   6.341   0.069
  904TIP3    H1 2676   1.774   6.291   0.143
  904TIP3    H2 2677   1.645   6.348   0.087
  905TIP3   OH2 2678   2.785   2.278   4.077
  905TIP3    H1 2679   2.707   2.231   4.046
  905TIP3    H2 2680   2.754   2.367   4.092
  906TIP3   OH2 2681   2.165   3.340   2.257
  906TIP3    H1 2682   2.178   3.369   2.347
  906TIP3    H2 2683   2.152   3.245   2.264
  907TIP3   OH2 2684   6.000   2.885   0.758
  907TIP3    H1 2685   5.993   2.886   0.662
  907TIP3    H2 2686   5.986   2.976   0.784
  908TIP3   OH2 2687   6.010   3.046   2.682
  908TIP3    H1 2688   6.038   3.110   2.617
  908TIP3    H2 2689   6.063   3.066   2.760
  909TIP3   OH2 2690   2.546   6.724   3.710
  909TIP3    H1 2691   2.474   6.663   3.694
  909TIP3    H2 2692   2.504   6.806   3.733
  910TIP3   OH2 2693   0.388   0.868  -0.022
  910TIP3    H1 2694   0.298   0.887   0.002
  910TIP3    H2 2695   0.429   0.837   0.059
  911TIP3   OH2 2696   3.876   5.777   5.518
  911TIP3    H1 2697   3.860   5.689   5.553
  911TIP3    H2 2698   3.930   5.762   5.440
  912TIP3   OH2 2699   2.810   2.783   1.541
  912TIP3    H1 2700   2.716   2.764   1.539
  912TIP3    H2 2701   2.851   2.698   1.561
  913TIP3   OH2 2702   5.085   5.845   3.943
  913TIP3    H1 2703   5.108   5.932   3.974
  913TIP3    H2 2704   5.034   5.861   3.863
  914TIP3   OH2 2705   3.766   4.184   3.579
  914TIP3    H1 2706   3.816   4.167   3.500
  914TIP3    H2 2707   3.727   4.100   3.603
  915TIP3   OH2 2708   0.515   0.514   5.029
  915TIP3    H1 2709   0.516   0.486   5.121
  915TIP3    H2 2710   0.432   0.559   5.018
  916TIP3   OH2 2711   4.133   4.580   2.273
  916TIP3    H1 2712   4.206   4.587   2.335
  916TIP3    H2 2713   4.174   4.551   2.191
  917TIP3   OH2 2714   3.868   3.555   2.955
  917TIP3    H1 2715   3.787   3.529   2.999
  917TIP3    H2 2716   3.880   3.489   2.887
  918TIP3   OH2 2717   1.406   2.193   2.658
  918TIP3    H1 2718   1.481   2.138   2.680
  918TIP3    H2 2719   1.435   2.282   2.677
  919TIP3   OH2 2720   2.250   3.871   1.254
  919TIP3    H1 2721   2.320   3.834   1.308
  919TIP3    H2 2722   2.281   3.861   1.164
  920TIP3   OH2 2723   7.106   3.423   5.317
  920TIP3    H1 2724   7.031   3.363   5.320
  920TIP3    H2 2725   7.142   3.412   5.229
  921TIP3   OH2 2726   3.674   3.839   5.499
  921TIP3    H1 2727   3.594   3.863   5.452
  921TIP3    H2 2728   3.645   3.825   5.589
  922TIP3   OH2 2729   4.014   5.157   1.881
  922TIP3    H1 2730   3.943   5.159   1.945
  922TIP3    H2 2731   4.077   5.095   1.919
  923TIP3   OH2 2732   6.621   0.581   4.975
  923TIP3    H1 2733   6.674   0.502   4.963
  923TIP3    H2 2734   6.611   0.588   5.069
  924TIP3   OH2 2735   4.329   4.555   1.026
  924TIP3    H1 2736   4.391   4.538   0.956
  924TIP3    H2 2737   4.323   4.473   1.075
  925TIP3   OH2 2738   0.361   0.121   1.432
  925TIP3    H1 2739   0.376   0.122   1.526
  925TIP3    H2 2740   0.275   0.081   1.421
  926TIP3   OH2 2741   2.787   0.649   1.437
  926TIP3    H1 2742   2.806   0.575   1.379
  926TIP3    H2 2743   2.873   0.680   1.466
  927TIP3   OH2 2744   3.846   4.069   4.951
  927TIP3    H1 2745   3.929   4.101   4.988
  927TIP3    H2 2746   3.780   4.131   4.981
  928TIP3   OH2 2747   6.143   2.474   1.039
  928TIP3    H1 2748   6.122   2.430   0.957
  928TIP3    H2 2749   6.210   2.419   1.080
  929TIP3   OH2 2750   5.630   4.228   4.993
  929TIP3    H1 2751   5.615   4.141   4.956
  929TIP3    H2 2752   5.718   4.224   5.029
  930TIP3   OH2 2753   2.607   1.465   1.791
  930TIP3    H1 2754   2.658   1.444   1.713
  930TIP3    H2 2755   2.570   1.551   1.772
  931TIP3   OH2 2756   6.762   3.903   4.309
  931TIP3    H1 2757   6.752   3.910   4.214
  931TIP3    H2 2758   6.853   3.930   4.325
  932TIP3   OH2 2759   2.233   2.835   0.967
  932TIP3    H1 2760   2.150   2.824   0.921
  932TIP3    H2 2761   2.223   2.785   1.048
  933TIP3   OH2 2762   2.689   3.397   1.047
  933TIP3    H1 2763   2.741   3.379   1.126
  933TIP3    H2 2764   2.755   3.413   0.979
  934TIP3   OH2 2765   0.536   6.468   4.200
  934TIP3    H1 2766   0.626   6.438   4.216
  934TIP3    H2 2767   0.532   6.483   4.106
  935TIP3   OH2 2768   3.850   4.426   0.483
  935TIP3    H1 2769   3.763   4.394   0.459
  935TIP3    H2 2770   3.871   4.379   0.564
  936TIP3   OH2 2771   2.727   3.445   2.785
  936TIP3    H1 2772   2.741   3.422   2.693
  936TIP3    H2 2773   2.738   3.363   2.833
  937TIP3   OH2 2774   2.997   0.955   2.734
  937TIP3    H1 2775   2.970   1.043   2.759
  937TIP3    H2 2776   2.983   0.902   2.812
  938TIP3   OH2 2777   2.930   1.502   0.294
  938TIP3    H1 2778   2.911   1.501   0.387
  938TIP3    H2 2779   2.851   1.470   0.252
  939TIP3   OH2 2780   2.021   3.428   5.559
  939TIP3    H1 2781   2.025   3.359   5.493
  939TIP3    H2 2782   1.935   3.417   5.600
  940TIP3   OH2 2783   6.684   0.605   4.075
  940TIP3    H1 2784   6.762   0.587   4.023
  940TIP3    H2 2785   6.701   0.690   4.115
  941TIP3   OH2 2786   3.380   3.008   4.640
  941TIP3    H1 2787   3.377   2.959   4.558
  941TIP3    H2 2788   3.291   3.040   4.653
  942TIP3   OH2 2789   0.526   4.919   0.025
  942TIP3    H1 2790   0.508   5.013   0.020
  942TIP3    H2 2791   0.515   4.897   0.117
  943TIP3   OH2 2792   7.098   1.545   2.613
  943TIP3    H1 2793   7.126   1.526   2.703
  943TIP3    H2 2794   7.163   1.607   2.580
  944TIP3   OH2 2795   7.104   0.722   4.875
  944TIP3    H1 2796   7.021   0.749   4.836
  944TIP3    H2 2797   7.080   0.662   4.946
  945TIP3   OH2 2798   2.208   5.684   3.737
  945TIP3    H1 2799   2.161   5.668   3.655
  945TIP3    H2 2800   2.275   5.748   3.714
  946TIP3   OH2 2801   6.261   5.608   5.248
  946TIP3    H1 2802   6.174   5.602   5.208
  946TIP3    H2 2803   6.253   5.680   5.311
  947TIP3   OH2 2804   0.142   2.910   1.997
  947TIP3    H1 2805   0.199   2.844   2.037
  947TIP3    H2 2806   0.190   2.993   2.009
  948TIP3   OH2 2807   0.458   2.611   2.207
  948TIP3    H1 2808   0.468   2.521   2.178
  948TIP3    H2 2809   0.418   2.604   2.294
  949TIP3   OH2 2810   0.756   4.345   4.612
  949TIP3    H1 2811   0.750   4.441   4.611
  949TIP3    H2 2812   0.670   4.315   4.583
  950TIP3   OH2 2813   2.578   6.082   0.668
  950TIP3    H1 2814   2.615   6.139   0.735
  950TIP3    H2 2815   2.583   6.133   0.587
  951TIP3   OH2 2816   7.105   0.164   5.747
  951TIP3    H1 2817   7.078   0.195   5.834
  951TIP3    H2 2818   7.199   0.182   5.744
  952TIP3   OH2 2819   0.508   1.466   3.428
  952TIP3    H1 2820   0.502   1.462   3.524
  952TIP3    H2 2821   0.453   1.395   3.397
  953TIP3   OH2 2822   3.463   0.497   3.101
  953TIP3    H1 2823   3.542   0.543   3.130
  953TIP3    H2 2824   3.420   0.559   3.041
  954TIP3   OH2 2825   2.823   0.891   3.355
  954TIP3    H1 2826   2.788   0.807   3.387
  954TIP3    H2 2827   2.807   0.952   3.427
  955TIP3   OH2 2828   1.428   5.877   2.487
  955TIP3    H1 2829   1.344   5.899   2.447
  955TIP3    H2 2830   1.423   5.783   2.502
  956TIP3   OH2 2831   0.085   6.230   1.153
  956TIP3    H1 2832   0.096   6.216   1.247
  956TIP3    H2 2833  -0.004   6.264   1.144
  957TIP3   OH2 2834   1.490   1.441   0.584
  957TIP3    H1 2835   1.520   1.357   0.619
  957TIP3    H2 2836   1.568   1.497   0.586
  958TIP3   OH2 2837   4.533   4.241   1.509
  958TIP3    H1 2838   4.449   4.225   1.465
  958TIP3    H2 2839   4.590   4.276   1.440
  959TIP3   OH2 2840   0.352   5.330   5.260
  959TIP3    H1 2841   0.273   5.345   5.207
  959TIP3    H2 2842   0.321   5.331   5.350
  960TIP3   OH2 2843   6.002   2.456   2.850
  960TIP3    H1 2844   6.077   2.423   2.802
  960TIP3    H2 2845   5.996   2.548   2.826
  961TIP3   OH2 2846   2.330   5.741   4.833
  961TIP3    H1 2847   2.362   5.827   4.807
  961TIP3    H2 2848   2.405   5.700   4.876
  962TIP3   OH2 2849   6.370   0.847   4.323
  962TIP3    H1 2850   6.401   0.846   4.413
  962TIP3    H2 2851   6.338   0.758   4.307
  963TIP3   OH2 2852   0.234   3.775   4.948
  963TIP3    H1 2853   0.243   3.867   4.973
  963TIP3    H2 2854   0.290   3.765   4.872
  964TIP3   OH2 2855   5.455   4.010   0.650
  964TIP3    H1 2856   5.373   4.020   0.602
  964TIP3    H2 2857   5.503   4.091   0.635
  965TIP3   OH2 2858   1.489   4.596   5.641
  965TIP3    H1 2859   1.578   4.606   5.674
  965TIP3    H2 2860   1.470   4.679   5.597
  966TIP3   OH2 2861   5.565   1.109   1.545
  966TIP3    H1 2862   5.478   1.141   1.523
  966TIP3    H2 2863   5.596   1.168   1.614
  967TIP3   OH2 2864   0.805   0.095   4.716
  967TIP3    H1 2865   0.731   0.132   4.764
  967TIP3    H2 2866   0.802   0.001   4.734
  968TIP3   OH2 2867   4.685   2.719   1.490
  968TIP3    H1 2868   4.665   2.684   1.577
  968TIP3    H2 2869   4.772   2.685   1.470
  969TIP3   OH2 2870   6.551   3.899   0.602
  969TIP3    H1 2871   6.499   3.819   0.596
  969TIP3    H2 2872   6.487   3.970   0.600
  970TIP3   OH2 2873   1.112   3.875   4.405
  970TIP3    H1 2874   1.046   3.873   4.337
  970TIP3    H2 2875   1.172   3.803   4.383
  971TIP3   OH2 2876   0.429   1.553   3.700
  971TIP3    H1 2877   0.389   1.508   3.775
  971TIP3    H2 2878   0.355   1.581   3.647
  972TIP3   OH2 2879   2.945   4.787   5.430
  972TIP3    H1 2880   2.915   4.877   5.417
  972TIP3    H2 2881   3.034   4.787   5.395
  973TIP3   OH2 2882   7.036   4.384   4.732
  973TIP3    H1 2883   7.000   4.408   4.818
  973TIP3    H2 2884   6.984   4.434   4.669
  974TIP3   OH2 2885   0.956   2.858   4.441
  974TIP3    H1 2886   1.001   2.778   4.468
  974TIP3    H2 2887   0.909   2.833   4.361
  975TIP3   OH2 2888   2.739   3.543   0.453
  975TIP3    H1 2889   2.671   3.592   0.499
  975TIP3    H2 2890   2.820   3.564   0.501
  976TIP3   OH2 2891   3.233   0.800   5.872
  976TIP3    H1 2892   3.154   0.819   5.923
  976TIP3    H2 2893   3.275   0.728   5.919
  977TIP3   OH2 2894   4.328   5.500   2.701
  977TIP3    H1 2895   4.330   5.584   2.747
  977TIP3    H2 2896   4.261   5.449   2.745
  978TIP3   OH2 2897   5.363   6.346   2.683
  978TIP3    H1 2898   5.318   6.264   2.700
  978TIP3    H2 2899   5.403   6.335   2.597
  979TIP3   OH2 2900   6.098   6.205   5.395
  979TIP3    H1 2901   6.110   6.123   5.348
  979TIP3    H2 2902   6.079   6.180   5.485
  980TIP3   OH2 2903   3.621   6.614   4.391
  980TIP3    H1 2904   3.533   6.640   4.419
  980TIP3    H2 2905   3.615   6.606   4.296
  981TIP3   OH2 2906   2.727   4.279   4.816
  981TIP3    H1 2907   2.816   4.311   4.800
  981TIP3    H2 2908   2.730   4.186   4.792
  982TIP3   OH2 2909   6.213   5.015   4.840
  982TIP3    H1 2910   6.270   5.015   4.764
  982TIP3    H2 2911   6.192   5.107   4.855
  983TIP3   OH2 2912   4.468   6.569   3.476
  983TIP3    H1 2913   4.509   6.520   3.406
  983TIP3    H2 2914   4.503   6.658   3.467
  984TIP3   OH2 2915   2.209   1.829   3.911
  984TIP3    H1 2916   2.283   1.888   3.922
  984TIP3    H2 2917   2.186   1.836   3.819
  985TIP3   OH2 2918   0.764   2.314   0.147
  985TIP3    H1 2919   0.833   2.300   0.212
  985TIP3    H2 2920   0.709   2.383   0.186
  986TIP3   OH2 2921   3.083   3.824   0.467
  986TIP3    H1 2922   3.121   3.912   0.465
  986TIP3    H2 2923   3.003   3.832   0.415
  987TIP3   OH2 2924   2.883   4.072   1.206
  987TIP3    H1 2925   2.924   4.141   1.257
  987TIP3    H2 2926   2.947   4.053   1.136
  988TIP3   OH2 2927   4.563   5.275   3.402
  988TIP3    H1 2928   4.596   5.365   3.394
  988TIP3    H2 2929   4.470   5.285   3.422
  989TIP3   OH2 2930   6.646   3.694   1.083
  989TIP3    H1 2931   6.673   3.604   1.101
  989TIP3    H2 2932   6.619   3.728   1.168
  990TIP3   OH2 2933   2.498   4.377   4.950
  990TIP3    H1 2934   2.554   4.323   4.895
  990TIP3    H2 2935   2.546   4.384   5.033
  991TIP3   OH2 2936   5.360   5.597   3.612
  991TIP3    H1 2937   5.413   5.650   3.672
  991TIP3    H2 2938   5.280   5.649   3.599
  992TIP3   OH2 2939   4.840   4.379   4.034
  992TIP3    H1 2940   4.836   4.325   3.955
  992TIP3    H2 2941   4.928   4.365   4.069
  993TIP3   OH2 2942   3.290   6.083   3.964
  993TIP3    H1 2943   3.305   6.125   3.879
  993TIP3    H2 2944   3.376   6.052   3.991
  994TIP3   OH2 2945   1.267   6.001   5.250
  994TIP3    H1 2946   1.317   6.075   5.286
  994TIP3    H2 2947   1.305   5.985   5.164
  995TIP3   OH2 2948   5.832   1.109  -0.017
  995TIP3    H1 2949   5.922   1.087  -0.039
  995TIP3    H2 2950   5.836   1.135   0.075
  996TIP3   OH2 2951   0.902   5.713   5.313
  996TIP3    H1 2952   0.868   5.628   5.341
  996TIP3    H2 2953   0.881   5.718   5.219
  997TIP3   OH2 2954   1.140   4.340   1.578
  997TIP3    H1 2955   1.200   4.403   1.618
  997TIP3    H2 2956   1.192   4.261   1.567
  998TIP3   OH2 2957   1.358   5.587   1.066
  998TIP3    H1 2958   1.308   5.665   1.041
  998TIP3    H2 2959   1.339   5.575   1.159
  999TIP3   OH2 2960   3.429   1.678   4.158
  999TIP3    H1 2961   3.475   1.612   4.107
  999TIP3    H2 2962   3.388   1.735   4.092
 1000TIP3   OH2 2963   4.778   6.451   0.298
 1000TIP3    H1 2964   4.727   6.373   0.318
 1000TIP3    H2 2965   4.730   6.494   0.226
 1001TIP3   OH2 2966   6.742   3.152   4.024
 1001TIP3    H1 2967   6.666   3.116   3.978
 1001TIP3    H2 2968   6.721   3.139   4.117
 1002TIP3   OH2 2969   2.967   5.777   0.448
 1002TIP3    H1 2970   2.887   5.830   0.450
 1002TIP3    H2 2971   2.991   5.774   0.356
 1003TIP3   OH2 2972   2.088   2.511   4.438
 1003TIP3    H1 2973   2.166   2.500   4.384
 1003TIP3    H2 2974   2.018   2.533   4.376
 1004TIP3   OH2 2975   5.410   4.780   1.300
 1004TIP3    H1 2976   5.390   4.872   1.317
 1004TIP3    H2 2977   5.450   4.781   1.214
 1005TIP3   OH2 2978   3.582   2.964   3.771
 1005TIP3    H1 2979   3.546   2.880   3.742
 1005TIP3    H2 2980   3.625   2.945   3.854
 1006TIP3   OH2 2981   0.457   4.654   1.346
 1006TIP3    H1 2982   0.481   4.566   1.374
 1006TIP3    H2 2983   0.362   4.657   1.354
 1007TIP3   OH2 2984   3.699   2.962   1.430
 1007TIP3    H1 2985   3.675   2.976   1.521
 1007TIP3    H2 2986   3.744   2.878   1.430
 1008TIP3   OH2 2987   4.791   4.422   4.872
 1008TIP3    H1 2988   4.719   4.359   4.863
 1008TIP3    H2 2989   4.757   4.503   4.835
 1009TIP3   OH2 2990   1.919   2.728   0.344
 1009TIP3    H1 2991   1.858   2.676   0.291
 1009TIP3    H2 2992   1.862   2.775   0.405
 1010TIP3   OH2 2993   6.809   0.481   2.134
 1010TIP3    H1 2994   6.842   0.515   2.217
 1010TIP3    H2 2995   6.714   0.483   2.144
 1011TIP3   OH2 2996   7.099   6.395   4.162
 1011TIP3    H1 2997   7.103   6.349   4.245
 1011TIP3    H2 2998   7.191   6.404   4.135
 1012TIP3   OH2 2999   5.359   5.362   5.448
 1012TIP3    H1 3000   5.298   5.430   5.417
 1012TIP3    H2 3001   5.325   5.281   5.409
 1013TIP3   OH2 3002   5.251   1.547   1.581
 1013TIP3    H1 3003   5.205   1.487   1.522
 1013TIP3    H2 3004   5.344   1.527   1.568
 1014TIP3   OH2 3005   2.392   6.049   2.135
 1014TIP3    H1 3006   2.314   6.042   2.190
 1014TIP3    H2 3007   2.466   6.035   2.194
 1015TIP3   OH2 3008   1.151   6.473   4.150
 1015TIP3    H1 3009   1.120   6.408   4.213
 1015TIP3    H2 3010   1.211   6.424   4.093
 1016TIP3   OH2 3011   2.930   0.429   1.265
 1016TIP3    H1 3012   2.959   0.486   1.194
 1016TIP3    H2 3013   2.958   0.341   1.237
 1017TIP3   OH2 3014   4.081   0.506   5.467
 1017TIP3    H1 3015   4.110   0.467   5.550
 1017TIP3    H2 3016   4.161   0.538   5.426
 1018TIP3   OH2 3017   4.110   1.716   0.237
 1018TIP3    H1 3018   4.099   1.637   0.184
 1018TIP3    H2 3019   4.023   1.732   0.274
 1019TIP3   OH2 3020   5.713   5.226   0.870
 1019TIP3    H1 3021   5.773   5.222   0.945
 1019TIP3    H2 3022   5.765   5.263   0.799
 1020TIP3   OH2 3023   5.009   5.662   5.564
 1020TIP3    H1 3024   4.941   5.706   5.513
 1020TIP3    H2 3025   5.043   5.730   5.622
 1021TIP3   OH2 3026   2.729   4.753   1.107
 1021TIP3    H1 3027   2.704   4.824   1.166
 1021TIP3    H2 3028   2.687   4.675   1.144
 1022TIP3   OH2 3029   6.518   1.092   3.190
 1022TIP3    H1 3030   6.524   1.148   3.268
 1022TIP3    H2 3031   6.441   1.124   3.144
 1023TIP3   OH2 3032   3.783   4.494   2.387
 1023TIP3    H1 3033   3.813   4.516   2.475
 1023TIP3    H2 3034   3.734   4.412   2.398
 1024TIP3   OH2 3035   3.051   2.063   3.303
 1024TIP3    H1 3036   3.010   2.120   3.238
 1024TIP3    H2 3037   3.142   2.093   3.307
 1025TIP3   OH2 3038   2.231   4.186   2.614
 1025TIP3    H1 3039   2.136   4.183   2.620
 1025TIP3    H2 3040   2.249   4.177   2.520
 1026TIP3   OH2 3041   6.893   6.556   3.993
 1026TIP3    H1 3042   6.870   6.604   4.073
 1026TIP3    H2 3043   6.969   6.503   4.017
 1027TIP3   OH2 3044   4.835   0.691   2.233
 1027TIP3    H1 3045   4.918   0.724   2.198
 1027TIP3    H2 3046   4.852   0.676   2.326
 1028TIP3   OH2 3047   1.721   0.875   5.214
 1028TIP3    H1 3048   1.651   0.844   5.157
 1028TIP3    H2 3049   1.719   0.817   5.290
 1029TIP3   OH2 3050   3.836   1.370   3.517
 1029TIP3    H1 3051   3.872   1.371   3.605
 1029TIP3    H2 3052   3.901   1.322   3.465
 1030TIP3   OH2 3053   2.554   4.757   2.697
 1030TIP3    H1 3054   2.509   4.839   2.718
 1030TIP3    H2 3055   2.565   4.760   2.602
 1031TIP3   OH2 3056   6.147   5.341   2.346
 1031TIP3    H1 3057   6.057   5.360   2.318
 1031TIP3    H2 3058   6.147   5.361   2.440
 1032TIP3   OH2 3059   6.566   3.549   2.964
 1032TIP3    H1 3060   6.525   3.635   2.953
 1032TIP3    H2 3061   6.633   3.545   2.897
 1033TIP3   OH2 3062  -0.040   5.997   5.664
 1033TIP3    H1 3063   0.024   6.063   5.692
 1033TIP3    H2 3064  -0.085   6.037   5.590
 1034TIP3   OH2 3065   7.072   1.663   1.875
 1034TIP3    H1 3066   7.086   1.579   1.833
 1034TIP3    H2 3067   7.097   1.728   1.809
 1035TIP3   OH2 3068   5.011   4.222   5.442
 1035TIP3    H1 3069   5.097   4.250   5.475
 1035TIP3    H2 3070   5.002   4.266   5.358
 1036TIP3   OH2 3071   5.515   1.227   5.420
 1036TIP3    H1 3072   5.564   1.145   5.419
 1036TIP3    H2 3073   5.582   1.294   5.438
 1037TIP3   OH2 3074   1.380   1.397   4.982
 1037TIP3    H1 3075   1.318   1.414   4.911
 1037TIP3    H2 3076   1.464   1.428   4.948
 1038TIP3   OH2 3077   1.695   1.575   4.571
 1038TIP3    H1 3078   1.676   1.491   4.614
 1038TIP3    H2 3079   1.776   1.605   4.612
 1039TIP3   OH2 3080   3.405   4.900   5.516
 1039TIP3    H1 3081   3.317   4.888   5.479
 1039TIP3    H2 3082   3.390   4.915   5.609
 1040TIP3   OH2 3083   4.021   4.729   3.729
 1040TIP3    H1 3084   4.105   4.688   3.709
 1040TIP3    H2 3085   4.000   4.699   3.818
 1041TIP3   OH2 3086   5.990   3.583   2.071
 1041TIP3    H1 3087   6.029   3.642   2.007
 1041TIP3    H2 3088   6.024   3.612   2.155
 1042TIP3   OH2 3089   2.486   3.595   4.571
 1042TIP3    H1 3090   2.569   3.548   4.557
 1042TIP3    H2 3091   2.508   3.687   4.554
 1043TIP3   OH2 3092   7.148   3.083   4.901
 1043TIP3    H1 3093   7.128   3.110   4.811
 1043TIP3    H2 3094   7.201   3.155   4.936
 1044TIP3   OH2 3095   6.517   0.840   2.400
 1044TIP3    H1 3096   6.553   0.796   2.477
 1044TIP3    H2 3097   6.554   0.792   2.326
 1045TIP3   OH2 3098   6.397   5.967   5.811
 1045TIP3    H1 3099   6.341   5.970   5.889
 1045TIP3    H2 3100   6.469   5.909   5.836
 1046TIP3   OH2 3101   2.591   3.650   3.235
 1046TIP3    H1 3102   2.658   3.708   3.198
 1046TIP3    H2 3103   2.617   3.562   3.206
 1047TIP3   OH2 3104   4.622   1.532   3.570
 1047TIP3    H1 3105   4.538   1.544   3.615
 1047TIP3    H2 3106   4.600   1.531   3.477
 1048TIP3   OH2 3107   4.705   5.464   2.520
 1048TIP3    H1 3108   4.780   5.448   2.463
 1048TIP3    H2 3109   4.671   5.376   2.540
 1049TIP3   OH2 3110   6.999   6.295   0.976
 1049TIP3    H1 3111   7.004   6.307   1.071
 1049TIP3    H2 3112   6.957   6.374   0.944
 1050TIP3   OH2 3113   1.421   5.027   4.698
 1050TIP3    H1 3114   1.331   5.003   4.720
 1050TIP3    H2 3115   1.474   4.954   4.729
 1051TIP3   OH2 3116   3.701   0.773   0.942
 1051TIP3    H1 3117   3.772   0.720   0.906
 1051TIP3    H2 3118   3.729   0.863   0.927
 1052TIP3   OH2 3119   3.917   3.986   3.367
 1052TIP3    H1 3120   3.906   3.892   3.357
 1052TIP3    H2 3121   3.933   4.018   3.278
 1053TIP3   OH2 3122   2.650   2.480   5.161
 1053TIP3    H1 3123   2.745   2.464   5.161
 1053TIP3    H2 3124   2.622   2.460   5.250
 1054TIP3   OH2 3125   3.839   0.715   1.182
 1054TIP3    H1 3126   3.868   0.632   1.145
 1054TIP3    H2 3127   3.786   0.755   1.114
 1055TIP3   OH2 3128   6.753   1.317   2.218
 1055TIP3    H1 3129   6.792   1.339   2.302
 1055TIP3    H2 3130   6.665   1.355   2.221
 1056TIP3   OH2 3131   1.941   6.637   4.918
 1056TIP3    H1 3132   1.945   6.675   4.830
 1056TIP3    H2 3133   2.004   6.565   4.915
 1057TIP3   OH2 3134   4.536   4.495   5.008
 1057TIP3    H1 3135   4.619   4.471   5.049
 1057TIP3    H2 3136   4.534   4.591   5.012
 1058TIP3   OH2 3137   4.852   2.306   2.849
 1058TIP3    H1 3138   4.939   2.347   2.848
 1058TIP3    H2 3139   4.804   2.353   2.917
 1059TIP3   OH2 3140   4.591   4.541   1.575
 1059TIP3    H1 3141   4.628   4.491   1.647
 1059TIP3    H2 3142   4.655   4.609   1.557
 1060TIP3   OH2 3143   5.173   5.796   3.633
 1060TIP3    H1 3144   5.207   5.885   3.619
 1060TIP3    H2 3145   5.081   5.809   3.655
 1061TIP3   OH2 3146   4.309   1.374   4.829
 1061TIP3    H1 3147   4.349   1.293   4.795
 1061TIP3    H2 3148   4.228   1.384   4.778
 1062TIP3   OH2 3149   1.870   0.555   1.327
 1062TIP3    H1 3150   1.876   0.476   1.380
 1062TIP3    H2 3151   1.818   0.530   1.251
 1063TIP3   OH2 3152   2.393   0.721   2.749
 1063TIP3    H1 3153   2.470   0.776   2.732
 1063TIP3    H2 3154   2.343   0.724   2.667
 1064TIP3   OH2 3155   3.194   4.861   5.346
 1064TIP3    H1 3156   3.149   4.907   5.275
 1064TIP3    H2 3157   3.229   4.782   5.304
 1065TIP3   OH2 3158   2.604   4.392   1.669
 1065TIP3    H1 3159   2.688   4.347   1.670
 1065TIP3    H2 3160   2.625   4.484   1.688
 1066TIP3   OH2 3161   1.033   2.472   1.848
 1066TIP3    H1 3162   1.060   2.536   1.782
 1066TIP3    H2 3163   1.115   2.441   1.886
 1067TIP3   OH2 3164   6.666   4.021   3.344
 1067TIP3    H1 3165   6.618   4.103   3.335
 1067TIP3    H2 3166   6.706   4.026   3.431
 1068TIP3   OH2 3167   0.623   3.039   5.905
 1068TIP3    H1 3168   0.533   3.009   5.918
 1068TIP3    H2 3169   0.614   3.119   5.854
 1069TIP3   OH2 3170   1.265   6.469   2.757
 1069TIP3    H1 3171   1.177   6.461   2.795
 1069TIP3    H2 3172   1.263   6.553   2.710
 1070TIP3   OH2 3173   4.270   5.605   4.890
 1070TIP3    H1 3174   4.345   5.655   4.857
 1070TIP3    H2 3175   4.201   5.621   4.826
 1071TIP3   OH2 3176   3.696   0.249   3.058
 1071TIP3    H1 3177   3.666   0.189   3.126
 1071TIP3    H2 3178   3.633   0.321   3.061
 1072TIP3   OH2 3179   5.589   5.005   4.779
 1072TIP3    H1 3180   5.648   5.042   4.713
 1072TIP3    H2 3181   5.536   4.941   4.730
 1073TIP3   OH2 3182   4.676   6.418   3.429
 1073TIP3    H1 3183   4.736   6.389   3.499
 1073TIP3    H2 3184   4.728   6.479   3.377
 1074TIP3   OH2 3185   3.242   0.628   4.307
 1074TIP3    H1 3186   3.269   0.642   4.217
 1074TIP3    H2 3187   3.146   0.626   4.304
 1075TIP3   OH2 3188   4.140   2.905   1.587
 1075TIP3    H1 3189   4.184   2.967   1.529
 1075TIP3    H2 3190   4.211   2.856   1.629
 1076TIP3   OH2 3191   2.557   6.284   0.914
 1076TIP3    H1 3192   2.582   6.340   0.987
 1076TIP3    H2 3193   2.531   6.201   0.954
 1077TIP3   OH2 3194   2.766   0.705   2.014
 1077TIP3    H1 3195   2.767   0.610   2.004
 1077TIP3    H2 3196   2.846   0.724   2.065
 1078TIP3   OH2 3197   2.717   6.743   0.303
 1078TIP3    H1 3198   2.750   6.799   0.372
 1078TIP3    H2 3199   2.673   6.671   0.349
 1079TIP3   OH2 3200   4.696   0.986   3.113
 1079TIP3    H1 3201   4.664   1.046   3.046
 1079TIP3    H2 3202   4.789   0.976   3.093
 1080TIP3   OH2 3203   1.317   2.461   1.089
 1080TIP3    H1 3204   1.404   2.455   1.129
 1080TIP3    H2 3205   1.331   2.514   1.011
 1081TIP3   OH2 3206   1.729   4.612   4.072
 1081TIP3    H1 3207   1.812   4.635   4.114
 1081TIP3    H2 3208   1.667   4.677   4.105
 1082TIP3   OH2 3209   4.978   6.115   5.551
 1082TIP3    H1 3210   5.040   6.064   5.499
 1082TIP3    H2 3211   4.932   6.169   5.487
 1083TIP3   OH2 3212   4.848   4.972   1.161
 1083TIP3    H1 3213   4.871   4.893   1.112
 1083TIP3    H2 3214   4.818   5.034   1.094
 1084TIP3   OH2 3215   5.672   2.526   0.172
 1084TIP3    H1 3216   5.711   2.476   0.100
 1084TIP3    H2 3217   5.641   2.459   0.233
 1085TIP3   OH2 3218   3.718   0.728   5.285
 1085TIP3    H1 3219   3.767   0.811   5.282
 1085TIP3    H2 3220   3.707   0.704   5.193
 1086TIP3   OH2 3221   7.063   6.091   2.239
 1086TIP3    H1 3222   7.052   6.186   2.244
 1086TIP3    H2 3223   6.978   6.058   2.208
 1087TIP3   OH2 3224   5.319   6.183   0.689
 1087TIP3    H1 3225   5.384   6.211   0.625
 1087TIP3    H2 3226   5.281   6.103   0.652
 1088TIP3   OH2 3227   5.976   5.420   5.760
 1088TIP3    H1 3228   6.055   5.470   5.782
 1088TIP3    H2 3229   5.976   5.348   5.823
 1089TIP3   OH2 3230   4.878   6.026   5.168
 1089TIP3    H1 3231   4.951   6.014   5.107
 1089TIP3    H2 3232   4.905   6.097   5.226
 1090TIP3   OH2 3233   3.030   5.802   1.977
 1090TIP3    H1 3234   3.036   5.710   2.005
 1090TIP3    H2 3235   2.968   5.841   2.039
 1091TIP3   OH2 3236   6.547   5.763   4.141
 1091TIP3    H1 3237   6.515   5.710   4.213
 1091TIP3    H2 3238   6.631   5.798   4.172
 1092TIP3   OH2 3239   2.108   5.263   3.547
 1092TIP3    H1 3240   2.095   5.308   3.464
 1092TIP3    H2 3241   2.203   5.257   3.556
 1093TIP3   OH2 3242   0.859   6.710   5.480
 1093TIP3    H1 3243   0.791   6.717   5.547
 1093TIP3    H2 3244   0.815   6.734   5.398
 1094TIP3   OH2 3245   3.320   1.627   0.590
 1094TIP3    H1 3246   3.230   1.606   0.615
 1094TIP3    H2 3247   3.374   1.560   0.632
 1095TIP3   OH2 3248   6.468   5.388   1.064
 1095TIP3    H1 3249   6.516   5.413   0.985
 1095TIP3    H2 3250   6.491   5.296   1.078
 1096TIP3   OH2 3251   1.929   3.954   4.227
 1096TIP3    H1 3252   1.845   3.981   4.262
 1096TIP3    H2 3253   1.993   3.983   4.292
 1097TIP3   OH2 3254   3.350   4.017   0.982
 1097TIP3    H1 3255   3.376   3.950   1.045
 1097TIP3    H2 3256   3.425   4.075   0.976
 1098TIP3   OH2 3257   5.099   3.495   4.248
 1098TIP3    H1 3258   5.105   3.586   4.277
 1098TIP3    H2 3259   5.016   3.490   4.201
 1099TIP3   OH2 3260   2.711   3.033   5.712
 1099TIP3    H1 3261   2.778   3.042   5.779
 1099TIP3    H2 3262   2.727   2.946   5.674
 1100TIP3   OH2 3263   5.612   5.857   2.478
 1100TIP3    H1 3264   5.670   5.785   2.500
 1100TIP3    H2 3265   5.534   5.815   2.442
 1101TIP3   OH2 3266   0.846   3.368   4.370
 1101TIP3    H1 3267   0.830   3.333   4.458
 1101TIP3    H2 3268   0.930   3.331   4.344
 1102TIP3   OH2 3269   1.552   2.990   2.489
 1102TIP3    H1 3270   1.647   2.980   2.482
 1102TIP3    H2 3271   1.540   3.066   2.546
 1103TIP3   OH2 3272   0.717   0.278   5.308
 1103TIP3    H1 3273   0.697   0.216   5.378
 1103TIP3    H2 3274   0.660   0.353   5.326
 1104TIP3   OH2 3275   4.934   2.021   0.458
 1104TIP3    H1 3276   4.872   2.091   0.439
 1104TIP3    H2 3277   4.976   2.047   0.541
 1105TIP3   OH2 3278   4.648   0.448   4.907
 1105TIP3    H1 3279   4.615   0.415   4.824
 1105TIP3    H2 3280   4.742   0.459   4.893
 1106TIP3   OH2 3281   5.429   3.221   3.533
 1106TIP3    H1 3282   5.434   3.255   3.444
 1106TIP3    H2 3283   5.492   3.148   3.534
 1107TIP3   OH2 3284   1.742   2.816   4.262
 1107TIP3    H1 3285   1.780   2.838   4.348
 1107TIP3    H2 3286   1.780   2.880   4.202
 1108TIP3   OH2 3287   3.411   6.441   0.616
 1108TIP3    H1 3288   3.463   6.388   0.555
 1108TIP3    H2 3289   3.476   6.478   0.677
 1109TIP3   OH2 3290   0.464   5.011   3.889
 1109TIP3    H1 3291   0.530   5.020   3.821
 1109TIP3    H2 3292   0.507   5.040   3.969
 1110TIP3   OH2 3293   6.878   3.660   3.226
 1110TIP3    H1 3294   6.937   3.666   3.301
 1110TIP3    H2 3295   6.914   3.721   3.162
 1111TIP3   OH2 3296   3.878   4.056   0.497
 1111TIP3    H1 3297   3.859   4.122   0.431
 1111TIP3    H2 3298   3.973   4.062   0.509
 1112TIP3   OH2 3299   6.159   5.258   1.285
 1112TIP3    H1 3300   6.092   5.237   1.350
 1112TIP3    H2 3301   6.227   5.193   1.299
 1113TIP3   OH2 3302   3.399   3.589   1.756
 1113TIP3    H1 3303   3.429   3.578   1.666
 1113TIP3    H2 3304   3.362   3.678   1.757
 1114TIP3   OH2 3305   5.217   4.011   2.093
 1114TIP3    H1 3306   5.273   4.015   2.016
 1114TIP3    H2 3307   5.225   4.098   2.133
 1115TIP3   OH2 3308   6.029   3.919   4.461
 1115TIP3    H1 3309   6.057   4.011   4.453
 1115TIP3    H2 3310   5.935   3.924   4.477
 1116TIP3   OH2 3311   2.064   3.434   2.530
 1116TIP3    H1 3312   2.069   3.509   2.470
 1116TIP3    H2 3313   2.060   3.473   2.617
 1117TIP3   OH2 3314   2.263   2.276   2.415
 1117TIP3    H1 3315   2.334   2.314   2.467
 1117TIP3    H2 3316   2.303   2.257   2.330
 1118TIP3   OH2 3317   1.024   4.012   3.306
 1118TIP3    H1 3318   1.036   4.042   3.216
 1118TIP3    H2 3319   1.060   3.924   3.307
 1119TIP3   OH2 3320   0.023   1.690   5.282
 1119TIP3    H1 3321   0.020   1.597   5.307
 1119TIP3    H2 3322   0.086   1.729   5.342
 1120TIP3   OH2 3323   1.483   3.953   5.858
 1120TIP3    H1 3324   1.466   3.900   5.780
 1120TIP3    H2 3325   1.533   4.029   5.825
 1121TIP3   OH2 3326   3.965   1.114   2.693
 1121TIP3    H1 3327   4.029   1.171   2.651
 1121TIP3    H2 3328   3.969   1.138   2.786
 1122TIP3   OH2 3329   1.862   1.170   2.607
 1122TIP3    H1 3330   1.932   1.193   2.546
 1122TIP3    H2 3331   1.899   1.099   2.659
 1123TIP3   OH2 3332   5.403   0.287   1.618
 1123TIP3    H1 3333   5.416   0.283   1.523
 1123TIP3    H2 3334   5.444   0.208   1.652
 1124TIP3   OH2 3335   1.492   0.486   2.432
 1124TIP3    H1 3336   1.399   0.476   2.450
 1124TIP3    H2 3337   1.499   0.573   2.391
 1125TIP3   OH2 3338   0.826   0.430   3.844
 1125TIP3    H1 3339   0.885   0.359   3.816
 1125TIP3    H2 3340   0.883   0.490   3.892
 1126TIP3   OH2 3341   2.996   5.104   1.544
 1126TIP3    H1 3342   2.950   5.185   1.524
 1126TIP3    H2 3343   2.969   5.083   1.634
 1127TIP3   OH2 3344   6.032   2.167   0.100
 1127TIP3    H1 3345   6.012   2.148   0.008
 1127TIP3    H2 3346   6.103   2.108   0.122
 1128TIP3   OH2 3347   2.585   2.405   5.426
 1128TIP3    H1 3348   2.552   2.320   5.397
 1128TIP3    H2 3349   2.520   2.436   5.489
 1129TIP3   OH2 3350   2.618   1.720   3.092
 1129TIP3    H1 3351   2.661   1.643   3.130
 1129TIP3    H2 3352   2.525   1.697   3.092
 1130TIP3   OH2 3353   1.522   1.135   3.857
 1130TIP3    H1 3354   1.463   1.079   3.807
 1130TIP3    H2 3355   1.609   1.104   3.835
 1131TIP3   OH2 3356   4.982   4.012   0.772
 1131TIP3    H1 3357   4.938   4.002   0.857
 1131TIP3    H2 3358   5.008   3.923   0.748
 1132TIP3   OH2 3359   1.951   4.720   3.790
 1132TIP3    H1 3360   1.958   4.626   3.809
 1132TIP3    H2 3361   1.914   4.758   3.870
 1133TIP3   OH2 3362   0.649   5.176   1.588
 1133TIP3    H1 3363   0.718   5.121   1.550
 1133TIP3    H2 3364   0.592   5.197   1.514
 1134TIP3   OH2 3365   0.112   4.045   4.040
 1134TIP3    H1 3366   0.123   4.127   4.089
 1134TIP3    H2 3367   0.079   4.073   3.954
 1135TIP3   OH2 3368   3.884   4.790   3.225
 1135TIP3    H1 3369   3.796   4.827   3.212
 1135TIP3    H2 3370   3.887   4.767   3.317
 1136TIP3   OH2 3371   1.789   1.873   5.168
 1136TIP3    H1 3372   1.739   1.955   5.162
 1136TIP3    H2 3373   1.874   1.901   5.203
 1137TIP3   OH2 3374   2.648   6.683   1.401
 1137TIP3    H1 3375   2.711   6.677   1.329
 1137TIP3    H2 3376   2.667   6.768   1.442
 1138TIP3   OH2 3377   2.805   5.983   4.544
 1138TIP3    H1 3378   2.842   5.900   4.573
 1138TIP3    H2 3379   2.851   6.002   4.462
 1139TIP3   OH2 3380   0.081   1.858   5.072
 1139TIP3    H1 3381   0.015   1.838   5.005
 1139TIP3    H2 3382   0.067   1.792   5.140
 1140TIP3   OH2 3383   6.039   0.480   0.906
 1140TIP3    H1 3384   6.028   0.393   0.944
 1140TIP3    H2 3385   6.119   0.474   0.853
 1141TIP3   OH2 3386   2.012   3.880   3.980
 1141TIP3    H1 3387   1.989   3.916   4.065
 1141TIP3    H2 3388   2.064   3.948   3.938
 1142TIP3   OH2 3389   5.485   5.014   5.333
 1142TIP3    H1 3390   5.437   5.097   5.339
 1142TIP3    H2 3391   5.499   5.002   5.239
 1143TIP3   OH2 3392   1.775   0.143   5.178
 1143TIP3    H1 3393   1.850   0.132   5.119
 1143TIP3    H2 3394   1.740   0.229   5.156
 1144TIP3   OH2 3395   5.028   3.185   0.611
 1144TIP3    H1 3396   5.046   3.136   0.531
 1144TIP3    H2 3397   5.025   3.276   0.583
 1145TIP3   OH2 3398   3.227   1.969   0.045
 1145TIP3    H1 3399   3.286   1.969   0.120
 1145TIP3    H2 3400   3.168   2.044   0.060
 1146TIP3   OH2 3401   3.218   6.614   1.812
 1146TIP3    H1 3402   3.234   6.654   1.897
 1146TIP3    H2 3403   3.172   6.533   1.833
 1147TIP3   OH2 3404   1.519   5.663   4.501
 1147TIP3    H1 3405   1.478   5.578   4.491
 1147TIP3    H2 3406   1.504   5.687   4.592
 1148TIP3   OH2 3407   4.407   4.735   1.621
 1148TIP3    H1 3408   4.461   4.812   1.642
 1148TIP3    H2 3409   4.471   4.668   1.598
 1149TIP3   OH2 3410   1.845   4.242   3.614
 1149TIP3    H1 3411   1.929   4.283   3.595
 1149TIP3    H2 3412   1.848   4.158   3.570
 1150TIP3   OH2 3413   4.187   5.683   3.570
 1150TIP3    H1 3414   4.183   5.681   3.665
 1150TIP3    H2 3415   4.104   5.644   3.541
 1151TIP3   OH2 3416   2.026   2.222   0.008
 1151TIP3    H1 3417   1.988   2.162  -0.056
 1151TIP3    H2 3418   2.117   2.195   0.015
 1152TIP3   OH2 3419   3.846   4.610   2.908
 1152TIP3    H1 3420   3.779   4.613   2.976
 1152TIP3    H2 3421   3.863   4.702   2.887
 1153TIP3   OH2 3422   0.445   2.926   1.763
 1153TIP3    H1 3423   0.464   2.853   1.824
 1153TIP3    H2 3424   0.355   2.910   1.734
 1154TIP3   OH2 3425   6.001   0.399   1.743
 1154TIP3    H1 3426   6.051   0.469   1.699
 1154TIP3    H2 3427   6.053   0.320   1.729
 1155TIP3   OH2 3428   3.595   4.934   0.738
 1155TIP3    H1 3429   3.605   5.020   0.779
 1155TIP3    H2 3430   3.518   4.897   0.781
 1156TIP3   OH2 3431   7.004   3.449   1.294
 1156TIP3    H1 3432   7.002   3.387   1.367
 1156TIP3    H2 3433   7.081   3.503   1.312
 1157TIP3   OH2 3434   1.372   1.561   1.363
 1157TIP3    H1 3435   1.373   1.640   1.416
 1157TIP3    H2 3436   1.348   1.491   1.424
 1158TIP3   OH2 3437   0.294   0.086   3.883
 1158TIP3    H1 3438   0.203   0.094   3.909
 1158TIP3    H2 3439   0.341   0.147   3.940
 1159TIP3   OH2 3440   2.795   5.124   1.782
 1159TIP3    H1 3441   2.739   5.047   1.791
 1159TIP3    H2 3442   2.748   5.193   1.828
 1160TIP3   OH2 3443   1.514   6.515   3.584
 1160TIP3    H1 3444   1.499   6.540   3.675
 1160TIP3    H2 3445   1.529   6.597   3.538
 1161TIP3   OH2 3446   4.877   2.131   3.355
 1161TIP3    H1 3447   4.936   2.140   3.280
 1161TIP3    H2 3448   4.902   2.047   3.394
 1162TIP3   OH2 3449   7.055   2.521   4.122
 1162TIP3    H1 3450   7.070   2.484   4.036
 1162TIP3    H2 3451   7.142   2.546   4.154
 1163TIP3   OH2 3452   3.117   5.952   3.824
 1163TIP3    H1 3453   3.152   6.006   3.895
 1163TIP3    H2 3454   3.178   5.879   3.816
 1164TIP3   OH2 3455   3.916   4.914   4.624
 1164TIP3    H1 3456   3.965   4.896   4.705
 1164TIP3    H2 3457   3.975   4.970   4.573
 1165TIP3   OH2 3458   2.967   3.179   0.533
 1165TIP3    H1 3459   2.972   3.262   0.580
 1165TIP3    H2 3460   2.926   3.118   0.595
 1166TIP3   OH2 3461   2.687   0.248   0.115
 1166TIP3    H1 3462   2.639   0.318   0.071
 1166TIP3    H2 3463   2.771   0.288   0.138
 1167TIP3   OH2 3464   4.803   4.867   5.864
 1167TIP3    H1 3465   4.853   4.895   5.787
 1167TIP3    H2 3466   4.721   4.915   5.859
 1168TIP3   OH2 3467   7.007   3.096   5.823
 1168TIP3    H1 3468   6.913   3.101   5.845
 1168TIP3    H2 3469   7.024   3.178   5.775
 1169TIP3   OH2 3470   3.272   1.502   4.284
 1169TIP3    H1 3471   3.345   1.548   4.244
 1169TIP3    H2 3472   3.212   1.484   4.212
 1170TIP3   OH2 3473   6.457   5.914   1.490
 1170TIP3    H1 3474   6.447   5.819   1.488
 1170TIP3    H2 3475   6.420   5.943   1.406
 1171TIP3   OH2 3476   5.035   6.563   1.276
 1171TIP3    H1 3477   4.967   6.498   1.296
 1171TIP3    H2 3478   5.082   6.574   1.359
 1172TIP3   OH2 3479   4.782   0.546   2.703
 1172TIP3    H1 3480   4.710   0.606   2.683
 1172TIP3    H2 3481   4.839   0.595   2.762
 1173TIP3   OH2 3482   1.299   4.300   2.356
 1173TIP3    H1 3483   1.282   4.229   2.294
 1173TIP3    H2 3484   1.214   4.318   2.397
 1174TIP3   OH2 3485   5.778   0.383   5.325
 1174TIP3    H1 3486   5.688   0.412   5.338
 1174TIP3    H2 3487   5.818   0.451   5.271
 1175TIP3   OH2 3488   6.787   6.748   4.212
 1175TIP3    H1 3489   6.747   6.680   4.267
 1175TIP3    H2 3490   6.715   6.808   4.192
 1176TIP3   OH2 3491   5.029   3.277   4.536
 1176TIP3    H1 3492   5.107   3.291   4.482
 1176TIP3    H2 3493   4.998   3.190   4.510
 1177TIP3   OH2 3494   6.995   2.365   4.844
 1177TIP3    H1 3495   7.072   2.420   4.850
 1177TIP3    H2 3496   6.973   2.345   4.935
 1178TIP3   OH2 3497   5.242   2.081   2.746
 1178TIP3    H1 3498   5.176   2.145   2.719
 1178TIP3    H2 3499   5.319   2.133   2.767
 1179TIP3   OH2 3500   2.330   4.443   2.733
 1179TIP3    H1 3501   2.293   4.398   2.657
 1179TIP3    H2 3502   2.277   4.522   2.742
 1180TIP3   OH2 3503   6.388   5.595   0.658
 1180TIP3    H1 3504   6.360   5.686   0.666
 1180TIP3    H2 3505   6.421   5.589   0.568
 1181TIP3   OH2 3506   5.144   1.859   0.553
 1181TIP3    H1 3507   5.071   1.880   0.495
 1181TIP3    H2 3508   5.118   1.779   0.597
 1182TIP3   OH2 3509   0.785   4.637   1.354
 1182TIP3    H1 3510   0.819   4.593   1.432
 1182TIP3    H2 3511   0.693   4.613   1.351
 1183TIP3   OH2 3512   2.793   3.512   0.823
 1183TIP3    H1 3513   2.803   3.576   0.753
 1183TIP3    H2 3514   2.706   3.474   0.809
 1184TIP3   OH2 3515   2.058   1.027   1.508
 1184TIP3    H1 3516   2.129   1.083   1.537
 1184TIP3    H2 3517   2.067   1.023   1.413
 1185TIP3   OH2 3518   6.841   2.753   1.478
 1185TIP3    H1 3519   6.922   2.768   1.431
 1185TIP3    H2 3520   6.826   2.658   1.472
 1186TIP3   OH2 3521   6.670   5.803   0.758
 1186TIP3    H1 3522   6.609   5.852   0.813
 1186TIP3    H2 3523   6.662   5.843   0.671
 1187TIP3   OH2 3524   5.466   5.156   1.076
 1187TIP3    H1 3525   5.506   5.236   1.107
 1187TIP3    H2 3526   5.406   5.184   1.007
 1188TIP3   OH2 3527   5.811   3.380   2.916
 1188TIP3    H1 3528   5.839   3.290   2.933
 1188TIP3    H2 3529   5.785   3.380   2.824
 1189TIP3   OH2 3530   5.750   0.350   0.609
 1189TIP3    H1 3531   5.837   0.366   0.572
 1189TIP3    H2 3532   5.698   0.321   0.534
 1190TIP3   OH2 3533   1.754   0.125   2.325
 1190TIP3    H1 3534   1.667   0.085   2.325
 1190TIP3    H2 3535   1.753   0.183   2.402
 1191TIP3   OH2 3536   4.557   1.036   4.378
 1191TIP3    H1 3537   4.653   1.044   4.377
 1191TIP3    H2 3538   4.540   0.961   4.435
 1192TIP3   OH2 3539   6.300   5.064   1.808
 1192TIP3    H1 3540   6.232   5.043   1.872
 1192TIP3    H2 3541   6.374   5.010   1.833
 1193TIP3   OH2 3542   6.316   3.993   2.586
 1193TIP3    H1 3543   6.337   3.899   2.580
 1193TIP3    H2 3544   6.397   4.037   2.562
 1194TIP3   OH2 3545   3.410   3.129   2.102
 1194TIP3    H1 3546   3.485   3.166   2.056
 1194TIP3    H2 3547   3.443   3.112   2.191
 1195TIP3   OH2 3548   0.350   0.072   3.289
 1195TIP3    H1 3549   0.286   0.053   3.220
 1195TIP3    H2 3550   0.299   0.118   3.357
 1196TIP3   OH2 3551   6.475   4.234   3.299
 1196TIP3    H1 3552   6.384   4.237   3.268
 1196TIP3    H2 3553   6.515   4.313   3.262
 1197TIP3   OH2 3554   1.757   0.132   4.249
 1197TIP3    H1 3555   1.722   0.154   4.163
 1197TIP3    H2 3556   1.681   0.111   4.302
 1198TIP3   OH2 3557   4.599   6.054   2.631
 1198TIP3    H1 3558   4.638   6.096   2.554
 1198TIP3    H2 3559   4.564   5.971   2.598
 1199TIP3   OH2 3560   5.434   5.485   2.030
 1199TIP3    H1 3561   5.430   5.580   2.024
 1199TIP3    H2 3562   5.515   5.461   1.984
 1200TIP3   OH2 3563   1.422   1.401   2.768
 1200TIP3    H1 3564   1.363   1.465   2.728
 1200TIP3    H2 3565   1.395   1.317   2.729
 1201TIP3   OH2 3566   3.852   4.895   3.942
 1201TIP3    H1 3567   3.815   4.922   3.859
 1201TIP3    H2 3568   3.856   4.799   3.937
 1202TIP3   OH2 3569   7.122   1.612   0.711
 1202TIP3    H1 3570   7.192   1.552   0.735
 1202TIP3    H2 3571   7.163   1.676   0.654
 1203TIP3   OH2 3572   1.631   6.668   4.778
 1203TIP3    H1 3573   1.590   6.599   4.828
 1203TIP3    H2 3574   1.691   6.710   4.839
 1204TIP3   OH2 3575   5.608   4.420   3.400
 1204TIP3    H1 3576   5.632   4.343   3.348
 1204TIP3    H2 3577   5.648   4.493   3.354
 1205TIP3   OH2 3578   4.641   0.213   0.483
 1205TIP3    H1 3579   4.657   0.185   0.392
 1205TIP3    H2 3580   4.714   0.271   0.503
 1206TIP3   OH2 3581   3.802   1.922   4.190
 1206TIP3    H1 3582   3.732   1.904   4.254
 1206TIP3    H2 3583   3.794   1.852   4.125
 1207TIP3   OH2 3584   4.026   3.161   4.525
 1207TIP3    H1 3585   4.099   3.220   4.507
 1207TIP3    H2 3586   3.984   3.148   4.440
 1208TIP3   OH2 3587   5.623   2.061   1.735
 1208TIP3    H1 3588   5.563   2.097   1.800
 1208TIP3    H2 3589   5.622   1.966   1.752
 1209TIP3   OH2 3590   4.822   4.890   2.378
 1209TIP3    H1 3591   4.873   4.969   2.394
 1209TIP3    H2 3592   4.801   4.857   2.465
 1210TIP3   OH2 3593   2.066   6.780   2.722
 1210TIP3    H1 3594   2.000   6.718   2.750
 1210TIP3    H2 3595   2.147   6.729   2.718
 1211TIP3   OH2 3596   2.164   2.008   2.499
 1211TIP3    H1 3597   2.189   2.100   2.499
 1211TIP3    H2 3598   2.234   1.964   2.452
 1212TIP3   OH2 3599   0.874   5.906   0.573
 1212TIP3    H1 3600   0.829   5.824   0.591
 1212TIP3    H2 3601   0.858   5.960   0.651
 1213TIP3   OH2 3602   7.151   6.537   5.669
 1213TIP3    H1 3603   7.095   6.607   5.636
 1213TIP3    H2 3604   7.146   6.469   5.602
 1214TIP3   OH2 3605   1.878   6.412   1.517
 1214TIP3    H1 3606   1.916   6.491   1.555
 1214TIP3    H2 3607   1.944   6.344   1.531
 1215TIP3   OH2 3608   5.425   4.440   1.046
 1215TIP3    H1 3609   5.440   4.424   1.139
 1215TIP3    H2 3610   5.335   4.473   1.042
 1216TIP3   OH2 3611   2.370   1.407   2.265
 1216TIP3    H1 3612   2.411   1.416   2.351
 1216TIP3    H2 3613   2.426   1.345   2.218
 1217TIP3   OH2 3614   5.819   0.651   0.656
 1217TIP3    H1 3615   5.759   0.725   0.641
 1217TIP3    H2 3616   5.835   0.615   0.569
 1218TIP3   OH2 3617   4.098   6.775   2.490
 1218TIP3    H1 3618   4.115   6.814   2.575
 1218TIP3    H2 3619   4.172   6.715   2.476
 1219TIP3   OH2 3620   4.415   1.227   4.509
 1219TIP3    H1 3621   4.327   1.226   4.472
 1219TIP3    H2 3622   4.462   1.158   4.462
 1220TIP3   OH2 3623   5.138   1.611   1.819
 1220TIP3    H1 3624   5.178   1.580   1.737
 1220TIP3    H2 3625   5.195   1.683   1.846
 1221TIP3   OH2 3626   4.160   1.431   5.065
 1221TIP3    H1 3627   4.084   1.474   5.026
 1221TIP3    H2 3628   4.194   1.375   4.995
 1222TIP3   OH2 3629   4.942   4.069   3.775
 1222TIP3    H1 3630   4.892   4.136   3.728
 1222TIP3    H2 3631   5.031   4.077   3.740
 1223TIP3   OH2 3632   1.259   0.367   5.524
 1223TIP3    H1 3633   1.215   0.394   5.605
 1223TIP3    H2 3634   1.339   0.325   5.554
 1224TIP3   OH2 3635   5.820   2.138   3.005
 1224TIP3    H1 3636   5.815   2.222   3.051
 1224TIP3    H2 3637   5.737   2.095   3.024
 1225TIP3   OH2 3638   1.420   0.051   3.385
 1225TIP3    H1 3639   1.340   0.088   3.424
 1225TIP3    H2 3640   1.388  -0.006   3.315
 1226TIP3   OH2 3641   5.237   4.824   5.114
 1226TIP3    H1 3642   5.151   4.823   5.157
 1226TIP3    H2 3643   5.242   4.909   5.071
 1227TIP3   OH2 3644   6.645   4.568   0.054
 1227TIP3    H1 3645   6.737   4.548   0.069
 1227TIP3    H2 3646   6.647   4.648   0.000
 1228TIP3   OH2 3647   6.452   6.639   4.816
 1228TIP3    H1 3648   6.364   6.600   4.811
 1228TIP3    H2 3649   6.436   6.732   4.830
 1229TIP3   OH2 3650   4.675   6.563   1.498
 1229TIP3    H1 3651   4.677   6.609   1.414
 1229TIP3    H2 3652   4.597   6.508   1.494
 1230TIP3   OH2 3653   5.001   1.817   4.891
 1230TIP3    H1 3654   4.943   1.775   4.827
 1230TIP3    H2 3655   4.946   1.882   4.935
 1231TIP3   OH2 3656   3.873   3.238   2.859
 1231TIP3    H1 3657   3.801   3.284   2.816
 1231TIP3    H2 3658   3.848   3.146   2.854
 1232TIP3   OH2 3659   2.155   3.407   0.742
 1232TIP3    H1 3660   2.200   3.469   0.799
 1232TIP3    H2 3661   2.219   3.385   0.674
 1233TIP3   OH2 3662   5.718   4.115   2.682
 1233TIP3    H1 3663   5.716   4.051   2.611
 1233TIP3    H2 3664   5.740   4.064   2.760
 1234TIP3   OH2 3665   6.275   1.192   4.307
 1234TIP3    H1 3666   6.275   1.133   4.382
 1234TIP3    H2 3667   6.280   1.280   4.345
 1235TIP3   OH2 3668   1.125   0.273   1.913
 1235TIP3    H1 3669   1.176   0.256   1.833
 1235TIP3    H2 3670   1.064   0.200   1.918
 1236TIP3   OH2 3671   0.410   1.749   2.233
 1236TIP3    H1 3672   0.361   1.671   2.208
 1236TIP3    H2 3673   0.384   1.767   2.323
 1237TIP3   OH2 3674   6.028   2.679   0.101
 1237TIP3    H1 3675   6.042   2.754   0.159
 1237TIP3    H2 3676   5.949   2.702   0.052
 1238TIP3   OH2 3677   1.979   1.687   1.425
 1238TIP3    H1 3678   1.946   1.766   1.381
 1238TIP3    H2 3679   1.903   1.649   1.467
 1239TIP3   OH2 3680   4.727   4.532   2.550
 1239TIP3    H1 3681   4.744   4.614   2.596
 1239TIP3    H2 3682   4.675   4.558   2.473
 1240TIP3   OH2 3683   2.457   2.928   5.124
 1240TIP3    H1 3684   2.435   2.958   5.213
 1240TIP3    H2 3685   2.379   2.949   5.072
 1241TIP3   OH2 3686   1.305   0.781   2.495
 1241TIP3    H1 3687   1.289   0.731   2.574
 1241TIP3    H2 3688   1.363   0.852   2.523
 1242TIP3   OH2 3689   5.255   4.837   4.392
 1242TIP3    H1 3690   5.338   4.837   4.441
 1242TIP3    H2 3691   5.187   4.835   4.460
 1243TIP3   OH2 3692   4.518   3.168   3.354
 1243TIP3    H1 3693   4.554   3.082   3.372
 1243TIP3    H2 3694   4.580   3.229   3.394
 1244TIP3   OH2 3695   1.515  -0.013   4.032
 1244TIP3    H1 3696   1.522  -0.048   4.121
 1244TIP3    H2 3697   1.587  -0.054   3.984
 1245TIP3   OH2 3698   4.198   0.766   1.699
 1245TIP3    H1 3699   4.107   0.738   1.710
 1245TIP3    H2 3700   4.236   0.757   1.787
 1246TIP3   OH2 3701   1.186   3.157   2.977
 1246TIP3    H1 3702   1.199   3.204   3.059
 1246TIP3    H2 3703   1.206   3.066   2.998
 1247TIP3   OH2 3704   0.872   3.735   5.079
 1247TIP3    H1 3705   0.832   3.648   5.084
 1247TIP3    H2 3706   0.843   3.769   4.994
 1248TIP3   OH2 3707   0.099   1.322   3.636
 1248TIP3    H1 3708   0.174   1.289   3.685
 1248TIP3    H2 3709   0.131   1.400   3.592
 1249TIP3   OH2 3710   7.232   3.407   4.477
 1249TIP3    H1 3711   7.217   3.351   4.553
 1249TIP3    H2 3712   7.159   3.469   4.478
 1250TIP3   OH2 3713   3.664   3.826   1.075
 1250TIP3    H1 3714   3.570   3.827   1.095
 1250TIP3    H2 3715   3.704   3.784   1.151
 1251TIP3   OH2 3716   4.986   2.129   1.015
 1251TIP3    H1 3717   5.058   2.192   1.009
 1251TIP3    H2 3718   4.923   2.170   1.074
 1252TIP3   OH2 3719   5.168   6.571   4.016
 1252TIP3    H1 3720   5.150   6.575   4.110
 1252TIP3    H2 3721   5.245   6.514   4.008
 1253TIP3   OH2 3722   4.172   6.537   0.886
 1253TIP3    H1 3723   4.122   6.482   0.825
 1253TIP3    H2 3724   4.238   6.580   0.831
 1254TIP3   OH2 3725   4.171   0.030   4.990
 1254TIP3    H1 3726   4.235  -0.040   4.979
 1254TIP3    H2 3727   4.220   0.101   5.031
 1255TIP3   OH2 3728   3.950   0.462   3.509
 1255TIP3    H1 3729   3.953   0.377   3.465
 1255TIP3    H2 3730   3.933   0.525   3.438
 1256TIP3   OH2 3731   1.759   4.400   0.998
 1256TIP3    H1 3732   1.802   4.339   1.058
 1256TIP3    H2 3733   1.826   4.420   0.933
 1257TIP3   OH2 3734   1.455   3.291   4.054
 1257TIP3    H1 3735   1.482   3.228   3.988
 1257TIP3    H2 3736   1.530   3.297   4.113
 1258TIP3   OH2 3737   1.025   5.953   4.199
 1258TIP3    H1 3738   1.080   5.898   4.144
 1258TIP3    H2 3739   0.943   5.903   4.208
 1259TIP3   OH2 3740   5.596   2.325   4.557
 1259TIP3    H1 3741   5.569   2.299   4.469
 1259TIP3    H2 3742   5.666   2.264   4.579
 1260TIP3   OH2 3743   5.023   2.379   3.627
 1260TIP3    H1 3744   4.927   2.371   3.631
 1260TIP3    H2 3745   5.051   2.298   3.583
 1261TIP3   OH2 3746   1.960   2.956   0.178
 1261TIP3    H1 3747   1.958   2.866   0.211
 1261TIP3    H2 3748   1.912   2.952   0.096
 1262TIP3   OH2 3749   1.289   0.290   2.688
 1262TIP3    H1 3750   1.252   0.336   2.612
 1262TIP3    H2 3751   1.217   0.289   2.751
 1263TIP3   OH2 3752   3.068   4.250   1.314
 1263TIP3    H1 3753   3.070   4.244   1.410
 1263TIP3    H2 3754   3.111   4.333   1.295
 1264TIP3   OH2 3755   5.937   5.668   5.305
 1264TIP3    H1 3756   5.925   5.630   5.392
 1264TIP3    H2 3757   5.934   5.593   5.246
 1265TIP3   OH2 3758   0.196   0.474   2.864
 1265TIP3    H1 3759   0.174   0.412   2.934
 1265TIP3    H2 3760   0.233   0.550   2.909
 1266TIP3   OH2 3761   3.433   3.976   2.855
 1266TIP3    H1 3762   3.392   4.046   2.804
 1266TIP3    H2 3763   3.405   3.895   2.812
 1267TIP3   OH2 3764   4.382   0.372   1.170
 1267TIP3    H1 3765   4.421   0.338   1.089
 1267TIP3    H2 3766   4.456   0.398   1.224
 1268TIP3   OH2 3767   5.007   6.211   3.511
 1268TIP3    H1 3768   4.946   6.263   3.564
 1268TIP3    H2 3769   4.987   6.235   3.421
 1269TIP3   OH2 3770   1.160   5.123   4.812
 1269TIP3    H1 3771   1.238   5.163   4.772
 1269TIP3    H2 3772   1.094   5.192   4.811
 1270TIP3   OH2 3773   0.848   3.439   3.419
 1270TIP3    H1 3774   0.808   3.384   3.351
 1270TIP3    H2 3775   0.917   3.487   3.374
 1271TIP3   OH2 3776   1.294   1.315   0.431
 1271TIP3    H1 3777   1.361   1.340   0.493
 1271TIP3    H2 3778   1.334   1.329   0.345
 1272TIP3   OH2 3779   0.566   5.502   5.183
 1272TIP3    H1 3780   0.510   5.439   5.228
 1272TIP3    H2 3781   0.524   5.587   5.197
 1273TIP3   OH2 3782   2.791   4.150   0.366
 1273TIP3    H1 3783   2.786   4.246   0.362
 1273TIP3    H2 3784   2.700   4.121   0.360
 1274TIP3   OH2 3785   1.902   5.286   2.902
 1274TIP3    H1 3786   1.871   5.274   2.992
 1274TIP3    H2 3787   1.960   5.362   2.906
 1275TIP3   OH2 3788   3.143   1.811   0.854
 1275TIP3    H1 3789   3.085   1.752   0.807
 1275TIP3    H2 3790   3.089   1.844   0.926
 1276TIP3   OH2 3791   2.479   4.044   4.636
 1276TIP3    H1 3792   2.472   4.031   4.542
 1276TIP3    H2 3793   2.566   4.013   4.658
 1277TIP3   OH2 3794   1.752   6.528   5.079
 1277TIP3    H1 3795   1.809   6.568   5.013
 1277TIP3    H2 3796   1.666   6.523   5.037
 1278TIP3   OH2 3797   5.912   4.960   4.746
 1278TIP3    H1 3798   5.879   5.023   4.810
 1278TIP3    H2 3799   5.944   5.015   4.674
 1279TIP3   OH2 3800   3.776   1.706   2.330
 1279TIP3    H1 3801   3.726   1.696   2.249
 1279TIP3    H2 3802   3.783   1.616   2.364
 1280TIP3   OH2 3803   4.841   6.661   3.642
 1280TIP3    H1 3804   4.824   6.682   3.550
 1280TIP3    H2 3805   4.775   6.708   3.691
 1281TIP3   OH2 3806   2.704   4.421   5.143
 1281TIP3    H1 3807   2.738   4.504   5.178
 1281TIP3    H2 3808   2.729   4.356   5.209
 1282TIP3   OH2 3809   2.505   2.069   0.593
 1282TIP3    H1 3810   2.527   2.037   0.681
 1282TIP3    H2 3811   2.588   2.098   0.557
 1283TIP3   OH2 3812   2.846   3.532   4.348
 1283TIP3    H1 3813   2.790   3.503   4.420
 1283TIP3    H2 3814   2.934   3.534   4.386
 1284TIP3   OH2 3815   2.341   4.662   3.209
 1284TIP3    H1 3816   2.247   4.670   3.225
 1284TIP3    H2 3817   2.351   4.674   3.115
 1285TIP3   OH2 3818   0.911   0.349   4.254
 1285TIP3    H1 3819   0.988   0.392   4.291
 1285TIP3    H2 3820   0.837   0.399   4.287
 1286TIP3   OH2 3821   6.653   2.119   0.205
 1286TIP3    H1 3822   6.630   2.077   0.122
 1286TIP3    H2 3823   6.587   2.187   0.217
 1287TIP3   OH2 3824   4.562   5.926   1.978
 1287TIP3    H1 3825   4.475   5.900   1.946
 1287TIP3    H2 3826   4.579   6.009   1.934
 1288TIP3   OH2 3827   4.480   5.133   2.634
 1288TIP3    H1 3828   4.387   5.150   2.644
 1288TIP3    H2 3829   4.490   5.106   2.543
 1289TIP3   OH2 3830   3.926   6.136   2.318
 1289TIP3    H1 3831   4.018   6.127   2.292
 1289TIP3    H2 3832   3.927   6.205   2.385
 1290TIP3   OH2 3833   3.111   2.539   0.796
 1290TIP3    H1 3834   3.196   2.541   0.751
 1290TIP3    H2 3835   3.073   2.455   0.771
 1291TIP3   OH2 3836   1.262   5.002   2.863
 1291TIP3    H1 3837   1.251   5.097   2.863
 1291TIP3    H2 3838   1.354   4.988   2.883
 1292TIP3   OH2 3839   1.276   0.880   1.469
 1292TIP3    H1 3840   1.309   0.899   1.556
 1292TIP3    H2 3841   1.184   0.907   1.471
 1293TIP3   OH2 3842   3.455   4.231   2.546
 1293TIP3    H1 3843   3.391   4.180   2.496
 1293TIP3    H2 3844   3.448   4.319   2.510
 1294TIP3   OH2 3845   5.590   1.664   5.689
 1294TIP3    H1 3846   5.495   1.658   5.673
 1294TIP3    H2 3847   5.597   1.691   5.780
 1295TIP3   OH2 3848   3.352   6.376   1.020
 1295TIP3    H1 3849   3.313   6.302   1.066
 1295TIP3    H2 3850   3.278   6.420   0.979
 1296TIP3   OH2 3851   6.154   3.068   2.942
 1296TIP3    H1 3852   6.248   3.067   2.924
 1296TIP3    H2 3853   6.146   3.109   3.028
 1297TIP3   OH2 3854   4.055   3.335   4.087
 1297TIP3    H1 3855   4.040   3.408   4.027
 1297TIP3    H2 3856   3.968   3.297   4.101
 1298TIP3   OH2 3857   4.814   2.467   3.827
 1298TIP3    H1 3858   4.750   2.522   3.872
 1298TIP3    H2 3859   4.855   2.526   3.763
 1299TIP3   OH2 3860   2.891   3.621   0.209
 1299TIP3    H1 3861   2.911   3.714   0.211
 1299TIP3    H2 3862   2.824   3.609   0.277
 1300TIP3   OH2 3863   2.368   4.098   5.135
 1300TIP3    H1 3864   2.399   4.007   5.134
 1300TIP3    H2 3865   2.401   4.133   5.218
 1301TIP3   OH2 3866   6.687   0.256   5.429
 1301TIP3    H1 3867   6.654   0.183   5.377
 1301TIP3    H2 3868   6.677   0.227   5.520
 1302TIP3   OH2 3869   3.849   1.741   0.339
 1302TIP3    H1 3870   3.810   1.824   0.312
 1302TIP3    H2 3871   3.775   1.681   0.346
 1303TIP3   OH2 3872   5.143   1.626   4.712
 1303TIP3    H1 3873   5.137   1.719   4.735
 1303TIP3    H2 3874   5.057   1.604   4.676
 1304TIP3   OH2 3875   2.741   2.004   1.401
 1304TIP3    H1 3876   2.760   2.028   1.491
 1304TIP3    H2 3877   2.823   2.017   1.354
 1305TIP3   OH2 3878   0.238   4.044   2.819
 1305TIP3    H1 3879   0.260   3.966   2.769
 1305TIP3    H2 3880   0.163   4.018   2.873
 1306TIP3   OH2 3881   5.952   3.130   4.129
 1306TIP3    H1 3882   6.036   3.158   4.166
 1306TIP3    H2 3883   5.965   3.039   4.104
 1307TIP3   OH2 3884   0.346   5.717   0.745
 1307TIP3    H1 3885   0.274   5.750   0.799
 1307TIP3    H2 3886   0.302   5.673   0.672
 1308TIP3   OH2 3887   6.953   2.027   2.825
 1308TIP3    H1 3888   7.033   1.977   2.839
 1308TIP3    H2 3889   6.981   2.104   2.776
 1309TIP3   OH2 3890   2.955   1.350   3.894
 1309TIP3    H1 3891   2.901   1.315   3.965
 1309TIP3    H2 3892   2.891   1.380   3.829
 1310TIP3   OH2 3893   5.146   6.668   5.058
 1310TIP3    H1 3894   5.121   6.667   5.151
 1310TIP3    H2 3895   5.213   6.736   5.052
 1311TIP3   OH2 3896   6.683   1.141   4.841
 1311TIP3    H1 3897   6.605   1.149   4.786
 1311TIP3    H2 3898   6.648   1.121   4.928
 1312TIP3   OH2 3899   2.198   3.663   4.414
 1312TIP3    H1 3900   2.220   3.574   4.439
 1312TIP3    H2 3901   2.124   3.653   4.354
 1313TIP3   OH2 3902   6.760   1.630   0.318
 1313TIP3    H1 3903   6.709   1.613   0.397
 1313TIP3    H2 3904   6.695   1.651   0.252
 1314TIP3   OH2 3905   1.297   4.776   0.146
 1314TIP3    H1 3906   1.321   4.866   0.166
 1314TIP3    H2 3907   1.228   4.783   0.079
 1315TIP3   OH2 3908   6.394   4.851   4.652
 1315TIP3    H1 3909   6.334   4.842   4.578
 1315TIP3    H2 3910   6.422   4.761   4.671
 1316TIP3   OH2 3911   1.770   4.995   1.777
 1316TIP3    H1 3912   1.832   5.063   1.750
 1316TIP3    H2 3913   1.812   4.913   1.752
 1317TIP3   OH2 3914   4.704   3.011   2.252
 1317TIP3    H1 3915   4.745   3.092   2.280
 1317TIP3    H2 3916   4.731   3.001   2.160
 1318TIP3   OH2 3917   7.060   0.185   1.648
 1318TIP3    H1 3918   7.116   0.227   1.583
 1318TIP3    H2 3919   7.116   0.175   1.725
 1319TIP3   OH2 3920   2.731   0.567   3.227
 1319TIP3    H1 3921   2.692   0.620   3.296
 1319TIP3    H2 3922   2.738   0.479   3.265
 1320TIP3   OH2 3923   2.166   4.114   0.835
 1320TIP3    H1 3924   2.098   4.136   0.771
 1320TIP3    H2 3925   2.173   4.191   0.891
 1321TIP3   OH2 3926   1.721   1.328   5.703
 1321TIP3    H1 3927   1.734   1.411   5.750
 1321TIP3    H2 3928   1.628   1.309   5.712
 1322TIP3   OH2 3929   5.529   4.873   1.041
 1322TIP3    H1 3930   5.498   4.962   1.056
 1322TIP3    H2 3931   5.620   4.874   1.068
 1323TIP3   OH2 3932   3.592   1.734   5.334
 1323TIP3    H1 3933   3.684   1.718   5.311
 1323TIP3    H2 3934   3.552   1.768   5.254
 1324TIP3   OH2 3935   2.197   6.256   0.232
 1324TIP3    H1 3936   2.197   6.351   0.233
 1324TIP3    H2 3937   2.239   6.230   0.314
 1325TIP3   OH2 3938   2.028   1.299   5.027
 1325TIP3    H1 3939   2.007   1.270   4.939
 1325TIP3    H2 3940   2.119   1.330   5.022
 1326TIP3   OH2 3941   7.104   4.720   3.858
 1326TIP3    H1 3942   7.121   4.765   3.941
 1326TIP3    H2 3943   7.103   4.789   3.792
 1327TIP3   OH2 3944   4.330   6.269   1.384
 1327TIP3    H1 3945   4.391   6.208   1.342
 1327TIP3    H2 3946   4.244   6.228   1.375
 1328TIP3   OH2 3947   6.334   0.274   5.389
 1328TIP3    H1 3948   6.341   0.184   5.357
 1328TIP3    H2 3949   6.371   0.327   5.318
 1329TIP3   OH2 3950   6.397   1.351   2.460
 1329TIP3    H1 3951   6.329   1.291   2.430
 1329TIP3    H2 3952   6.451   1.367   2.383
 1330TIP3   OH2 3953   2.399   6.730   4.082
 1330TIP3    H1 3954   2.347   6.698   4.008
 1330TIP3    H2 3955   2.453   6.655   4.107
 1331TIP3   OH2 3956   0.459   2.712   3.773
 1331TIP3    H1 3957   0.468   2.749   3.684
 1331TIP3    H2 3958   0.412   2.779   3.822
 1332TIP3   OH2 3959   1.536   2.947   0.112
 1332TIP3    H1 3960   1.561   2.862   0.076
 1332TIP3    H2 3961   1.456   2.930   0.161
 1333TIP3   OH2 3962   3.408   3.458   5.800
 1333TIP3    H1 3963   3.322   3.423   5.820
 1333TIP3    H2 3964   3.415   3.453   5.704
 1334TIP3   OH2 3965   2.877   2.174   4.932
 1334TIP3    H1 3966   2.946   2.130   4.881
 1334TIP3    H2 3967   2.918   2.255   4.962
 1335TIP3   OH2 3968   5.182   0.487   2.195
 1335TIP3    H1 3969   5.232   0.554   2.148
 1335TIP3    H2 3970   5.152   0.532   2.274
 1336TIP3   OH2 3971   7.087   5.368   5.655
 1336TIP3    H1 3972   7.043   5.313   5.719
 1336TIP3    H2 3973   7.145   5.423   5.707
 1337TIP3   OH2 3974   2.335   2.944   0.043
 1337TIP3    H1 3975   2.334   2.877   0.112
 1337TIP3    H2 3976   2.420   2.933   0.000
 1338TIP3   OH2 3977   3.031   3.601   1.240
 1338TIP3    H1 3978   2.965   3.659   1.201
 1338TIP3    H2 3979   3.089   3.660   1.288
 1339TIP3   OH2 3980   6.986   0.784   2.809
 1339TIP3    H1 3981   6.970   0.803   2.901
 1339TIP3    H2 3982   6.997   0.870   2.768
 1340TIP3   OH2 3983   2.714   4.513   2.034
 1340TIP3    H1 3984   2.719   4.553   1.947
 1340TIP3    H2 3985   2.762   4.573   2.091
 1341TIP3   OH2 3986   1.329   0.902   1.771
 1341TIP3    H1 3987   1.370   0.983   1.742
 1341TIP3    H2 3988   1.345   0.899   1.866
 1342TIP3   OH2 3989   3.726   2.841   2.225
 1342TIP3    H1 3990   3.821   2.854   2.224
 1342TIP3    H2 3991   3.701   2.856   2.316
 1343TIP3   OH2 3992   0.424   3.816   2.450
 1343TIP3    H1 3993   0.500   3.874   2.449
 1343TIP3    H2 3994   0.400   3.809   2.542
 1344TIP3   OH2 3995   3.668   6.539   0.072
 1344TIP3    H1 3996   3.676   6.622   0.025
 1344TIP3    H2 3997   3.759   6.510   0.085
 1345TIP3   OH2 3998   1.298   6.462   5.162
 1345TIP3    H1 3999   1.314   6.540   5.215
 1345TIP3    H2 4000   1.203   6.448   5.169
 1346TIP3   OH2 4001   6.807   0.291   0.042
 1346TIP3    H1 4002   6.717   0.306   0.070
 1346TIP3    H2 4003   6.819   0.349  -0.033
 1347TIP3   OH2 4004   4.372   2.091   1.564
 1347TIP3    H1 4005   4.391   2.005   1.525
 1347TIP3    H2 4006   4.361   2.074   1.657
 1348TIP3   OH2 4007   1.582   0.848   2.502
 1348TIP3    H1 4008   1.612   0.786   2.568
 1348TIP3    H2 4009   1.660   0.866   2.449
 1349TIP3   OH2 4010   6.077   6.684  -0.021
 1349TIP3    H1 4011   6.028   6.757   0.016
 1349TIP3    H2 4012   6.166   6.719  -0.034
 1350TIP3   OH2 4013   4.080   4.569   3.228
 1350TIP3    H1 4014   4.023   4.643   3.207
 1350TIP3    H2 4015   4.160   4.610   3.262
 1351TIP3   OH2 4016   5.503   0.192  -0.023
 1351TIP3    H1 4017   5.525   0.276   0.016
 1351TIP3    H2 4018   5.423   0.209  -0.073
 1352TIP3   OH2 4019   3.736   1.786   2.835
 1352TIP3    H1 4020   3.825   1.797   2.870
 1352TIP3    H2 4021   3.746   1.799   2.741
 1353TIP3   OH2 4022   4.967   6.042   4.471
 1353TIP3    H1 4023   5.048   6.093   4.476
 1353TIP3    H2 4024   4.993   5.960   4.430
 1354TIP3   OH2 4025   1.023   1.043   2.711
 1354TIP3    H1 4026   1.013   1.048   2.616
 1354TIP3    H2 4027   1.104   1.090   2.729
 1355TIP3   OH2 4028   3.060   2.932   0.015
 1355TIP3    H1 4029   3.121   3.005   0.000
 1355TIP3    H2 4030   2.983   2.973   0.055
 1356TIP3   OH2 4031   1.490   2.085   1.295
 1356TIP3    H1 4032   1.577   2.048   1.280
 1356TIP3    H2 4033   1.498   2.136   1.375
 1357TIP3   OH2 4034   4.380   1.485   2.723
 1357TIP3    H1 4035   4.364   1.483   2.629
 1357TIP3    H2 4036   4.293   1.493   2.762
 1358TIP3   OH2 4037   4.649   1.865   2.588
 1358TIP3    H1 4038   4.558   1.839   2.602
 1358TIP3    H2 4039   4.697   1.824   2.660
 1359TIP3   OH2 4040   6.654   0.849   3.179
 1359TIP3    H1 4041   6.626   0.805   3.259
 1359TIP3    H2 4042   6.602   0.930   3.176
 1360TIP3   OH2 4043   1.844   2.291   0.426
 1360TIP3    H1 4044   1.841   2.336   0.511
 1360TIP3    H2 4045   1.803   2.352   0.365
 1361TIP3   OH2 4046   0.947   2.137   2.071
 1361TIP3    H1 4047   0.869   2.094   2.105
 1361TIP3    H2 4048   1.020   2.080   2.097
 1362TIP3   OH2 4049   4.795   6.662   2.933
 1362TIP3    H1 4050   4.783   6.739   2.988
 1362TIP3    H2 4051   4.870   6.616   2.972
 1363TIP3   OH2 4052   2.561   4.564   4.609
 1363TIP3    H1 4053   2.513   4.609   4.539
 1363TIP3    H2 4054   2.503   4.492   4.635
 1364TIP3   OH2 4055   4.550   5.044   0.881
 1364TIP3    H1 4056   4.529   5.066   0.972
 1364TIP3    H2 4057   4.576   4.952   0.884
 1365TIP3   OH2 4058   3.944   3.355   5.392
 1365TIP3    H1 4059   3.926   3.449   5.396
 1365TIP3    H2 4060   3.951   3.328   5.484
 1366TIP3   OH2 4061   3.692  -0.004   0.743
 1366TIP3    H1 4062   3.647   0.013   0.661
 1366TIP3    H2 4063   3.635   0.035   0.810
 1367TIP3   OH2 4064   4.173   0.839   0.921
 1367TIP3    H1 4065   4.129   0.822   1.004
 1367TIP3    H2 4066   4.266   0.831   0.941
 1368TIP3   OH2 4067   0.119   3.254   1.243
 1368TIP3    H1 4068   0.087   3.339   1.271
 1368TIP3    H2 4069   0.084   3.243   1.154
 1369TIP3   OH2 4070   5.556   2.720   2.154
 1369TIP3    H1 4071   5.519   2.665   2.085
 1369TIP3    H2 4072   5.585   2.799   2.108
 1370TIP3   OH2 4073   7.010   0.632   0.110
 1370TIP3    H1 4074   7.043   0.629   0.020
 1370TIP3    H2 4075   7.069   0.574   0.159
 1371TIP3   OH2 4076   1.275   5.302   3.407
 1371TIP3    H1 4077   1.271   5.296   3.312
 1371TIP3    H2 4078   1.276   5.396   3.425
 1372TIP3   OH2 4079   1.313   2.414   2.031
 1372TIP3    H1 4080   1.283   2.347   1.969
 1372TIP3    H2 4081   1.278   2.386   2.116
 1373TIP3   OH2 4082   1.024   6.608   0.652
 1373TIP3    H1 4083   1.009   6.666   0.577
 1373TIP3    H2 4084   1.119   6.598   0.655
 1374TIP3   OH2 4085   6.511   5.862   4.993
 1374TIP3    H1 4086   6.503   5.899   4.905
 1374TIP3    H2 4087   6.507   5.937   5.052
 1375TIP3   OH2 4088   0.288   1.415   3.885
 1375TIP3    H1 4089   0.290   1.321   3.869
 1375TIP3    H2 4090   0.328   1.426   3.971
 1376TIP3   OH2 4091   0.641   5.248   2.901
 1376TIP3    H1 4092   0.656   5.256   2.807
 1376TIP3    H2 4093   0.557   5.202   2.907
 1377TIP3   OH2 4094   3.824   2.513   2.725
 1377TIP3    H1 4095   3.827   2.504   2.820
 1377TIP3    H2 4096   3.824   2.607   2.710
 1378TIP3   OH2 4097   3.371   5.688   1.628
 1378TIP3    H1 4098   3.466   5.688   1.635
 1378TIP3    H2 4099   3.344   5.603   1.662
 1379TIP3   OH2 4100   0.427   2.498   5.285
 1379TIP3    H1 4101   0.414   2.528   5.376
 1379TIP3    H2 4102   0.346   2.450   5.265
 1380TIP3   OH2 4103   1.103   2.511   2.809
 1380TIP3    H1 4104   1.056   2.595   2.811
 1380TIP3    H2 4105   1.077   2.472   2.725
 1381TIP3   OH2 4106   1.493   1.156   1.865
 1381TIP3    H1 4107   1.478   1.083   1.925
 1381TIP3    H2 4108   1.556   1.212   1.909
 1382TIP3   OH2 4109   5.210   1.450   3.198
 1382TIP3    H1 4110   5.193   1.379   3.260
 1382TIP3    H2 4111   5.198   1.409   3.112
 1383TIP3   OH2 4112   6.278   4.635   0.583
 1383TIP3    H1 4113   6.367   4.623   0.616
 1383TIP3    H2 4114   6.278   4.593   0.498
 1384TIP3   OH2 4115   2.772   0.367   1.645
 1384TIP3    H1 4116   2.736   0.344   1.559
 1384TIP3    H2 4117   2.859   0.401   1.626
 1385TIP3   OH2 4118   6.941   2.177   4.518
 1385TIP3    H1 4119   6.999   2.124   4.464
 1385TIP3    H2 4120   6.939   2.262   4.474
 1386TIP3   OH2 4121   4.495   1.472   2.984
 1386TIP3    H1 4122   4.458   1.471   2.896
 1386TIP3    H2 4123   4.438   1.530   3.034
 1387TIP3   OH2 4124   6.702   2.779   1.221
 1387TIP3    H1 4125   6.643   2.731   1.162
 1387TIP3    H2 4126   6.742   2.712   1.275
 1388TIP3   OH2 4127   1.419   0.591   4.790
 1388TIP3    H1 4128   1.376   0.604   4.706
 1388TIP3    H2 4129   1.355   0.620   4.855
 1389TIP3   OH2 4130   0.766   0.563   1.928
 1389TIP3    H1 4131   0.679   0.562   1.887
 1389TIP3    H2 4132   0.797   0.473   1.920
 1390TIP3   OH2 4133   5.945   4.049   5.318
 1390TIP3    H1 4134   6.007   4.112   5.356
 1390TIP3    H2 4135   5.898   4.099   5.251
 1391TIP3   OH2 4136   6.890   5.526   2.324
 1391TIP3    H1 4137   6.968   5.473   2.341
 1391TIP3    H2 4138   6.826   5.496   2.388
 1392TIP3   OH2 4139   4.242   2.961   1.181
 1392TIP3    H1 4140   4.267   2.953   1.089
 1392TIP3    H2 4141   4.187   2.885   1.198
 1393TIP3   OH2 4142   2.472   4.097   2.164
 1393TIP3    H1 4143   2.388   4.053   2.175
 1393TIP3    H2 4144   2.491   4.134   2.250
 1394TIP3   OH2 4145   6.218   0.988   5.734
 1394TIP3    H1 4146   6.210   1.039   5.815
 1394TIP3    H2 4147   6.162   0.912   5.749
 1395TIP3   OH2 4148   6.330   2.497   5.622
 1395TIP3    H1 4149   6.241   2.471   5.601
 1395TIP3    H2 4150   6.322   2.548   5.702
 1396TIP3   OH2 4151   2.524   2.409   3.095
 1396TIP3    H1 4152   2.565   2.454   3.021
 1396TIP3    H2 4153   2.574   2.438   3.171
 1397TIP3   OH2 4154   6.478   4.909   2.531
 1397TIP3    H1 4155   6.491   4.859   2.451
 1397TIP3    H2 4156   6.388   4.941   2.525
 1398TIP3   OH2 4157   5.313   0.060   1.928
 1398TIP3    H1 4158   5.312   0.125   1.998
 1398TIP3    H2 4159   5.390   0.081   1.876
 1399TIP3   OH2 4160   6.020   5.296   1.931
 1399TIP3    H1 4161   5.982   5.343   1.857
 1399TIP3    H2 4162   6.083   5.357   1.969
 1400TIP3   OH2 4163   5.798   4.983   1.947
 1400TIP3    H1 4164   5.821   4.984   1.854
 1400TIP3    H2 4165   5.728   5.048   1.955
 1401TIP3   OH2 4166   3.244   1.120   5.048
 1401TIP3    H1 4167   3.232   1.165   5.132
 1401TIP3    H2 4168   3.286   1.038   5.071
 1402TIP3   OH2 4169   4.167   4.142   4.385
 1402TIP3    H1 4170   4.228   4.073   4.410
 1402TIP3    H2 4171   4.216   4.223   4.397
 1403TIP3   OH2 4172   6.841   3.656   4.583
 1403TIP3    H1 4173   6.777   3.717   4.545
 1403TIP3    H2 4174   6.800   3.626   4.665
 1404TIP3   OH2 4175   0.867   3.662   2.141
 1404TIP3    H1 4176   0.919   3.692   2.067
 1404TIP3    H2 4177   0.839   3.573   2.116
 1405TIP3   OH2 4178   6.286   2.174   0.860
 1405TIP3    H1 4179   6.216   2.222   0.816
 1405TIP3    H2 4180   6.320   2.236   0.925
 1406TIP3   OH2 4181   5.710   4.648   4.227
 1406TIP3    H1 4182   5.766   4.648   4.305
 1406TIP3    H2 4183   5.678   4.738   4.220
 1407TIP3   OH2 4184   0.732   0.947   5.300
 1407TIP3    H1 4185   0.740   1.030   5.348
 1407TIP3    H2 4186   0.788   0.958   5.224
 1408TIP3   OH2 4187   4.921   3.183   3.846
 1408TIP3    H1 4188   4.954   3.258   3.796
 1408TIP3    H2 4189   4.976   3.110   3.817
 1409TIP3   OH2 4190   0.110   5.645   3.059
 1409TIP3    H1 4191   0.166   5.702   3.112
 1409TIP3    H2 4192   0.034   5.699   3.038
 1410TIP3   OH2 4193   1.232   4.152   3.443
 1410TIP3    H1 4194   1.239   4.090   3.515
 1410TIP3    H2 4195   1.165   4.115   3.386
 1411TIP3   OH2 4196   6.712   0.903   3.786
 1411TIP3    H1 4197   6.628   0.887   3.829
 1411TIP3    H2 4198   6.694   0.971   3.722
 1412TIP3   OH2 4199   4.051   5.467   0.256
 1412TIP3    H1 4200   4.105   5.544   0.237
 1412TIP3    H2 4201   4.025   5.478   0.347
 1413TIP3   OH2 4202   5.252   6.387   0.236
 1413TIP3    H1 4203   5.289   6.411   0.151
 1413TIP3    H2 4204   5.229   6.471   0.277
 1414TIP3   OH2 4205   0.548   0.171   1.250
 1414TIP3    H1 4206   0.507   0.258   1.251
 1414TIP3    H2 4207   0.522   0.132   1.333
 1415TIP3   OH2 4208   2.498   2.932   2.692
 1415TIP3    H1 4209   2.534   2.856   2.646
 1415TIP3    H2 4210   2.574   2.988   2.708
 1416TIP3   OH2 4211   4.840   0.935   1.817
 1416TIP3    H1 4212   4.889   1.011   1.848
 1416TIP3    H2 4213   4.892   0.901   1.744
 1417TIP3   OH2 4214   1.724   1.077   5.478
 1417TIP3    H1 4215   1.662   1.149   5.491
 1417TIP3    H2 4216   1.761   1.094   5.392
 1418TIP3   OH2 4217   2.712   5.970   5.523
 1418TIP3    H1 4218   2.803   5.958   5.552
 1418TIP3    H2 4219   2.713   5.948   5.430
 1419TIP3   OH2 4220   1.600   1.394   3.900
 1419TIP3    H1 4221   1.558   1.311   3.877
 1419TIP3    H2 4222   1.682   1.368   3.943
 1420TIP3   OH2 4223   6.511   5.918   2.270
 1420TIP3    H1 4224   6.486   5.838   2.317
 1420TIP3    H2 4225   6.444   5.982   2.294
 1421TIP3   OH2 4226   2.844   4.917   2.388
 1421TIP3    H1 4227   2.841   4.948   2.479
 1421TIP3    H2 4228   2.848   4.997   2.336
 1422TIP3   OH2 4229   2.432   4.336   4.664
 1422TIP3    H1 4230   2.489   4.286   4.605
 1422TIP3    H2 4231   2.449   4.299   4.750
 1423TIP3   OH2 4232   0.624   4.215   3.667
 1423TIP3    H1 4233   0.688   4.169   3.612
 1423TIP3    H2 4234   0.583   4.146   3.719
 1424TIP3   OH2 4235   3.838   2.506   1.628
 1424TIP3    H1 4236   3.914   2.552   1.663
 1424TIP3    H2 4237   3.840   2.420   1.670
 1425TIP3   OH2 4238   4.039   3.261   0.477
 1425TIP3    H1 4239   4.049   3.230   0.387
 1425TIP3    H2 4240   4.017   3.182   0.526
 1426TIP3   OH2 4241   0.065   1.114   4.709
 1426TIP3    H1 4242  -0.008   1.104   4.648
 1426TIP3    H2 4243   0.098   1.025   4.723
 1427TIP3   OH2 4244   6.724   4.857   3.876
 1427TIP3    H1 4245   6.645   4.893   3.835
 1427TIP3    H2 4246   6.794   4.915   3.847
 1428TIP3   OH2 4247   6.876   5.945   0.245
 1428TIP3    H1 4248   6.971   5.953   0.253
 1428TIP3    H2 4249   6.858   5.957   0.152
 1429TIP3   OH2 4250   5.214   0.463   4.729
 1429TIP3    H1 4251   5.166   0.445   4.648
 1429TIP3    H2 4252   5.171   0.539   4.766
 1430TIP3   OH2 4253   1.074   1.588   2.147
 1430TIP3    H1 4254   1.030   1.506   2.169
 1430TIP3    H2 4255   1.125   1.610   2.225
 1431TIP3   OH2 4256   4.562   0.873   5.081
 1431TIP3    H1 4257   4.616   0.872   5.160
 1431TIP3    H2 4258   4.565   0.783   5.049
 1432TIP3   OH2 4259   4.250   4.109   5.758
 1432TIP3    H1 4260   4.161   4.073   5.756
 1432TIP3    H2 4261   4.240   4.201   5.733
 1433TIP3   OH2 4262   0.971   0.011   1.166
 1433TIP3    H1 4263   0.966   0.052   1.079
 1433TIP3    H2 4264   1.029  -0.064   1.154
 1434TIP3   OH2 4265   3.300   2.738   2.044
 1434TIP3    H1 4266   3.388   2.704   2.029
 1434TIP3    H2 4267   3.245   2.660   2.050
 1435TIP3   OH2 4268   5.466   2.811   0.700
 1435TIP3    H1 4269   5.413   2.783   0.775
 1435TIP3    H2 4270   5.554   2.779   0.720
 1436TIP3   OH2 4271   2.578   5.584   0.430
 1436TIP3    H1 4272   2.559   5.647   0.500
 1436TIP3    H2 4273   2.672   5.568   0.437
 1437TIP3   OH2 4274   5.566   6.308   3.482
 1437TIP3    H1 4275   5.623   6.285   3.408
 1437TIP3    H2 4276   5.609   6.267   3.558
 1438TIP3   OH2 4277   1.349   2.851   4.334
 1438TIP3    H1 4278   1.323   2.875   4.423
 1438TIP3    H2 4279   1.302   2.770   4.315
 1439TIP3   OH2 4280   3.192   3.570   4.949
 1439TIP3    H1 4281   3.115   3.586   5.004
 1439TIP3    H2 4282   3.263   3.555   5.011
 1440TIP3   OH2 4283   4.150   6.341   2.265
 1440TIP3    H1 4284   4.197   6.421   2.242
 1440TIP3    H2 4285   4.212   6.271   2.244
 1441TIP3   OH2 4286   3.669   5.247   3.265
 1441TIP3    H1 4287   3.748   5.195   3.281
 1441TIP3    H2 4288   3.701   5.334   3.243
 1442TIP3   OH2 4289   1.921   0.782   3.434
 1442TIP3    H1 4290   1.827   0.765   3.445
 1442TIP3    H2 4291   1.961   0.741   3.511
 1443TIP3   OH2 4292   0.661   3.440   5.537
 1443TIP3    H1 4293   0.674   3.393   5.619
 1443TIP3    H2 4294   0.582   3.493   5.553
 1444TIP3   OH2 4295   2.705   0.636   4.663
 1444TIP3    H1 4296   2.695   0.643   4.568
 1444TIP3    H2 4297   2.746   0.719   4.689
 1445TIP3   OH2 4298   4.912   1.080   4.272
 1445TIP3    H1 4299   4.971   1.132   4.328
 1445TIP3    H2 4300   4.923   1.118   4.184
 1446TIP3   OH2 4301   6.018   5.133   5.616
 1446TIP3    H1 4302   6.092   5.193   5.604
 1446TIP3    H2 4303   5.999   5.137   5.710
 1447TIP3   OH2 4304   3.046   1.542  -0.012
 1447TIP3    H1 4305   3.029   1.630  -0.044
 1447TIP3    H2 4306   2.978   1.528   0.055
 1448TIP3   OH2 4307   4.698   1.022   4.875
 1448TIP3    H1 4308   4.652   1.095   4.834
 1448TIP3    H2 4309   4.630   0.970   4.917
 1449TIP3   OH2 4310   3.791   6.085   0.091
 1449TIP3    H1 4311   3.732   6.146   0.047
 1449TIP3    H2 4312   3.749   6.068   0.175
 1450TIP3   OH2 4313   3.929   3.790   2.254
 1450TIP3    H1 4314   3.923   3.695   2.264
 1450TIP3    H2 4315   4.002   3.816   2.310
 1451TIP3   OH2 4316   5.131   3.676   4.542
 1451TIP3    H1 4317   5.203   3.621   4.573
 1451TIP3    H2 4318   5.174   3.747   4.495
 1452TIP3   OH2 4319   0.807   4.442   4.089
 1452TIP3    H1 4320   0.754   4.407   4.159
 1452TIP3    H2 4321   0.846   4.522   4.126
 1453TIP3   OH2 4322   0.185   3.598   0.223
 1453TIP3    H1 4323   0.214   3.535   0.290
 1453TIP3    H2 4324   0.243   3.582   0.149
 1454TIP3   OH2 4325   5.779   4.990   2.894
 1454TIP3    H1 4326   5.691   5.025   2.907
 1454TIP3    H2 4327   5.799   5.008   2.802
 1455TIP3   OH2 4328   1.982   3.624   1.034
 1455TIP3    H1 4329   2.049   3.674   0.988
 1455TIP3    H2 4330   1.944   3.568   0.966
 1456TIP3   OH2 4331   4.531   4.877   0.129
 1456TIP3    H1 4332   4.626   4.866   0.124
 1456TIP3    H2 4333   4.510   4.931   0.052
 1457TIP3   OH2 4334   6.233   3.923   4.789
 1457TIP3    H1 4335   6.142   3.939   4.815
 1457TIP3    H2 4336   6.239   3.828   4.781
 1458TIP3   OH2 4337   1.018   0.296   3.707
 1458TIP3    H1 4338   1.053   0.367   3.653
 1458TIP3    H2 4339   1.049   0.216   3.665
 1459TIP3   OH2 4340   1.655   2.269   2.892
 1459TIP3    H1 4341   1.608   2.348   2.864
 1459TIP3    H2 4342   1.622   2.200   2.835
 1460TIP3   OH2 4343   5.208   0.888   4.058
 1460TIP3    H1 4344   5.139   0.829   4.087
 1460TIP3    H2 4345   5.171   0.976   4.066
 1461TIP3   OH2 4346   4.945   6.001   2.922
 1461TIP3    H1 4347   4.872   5.990   2.983
 1461TIP3    H2 4348   5.019   6.028   2.977
 1462TIP3   OH2 4349   1.405   3.742   3.620
 1462TIP3    H1 4350   1.423   3.657   3.660
 1462TIP3    H2 4351   1.402   3.803   3.694
 1463TIP3   OH2 4352   3.558   4.241   5.528
 1463TIP3    H1 4353   3.606   4.322   5.542
 1463TIP3    H2 4354   3.625   4.173   5.522
 1464TIP3   OH2 4355   1.560   3.519   4.423
 1464TIP3    H1 4356   1.471   3.484   4.416
 1464TIP3    H2 4357   1.570   3.543   4.515
 1465TIP3   OH2 4358   1.438   6.310   0.402
 1465TIP3    H1 4359   1.476   6.338   0.318
 1465TIP3    H2 4360   1.355   6.270   0.378
 1466TIP3   OH2 4361   4.748   1.781   3.241
 1466TIP3    H1 4362   4.712   1.868   3.223
 1466TIP3    H2 4363   4.775   1.748   3.155
 1467TIP3   OH2 4364   1.444   1.878   2.881
 1467TIP3    H1 4365   1.478   1.802   2.834
 1467TIP3    H2 4366   1.450   1.950   2.818
 1468TIP3   OH2 4367   1.691   3.122   1.109
 1468TIP3    H1 4368   1.752   3.173   1.163
 1468TIP3    H2 4369   1.637   3.075   1.172
 1469TIP3   OH2 4370   5.889   1.296   0.702
 1469TIP3    H1 4371   5.893   1.376   0.754
 1469TIP3    H2 4372   5.979   1.279   0.676
 1470TIP3   OH2 4373   4.117   3.477   4.319
 1470TIP3    H1 4374   4.037   3.530   4.323
 1470TIP3    H2 4375   4.113   3.435   4.233
 1471TIP3   OH2 4376   4.998   5.838   1.549
 1471TIP3    H1 4377   5.029   5.764   1.497
 1471TIP3    H2 4378   5.068   5.856   1.611
 1472TIP3   OH2 4379   0.938   0.279   2.488
 1472TIP3    H1 4380   0.978   0.201   2.449
 1472TIP3    H2 4381   0.971   0.281   2.578
 1473TIP3   OH2 4382   3.792   1.841   1.726
 1473TIP3    H1 4383   3.790   1.749   1.752
 1473TIP3    H2 4384   3.768   1.840   1.634
 1474TIP3   OH2 4385   5.022   1.821   4.269
 1474TIP3    H1 4386   5.002   1.891   4.207
 1474TIP3    H2 4387   4.950   1.758   4.258
 1475TIP3   OH2 4388   3.844   1.283   2.329
 1475TIP3    H1 4389   3.772   1.227   2.358
 1475TIP3    H2 4390   3.815   1.317   2.244
 1476TIP3   OH2 4391   2.041   2.373   3.201
 1476TIP3    H1 4392   2.108   2.385   3.133
 1476TIP3    H2 4393   2.070   2.296   3.250
 1477TIP3   OH2 4394   4.767   4.461   1.757
 1477TIP3    H1 4395   4.827   4.534   1.773
 1477TIP3    H2 4396   4.746   4.427   1.844
 1478TIP3   OH2 4397   1.404   5.412   5.685
 1478TIP3    H1 4398   1.489   5.435   5.647
 1478TIP3    H2 4399   1.418   5.413   5.779
 1479TIP3   OH2 4400   6.496   1.614   2.518
 1479TIP3    H1 4401   6.438   1.540   2.501
 1479TIP3    H2 4402   6.441   1.677   2.566
 1480TIP3   OH2 4403   1.749   3.037   3.572
 1480TIP3    H1 4404   1.778   3.044   3.663
 1480TIP3    H2 4405   1.829   3.047   3.520
 1481TIP3   OH2 4406   3.580   5.059   4.283
 1481TIP3    H1 4407   3.593   5.083   4.191
 1481TIP3    H2 4408   3.625   4.976   4.294
 1482TIP3   OH2 4409   4.439   0.696   2.029
 1482TIP3    H1 4410   4.461   0.694   2.122
 1482TIP3    H2 4411   4.522   0.713   1.984
 1483TIP3   OH2 4412   6.689   1.123   1.200
 1483TIP3    H1 4413   6.745   1.164   1.266
 1483TIP3    H2 4414   6.722   1.033   1.193
 1484TIP3   OH2 4415   5.786   0.545   0.918
 1484TIP3    H1 4416   5.761   0.608   0.850
 1484TIP3    H2 4417   5.872   0.514   0.891
 1485TIP3   OH2 4418   2.368   0.732   0.081
 1485TIP3    H1 4419   2.437   0.731   0.148
 1485TIP3    H2 4420   2.415   0.753  -0.001
 1486TIP3   OH2 4421   5.835   1.652   1.036
 1486TIP3    H1 4422   5.916   1.621   0.996
 1486TIP3    H2 4423   5.811   1.584   1.098
 1487TIP3   OH2 4424   1.263   2.182   1.182
 1487TIP3    H1 4425   1.248   2.272   1.212
 1487TIP3    H2 4426   1.328   2.147   1.242
 1488TIP3   OH2 4427   6.565   3.682   5.718
 1488TIP3    H1 4428   6.641   3.739   5.710
 1488TIP3    H2 4429   6.588   3.603   5.668
 1489TIP3   OH2 4430   1.152   1.352   4.399
 1489TIP3    H1 4431   1.186   1.295   4.468
 1489TIP3    H2 4432   1.078   1.397   4.440
 1490TIP3   OH2 4433   4.531   5.624   1.983
 1490TIP3    H1 4434   4.527   5.531   2.005
 1490TIP3    H2 4435   4.449   5.661   2.018
 1491TIP3   OH2 4436   6.305   3.667   3.486
 1491TIP3    H1 4437   6.351   3.622   3.416
 1491TIP3    H2 4438   6.219   3.625   3.490
 1492TIP3   OH2 4439   6.250   0.775   4.622
 1492TIP3    H1 4440   6.318   0.719   4.659
 1492TIP3    H2 4441   6.194   0.716   4.572
 1493TIP3   OH2 4442   2.339   3.831   0.307
 1493TIP3    H1 4443   2.288   3.751   0.312
 1493TIP3    H2 4444   2.278   3.896   0.271
 1494TIP3   OH2 4445   2.741   1.168   3.235
 1494TIP3    H1 4446   2.777   1.245   3.190
 1494TIP3    H2 4447   2.816   1.109   3.245
 1495TIP3   OH2 4448   4.381   0.169   5.135
 1495TIP3    H1 4449   4.460   0.128   5.101
 1495TIP3    H2 4450   4.408   0.209   5.218
 1496TIP3   OH2 4451   4.128   4.943   3.986
 1496TIP3    H1 4452   4.121   5.000   3.909
 1496TIP3    H2 4453   4.038   4.934   4.017
 1497TIP3   OH2 4454   3.505   1.016   4.816
 1497TIP3    H1 4455   3.437   1.078   4.791
 1497TIP3    H2 4456   3.555   1.002   4.735
 1498TIP3   OH2 4457   6.853   2.543   3.398
 1498TIP3    H1 4458   6.931   2.490   3.416
 1498TIP3    H2 4459   6.879   2.600   3.325
 1499TIP3   OH2 4460   6.672   2.553   1.351
 1499TIP3    H1 4461   6.695   2.477   1.298
 1499TIP3    H2 4462   6.638   2.515   1.432
 1500TIP3   OH2 4463   5.542   5.728   5.574
 1500TIP3    H1 4464   5.626   5.759   5.606
 1500TIP3    H2 4465   5.553   5.721   5.479
 1501TIP3   OH2 4466   5.203   4.536   1.803
 1501TIP3    H1 4467   5.208   4.450   1.762
 1501TIP3    H2 4468   5.130   4.579   1.758
 1502TIP3   OH2 4469   0.433   3.584   1.195
 1502TIP3    H1 4470   0.416   3.505   1.144
 1502TIP3    H2 4471   0.348   3.628   1.200
 1503TIP3   OH2 4472   4.928   6.604   4.838
 1503TIP3    H1 4473   4.963   6.517   4.854
 1503TIP3    H2 4474   4.987   6.664   4.883
 1504TIP3   OH2 4475   2.019   4.032   1.831
 1504TIP3    H1 4476   2.082   3.986   1.887
 1504TIP3    H2 4477   1.939   4.036   1.883
 1505TIP3   OH2 4478   4.602   4.146   2.765
 1505TIP3    H1 4479   4.669   4.078   2.760
 1505TIP3    H2 4480   4.545   4.128   2.690
 1506TIP3   OH2 4481   4.427   2.119   2.736
 1506TIP3    H1 4482   4.386   2.046   2.783
 1506TIP3    H2 4483   4.421   2.193   2.797
 1507TIP3   OH2 4484   1.635   6.324   3.976
 1507TIP3    H1 4485   1.606   6.236   3.998
 1507TIP3    H2 4486   1.704   6.343   4.041
 1508TIP3   OH2 4487   3.050   4.276   3.732
 1508TIP3    H1 4488   2.982   4.336   3.762
 1508TIP3    H2 4489   3.038   4.197   3.784
 1509TIP3   OH2 4490   4.548   4.365   5.337
 1509TIP3    H1 4491   4.486   4.294   5.319
 1509TIP3    H2 4492   4.631   4.334   5.300
 1510TIP3   OH2 4493   0.184   0.911   1.076
 1510TIP3    H1 4494   0.162   0.818   1.071
 1510TIP3    H2 4495   0.191   0.940   0.985
 1511TIP3   OH2 4496   4.160   5.628   4.629
 1511TIP3    H1 4497   4.066   5.617   4.646
 1511TIP3    H2 4498   4.181   5.559   4.565
 1512TIP3   OH2 4499   2.186   1.940   1.686
 1512TIP3    H1 4500   2.219   1.894   1.763
 1512TIP3    H2 4501   2.211   2.032   1.701
 1513TIP3   OH2 4502   6.863   6.272   5.741
 1513TIP3    H1 4503   6.799   6.262   5.670
 1513TIP3    H2 4504   6.860   6.188   5.787
 1514TIP3   OH2 4505   6.162   2.727   3.656
 1514TIP3    H1 4506   6.221   2.800   3.640
 1514TIP3    H2 4507   6.213   2.665   3.707
 1515TIP3   OH2 4508   3.421   6.332   4.903
 1515TIP3    H1 4509   3.454   6.276   4.833
 1515TIP3    H2 4510   3.328   6.342   4.885
 1516TIP3   OH2 4511   3.474   0.438   0.135
 1516TIP3    H1 4512   3.557   0.484   0.125
 1516TIP3    H2 4513   3.424   0.491   0.196
 1517TIP3   OH2 4514   1.284   5.773   3.584
 1517TIP3    H1 4515   1.318   5.826   3.657
 1517TIP3    H2 4516   1.361   5.753   3.532
 1518TIP3   OH2 4517   3.334   5.420   5.192
 1518TIP3    H1 4518   3.283   5.501   5.192
 1518TIP3    H2 4519   3.289   5.364   5.129
 1519TIP3   OH2 4520   6.474  -0.020   1.755
 1519TIP3    H1 4521   6.421   0.052   1.789
 1519TIP3    H2 4522   6.530  -0.047   1.827
 1520TIP3   OH2 4523   1.375   0.554   3.915
 1520TIP3    H1 4524   1.452   0.500   3.895
 1520TIP3    H2 4525   1.342   0.580   3.829
 1521TIP3   OH2 4526   6.823   1.187   2.766
 1521TIP3    H1 4527   6.848   1.187   2.858
 1521TIP3    H2 4528   6.762   1.260   2.758
 1522TIP3   OH2 4529   3.747   3.061   5.477
 1522TIP3    H1 4530   3.838   3.042   5.499
 1522TIP3    H2 4531   3.746   3.069   5.382
 1523TIP3   OH2 4532   4.769   0.469   5.774
 1523TIP3    H1 4533   4.831   0.399   5.793
 1523TIP3    H2 4534   4.806   0.514   5.698
 1524TIP3   OH2 4535   5.347   6.480   4.318
 1524TIP3    H1 4536   5.406   6.476   4.243
 1524TIP3    H2 4537   5.321   6.390   4.333
 1525TIP3   OH2 4538   5.718   2.908   1.347
 1525TIP3    H1 4539   5.700   2.946   1.433
 1525TIP3    H2 4540   5.810   2.885   1.349
 1526TIP3   OH2 4541   3.520   6.567   3.493
 1526TIP3    H1 4542   3.586   6.586   3.427
 1526TIP3    H2 4543   3.481   6.652   3.514
 1527TIP3   OH2 4544   5.409   2.162   1.184
 1527TIP3    H1 4545   5.485   2.105   1.174
 1527TIP3    H2 4546   5.344   2.108   1.229
 1528TIP3   OH2 4547   6.939   4.817   2.807
 1528TIP3    H1 4548   6.853   4.857   2.817
 1528TIP3    H2 4549   6.960   4.782   2.893
 1529TIP3   OH2 4550   1.781   1.067   1.811
 1529TIP3    H1 4551   1.734   0.989   1.842
 1529TIP3    H2 4552   1.769   1.131   1.882
 1530TIP3   OH2 4553   1.155   3.145   5.585
 1530TIP3    H1 4554   1.203   3.179   5.661
 1530TIP3    H2 4555   1.157   3.050   5.596
 1531TIP3   OH2 4556   3.356   2.915   2.306
 1531TIP3    H1 4557   3.353   2.912   2.211
 1531TIP3    H2 4558   3.420   2.983   2.326
 1532TIP3   OH2 4559   0.861   6.232   2.430
 1532TIP3    H1 4560   0.801   6.196   2.496
 1532TIP3    H2 4561   0.943   6.244   2.478
 1533TIP3   OH2 4562   6.803   0.807   4.234
 1533TIP3    H1 4563   6.884   0.773   4.271
 1533TIP3    H2 4564   6.793   0.893   4.275
 1534TIP3   OH2 4565   2.228   6.075   4.720
 1534TIP3    H1 4566   2.170   6.090   4.795
 1534TIP3    H2 4567   2.314   6.062   4.759
 1535TIP3   OH2 4568   3.225   4.199   5.695
 1535TIP3    H1 4569   3.281   4.134   5.739
 1535TIP3    H2 4570   3.137   4.179   5.725
 1536TIP3   OH2 4571   7.110   4.794   1.950
 1536TIP3    H1 4572   7.178   4.747   2.000
 1536TIP3    H2 4573   7.127   4.886   1.968
 1537TIP3   OH2 4574   7.187   6.097   4.729
 1537TIP3    H1 4575   7.215   6.082   4.639
 1537TIP3    H2 4576   7.149   6.013   4.756
 1538TIP3   OH2 4577   3.331   5.305   2.675
 1538TIP3    H1 4578   3.344   5.399   2.688
 1538TIP3    H2 4579   3.247   5.287   2.717
 1539TIP3   OH2 4580   1.678   1.282   3.284
 1539TIP3    H1 4581   1.727   1.354   3.324
 1539TIP3    H2 4582   1.600   1.324   3.247
 1540TIP3   OH2 4583   4.285   0.260   3.891
 1540TIP3    H1 4584   4.307   0.332   3.832
 1540TIP3    H2 4585   4.366   0.245   3.941
 1541TIP3   OH2 4586   6.589   3.693   0.095
 1541TIP3    H1 4587   6.679   3.684   0.126
 1541TIP3    H2 4588   6.593   3.757   0.025
 1542TIP3   OH2 4589   4.740   2.441   1.036
 1542TIP3    H1 4590   4.773   2.369   1.090
 1542TIP3    H2 4591   4.814   2.502   1.031
 1543TIP3   OH2 4592   0.568   0.746   2.536
 1543TIP3    H1 4593   0.633   0.678   2.556
 1543TIP3    H2 4594   0.525   0.715   2.456
 1544TIP3   OH2 4595   4.128   2.020   2.728
 1544TIP3    H1 4596   4.107   1.977   2.812
 1544TIP3    H2 4597   4.129   2.113   2.749
 1545TIP3   OH2 4598   0.212   2.518   1.583
 1545TIP3    H1 4599   0.199   2.425   1.604
 1545TIP3    H2 4600   0.157   2.565   1.646
 1546TIP3   OH2 4601   4.369   1.525   0.035
 1546TIP3    H1 4602   4.410   1.607   0.064
 1546TIP3    H2 4603   4.443   1.466   0.018
 1547TIP3   OH2 4604   5.829   3.557   1.417
 1547TIP3    H1 4605   5.875   3.640   1.406
 1547TIP3    H2 4606   5.745   3.582   1.455
 1548TIP3   OH2 4607   2.964   2.598   4.544
 1548TIP3    H1 4608   2.914   2.519   4.562
 1548TIP3    H2 4609   2.927   2.664   4.603
 1549TIP3   OH2 4610   0.677   1.837   4.253
 1549TIP3    H1 4611   0.725   1.909   4.212
 1549TIP3    H2 4612   0.710   1.834   4.343
 1550TIP3   OH2 4613   1.052   1.287   0.057
 1550TIP3    H1 4614   0.998   1.213   0.029
 1550TIP3    H2 4615   1.120   1.247   0.112
 1551TIP3   OH2 4616   2.420   1.517   0.773
 1551TIP3    H1 4617   2.339   1.466   0.785
 1551TIP3    H2 4618   2.397   1.583   0.707
 1552TIP3   OH2 4619   6.106   0.701   4.205
 1552TIP3    H1 4620   6.166   0.627   4.206
 1552TIP3    H2 4621   6.086   0.714   4.112
 1553TIP3   OH2 4622   5.856   6.473   3.184
 1553TIP3    H1 4623   5.887   6.509   3.101
 1553TIP3    H2 4624   5.908   6.393   3.197
 1554TIP3   OH2 4625   2.577   1.188   4.637
 1554TIP3    H1 4626   2.568   1.243   4.715
 1554TIP3    H2 4627   2.577   1.250   4.564
 1555TIP3   OH2 4628   6.390   0.785   0.604
 1555TIP3    H1 4629   6.355   0.840   0.534
 1555TIP3    H2 4630   6.332   0.710   0.608
 1556TIP3   OH2 4631   6.029   3.827   2.905
 1556TIP3    H1 4632   6.112   3.779   2.908
 1556TIP3    H2 4633   5.963   3.760   2.889
 1557TIP3   OH2 4634   1.050   1.737   1.428
 1557TIP3    H1 4635   1.073   1.810   1.371
 1557TIP3    H2 4636   1.027   1.665   1.368
 1558TIP3   OH2 4637   5.645   6.685   1.704
 1558TIP3    H1 4638   5.605   6.764   1.667
 1558TIP3    H2 4639   5.729   6.715   1.740
 1559TIP3   OH2 4640   6.803   1.842   0.116
 1559TIP3    H1 4641   6.797   1.800   0.202
 1559TIP3    H2 4642   6.869   1.910   0.127
 1560TIP3   OH2 4643   2.089   1.779   4.932
 1560TIP3    H1 4644   2.033   1.855   4.944
 1560TIP3    H2 4645   2.087   1.734   5.016
 1561TIP3   OH2 4646   3.512   5.941   5.017
 1561TIP3    H1 4647   3.576   5.914   5.083
 1561TIP3    H2 4648   3.564   5.968   4.942
 1562TIP3   OH2 4649   1.161   6.350   5.405
 1562TIP3    H1 4650   1.249   6.371   5.373
 1562TIP3    H2 4651   1.170   6.264   5.446
 1563TIP3   OH2 4652   4.878   3.237   5.801
 1563TIP3    H1 4653   4.942   3.307   5.787
 1563TIP3    H2 4654   4.905   3.196   5.883
 1564TIP3   OH2 4655   1.801   0.129   3.385
 1564TIP3    H1 4656   1.885   0.163   3.354
 1564TIP3    H2 4657   1.825   0.072   3.459
 1565TIP3   OH2 4658   6.466   3.054   4.130
 1565TIP3    H1 4659   6.512   2.973   4.110
 1565TIP3    H2 4660   6.471   3.061   4.225
 1566TIP3   OH2 4661   4.515   2.780   0.526
 1566TIP3    H1 4662   4.558   2.842   0.467
 1566TIP3    H2 4663   4.508   2.700   0.475
 1567TIP3   OH2 4664   6.840   4.843   2.281
 1567TIP3    H1 4665   6.881   4.830   2.367
 1567TIP3    H2 4666   6.882   4.778   2.225
 1568TIP3   OH2 4667   3.083   0.646   5.112
 1568TIP3    H1 4668   3.023   0.591   5.061
 1568TIP3    H2 4669   3.092   0.601   5.196
 1569TIP3   OH2 4670   2.210   5.790   0.577
 1569TIP3    H1 4671   2.302   5.766   0.562
 1569TIP3    H2 4672   2.175   5.718   0.630
 1570TIP3   OH2 4673   0.587   1.931   0.390
 1570TIP3    H1 4674   0.548   1.997   0.447
 1570TIP3    H2 4675   0.599   1.976   0.306
 1571TIP3   OH2 4676   6.620   3.342   5.064
 1571TIP3    H1 4677   6.633   3.247   5.075
 1571TIP3    H2 4678   6.671   3.365   4.987
 1572TIP3   OH2 4679   0.844   2.054   5.702
 1572TIP3    H1 4680   0.903   1.978   5.710
 1572TIP3    H2 4681   0.903   2.127   5.681
 1573TIP3   OH2 4682   3.143   1.286   5.540
 1573TIP3    H1 4683   3.055   1.261   5.569
 1573TIP3    H2 4684   3.136   1.378   5.515
 1574TIP3   OH2 4685   4.373   4.525   4.704
 1574TIP3    H1 4686   4.466   4.549   4.699
 1574TIP3    H2 4687   4.360   4.501   4.795
 1575TIP3   OH2 4688   3.787   6.498   4.580
 1575TIP3    H1 4689   3.862   6.525   4.528
 1575TIP3    H2 4690   3.714   6.551   4.546
 1576TIP3   OH2 4691   6.416   1.498   0.377
 1576TIP3    H1 4692   6.432   1.509   0.283
 1576TIP3    H2 4693   6.383   1.584   0.405
 1577TIP3   OH2 4694   0.509   3.987   0.096
 1577TIP3    H1 4695   0.584   3.942   0.134
 1577TIP3    H2 4696   0.463   3.920   0.046
 1578TIP3   OH2 4697   3.286   6.197   1.204
 1578TIP3    H1 4698   3.207   6.219   1.253
 1578TIP3    H2 4699   3.302   6.105   1.224
 1579TIP3   OH2 4700   4.198   3.882   5.012
 1579TIP3    H1 4701   4.139   3.950   5.044
 1579TIP3    H2 4702   4.160   3.853   4.930
 1580TIP3   OH2 4703   7.008   0.657   4.373
 1580TIP3    H1 4704   7.069   0.614   4.312
 1580TIP3    H2 4705   6.977   0.587   4.429
 1581TIP3   OH2 4706   0.735   1.174   3.881
 1581TIP3    H1 4707   0.807   1.236   3.875
 1581TIP3    H2 4708   0.769   1.103   3.936
 1582TIP3   OH2 4709   6.883   5.950   3.134
 1582TIP3    H1 4710   6.830   5.995   3.068
 1582TIP3    H2 4711   6.821   5.926   3.203
 1583TIP3   OH2 4712   5.320   6.173   2.964
 1583TIP3    H1 4713   5.264   6.132   3.030
 1583TIP3    H2 4714   5.265   6.177   2.886
 1584TIP3   OH2 4715   3.084   4.926   5.064
 1584TIP3    H1 4716   2.990   4.946   5.056
 1584TIP3    H2 4717   3.086   4.831   5.077
 1585TIP3   OH2 4718   1.685   2.114   5.749
 1585TIP3    H1 4719   1.766   2.162   5.767
 1585TIP3    H2 4720   1.628   2.134   5.823
 1586TIP3   OH2 4721   7.006   1.357   5.393
 1586TIP3    H1 4722   6.954   1.431   5.425
 1586TIP3    H2 4723   7.035   1.313   5.473
 1587TIP3   OH2 4724   0.412   1.745   3.456
 1587TIP3    H1 4725   0.334   1.760   3.402
 1587TIP3    H2 4726   0.451   1.665   3.420
 1588TIP3   OH2 4727   6.400   1.373   1.992
 1588TIP3    H1 4728   6.383   1.436   1.922
 1588TIP3    H2 4729   6.484   1.333   1.969
 1589TIP3   OH2 4730   5.329   4.024   4.188
 1589TIP3    H1 4731   5.289   4.066   4.264
 1589TIP3    H2 4732   5.310   4.082   4.115
 1590TIP3   OH2 4733   3.284   3.872   2.627
 1590TIP3    H1 4734   3.197   3.892   2.662
 1590TIP3    H2 4735   3.297   3.779   2.645
 1591TIP3   OH2 4736   7.006   6.152   0.576
 1591TIP3    H1 4737   7.063   6.075   0.571
 1591TIP3    H2 4738   6.930   6.122   0.625
 1592TIP3   OH2 4739   5.778   0.733   3.229
 1592TIP3    H1 4740   5.867   0.697   3.229
 1592TIP3    H2 4741   5.727   0.671   3.177
 1593TIP3   OH2 4742   4.384   1.976   5.882
 1593TIP3    H1 4743   4.314   2.019   5.833
 1593TIP3    H2 4744   4.348   1.889   5.902
 1594TIP3   OH2 4745   3.667   0.031   2.020
 1594TIP3    H1 4746   3.724   0.063   1.949
 1594TIP3    H2 4747   3.700  -0.057   2.039
 1595TIP3   OH2 4748   3.898   3.313   5.041
 1595TIP3    H1 4749   3.911   3.401   5.077
 1595TIP3    H2 4750   3.895   3.255   5.117
 1596TIP3   OH2 4751   5.265   5.174   1.553
 1596TIP3    H1 4752   5.226   5.095   1.590
 1596TIP3    H2 4753   5.227   5.179   1.465
 1597TIP3   OH2 4754   4.185   0.888   0.070
 1597TIP3    H1 4755   4.263   0.841   0.099
 1597TIP3    H2 4756   4.214   0.979   0.062
 1598TIP3   OH2 4757   6.320   1.286   5.683
 1598TIP3    H1 4758   6.289   1.241   5.762
 1598TIP3    H2 4759   6.240   1.318   5.641
 1599TIP3   OH2 4760   5.374   2.336   5.256
 1599TIP3    H1 4761   5.294   2.307   5.211
 1599TIP3    H2 4762   5.379   2.430   5.238
 1600TIP3   OH2 4763   3.367   0.341   4.859
 1600TIP3    H1 4764   3.365   0.318   4.951
 1600TIP3    H2 4765   3.460   0.337   4.836
 1601TIP3   OH2 4766   2.045   5.195   5.121
 1601TIP3    H1 4767   2.129   5.151   5.138
 1601TIP3    H2 4768   2.069   5.273   5.071
 1602TIP3   OH2 4769   4.443   6.549   4.639
 1602TIP3    H1 4770   4.531   6.557   4.675
 1602TIP3    H2 4771   4.388   6.599   4.699
 1603TIP3   OH2 4772   7.256   5.125   3.990
 1603TIP3    H1 4773   7.303   5.119   4.073
 1603TIP3    H2 4774   7.287   5.050   3.939
 1604TIP3   OH2 4775   6.504   2.655   1.716
 1604TIP3    H1 4776   6.592   2.691   1.702
 1604TIP3    H2 4777   6.448   2.702   1.654
 1605TIP3   OH2 4778   5.508   0.202   4.092
 1605TIP3    H1 4779   5.517   0.295   4.113
 1605TIP3    H2 4780   5.456   0.200   4.012
 1606TIP3   OH2 4781   6.358   2.215   4.130
 1606TIP3    H1 4782   6.344   2.164   4.050
 1606TIP3    H2 4783   6.439   2.180   4.167
 1607TIP3   OH2 4784   3.621   6.077   4.789
 1607TIP3    H1 4785   3.699   6.131   4.775
 1607TIP3    H2 4786   3.651   5.987   4.777
 1608TIP3   OH2 4787   1.849   6.620   3.894
 1608TIP3    H1 4788   1.871   6.708   3.863
 1608TIP3    H2 4789   1.757   6.609   3.873
 1609TIP3   OH2 4790   3.801   3.367   3.539
 1609TIP3    H1 4791   3.768   3.359   3.628
 1609TIP3    H2 4792   3.723   3.360   3.484
 1610TIP3   OH2 4793   3.092   2.656   4.125
 1610TIP3    H1 4794   3.023   2.718   4.148
 1610TIP3    H2 4795   3.085   2.587   4.191
 1611TIP3   OH2 4796   3.816   2.721   1.406
 1611TIP3    H1 4797   3.897   2.744   1.361
 1611TIP3    H2 4798   3.840   2.646   1.461
 1612TIP3   OH2 4799   5.618   1.373   2.593
 1612TIP3    H1 4800   5.586   1.355   2.681
 1612TIP3    H2 4801   5.672   1.297   2.570
 1613TIP3   OH2 4802   0.552   2.430   3.133
 1613TIP3    H1 4803   0.488   2.495   3.102
 1613TIP3    H2 4804   0.636   2.474   3.125
 1614TIP3   OH2 4805   4.545   0.768   3.933
 1614TIP3    H1 4806   4.624   0.820   3.949
 1614TIP3    H2 4807   4.504   0.759   4.019
 1615TIP3   OH2 4808   6.187   5.112   1.549
 1615TIP3    H1 4809   6.266   5.107   1.496
 1615TIP3    H2 4810   6.217   5.135   1.636
 1616TIP3   OH2 4811   4.216   2.251   1.262
 1616TIP3    H1 4812   4.231   2.260   1.356
 1616TIP3    H2 4813   4.289   2.196   1.232
 1617TIP3   OH2 4814   2.461   4.671   4.904
 1617TIP3    H1 4815   2.524   4.608   4.869
 1617TIP3    H2 4816   2.382   4.619   4.920
 1618TIP3   OH2 4817   3.740   2.514   3.899
 1618TIP3    H1 4818   3.724   2.533   3.807
 1618TIP3    H2 4819   3.831   2.540   3.914
 1619TIP3   OH2 4820   6.792   0.984   5.155
 1619TIP3    H1 4821   6.709   1.006   5.113
 1619TIP3    H2 4822   6.784   1.018   5.244
 1620TIP3   OH2 4823   0.242   3.972   1.933
 1620TIP3    H1 4824   0.285   3.888   1.919
 1620TIP3    H2 4825   0.310   4.037   1.915
 1621TIP3   OH2 4826   2.826   6.178   1.009
 1621TIP3    H1 4827   2.756   6.119   1.037
 1621TIP3    H2 4828   2.829   6.246   1.077
 1622TIP3   OH2 4829   5.506   3.184   3.019
 1622TIP3    H1 4830   5.514   3.271   2.978
 1622TIP3    H2 4831   5.449   3.135   2.960
 1623TIP3   OH2 4832   3.910   4.690   4.254
 1623TIP3    H1 4833   3.893   4.685   4.160
 1623TIP3    H2 4834   3.997   4.652   4.265
 1624TIP3   OH2 4835   0.796   1.218   4.523
 1624TIP3    H1 4836   0.702   1.206   4.509
 1624TIP3    H2 4837   0.804   1.248   4.613
 1625TIP3   OH2 4838   6.519   0.292   2.381
 1625TIP3    H1 4839   6.505   0.198   2.373
 1625TIP3    H2 4840   6.464   0.318   2.456
 1626TIP3   OH2 4841   2.162   4.341   5.687
 1626TIP3    H1 4842   2.189   4.417   5.636
 1626TIP3    H2 4843   2.243   4.291   5.700
 1627TIP3   OH2 4844   3.366   1.153   1.323
 1627TIP3    H1 4845   3.441   1.143   1.264
 1627TIP3    H2 4846   3.306   1.210   1.276
 1628TIP3   OH2 4847   0.277   0.924   2.816
 1628TIP3    H1 4848   0.259   0.846   2.764
 1628TIP3    H2 4849   0.207   0.927   2.882
 1629TIP3   OH2 4850   0.303   2.277   4.480
 1629TIP3    H1 4851   0.214   2.274   4.445
 1629TIP3    H2 4852   0.296   2.239   4.567
 1630TIP3   OH2 4853   0.154   1.752   3.766
 1630TIP3    H1 4854   0.137   1.678   3.708
 1630TIP3    H2 4855   0.073   1.764   3.815
 1631TIP3   OH2 4856   7.027   2.043   4.754
 1631TIP3    H1 4857   6.986   2.071   4.673
 1631TIP3    H2 4858   7.011   2.114   4.816
 1632TIP3   OH2 4859   6.789   2.381   4.658
 1632TIP3    H1 4860   6.868   2.378   4.711
 1632TIP3    H2 4861   6.789   2.298   4.610
 1633TIP3   OH2 4862   3.050   2.737   4.869
 1633TIP3    H1 4863   2.985   2.760   4.803
 1633TIP3    H2 4864   3.034   2.798   4.941
 1634TIP3   OH2 4865   5.731   3.058   5.848
 1634TIP3    H1 4866   5.669   3.130   5.837
 1634TIP3    H2 4867   5.678   2.986   5.883
 1635TIP3   OH2 4868   1.936   1.625   4.734
 1635TIP3    H1 4869   1.873   1.604   4.803
 1635TIP3    H2 4870   1.973   1.710   4.760
 1636TIP3   OH2 4871   5.867   1.340   5.896
 1636TIP3    H1 4872   5.793   1.398   5.880
 1636TIP3    H2 4873   5.854   1.267   5.836
 1637TIP3   OH2 4874   0.325   2.394   5.721
 1637TIP3    H1 4875   0.352   2.420   5.809
 1637TIP3    H2 4876   0.239   2.353   5.733
 1638TIP3   OH2 4877   4.752   4.359   2.008
 1638TIP3    H1 4878   4.762   4.264   2.013
 1638TIP3    H2 4879   4.772   4.389   2.097
 1639TIP3   OH2 4880   4.274   5.183   0.283
 1639TIP3    H1 4881   4.250   5.209   0.194
 1639TIP3    H2 4882   4.231   5.248   0.339
 1640TIP3   OH2 4883   0.164   0.995   0.795
 1640TIP3    H1 4884   0.148   0.906   0.764
 1640TIP3    H2 4885   0.243   1.022   0.747
 1641TIP3   OH2 4886   5.216   4.519   5.050
 1641TIP3    H1 4887   5.170   4.516   4.966
 1641TIP3    H2 4888   5.204   4.608   5.082
 1642TIP3   OH2 4889   2.773   2.923   0.112
 1642TIP3    H1 4890   2.791   3.017   0.108
 1642TIP3    H2 4891   2.727   2.904   0.030
 1643TIP3   OH2 4892   3.679   3.409   4.440
 1643TIP3    H1 4893   3.644   3.321   4.427
 1643TIP3    H2 4894   3.730   3.403   4.521
 1644TIP3   OH2 4895   0.330   1.016   2.189
 1644TIP3    H1 4896   0.324   1.077   2.116
 1644TIP3    H2 4897   0.423   1.009   2.207
 1645TIP3   OH2 4898   2.588   1.003   0.375
 1645TIP3    H1 4899   2.586   0.907   0.373
 1645TIP3    H2 4900   2.503   1.030   0.340
 1646TIP3   OH2 4901   1.045   2.875   1.550
 1646TIP3    H1 4902   0.988   2.800   1.570
 1646TIP3    H2 4903   1.091   2.891   1.632
 1647TIP3   OH2 4904   3.371   2.178   2.778
 1647TIP3    H1 4905   3.437   2.117   2.811
 1647TIP3    H2 4906   3.416   2.225   2.707
 1648TIP3   OH2 4907   3.217   3.288   1.278
 1648TIP3    H1 4908   3.143   3.339   1.312
 1648TIP3    H2 4909   3.206   3.201   1.315
 1649TIP3   OH2 4910   5.497   2.349   0.279
 1649TIP3    H1 4911   5.462   2.408   0.345
 1649TIP3    H2 4912   5.446   2.368   0.200
 1650TIP3   OH2 4913   6.586   0.613   2.566
 1650TIP3    H1 4914   6.624   0.656   2.643
 1650TIP3    H2 4915   6.639   0.535   2.554
 1651TIP3   OH2 4916   1.485   4.809   0.640
 1651TIP3    H1 4917   1.401   4.771   0.615
 1651TIP3    H2 4918   1.523   4.840   0.558
 1652TIP3   OH2 4919   1.839   1.104   3.895
 1652TIP3    H1 4920   1.930   1.086   3.919
 1652TIP3    H2 4921   1.836   1.198   3.878
 1653TIP3   OH2 4922   6.892   1.758   4.623
 1653TIP3    H1 4923   6.927   1.844   4.647
 1653TIP3    H2 4924   6.860   1.770   4.534
 1654TIP3   OH2 4925   0.431   5.321   2.174
 1654TIP3    H1 4926   0.383   5.241   2.152
 1654TIP3    H2 4927   0.395   5.388   2.115
 1655TIP3   OH2 4928   1.430   5.023   1.200
 1655TIP3    H1 4929   1.394   4.998   1.114
 1655TIP3    H2 4930   1.370   5.090   1.232
 1656TIP3   OH2 4931   4.288   4.775   0.195
 1656TIP3    H1 4932   4.377   4.811   0.191
 1656TIP3    H2 4933   4.239   4.827   0.131
 1657TIP3   OH2 4934   6.600   5.384   2.100
 1657TIP3    H1 4935   6.688   5.420   2.089
 1657TIP3    H2 4936   6.584   5.336   2.019
 1658TIP3   OH2 4937   5.727   0.169   2.711
 1658TIP3    H1 4938   5.742   0.078   2.735
 1658TIP3    H2 4939   5.675   0.205   2.784
 1659TIP3   OH2 4940   5.416   6.118   0.197
 1659TIP3    H1 4941   5.352   6.185   0.224
 1659TIP3    H2 4942   5.375   6.035   0.222
 1660TIP3   OH2 4943   2.083  -0.034   0.296
 1660TIP3    H1 4944   2.118   0.054   0.307
 1660TIP3    H2 4945   1.988  -0.022   0.305
 1661TIP3   OH2 4946   4.035   5.378   2.681
 1661TIP3    H1 4947   4.004   5.465   2.655
 1661TIP3    H2 4948   4.001   5.367   2.770
 1662TIP3   OH2 4949   6.171   4.881   0.529
 1662TIP3    H1 4950   6.135   4.920   0.609
 1662TIP3    H2 4951   6.221   4.805   0.560
 1663TIP3   OH2 4952   6.810   0.425   1.372
 1663TIP3    H1 4953   6.849   0.342   1.344
 1663TIP3    H2 4954   6.720   0.403   1.393
 1664TIP3   OH2 4955   0.743   6.631   1.924
 1664TIP3    H1 4956   0.815   6.585   1.881
 1664TIP3    H2 4957   0.738   6.593   2.011
 1665TIP3   OH2 4958   4.270   0.458   3.688
 1665TIP3    H1 4959   4.204   0.478   3.622
 1665TIP3    H2 4960   4.313   0.542   3.706
 1666TIP3   OH2 4961   3.716   6.665   4.889
 1666TIP3    H1 4962   3.686   6.584   4.931
 1666TIP3    H2 4963   3.811   6.663   4.898
 1667TIP3   OH2 4964   5.929   1.683   1.761
 1667TIP3    H1 4965   5.884   1.599   1.753
 1667TIP3    H2 4966   5.900   1.718   1.845
 1668TIP3   OH2 4967   5.645   0.530   3.106
 1668TIP3    H1 4968   5.586   0.457   3.126
 1668TIP3    H2 4969   5.659   0.525   3.012
 1669TIP3   OH2 4970   3.553   3.289   2.941
 1669TIP3    H1 4971   3.571   3.378   2.968
 1669TIP3    H2 4972   3.587   3.284   2.851
 1670TIP3   OH2 4973   5.134   5.809   2.265
 1670TIP3    H1 4974   5.121   5.885   2.323
 1670TIP3    H2 4975   5.046   5.786   2.236
 1671TIP3   OH2 4976   0.859   0.698   2.848
 1671TIP3    H1 4977   0.925   0.646   2.895
 1671TIP3    H2 4978   0.791   0.635   2.824
 1672TIP3   OH2 4979   2.120   0.478   0.270
 1672TIP3    H1 4980   2.192   0.425   0.237
 1672TIP3    H2 4981   2.041   0.430   0.245
 1673TIP3   OH2 4982   3.974   6.679   2.851
 1673TIP3    H1 4983   3.997   6.677   2.944
 1673TIP3    H2 4984   4.021   6.754   2.816
 1674TIP3   OH2 4985   5.466   1.463   3.318
 1674TIP3    H1 4986   5.470   1.373   3.350
 1674TIP3    H2 4987   5.378   1.472   3.282
 1675TIP3   OH2 4988   0.154   4.745   2.130
 1675TIP3    H1 4989   0.188   4.831   2.104
 1675TIP3    H2 4990   0.227   4.702   2.173
 1676TIP3   OH2 4991   4.448   1.288   0.764
 1676TIP3    H1 4992   4.367   1.296   0.816
 1676TIP3    H2 4993   4.432   1.212   0.708
 1677TIP3   OH2 4994   1.553   4.484   2.383
 1677TIP3    H1 4995   1.646   4.495   2.359
 1677TIP3    H2 4996   1.505   4.508   2.304
 1678TIP3   OH2 4997   4.171   3.024   2.149
 1678TIP3    H1 4998   4.262   3.054   2.150
 1678TIP3    H2 4999   4.124   3.093   2.103
 1679TIP3   OH2 5000   3.840   1.303   4.707
 1679TIP3    H1 5001   3.844   1.326   4.800
 1679TIP3    H2 5002   3.808   1.213   4.706
 1680TIP3   OH2 5003   3.155   3.199  -0.032
 1680TIP3    H1 5004   3.182   3.290  -0.017
 1680TIP3    H2 5005   3.237   3.150  -0.033
 1681TIP3   OH2 5006   6.770   5.460   1.282
 1681TIP3    H1 5007   6.681   5.497   1.284
 1681TIP3    H2 5008   6.785   5.441   1.189
 1682TIP3   OH2 5009   1.190   2.146   3.422
 1682TIP3    H1 5010   1.188   2.203   3.345
 1682TIP3    H2 5011   1.102   2.109   3.426
 1683TIP3   OH2 5012   2.750   0.702   0.830
 1683TIP3    H1 5013   2.826   0.760   0.823
 1683TIP3    H2 5014   2.787   0.616   0.851
 1684TIP3   OH2 5015   4.909   5.832   3.706
 1684TIP3    H1 5016   4.857   5.911   3.689
 1684TIP3    H2 5017   4.844   5.762   3.717
 1685TIP3   OH2 5018   1.102   5.340   4.583
 1685TIP3    H1 5019   1.046   5.300   4.649
 1685TIP3    H2 5020   1.070   5.304   4.500
 1686TIP3   OH2 5021   3.175   1.368   3.667
 1686TIP3    H1 5022   3.144   1.354   3.757
 1686TIP3    H2 5023   3.116   1.316   3.613
 1687TIP3   OH2 5024   5.567   5.739   1.029
 1687TIP3    H1 5025   5.593   5.780   0.947
 1687TIP3    H2 5026   5.633   5.671   1.045
 1688TIP3   OH2 5027   1.904   4.462   3.855
 1688TIP3    H1 5028   1.818   4.473   3.813
 1688TIP3    H2 5029   1.908   4.369   3.877
 1689TIP3   OH2 5030   3.349   6.613   4.986
 1689TIP3    H1 5031   3.388   6.527   5.001
 1689TIP3    H2 5032   3.317   6.610   4.896
 1690TIP3   OH2 5033   5.106   4.990   1.248
 1690TIP3    H1 5034   5.018   5.015   1.217
 1690TIP3    H2 5035   5.150   5.073   1.262
 1691TIP3   OH2 5036   0.287   2.754   0.439
 1691TIP3    H1 5037   0.313   2.673   0.483
 1691TIP3    H2 5038   0.267   2.815   0.511
 1692TIP3   OH2 5039   4.466   5.900   3.917
 1692TIP3    H1 5040   4.488   5.931   3.829
 1692TIP3    H2 5041   4.550   5.871   3.954
 1693TIP3   OH2 5042   0.637   5.991   0.163
 1693TIP3    H1 5043   0.598   5.934   0.229
 1693TIP3    H2 5044   0.720   5.950   0.141
 1694TIP3   OH2 5045   1.747   1.029   3.227
 1694TIP3    H1 5046   1.832   1.030   3.270
 1694TIP3    H2 5047   1.727   1.121   3.210
 1695TIP3   OH2 5048   3.744   2.574   0.573
 1695TIP3    H1 5049   3.724   2.524   0.653
 1695TIP3    H2 5050   3.745   2.665   0.601
 1696TIP3   OH2 5051   0.109   6.632   3.824
 1696TIP3    H1 5052   0.169   6.580   3.877
 1696TIP3    H2 5053   0.051   6.675   3.888
 1697TIP3   OH2 5054   5.625   2.783   1.635
 1697TIP3    H1 5055   5.537   2.793   1.599
 1697TIP3    H2 5056   5.655   2.872   1.652
 1698TIP3   OH2 5057   5.006   6.592   0.788
 1698TIP3    H1 5058   4.922   6.637   0.791
 1698TIP3    H2 5059   5.006   6.535   0.864
 1699TIP3   OH2 5060   3.429   1.247   0.470
 1699TIP3    H1 5061   3.440   1.295   0.388
 1699TIP3    H2 5062   3.516   1.252   0.511
 1700TIP3   OH2 5063   4.750   0.763   4.582
 1700TIP3    H1 5064   4.659   0.751   4.610
 1700TIP3    H2 5065   4.798   0.695   4.628
 1701TIP3   OH2 5066   1.821   5.460   1.174
 1701TIP3    H1 5067   1.775   5.506   1.244
 1701TIP3    H2 5068   1.798   5.507   1.094
 1702TIP3   OH2 5069   0.531   2.080   2.622
 1702TIP3    H1 5070   0.596   2.080   2.693
 1702TIP3    H2 5071   0.547   1.999   2.575
 1703TIP3   OH2 5072   0.573   4.490   2.872
 1703TIP3    H1 5073   0.532   4.459   2.953
 1703TIP3    H2 5074   0.511   4.466   2.803
 1704TIP3   OH2 5075   5.650   0.039   0.155
 1704TIP3    H1 5076   5.590   0.081   0.094
 1704TIP3    H2 5077   5.626  -0.054   0.152
 1705TIP3   OH2 5078   4.516   1.627   2.289
 1705TIP3    H1 5079   4.480   1.685   2.221
 1705TIP3    H2 5080   4.608   1.650   2.293
 1706TIP3   OH2 5081   4.232   2.459   0.775
 1706TIP3    H1 5082   4.164   2.410   0.821
 1706TIP3    H2 5083   4.311   2.444   0.827
 1707TIP3   OH2 5084   3.315   6.170   0.299
 1707TIP3    H1 5085   3.372   6.244   0.279
 1707TIP3    H2 5086   3.246   6.174   0.232
 1708TIP3   OH2 5087   5.912   4.759   1.492
 1708TIP3    H1 5088   5.879   4.726   1.577
 1708TIP3    H2 5089   5.893   4.688   1.431
 1709TIP3   OH2 5090   3.791   0.499   5.721
 1709TIP3    H1 5091   3.706   0.543   5.730
 1709TIP3    H2 5092   3.824   0.530   5.636
 1710TIP3   OH2 5093   4.338   3.945   4.488
 1710TIP3    H1 5094   4.317   3.876   4.425
 1710TIP3    H2 5095   4.432   3.937   4.501
 1711TIP3   OH2 5096   0.698   2.619   2.481
 1711TIP3    H1 5097   0.691   2.612   2.385
 1711TIP3    H2 5098   0.779   2.668   2.495
 1712TIP3   OH2 5099   1.072   4.684   2.204
 1712TIP3    H1 5100   1.004   4.743   2.235
 1712TIP3    H2 5101   1.154   4.730   2.224
 1713TIP3   OH2 5102   5.702   3.164   3.216
 1713TIP3    H1 5103   5.776   3.139   3.161
 1713TIP3    H2 5104   5.629   3.177   3.155
 1714TIP3   OH2 5105   1.038   1.192   0.532
 1714TIP3    H1 5106   1.127   1.208   0.501
 1714TIP3    H2 5107   0.990   1.273   0.511
 1715TIP3   OH2 5108   6.764   1.266   0.973
 1715TIP3    H1 5109   6.757   1.214   1.054
 1715TIP3    H2 5110   6.768   1.357   1.003
 1716TIP3   OH2 5111   5.028   6.611   5.317
 1716TIP3    H1 5112   4.933   6.606   5.330
 1716TIP3    H2 5113   5.057   6.673   5.384
 1717TIP3   OH2 5114   4.860   2.081   5.059
 1717TIP3    H1 5115   4.836   2.157   5.113
 1717TIP3    H2 5116   4.909   2.118   4.987
 1718TIP3   OH2 5117   5.330   4.990   2.988
 1718TIP3    H1 5118   5.247   4.947   3.010
 1718TIP3    H2 5119   5.390   4.961   3.057
 1719TIP3   OH2 5120   2.854   1.401   2.559
 1719TIP3    H1 5121   2.939   1.372   2.592
 1719TIP3    H2 5122   2.873   1.432   2.470
 1720TIP3   OH2 5123   1.502   4.702   5.302
 1720TIP3    H1 5124   1.465   4.743   5.380
 1720TIP3    H2 5125   1.434   4.643   5.271
 1721TIP3   OH2 5126   1.658   5.208   3.426
 1721TIP3    H1 5127   1.683   5.117   3.406
 1721TIP3    H2 5128   1.614   5.202   3.511
 1722TIP3   OH2 5129   5.666   3.699   3.981
 1722TIP3    H1 5130   5.609   3.699   3.904
 1722TIP3    H2 5131   5.753   3.722   3.947
 1723TIP3   OH2 5132   1.429   3.393   3.031
 1723TIP3    H1 5133   1.363   3.332   3.063
 1723TIP3    H2 5134   1.383   3.451   2.970
 1724TIP3   OH2 5135   6.268   5.274   5.521
 1724TIP3    H1 5136   6.333   5.345   5.523
 1724TIP3    H2 5137   6.294   5.220   5.446
 1725TIP3   OH2 5138   4.487   1.170   5.425
 1725TIP3    H1 5139   4.567   1.193   5.377
 1725TIP3    H2 5140   4.488   1.229   5.501
 1726TIP3   OH2 5141   1.903   4.034   0.714
 1726TIP3    H1 5142   1.833   4.079   0.667
 1726TIP3    H2 5143   1.863   4.010   0.798
 1727TIP3   OH2 5144   4.434   2.855   3.147
 1727TIP3    H1 5145   4.434   2.826   3.238
 1727TIP3    H2 5146   4.361   2.808   3.106
 1728TIP3   OH2 5147   4.863   6.072   3.886
 1728TIP3    H1 5148   4.806   5.995   3.892
 1728TIP3    H2 5149   4.802   6.145   3.873
 1729TIP3   OH2 5150   2.893   1.289   1.961
 1729TIP3    H1 5151   2.800   1.286   1.982
 1729TIP3    H2 5152   2.897   1.282   1.866
 1730TIP3   OH2 5153   1.374   1.048   0.453
 1730TIP3    H1 5154   1.325   1.121   0.416
 1730TIP3    H2 5155   1.356   1.053   0.547
 1731TIP3   OH2 5156   1.956   2.337   3.972
 1731TIP3    H1 5157   1.876   2.371   3.933
 1731TIP3    H2 5158   1.957   2.244   3.949
 1732TIP3   OH2 5159   0.172   6.412   5.853
 1732TIP3    H1 5160   0.097   6.440   5.800
 1732TIP3    H2 5161   0.144   6.329   5.892
 1733TIP3   OH2 5162   6.503   0.142   3.215
 1733TIP3    H1 5163   6.431   0.114   3.271
 1733TIP3    H2 5164   6.461   0.178   3.137
 1734TIP3   OH2 5165   3.851   5.491   5.176
 1734TIP3    H1 5166   3.777   5.444   5.136
 1734TIP3    H2 5167   3.836   5.483   5.271
 1735TIP3   OH2 5168   3.741   1.069   2.485
 1735TIP3    H1 5169   3.723   1.152   2.528
 1735TIP3    H2 5170   3.823   1.039   2.524
 1736TIP3   OH2 5171   4.874   4.226   5.692
 1736TIP3    H1 5172   4.803   4.289   5.686
 1736TIP3    H2 5173   4.916   4.229   5.606
 1737TIP3   OH2 5174   1.681   2.045   3.964
 1737TIP3    H1 5175   1.595   2.086   3.972
 1737TIP3    H2 5176   1.670   1.978   3.896
 1738TIP3   OH2 5177   5.796   3.968   2.914
 1738TIP3    H1 5178   5.885   3.945   2.888
 1738TIP3    H2 5179   5.764   3.892   2.963
 1739TIP3   OH2 5180   6.546   5.898   3.610
 1739TIP3    H1 5181   6.603   5.822   3.601
 1739TIP3    H2 5182   6.465   5.863   3.649
 1740TIP3   OH2 5183   3.639   3.238   3.721
 1740TIP3    H1 5184   3.565   3.265   3.667
 1740TIP3    H2 5185   3.649   3.145   3.703
 1741TIP3   OH2 5186   2.591   0.934   5.008
 1741TIP3    H1 5187   2.658   1.003   5.012
 1741TIP3    H2 5188   2.529   0.958   5.076
 1742TIP3   OH2 5189   4.709   1.996   2.937
 1742TIP3    H1 5190   4.773   2.059   2.903
 1742TIP3    H2 5191   4.682   2.033   3.022
 1743TIP3   OH2 5192   6.440   2.603   1.999
 1743TIP3    H1 5193   6.487   2.604   1.916
 1743TIP3    H2 5194   6.372   2.669   1.989
 1744TIP3   OH2 5195   4.455   4.007   3.018
 1744TIP3    H1 5196   4.543   3.970   3.022
 1744TIP3    H2 5197   4.449   4.061   3.097
 1745TIP3   OH2 5198   1.563   4.131   3.995
 1745TIP3    H1 5199   1.478   4.163   4.025
 1745TIP3    H2 5200   1.564   4.150   3.901
 1746TIP3   OH2 5201   1.797   2.913   3.329
 1746TIP3    H1 5202   1.737   2.986   3.319
 1746TIP3    H2 5203   1.760   2.862   3.402
 1747TIP3   OH2 5204   4.916   0.076   2.677
 1747TIP3    H1 5205   4.851   0.056   2.610
 1747TIP3    H2 5206   4.959  -0.008   2.694
 1748TIP3   OH2 5207   4.561   3.310   0.608
 1748TIP3    H1 5208   4.596   3.377   0.550
 1748TIP3    H2 5209   4.489   3.271   0.558
 1749TIP3   OH2 5210   1.224   1.485   5.244
 1749TIP3    H1 5211   1.290   1.439   5.192
 1749TIP3    H2 5212   1.147   1.428   5.241
 1750TIP3   OH2 5213   3.541  -0.011   5.499
 1750TIP3    H1 5214   3.579   0.015   5.583
 1750TIP3    H2 5215   3.447   0.005   5.510
 1751TIP3   OH2 5216   3.848   0.026   3.208
 1751TIP3    H1 5217   3.787  -0.025   3.155
 1751TIP3    H2 5218   3.915   0.056   3.147
 1752TIP3   OH2 5219   5.676   2.959   4.035
 1752TIP3    H1 5220   5.599   2.928   4.082
 1752TIP3    H2 5221   5.731   2.997   4.104
 1753TIP3   OH2 5222   4.184   5.458   0.577
 1753TIP3    H1 5223   4.158   5.366   0.580
 1753TIP3    H2 5224   4.266   5.462   0.627
 1754TIP3   OH2 5225   0.790   2.607   1.122
 1754TIP3    H1 5226   0.823   2.671   1.058
 1754TIP3    H2 5227   0.695   2.612   1.114
 1755TIP3   OH2 5228   2.905   6.589   1.900
 1755TIP3    H1 5229   2.906   6.682   1.877
 1755TIP3    H2 5230   2.891   6.588   1.994
 1756TIP3   OH2 5231   6.039   0.925   0.583
 1756TIP3    H1 5232   6.078   0.849   0.626
 1756TIP3    H2 5233   6.060   0.914   0.490
 1757TIP3   OH2 5234   3.197   3.085   2.457
 1757TIP3    H1 5235   3.236   3.014   2.408
 1757TIP3    H2 5236   3.103   3.078   2.439
 1758TIP3   OH2 5237   1.792   5.103   3.788
 1758TIP3    H1 5238   1.850   5.056   3.847
 1758TIP3    H2 5239   1.704   5.080   3.817
 1759TIP3   OH2 5240   3.521   1.558   3.130
 1759TIP3    H1 5241   3.467   1.626   3.170
 1759TIP3    H2 5242   3.491   1.476   3.171
 1760TIP3   OH2 5243   4.832   1.007   3.669
 1760TIP3    H1 5244   4.761   1.069   3.687
 1760TIP3    H2 5245   4.910   1.062   3.658
 1761TIP3   OH2 5246   3.621   4.302   4.982
 1761TIP3    H1 5247   3.554   4.356   4.940
 1761TIP3    H2 5248   3.698   4.359   4.986
 1762TIP3   OH2 5249   1.327   3.103   1.611
 1762TIP3    H1 5250   1.307   3.192   1.581
 1762TIP3    H2 5251   1.276   3.093   1.691
 1763TIP3   OH2 5252   1.147   1.732   4.131
 1763TIP3    H1 5253   1.121   1.685   4.052
 1763TIP3    H2 5254   1.182   1.664   4.189
 1764TIP3   OH2 5255   6.661   0.444   3.513
 1764TIP3    H1 5256   6.604   0.382   3.467
 1764TIP3    H2 5257   6.626   0.530   3.489
 1765TIP3   OH2 5258   2.133   2.075   3.053
 1765TIP3    H1 5259   2.042   2.098   3.069
 1765TIP3    H2 5260   2.138   2.060   2.959
 1766TIP3   OH2 5261   2.661   6.431   3.390
 1766TIP3    H1 5262   2.599   6.438   3.463
 1766TIP3    H2 5263   2.740   6.395   3.430
 1767TIP3   OH2 5264   6.534   0.728   1.849
 1767TIP3    H1 5265   6.467   0.705   1.784
 1767TIP3    H2 5266   6.551   0.821   1.835
 1768TIP3   OH2 5267   2.852   3.426   1.887
 1768TIP3    H1 5268   2.907   3.485   1.939
 1768TIP3    H2 5269   2.763   3.447   1.913
 1769TIP3   OH2 5270   1.986   2.115   5.833
 1769TIP3    H1 5271   1.967   2.113   5.739
 1769TIP3    H2 5272   2.048   2.186   5.844
 1770TIP3   OH2 5273   5.375   0.365   3.167
 1770TIP3    H1 5274   5.363   0.304   3.239
 1770TIP3    H2 5275   5.318   0.332   3.097
 1771TIP3   OH2 5276   5.655   3.839   1.503
 1771TIP3    H1 5277   5.573   3.824   1.456
 1771TIP3    H2 5278   5.697   3.911   1.455
 1772TIP3   OH2 5279   2.744   5.972   0.415
 1772TIP3    H1 5280   2.700   6.032   0.354
 1772TIP3    H2 5281   2.820   6.021   0.446
 1773TIP3   OH2 5282   0.129   1.431   5.044
 1773TIP3    H1 5283   0.127   1.443   5.139
 1773TIP3    H2 5284   0.085   1.347   5.030
 1774TIP3   OH2 5285   1.783   1.863   5.885
 1774TIP3    H1 5286   1.864   1.831   5.844
 1774TIP3    H2 5287   1.780   1.956   5.860
 1775TIP3   OH2 5288   0.150   2.266   2.294
 1775TIP3    H1 5289   0.131   2.359   2.282
 1775TIP3    H2 5290   0.068   2.228   2.324
 1776TIP3   OH2 5291   3.037   5.248   0.502
 1776TIP3    H1 5292   3.036   5.341   0.480
 1776TIP3    H2 5293   3.093   5.208   0.436
 1777TIP3   OH2 5294   6.712   5.928   3.356
 1777TIP3    H1 5295   6.694   6.012   3.397
 1777TIP3    H2 5296   6.625   5.891   3.338
 1778TIP3   OH2 5297   2.278   5.043   0.085
 1778TIP3    H1 5298   2.345   4.982   0.057
 1778TIP3    H2 5299   2.324   5.108   0.138
 1779TIP3   OH2 5300   3.385   5.256   1.838
 1779TIP3    H1 5301   3.445   5.313   1.886
 1779TIP3    H2 5302   3.314   5.313   1.809
 1780TIP3   OH2 5303   1.526   4.469   3.110
 1780TIP3    H1 5304   1.533   4.564   3.099
 1780TIP3    H2 5305   1.611   4.435   3.080
 1781TIP3   OH2 5306   4.659   5.410   4.358
 1781TIP3    H1 5307   4.675   5.345   4.425
 1781TIP3    H2 5308   4.594   5.369   4.299
 1782TIP3   OH2 5309   4.168   2.582   4.838
 1782TIP3    H1 5310   4.227   2.587   4.913
 1782TIP3    H2 5311   4.082   2.563   4.877
 1783TIP3   OH2 5312   1.971   3.938   2.357
 1783TIP3    H1 5313   1.912   3.864   2.370
 1783TIP3    H2 5314   1.936   4.007   2.413
 1784TIP3   OH2 5315   0.377   5.184   2.806
 1784TIP3    H1 5316   0.384   5.278   2.792
 1784TIP3    H2 5317   0.284   5.165   2.800
 1785TIP3   OH2 5318   4.467   0.244   1.650
 1785TIP3    H1 5319   4.491   0.186   1.578
 1785TIP3    H2 5320   4.530   0.225   1.719
 1786TIP3   OH2 5321   4.064   0.607   2.944
 1786TIP3    H1 5322   4.069   0.673   2.875
 1786TIP3    H2 5323   4.012   0.537   2.905
 1787TIP3   OH2 5324   0.364   1.029   1.235
 1787TIP3    H1 5325   0.339   0.967   1.167
 1787TIP3    H2 5326   0.444   1.070   1.202
 1788TIP3   OH2 5327   0.675   3.490   2.475
 1788TIP3    H1 5328   0.767   3.464   2.463
 1788TIP3    H2 5329   0.635   3.479   2.389
 1789TIP3   OH2 5330   3.884   0.386   4.369
 1789TIP3    H1 5331   3.889   0.423   4.457
 1789TIP3    H2 5332   3.820   0.440   4.323
 1790TIP3   OH2 5333   6.709   4.361   1.515
 1790TIP3    H1 5334   6.616   4.352   1.537
 1790TIP3    H2 5335   6.751   4.287   1.558
 1791TIP3   OH2 5336   0.857   3.785   5.637
 1791TIP3    H1 5337   0.880   3.710   5.692
 1791TIP3    H2 5338   0.800   3.839   5.691
 1792TIP3   OH2 5339   7.101   5.424   4.269
 1792TIP3    H1 5340   7.115   5.330   4.271
 1792TIP3    H2 5341   7.099   5.446   4.176
 1793TIP3   OH2 5342   6.001   1.190   4.422
 1793TIP3    H1 5343   5.916   1.223   4.452
 1793TIP3    H2 5344   6.066   1.244   4.466
 1794TIP3   OH2 5345   0.819   0.076   4.454
 1794TIP3    H1 5346   0.782   0.164   4.454
 1794TIP3    H2 5347   0.818   0.050   4.546
 1795TIP3   OH2 5348   1.120   2.795   2.666
 1795TIP3    H1 5349   1.063   2.835   2.731
 1795TIP3    H2 5350   1.076   2.813   2.582
 1796TIP3   OH2 5351   5.828   4.366   2.754
 1796TIP3    H1 5352   5.798   4.299   2.693
 1796TIP3    H2 5353   5.852   4.318   2.833
 1797TIP3   OH2 5354   0.260   2.023   0.277
 1797TIP3    H1 5355   0.268   2.067   0.362
 1797TIP3    H2 5356   0.210   2.084   0.223
 1798TIP3   OH2 5357   3.147   6.290   2.793
 1798TIP3    H1 5358   3.228   6.308   2.840
 1798TIP3    H2 5359   3.086   6.260   2.861
 1799TIP3   OH2 5360   0.691   5.152   1.856
 1799TIP3    H1 5361   0.703   5.237   1.898
 1799TIP3    H2 5362   0.675   5.172   1.764
 1800TIP3   OH2 5363   7.066   0.988   5.494
 1800TIP3    H1 5364   6.996   0.986   5.429
 1800TIP3    H2 5365   7.055   0.907   5.544
 1801TIP3   OH2 5366   6.806   1.065  -0.022
 1801TIP3    H1 5367   6.861   1.140  -0.002
 1801TIP3    H2 5368   6.832   1.039  -0.110
 1802TIP3   OH2 5369   5.846   5.337   0.189
 1802TIP3    H1 5370   5.867   5.257   0.140
 1802TIP3    H2 5371   5.911   5.338   0.260
 1803TIP3   OH2 5372   4.325   4.334   5.088
 1803TIP3    H1 5373   4.406   4.369   5.050
 1803TIP3    H2 5374   4.330   4.240   5.071
 1804TIP3   OH2 5375   6.334   5.097   3.796
 1804TIP3    H1 5376   6.419   5.089   3.840
 1804TIP3    H2 5377   6.328   5.019   3.741
 1805TIP3   OH2 5378   2.338   1.857   2.333
 1805TIP3    H1 5379   2.320   1.773   2.375
 1805TIP3    H2 5380   2.390   1.834   2.255
 1806TIP3   OH2 5381   6.469   1.394   0.626
 1806TIP3    H1 5382   6.448   1.301   0.640
 1806TIP3    H2 5383   6.443   1.410   0.535
 1807TIP3   OH2 5384   2.485   0.261   4.705
 1807TIP3    H1 5385   2.529   0.286   4.786
 1807TIP3    H2 5386   2.408   0.213   4.734
 1808TIP3   OH2 5387   0.700   4.837   4.161
 1808TIP3    H1 5388   0.636   4.906   4.180
 1808TIP3    H2 5389   0.737   4.863   4.077
 1809TIP3   OH2 5390   2.454   6.010   4.893
 1809TIP3    H1 5391   2.460   5.969   4.980
 1809TIP3    H2 5392   2.541   6.048   4.879
 1810TIP3   OH2 5393   5.470   6.022   1.925
 1810TIP3    H1 5394   5.475   6.053   1.834
 1810TIP3    H2 5395   5.381   5.989   1.934
 1811TIP3   OH2 5396   3.920   4.071   1.745
 1811TIP3    H1 5397   3.943   4.066   1.652
 1811TIP3    H2 5398   3.847   4.134   1.747
 1812TIP3   OH2 5399   0.932   2.265   3.396
 1812TIP3    H1 5400   0.932   2.294   3.488
 1812TIP3    H2 5401   0.913   2.344   3.346
 1813TIP3   OH2 5402   4.801   5.262   1.904
 1813TIP3    H1 5403   4.821   5.206   1.830
 1813TIP3    H2 5404   4.784   5.348   1.866
 1814TIP3   OH2 5405   3.105   0.953   5.536
 1814TIP3    H1 5406   3.099   0.873   5.589
 1814TIP3    H2 5407   3.139   0.922   5.451
 1815TIP3   OH2 5408   4.593   5.175   2.893
 1815TIP3    H1 5409   4.572   5.191   2.801
 1815TIP3    H2 5410   4.678   5.130   2.890
 1816TIP3   OH2 5411   6.089   2.003   3.773
 1816TIP3    H1 5412   6.078   1.960   3.689
 1816TIP3    H2 5413   6.027   2.076   3.772
 1817TIP3   OH2 5414   4.936   3.151   3.545
 1817TIP3    H1 5415   4.989   3.185   3.474
 1817TIP3    H2 5416   4.979   3.069   3.571
 1818TIP3   OH2 5417   1.250   4.350   5.586
 1818TIP3    H1 5418   1.286   4.435   5.612
 1818TIP3    H2 5419   1.320   4.311   5.533
 1819TIP3   OH2 5420   0.834   2.870   3.077
 1819TIP3    H1 5421   0.825   2.839   3.167
 1819TIP3    H2 5422   0.749   2.911   3.057
 1820TIP3   OH2 5423   7.121   4.463   2.101
 1820TIP3    H1 5424   7.194   4.518   2.129
 1820TIP3    H2 5425   7.043   4.515   2.122
 1821TIP3   OH2 5426   6.188   3.153   1.691
 1821TIP3    H1 5427   6.129   3.168   1.617
 1821TIP3    H2 5428   6.166   3.221   1.754
 1822TIP3   OH2 5429   4.638   5.869   2.242
 1822TIP3    H1 5430   4.612   5.872   2.150
 1822TIP3    H2 5431   4.604   5.786   2.274
 1823TIP3   OH2 5432   4.707   3.842   3.864
 1823TIP3    H1 5433   4.724   3.830   3.771
 1823TIP3    H2 5434   4.793   3.850   3.904
 1824TIP3   OH2 5435   5.818   5.804   0.864
 1824TIP3    H1 5436   5.780   5.876   0.814
 1824TIP3    H2 5437   5.795   5.726   0.815
 1825TIP3   OH2 5438   6.993   6.381   2.736
 1825TIP3    H1 5439   6.932   6.342   2.674
 1825TIP3    H2 5440   6.958   6.358   2.822
 1826TIP3   OH2 5441   1.707   1.637   1.493
 1826TIP3    H1 5442   1.672   1.647   1.404
 1826TIP3    H2 5443   1.692   1.722   1.535
 1827TIP3   OH2 5444   7.092   6.563   1.330
 1827TIP3    H1 5445   7.034   6.636   1.306
 1827TIP3    H2 5446   7.033   6.490   1.346
 1828TIP3   OH2 5447   1.467   5.927   2.141
 1828TIP3    H1 5448   1.490   5.895   2.054
 1828TIP3    H2 5449   1.539   5.985   2.166
 1829TIP3   OH2 5450   6.665   5.350   4.211
 1829TIP3    H1 5451   6.682   5.428   4.264
 1829TIP3    H2 5452   6.712   5.280   4.256
 1830TIP3   OH2 5453   3.215   4.059   0.426
 1830TIP3    H1 5454   3.262   4.040   0.345
 1830TIP3    H2 5455   3.275   4.115   0.476
 1831TIP3   OH2 5456   7.046   5.242   2.976
 1831TIP3    H1 5457   6.977   5.187   3.013
 1831TIP3    H2 5458   7.052   5.317   3.037
 1832TIP3   OH2 5459   4.340   5.084   3.689
 1832TIP3    H1 5460   4.332   5.147   3.618
 1832TIP3    H2 5461   4.253   5.044   3.696
 1833TIP3   OH2 5462   4.511   1.520   1.756
 1833TIP3    H1 5463   4.577   1.556   1.698
 1833TIP3    H2 5464   4.491   1.434   1.720
 1834TIP3   OH2 5465   2.889   4.217   5.596
 1834TIP3    H1 5466   2.869   4.223   5.689
 1834TIP3    H2 5467   2.934   4.133   5.586
 1835TIP3   OH2 5468   2.863   1.191   4.652
 1835TIP3    H1 5469   2.774   1.188   4.686
 1835TIP3    H2 5470   2.858   1.144   4.569
 1836TIP3   OH2 5471   4.425   2.122   1.148
 1836TIP3    H1 5472   4.502   2.068   1.132
 1836TIP3    H2 5473   4.460   2.211   1.155
 1837TIP3   OH2 5474   6.411   1.124   0.609
 1837TIP3    H1 5475   6.434   1.116   0.516
 1837TIP3    H2 5476   6.477   1.071   0.654
 1838TIP3   OH2 5477   0.865   2.170   3.037
 1838TIP3    H1 5478   0.951   2.160   3.076
 1838TIP3    H2 5479   0.864   2.259   3.003
 1839TIP3   OH2 5480   2.748   4.151   0.649
 1839TIP3    H1 5481   2.828   4.180   0.694
 1839TIP3    H2 5482   2.764   4.168   0.557
 1840TIP3   OH2 5483   3.687   5.071   4.039
 1840TIP3    H1 5484   3.720   4.990   4.002
 1840TIP3    H2 5485   3.739   5.140   3.997
 1841TIP3   OH2 5486   1.920   5.934   1.267
 1841TIP3    H1 5487   1.915   5.865   1.333
 1841TIP3    H2 5488   2.010   5.967   1.274
 1842TIP3   OH2 5489   1.780   5.169   5.645
 1842TIP3    H1 5490   1.787   5.207   5.557
 1842TIP3    H2 5491   1.835   5.225   5.699
 1843TIP3   OH2 5492   2.913   3.560   2.558
 1843TIP3    H1 5493   2.923   3.616   2.634
 1843TIP3    H2 5494   3.002   3.547   2.525
 1844TIP3   OH2 5495   2.350   6.708   2.477
 1844TIP3    H1 5496   2.322   6.665   2.557
 1844TIP3    H2 5497   2.408   6.645   2.434
 1845TIP3   OH2 5498   3.075   6.479   3.157
 1845TIP3    H1 5499   3.039   6.547   3.215
 1845TIP3    H2 5500   3.015   6.478   3.082
 1846TIP3   OH2 5501   0.452   2.580   5.573
 1846TIP3    H1 5502   0.437   2.663   5.618
 1846TIP3    H2 5503   0.417   2.513   5.632
 1847TIP3   OH2 5504   7.035   4.410   1.188
 1847TIP3    H1 5505   7.021   4.396   1.095
 1847TIP3    H2 5506   7.007   4.329   1.229
 1848TIP3   OH2 5507   3.936   6.082   5.882
 1848TIP3    H1 5508   3.841   6.076   5.869
 1848TIP3    H2 5509   3.973   6.085   5.794
 1849TIP3   OH2 5510   0.481   3.159   0.738
 1849TIP3    H1 5511   0.542   3.188   0.806
 1849TIP3    H2 5512   0.431   3.089   0.779
 1850TIP3   OH2 5513   2.953   1.220   1.182
 1850TIP3    H1 5514   2.993   1.180   1.106
 1850TIP3    H2 5515   2.889   1.282   1.147
 1851TIP3   OH2 5516   0.172   0.768   4.285
 1851TIP3    H1 5517   0.203   0.712   4.215
 1851TIP3    H2 5518   0.244   0.828   4.302
 1852TIP3   OH2 5519   1.622   1.336   4.655
 1852TIP3    H1 5520   1.572   1.313   4.734
 1852TIP3    H2 5521   1.635   1.252   4.610
 1853TIP3   OH2 5522   1.296   3.132   0.295
 1853TIP3    H1 5523   1.225   3.185   0.332
 1853TIP3    H2 5524   1.375   3.166   0.335
 1854TIP3   OH2 5525   4.800   2.133   2.662
 1854TIP3    H1 5526   4.813   2.198   2.731
 1854TIP3    H2 5527   4.888   2.114   2.630
 1855TIP3   OH2 5528   3.170   1.382   4.696
 1855TIP3    H1 5529   3.226   1.454   4.663
 1855TIP3    H2 5530   3.228   1.306   4.696
 1856TIP3   OH2 5531   2.584   0.414   0.338
 1856TIP3    H1 5532   2.663   0.463   0.363
 1856TIP3    H2 5533   2.584   0.414   0.243
 1857TIP3   OH2 5534   4.679   0.048   4.918
 1857TIP3    H1 5535   4.732  -0.025   4.951
 1857TIP3    H2 5536   4.713   0.125   4.963
 1858TIP3   OH2 5537   2.566   3.609   1.124
 1858TIP3    H1 5538   2.610   3.536   1.080
 1858TIP3    H2 5539   2.473   3.588   1.119
 1859TIP3   OH2 5540   6.401   0.949   5.508
 1859TIP3    H1 5541   6.364   0.987   5.588
 1859TIP3    H2 5542   6.332   0.957   5.443
 1860TIP3   OH2 5543   4.817   5.115   1.422
 1860TIP3    H1 5544   4.724   5.095   1.415
 1860TIP3    H2 5545   4.854   5.084   1.339
 1861TIP3   OH2 5546   3.240   2.774   0.886
 1861TIP3    H1 5547   3.206   2.863   0.874
 1861TIP3    H2 5548   3.178   2.718   0.839
 1862TIP3   OH2 5549   0.704   5.927   3.926
 1862TIP3    H1 5550   0.776   5.963   3.874
 1862TIP3    H2 5551   0.719   5.960   4.014
 1863TIP3   OH2 5552   0.165   6.558   1.356
 1863TIP3    H1 5553   0.167   6.568   1.261
 1863TIP3    H2 5554   0.073   6.548   1.378
 1864TIP3   OH2 5555   0.517   1.463   5.096
 1864TIP3    H1 5556   0.473   1.502   5.021
 1864TIP3    H2 5557   0.570   1.393   5.059
 1865TIP3   OH2 5558   2.052   1.032   4.271
 1865TIP3    H1 5559   1.990   1.042   4.342
 1865TIP3    H2 5560   2.138   1.048   4.311
 1866TIP3   OH2 5561   6.190   4.799   2.635
 1866TIP3    H1 5562   6.174   4.861   2.565
 1866TIP3    H2 5563   6.121   4.733   2.626
 1867TIP3   OH2 5564   6.748   5.191   5.309
 1867TIP3    H1 5565   6.714   5.276   5.280
 1867TIP3    H2 5566   6.672   5.133   5.310
 1868TIP3   OH2 5567   6.849   3.809   2.175
 1868TIP3    H1 5568   6.768   3.850   2.145
 1868TIP3    H2 5569   6.917   3.872   2.151
 1869TIP3   OH2 5570   0.066   5.383   0.167
 1869TIP3    H1 5571   0.161   5.396   0.170
 1869TIP3    H2 5572   0.040   5.424   0.084
 1870TIP3   OH2 5573   5.884   3.137   4.858
 1870TIP3    H1 5574   5.945   3.151   4.930
 1870TIP3    H2 5575   5.799   3.130   4.900
 1871TIP3   OH2 5576   3.007   4.871   0.410
 1871TIP3    H1 5577   3.075   4.850   0.475
 1871TIP3    H2 5578   3.046   4.941   0.356
 1872TIP3   OH2 5579   3.107   4.166   1.577
 1872TIP3    H1 5580   3.141   4.149   1.664
 1872TIP3    H2 5581   3.181   4.147   1.518
 1873TIP3   OH2 5582   4.524   5.553   4.621
 1873TIP3    H1 5583   4.465   5.478   4.614
 1873TIP3    H2 5584   4.541   5.579   4.530
 1874TIP3   OH2 5585   0.424   1.512   0.727
 1874TIP3    H1 5586   0.506   1.483   0.689
 1874TIP3    H2 5587   0.405   1.447   0.795
 1875TIP3   OH2 5588   6.203   5.188   3.561
 1875TIP3    H1 5589   6.256   5.129   3.508
 1875TIP3    H2 5590   6.252   5.197   3.643
 1876TIP3   OH2 5591   1.598   6.570   1.285
 1876TIP3    H1 5592   1.649   6.608   1.214
 1876TIP3    H2 5593   1.606   6.476   1.272
 1877TIP3   OH2 5594   2.302   5.457   1.090
 1877TIP3    H1 5595   2.258   5.538   1.064
 1877TIP3    H2 5596   2.233   5.392   1.091
 1878TIP3   OH2 5597   2.410   1.015   2.320
 1878TIP3    H1 5598   2.485   1.061   2.282
 1878TIP3    H2 5599   2.334   1.065   2.291
 1879TIP3   OH2 5600   2.461   2.361   4.674
 1879TIP3    H1 5601   2.464   2.457   4.673
 1879TIP3    H2 5602   2.427   2.338   4.587
 1880TIP3   OH2 5603   2.838   3.376   1.279
 1880TIP3    H1 5604   2.903   3.444   1.296
 1880TIP3    H2 5605   2.832   3.328   1.362
 1881TIP3   OH2 5606   4.581   0.272   5.784
 1881TIP3    H1 5607   4.489   0.285   5.760
 1881TIP3    H2 5608   4.619   0.360   5.778
 1882TIP3   OH2 5609   2.021   0.985   2.676
 1882TIP3    H1 5610   2.037   0.948   2.589
 1882TIP3    H2 5611   2.101   0.964   2.725
 1883TIP3   OH2 5612   5.668   5.473   4.298
 1883TIP3    H1 5613   5.693   5.425   4.219
 1883TIP3    H2 5614   5.575   5.492   4.285
 1884TIP3   OH2 5615   1.831   4.906   5.575
 1884TIP3    H1 5616   1.799   4.995   5.559
 1884TIP3    H2 5617   1.884   4.913   5.654
 1885TIP3   OH2 5618   4.615   3.916   4.538
 1885TIP3    H1 5619   4.643   3.930   4.447
 1885TIP3    H2 5620   4.582   3.826   4.539
 1886TIP3   OH2 5621   0.280   6.484   5.604
 1886TIP3    H1 5622   0.285   6.394   5.571
 1886TIP3    H2 5623   0.258   6.474   5.697
 1887TIP3   OH2 5624   3.588   6.186   1.183
 1887TIP3    H1 5625   3.622   6.209   1.270
 1887TIP3    H2 5626   3.496   6.213   1.185
 1888TIP3   OH2 5627   0.239   3.423   0.417
 1888TIP3    H1 5628   0.252   3.328   0.420
 1888TIP3    H2 5629   0.274   3.454   0.500
 1889TIP3   OH2 5630   0.911   0.789   3.801
 1889TIP3    H1 5631   0.934   0.719   3.863
 1889TIP3    H2 5632   0.910   0.746   3.716
 1890TIP3   OH2 5633   1.618   2.951   1.299
 1890TIP3    H1 5634   1.615   2.967   1.393
 1890TIP3    H2 5635   1.526   2.949   1.272
 1891TIP3   OH2 5636   4.887   1.002   0.746
 1891TIP3    H1 5637   4.820   0.961   0.801
 1891TIP3    H2 5638   4.840   1.070   0.697
 1892TIP3   OH2 5639   3.761   1.763   2.056
 1892TIP3    H1 5640   3.841   1.812   2.039
 1892TIP3    H2 5641   3.727   1.741   1.969
 1893TIP3   OH2 5642   2.272   1.989   0.454
 1893TIP3    H1 5643   2.238   2.069   0.416
 1893TIP3    H2 5644   2.363   2.008   0.474
 1894TIP3   OH2 5645   0.868   3.935   1.793
 1894TIP3    H1 5646   0.814   4.014   1.801
 1894TIP3    H2 5647   0.873   3.919   1.699
 1895TIP3   OH2 5648   4.094   4.389   4.847
 1895TIP3    H1 5649   4.077   4.471   4.891
 1895TIP3    H2 5650   4.015   4.372   4.796
 1896TIP3   OH2 5651   5.520   1.112   5.848
 1896TIP3    H1 5652   5.614   1.102   5.863
 1896TIP3    H2 5653   5.485   1.137   5.933
 1897TIP3   OH2 5654   0.373   6.234   2.925
 1897TIP3    H1 5655   0.449   6.176   2.923
 1897TIP3    H2 5656   0.408   6.318   2.954
 1898TIP3   OH2 5657   3.507   2.848   1.867
 1898TIP3    H1 5658   3.441   2.916   1.879
 1898TIP3    H2 5659   3.482   2.803   1.787
 1899TIP3   OH2 5660   5.398   6.331   3.212
 1899TIP3    H1 5661   5.401   6.329   3.117
 1899TIP3    H2 5662   5.490   6.330   3.239
 1900TIP3   OH2 5663   1.169   2.388   5.431
 1900TIP3    H1 5664   1.196   2.298   5.450
 1900TIP3    H2 5665   1.130   2.384   5.344
 1901TIP3   OH2 5666   5.340   1.647   5.234
 1901TIP3    H1 5667   5.284   1.633   5.158
 1901TIP3    H2 5668   5.307   1.586   5.300
 1902TIP3   OH2 5669   1.532   0.494   5.207
 1902TIP3    H1 5670   1.506   0.586   5.215
 1902TIP3    H2 5671   1.582   0.491   5.126
 1903TIP3   OH2 5672   0.447   6.736   4.971
 1903TIP3    H1 5673   0.445   6.785   5.054
 1903TIP3    H2 5674   0.449   6.803   4.903
 1904TIP3   OH2 5675   3.353   5.720   5.703
 1904TIP3    H1 5676   3.350   5.645   5.762
 1904TIP3    H2 5677   3.439   5.759   5.718
 1905TIP3   OH2 5678   6.473   4.094   2.946
 1905TIP3    H1 5679   6.498   4.179   2.912
 1905TIP3    H2 5680   6.471   4.105   3.041
 1906TIP3   OH2 5681   6.932   0.993   1.521
 1906TIP3    H1 5682   7.023   1.024   1.522
 1906TIP3    H2 5683   6.910   0.988   1.428
 1907TIP3   OH2 5684   2.642   0.576   2.647
 1907TIP3    H1 5685   2.637   0.522   2.726
 1907TIP3    H2 5686   2.712   0.536   2.596
 1908TIP3   OH2 5687   4.723   2.410   1.472
 1908TIP3    H1 5688   4.681   2.325   1.458
 1908TIP3    H2 5689   4.656   2.464   1.515
 1909TIP3   OH2 5690   1.802   4.259   2.072
 1909TIP3    H1 5691   1.793   4.164   2.067
 1909TIP3    H2 5692   1.852   4.282   1.994
 1910TIP3   OH2 5693   4.498   4.112   1.991
 1910TIP3    H1 5694   4.576   4.063   2.018
 1910TIP3    H2 5695   4.427   4.048   1.994
 1911TIP3   OH2 5696   1.618   5.926   4.707
 1911TIP3    H1 5697   1.534   5.940   4.750
 1911TIP3    H2 5698   1.653   5.846   4.747
 1912TIP3   OH2 5699   1.876   4.226   5.640
 1912TIP3    H1 5700   1.860   4.319   5.620
 1912TIP3    H2 5701   1.955   4.227   5.694
 1913TIP3   OH2 5702   0.489   3.749   3.983
 1913TIP3    H1 5703   0.547   3.693   4.035
 1913TIP3    H2 5704   0.444   3.689   3.924
 1914TIP3   OH2 5705   1.038   6.068   4.825
 1914TIP3    H1 5706   1.007   6.081   4.735
 1914TIP3    H2 5707   0.963   6.091   4.880
 1915TIP3   OH2 5708   5.269   0.830   2.834
 1915TIP3    H1 5709   5.315   0.752   2.804
 1915TIP3    H2 5710   5.207   0.850   2.764
 1916TIP3   OH2 5711   3.097   0.172   0.305
 1916TIP3    H1 5712   3.070   0.148   0.217
 1916TIP3    H2 5713   3.173   0.230   0.292
 1917TIP3   OH2 5714   3.215   4.461   4.966
 1917TIP3    H1 5715   3.230   4.395   5.033
 1917TIP3    H2 5716   3.291   4.454   4.908
 1918TIP3   OH2 5717   3.127   3.113   1.578
 1918TIP3    H1 5718   3.066   3.053   1.536
 1918TIP3    H2 5719   3.210   3.066   1.580
 1919TIP3   OH2 5720   6.883   4.113   2.334
 1919TIP3    H1 5721   6.900   4.022   2.308
 1919TIP3    H2 5722   6.872   4.109   2.429
 1920TIP3   OH2 5723   1.800   1.659   0.276
 1920TIP3    H1 5724   1.810   1.745   0.234
 1920TIP3    H2 5725   1.787   1.680   0.369
 1921TIP3   OH2 5726   5.878   0.112   0.256
 1921TIP3    H1 5727   5.893   0.046   0.323
 1921TIP3    H2 5728   5.796   0.087   0.215
 1922TIP3   OH2 5729   2.815   1.984   2.915
 1922TIP3    H1 5730   2.831   1.940   2.832
 1922TIP3    H2 5731   2.896   1.973   2.965
 1923TIP3   OH2 5732   6.749   0.150   3.339
 1923TIP3    H1 5733   6.790   0.234   3.318
 1923TIP3    H2 5734   6.657   0.162   3.316
 1924TIP3   OH2 5735   0.307   4.668   5.243
 1924TIP3    H1 5736   0.280   4.698   5.156
 1924TIP3    H2 5737   0.249   4.595   5.263
 1925TIP3   OH2 5738   1.560   2.874   3.091
 1925TIP3    H1 5739   1.499   2.837   3.156
 1925TIP3    H2 5740   1.638   2.819   3.098
 1926TIP3   OH2 5741   3.112   4.873   2.536
 1926TIP3    H1 5742   3.061   4.804   2.578
 1926TIP3    H2 5743   3.134   4.838   2.450
 1927TIP3   OH2 5744   2.955   5.310   0.756
 1927TIP3    H1 5745   2.972   5.396   0.718
 1927TIP3    H2 5746   2.953   5.251   0.681
 1928TIP3   OH2 5747   0.866   2.827   4.145
 1928TIP3    H1 5748   0.787   2.779   4.119
 1928TIP3    H2 5749   0.937   2.764   4.132
 1929TIP3   OH2 5750   4.187   5.106   2.253
 1929TIP3    H1 5751   4.255   5.051   2.291
 1929TIP3    H2 5752   4.136   5.047   2.198
 1930TIP3   OH2 5753   2.842   3.120   2.052
 1930TIP3    H1 5754   2.860   3.133   1.959
 1930TIP3    H2 5755   2.812   3.029   2.058
 1931TIP3   OH2 5756   0.343   1.443   2.239
 1931TIP3    H1 5757   0.436   1.459   2.254
 1931TIP3    H2 5758   0.299   1.475   2.318
 1932TIP3   OH2 5759   4.294   3.311   5.060
 1932TIP3    H1 5760   4.210   3.264   5.061
 1932TIP3    H2 5761   4.289   3.370   5.135
 1933TIP3   OH2 5762   0.329   5.118   2.465
 1933TIP3    H1 5763   0.353   5.072   2.385
 1933TIP3    H2 5764   0.330   5.049   2.532
 1934TIP3   OH2 5765   3.873   0.377   2.627
 1934TIP3    H1 5766   3.901   0.445   2.566
 1934TIP3    H2 5767   3.954   0.336   2.656
 1935TIP3   OH2 5768   3.166   2.765   4.522
 1935TIP3    H1 5769   3.200   2.767   4.611
 1935TIP3    H2 5770   3.090   2.707   4.526
 1936TIP3   OH2 5771   7.174   3.729   5.044
 1936TIP3    H1 5772   7.152   3.646   5.087
 1936TIP3    H2 5773   7.269   3.728   5.037
 1937TIP3   OH2 5774   6.356   2.417   1.637
 1937TIP3    H1 5775   6.280   2.459   1.596
 1937TIP3    H2 5776   6.406   2.490   1.675
 1938TIP3   OH2 5777   2.917   3.032   2.340
 1938TIP3    H1 5778   2.949   2.953   2.297
 1938TIP3    H2 5779   2.822   3.024   2.338
 1939TIP3   OH2 5780   2.572   4.847   2.278
 1939TIP3    H1 5781   2.637   4.839   2.348
 1939TIP3    H2 5782   2.613   4.807   2.202
 1940TIP3   OH2 5783   4.444   4.085   5.014
 1940TIP3    H1 5784   4.377   4.079   4.946
 1940TIP3    H2 5785   4.516   4.031   4.981
 1941TIP3   OH2 5786   6.935   0.712   2.015
 1941TIP3    H1 5787   6.874   0.775   1.976
 1941TIP3    H2 5788   6.896   0.626   1.998
 1942TIP3   OH2 5789   0.534   2.064   5.213
 1942TIP3    H1 5790   0.494   2.072   5.300
 1942TIP3    H2 5791   0.628   2.071   5.228
 1943TIP3   OH2 5792   1.689   5.534   1.392
 1943TIP3    H1 5793   1.725   5.601   1.451
 1943TIP3    H2 5794   1.630   5.483   1.447
 1944TIP3   OH2 5795   6.112   3.673   4.102
 1944TIP3    H1 5796   6.153   3.626   4.029
 1944TIP3    H2 5797   6.093   3.605   4.166
 1945TIP3   OH2 5798   3.726   3.565   5.395
 1945TIP3    H1 5799   3.680   3.515   5.463
 1945TIP3    H2 5800   3.706   3.656   5.414
 1946TIP3   OH2 5801   2.147   3.954   3.284
 1946TIP3    H1 5802   2.232   3.968   3.325
 1946TIP3    H2 5803   2.164   3.960   3.190
 1947TIP3   OH2 5804   4.824   3.469   3.803
 1947TIP3    H1 5805   4.819   3.541   3.739
 1947TIP3    H2 5806   4.912   3.476   3.840
 1948TIP3   OH2 5807   5.951   0.661   5.213
 1948TIP3    H1 5808   5.962   0.754   5.193
 1948TIP3    H2 5809   5.858   0.644   5.201
 1949TIP3   OH2 5810   0.047   1.307   2.340
 1949TIP3    H1 5811   0.044   1.336   2.249
 1949TIP3    H2 5812   0.067   1.387   2.389
 1950TIP3   OH2 5813   5.886   6.428   1.954
 1950TIP3    H1 5814   5.807   6.381   1.927
 1950TIP3    H2 5815   5.867   6.455   2.044
 1951TIP3   OH2 5816   0.204   0.237   5.698
 1951TIP3    H1 5817   0.287   0.212   5.739
 1951TIP3    H2 5818   0.155   0.280   5.768
 1952TIP3   OH2 5819   7.247   6.637   1.981
 1952TIP3    H1 5820   7.209   6.591   1.906
 1952TIP3    H2 5821   7.231   6.730   1.963
 1953TIP3   OH2 5822   0.152   2.072   4.931
 1953TIP3    H1 5823   0.131   2.003   4.994
 1953TIP3    H2 5824   0.219   2.124   4.976
 1954TIP3   OH2 5825   0.029   2.989   1.472
 1954TIP3    H1 5826   0.114   3.016   1.438
 1954TIP3    H2 5827   0.019   3.038   1.554
 1955TIP3   OH2 5828   2.562   4.422   0.546
 1955TIP3    H1 5829   2.624   4.439   0.476
 1955TIP3    H2 5830   2.560   4.326   0.555
 1956TIP3   OH2 5831   6.938   3.184   2.152
 1956TIP3    H1 5832   7.023   3.141   2.142
 1956TIP3    H2 5833   6.950   3.246   2.224
 1957TIP3   OH2 5834   2.915   3.893   5.444
 1957TIP3    H1 5835   2.936   3.811   5.489
 1957TIP3    H2 5836   2.822   3.906   5.460
 1958TIP3   OH2 5837   6.141   6.654   3.886
 1958TIP3    H1 5838   6.214   6.688   3.938
 1958TIP3    H2 5839   6.172   6.660   3.795
 1959TIP3   OH2 5840   4.025   1.974   3.867
 1959TIP3    H1 5841   3.974   2.054   3.881
 1959TIP3    H2 5842   3.966   1.904   3.895
 1960TIP3   OH2 5843   6.727   5.143   1.347
 1960TIP3    H1 5844   6.809   5.189   1.330
 1960TIP3    H2 5845   6.706   5.099   1.264
 1961TIP3   OH2 5846   3.053   1.809   1.981
 1961TIP3    H1 5847   2.991   1.814   2.053
 1961TIP3    H2 5848   3.050   1.718   1.952
 1962TIP3   OH2 5849   2.545   5.119   0.050
 1962TIP3    H1 5850   2.575   5.182  -0.016
 1962TIP3    H2 5851   2.513   5.174   0.122
 1963TIP3   OH2 5852   5.438   2.608   1.921
 1963TIP3    H1 5853   5.449   2.547   1.848
 1963TIP3    H2 5854   5.391   2.682   1.884
 1964TIP3   OH2 5855   0.852   3.759   2.610
 1964TIP3    H1 5856   0.859   3.663   2.609
 1964TIP3    H2 5857   0.893   3.788   2.529
 1965TIP3   OH2 5858   3.515   6.666   3.877
 1965TIP3    H1 5859   3.487   6.582   3.841
 1965TIP3    H2 5860   3.433   6.713   3.894
 1966TIP3   OH2 5861   4.375   4.484   2.404
 1966TIP3    H1 5862   4.403   4.419   2.340
 1966TIP3    H2 5863   4.341   4.433   2.477
 1967TIP3   OH2 5864   7.216   4.648   0.394
 1967TIP3    H1 5865   7.126   4.677   0.411
 1967TIP3    H2 5866   7.269   4.727   0.398
 1968TIP3   OH2 5867   1.096   6.287   1.214
 1968TIP3    H1 5868   1.122   6.376   1.189
 1968TIP3    H2 5869   1.128   6.232   1.143
 1969TIP3   OH2 5870   3.443   2.323   3.960
 1969TIP3    H1 5871   3.401   2.242   3.989
 1969TIP3    H2 5872   3.393   2.393   4.002
 1970TIP3   OH2 5873   6.764   2.546   5.283
 1970TIP3    H1 5874   6.720   2.520   5.364
 1970TIP3    H2 5875   6.698   2.535   5.215
 1971TIP3   OH2 5876   3.617   3.325   0.332
 1971TIP3    H1 5877   3.597   3.245   0.284
 1971TIP3    H2 5878   3.687   3.367   0.282
 1972TIP3   OH2 5879   5.011   2.396   1.470
 1972TIP3    H1 5880   4.944   2.459   1.445
 1972TIP3    H2 5881   4.973   2.348   1.543
 1973TIP3   OH2 5882   1.126   6.231   2.298
 1973TIP3    H1 5883   1.155   6.322   2.290
 1973TIP3    H2 5884   1.040   6.237   2.339
 1974TIP3   OH2 5885   2.572   2.592   0.516
 1974TIP3    H1 5886   2.667   2.600   0.528
 1974TIP3    H2 5887   2.556   2.629   0.429
 1975TIP3   OH2 5888   3.309   4.940   3.085
 1975TIP3    H1 5889   3.253   4.977   3.017
 1975TIP3    H2 5890   3.250   4.884   3.136
 1976TIP3   OH2 5891   4.105   2.388   2.478
 1976TIP3    H1 5892   4.021   2.427   2.454
 1976TIP3    H2 5893   4.096   2.295   2.457
 1977TIP3   OH2 5894   2.601   0.656   4.959
 1977TIP3    H1 5895   2.651   0.631   4.882
 1977TIP3    H2 5896   2.629   0.746   4.978
 1978TIP3   OH2 5897   1.800   4.363   0.592
 1978TIP3    H1 5898   1.740   4.300   0.632
 1978TIP3    H2 5899   1.881   4.353   0.641
 1979TIP3   OH2 5900   4.389   5.381   2.445
 1979TIP3    H1 5901   4.337   5.449   2.402
 1979TIP3    H2 5902   4.373   5.394   2.539
 1980TIP3   OH2 5903   6.445   0.693   1.607
 1980TIP3    H1 5904   6.535   0.710   1.576
 1980TIP3    H2 5905   6.391   0.756   1.559
 1981TIP3   OH2 5906   6.938   5.769   3.389
 1981TIP3    H1 5907   6.861   5.821   3.370
 1981TIP3    H2 5908   6.921   5.685   3.347
 1982TIP3   OH2 5909   4.637   3.533   1.820
 1982TIP3    H1 5910   4.730   3.555   1.820
 1982TIP3    H2 5911   4.592   3.616   1.808
 1983TIP3   OH2 5912   3.995   2.381   3.072
 1983TIP3    H1 5913   3.914   2.430   3.062
 1983TIP3    H2 5914   4.054   2.441   3.119
 1984TIP3   OH2 5915   1.907   3.219   1.341
 1984TIP3    H1 5916   1.951   3.135   1.357
 1984TIP3    H2 5917   1.965   3.265   1.281
 1985TIP3   OH2 5918   7.147   4.563   0.149
 1985TIP3    H1 5919   7.190   4.622   0.087
 1985TIP3    H2 5920   7.177   4.593   0.235
 1986TIP3   OH2 5921   5.609   1.285   0.432
 1986TIP3    H1 5922   5.589   1.298   0.339
 1986TIP3    H2 5923   5.670   1.355   0.454
 1987TIP3   OH2 5924   7.122   2.492   5.577
 1987TIP3    H1 5925   7.178   2.474   5.652
 1987TIP3    H2 5926   7.044   2.533   5.614
 1988TIP3   OH2 5927   6.718   6.220   4.512
 1988TIP3    H1 5928   6.632   6.236   4.472
 1988TIP3    H2 5929   6.737   6.300   4.560
 1989TIP3   OH2 5930   0.046   2.316   4.301
 1989TIP3    H1 5931  -0.005   2.240   4.274
 1989TIP3    H2 5932  -0.014   2.390   4.293
 1990TIP3   OH2 5933   2.654   5.707   3.712
 1990TIP3    H1 5934   2.708   5.670   3.642
 1990TIP3    H2 5935   2.707   5.777   3.749
 1991TIP3   OH2 5936   4.178   0.803   4.511
 1991TIP3    H1 5937   4.123   0.790   4.588
 1991TIP3    H2 5938   4.119   0.789   4.437
 1992TIP3   OH2 5939   6.971   6.175   3.812
 1992TIP3    H1 5940   6.950   6.103   3.752
 1992TIP3    H2 5941   7.056   6.208   3.781
 1993TIP3   OH2 5942   0.900   5.416   2.249
 1993TIP3    H1 5943   0.875   5.324   2.254
 1993TIP3    H2 5944   0.839   5.460   2.307
 1994TIP3   OH2 5945   5.577   5.840   2.959
 1994TIP3    H1 5946   5.514   5.797   3.016
 1994TIP3    H2 5947   5.570   5.933   2.982
 1995TIP3   OH2 5948   0.089   0.205   4.263
 1995TIP3    H1 5949   0.130   0.199   4.177
 1995TIP3    H2 5950   0.149   0.260   4.315
 1996TIP3   OH2 5951   2.343   6.367   1.169
 1996TIP3    H1 5952   2.263   6.369   1.221
 1996TIP3    H2 5953   2.334   6.288   1.115
 1997TIP3   OH2 5954   3.271   0.526   1.649
 1997TIP3    H1 5955   3.280   0.431   1.638
 1997TIP3    H2 5956   3.183   0.538   1.684
 1998TIP3   OH2 5957   0.888   3.826   3.929
 1998TIP3    H1 5958   0.851   3.896   3.876
 1998TIP3    H2 5959   0.831   3.751   3.912
 1999TIP3   OH2 5960   5.886   5.505   5.535
 1999TIP3    H1 5961   5.793   5.481   5.530
 1999TIP3    H2 5962   5.915   5.470   5.620
 2000TIP3   OH2 5963   2.732   3.995   4.747
 2000TIP3    H1 5964   2.721   3.972   4.839
 2000TIP3    H2 5965   2.823   4.024   4.741
 2001TIP3   OH2 5966   2.001   3.589   2.176
 2001TIP3    H1 5967   2.047   3.510   2.147
 2001TIP3    H2 5968   2.046   3.614   2.257
 2002TIP3   OH2 5969   4.744   1.087   2.253
 2002TIP3    H1 5970   4.825   1.138   2.246
 2002TIP3    H2 5971   4.754   1.037   2.334
 2003TIP3   OH2 5972   6.929   4.203   1.322
 2003TIP3    H1 5973   6.872   4.160   1.385
 2003TIP3    H2 5974   7.002   4.141   1.310
 2004TIP3   OH2 5975   5.019   1.814   3.682
 2004TIP3    H1 5976   5.029   1.746   3.749
 2004TIP3    H2 5977   5.088   1.794   3.619
 2005TIP3   OH2 5978   3.664   4.173   4.007
 2005TIP3    H1 5979   3.712   4.090   4.005
 2005TIP3    H2 5980   3.649   4.194   3.915
 2006TIP3   OH2 5981   3.402   0.827   4.083
 2006TIP3    H1 5982   3.470   0.894   4.075
 2006TIP3    H2 5983   3.436   0.766   4.149
 2007TIP3   OH2 5984   7.145   2.148   2.420
 2007TIP3    H1 5985   7.114   2.171   2.507
 2007TIP3    H2 5986   7.107   2.062   2.402
 2008TIP3   OH2 5987   2.229   3.829   4.623
 2008TIP3    H1 5988   2.198   3.774   4.551
 2008TIP3    H2 5989   2.322   3.844   4.604
 2009TIP3   OH2 5990   1.923   2.625   1.175
 2009TIP3    H1 5991   1.955   2.685   1.242
 2009TIP3    H2 5992   1.854   2.673   1.130
 2010TIP3   OH2 5993   6.439   4.332   1.565
 2010TIP3    H1 5994   6.436   4.238   1.547
 2010TIP3    H2 5995   6.348   4.357   1.575
 2011TIP3   OH2 5996   2.270   4.894   4.181
 2011TIP3    H1 5997   2.293   4.886   4.273
 2011TIP3    H2 5998   2.226   4.978   4.174
 2012TIP3   OH2 5999   2.372   1.684   4.396
 2012TIP3    H1 6000   2.322   1.752   4.351
 2012TIP3    H2 6001   2.360   1.702   4.489
 2013TIP3   OH2 6002   1.391   6.335   1.489
 2013TIP3    H1 6003   1.310   6.298   1.454
 2013TIP3    H2 6004   1.396   6.422   1.451
 2014TIP3   OH2 6005   3.263   1.363   2.893
 2014TIP3    H1 6006   3.218   1.368   2.809
 2014TIP3    H2 6007   3.208   1.306   2.947
 2015TIP3   OH2 6008   6.360   6.040   1.703
 2015TIP3    H1 6009   6.392   6.001   1.622
 2015TIP3    H2 6010   6.426   6.015   1.769
 2016TIP3   OH2 6011   0.428   5.843   4.468
 2016TIP3    H1 6012   0.407   5.753   4.491
 2016TIP3    H2 6013   0.423   5.891   4.550
 2017TIP3   OH2 6014   1.789   0.898   4.068
 2017TIP3    H1 6015   1.716   0.941   4.114
 2017TIP3    H2 6016   1.808   0.955   3.994
 2018TIP3   OH2 6017   0.073   4.213   3.519
 2018TIP3    H1 6018   0.108   4.230   3.606
 2018TIP3    H2 6019  -0.009   4.262   3.516
 2019TIP3   OH2 6020   0.208   0.535   4.983
 2019TIP3    H1 6021   0.205   0.629   4.962
 2019TIP3    H2 6022   0.158   0.528   5.065
 2020TIP3   OH2 6023   2.547   2.563   3.895
 2020TIP3    H1 6024   2.630   2.523   3.870
 2020TIP3    H2 6025   2.482   2.524   3.836
 2021TIP3   OH2 6026   3.935   5.253   0.105
 2021TIP3    H1 6027   3.961   5.313   0.175
 2021TIP3    H2 6028   4.017   5.227   0.064
 2022TIP3   OH2 6029   4.233   3.863   0.737
 2022TIP3    H1 6030   4.228   3.806   0.661
 2022TIP3    H2 6031   4.163   3.832   0.795
 2023TIP3   OH2 6032   5.835   6.222   2.328
 2023TIP3    H1 6033   5.922   6.230   2.289
 2023TIP3    H2 6034   5.852   6.195   2.418
 2024TIP3   OH2 6035   6.150   0.382   3.442
 2024TIP3    H1 6036   6.079   0.320   3.423
 2024TIP3    H2 6037   6.216   0.365   3.376
 2025TIP3   OH2 6038   1.127   3.793   5.251
 2025TIP3    H1 6039   1.165   3.877   5.227
 2025TIP3    H2 6040   1.039   3.794   5.211
 2026TIP3   OH2 6041   3.450   6.833   1.472
 2026TIP3    H1 6042   3.403   6.911   1.443
 2026TIP3    H2 6043   3.423   6.765   1.409
 2027TIP3   OH2 6044   2.219   2.851   3.791
 2027TIP3    H1 6045   2.183   2.915   3.852
 2027TIP3    H2 6046   2.196   2.766   3.830
 2028TIP3   OH2 6047   5.434   2.558   2.791
 2028TIP3    H1 6048   5.367   2.491   2.808
 2028TIP3    H2 6049   5.445   2.557   2.696
 2029TIP3   OH2 6050   4.218   0.755   4.127
 2029TIP3    H1 6051   4.281   0.686   4.148
 2029TIP3    H2 6052   4.204   0.746   4.032
 2030TIP3   OH2 6053   5.552   0.882   1.735
 2030TIP3    H1 6054   5.547   0.924   1.820
 2030TIP3    H2 6055   5.602   0.943   1.681
 2031TIP3   OH2 6056   6.311   5.876   2.091
 2031TIP3    H1 6057   6.384   5.893   2.151
 2031TIP3    H2 6058   6.309   5.781   2.082
 2032TIP3   OH2 6059   3.962   5.180   3.213
 2032TIP3    H1 6060   4.045   5.132   3.206
 2032TIP3    H2 6061   3.981   5.266   3.176
 2033TIP3   OH2 6062   0.908   5.007   4.243
 2033TIP3    H1 6063   0.964   4.935   4.271
 2033TIP3    H2 6064   0.890   4.990   4.151
 2034TIP3   OH2 6065   4.781   3.373   1.219
 2034TIP3    H1 6066   4.875   3.358   1.208
 2034TIP3    H2 6067   4.770   3.467   1.200
 2035TIP3   OH2 6068   1.082   4.065   1.198
 2035TIP3    H1 6069   1.135   3.985   1.198
 2035TIP3    H2 6070   1.013   4.048   1.133
 2036TIP3   OH2 6071   1.029   1.521   4.689
 2036TIP3    H1 6072   1.011   1.615   4.682
 2036TIP3    H2 6073   0.942   1.481   4.696
 2037TIP3   OH2 6074   6.806   0.344   5.018
 2037TIP3    H1 6075   6.878   0.282   5.007
 2037TIP3    H2 6076   6.727   0.293   4.998
 2038TIP3   OH2 6077   3.660   6.096   5.843
 2038TIP3    H1 6078   3.629   6.007   5.861
 2038TIP3    H2 6079   3.614   6.121   5.764
 2039TIP3   OH2 6080   3.772   6.296   4.777
 2039TIP3    H1 6081   3.779   6.370   4.718
 2039TIP3    H2 6082   3.769   6.335   4.865
 2040TIP3   OH2 6083   0.591   3.101   2.211
 2040TIP3    H1 6084   0.662   3.116   2.149
 2040TIP3    H2 6085   0.629   3.043   2.278
 2041TIP3   OH2 6086   4.410   4.134   5.299
 2041TIP3    H1 6087   4.329   4.085   5.286
 2041TIP3    H2 6088   4.451   4.138   5.213
 2042TIP3   OH2 6089   4.642   4.267   3.441
 2042TIP3    H1 6090   4.626   4.348   3.489
 2042TIP3    H2 6091   4.705   4.291   3.373
 2043TIP3   OH2 6092   6.694   2.134   1.802
 2043TIP3    H1 6093   6.749   2.085   1.862
 2043TIP3    H2 6094   6.721   2.105   1.715
 2044TIP3   OH2 6095   1.652   3.214   1.818
 2044TIP3    H1 6096   1.567   3.177   1.840
 2044TIP3    H2 6097   1.686   3.247   1.901
 2045TIP3   OH2 6098   1.476   5.722   0.275
 2045TIP3    H1 6099   1.478   5.809   0.235
 2045TIP3    H2 6100   1.429   5.734   0.357
 2046TIP3   OH2 6101   6.766   1.128   1.718
 2046TIP3    H1 6102   6.825   1.092   1.652
 2046TIP3    H2 6103   6.785   1.222   1.718
 2047TIP3   OH2 6104   2.583   6.516   4.052
 2047TIP3    H1 6105   2.627   6.479   4.128
 2047TIP3    H2 6106   2.553   6.440   4.001
 2048TIP3   OH2 6107   2.418   5.318   1.285
 2048TIP3    H1 6108   2.389   5.390   1.229
 2048TIP3    H2 6109   2.386   5.341   1.372
 2049TIP3   OH2 6110   6.491   3.615   5.181
 2049TIP3    H1 6111   6.453   3.682   5.124
 2049TIP3    H2 6112   6.544   3.561   5.122
 2050TIP3   OH2 6113   5.902   1.408   1.206
 2050TIP3    H1 6114   5.975   1.433   1.263
 2050TIP3    H2 6115   5.943   1.360   1.135
 2051TIP3   OH2 6116   1.808   1.473   1.779
 2051TIP3    H1 6117   1.828   1.496   1.689
 2051TIP3    H2 6118   1.884   1.502   1.829
 2052TIP3   OH2 6119   0.267   0.153   4.815
 2052TIP3    H1 6120   0.281   0.067   4.775
 2052TIP3    H2 6121   0.172   0.160   4.825
 2053TIP3   OH2 6122   3.268   0.297   3.014
 2053TIP3    H1 6123   3.336   0.364   3.007
 2053TIP3    H2 6124   3.244   0.297   3.107
 2054TIP3   OH2 6125   2.426   2.727   1.257
 2054TIP3    H1 6126   2.475   2.787   1.202
 2054TIP3    H2 6127   2.390   2.662   1.196
 2055TIP3   OH2 6128   2.969   6.158   1.753
 2055TIP3    H1 6129   2.942   6.133   1.842
 2055TIP3    H2 6130   2.899   6.216   1.722
 2056TIP3   OH2 6131   2.493   5.257   5.463
 2056TIP3    H1 6132   2.487   5.184   5.401
 2056TIP3    H2 6133   2.513   5.216   5.547
 2057TIP3   OH2 6134   1.144   4.980   1.703
 2057TIP3    H1 6135   1.057   4.942   1.715
 2057TIP3    H2 6136   1.159   4.977   1.608
 2058TIP3   OH2 6137   3.820   2.502   2.425
 2058TIP3    H1 6138   3.811   2.512   2.520
 2058TIP3    H2 6139   3.731   2.510   2.392
 2059TIP3   OH2 6140   2.751   4.135   2.700
 2059TIP3    H1 6141   2.759   4.208   2.640
 2059TIP3    H2 6142   2.730   4.175   2.784
 2060TIP3   OH2 6143   2.448   6.623   5.076
 2060TIP3    H1 6144   2.422   6.534   5.100
 2060TIP3    H2 6145   2.540   6.628   5.102
 2061TIP3   OH2 6146   4.719   2.926   0.898
 2061TIP3    H1 6147   4.704   2.936   0.992
 2061TIP3    H2 6148   4.700   2.833   0.881
 2062TIP3   OH2 6149   2.732   0.872   3.809
 2062TIP3    H1 6150   2.667   0.804   3.829
 2062TIP3    H2 6151   2.694   0.952   3.844
 2063TIP3   OH2 6152   6.018   2.869   4.107
 2063TIP3    H1 6153   6.094   2.849   4.053
 2063TIP3    H2 6154   5.946   2.819   4.067
 2064TIP3   OH2 6155   0.411   1.811   1.724
 2064TIP3    H1 6156   0.434   1.898   1.757
 2064TIP3    H2 6157   0.427   1.816   1.630
 2065TIP3   OH2 6158   0.889   2.786   0.941
 2065TIP3    H1 6159   0.930   2.729   0.877
 2065TIP3    H2 6160   0.945   2.863   0.945
 2066TIP3   OH2 6161   5.123   4.746   1.400
 2066TIP3    H1 6162   5.106   4.825   1.348
 2066TIP3    H2 6163   5.213   4.722   1.379
 2067TIP3   OH2 6164   6.409   0.813   3.764
 2067TIP3    H1 6165   6.436   0.873   3.694
 2067TIP3    H2 6166   6.328   0.852   3.798
 2068TIP3   OH2 6167   6.156   6.365   2.644
 2068TIP3    H1 6168   6.187   6.421   2.714
 2068TIP3    H2 6169   6.235   6.339   2.597
 2069TIP3   OH2 6170   4.842   0.836   4.324
 2069TIP3    H1 6171   4.810   0.824   4.414
 2069TIP3    H2 6172   4.871   0.927   4.321
 2070TIP3   OH2 6173   6.820   6.786   5.819
 2070TIP3    H1 6174   6.808   6.691   5.830
 2070TIP3    H2 6175   6.866   6.794   5.735
 2071TIP3   OH2 6176   7.015   0.312   1.989
 2071TIP3    H1 6177   6.930   0.338   2.024
 2071TIP3    H2 6178   7.028   0.368   1.913
 2072TIP3   OH2 6179   2.446   1.146   5.452
 2072TIP3    H1 6180   2.499   1.136   5.531
 2072TIP3    H2 6181   2.356   1.151   5.484
 2073TIP3   OH2 6182   5.200   1.591   1.164
 2073TIP3    H1 6183   5.288   1.564   1.189
 2073TIP3    H2 6184   5.212   1.641   1.084
 2074TIP3   OH2 6185   1.214   1.725   2.921
 2074TIP3    H1 6186   1.282   1.790   2.905
 2074TIP3    H2 6187   1.176   1.750   3.005
 2075TIP3   OH2 6188   7.040   3.551   2.387
 2075TIP3    H1 6189   6.952   3.525   2.362
 2075TIP3    H2 6190   7.028   3.629   2.442
 2076TIP3   OH2 6191  -0.002   2.074   4.088
 2076TIP3    H1 6192   0.058   2.065   4.013
 2076TIP3    H2 6193  -0.080   2.026   4.061
 2077TIP3   OH2 6194   5.583   1.242   0.138
 2077TIP3    H1 6195   5.605   1.325   0.095
 2077TIP3    H2 6196   5.548   1.187   0.067
 2078TIP3   OH2 6197   3.042   4.579   4.629
 2078TIP3    H1 6198   2.969   4.640   4.623
 2078TIP3    H2 6199   3.115   4.631   4.663
 2079TIP3   OH2 6200   5.445   1.182   3.194
 2079TIP3    H1 6201   5.516   1.245   3.181
 2079TIP3    H2 6202   5.482   1.098   3.167
 2080TIP3   OH2 6203   4.270   5.343   4.890
 2080TIP3    H1 6204   4.281   5.437   4.899
 2080TIP3    H2 6205   4.175   5.330   4.886
 2081TIP3   OH2 6206   4.490   5.812   5.079
 2081TIP3    H1 6207   4.482   5.807   4.984
 2081TIP3    H2 6208   4.508   5.905   5.096
 2082TIP3   OH2 6209   4.818   0.359  -0.057
 2082TIP3    H1 6210   4.900   0.311  -0.046
 2082TIP3    H2 6211   4.845   0.451  -0.067
 2083TIP3   OH2 6212   2.863   3.728   2.772
 2083TIP3    H1 6213   2.793   3.678   2.814
 2083TIP3    H2 6214   2.819   3.804   2.734
 2084TIP3   OH2 6215   5.153   4.093   3.958
 2084TIP3    H1 6216   5.117   4.157   4.019
 2084TIP3    H2 6217   5.076   4.051   3.920
 2085TIP3   OH2 6218   1.130   0.116   5.424
 2085TIP3    H1 6219   1.195   0.155   5.366
 2085TIP3    H2 6220   1.097   0.189   5.476
 2086TIP3   OH2 6221   2.834   6.732   5.650
 2086TIP3    H1 6222   2.879   6.648   5.653
 2086TIP3    H2 6223   2.882   6.787   5.713
 2087TIP3   OH2 6224   3.974   2.010   2.046
 2087TIP3    H1 6225   4.059   2.021   2.089
 2087TIP3    H2 6226   3.911   2.038   2.113
 2088TIP3   OH2 6227   3.122   5.859   1.112
 2088TIP3    H1 6228   3.159   5.794   1.054
 2088TIP3    H2 6229   3.170   5.848   1.195
 2089TIP3   OH2 6230   6.419   5.152   0.306
 2089TIP3    H1 6231   6.505   5.170   0.342
 2089TIP3    H2 6232   6.358   5.187   0.371
 2090TIP3   OH2 6233   6.570   4.219   1.794
 2090TIP3    H1 6234   6.556   4.297   1.741
 2090TIP3    H2 6235   6.665   4.205   1.792
 2091TIP3   OH2 6236   1.580   5.991   5.141
 2091TIP3    H1 6237   1.565   6.083   5.163
 2091TIP3    H2 6238   1.635   5.958   5.211
 2092TIP3   OH2 6239   4.456   0.260   2.827
 2092TIP3    H1 6240   4.414   0.174   2.820
 2092TIP3    H2 6241   4.549   0.242   2.818
 2093TIP3   OH2 6242   3.050   1.529   5.434
 2093TIP3    H1 6243   2.955   1.542   5.433
 2093TIP3    H2 6244   3.073   1.513   5.343
 2094TIP3   OH2 6245   6.374   0.122   0.976
 2094TIP3    H1 6246   6.333   0.064   1.040
 2094TIP3    H2 6247   6.304   0.141   0.913
 2095TIP3   OH2 6248   1.118   3.257   3.809
 2095TIP3    H1 6249   1.128   3.333   3.866
 2095TIP3    H2 6250   1.148   3.183   3.863
 2096TIP3   OH2 6251   6.987   0.764   5.640
 2096TIP3    H1 6252   6.894   0.779   5.656
 2096TIP3    H2 6253   7.030   0.791   5.721
 2097TIP3   OH2 6254   3.780   6.650   3.754
 2097TIP3    H1 6255   3.785   6.554   3.756
 2097TIP3    H2 6256   3.695   6.670   3.791
 2098TIP3   OH2 6257   6.147   1.372   5.256
 2098TIP3    H1 6258   6.164   1.434   5.185
 2098TIP3    H2 6259   6.060   1.397   5.288
 2099TIP3   OH2 6260   5.539   0.927   3.550
 2099TIP3    H1 6261   5.607   0.951   3.487
 2099TIP3    H2 6262   5.475   0.878   3.498
 2100TIP3   OH2 6263   0.997   1.724   1.150
 2100TIP3    H1 6264   1.015   1.818   1.150
 2100TIP3    H2 6265   1.079   1.684   1.122
 2101TIP3   OH2 6266   4.439   3.657   0.248
 2101TIP3    H1 6267   4.362   3.620   0.203
 2101TIP3    H2 6268   4.406   3.738   0.288
 2102TIP3   OH2 6269   2.974   2.013   0.508
 2102TIP3    H1 6270   2.913   1.981   0.442
 2102TIP3    H2 6271   3.060   2.001   0.468
 2103TIP3   OH2 6272   4.235   5.950   5.142
 2103TIP3    H1 6273   4.247   5.903   5.224
 2103TIP3    H2 6274   4.308   6.012   5.139
 2104TIP3   OH2 6275   7.062   1.716   3.859
 2104TIP3    H1 6276   7.030   1.756   3.778
 2104TIP3    H2 6277   6.990   1.727   3.921
 2105TIP3   OH2 6278   4.685   1.381   4.319
 2105TIP3    H1 6279   4.616   1.346   4.376
 2105TIP3    H2 6280   4.765   1.337   4.349
 2106TIP3   OH2 6281   2.784   6.326   4.998
 2106TIP3    H1 6282   2.803   6.368   4.914
 2106TIP3    H2 6283   2.787   6.232   4.979
 2107TIP3   OH2 6284   2.921   1.660   0.788
 2107TIP3    H1 6285   2.825   1.658   0.783
 2107TIP3    H2 6286   2.943   1.590   0.849
 2108TIP3   OH2 6287   1.198   2.984   1.815
 2108TIP3    H1 6288   1.169   2.898   1.845
 2108TIP3    H2 6289   1.270   3.007   1.874
 2109TIP3   OH2 6290   3.856   4.440   3.744
 2109TIP3    H1 6291   3.873   4.346   3.751
 2109TIP3    H2 6292   3.859   4.458   3.650
 2110TIP3   OH2 6293   1.908   6.176   3.239
 2110TIP3    H1 6294   1.967   6.205   3.308
 2110TIP3    H2 6295   1.966   6.149   3.168
 2111TIP3   OH2 6296   0.276   5.465   3.470
 2111TIP3    H1 6297   0.358   5.489   3.513
 2111TIP3    H2 6298   0.218   5.539   3.488
 2112TIP3   OH2 6299   5.475   6.318   2.441
 2112TIP3    H1 6300   5.543   6.383   2.425
 2112TIP3    H2 6301   5.461   6.277   2.356
 2113TIP3   OH2 6302   2.320   2.296   2.788
 2113TIP3    H1 6303   2.401   2.304   2.738
 2113TIP3    H2 6304   2.331   2.215   2.838
 2114TIP3   OH2 6305   6.337   2.945   0.571
 2114TIP3    H1 6306   6.350   3.000   0.648
 2114TIP3    H2 6307   6.360   3.002   0.497
 2115TIP3   OH2 6308  -0.022   6.750   2.511
 2115TIP3    H1 6309  -0.032   6.734   2.417
 2115TIP3    H2 6310   0.062   6.795   2.519
 2116TIP3   OH2 6311   3.529   3.815   3.066
 2116TIP3    H1 6312   3.498   3.884   3.007
 2116TIP3    H2 6313   3.502   3.733   3.023
 2117TIP3   OH2 6314   6.902   1.955   5.517
 2117TIP3    H1 6315   6.962   1.916   5.581
 2117TIP3    H2 6316   6.921   1.909   5.435
 2118TIP3   OH2 6317   0.260   4.947   1.452
 2118TIP3    H1 6318   0.218   4.861   1.449
 2118TIP3    H2 6319   0.308   4.947   1.535
 2119TIP3   OH2 6320   6.684   2.367   1.571
 2119TIP3    H1 6321   6.740   2.290   1.578
 2119TIP3    H2 6322   6.646   2.377   1.658
 2120TIP3   OH2 6323   2.241   4.381   4.412
 2120TIP3    H1 6324   2.298   4.389   4.489
 2120TIP3    H2 6325   2.301   4.355   4.341
 2121TIP3   OH2 6326   0.851   6.341   5.698
 2121TIP3    H1 6327   0.805   6.257   5.693
 2121TIP3    H2 6328   0.861   6.368   5.607
 2122TIP3   OH2 6329   4.082   2.663   2.863
 2122TIP3    H1 6330   4.124   2.579   2.842
 2122TIP3    H2 6331   4.085   2.668   2.959
 2123TIP3   OH2 6332   1.583   6.485   4.298
 2123TIP3    H1 6333   1.507   6.528   4.259
 2123TIP3    H2 6334   1.656   6.508   4.241
 2124TIP3   OH2 6335   6.385   0.182   0.620
 2124TIP3    H1 6336   6.461   0.231   0.590
 2124TIP3    H2 6337   6.409   0.090   0.606
 2125TIP3   OH2 6338   6.379   1.953   3.132
 2125TIP3    H1 6339   6.435   1.957   3.055
 2125TIP3    H2 6340   6.302   2.006   3.109
 2126TIP3   OH2 6341   5.732   5.435   4.010
 2126TIP3    H1 6342   5.737   5.443   3.915
 2126TIP3    H2 6343   5.807   5.380   4.034
 2127TIP3   OH2 6344   5.560   5.981   5.749
 2127TIP3    H1 6345   5.513   5.915   5.699
 2127TIP3    H2 6346   5.584   6.048   5.684
 2128TIP3   OH2 6347   5.627   2.240   2.252
 2128TIP3    H1 6348   5.593   2.316   2.206
 2128TIP3    H2 6349   5.605   2.255   2.344
 2129TIP3   OH2 6350   4.510   5.619   2.339
 2129TIP3    H1 6351   4.436   5.593   2.284
 2129TIP3    H2 6352   4.543   5.537   2.375
 2130TIP3   OH2 6353   1.232   4.642   3.441
 2130TIP3    H1 6354   1.153   4.612   3.396
 2130TIP3    H2 6355   1.299   4.577   3.419
 2131TIP3   OH2 6356   6.809   1.153   3.038
 2131TIP3    H1 6357   6.780   1.181   3.125
 2131TIP3    H2 6358   6.733   1.109   3.001
 2132TIP3   OH2 6359   1.758   0.683   0.453
 2132TIP3    H1 6360   1.803   0.740   0.515
 2132TIP3    H2 6361   1.676   0.728   0.434
 2133TIP3   OH2 6362   3.022   1.224   5.901
 2133TIP3    H1 6363   2.991   1.168   5.829
 2133TIP3    H2 6364   3.113   1.244   5.878
 2134TIP3   OH2 6365   6.651   0.393   4.677
 2134TIP3    H1 6366   6.735   0.347   4.671
 2134TIP3    H2 6367   6.611   0.381   4.591
 2135TIP3   OH2 6368   4.065   6.169   5.137
 2135TIP3    H1 6369   4.110   6.084   5.140
 2135TIP3    H2 6370   3.982   6.151   5.094
 2136TIP3   OH2 6371   1.894   6.571   2.018
 2136TIP3    H1 6372   1.860   6.510   2.083
 2136TIP3    H2 6373   1.950   6.631   2.068
 2137TIP3   OH2 6374   2.242   2.594   1.107
 2137TIP3    H1 6375   2.245   2.547   1.024
 2137TIP3    H2 6376   2.159   2.567   1.147
 2138TIP3   OH2 6377   4.036   1.964   1.783
 2138TIP3    H1 6378   3.970   1.920   1.731
 2138TIP3    H2 6379   4.002   1.963   1.873
 2139TIP3   OH2 6380   4.398   4.319   1.791
 2139TIP3    H1 6381   4.470   4.281   1.740
 2139TIP3    H2 6382   4.343   4.244   1.812
 2140TIP3   OH2 6383   5.414   4.652   2.498
 2140TIP3    H1 6384   5.465   4.577   2.525
 2140TIP3    H2 6385   5.479   4.719   2.475
 2141TIP3   OH2 6386   5.389   4.485   2.201
 2141TIP3    H1 6387   5.342   4.501   2.283
 2141TIP3    H2 6388   5.480   4.509   2.221
 2142TIP3   OH2 6389   1.558   6.224   2.588
 2142TIP3    H1 6390   1.582   6.140   2.549
 2142TIP3    H2 6391   1.492   6.260   2.528
 2143TIP3   OH2 6392   2.987   0.838   0.848
 2143TIP3    H1 6393   2.956   0.914   0.899
 2143TIP3    H2 6394   3.004   0.874   0.761
 2144TIP3   OH2 6395   6.629   3.752   2.654
 2144TIP3    H1 6396   6.661   3.837   2.682
 2144TIP3    H2 6397   6.681   3.730   2.577
 2145TIP3   OH2 6398   6.173   6.272   0.171
 2145TIP3    H1 6399   6.124   6.193   0.148
 2145TIP3    H2 6400   6.224   6.292   0.092
 2146TIP3   OH2 6401   3.312   1.836   1.866
 2146TIP3    H1 6402   3.229   1.856   1.909
 2146TIP3    H2 6403   3.288   1.821   1.774
 2147TIP3   OH2 6404   4.840   6.404   3.657
 2147TIP3    H1 6405   4.888   6.380   3.736
 2147TIP3    H2 6406   4.839   6.500   3.658
 2148TIP3   OH2 6407   2.385   1.193   2.930
 2148TIP3    H1 6408   2.369   1.287   2.919
 2148TIP3    H2 6409   2.424   1.165   2.847
 2149TIP3   OH2 6410   5.361   6.702   5.342
 2149TIP3    H1 6411   5.386   6.742   5.259
 2149TIP3    H2 6412   5.292   6.758   5.377
 2150TIP3   OH2 6413   3.188   3.754   0.058
 2150TIP3    H1 6414   3.242   3.731   0.134
 2150TIP3    H2 6415   3.170   3.670   0.016
 2151TIP3   OH2 6416   6.559   2.302   2.131
 2151TIP3    H1 6417   6.568   2.233   2.198
 2151TIP3    H2 6418   6.490   2.359   2.165
 2152TIP3   OH2 6419   5.861   0.883   1.200
 2152TIP3    H1 6420   5.823   0.971   1.198
 2152TIP3    H2 6421   5.868   0.858   1.108
 2153TIP3   OH2 6422   5.378   2.266   5.535
 2153TIP3    H1 6423   5.353   2.310   5.453
 2153TIP3    H2 6424   5.455   2.312   5.565
 2154TIP3   OH2 6425   5.484   3.673   4.210
 2154TIP3    H1 6426   5.544   3.739   4.175
 2154TIP3    H2 6427   5.434   3.720   4.277
 2155TIP3   OH2 6428   1.342   0.594   0.013
 2155TIP3    H1 6429   1.352   0.574   0.106
 2155TIP3    H2 6430   1.271   0.536  -0.016
 2156TIP3   OH2 6431   4.265   0.813   5.803
 2156TIP3    H1 6432   4.305   0.866   5.734
 2156TIP3    H2 6433   4.172   0.835   5.799
 2157TIP3   OH2 6434   2.890   2.338   4.615
 2157TIP3    H1 6435   2.819   2.291   4.572
 2157TIP3    H2 6436   2.859   2.349   4.705
 2158TIP3   OH2 6437   3.872   1.468   2.037
 2158TIP3    H1 6438   3.916   1.526   2.099
 2158TIP3    H2 6439   3.853   1.523   1.961
 2159TIP3   OH2 6440   6.933   5.061   1.810
 2159TIP3    H1 6441   6.925   5.155   1.791
 2159TIP3    H2 6442   6.846   5.026   1.790
 2160TIP3   OH2 6443   6.249   3.563   4.446
 2160TIP3    H1 6444   6.260   3.540   4.354
 2160TIP3    H2 6445   6.273   3.656   4.451
 2161TIP3   OH2 6446   2.049   4.868   0.121
 2161TIP3    H1 6447   2.131   4.914   0.105
 2161TIP3    H2 6448   1.985   4.939   0.137
 2162TIP3   OH2 6449   2.546   1.567   5.264
 2162TIP3    H1 6450   2.633   1.573   5.303
 2162TIP3    H2 6451   2.486   1.588   5.336
 2163TIP3   OH2 6452   0.649   5.540   5.874
 2163TIP3    H1 6453   0.734   5.512   5.840
 2163TIP3    H2 6454   0.633   5.482   5.948
 2164TIP3   OH2 6455   0.679   5.180   2.277
 2164TIP3    H1 6456   0.626   5.259   2.263
 2164TIP3    H2 6457   0.618   5.108   2.265
 2165TIP3   OH2 6458   5.631   2.564   4.915
 2165TIP3    H1 6459   5.714   2.524   4.940
 2165TIP3    H2 6460   5.623   2.641   4.971
 2166TIP3   OH2 6461   3.520   5.383   3.476
 2166TIP3    H1 6462   3.546   5.343   3.560
 2166TIP3    H2 6463   3.558   5.325   3.410
 2167TIP3   OH2 6464   6.086   5.901   1.460
 2167TIP3    H1 6465   6.095   5.819   1.509
 2167TIP3    H2 6466   6.091   5.875   1.369
 2168TIP3   OH2 6467   4.475   0.873   2.880
 2168TIP3    H1 6468   4.459   0.967   2.891
 2168TIP3    H2 6469   4.567   0.868   2.856
 2169TIP3   OH2 6470   2.966   3.616   5.436
 2169TIP3    H1 6471   2.899   3.567   5.389
 2169TIP3    H2 6472   2.953   3.593   5.528
 2170TIP3   OH2 6473   6.233   5.943   3.514
 2170TIP3    H1 6474   6.245   5.914   3.605
 2170TIP3    H2 6475   6.165   5.886   3.479
 2171TIP3   OH2 6476   0.344   1.574   4.913
 2171TIP3    H1 6477   0.267   1.607   4.960
 2171TIP3    H2 6478   0.309   1.512   4.849
 2172TIP3   OH2 6479   0.216   1.052   3.249
 2172TIP3    H1 6480   0.310   1.053   3.231
 2172TIP3    H2 6481   0.199   0.964   3.281
 2173TIP3   OH2 6482   6.592   4.479   3.514
 2173TIP3    H1 6483   6.541   4.424   3.455
 2173TIP3    H2 6484   6.625   4.419   3.580
 2174TIP3   OH2 6485   2.268   4.008   5.720
 2174TIP3    H1 6486   2.363   4.009   5.718
 2174TIP3    H2 6487   2.242   4.022   5.629
 2175TIP3   OH2 6488   7.162   5.034   5.803
 2175TIP3    H1 6489   7.117   5.023   5.887
 2175TIP3    H2 6490   7.099   5.081   5.748
 2176TIP3   OH2 6491  -0.024   0.527   3.965
 2176TIP3    H1 6492   0.018   0.469   3.901
 2176TIP3    H2 6493   0.002   0.615   3.937
 2177TIP3   OH2 6494   0.151   1.597   2.389
 2177TIP3    H1 6495   0.070   1.647   2.395
 2177TIP3    H2 6496   0.217   1.651   2.432
 2178TIP3   OH2 6497   2.704   0.790   1.676
 2178TIP3    H1 6498   2.631   0.734   1.701
 2178TIP3    H2 6499   2.728   0.760   1.588
 2179TIP3   OH2 6500   5.104   5.484   1.871
 2179TIP3    H1 6501   5.035   5.474   1.806
 2179TIP3    H2 6502   5.186   5.472   1.822
 2180TIP3   OH2 6503   4.232   0.111   3.255
 2180TIP3    H1 6504   4.297   0.092   3.187
 2180TIP3    H2 6505   4.196   0.196   3.231
 2181TIP3   OH2 6506   6.795   1.783   4.360
 2181TIP3    H1 6507   6.820   1.695   4.332
 2181TIP3    H2 6508   6.718   1.770   4.416
 2182TIP3   OH2 6509   3.895   2.290   4.547
 2182TIP3    H1 6510   3.968   2.350   4.531
 2182TIP3    H2 6511   3.905   2.222   4.481
 2183TIP3   OH2 6512   5.224   0.665   3.650
 2183TIP3    H1 6513   5.191   0.581   3.680
 2183TIP3    H2 6514   5.317   0.650   3.634
 2184TIP3   OH2 6515   1.690   6.339   5.368
 2184TIP3    H1 6516   1.737   6.420   5.388
 2184TIP3    H2 6517   1.758   6.274   5.356
 2185TIP3   OH2 6518   2.039   1.456   5.657
 2185TIP3    H1 6519   2.130   1.486   5.660
 2185TIP3    H2 6520   2.039   1.388   5.589
 2186TIP3   OH2 6521   4.173   5.360   2.095
 2186TIP3    H1 6522   4.157   5.284   2.151
 2186TIP3    H2 6523   4.163   5.327   2.006
 2187TIP3   OH2 6524   1.437   1.761   1.092
 2187TIP3    H1 6525   1.373   1.700   1.055
 2187TIP3    H2 6526   1.404   1.779   1.180
 2188TIP3   OH2 6527   1.865   1.361   4.006
 2188TIP3    H1 6528   1.891   1.392   3.920
 2188TIP3    H2 6529   1.941   1.379   4.062
 2189TIP3   OH2 6530   5.276   5.375   2.740
 2189TIP3    H1 6531   5.351   5.341   2.691
 2189TIP3    H2 6532   5.256   5.459   2.700
 2190TIP3   OH2 6533   5.995   5.925   4.531
 2190TIP3    H1 6534   5.982   5.997   4.469
 2190TIP3    H2 6535   5.940   5.947   4.606
 2191TIP3   OH2 6536   0.326   3.135   0.437
 2191TIP3    H1 6537   0.295   3.082   0.510
 2191TIP3    H2 6538   0.420   3.146   0.454
 2192TIP3   OH2 6539   1.422   2.786   1.987
 2192TIP3    H1 6540   1.491   2.808   2.049
 2192TIP3    H2 6541   1.360   2.733   2.038
 2193TIP3   OH2 6542   6.440   2.903   4.950
 2193TIP3    H1 6543   6.379   2.858   4.892
 2193TIP3    H2 6544   6.433   2.856   5.033
 2194TIP3   OH2 6545   1.678   3.617   5.042
 2194TIP3    H1 6546   1.707   3.547   4.983
 2194TIP3    H2 6547   1.647   3.686   4.984
 2195TIP3   OH2 6548   6.846   4.235   1.727
 2195TIP3    H1 6549   6.901   4.310   1.749
 2195TIP3    H2 6550   6.908   4.162   1.721
 2196TIP3   OH2 6551   4.712   3.602   4.703
 2196TIP3    H1 6552   4.763   3.575   4.626
 2196TIP3    H2 6553   4.621   3.603   4.673
 2197TIP3   OH2 6554   6.211   3.636   3.820
 2197TIP3    H1 6555   6.262   3.565   3.780
 2197TIP3    H2 6556   6.265   3.714   3.810
 2198TIP3   OH2 6557   4.518   6.172   1.584
 2198TIP3    H1 6558   4.442   6.121   1.558
 2198TIP3    H2 6559   4.505   6.257   1.542
 2199TIP3   OH2 6560   0.562   0.921   2.756
 2199TIP3    H1 6561   0.565   0.854   2.689
 2199TIP3    H2 6562   0.475   0.914   2.794
 2200TIP3   OH2 6563   6.178   0.909   3.847
 2200TIP3    H1 6564   6.187   0.970   3.921
 2200TIP3    H2 6565   6.140   0.830   3.887
 2201TIP3   OH2 6566   4.222   4.451   3.941
 2201TIP3    H1 6567   4.198   4.375   3.994
 2201TIP3    H2 6568   4.192   4.527   3.991
 2202TIP3   OH2 6569   6.505   2.477   5.073
 2202TIP3    H1 6570   6.452   2.532   5.132
 2202TIP3    H2 6571   6.500   2.390   5.112
 2203TIP3   OH2 6572   2.904   6.727   2.670
 2203TIP3    H1 6573   2.950   6.650   2.638
 2203TIP3    H2 6574   2.839   6.693   2.730
 2204TIP3   OH2 6575   1.735   2.111   3.666
 2204TIP3    H1 6576   1.801   2.042   3.677
 2204TIP3    H2 6577   1.665   2.069   3.617
 2205TIP3   OH2 6578   4.022   3.528   0.645
 2205TIP3    H1 6579   3.934   3.542   0.610
 2205TIP3    H2 6580   4.010   3.521   0.740
 2206TIP3   OH2 6581   5.218   4.264   4.790
 2206TIP3    H1 6582   5.243   4.259   4.882
 2206TIP3    H2 6583   5.165   4.186   4.776
 2207TIP3   OH2 6584   5.268   5.453   1.145
 2207TIP3    H1 6585   5.207   5.482   1.077
 2207TIP3    H2 6586   5.301   5.535   1.183
 2208TIP3   OH2 6587   7.114   4.848   4.090
 2208TIP3    H1 6588   7.022   4.833   4.110
 2208TIP3    H2 6589   7.155   4.866   4.175
 2209TIP3   OH2 6590   7.213   0.565   5.178
 2209TIP3    H1 6591   7.225   0.615   5.259
 2209TIP3    H2 6592   7.123   0.584   5.152
 2210TIP3   OH2 6593   3.371   2.320   0.976
 2210TIP3    H1 6594   3.416   2.354   0.898
 2210TIP3    H2 6595   3.306   2.259   0.943
 2211TIP3   OH2 6596   5.900   4.863   3.883
 2211TIP3    H1 6597   5.938   4.821   3.806
 2211TIP3    H2 6598   5.899   4.956   3.862
 2212TIP3   OH2 6599   5.549   0.437   0.077
 2212TIP3    H1 6600   5.473   0.444   0.134
 2212TIP3    H2 6601   5.606   0.509   0.104
 2213TIP3   OH2 6602   4.777   2.680   0.339
 2213TIP3    H1 6603   4.845   2.660   0.403
 2213TIP3    H2 6604   4.745   2.767   0.364
 2214TIP3   OH2 6605   2.680   1.903   1.794
 2214TIP3    H1 6606   2.765   1.925   1.757
 2214TIP3    H2 6607   2.617   1.938   1.730
 2215TIP3   OH2 6608   0.262   3.488   4.878
 2215TIP3    H1 6609   0.290   3.561   4.932
 2215TIP3    H2 6610   0.221   3.427   4.939
 2216TIP3   OH2 6611   0.315   4.491   0.317
 2216TIP3    H1 6612   0.259   4.471   0.242
 2216TIP3    H2 6613   0.331   4.405   0.357
 2217TIP3   OH2 6614   6.082   1.364   4.172
 2217TIP3    H1 6615   6.162   1.337   4.127
 2217TIP3    H2 6616   6.080   1.309   4.250
 2218TIP3   OH2 6617   4.159   0.529   1.128
 2218TIP3    H1 6618   4.173   0.564   1.216
 2218TIP3    H2 6619   4.238   0.477   1.111
 2219TIP3   OH2 6620   2.295   4.944   2.802
 2219TIP3    H1 6621   2.287   4.925   2.895
 2219TIP3    H2 6622   2.254   5.029   2.791
 2220TIP3   OH2 6623   5.753   3.245   4.307
 2220TIP3    H1 6624   5.836   3.235   4.261
 2220TIP3    H2 6625   5.756   3.334   4.343
 2221TIP3   OH2 6626   3.534   5.050   2.967
 2221TIP3    H1 6627   3.538   5.026   2.874
 2221TIP3    H2 6628   3.463   4.997   3.003
 2222TIP3   OH2 6629   1.215   0.992   5.813
 2222TIP3    H1 6630   1.259   1.063   5.766
 2222TIP3    H2 6631   1.135   0.976   5.762
 2223TIP3   OH2 6632   4.959   4.468   2.663
 2223TIP3    H1 6633   4.891   4.493   2.601
 2223TIP3    H2 6634   5.021   4.541   2.660
 2224TIP3   OH2 6635   3.215   5.609   2.147
 2224TIP3    H1 6636   3.260   5.644   2.070
 2224TIP3    H2 6637   3.126   5.590   2.117
 2225TIP3   OH2 6638   1.581   5.007   4.205
 2225TIP3    H1 6639   1.545   5.069   4.268
 2225TIP3    H2 6640   1.663   5.048   4.176
 2226TIP3   OH2 6641   2.317   6.127   1.075
 2226TIP3    H1 6642   2.384   6.064   1.048
 2226TIP3    H2 6643   2.257   6.075   1.129
 2227TIP3   OH2 6644   4.252   1.625   0.938
 2227TIP3    H1 6645   4.340   1.647   0.906
 2227TIP3    H2 6646   4.193   1.678   0.884
 2228TIP3   OH2 6647   5.811   4.741   2.832
 2228TIP3    H1 6648   5.724   4.703   2.821
 2228TIP3    H2 6649   5.795   4.829   2.865
 2229TIP3   OH2 6650   4.765   5.146   5.258
 2229TIP3    H1 6651   4.776   5.139   5.164
 2229TIP3    H2 6652   4.729   5.234   5.272
 2230TIP3   OH2 6653   2.219   6.401   3.295
 2230TIP3    H1 6654   2.186   6.331   3.352
 2230TIP3    H2 6655   2.140   6.441   3.258
 2231TIP3   OH2 6656   3.962   3.999   1.429
 2231TIP3    H1 6657   3.885   3.943   1.438
 2231TIP3    H2 6658   3.936   4.067   1.367
 2232TIP3   OH2 6659   3.808   6.048   3.236
 2232TIP3    H1 6660   3.786   6.078   3.148
 2232TIP3    H2 6661   3.746   5.978   3.254
 2233TIP3   OH2 6662   2.480   5.721   5.431
 2233TIP3    H1 6663   2.574   5.733   5.436
 2233TIP3    H2 6664   2.457   5.674   5.511
 2234TIP3   OH2 6665   6.841   4.545   3.434
 2234TIP3    H1 6666   6.832   4.527   3.340
 2234TIP3    H2 6667   6.753   4.533   3.470
 2235TIP3   OH2 6668   2.671   1.193   5.054
 2235TIP3    H1 6669   2.590   1.185   5.105
 2235TIP3    H2 6670   2.722   1.260   5.099
 2236TIP3   OH2 6671   2.913   6.366   5.431
 2236TIP3    H1 6672   2.858   6.430   5.385
 2236TIP3    H2 6673   2.852   6.314   5.483
 2237TIP3   OH2 6674   0.968   2.956   2.863
 2237TIP3    H1 6675   1.049   2.962   2.913
 2237TIP3    H2 6676   0.905   2.919   2.925
 2238TIP3   OH2 6677   0.140   5.521   0.596
 2238TIP3    H1 6678   0.074   5.558   0.538
 2238TIP3    H2 6679   0.091   5.462   0.654
 2239TIP3   OH2 6680   3.612   6.310   0.479
 2239TIP3    H1 6681   3.620   6.229   0.429
 2239TIP3    H2 6682   3.702   6.335   0.500
 2240TIP3   OH2 6683   6.359   5.504   2.750
 2240TIP3    H1 6684   6.342   5.593   2.782
 2240TIP3    H2 6685   6.443   5.480   2.789
 2241TIP3   OH2 6686   5.898   1.352   4.936
 2241TIP3    H1 6687   5.809   1.386   4.929
 2241TIP3    H2 6688   5.950   1.425   4.971
 2242TIP3   OH2 6689   0.367   2.743   2.615
 2242TIP3    H1 6690   0.353   2.823   2.563
 2242TIP3    H2 6691   0.355   2.672   2.553
 2243TIP3   OH2 6692   4.225   3.586   3.367
 2243TIP3    H1 6693   4.181   3.592   3.282
 2243TIP3    H2 6694   4.293   3.520   3.355
 2244TIP3   OH2 6695   4.660   2.056   3.199
 2244TIP3    H1 6696   4.717   2.067   3.275
 2244TIP3    H2 6697   4.619   2.141   3.187
 2245TIP3   OH2 6698   4.820   4.983   2.899
 2245TIP3    H1 6699   4.780   4.928   2.966
 2245TIP3    H2 6700   4.912   4.956   2.898
 2246TIP3   OH2 6701   2.543   4.969   3.000
 2246TIP3    H1 6702   2.526   4.901   2.935
 2246TIP3    H2 6703   2.511   5.050   2.959
 2247TIP3   OH2 6704   2.485   4.140   4.361
 2247TIP3    H1 6705   2.531   4.081   4.301
 2247TIP3    H2 6706   2.402   4.158   4.317
 2248TIP3   OH2 6707   5.276   2.991   4.433
 2248TIP3    H1 6708   5.265   2.934   4.509
 2248TIP3    H2 6709   5.325   3.067   4.466
 2249TIP3   OH2 6710   0.768   6.782   5.197
 2249TIP3    H1 6711   0.688   6.728   5.194
 2249TIP3    H2 6712   0.736   6.872   5.202
 2250TIP3   OH2 6713   5.027   0.120   1.893
 2250TIP3    H1 6714   5.033   0.207   1.932
 2250TIP3    H2 6715   5.117   0.098   1.867
 2251TIP3   OH2 6716   1.200   5.473   1.811
 2251TIP3    H1 6717   1.241   5.558   1.795
 2251TIP3    H2 6718   1.189   5.469   1.906
 2252TIP3   OH2 6719   2.939   0.866   2.984
 2252TIP3    H1 6720   2.953   0.938   3.045
 2252TIP3    H2 6721   2.956   0.787   3.036
 2253TIP3   OH2 6722   3.710   1.960   3.903
 2253TIP3    H1 6723   3.754   2.025   3.958
 2253TIP3    H2 6724   3.762   1.880   3.913
 2254TIP3   OH2 6725   2.379   2.340   3.322
 2254TIP3    H1 6726   2.421   2.354   3.237
 2254TIP3    H2 6727   2.346   2.427   3.346
 2255TIP3   OH2 6728   7.201   2.016   0.944
 2255TIP3    H1 6729   7.128   1.969   0.984
 2255TIP3    H2 6730   7.221   2.086   1.005
 2256TIP3   OH2 6731   3.603   6.766   2.671
 2256TIP3    H1 6732   3.663   6.706   2.626
 2256TIP3    H2 6733   3.579   6.719   2.751
 2257TIP3   OH2 6734   1.621   3.708   0.122
 2257TIP3    H1 6735   1.599   3.721   0.030
 2257TIP3    H2 6736   1.536   3.693   0.165
 2258TIP3   OH2 6737   3.418   6.048   4.625
 2258TIP3    H1 6738   3.433   5.967   4.576
 2258TIP3    H2 6739   3.505   6.075   4.653
 2259TIP3   OH2 6740   3.868   4.586   1.736
 2259TIP3    H1 6741   3.947   4.584   1.790
 2259TIP3    H2 6742   3.813   4.515   1.769
 2260TIP3   OH2 6743   4.997   2.010   4.062
 2260TIP3    H1 6744   5.068   2.067   4.091
 2260TIP3    H2 6745   4.928   2.070   4.034
 2261TIP3   OH2 6746   2.906   3.311   0.273
 2261TIP3    H1 6747   2.906   3.269   0.359
 2261TIP3    H2 6748   2.962   3.388   0.284
 2262TIP3   OH2 6749   5.714   4.300   4.362
 2262TIP3    H1 6750   5.636   4.261   4.402
 2262TIP3    H2 6751   5.787   4.266   4.414
 2263TIP3   OH2 6752   3.136   2.980   0.714
 2263TIP3    H1 6753   3.171   3.068   0.697
 2263TIP3    H2 6754   3.053   2.978   0.666
 2264TIP3   OH2 6755   1.661   2.025   0.043
 2264TIP3    H1 6756   1.751   2.014   0.073
 2264TIP3    H2 6757   1.628   2.100   0.092
 2265TIP3   OH2 6758   7.151   2.613   0.978
 2265TIP3    H1 6759   7.078   2.671   0.999
 2265TIP3    H2 6760   7.117   2.551   0.914
 2266TIP3   OH2 6761   4.541   4.966   1.727
 2266TIP3    H1 6762   4.532   5.020   1.806
 2266TIP3    H2 6763   4.493   5.013   1.660
 2267TIP3   OH2 6764   6.147   2.461   4.965
 2267TIP3    H1 6765   6.211   2.407   4.919
 2267TIP3    H2 6766   6.149   2.428   5.055
 2268TIP3   OH2 6767   5.098   0.283   0.481
 2268TIP3    H1 6768   5.038   0.319   0.415
 2268TIP3    H2 6769   5.043   0.223   0.533
 2269TIP3   OH2 6770   1.307   1.194   5.170
 2269TIP3    H1 6771   1.290   1.124   5.107
 2269TIP3    H2 6772   1.359   1.258   5.121
 2270TIP3   OH2 6773   2.298   4.484   2.464
 2270TIP3    H1 6774   2.300   4.579   2.473
 2270TIP3    H2 6775   2.358   4.465   2.392
 2271TIP3   OH2 6776   2.493   2.087   1.691
 2271TIP3    H1 6777   2.489   2.110   1.598
 2271TIP3    H2 6778   2.415   2.127   1.729
 2272TIP3   OH2 6779   0.181   4.988   4.760
 2272TIP3    H1 6780   0.173   5.018   4.670
 2272TIP3    H2 6781   0.091   4.974   4.789
 2273TIP3   OH2 6782   0.929   0.687   3.543
 2273TIP3    H1 6783   0.975   0.604   3.533
 2273TIP3    H2 6784   0.976   0.748   3.486
 2274TIP3   OH2 6785   5.590   6.728   2.737
 2274TIP3    H1 6786   5.619   6.808   2.781
 2274TIP3    H2 6787   5.665   6.700   2.685
 2275TIP3   OH2 6788   4.364   4.889   5.708
 2275TIP3    H1 6789   4.301   4.856   5.644
 2275TIP3    H2 6790   4.432   4.822   5.713
 2276TIP3   OH2 6791   6.176   5.256   3.197
 2276TIP3    H1 6792   6.260   5.300   3.187
 2276TIP3    H2 6793   6.138   5.256   3.109
 2277TIP3   OH2 6794   1.712   1.684   3.365
 2277TIP3    H1 6795   1.691   1.683   3.271
 2277TIP3    H2 6796   1.776   1.615   3.376
 2278TIP3   OH2 6797   7.040   2.406   2.035
 2278TIP3    H1 6798   7.081   2.322   2.014
 2278TIP3    H2 6799   6.984   2.387   2.111
 2279TIP3   OH2 6800   1.380   5.923   2.770
 2279TIP3    H1 6801   1.408   5.919   2.679
 2279TIP3    H2 6802   1.291   5.959   2.766
 2280TIP3   OH2 6803   2.490   0.551   1.136
 2280TIP3    H1 6804   2.395   0.559   1.133
 2280TIP3    H2 6805   2.522   0.638   1.113
 2281TIP3   OH2 6806  -0.021   1.085   1.188
 2281TIP3    H1 6807  -0.004   1.175   1.216
 2281TIP3    H2 6808   0.066   1.047   1.177
 2282TIP3   OH2 6809   0.422   5.896   3.165
 2282TIP3    H1 6810   0.447   5.805   3.155
 2282TIP3    H2 6811   0.332   5.892   3.198
 2283TIP3   OH2 6812   5.683   2.197   1.501
 2283TIP3    H1 6813   5.653   2.192   1.592
 2283TIP3    H2 6814   5.683   2.106   1.471
 2284TIP3   OH2 6815   3.955   3.564   2.438
 2284TIP3    H1 6816   3.957   3.630   2.507
 2284TIP3    H2 6817   3.909   3.490   2.477
 2285TIP3   OH2 6818   0.384   5.141   5.556
 2285TIP3    H1 6819   0.324   5.201   5.512
 2285TIP3    H2 6820   0.374   5.058   5.507
 2286TIP3   OH2 6821   4.031   3.763   3.566
 2286TIP3    H1 6822   3.974   3.751   3.490
 2286TIP3    H2 6823   4.118   3.780   3.529
 2287TIP3   OH2 6824   7.132   2.351   3.894
 2287TIP3    H1 6825   7.222   2.320   3.899
 2287TIP3    H2 6826   7.115   2.360   3.800
 2288TIP3   OH2 6827   1.899   1.482   3.384
 2288TIP3    H1 6828   1.976   1.521   3.423
 2288TIP3    H2 6829   1.931   1.437   3.305
 2289TIP3   OH2 6830   4.660   1.299   4.599
 2289TIP3    H1 6831   4.702   1.218   4.567
 2289TIP3    H2 6832   4.567   1.278   4.601
 2290TIP3   OH2 6833   0.156   6.012   0.404
 2290TIP3    H1 6834   0.093   5.974   0.465
 2290TIP3    H2 6835   0.205   6.075   0.457
 2291TIP3   OH2 6836   4.109   4.363   0.900
 2291TIP3    H1 6837   4.141   4.327   0.983
 2291TIP3    H2 6838   4.095   4.456   0.918
 2292TIP3   OH2 6839   0.842   6.271   0.490
 2292TIP3    H1 6840   0.864   6.318   0.570
 2292TIP3    H2 6841   0.869   6.181   0.507
 2293TIP3   OH2 6842   1.036   5.257   1.208
 2293TIP3    H1 6843   1.070   5.189   1.150
 2293TIP3    H2 6844   1.045   5.220   1.296
 2294TIP3   OH2 6845   0.209   5.810   5.807
 2294TIP3    H1 6846   0.264   5.888   5.795
 2294TIP3    H2 6847   0.156   5.829   5.884
 2295TIP3   OH2 6848   0.955   4.786   5.458
 2295TIP3    H1 6849   0.901   4.713   5.489
 2295TIP3    H2 6850   0.924   4.861   5.509
 2296TIP3   OH2 6851   6.417   3.081   1.835
 2296TIP3    H1 6852   6.333   3.081   1.789
 2296TIP3    H2 6853   6.443   2.990   1.836
 2297TIP3   OH2 6854   3.546   2.008   1.892
 2297TIP3    H1 6855   3.482   1.939   1.912
 2297TIP3    H2 6856   3.574   1.989   1.802
 2298TIP3   OH2 6857   1.671   6.130   2.240
 2298TIP3    H1 6858   1.669   6.070   2.314
 2298TIP3    H2 6859   1.584   6.171   2.240
 2299TIP3   OH2 6860   0.299   3.686   3.322
 2299TIP3    H1 6861   0.257   3.752   3.268
 2299TIP3    H2 6862   0.384   3.672   3.280
 2300TIP3   OH2 6863   2.720   1.747   5.645
 2300TIP3    H1 6864   2.682   1.696   5.716
 2300TIP3    H2 6865   2.786   1.802   5.687
 2301TIP3   OH2 6866   2.655   4.315   5.496
 2301TIP3    H1 6867   2.737   4.275   5.525
 2301TIP3    H2 6868   2.680   4.399   5.458
 2302TIP3   OH2 6869   0.364   5.076   0.656
 2302TIP3    H1 6870   0.418   5.145   0.695
 2302TIP3    H2 6871   0.364   5.095   0.562
 2303TIP3   OH2 6872   3.062   0.738   0.276
 2303TIP3    H1 6873   3.052   0.696   0.361
 2303TIP3    H2 6874   3.079   0.830   0.296
 2304TIP3   OH2 6875   1.442   4.795   0.954
 2304TIP3    H1 6876   1.437   4.715   0.902
 2304TIP3    H2 6877   1.458   4.765   1.044
 2305TIP3   OH2 6878   2.705   5.137   5.683
 2305TIP3    H1 6879   2.622   5.093   5.704
 2305TIP3    H2 6880   2.746   5.152   5.767
 2306TIP3   OH2 6881   1.161   2.413  -0.034
 2306TIP3    H1 6882   1.185   2.410   0.059
 2306TIP3    H2 6883   1.229   2.362  -0.078
 2307TIP3   OH2 6884   7.111   6.507   4.462
 2307TIP3    H1 6885   7.115   6.570   4.390
 2307TIP3    H2 6886   7.046   6.545   4.522
 2308TIP3   OH2 6887   6.881   4.561   0.192
 2308TIP3    H1 6888   6.879   4.491   0.258
 2308TIP3    H2 6889   6.974   4.569   0.169
 2309TIP3   OH2 6890   5.849   0.404   2.834
 2309TIP3    H1 6891   5.851   0.312   2.805
 2309TIP3    H2 6892   5.899   0.405   2.915
 2310TIP3   OH2 6893   0.925   6.173   5.362
 2310TIP3    H1 6894   0.955   6.260   5.389
 2310TIP3    H2 6895   1.001   6.134   5.317
 2311TIP3   OH2 6896   6.269   5.496   1.237
 2311TIP3    H1 6897   6.241   5.418   1.286
 2311TIP3    H2 6898   6.316   5.461   1.162
 2312TIP3   OH2 6899   0.668   3.626   1.047
 2312TIP3    H1 6900   0.589   3.595   1.091
 2312TIP3    H2 6901   0.726   3.550   1.044
 2313TIP3   OH2 6902   2.389   3.473   3.046
 2313TIP3    H1 6903   2.462   3.431   3.090
 2313TIP3    H2 6904   2.423   3.559   3.020
 2314TIP3   OH2 6905   5.595   6.740   5.098
 2314TIP3    H1 6906   5.668   6.710   5.152
 2314TIP3    H2 6907   5.616   6.831   5.079
 2315TIP3   OH2 6908   0.981   1.843   0.522
 2315TIP3    H1 6909   1.028   1.880   0.447
 2315TIP3    H2 6910   1.034   1.868   0.598
 2316TIP3   OH2 6911   1.699   3.363   0.168
 2316TIP3    H1 6912   1.772   3.304   0.186
 2316TIP3    H2 6913   1.621   3.317   0.199
 2317TIP3   OH2 6914   5.268   3.305   5.066
 2317TIP3    H1 6915   5.353   3.280   5.030
 2317TIP3    H2 6916   5.218   3.223   5.070
 2318TIP3   OH2 6917   5.595   3.328   3.820
 2318TIP3    H1 6918   5.616   3.371   3.902
 2318TIP3    H2 6919   5.510   3.363   3.795
 2319TIP3   OH2 6920   5.120   2.846   4.865
 2319TIP3    H1 6921   5.061   2.921   4.869
 2319TIP3    H2 6922   5.161   2.843   4.952
 2320TIP3   OH2 6923   3.428   0.504   4.077
 2320TIP3    H1 6924   3.477   0.445   4.020
 2320TIP3    H2 6925   3.338   0.499   4.046
 2321TIP3   OH2 6926   4.140   4.115   0.581
 2321TIP3    H1 6927   4.152   4.028   0.619
 2321TIP3    H2 6928   4.205   4.170   0.624
 2322TIP3   OH2 6929   7.109   4.983   2.422
 2322TIP3    H1 6930   7.028   4.936   2.441
 2322TIP3    H2 6931   7.166   4.965   2.496
 2323TIP3   OH2 6932   1.475   4.794   3.784
 2323TIP3    H1 6933   1.391   4.835   3.805
 2323TIP3    H2 6934   1.468   4.705   3.818
 2324TIP3   OH2 6935   2.409   0.784   5.557
 2324TIP3    H1 6936   2.355   0.783   5.637
 2324TIP3    H2 6937   2.499   0.779   5.589
 2325TIP3   OH2 6938   2.834   2.313   2.862
 2325TIP3    H1 6939   2.861   2.377   2.796
 2325TIP3    H2 6940   2.908   2.252   2.868
 2326TIP3   OH2 6941   1.859   3.672   5.449
 2326TIP3    H1 6942   1.839   3.708   5.535
 2326TIP3    H2 6943   1.955   3.665   5.447
 2327TIP3   OH2 6944   5.579   0.594   1.728
 2327TIP3    H1 6945   5.646   0.606   1.795
 2327TIP3    H2 6946   5.539   0.680   1.717
 2328TIP3   OH2 6947   3.606   5.764   1.334
 2328TIP3    H1 6948   3.692   5.808   1.331
 2328TIP3    H2 6949   3.589   5.750   1.427
 2329TIP3   OH2 6950   1.186   2.881   5.510
 2329TIP3    H1 6951   1.211   2.814   5.573
 2329TIP3    H2 6952   1.222   2.850   5.427
 2330TIP3   OH2 6953   5.567   3.452   3.045
 2330TIP3    H1 6954   5.661   3.460   3.062
 2330TIP3    H2 6955   5.555   3.496   2.961
 2331TIP3   OH2 6956   7.208   0.583   4.645
 2331TIP3    H1 6957   7.158   0.505   4.671
 2331TIP3    H2 6958   7.216   0.634   4.726
 2332TIP3   OH2 6959   2.037   1.969   3.473
 2332TIP3    H1 6960   1.983   1.941   3.398
 2332TIP3    H2 6961   2.108   2.018   3.434
 2333TIP3   OH2 6962   4.620   5.400   0.435
 2333TIP3    H1 6963   4.580   5.436   0.357
 2333TIP3    H2 6964   4.703   5.448   0.444
 2334TIP3   OH2 6965   4.350   5.930   1.017
 2334TIP3    H1 6966   4.388   6.014   0.992
 2334TIP3    H2 6967   4.260   5.951   1.041
 2335TIP3   OH2 6968   0.226   4.505   0.049
 2335TIP3    H1 6969   0.213   4.587  -0.001
 2335TIP3    H2 6970   0.225   4.437  -0.018
 2336TIP3   OH2 6971   1.307   4.036   0.826
 2336TIP3    H1 6972   1.215   4.054   0.848
 2336TIP3    H2 6973   1.317   3.943   0.844
 2337TIP3   OH2 6974   1.261   5.236   1.686
 2337TIP3    H1 6975   1.223   5.312   1.732
 2337TIP3    H2 6976   1.221   5.161   1.730
 2338TIP3   OH2 6977   5.360   0.959   1.184
 2338TIP3    H1 6978   5.379   1.033   1.241
 2338TIP3    H2 6979   5.440   0.907   1.185
 2339TIP3   OH2 6980   0.790   1.061   0.398
 2339TIP3    H1 6981   0.707   1.109   0.395
 2339TIP3    H2 6982   0.840   1.104   0.467
 2340TIP3   OH2 6983   3.268   4.662   2.366
 2340TIP3    H1 6984   3.214   4.666   2.286
 2340TIP3    H2 6985   3.210   4.623   2.432
 2341TIP3   OH2 6986   1.436   0.006   4.617
 2341TIP3    H1 6987   1.427   0.068   4.690
 2341TIP3    H2 6988   1.425  -0.080   4.658
 2342TIP3   OH2 6989   4.549   4.610   1.223
 2342TIP3    H1 6990   4.482   4.576   1.283
 2342TIP3    H2 6991   4.500   4.667   1.163
 2343TIP3   OH2 6992   0.593   2.209   1.606
 2343TIP3    H1 6993   0.570   2.170   1.690
 2343TIP3    H2 6994   0.512   2.207   1.555
 2344TIP3   OH2 6995   6.101   1.019   1.223
 2344TIP3    H1 6996   6.172   0.961   1.194
 2344TIP3    H2 6997   6.023   0.964   1.219
 2345TIP3   OH2 6998   1.107   0.835   4.326
 2345TIP3    H1 6999   1.056   0.759   4.354
 2345TIP3    H2 7000   1.061   0.910   4.363
 2346TIP3   OH2 7001   3.435   1.918   3.819
 2346TIP3    H1 7002   3.396   1.958   3.897
 2346TIP3    H2 7003   3.517   1.965   3.807
 2347TIP3   OH2 7004   2.235   2.316   4.111
 2347TIP3    H1 7005   2.182   2.335   4.034
 2347TIP3    H2 7006   2.248   2.401   4.153
 2348TIP3   OH2 7007   3.752   2.608   3.596
 2348TIP3    H1 7008   3.725   2.654   3.517
 2348TIP3    H2 7009   3.839   2.643   3.615
 2349TIP3   OH2 7010   3.621   5.727   5.383
 2349TIP3    H1 7011   3.647   5.792   5.318
 2349TIP3    H2 7012   3.703   5.684   5.407
 2350TIP3   OH2 7013   2.917   1.943   5.165
 2350TIP3    H1 7014   2.869   1.863   5.144
 2350TIP3    H2 7015   2.903   2.000   5.089
 2351TIP3   OH2 7016   2.568   0.659   3.874
 2351TIP3    H1 7017   2.501   0.666   3.942
 2351TIP3    H2 7018   2.541   0.585   3.821
 2352TIP3   OH2 7019   4.349   2.702   3.421
 2352TIP3    H1 7020   4.421   2.640   3.432
 2352TIP3    H2 7021   4.307   2.676   3.339
 2353TIP3   OH2 7022   7.217   2.600   1.978
 2353TIP3    H1 7023   7.162   2.522   1.992
 2353TIP3    H2 7024   7.171   2.669   2.025
 2354TIP3   OH2 7025   7.002   6.016   5.395
 2354TIP3    H1 7026   6.914   6.053   5.387
 2354TIP3    H2 7027   6.988   5.930   5.433
 2355TIP3   OH2 7028   1.774   2.490   3.798
 2355TIP3    H1 7029   1.814   2.471   3.713
 2355TIP3    H2 7030   1.825   2.563   3.833
 2356TIP3   OH2 7031   2.635   5.611   2.025
 2356TIP3    H1 7032   2.652   5.573   2.112
 2356TIP3    H2 7033   2.562   5.670   2.039
 2357TIP3   OH2 7034   4.960   3.226   2.103
 2357TIP3    H1 7035   4.896   3.284   2.061
 2357TIP3    H2 7036   4.973   3.155   2.041
 2358TIP3   OH2 7037   3.078   3.396   1.038
 2358TIP3    H1 7038   3.066   3.486   1.069
 2358TIP3    H2 7039   3.137   3.356   1.102
 2359TIP3   OH2 7040   6.676   6.366   1.691
 2359TIP3    H1 7041   6.663   6.274   1.670
 2359TIP3    H2 7042   6.686   6.368   1.786
 2360TIP3   OH2 7043   6.600   3.935   0.289
 2360TIP3    H1 7044   6.615   3.912   0.197
 2360TIP3    H2 7045   6.506   3.921   0.302
 2361TIP3   OH2 7046   7.057   1.039   4.547
 2361TIP3    H1 7047   6.992   0.996   4.602
 2361TIP3    H2 7048   7.119   0.970   4.524
 2362TIP3   OH2 7049   0.989   1.091   4.784
 2362TIP3    H1 7050   1.046   1.033   4.734
 2362TIP3    H2 7051   0.902   1.051   4.779
 2363TIP3   OH2 7052   5.121   2.706   2.059
 2363TIP3    H1 7053   5.046   2.659   2.094
 2363TIP3    H2 7054   5.099   2.722   1.967
 2364TIP3   OH2 7055   6.909   5.081   4.003
 2364TIP3    H1 7056   6.880   5.114   3.918
 2364TIP3    H2 7057   7.001   5.056   3.989
 2365TIP3   OH2 7058   0.477   0.676   3.639
 2365TIP3    H1 7059   0.421   0.714   3.707
 2365TIP3    H2 7060   0.520   0.602   3.683
 2366TIP3   OH2 7061   0.843   2.676   5.729
 2366TIP3    H1 7062   0.817   2.767   5.743
 2366TIP3    H2 7063   0.937   2.680   5.715
 2367TIP3   OH2 7064   2.738   4.416   0.325
 2367TIP3    H1 7065   2.697   4.466   0.255
 2367TIP3    H2 7066   2.818   4.464   0.347
 2368TIP3   OH2 7067   0.198   5.011   1.124
 2368TIP3    H1 7068   0.102   5.015   1.122
 2368TIP3    H2 7069   0.219   5.002   1.217
 2369TIP3   OH2 7070   5.797   5.805   4.212
 2369TIP3    H1 7071   5.796   5.896   4.181
 2369TIP3    H2 7072   5.768   5.811   4.303
 2370TIP3   OH2 7073   6.919   6.133   4.092
 2370TIP3    H1 7074   6.958   6.212   4.128
 2370TIP3    H2 7075   6.935   6.140   3.998
 2371TIP3   OH2 7076   3.526   4.105   0.695
 2371TIP3    H1 7077   3.516   4.011   0.681
 2371TIP3    H2 7078   3.541   4.114   0.789
 2372TIP3   OH2 7079   1.915   5.900   3.791
 2372TIP3    H1 7080   1.965   5.849   3.727
 2372TIP3    H2 7081   1.930   5.991   3.766
 2373TIP3   OH2 7082   2.076   0.565   3.136
 2373TIP3    H1 7083   2.029   0.603   3.062
 2373TIP3    H2 7084   2.168   0.564   3.108
 2374TIP3   OH2 7085   4.422   1.147   4.805
 2374TIP3    H1 7086   4.374   1.076   4.847
 2374TIP3    H2 7087   4.425   1.122   4.713
 2375TIP3   OH2 7088   0.941   6.462   1.832
 2375TIP3    H1 7089   1.011   6.440   1.894
 2375TIP3    H2 7090   0.933   6.384   1.777
 2376TIP3   OH2 7091   4.579   2.850   5.023
 2376TIP3    H1 7092   4.572   2.780   5.087
 2376TIP3    H2 7093   4.549   2.928   5.069
 2377TIP3   OH2 7094   5.734   0.537   1.979
 2377TIP3    H1 7095   5.758   0.451   1.946
 2377TIP3    H2 7096   5.703   0.521   2.068
 2378TIP3   OH2 7097   3.795   4.882   5.118
 2378TIP3    H1 7098   3.785   4.866   5.211
 2378TIP3    H2 7099   3.872   4.830   5.093
 2379TIP3   OH2 7100   1.669   5.811   1.163
 2379TIP3    H1 7101   1.723   5.862   1.224
 2379TIP3    H2 7102   1.655   5.870   1.089
 2380TIP3   OH2 7103   5.023   1.686   1.356
 2380TIP3    H1 7104   4.943   1.635   1.350
 2380TIP3    H2 7105   5.077   1.655   1.284
 2381TIP3   OH2 7106   2.042   4.583   2.279
 2381TIP3    H1 7107   2.069   4.613   2.192
 2381TIP3    H2 7108   2.080   4.647   2.339
 2382TIP3   OH2 7109   1.952   5.391   5.719
 2382TIP3    H1 7110   2.025   5.377   5.778
 2382TIP3    H2 7111   1.988   5.380   5.631
 2383TIP3   OH2 7112   6.334   1.251   3.036
 2383TIP3    H1 7113   6.342   1.325   2.977
 2383TIP3    H2 7114   6.239   1.239   3.047
 2384TIP3   OH2 7115   0.838   0.528   3.195
 2384TIP3    H1 7116   0.876   0.441   3.208
 2384TIP3    H2 7117   0.892   0.568   3.126
 2385TIP3   OH2 7118   3.741   2.198   2.015
 2385TIP3    H1 7119   3.682   2.263   2.051
 2385TIP3    H2 7120   3.686   2.121   1.999
 2386TIP3   OH2 7121   1.826   5.638   3.595
 2386TIP3    H1 7122   1.735   5.653   3.621
 2386TIP3    H2 7123   1.861   5.581   3.664
 2387TIP3   OH2 7124   1.461   6.330   2.849
 2387TIP3    H1 7125   1.376   6.361   2.820
 2387TIP3    H2 7126   1.505   6.299   2.770
 2388TIP3   OH2 7127   6.966   3.359   4.628
 2388TIP3    H1 7128   7.001   3.408   4.702
 2388TIP3    H2 7129   6.999   3.270   4.640
 2389TIP3   OH2 7130   2.207   3.117   4.379
 2389TIP3    H1 7131   2.216   3.063   4.300
 2389TIP3    H2 7132   2.293   3.113   4.421
 2390TIP3   OH2 7133   7.045   5.114   1.372
 2390TIP3    H1 7134   7.006   5.181   1.427
 2390TIP3    H2 7135   7.077   5.047   1.433
 2391TIP3   OH2 7136   5.098   1.856   2.686
 2391TIP3    H1 7137   5.111   1.822   2.598
 2391TIP3    H2 7138   5.151   1.935   2.690
 2392TIP3   OH2 7139   6.180   4.348   4.312
 2392TIP3    H1 7140   6.266   4.378   4.339
 2392TIP3    H2 7141   6.178   4.362   4.217
 2393TIP3   OH2 7142   4.082   3.648   3.914
 2393TIP3    H1 7143   3.996   3.663   3.875
 2393TIP3    H2 7144   4.124   3.584   3.856
 2394TIP3   OH2 7145   1.433   3.761   5.633
 2394TIP3    H1 7146   1.485   3.808   5.567
 2394TIP3    H2 7147   1.373   3.707   5.582
 2395TIP3   OH2 7148   6.842   4.209   0.123
 2395TIP3    H1 7149   6.757   4.249   0.103
 2395TIP3    H2 7150   6.857   4.147   0.051
 2396TIP3   OH2 7151   2.141   1.982   2.070
 2396TIP3    H1 7152   2.196   2.033   2.130
 2396TIP3    H2 7153   2.056   1.978   2.113
 2397TIP3   OH2 7154   0.506   2.793   3.507
 2397TIP3    H1 7155   0.573   2.858   3.485
 2397TIP3    H2 7156   0.466   2.771   3.423
 2398TIP3   OH2 7157   5.465   1.215   3.715
 2398TIP3    H1 7158   5.391   1.217   3.654
 2398TIP3    H2 7159   5.490   1.123   3.718
 2399TIP3   OH2 7160   5.253   5.113   2.573
 2399TIP3    H1 7161   5.275   5.080   2.486
 2399TIP3    H2 7162   5.176   5.168   2.559
 2400TIP3   OH2 7163   0.642   4.120   1.833
 2400TIP3    H1 7164   0.626   4.213   1.820
 2400TIP3    H2 7165   0.630   4.106   1.927
 2401TIP3   OH2 7166   1.370   4.987   3.197
 2401TIP3    H1 7167   1.374   4.938   3.280
 2401TIP3    H2 7168   1.343   4.921   3.133
 2402TIP3   OH2 7169   4.127   3.969  -0.040
 2402TIP3    H1 7170   4.092   4.010   0.040
 2402TIP3    H2 7171   4.217   3.946  -0.017
 2403TIP3   OH2 7172   1.908   4.527   5.557
 2403TIP3    H1 7173   1.889   4.523   5.464
 2403TIP3    H2 7174   2.000   4.556   5.562
 2404TIP3   OH2 7175   6.438   5.134   5.286
 2404TIP3    H1 7176   6.379   5.072   5.244
 2404TIP3    H2 7177   6.455   5.200   5.219
 2405TIP3   OH2 7178   4.495   1.777   0.869
 2405TIP3    H1 7179   4.502   1.860   0.821
 2405TIP3    H2 7180   4.489   1.710   0.801
 2406TIP3   OH2 7181   0.903   5.404   0.898
 2406TIP3    H1 7182   0.871   5.472   0.957
 2406TIP3    H2 7183   0.960   5.350   0.953
 2407TIP3   OH2 7184   3.193   0.189   2.637
 2407TIP3    H1 7185   3.112   0.199   2.588
 2407TIP3    H2 7186   3.262   0.199   2.571
 2408TIP3   OH2 7187   5.070   0.236   2.541
 2408TIP3    H1 7188   5.016   0.174   2.591
 2408TIP3    H2 7189   5.102   0.298   2.607
 2409TIP3   OH2 7190   1.918   4.985   0.362
 2409TIP3    H1 7191   2.012   4.968   0.367
 2409TIP3    H2 7192   1.879   4.899   0.349
 2410TIP3   OH2 7193   5.551   4.654   4.774
 2410TIP3    H1 7194   5.498   4.651   4.855
 2410TIP3    H2 7195   5.504   4.597   4.713
 2411TIP3   OH2 7196   1.481   5.623   4.814
 2411TIP3    H1 7197   1.386   5.635   4.819
 2411TIP3    H2 7198   1.513   5.643   4.902
 2412TIP3   OH2 7199   1.408   4.873   3.449
 2412TIP3    H1 7200   1.494   4.848   3.482
 2412TIP3    H2 7201   1.352   4.798   3.471
 2413TIP3   OH2 7202   5.558   5.670   4.785
 2413TIP3    H1 7203   5.552   5.744   4.725
 2413TIP3    H2 7204   5.598   5.600   4.733
 2414TIP3   OH2 7205   0.352   1.819   5.156
 2414TIP3    H1 7206   0.415   1.890   5.172
 2414TIP3    H2 7207   0.278   1.861   5.113
 2415TIP3   OH2 7208   6.415   2.675   0.686
 2415TIP3    H1 7209   6.328   2.686   0.726
 2415TIP3    H2 7210   6.432   2.758   0.641
 2416TIP3   OH2 7211   1.300   1.765   3.341
 2416TIP3    H1 7212   1.342   1.850   3.358
 2416TIP3    H2 7213   1.334   1.739   3.255
 2417TIP3   OH2 7214   5.423   5.772   1.625
 2417TIP3    H1 7215   5.500   5.802   1.575
 2417TIP3    H2 7216   5.441   5.679   1.641
 2418TIP3   OH2 7217   2.433   3.627   1.755
 2418TIP3    H1 7218   2.501   3.648   1.692
 2418TIP3    H2 7219   2.397   3.713   1.781
 2419TIP3   OH2 7220   2.241   1.345   3.350
 2419TIP3    H1 7221   2.331   1.313   3.356
 2419TIP3    H2 7222   2.247   1.424   3.295
 2420TIP3   OH2 7223   6.450   5.394   2.477
 2420TIP3    H1 7224   6.371   5.398   2.531
 2420TIP3    H2 7225   6.436   5.319   2.419
 2421TIP3   OH2 7226   2.776   2.986   4.949
 2421TIP3    H1 7227   2.843   2.955   5.010
 2421TIP3    H2 7228   2.824   3.002   4.867
 2422TIP3   OH2 7229   2.597   6.773   5.821
 2422TIP3    H1 7230   2.592   6.713   5.896
 2422TIP3    H2 7231   2.656   6.730   5.760
 2423TIP3   OH2 7232   0.745   6.466   2.157
 2423TIP3    H1 7233   0.712   6.474   2.247
 2423TIP3    H2 7234   0.721   6.377   2.131
 2424TIP3   OH2 7235   1.130   2.804   4.840
 2424TIP3    H1 7236   1.048   2.803   4.792
 2424TIP3    H2 7237   1.163   2.894   4.830
 2425TIP3   OH2 7238   2.239   2.783   4.469
 2425TIP3    H1 7239   2.206   2.771   4.380
 2425TIP3    H2 7240   2.334   2.784   4.459
 2426TIP3   OH2 7241   3.397   3.704   5.613
 2426TIP3    H1 7242   3.387   3.616   5.578
 2426TIP3    H2 7243   3.374   3.761   5.540
 2427TIP3   OH2 7244   5.178   5.023   4.594
 2427TIP3    H1 7245   5.085   5.001   4.604
 2427TIP3    H2 7246   5.220   4.987   4.673
 2428TIP3   OH2 7247   5.875   2.059   0.306
 2428TIP3    H1 7248   5.892   2.085   0.216
 2428TIP3    H2 7249   5.824   2.132   0.343
 2429TIP3   OH2 7250   1.175   2.427   0.534
 2429TIP3    H1 7251   1.244   2.375   0.574
 2429TIP3    H2 7252   1.142   2.482   0.605
 2430TIP3   OH2 7253   0.665   0.652   1.511
 2430TIP3    H1 7254   0.611   0.617   1.581
 2430TIP3    H2 7255   0.641   0.744   1.505
 2431TIP3   OH2 7256   3.014   6.199   3.029
 2431TIP3    H1 7257   2.967   6.135   3.083
 2431TIP3    H2 7258   2.949   6.268   3.011
 2432TIP3   OH2 7259   7.208   3.964   5.259
 2432TIP3    H1 7260   7.226   3.968   5.165
 2432TIP3    H2 7261   7.244   3.880   5.287
 2433TIP3   OH2 7262   7.075   1.890   3.292
 2433TIP3    H1 7263   7.037   1.969   3.253
 2433TIP3    H2 7264   7.162   1.917   3.322
 2434TIP3   OH2 7265   4.288   2.883   3.628
 2434TIP3    H1 7266   4.339   2.861   3.550
 2434TIP3    H2 7267   4.260   2.973   3.614
 2435TIP3   OH2 7268   2.605   2.574   2.882
 2435TIP3    H1 7269   2.641   2.575   2.793
 2435TIP3    H2 7270   2.678   2.600   2.938
 2436TIP3   OH2 7271   1.254   3.269   5.050
 2436TIP3    H1 7272   1.349   3.262   5.064
 2436TIP3    H2 7273   1.218   3.275   5.139
 2437TIP3   OH2 7274   3.041   5.223   4.492
 2437TIP3    H1 7275   3.050   5.131   4.518
 2437TIP3    H2 7276   2.946   5.239   4.495
 2438TIP3   OH2 7277   5.463   0.204   1.369
 2438TIP3    H1 7278   5.466   0.108   1.372
 2438TIP3    H2 7279   5.554   0.230   1.356
 2439TIP3   OH2 7280   5.666   4.334   0.967
 2439TIP3    H1 7281   5.677   4.371   0.879
 2439TIP3    H2 7282   5.579   4.363   0.995
 2440TIP3   OH2 7283   2.989   5.147   2.573
 2440TIP3    H1 7284   2.927   5.086   2.611
 2440TIP3    H2 7285   3.056   5.092   2.532
 2441TIP3   OH2 7286   3.771   3.877   4.238
 2441TIP3    H1 7287   3.812   3.903   4.156
 2441TIP3    H2 7288   3.805   3.938   4.303
 2442TIP3   OH2 7289   7.111   3.324   3.240
 2442TIP3    H1 7290   7.034   3.366   3.202
 2442TIP3    H2 7291   7.161   3.396   3.278
 2443TIP3   OH2 7292   5.844   4.437   5.768
 2443TIP3    H1 7293   5.888   4.521   5.758
 2443TIP3    H2 7294   5.787   4.430   5.691
 2444TIP3   OH2 7295   0.072   0.375   0.778
 2444TIP3    H1 7296   0.089   0.284   0.753
 2444TIP3    H2 7297   0.045   0.417   0.696
 2445TIP3   OH2 7298   2.824   2.137   2.400
 2445TIP3    H1 7299   2.769   2.071   2.442
 2445TIP3    H2 7300   2.887   2.163   2.467
 2446TIP3   OH2 7301   3.766   5.504   1.456
 2446TIP3    H1 7302   3.800   5.415   1.458
 2446TIP3    H2 7303   3.844   5.559   1.447
 2447TIP3   OH2 7304   4.918   6.262   2.455
 2447TIP3    H1 7305   4.980   6.300   2.393
 2447TIP3    H2 7306   4.839   6.315   2.445
 2448TIP3   OH2 7307   3.426   4.761   2.874
 2448TIP3    H1 7308   3.489   4.712   2.927
 2448TIP3    H2 7309   3.369   4.802   2.939
 2449TIP3   OH2 7310   2.418   1.990   3.821
 2449TIP3    H1 7311   2.512   2.005   3.807
 2449TIP3    H2 7312   2.375   2.054   3.764
 2450TIP3   OH2 7313   0.050   4.092   5.781
 2450TIP3    H1 7314  -0.045   4.079   5.786
 2450TIP3    H2 7315   0.071   4.145   5.858
 2451TIP3   OH2 7316   0.697   3.112   5.550
 2451TIP3    H1 7317   0.616   3.155   5.580
 2451TIP3    H2 7318   0.684   3.020   5.572
 2452TIP3   OH2 7319   2.687   0.323   1.364
 2452TIP3    H1 7320   2.639   0.294   1.286
 2452TIP3    H2 7321   2.775   0.341   1.333
 2453TIP3   OH2 7322   3.606   6.406   3.119
 2453TIP3    H1 7323   3.632   6.489   3.158
 2453TIP3    H2 7324   3.664   6.395   3.044
 2454TIP3   OH2 7325   6.590   1.239   0.398
 2454TIP3    H1 7326   6.580   1.216   0.306
 2454TIP3    H2 7327   6.548   1.325   0.405
 2455TIP3   OH2 7328   4.353   2.122   0.162
 2455TIP3    H1 7329   4.307   2.176   0.226
 2455TIP3    H2 7330   4.382   2.184   0.095
 2456TIP3   OH2 7331   4.240   3.359   0.908
 2456TIP3    H1 7332   4.324   3.317   0.928
 2456TIP3    H2 7333   4.262   3.433   0.853
 2457TIP3   OH2 7334   5.620   2.676   5.758
 2457TIP3    H1 7335   5.562   2.607   5.727
 2457TIP3    H2 7336   5.561   2.739   5.800
 2458TIP3   OH2 7337   2.926   6.558   2.195
 2458TIP3    H1 7338   2.899   6.635   2.246
 2458TIP3    H2 7339   2.911   6.484   2.254
 2459TIP3   OH2 7340   5.194   5.101   0.026
 2459TIP3    H1 7341   5.138   5.128   0.098
 2459TIP3    H2 7342   5.206   5.007   0.038
 2460TIP3   OH2 7343   4.556   5.099   1.973
 2460TIP3    H1 7344   4.569   5.054   2.056
 2460TIP3    H2 7345   4.642   5.134   1.950
 2461TIP3   OH2 7346   2.510   2.371   2.532
 2461TIP3    H1 7347   2.539   2.288   2.571
 2461TIP3    H2 7348   2.564   2.438   2.576
 2462TIP3   OH2 7349   1.446   0.026   5.330
 2462TIP3    H1 7350   1.517   0.002   5.390
 2462TIP3    H2 7351   1.443   0.122   5.333
 2463TIP3   OH2 7352   6.497   0.572   3.834
 2463TIP3    H1 7353   6.458   0.659   3.833
 2463TIP3    H2 7354   6.577   0.581   3.887
 2464TIP3   OH2 7355   4.017   0.426   0.904
 2464TIP3    H1 7356   4.059   0.470   0.979
 2464TIP3    H2 7357   3.995   0.497   0.844
 2465TIP3   OH2 7358   6.639   5.346   1.719
 2465TIP3    H1 7359   6.719   5.327   1.768
 2465TIP3    H2 7360   6.569   5.307   1.771
 2466TIP3   OH2 7361   6.811   2.505   5.739
 2466TIP3    H1 7362   6.879   2.449   5.776
 2466TIP3    H2 7363   6.750   2.520   5.812
 2467TIP3   OH2 7364   6.471   2.003   3.393
 2467TIP3    H1 7365   6.475   1.996   3.297
 2467TIP3    H2 7366   6.443   2.093   3.409
 2468TIP3   OH2 7367   3.605   5.778   3.653
 2468TIP3    H1 7368   3.691   5.818   3.667
 2468TIP3    H2 7369   3.555   5.846   3.608
 2469TIP3   OH2 7370   6.166   5.435   3.428
 2469TIP3    H1 7371   6.130   5.390   3.352
 2469TIP3    H2 7372   6.222   5.370   3.470
 2470TIP3   OH2 7373   3.727   5.677   2.971
 2470TIP3    H1 7374   3.639   5.705   2.996
 2470TIP3    H2 7375   3.718   5.646   2.881
 2471TIP3   OH2 7376   3.769   1.595   1.827
 2471TIP3    H1 7377   3.675   1.613   1.822
 2471TIP3    H2 7378   3.783   1.524   1.764
 2472TIP3   OH2 7379   3.347   0.774   2.039
 2472TIP3    H1 7380   3.346   0.810   1.951
 2472TIP3    H2 7381   3.435   0.736   2.049
 2473TIP3   OH2 7382   1.463   2.693   5.658
 2473TIP3    H1 7383   1.469   2.679   5.753
 2473TIP3    H2 7384   1.376   2.661   5.634
 2474TIP3   OH2 7385   3.223   6.487   2.233
 2474TIP3    H1 7386   3.312   6.451   2.241
 2474TIP3    H2 7387   3.169   6.412   2.208
 2475TIP3   OH2 7388   7.002   0.491   1.788
 2475TIP3    H1 7389   7.015   0.460   1.699
 2475TIP3    H2 7390   6.910   0.517   1.792
 2476TIP3   OH2 7391   6.114   0.159   5.680
 2476TIP3    H1 7392   6.156   0.075   5.662
 2476TIP3    H2 7393   6.069   0.182   5.599
 2477TIP3   OH2 7394   5.011   4.462   0.396
 2477TIP3    H1 7395   5.082   4.446   0.334
 2477TIP3    H2 7396   4.933   4.469   0.341
 2478TIP3   OH2 7397   2.366   6.649   1.068
 2478TIP3    H1 7398   2.303   6.709   1.108
 2478TIP3    H2 7399   2.352   6.566   1.114
 2479TIP3   OH2 7400   0.744   5.438   1.513
 2479TIP3    H1 7401   0.718   5.495   1.585
 2479TIP3    H2 7402   0.696   5.357   1.529
 2480TIP3   OH2 7403   5.282   5.826   4.954
 2480TIP3    H1 7404   5.342   5.889   4.915
 2480TIP3    H2 7405   5.199   5.840   4.907
 2481TIP3   OH2 7406   2.661   3.905   5.527
 2481TIP3    H1 7407   2.646   3.986   5.575
 2481TIP3    H2 7408   2.577   3.885   5.485
 2482TIP3   OH2 7409   3.922   2.950   4.655
 2482TIP3    H1 7410   3.951   2.986   4.739
 2482TIP3    H2 7411   3.945   3.017   4.591
 2483TIP3   OH2 7412   5.424   1.782   2.531
 2483TIP3    H1 7413   5.407   1.766   2.624
 2483TIP3    H2 7414   5.515   1.754   2.519
 2484TIP3   OH2 7415   4.432   1.331   1.556
 2484TIP3    H1 7416   4.355   1.275   1.571
 2484TIP3    H2 7417   4.482   1.285   1.489
 2485TIP3   OH2 7418   4.664   2.616   4.023
 2485TIP3    H1 7419   4.571   2.591   4.024
 2485TIP3    H2 7420   4.692   2.607   4.114
 2486TIP3   OH2 7421   5.246   0.421   4.083
 2486TIP3    H1 7422   5.307   0.439   4.155
 2486TIP3    H2 7423   5.297   0.439   4.004
 2487TIP3   OH2 7424   6.879   4.615   2.127
 2487TIP3    H1 7425   6.796   4.624   2.079
 2487TIP3    H2 7426   6.857   4.562   2.203
 2488TIP3   OH2 7427   3.697   6.266   5.349
 2488TIP3    H1 7428   3.606   6.293   5.365
 2488TIP3    H2 7429   3.700   6.175   5.380
 2489TIP3   OH2 7430   3.385   0.234   2.472
 2489TIP3    H1 7431   3.455   0.168   2.473
 2489TIP3    H2 7432   3.426   0.312   2.434
 2490TIP3   OH2 7433   2.836   6.419   0.558
 2490TIP3    H1 7434   2.770   6.485   0.582
 2490TIP3    H2 7435   2.906   6.432   0.623
 2491TIP3   OH2 7436   3.893   5.075   3.471
 2491TIP3    H1 7437   3.892   5.167   3.497
 2491TIP3    H2 7438   3.971   5.067   3.416
 2492TIP3   OH2 7439   2.810   2.826   2.132
 2492TIP3    H1 7440   2.888   2.807   2.079
 2492TIP3    H2 7441   2.804   2.752   2.193
 2493TIP3   OH2 7442   4.281   3.865   3.463
 2493TIP3    H1 7443   4.323   3.794   3.415
 2493TIP3    H2 7444   4.354   3.922   3.490
 2494TIP3   OH2 7445   1.520   0.174   2.116
 2494TIP3    H1 7446   1.592   0.238   2.121
 2494TIP3    H2 7447   1.554   0.105   2.059
 2495TIP3   OH2 7448   5.073   1.282   3.357
 2495TIP3    H1 7449   5.013   1.356   3.367
 2495TIP3    H2 7450   5.016   1.205   3.356
 2496TIP3   OH2 7451   2.969   5.707   3.977
 2496TIP3    H1 7452   3.054   5.685   3.940
 2496TIP3    H2 7453   2.918   5.738   3.903
 2497TIP3   OH2 7454   5.386   0.869   4.610
 2497TIP3    H1 7455   5.457   0.826   4.563
 2497TIP3    H2 7456   5.384   0.826   4.696
 2498TIP3   OH2 7457   5.904   4.717   2.409
 2498TIP3    H1 7458   5.888   4.624   2.394
 2498TIP3    H2 7459   5.880   4.759   2.326
 2499TIP3   OH2 7460   5.849   5.164   4.924
 2499TIP3    H1 7461   5.782   5.232   4.924
 2499TIP3    H2 7462   5.917   5.197   4.865
 2500TIP3   OH2 7463   2.056   4.576   1.083
 2500TIP3    H1 7464   1.995   4.650   1.081
 2500TIP3    H2 7465   2.109   4.591   1.162
 2501TIP3   OH2 7466   1.746   0.207   2.903
 2501TIP3    H1 7467   1.707   0.120   2.919
 2501TIP3    H2 7468   1.692   0.245   2.834
 2502TIP3   OH2 7469   3.978   5.485   2.271
 2502TIP3    H1 7470   4.071   5.482   2.248
 2502TIP3    H2 7471   3.966   5.569   2.315
 2503TIP3   OH2 7472   5.738   0.272   1.359
 2503TIP3    H1 7473   5.755   0.337   1.427
 2503TIP3    H2 7474   5.757   0.317   1.276
 2504TIP3   OH2 7475   5.670   0.433   5.620
 2504TIP3    H1 7476   5.651   0.461   5.531
 2504TIP3    H2 7477   5.635   0.504   5.675
 2505TIP3   OH2 7478   5.623   5.195   2.489
 2505TIP3    H1 7479   5.561   5.262   2.462
 2505TIP3    H2 7480   5.617   5.193   2.585
 2506TIP3   OH2 7481   7.168   3.057   2.580
 2506TIP3    H1 7482   7.158   2.997   2.654
 2506TIP3    H2 7483   7.254   3.097   2.593
 2507TIP3   OH2 7484   2.021   5.549  -0.005
 2507TIP3    H1 7485   1.934   5.525   0.026
 2507TIP3    H2 7486   2.073   5.469   0.005
 2508TIP3   OH2 7487   6.021   2.152   5.510
 2508TIP3    H1 7488   6.070   2.116   5.584
 2508TIP3    H2 7489   5.963   2.082   5.483
 2509TIP3   OH2 7490   5.849   1.820   3.479
 2509TIP3    H1 7491   5.785   1.769   3.429
 2509TIP3    H2 7492   5.827   1.803   3.571
 2510TIP3   OH2 7493   6.864   5.668   1.663
 2510TIP3    H1 7494   6.826   5.596   1.613
 2510TIP3    H2 7495   6.836   5.747   1.617
 2511TIP3   OH2 7496   0.543   6.009   2.317
 2511TIP3    H1 7497   0.465   6.056   2.289
 2511TIP3    H2 7498   0.521   5.977   2.404
 2512TIP3   OH2 7499   6.194   6.558   4.741
 2512TIP3    H1 7500   6.196   6.468   4.709
 2512TIP3    H2 7501   6.107   6.568   4.779
 2513TIP3   OH2 7502   1.120   3.563   1.691
 2513TIP3    H1 7503   1.165   3.479   1.697
 2513TIP3    H2 7504   1.170   3.622   1.749
 2514TIP3   OH2 7505   6.905   4.556   4.527
 2514TIP3    H1 7506   6.909   4.646   4.495
 2514TIP3    H2 7507   6.919   4.502   4.449
 2515TIP3   OH2 7508   0.183   4.591   5.637
 2515TIP3    H1 7509   0.177   4.686   5.647
 2515TIP3    H2 7510   0.108   4.556   5.685
 2516TIP3   OH2 7511   5.058   1.878   5.343
 2516TIP3    H1 7512   5.075   1.948   5.406
 2516TIP3    H2 7513   5.081   1.916   5.259
 2517TIP3   OH2 7514   3.776   4.883   1.508
 2517TIP3    H1 7515   3.851   4.910   1.561
 2517TIP3    H2 7516   3.759   4.958   1.451
 2518TIP3   OH2 7517   3.211   5.365   4.302
 2518TIP3    H1 7518   3.138   5.380   4.241
 2518TIP3    H2 7519   3.173   5.311   4.372
 2519TIP3   OH2 7520   4.132   2.013   4.346
 2519TIP3    H1 7521   4.116   2.024   4.440
 2519TIP3    H2 7522   4.045   2.011   4.307
 2520TIP3   OH2 7523   3.845   2.187   3.242
 2520TIP3    H1 7524   3.908   2.125   3.280
 2520TIP3    H2 7525   3.899   2.257   3.206
 2521TIP3   OH2 7526   1.697   5.388   0.845
 2521TIP3    H1 7527   1.626   5.354   0.899
 2521TIP3    H2 7528   1.733   5.460   0.896
 2522TIP3   OH2 7529   6.973   5.335   4.948
 2522TIP3    H1 7530   7.031   5.406   4.975
 2522TIP3    H2 7531   6.998   5.262   5.005
 2523TIP3   OH2 7532   1.261   5.523   3.023
 2523TIP3    H1 7533   1.243   5.604   3.070
 2523TIP3    H2 7534   1.204   5.458   3.063
 2524TIP3   OH2 7535   3.769   3.019   1.184
 2524TIP3    H1 7536   3.732   2.955   1.123
 2524TIP3    H2 7537   3.759   2.979   1.270
 2525TIP3   OH2 7538   6.456   3.878   3.221
 2525TIP3    H1 7539   6.380   3.892   3.277
 2525TIP3    H2 7540   6.531   3.901   3.275
 2526TIP3   OH2 7541   3.370   5.032   2.008
 2526TIP3    H1 7542   3.308   4.996   1.944
 2526TIP3    H2 7543   3.404   5.111   1.967
 2527TIP3   OH2 7544   0.751   2.951   3.583
 2527TIP3    H1 7545   0.828   3.009   3.586
 2527TIP3    H2 7546   0.679   3.005   3.614
 2528TIP3   OH2 7547   5.694   5.592   0.263
 2528TIP3    H1 7548   5.754   5.643   0.317
 2528TIP3    H2 7549   5.749   5.530   0.216
 2529TIP3   OH2 7550   1.328   5.390   4.440
 2529TIP3    H1 7551   1.261   5.389   4.508
 2529TIP3    H2 7552   1.304   5.462   4.382
 2530TIP3   OH2 7553   3.621   3.928   3.662
 2530TIP3    H1 7554   3.663   3.842   3.665
 2530TIP3    H2 7555   3.568   3.931   3.742
 2531TIP3   OH2 7556   0.321   6.774   2.813
 2531TIP3    H1 7557   0.324   6.831   2.889
 2531TIP3    H2 7558   0.353   6.828   2.741
 2532TIP3   OH2 7559   5.641   2.330   1.917
 2532TIP3    H1 7560   5.643   2.389   1.841
 2532TIP3    H2 7561   5.645   2.389   1.992
 2533TIP3   OH2 7562   6.030   0.108   4.506
 2533TIP3    H1 7563   6.097   0.064   4.453
 2533TIP3    H2 7564   6.080   0.155   4.572
 2534TIP3   OH2 7565   6.627   0.790   2.126
 2534TIP3    H1 7566   6.712   0.794   2.082
 2534TIP3    H2 7567   6.564   0.775   2.055
 2535TIP3   OH2 7568   4.523   2.385   1.213
 2535TIP3    H1 7569   4.591   2.398   1.146
 2535TIP3    H2 7570   4.544   2.449   1.281
 2536TIP3   OH2 7571   4.336   2.297   2.331
 2536TIP3    H1 7572   4.296   2.335   2.409
 2536TIP3    H2 7573   4.319   2.362   2.262
 2537TIP3   OH2 7574   7.053   5.849   3.898
 2537TIP3    H1 7575   6.978   5.809   3.854
 2537TIP3    H2 7576   7.093   5.905   3.832
 2538TIP3   OH2 7577   4.690   4.624   2.978
 2538TIP3    H1 7578   4.698   4.566   3.053
 2538TIP3    H2 7579   4.659   4.568   2.907
 2539TIP3   OH2 7580   2.019   3.936   5.796
 2539TIP3    H1 7581   2.026   3.998   5.869
 2539TIP3    H2 7582   2.096   3.954   5.742
 2540TIP3   OH2 7583   5.396   4.489   4.404
 2540TIP3    H1 7584   5.469   4.440   4.368
 2540TIP3    H2 7585   5.398   4.469   4.498
 2541TIP3   OH2 7586   3.592   0.559   3.489
 2541TIP3    H1 7587   3.627   0.539   3.402
 2541TIP3    H2 7588   3.502   0.588   3.472
 2542TIP3   OH2 7589   7.135   1.652   3.539
 2542TIP3    H1 7590   7.073   1.584   3.565
 2542TIP3    H2 7591   7.081   1.726   3.511
 2543TIP3   OH2 7592   6.902   3.072   5.046
 2543TIP3    H1 7593   6.926   3.083   5.138
 2543TIP3    H2 7594   6.986   3.058   5.001
 2544TIP3   OH2 7595   5.972   4.207   5.718
 2544TIP3    H1 7596   5.918   4.282   5.741
 2544TIP3    H2 7597   5.925   4.166   5.645
 2545TIP3   OH2 7598   2.661   3.739   1.630
 2545TIP3    H1 7599   2.732   3.683   1.598
 2545TIP3    H2 7600   2.706   3.807   1.681
 2546TIP3   OH2 7601   1.891   2.325   2.668
 2546TIP3    H1 7602   1.877   2.233   2.693
 2546TIP3    H2 7603   1.838   2.375   2.730
 2547TIP3   OH2 7604   0.331   5.992   4.975
 2547TIP3    H1 7605   0.262   6.058   4.982
 2547TIP3    H2 7606   0.322   5.956   4.887
 2548TIP3   OH2 7607   6.669   0.136   3.677
 2548TIP3    H1 7608   6.701   0.192   3.748
 2548TIP3    H2 7609   6.718   0.165   3.600
 2549TIP3   OH2 7610   3.263   0.944   0.365
 2549TIP3    H1 7611   3.291   0.962   0.275
 2549TIP3    H2 7612   3.250   1.030   0.404
 2550TIP3   OH2 7613   4.786   0.312   4.235
 2550TIP3    H1 7614   4.772   0.354   4.150
 2550TIP3    H2 7615   4.873   0.273   4.229
 2551TIP3   OH2 7616   0.844   4.834   5.776
 2551TIP3    H1 7617   0.889   4.762   5.732
 2551TIP3    H2 7618   0.756   4.802   5.791
 2552TIP3   OH2 7619   5.270   1.748   0.955
 2552TIP3    H1 7620   5.362   1.749   0.930
 2552TIP3    H2 7621   5.228   1.690   0.891
 2553TIP3   OH2 7622   6.041   5.370   1.657
 2553TIP3    H1 7623   6.072   5.281   1.639
 2553TIP3    H2 7624   6.109   5.427   1.621
 2554TIP3   OH2 7625   7.097   6.547   3.064
 2554TIP3    H1 7626   7.130   6.623   3.017
 2554TIP3    H2 7627   7.118   6.564   3.156
 2555TIP3   OH2 7628   5.633   2.915   2.901
 2555TIP3    H1 7629   5.612   2.895   2.809
 2555TIP3    H2 7630   5.550   2.944   2.939
 2556TIP3   OH2 7631   3.310   1.710   1.561
 2556TIP3    H1 7632   3.250   1.640   1.587
 2556TIP3    H2 7633   3.385   1.665   1.523
 2557TIP3   OH2 7634   3.285   0.716   1.434
 2557TIP3    H1 7635   3.190   0.704   1.425
 2557TIP3    H2 7636   3.311   0.651   1.499
 2558TIP3   OH2 7637   1.715   3.654   2.654
 2558TIP3    H1 7638   1.744   3.573   2.611
 2558TIP3    H2 7639   1.711   3.632   2.747
 2559TIP3   OH2 7640   2.116   3.049   3.976
 2559TIP3    H1 7641   2.157   3.013   4.055
 2559TIP3    H2 7642   2.136   3.142   3.979
 2560TIP3   OH2 7643   3.257   6.551   4.731
 2560TIP3    H1 7644   3.350   6.566   4.712
 2560TIP3    H2 7645   3.233   6.476   4.677
 2561TIP3   OH2 7646   5.014   2.676   4.523
 2561TIP3    H1 7647   5.082   2.729   4.565
 2561TIP3    H2 7648   5.049   2.656   4.437
 2562TIP3   OH2 7649   6.437   5.482   3.685
 2562TIP3    H1 7650   6.346   5.507   3.704
 2562TIP3    H2 7651   6.476   5.467   3.771
 2563TIP3   OH2 7652   3.162   4.307   2.509
 2563TIP3    H1 7653   3.097   4.376   2.524
 2563TIP3    H2 7654   3.138   4.270   2.425
 2564TIP3   OH2 7655   1.709   3.859   3.349
 2564TIP3    H1 7656   1.630   3.911   3.360
 2564TIP3    H2 7657   1.693   3.779   3.400
 2565TIP3   OH2 7658   1.825   2.122   4.229
 2565TIP3    H1 7659   1.788   2.210   4.240
 2565TIP3    H2 7660   1.806   2.100   4.138
 2566TIP3   OH2 7661   2.025   5.198   4.456
 2566TIP3    H1 7662   2.035   5.289   4.482
 2566TIP3    H2 7663   1.944   5.169   4.499
 2567TIP3   OH2 7664   0.363   5.947   1.815
 2567TIP3    H1 7665   0.413   5.934   1.896
 2567TIP3    H2 7666   0.406   5.890   1.751
 2568TIP3   OH2 7667   3.339   0.343   5.852
 2568TIP3    H1 7668   3.403   0.283   5.813
 2568TIP3    H2 7669   3.263   0.289   5.871
 2569TIP3   OH2 7670   0.475   5.116   1.162
 2569TIP3    H1 7671   0.533   5.151   1.094
 2569TIP3    H2 7672   0.396   5.089   1.114
 2570TIP3   OH2 7673   4.547   1.062   4.083
 2570TIP3    H1 7674   4.454   1.060   4.059
 2570TIP3    H2 7675   4.547   1.057   4.179
 2571TIP3   OH2 7676   3.490   0.190   1.396
 2571TIP3    H1 7677   3.512   0.219   1.308
 2571TIP3    H2 7678   3.549   0.117   1.413
 2572TIP3   OH2 7679   5.385   5.630   3.097
 2572TIP3    H1 7680   5.330   5.555   3.077
 2572TIP3    H2 7681   5.328   5.689   3.147
 2573TIP3   OH2 7682   2.529   3.987   3.313
 2573TIP3    H1 7683   2.551   3.923   3.380
 2573TIP3    H2 7684   2.485   4.058   3.361
 2574TIP3   OH2 7685   2.276   3.231   2.503
 2574TIP3    H1 7686   2.363   3.249   2.469
 2574TIP3    H2 7687   2.237   3.318   2.516
 2575TIP3   OH2 7688   3.514   5.489   5.514
 2575TIP3    H1 7689   3.552   5.577   5.514
 2575TIP3    H2 7690   3.419   5.504   5.512
 2576TIP3   OH2 7691   0.103   0.285   2.606
 2576TIP3    H1 7692   0.085   0.379   2.598
 2576TIP3    H2 7693   0.117   0.256   2.516
 2577TIP3   OH2 7694   0.005   3.057   0.463
 2577TIP3    H1 7695   0.001   3.149   0.437
 2577TIP3    H2 7696   0.098   3.036   0.459
 2578TIP3   OH2 7697   5.422   4.952   3.250
 2578TIP3    H1 7698   5.479   4.889   3.294
 2578TIP3    H2 7699   5.439   5.035   3.295
 2579TIP3   OH2 7700   6.576   4.150   2.477
 2579TIP3    H1 7701   6.560   4.118   2.389
 2579TIP3    H2 7702   6.613   4.238   2.464
 2580TIP3   OH2 7703   1.130   4.017   4.631
 2580TIP3    H1 7704   1.065   4.088   4.624
 2580TIP3    H2 7705   1.115   3.963   4.554
 2581TIP3   OH2 7706   0.514   1.423   5.707
 2581TIP3    H1 7707   0.591   1.476   5.729
 2581TIP3    H2 7708   0.440   1.475   5.739
 2582TIP3   OH2 7709   3.507   5.557   0.710
 2582TIP3    H1 7710   3.481   5.609   0.634
 2582TIP3    H2 7711   3.425   5.518   0.741
 2583TIP3   OH2 7712   6.036   2.845   5.921
 2583TIP3    H1 7713   6.019   2.896   5.841
 2583TIP3    H2 7714   5.956   2.795   5.935
 2584TIP3   OH2 7715   2.989   3.129   5.342
 2584TIP3    H1 7716   2.922   3.167   5.400
 2584TIP3    H2 7717   2.971   3.168   5.257
 2585TIP3   OH2 7718   2.741   5.187   4.400
 2585TIP3    H1 7719   2.710   5.111   4.449
 2585TIP3    H2 7720   2.684   5.191   4.323
 2586TIP3   OH2 7721   3.849   5.336   0.989
 2586TIP3    H1 7722   3.818   5.388   1.063
 2586TIP3    H2 7723   3.776   5.336   0.927
 2587TIP3   OH2 7724   0.882   2.509   5.041
 2587TIP3    H1 7725   0.790   2.485   5.046
 2587TIP3    H2 7726   0.898   2.528   4.949
 2588TIP3   OH2 7727   0.381   2.933   5.413
 2588TIP3    H1 7728   0.298   2.924   5.459
 2588TIP3    H2 7729   0.398   3.027   5.413
 2589TIP3   OH2 7730   1.137   1.500   5.498
 2589TIP3    H1 7731   1.188   1.479   5.420
 2589TIP3    H2 7732   1.067   1.557   5.466
 2590TIP3   OH2 7733   0.945   4.211   1.397
 2590TIP3    H1 7734   1.000   4.157   1.340
 2590TIP3    H2 7735   1.006   4.264   1.447
 2591TIP3   OH2 7736   0.751   3.894   1.290
 2591TIP3    H1 7737   0.659   3.888   1.265
 2591TIP3    H2 7738   0.788   3.958   1.229
 2592TIP3   OH2 7739   6.182   0.550   2.162
 2592TIP3    H1 7740   6.227   0.634   2.159
 2592TIP3    H2 7741   6.177   0.528   2.255
 2593TIP3   OH2 7742   2.963   4.456   4.223
 2593TIP3    H1 7743   2.950   4.468   4.129
 2593TIP3    H2 7744   2.889   4.402   4.251
 2594TIP3   OH2 7745   4.083   0.905   5.272
 2594TIP3    H1 7746   4.006   0.892   5.327
 2594TIP3    H2 7747   4.149   0.939   5.333
 2595TIP3   OH2 7748   4.618   2.763   5.452
 2595TIP3    H1 7749   4.632   2.856   5.468
 2595TIP3    H2 7750   4.705   2.724   5.462
 2596TIP3   OH2 7751   6.280   2.074   3.930
 2596TIP3    H1 7752   6.230   2.049   3.852
 2596TIP3    H2 7753   6.294   1.991   3.976
 2597TIP3   OH2 7754   2.861   6.411   2.948
 2597TIP3    H1 7755   2.767   6.412   2.965
 2597TIP3    H2 7756   2.874   6.478   2.881
 2598TIP3   OH2 7757   2.605   3.893   2.865
 2598TIP3    H1 7758   2.654   3.927   2.940
 2598TIP3    H2 7759   2.570   3.809   2.895
 2599TIP3   OH2 7760   6.385   2.578   0.118
 2599TIP3    H1 7761   6.326   2.507   0.094
 2599TIP3    H2 7762   6.345   2.656   0.080
 2600TIP3   OH2 7763   7.176   0.965   1.974
 2600TIP3    H1 7764   7.169   0.883   2.023
 2600TIP3    H2 7765   7.179   1.033   2.041
 2601TIP3   OH2 7766   3.666   4.537   0.187
 2601TIP3    H1 7767   3.754   4.531   0.152
 2601TIP3    H2 7768   3.610   4.498   0.120
 2602TIP3   OH2 7769   4.869   2.219   2.166
 2602TIP3    H1 7770   4.937   2.166   2.207
 2602TIP3    H2 7771   4.789   2.168   2.176
 2603TIP3   OH2 7772   0.083   4.579   4.293
 2603TIP3    H1 7773   0.159   4.627   4.260
 2603TIP3    H2 7774   0.038   4.547   4.215
 2604TIP3   OH2 7775   7.136   1.853   1.292
 2604TIP3    H1 7776   7.069   1.880   1.229
 2604TIP3    H2 7777   7.090   1.847   1.376
 2605TIP3   OH2 7778   7.229   1.203   5.537
 2605TIP3    H1 7779   7.175   1.125   5.520
 2605TIP3    H2 7780   7.299   1.171   5.594
 2606TIP3   OH2 7781   6.056   1.718   5.722
 2606TIP3    H1 7782   5.975   1.759   5.692
 2606TIP3    H2 7783   6.110   1.712   5.644
 2607TIP3   OH2 7784   3.836   1.650   5.197
 2607TIP3    H1 7785   3.931   1.654   5.202
 2607TIP3    H2 7786   3.814   1.559   5.220
 2608TIP3   OH2 7787   7.047   6.803   3.766
 2608TIP3    H1 7788   7.056   6.724   3.820
 2608TIP3    H2 7789   6.974   6.782   3.707
 2609TIP3   OH2 7790   2.603   4.121   1.533
 2609TIP3    H1 7791   2.627   4.059   1.602
 2609TIP3    H2 7792   2.675   4.184   1.533
 2610TIP3   OH2 7793   5.373   4.776   5.441
 2610TIP3    H1 7794   5.398   4.860   5.402
 2610TIP3    H2 7795   5.310   4.800   5.509
 2611TIP3   OH2 7796   3.674   2.082   4.978
 2611TIP3    H1 7797   3.675   2.156   4.917
 2611TIP3    H2 7798   3.656   2.122   5.063
 2612TIP3   OH2 7799   3.244   6.508   3.558
 2612TIP3    H1 7800   3.217   6.589   3.603
 2612TIP3    H2 7801   3.335   6.524   3.533
 2613TIP3   OH2 7802   4.724   4.326   1.292
 2613TIP3    H1 7803   4.794   4.365   1.343
 2613TIP3    H2 7804   4.679   4.401   1.253
 2614TIP3   OH2 7805   7.169   5.692   2.231
 2614TIP3    H1 7806   7.168   5.597   2.218
 2614TIP3    H2 7807   7.220   5.704   2.311
 2615TIP3   OH2 7808   6.031   5.969   2.335
 2615TIP3    H1 7809   6.056   6.030   2.266
 2615TIP3    H2 7810   5.996   6.025   2.405
 2616TIP3   OH2 7811   0.307   2.759   4.968
 2616TIP3    H1 7812   0.388   2.808   4.986
 2616TIP3    H2 7813   0.245   2.791   5.034
 2617TIP3   OH2 7814   1.341   3.163   2.250
 2617TIP3    H1 7815   1.426   3.163   2.206
 2617TIP3    H2 7816   1.308   3.074   2.239
 2618TIP3   OH2 7817   5.391   3.332   0.544
 2618TIP3    H1 7818   5.323   3.397   0.524
 2618TIP3    H2 7819   5.351   3.277   0.612
 2619TIP3   OH2 7820   4.678   2.478   3.015
 2619TIP3    H1 7821   4.669   2.520   3.101
 2619TIP3    H2 7822   4.673   2.551   2.953
 2620TIP3   OH2 7823   0.390   0.753   4.940
 2620TIP3    H1 7824   0.461   0.779   4.999
 2620TIP3    H2 7825   0.310   0.773   4.988
 2621TIP3   OH2 7826   5.245   4.439   0.210
 2621TIP3    H1 7827   5.186   4.450   0.135
 2621TIP3    H2 7828   5.292   4.522   0.215
 2622TIP3   OH2 7829   3.344   5.479   2.349
 2622TIP3    H1 7830   3.356   5.552   2.411
 2622TIP3    H2 7831   3.311   5.520   2.270
 2623TIP3   OH2 7832   6.133   4.146   4.019
 2623TIP3    H1 7833   6.138   4.084   4.091
 2623TIP3    H2 7834   6.221   4.183   4.013
 2624TIP3   OH2 7835   6.518   5.201   2.319
 2624TIP3    H1 7836   6.587   5.151   2.362
 2624TIP3    H2 7837   6.564   5.252   2.252
 2625TIP3   OH2 7838   5.514   5.541   2.759
 2625TIP3    H1 7839   5.450   5.582   2.701
 2625TIP3    H2 7840   5.514   5.596   2.837
 2626TIP3   OH2 7841   4.922   2.219   1.670
 2626TIP3    H1 7842   4.867   2.145   1.643
 2626TIP3    H2 7843   4.935   2.207   1.764
 2627TIP3   OH2 7844   1.869   0.880   2.104
 2627TIP3    H1 7845   1.847   0.869   2.197
 2627TIP3    H2 7846   1.953   0.925   2.105
 2628TIP3   OH2 7847   4.161   4.699   4.693
 2628TIP3    H1 7848   4.132   4.675   4.781
 2628TIP3    H2 7849   4.238   4.644   4.677
 2629TIP3   OH2 7850   5.985   3.541   5.675
 2629TIP3    H1 7851   5.995   3.635   5.689
 2629TIP3    H2 7852   6.001   3.502   5.761
 2630TIP3   OH2 7853   2.146   5.794   1.720
 2630TIP3    H1 7854   2.207   5.862   1.691
 2630TIP3    H2 7855   2.080   5.841   1.771
 2631TIP3   OH2 7856   5.674   3.245   1.991
 2631TIP3    H1 7857   5.642   3.315   2.047
 2631TIP3    H2 7858   5.769   3.242   2.008
 2632TIP3   OH2 7859   6.230   3.649   2.865
 2632TIP3    H1 7860   6.298   3.701   2.908
 2632TIP3    H2 7861   6.276   3.571   2.834
 2633TIP3   OH2 7862   1.313   5.946   4.767
 2633TIP3    H1 7863   1.225   5.979   4.748
 2633TIP3    H2 7864   1.302   5.852   4.775
 2634TIP3   OH2 7865   4.366   0.023   3.735
 2634TIP3    H1 7866   4.397   0.030   3.644
 2634TIP3    H2 7867   4.357   0.114   3.764
 2635TIP3   OH2 7868   4.412   0.799   0.484
 2635TIP3    H1 7869   4.324   0.792   0.520
 2635TIP3    H2 7870   4.458   0.722   0.517
 2636TIP3   OH2 7871   6.163   3.654   4.857
 2636TIP3    H1 7872   6.180   3.560   4.850
 2636TIP3    H2 7873   6.106   3.674   4.783
 2637TIP3   OH2 7874   2.696   5.361   0.863
 2637TIP3    H1 7875   2.781   5.343   0.824
 2637TIP3    H2 7876   2.659   5.430   0.808
 2638TIP3   OH2 7877   0.379   3.683   1.568
 2638TIP3    H1 7878   0.351   3.595   1.592
 2638TIP3    H2 7879   0.453   3.670   1.508
 2639TIP3   OH2 7880   6.072   0.629   1.336
 2639TIP3    H1 7881   6.036   0.547   1.300
 2639TIP3    H2 7882   6.000   0.666   1.388
 2640TIP3   OH2 7883   0.284   5.786   2.183
 2640TIP3    H1 7884   0.214   5.740   2.137
 2640TIP3    H2 7885   0.254   5.876   2.188
 2641TIP3   OH2 7886   5.476   1.551   1.242
 2641TIP3    H1 7887   5.479   1.645   1.221
 2641TIP3    H2 7888   5.546   1.539   1.306
 2642TIP3   OH2 7889   1.650   2.885   3.891
 2642TIP3    H1 7890   1.730   2.847   3.855
 2642TIP3    H2 7891   1.580   2.850   3.835
 2643TIP3   OH2 7892   0.262   1.648   1.239
 2643TIP3    H1 7893   0.300   1.731   1.209
 2643TIP3    H2 7894   0.200   1.623   1.172
 2644TIP3   OH2 7895   3.532   3.561   4.245
 2644TIP3    H1 7896   3.588   3.637   4.229
 2644TIP3    H2 7897   3.583   3.507   4.306
 2645TIP3   OH2 7898   5.211   2.330   1.062
 2645TIP3    H1 7899   5.192   2.383   1.139
 2645TIP3    H2 7900   5.282   2.272   1.089
 2646TIP3   OH2 7901   6.717   0.839   0.377
 2646TIP3    H1 7902   6.673   0.759   0.406
 2646TIP3    H2 7903   6.739   0.821   0.285
 2647TIP3   OH2 7904   6.874   0.952   4.751
 2647TIP3    H1 7905   6.837   1.032   4.789
 2647TIP3    H2 7906   6.805   0.886   4.763
 2648TIP3   OH2 7907   4.151   0.200   5.518
 2648TIP3    H1 7908   4.116   0.170   5.434
 2648TIP3    H2 7909   4.087   0.172   5.583
 2649TIP3   OH2 7910   3.439   3.713   2.795
 2649TIP3    H1 7911   3.385   3.634   2.794
 2649TIP3    H2 7912   3.508   3.696   2.732
 2650TIP3   OH2 7913   0.485   4.891   5.435
 2650TIP3    H1 7914   0.450   4.809   5.469
 2650TIP3    H2 7915   0.416   4.924   5.377
 2651TIP3   OH2 7916   2.649   4.058   4.121
 2651TIP3    H1 7917   2.693   4.093   4.043
 2651TIP3    H2 7918   2.556   4.055   4.097
 2652TIP3   OH2 7919   4.761   4.773   2.657
 2652TIP3    H1 7920   4.673   4.786   2.693
 2652TIP3    H2 7921   4.819   4.778   2.733
 2653TIP3   OH2 7922   3.733   2.565   3.286
 2653TIP3    H1 7923   3.679   2.637   3.256
 2653TIP3    H2 7924   3.672   2.502   3.325
 2654TIP3   OH2 7925   5.838   1.716   2.208
 2654TIP3    H1 7926   5.856   1.624   2.227
 2654TIP3    H2 7927   5.835   1.758   2.294
 2655TIP3   OH2 7928   3.103   4.060   1.051
 2655TIP3    H1 7929   3.197   4.042   1.059
 2655TIP3    H2 7930   3.100   4.146   1.007
 2656TIP3   OH2 7931   3.642   3.330   5.192
 2656TIP3    H1 7932   3.679   3.390   5.256
 2656TIP3    H2 7933   3.718   3.292   5.148
 2657TIP3   OH2 7934   4.053   0.458   1.924
 2657TIP3    H1 7935   4.076   0.380   1.874
 2657TIP3    H2 7936   4.073   0.436   2.015
 2658TIP3   OH2 7937  -0.008   6.720   4.075
 2658TIP3    H1 7938  -0.088   6.725   4.128
 2658TIP3    H2 7939   0.062   6.706   4.139
 2659TIP3   OH2 7940   1.276   5.598   4.237
 2659TIP3    H1 7941   1.264   5.693   4.240
 2659TIP3    H2 7942   1.196   5.565   4.198
 2660TIP3   OH2 7943   2.323   5.428   5.321
 2660TIP3    H1 7944   2.392   5.377   5.362
 2660TIP3    H2 7945   2.358   5.452   5.235
 2661TIP3   OH2 7946   6.403   6.203   0.364
 2661TIP3    H1 7947   6.337   6.203   0.294
 2661TIP3    H2 7948   6.486   6.207   0.317
 2662TIP3   OH2 7949   3.957   2.732   3.306
 2662TIP3    H1 7950   4.032   2.683   3.271
 2662TIP3    H2 7951   3.887   2.667   3.314
 2663TIP3   OH2 7952   2.199   2.924   2.918
 2663TIP3    H1 7953   2.157   3.005   2.947
 2663TIP3    H2 7954   2.170   2.912   2.828
 2664TIP3   OH2 7955   0.588   1.342   1.305
 2664TIP3    H1 7956   0.665   1.389   1.274
 2664TIP3    H2 7957   0.576   1.271   1.242
 2665TIP3   OH2 7958   2.022   1.284   3.190
 2665TIP3    H1 7959   2.103   1.292   3.240
 2665TIP3    H2 7960   1.975   1.213   3.234
 2666TIP3   OH2 7961   6.954   5.657   0.890
 2666TIP3    H1 7962   6.942   5.747   0.860
 2666TIP3    H2 7963   6.972   5.607   0.810
 2667TIP3   OH2 7964   3.005   4.383   1.946
 2667TIP3    H1 7965   2.932   4.343   1.993
 2667TIP3    H2 7966   3.028   4.320   1.878
 2668TIP3   OH2 7967   1.626   1.895   3.528
 2668TIP3    H1 7968   1.689   1.839   3.482
 2668TIP3    H2 7969   1.569   1.928   3.459
 2669TIP3   OH2 7970   6.677   2.865   1.649
 2669TIP3    H1 7971   6.725   2.833   1.573
 2669TIP3    H2 7972   6.611   2.924   1.613
 2670TIP3   OH2 7973   3.924   2.263   1.325
 2670TIP3    H1 7974   3.991   2.298   1.267
 2670TIP3    H2 7975   3.970   2.202   1.382
 2671TIP3   OH2 7976   7.194   2.352   0.500
 2671TIP3    H1 7977   7.191   2.285   0.567
 2671TIP3    H2 7978   7.105   2.354   0.463
 2672TIP3   OH2 7979   5.535   4.720   2.765
 2672TIP3    H1 7980   5.491   4.804   2.772
 2672TIP3    H2 7981   5.486   4.673   2.698
 2673TIP3   OH2 7982   5.007   4.921   1.852
 2673TIP3    H1 7983   4.989   4.964   1.935
 2673TIP3    H2 7984   4.965   4.835   1.859
 2674TIP3   OH2 7985   3.495   1.614   1.863
 2674TIP3    H1 7986   3.464   1.531   1.827
 2674TIP3    H2 7987   3.418   1.672   1.859
 2675TIP3   OH2 7988   3.476   4.880   2.328
 2675TIP3    H1 7989   3.403   4.823   2.354
 2675TIP3    H2 7990   3.483   4.943   2.399
 2676TIP3   OH2 7991   3.842   3.739   2.669
 2676TIP3    H1 7992   3.803   3.821   2.701
 2676TIP3    H2 7993   3.935   3.748   2.689
 2677TIP3   OH2 7994   2.849   3.871   0.324
 2677TIP3    H1 7995   2.874   3.964   0.327
 2677TIP3    H2 7996   2.768   3.867   0.376
 2678TIP3   OH2 7997   3.263   2.977   0.377
 2678TIP3    H1 7998   3.329   2.983   0.309
 2678TIP3    H2 7999   3.237   3.067   0.395
 2679TIP3   OH2 8000   3.168   4.680   1.086
 2679TIP3    H1 8001   3.087   4.674   1.034
 2679TIP3    H2 8002   3.228   4.731   1.032
 2680TIP3   OH2 8003   0.032   5.052   2.207
 2680TIP3    H1 8004  -0.002   5.027   2.293
 2680TIP3    H2 8005   0.121   5.019   2.206
 2681TIP3   OH2 8006   4.747   2.705   2.865
 2681TIP3    H1 8007   4.715   2.789   2.898
 2681TIP3    H2 8008   4.841   2.717   2.856
 2682TIP3   OH2 8009   6.518   6.298   3.028
 2682TIP3    H1 8010   6.538   6.385   3.062
 2682TIP3    H2 8011   6.492   6.248   3.105
 2683TIP3   OH2 8012   6.374   5.173   2.744
 2683TIP3    H1 8013   6.366   5.095   2.690
 2683TIP3    H2 8014   6.296   5.173   2.799
 2684TIP3   OH2 8015   0.103   4.362   0.517
 2684TIP3    H1 8016   0.179   4.374   0.460
 2684TIP3    H2 8017   0.130   4.400   0.601
 2685TIP3   OH2 8018   4.466   6.178   0.989
 2685TIP3    H1 8019   4.377   6.213   0.985
 2685TIP3    H2 8020   4.491   6.185   1.081
 2686TIP3   OH2 8021   5.920   4.236   3.550
 2686TIP3    H1 8022   5.926   4.191   3.634
 2686TIP3    H2 8023   5.946   4.171   3.485
 2687TIP3   OH2 8024   4.927   0.250   5.767
 2687TIP3    H1 8025   4.892   0.224   5.681
 2687TIP3    H2 8026   4.946   0.167   5.810
 2688TIP3   OH2 8027   1.385   0.899   0.115
 2688TIP3    H1 8028   1.320   0.829   0.109
 2688TIP3    H2 8029   1.427   0.885   0.200
 2689TIP3   OH2 8030   0.784   5.481   5.340
 2689TIP3    H1 8031   0.702   5.516   5.304
 2689TIP3    H2 8032   0.804   5.406   5.285
 2690TIP3   OH2 8033   5.068   0.518   2.976
 2690TIP3    H1 8034   5.134   0.449   2.967
 2690TIP3    H2 8035   4.988   0.471   3.000
 2691TIP3   OH2 8036   2.349   0.140   5.731
 2691TIP3    H1 8037   2.262   0.167   5.703
 2691TIP3    H2 8038   2.407   0.208   5.696
 2692TIP3   OH2 8039   3.054   4.633   1.826
 2692TIP3    H1 8040   3.000   4.641   1.748
 2692TIP3    H2 8041   3.037   4.545   1.859
 2693TIP3   OH2 8042   3.802   0.768   3.530
 2693TIP3    H1 8043   3.740   0.801   3.466
 2693TIP3    H2 8044   3.782   0.674   3.537
 2694TIP3   OH2 8045   3.069   3.602   4.510
 2694TIP3    H1 8046   3.150   3.608   4.458
 2694TIP3    H2 8047   3.090   3.648   4.592
 2695TIP3   OH2 8048   6.421   5.677   5.678
 2695TIP3    H1 8049   6.455   5.598   5.636
 2695TIP3    H2 8050   6.492   5.705   5.736
 2696TIP3   OH2 8051   4.739   1.133   0.549
 2696TIP3    H1 8052   4.725   1.107   0.458
 2696TIP3    H2 8053   4.675   1.203   0.564
 2697TIP3   OH2 8054   6.230   2.089   4.348
 2697TIP3    H1 8055   6.219   2.102   4.254
 2697TIP3    H2 8056   6.318   2.122   4.366
 2698TIP3   OH2 8057   4.841   3.905   0.977
 2698TIP3    H1 8058   4.800   3.963   1.042
 2698TIP3    H2 8059   4.793   3.822   0.986
 2699TIP3   OH2 8060   1.464   3.587   2.553
 2699TIP3    H1 8061   1.531   3.629   2.607
 2699TIP3    H2 8062   1.505   3.506   2.522
 2700TIP3   OH2 8063   3.631   1.829   3.403
 2700TIP3    H1 8064   3.602   1.792   3.487
 2700TIP3    H2 8065   3.551   1.831   3.350
 2701TIP3   OH2 8066   3.247   3.852   1.792
 2701TIP3    H1 8067   3.310   3.925   1.789
 2701TIP3    H2 8068   3.234   3.837   1.886
 2702TIP3   OH2 8069   0.512   4.268   5.914
 2702TIP3    H1 8070   0.524   4.358   5.883
 2702TIP3    H2 8071   0.520   4.214   5.836
 2703TIP3   OH2 8072   3.773   6.807   4.135
 2703TIP3    H1 8073   3.808   6.826   4.222
 2703TIP3    H2 8074   3.720   6.729   4.147
 2704TIP3   OH2 8075   3.568   3.913   0.213
 2704TIP3    H1 8076   3.608   3.861   0.283
 2704TIP3    H2 8077   3.474   3.908   0.231
 2705TIP3   OH2 8078   2.818   6.717   1.156
 2705TIP3    H1 8079   2.908   6.747   1.172
 2705TIP3    H2 8080   2.813   6.704   1.062
 2706TIP3   OH2 8081   5.160   2.643  -0.046
 2706TIP3    H1 8082   5.224   2.706  -0.014
 2706TIP3    H2 8083   5.076   2.677  -0.015
 2707TIP3   OH2 8084   4.030   5.746   5.778
 2707TIP3    H1 8085   4.096   5.681   5.753
 2707TIP3    H2 8086   4.026   5.805   5.702
 2708TIP3   OH2 8087   2.557   5.682   4.417
 2708TIP3    H1 8088   2.599   5.600   4.393
 2708TIP3    H2 8089   2.593   5.746   4.355
 2709TIP3   OH2 8090   0.348   1.182   3.672
 2709TIP3    H1 8091   0.395   1.128   3.736
 2709TIP3    H2 8092   0.315   1.119   3.607
 2710TIP3   OH2 8093   5.893   1.123   3.572
 2710TIP3    H1 8094   5.917   1.033   3.592
 2710TIP3    H2 8095   5.814   1.117   3.518
 2711TIP3   OH2 8096   6.653   3.673   4.943
 2711TIP3    H1 8097   6.648   3.753   4.995
 2711TIP3    H2 8098   6.710   3.615   4.993
 2712TIP3   OH2 8099   1.751   6.369   3.538
 2712TIP3    H1 8100   1.674   6.409   3.578
 2712TIP3    H2 8101   1.803   6.443   3.506
 2713TIP3   OH2 8102   6.352   3.060   0.305
 2713TIP3    H1 8103   6.279   3.109   0.342
 2713TIP3    H2 8104   6.314   3.013   0.230
 2714TIP3   OH2 8105   0.256   0.692   3.029
 2714TIP3    H1 8106   0.179   0.747   3.047
 2714TIP3    H2 8107   0.330   0.753   3.034
 2715TIP3   OH2 8108   5.619   0.911   4.159
 2715TIP3    H1 8109   5.684   0.934   4.226
 2715TIP3    H2 8110   5.670   0.868   4.090
 2716TIP3   OH2 8111   2.088   6.471   0.621
 2716TIP3    H1 8112   2.070   6.467   0.527
 2716TIP3    H2 8113   2.008   6.440   0.662
 2717TIP3   OH2 8114   1.178   4.914   5.105
 2717TIP3    H1 8115   1.107   4.972   5.131
 2717TIP3    H2 8116   1.258   4.961   5.127
 2718TIP3   OH2 8117   1.210   5.952   2.232
 2718TIP3    H1 8118   1.194   6.046   2.245
 2718TIP3    H2 8119   1.298   5.948   2.194
 2719TIP3   OH2 8120   4.594   5.842   0.373
 2719TIP3    H1 8121   4.587   5.822   0.466
 2719TIP3    H2 8122   4.680   5.807   0.348
 2720TIP3   OH2 8123   5.019   2.743   2.904
 2720TIP3    H1 8124   5.018   2.654   2.868
 2720TIP3    H2 8125   5.101   2.747   2.953
 2721TIP3   OH2 8126   0.163   0.635   3.701
 2721TIP3    H1 8127   0.213   0.713   3.727
 2721TIP3    H2 8128   0.072   0.664   3.703
 2722TIP3   OH2 8129   2.862   5.146   4.984
 2722TIP3    H1 8130   2.914   5.226   4.980
 2722TIP3    H2 8131   2.868   5.108   4.896
 2723TIP3   OH2 8132   4.973   3.974   0.303
 2723TIP3    H1 8133   5.013   4.030   0.369
 2723TIP3    H2 8134   4.879   3.978   0.321
 2724TIP3   OH2 8135   2.828   2.319   1.165
 2724TIP3    H1 8136   2.815   2.398   1.219
 2724TIP3    H2 8137   2.772   2.253   1.206
 2725TIP3   OH2 8138   4.645   5.550   5.693
 2725TIP3    H1 8139   4.618   5.625   5.641
 2725TIP3    H2 8140   4.702   5.587   5.761
 2726TIP3   OH2 8141   1.574   1.021   4.934
 2726TIP3    H1 8142   1.548   1.062   5.016
 2726TIP3    H2 8143   1.670   1.029   4.933
 2727TIP3   OH2 8144   0.100   6.097   2.431
 2727TIP3    H1 8145   0.044   6.057   2.364
 2727TIP3    H2 8146   0.056   6.179   2.452
 2728TIP3   OH2 8147   6.309   5.840   0.221
 2728TIP3    H1 8148   6.343   5.753   0.201
 2728TIP3    H2 8149   6.323   5.850   0.315
 2729TIP3   OH2 8150   0.750   6.044   4.179
 2729TIP3    H1 8151   0.697   5.964   4.172
 2729TIP3    H2 8152   0.721   6.085   4.260
 2730TIP3   OH2 8153   4.575   0.950   1.706
 2730TIP3    H1 8154   4.587   0.882   1.639
 2730TIP3    H2 8155   4.656   0.948   1.757
 2731TIP3   OH2 8156   5.901   6.580   1.083
 2731TIP3    H1 8157   5.946   6.529   1.150
 2731TIP3    H2 8158   5.875   6.516   1.018
 2732TIP3   OH2 8159   5.514   4.185   3.566
 2732TIP3    H1 8160   5.609   4.195   3.569
 2732TIP3    H2 8161   5.491   4.152   3.653
 2733TIP3   OH2 8162   5.725   1.730   4.785
 2733TIP3    H1 8163   5.668   1.775   4.723
 2733TIP3    H2 8164   5.690   1.641   4.788
 2734TIP3   OH2 8165   5.073   0.671   3.436
 2734TIP3    H1 8166   5.113   0.704   3.516
 2734TIP3    H2 8167   4.979   0.679   3.451
 2735TIP3   OH2 8168   2.601   0.186   2.558
 2735TIP3    H1 8169   2.551   0.242   2.499
 2735TIP3    H2 8170   2.677   0.159   2.506
 2736TIP3   OH2 8171   2.575   3.350   0.340
 2736TIP3    H1 8172   2.646   3.397   0.384
 2736TIP3    H2 8173   2.594   3.258   0.356
 2737TIP3   OH2 8174   5.822   6.072   1.498
 2737TIP3    H1 8175   5.820   6.138   1.567
 2737TIP3    H2 8176   5.910   6.080   1.460
 2738TIP3   OH2 8177   2.393   3.978   4.153
 2738TIP3    H1 8178   2.421   3.897   4.196
 2738TIP3    H2 8179   2.351   3.949   4.072
 2739TIP3   OH2 8180   5.444   2.583   1.496
 2739TIP3    H1 8181   5.475   2.496   1.470
 2739TIP3    H2 8182   5.388   2.567   1.572
 2740TIP3   OH2 8183   2.199   4.914   3.459
 2740TIP3    H1 8184   2.128   4.977   3.449
 2740TIP3    H2 8185   2.206   4.900   3.554
 2741TIP3   OH2 8186   3.191   2.345   1.235
 2741TIP3    H1 8187   3.148   2.259   1.240
 2741TIP3    H2 8188   3.280   2.325   1.207
 2742TIP3   OH2 8189   3.539   3.722   3.372
 2742TIP3    H1 8190   3.544   3.776   3.293
 2742TIP3    H2 8191   3.451   3.738   3.406
 2743TIP3   OH2 8192   6.142   3.789   0.540
 2743TIP3    H1 8193   6.079   3.789   0.612
 2743TIP3    H2 8194   6.217   3.740   0.574
 2744TIP3   OH2 8195   2.130   1.789   4.248
 2744TIP3    H1 8196   2.168   1.736   4.179
 2744TIP3    H2 8197   2.143   1.880   4.219
 2745TIP3   OH2 8198   6.804   6.419   0.408
 2745TIP3    H1 8199   6.857   6.488   0.448
 2745TIP3    H2 8200   6.746   6.466   0.348
 2746TIP3   OH2 8201   0.519   5.178   0.430
 2746TIP3    H1 8202   0.574   5.117   0.382
 2746TIP3    H2 8203   0.470   5.225   0.363
 2747TIP3   OH2 8204   2.045   5.385   4.947
 2747TIP3    H1 8205   2.036   5.475   4.977
 2747TIP3    H2 8206   2.139   5.372   4.936
 2748TIP3   OH2 8207   0.621   2.517   0.250
 2748TIP3    H1 8208   0.536   2.541   0.285
 2748TIP3    H2 8209   0.662   2.600   0.227
 2749TIP3   OH2 8210   4.794   2.503   4.261
 2749TIP3    H1 8211   4.832   2.471   4.179
 2749TIP3    H2 8212   4.862   2.489   4.326
 2750TIP3   OH2 8213   1.047   5.643   3.803
 2750TIP3    H1 8214   1.002   5.712   3.755
 2750TIP3    H2 8215   1.030   5.563   3.754
 2751TIP3   OH2 8216   1.492   6.133   1.173
 2751TIP3    H1 8217   1.415   6.078   1.192
 2751TIP3    H2 8218   1.455   6.213   1.135
 2752TIP3   OH2 8219   6.780   5.985   2.258
 2752TIP3    H1 8220   6.692   5.973   2.224
 2752TIP3    H2 8221   6.831   5.914   2.218
 2753TIP3   OH2 8222   4.909   5.137   1.677
 2753TIP3    H1 8223   4.867   5.130   1.592
 2753TIP3    H2 8224   4.926   5.046   1.703
 2754TIP3   OH2 8225   1.269   4.865   4.126
 2754TIP3    H1 8226   1.352   4.818   4.128
 2754TIP3    H2 8227   1.207   4.806   4.169
 2755TIP3   OH2 8228   3.255   6.596   0.440
 2755TIP3    H1 8229   3.257   6.588   0.345
 2755TIP3    H2 8230   3.304   6.520   0.472
 2756TIP3   OH2 8231   5.522   6.715   0.852
 2756TIP3    H1 8232   5.536   6.661   0.775
 2756TIP3    H2 8233   5.589   6.784   0.845
 2757TIP3   OH2 8234   4.297   5.620   2.127
 2757TIP3    H1 8235   4.260   5.532   2.121
 2757TIP3    H2 8236   4.228   5.677   2.094
 2758TIP3   OH2 8237   7.106   3.308   3.621
 2758TIP3    H1 8238   7.023   3.335   3.583
 2758TIP3    H2 8239   7.100   3.212   3.626
 2759TIP3   OH2 8240   2.385   0.571   3.273
 2759TIP3    H1 8241   2.436   0.640   3.315
 2759TIP3    H2 8242   2.398   0.585   3.179
 2760TIP3   OH2 8243   3.316   2.776   2.556
 2760TIP3    H1 8244   3.364   2.848   2.514
 2760TIP3    H2 8245   3.300   2.807   2.645
 2761TIP3   OH2 8246   0.580   1.322   5.390
 2761TIP3    H1 8247   0.646   1.379   5.430
 2761TIP3    H2 8248   0.530   1.381   5.333
 2762TIP3   OH2 8249   4.768   5.210   0.752
 2762TIP3    H1 8250   4.843   5.172   0.797
 2762TIP3    H2 8251   4.705   5.139   0.745
 2763TIP3   OH2 8252   0.486   3.602   1.998
 2763TIP3    H1 8253   0.532   3.630   1.919
 2763TIP3    H2 8254   0.489   3.678   2.055
 2764TIP3   OH2 8255   5.148   5.153   5.487
 2764TIP3    H1 8256   5.142   5.133   5.394
 2764TIP3    H2 8257   5.058   5.161   5.516
 2765TIP3   OH2 8258   2.579   0.115   0.385
 2765TIP3    H1 8259   2.672   0.094   0.376
 2765TIP3    H2 8260   2.573   0.206   0.357
 2766TIP3   OH2 8261   5.638   0.252   4.798
 2766TIP3    H1 8262   5.678   0.199   4.729
 2766TIP3    H2 8263   5.671   0.213   4.880
 2767TIP3   OH2 8264   3.472   5.667   1.109
 2767TIP3    H1 8265   3.495   5.693   1.198
 2767TIP3    H2 8266   3.557   5.653   1.066
 2768TIP3   OH2 8267   3.315   4.365   1.055
 2768TIP3    H1 8268   3.278   4.400   1.136
 2768TIP3    H2 8269   3.240   4.329   1.008
 2769TIP3   OH2 8270   2.184   3.927   0.090
 2769TIP3    H1 8271   2.176   3.832   0.100
 2769TIP3    H2 8272   2.100   3.954   0.053
 2770TIP3   OH2 8273   5.350   2.111   5.877
 2770TIP3    H1 8274   5.297   2.075   5.948
 2770TIP3    H2 8275   5.288   2.160   5.823
 2771TIP3   OH2 8276   7.048   6.647   2.717
 2771TIP3    H1 8277   7.041   6.553   2.732
 2771TIP3    H2 8278   7.104   6.655   2.640
 2772TIP3   OH2 8279   6.558   3.916   1.772
 2772TIP3    H1 8280   6.652   3.896   1.766
 2772TIP3    H2 8281   6.554   4.010   1.786
 2773TIP3   OH2 8282   3.964   5.058   0.767
 2773TIP3    H1 8283   3.932   5.074   0.855
 2773TIP3    H2 8284   3.989   4.965   0.767
 2774TIP3   OH2 8285   4.351   3.356   3.287
 2774TIP3    H1 8286   4.424   3.298   3.310
 2774TIP3    H2 8287   4.332   3.336   3.195
 2775TIP3   OH2 8288   3.130   5.072   0.228
 2775TIP3    H1 8289   3.187   5.028   0.165
 2775TIP3    H2 8290   3.190   5.127   0.280
 2776TIP3   OH2 8291   1.467   6.379   0.134
 2776TIP3    H1 8292   1.435   6.467   0.111
 2776TIP3    H2 8293   1.396   6.321   0.108
 2777TIP3   OH2 8294   3.369   5.310   1.528
 2777TIP3    H1 8295   3.278   5.340   1.525
 2777TIP3    H2 8296   3.389   5.304   1.621
 2778TIP3   OH2 8297   2.097   6.009   0.444
 2778TIP3    H1 8298   2.017   6.026   0.493
 2778TIP3    H2 8299   2.130   5.926   0.479
 2779TIP3   OH2 8300   3.737   1.034   5.261
 2779TIP3    H1 8301   3.690   1.101   5.310
 2779TIP3    H2 8302   3.679   1.012   5.188
 2780TIP3   OH2 8303   6.573   5.633   3.490
 2780TIP3    H1 8304   6.587   5.563   3.426
 2780TIP3    H2 8305   6.499   5.602   3.543
 2781TIP3   OH2 8306   3.106   4.661   0.122
 2781TIP3    H1 8307   3.018   4.690   0.148
 2781TIP3    H2 8308   3.159   4.741   0.126
 2782TIP3   OH2 8309   0.625   1.703   3.095
 2782TIP3    H1 8310   0.703   1.706   3.040
 2782TIP3    H2 8311   0.657   1.673   3.180
 2783TIP3   OH2 8312   6.208   2.980   1.043
 2783TIP3    H1 8313   6.116   2.956   1.053
 2783TIP3    H2 8314   6.246   2.907   0.993
 2784TIP3   OH2 8315   6.363   6.306   4.090
 2784TIP3    H1 8316   6.388   6.214   4.082
 2784TIP3    H2 8317   6.401   6.348   4.013
 2785TIP3   OH2 8318   3.478   5.350   5.837
 2785TIP3    H1 8319   3.547   5.386   5.780
 2785TIP3    H2 8320   3.403   5.408   5.822
 2786TIP3   OH2 8321   1.834   2.572   5.425
 2786TIP3    H1 8322   1.742   2.595   5.420
 2786TIP3    H2 8323   1.880   2.645   5.384
 2787TIP3   OH2 8324   6.428   6.030   4.050
 2787TIP3    H1 8325   6.433   5.944   4.093
 2787TIP3    H2 8326   6.504   6.033   3.992
 2788TIP3   OH2 8327   1.891   6.333   0.749
 2788TIP3    H1 8328   1.807   6.308   0.787
 2788TIP3    H2 8329   1.955   6.313   0.818
 2789TIP3   OH2 8330   1.067   2.159   4.601
 2789TIP3    H1 8331   0.990   2.198   4.559
 2789TIP3    H2 8332   1.032   2.115   4.678
 2790TIP3   OH2 8333   6.505   1.687   3.216
 2790TIP3    H1 8334   6.584   1.736   3.239
 2790TIP3    H2 8335   6.436   1.726   3.270
 2791TIP3   OH2 8336   2.403   1.087   1.309
 2791TIP3    H1 8337   2.329   1.123   1.359
 2791TIP3    H2 8338   2.367   1.009   1.267
 2792TIP3   OH2 8339   0.522   3.735   5.059
 2792TIP3    H1 8340   0.430   3.728   5.085
 2792TIP3    H2 8341   0.559   3.650   5.082
 2793TIP3   OH2 8342   6.647   0.615   3.012
 2793TIP3    H1 8343   6.674   0.682   3.074
 2793TIP3    H2 8344   6.552   0.626   3.004
 2794TIP3   OH2 8345   2.974   3.492   2.179
 2794TIP3    H1 8346   2.989   3.583   2.153
 2794TIP3    H2 8347   3.025   3.481   2.259
 2795TIP3   OH2 8348   0.566   6.202   4.670
 2795TIP3    H1 8349   0.630   6.272   4.658
 2795TIP3    H2 8350   0.487   6.247   4.698
 2796TIP3   OH2 8351   4.321   4.282   2.588
 2796TIP3    H1 8352   4.234   4.258   2.558
 2796TIP3    H2 8353   4.307   4.321   2.675
 2797TIP3   OH2 8354   4.898   4.029   3.466
 2797TIP3    H1 8355   4.983   4.025   3.422
 2797TIP3    H2 8356   4.882   4.122   3.481
 2798TIP3   OH2 8357   0.635   4.505   5.797
 2798TIP3    H1 8358   0.709   4.469   5.748
 2798TIP3    H2 8359   0.572   4.532   5.730
 2799TIP3   OH2 8360   2.942   1.060   4.967
 2799TIP3    H1 8361   2.894   1.141   4.980
 2799TIP3    H2 8362   3.033   1.088   4.957
 2800TIP3   OH2 8363   5.263   1.785   3.915
 2800TIP3    H1 8364   5.234   1.862   3.962
 2800TIP3    H2 8365   5.307   1.731   3.981
 2801TIP3   OH2 8366   4.123   4.367   5.864
 2801TIP3    H1 8367   4.162   4.395   5.781
 2801TIP3    H2 8368   4.045   4.319   5.838
 2802TIP3   OH2 8369   6.942   1.926   0.406
 2802TIP3    H1 8370   7.003   1.853   0.393
 2802TIP3    H2 8371   6.973   1.994   0.346
 2803TIP3   OH2 8372   3.089   1.514   1.560
 2803TIP3    H1 8373   3.009   1.541   1.604
 2803TIP3    H2 8374   3.082   1.551   1.472
 2804TIP3   OH2 8375   4.398   6.269   4.582
 2804TIP3    H1 8376   4.335   6.285   4.512
 2804TIP3    H2 8377   4.411   6.354   4.622
 2805TIP3   OH2 8378   3.819   3.725   3.802
 2805TIP3    H1 8379   3.861   3.746   3.719
 2805TIP3    H2 8380   3.761   3.652   3.782
 2806TIP3   OH2 8381   3.464   5.693   3.030
 2806TIP3    H1 8382   3.383   5.738   3.055
 2806TIP3    H2 8383   3.452   5.603   3.059
 2807TIP3   OH2 8384   3.456   2.314   5.117
 2807TIP3    H1 8385   3.453   2.346   5.207
 2807TIP3    H2 8386   3.474   2.220   5.125
 2808TIP3   OH2 8387   4.220   5.624   5.619
 2808TIP3    H1 8388   4.256   5.666   5.541
 2808TIP3    H2 8389   4.282   5.553   5.638
 2809TIP3   OH2 8390   6.453   6.337   2.158
 2809TIP3    H1 8391   6.507   6.322   2.080
 2809TIP3    H2 8392   6.416   6.252   2.179
 2810TIP3   OH2 8393   5.182   3.489   5.481
 2810TIP3    H1 8394   5.096   3.449   5.471
 2810TIP3    H2 8395   5.207   3.514   5.392
 2811TIP3   OH2 8396   2.026   4.063   4.904
 2811TIP3    H1 8397   2.096   4.125   4.885
 2811TIP3    H2 8398   1.960   4.115   4.950
 2812TIP3   OH2 8399   5.233   2.792   4.629
 2812TIP3    H1 8400   5.212   2.792   4.723
 2812TIP3    H2 8401   5.279   2.709   4.615
 2813TIP3   OH2 8402   2.488   1.010   2.026
 2813TIP3    H1 8403   2.552   0.972   2.086
 2813TIP3    H2 8404   2.439   0.935   1.992
 2814TIP3   OH2 8405   0.865   1.635   3.538
 2814TIP3    H1 8406   0.798   1.669   3.598
 2814TIP3    H2 8407   0.936   1.699   3.542
 2815TIP3   OH2 8408   1.532   4.169   2.276
 2815TIP3    H1 8409   1.501   4.249   2.319
 2815TIP3    H2 8410   1.510   4.181   2.184
 2816TIP3   OH2 8411   3.185   6.728   2.986
 2816TIP3    H1 8412   3.236   6.654   3.019
 2816TIP3    H2 8413   3.186   6.717   2.891
 2817TIP3   OH2 8414   3.339   0.903   1.009
 2817TIP3    H1 8415   3.315   0.819   0.969
 2817TIP3    H2 8416   3.320   0.891   1.103
 2818TIP3   OH2 8417   0.857   6.009   2.626
 2818TIP3    H1 8418   0.856   5.955   2.547
 2818TIP3    H2 8419   0.859   5.945   2.698
 2819TIP3   OH2 8420   6.404   3.400   4.597
 2819TIP3    H1 8421   6.348   3.441   4.531
 2819TIP3    H2 8422   6.415   3.468   4.664
 2820TIP3   OH2 8423   1.338   2.012   0.135
 2820TIP3    H1 8424   1.403   1.941   0.137
 2820TIP3    H2 8425   1.388   2.090   0.156
 2821TIP3   OH2 8426   3.964   4.323   1.473
 2821TIP3    H1 8427   3.937   4.378   1.399
 2821TIP3    H2 8428   3.980   4.385   1.544
 2822TIP3   OH2 8429   2.302   0.161   0.334
 2822TIP3    H1 8430   2.388   0.118   0.339
 2822TIP3    H2 8431   2.302   0.204   0.249
 2823TIP3   OH2 8432   5.241   3.480   4.837
 2823TIP3    H1 8433   5.163   3.427   4.818
 2823TIP3    H2 8434   5.281   3.436   4.912
 2824TIP3   OH2 8435   0.174   4.439   5.295
 2824TIP3    H1 8436   0.114   4.368   5.273
 2824TIP3    H2 8437   0.241   4.398   5.349
 2825TIP3   OH2 8438   0.797   0.187   2.869
 2825TIP3    H1 8439   0.754   0.247   2.807
 2825TIP3    H2 8440   0.725   0.155   2.924
 2826TIP3   OH2 8441   4.226   1.764   5.602
 2826TIP3    H1 8442   4.302   1.747   5.547
 2826TIP3    H2 8443   4.256   1.742   5.691
 2827TIP3   OH2 8444   3.843   1.936   0.561
 2827TIP3    H1 8445   3.799   1.855   0.587
 2827TIP3    H2 8446   3.923   1.907   0.517
 2828TIP3   OH2 8447   2.387   2.428   1.881
 2828TIP3    H1 8448   2.436   2.379   1.946
 2828TIP3    H2 8449   2.333   2.489   1.931
 2829TIP3   OH2 8450   6.042   2.552   1.853
 2829TIP3    H1 8451   6.010   2.464   1.869
 2829TIP3    H2 8452   5.972   2.609   1.884
 2830TIP3   OH2 8453   3.976   1.147   5.155
 2830TIP3    H1 8454   4.028   1.081   5.201
 2830TIP3    H2 8455   3.889   1.106   5.145
 2831TIP3   OH2 8456   3.857   1.206   3.891
 2831TIP3    H1 8457   3.791   1.152   3.849
 2831TIP3    H2 8458   3.927   1.215   3.826
 2832TIP3   OH2 8459   7.045   3.605   4.378
 2832TIP3    H1 8460   7.035   3.695   4.408
 2832TIP3    H2 8461   7.095   3.613   4.297
 2833TIP3   OH2 8462   5.701   5.828   1.556
 2833TIP3    H1 8463   5.747   5.911   1.570
 2833TIP3    H2 8464   5.705   5.814   1.462
 2834TIP3   OH2 8465   0.301   3.062   2.191
 2834TIP3    H1 8466   0.279   3.017   2.273
 2834TIP3    H2 8467   0.393   3.086   2.202
 2835TIP3   OH2 8468   1.908   1.295   2.331
 2835TIP3    H1 8469   1.935   1.246   2.253
 2835TIP3    H2 8470   1.953   1.379   2.324
 2836TIP3   OH2 8471   6.630   0.214   0.879
 2836TIP3    H1 8472   6.560   0.167   0.925
 2836TIP3    H2 8473   6.678   0.259   0.948
 2837TIP3   OH2 8474   5.747   3.551   3.277
 2837TIP3    H1 8475   5.716   3.486   3.340
 2837TIP3    H2 8476   5.841   3.559   3.294
 2838TIP3   OH2 8477   1.796   4.166   4.629
 2838TIP3    H1 8478   1.775   4.202   4.543
 2838TIP3    H2 8479   1.875   4.212   4.657
 2839TIP3   OH2 8480   1.226   0.233   1.466
 2839TIP3    H1 8481   1.131   0.236   1.454
 2839TIP3    H2 8482   1.245   0.306   1.525
 2840TIP3   OH2 8483   2.283   1.263   1.841
 2840TIP3    H1 8484   2.326   1.208   1.776
 2840TIP3    H2 8485   2.189   1.254   1.821
 2841TIP3   OH2 8486   3.349   1.748   3.308
 2841TIP3    H1 8487   3.275   1.770   3.252
 2841TIP3    H2 8488   3.310   1.705   3.384
 2842TIP3   OH2 8489   4.115   3.364   3.511
 2842TIP3    H1 8490   4.143   3.442   3.463
 2842TIP3    H2 8491   4.019   3.365   3.505
 2843TIP3   OH2 8492   3.555   5.999   4.299
 2843TIP3    H1 8493   3.503   6.074   4.329
 2843TIP3    H2 8494   3.645   6.020   4.325
 2844TIP3   OH2 8495   1.604   6.258   5.710
 2844TIP3    H1 8496   1.581   6.180   5.660
 2844TIP3    H2 8497   1.575   6.331   5.655
 2845TIP3   OH2 8498   5.601   0.378   2.530
 2845TIP3    H1 8499   5.611   0.346   2.619
 2845TIP3    H2 8500   5.584   0.299   2.478
 2846TIP3   OH2 8501   5.457   3.249   5.266
 2846TIP3    H1 8502   5.369   3.260   5.230
 2846TIP3    H2 8503   5.449   3.274   5.358
 2847TIP3   OH2 8504   5.575   6.586   1.099
 2847TIP3    H1 8505   5.626   6.665   1.116
 2847TIP3    H2 8506   5.561   6.587   1.004
 2848TIP3   OH2 8507   6.468   5.033   0.721
 2848TIP3    H1 8508   6.420   4.987   0.789
 2848TIP3    H2 8509   6.524   4.965   0.682
 2849TIP3   OH2 8510   0.553   3.572   3.255
 2849TIP3    H1 8511   0.638   3.597   3.290
 2849TIP3    H2 8512   0.550   3.477   3.263
 2850TIP3   OH2 8513   0.730   3.359   3.672
 2850TIP3    H1 8514   0.766   3.396   3.591
 2850TIP3    H2 8515   0.775   3.275   3.682
 2851TIP3   OH2 8516   1.908   5.182   1.655
 2851TIP3    H1 8517   1.975   5.161   1.590
 2851TIP3    H2 8518   1.845   5.237   1.608
 2852TIP3   OH2 8519   3.254   4.012   0.153
 2852TIP3    H1 8520   3.178   4.039   0.100
 2852TIP3    H2 8521   3.249   3.917   0.155
 2853TIP3   OH2 8522   1.699   0.473   1.115
 2853TIP3    H1 8523   1.641   0.423   1.173
 2853TIP3    H2 8524   1.723   0.412   1.046
 2854TIP3   OH2 8525   5.730   1.038   5.441
 2854TIP3    H1 8526   5.814   1.075   5.415
 2854TIP3    H2 8527   5.752   0.978   5.513
 2855TIP3   OH2 8528   4.478   4.958   3.981
 2855TIP3    H1 8529   4.444   4.925   4.064
 2855TIP3    H2 8530   4.535   5.030   4.005
 2856TIP3   OH2 8531   5.002   5.053   2.104
 2856TIP3    H1 8532   5.037   5.138   2.078
 2856TIP3    H2 8533   4.973   5.066   2.194
 2857TIP3   OH2 8534   3.257   0.586   2.260
 2857TIP3    H1 8535   3.262   0.492   2.276
 2857TIP3    H2 8536   3.318   0.601   2.187
 2858TIP3   OH2 8537   1.570   3.157   3.854
 2858TIP3    H1 8538   1.630   3.210   3.803
 2858TIP3    H2 8539   1.611   3.071   3.860
 2859TIP3   OH2 8540   3.314   1.101   5.639
 2859TIP3    H1 8541   3.254   1.034   5.606
 2859TIP3    H2 8542   3.290   1.181   5.591
 2860TIP3   OH2 8543   2.421   6.435   0.729
 2860TIP3    H1 8544   2.352   6.369   0.721
 2860TIP3    H2 8545   2.477   6.402   0.799
 2861TIP3   OH2 8546   3.156   5.668   3.044
 2861TIP3    H1 8547   3.078   5.635   3.088
 2861TIP3    H2 8548   3.197   5.590   3.005
 2862TIP3   OH2 8549   2.439   1.654   3.750
 2862TIP3    H1 8550   2.478   1.678   3.666
 2862TIP3    H2 8551   2.380   1.727   3.770
 2863TIP3   OH2 8552   3.151   0.771   3.311
 2863TIP3    H1 8553   3.179   0.767   3.403
 2863TIP3    H2 8554   3.227   0.806   3.265
 2864TIP3   OH2 8555   6.705   2.065   4.613
 2864TIP3    H1 8556   6.732   2.023   4.695
 2864TIP3    H2 8557   6.787   2.079   4.566
 2865TIP3   OH2 8558   5.389   6.831   3.993
 2865TIP3    H1 8559   5.430   6.827   4.079
 2865TIP3    H2 8560   5.440   6.896   3.945
 2866TIP3   OH2 8561   4.814   3.536   4.083
 2866TIP3    H1 8562   4.801   3.443   4.100
 2866TIP3    H2 8563   4.779   3.550   3.995
 2867TIP3   OH2 8564   1.797   5.159   2.537
 2867TIP3    H1 8565   1.878   5.117   2.565
 2867TIP3    H2 8566   1.775   5.115   2.454
 2868TIP3   OH2 8567   1.671   1.057   3.494
 2868TIP3    H1 8568   1.605   1.125   3.508
 2868TIP3    H2 8569   1.671   1.042   3.400
 2869TIP3   OH2 8570   2.733   6.029   2.377
 2869TIP3    H1 8571   2.805   6.053   2.436
 2869TIP3    H2 8572   2.657   6.022   2.435
 2870TIP3   OH2 8573   4.477   6.019   4.670
 2870TIP3    H1 8574   4.406   5.961   4.640
 2870TIP3    H2 8575   4.451   6.106   4.641
 2871TIP3   OH2 8576   0.146   4.547   2.974
 2871TIP3    H1 8577   0.093   4.481   3.019
 2871TIP3    H2 8578   0.201   4.584   3.043
 2872TIP3   OH2 8579   2.059   1.803   0.426
 2872TIP3    H1 8580   2.131   1.850   0.467
 2872TIP3    H2 8581   2.101   1.735   0.373
 2873TIP3   OH2 8582   6.916   0.173   4.602
 2873TIP3    H1 8583   6.990   0.125   4.564
 2873TIP3    H2 8584   6.842   0.113   4.593
 2874TIP3   OH2 8585   2.375   4.071   2.851
 2874TIP3    H1 8586   2.329   4.089   2.769
 2874TIP3    H2 8587   2.448   4.014   2.825
 2875TIP3   OH2 8588   4.499   6.695   1.170
 2875TIP3    H1 8589   4.404   6.679   1.170
 2875TIP3    H2 8590   4.518   6.728   1.082
 2876TIP3   OH2 8591   0.631   2.263   3.361
 2876TIP3    H1 8592   0.712   2.305   3.389
 2876TIP3    H2 8593   0.579   2.334   3.323
 2877TIP3   OH2 8594   5.250   6.403   1.121
 2877TIP3    H1 8595   5.254   6.414   1.026
 2877TIP3    H2 8596   5.236   6.492   1.154
 2878TIP3   OH2 8597   2.229   4.027   2.311
 2878TIP3    H1 8598   2.185   4.108   2.286
 2878TIP3    H2 8599   2.159   3.967   2.337
 2879TIP3   OH2 8600   4.624   2.671   0.756
 2879TIP3    H1 8601   4.617   2.578   0.734
 2879TIP3    H2 8602   4.598   2.717   0.677
 2880TIP3   OH2 8603   0.925   0.920   0.746
 2880TIP3    H1 8604   0.976   0.999   0.728
 2880TIP3    H2 8605   0.905   0.884   0.660
 2881TIP3   OH2 8606   1.833   5.299   5.392
 2881TIP3    H1 8607   1.822   5.328   5.302
 2881TIP3    H2 8608   1.897   5.360   5.430
 2882TIP3   OH2 8609   6.347   4.523   3.916
 2882TIP3    H1 8610   6.376   4.433   3.936
 2882TIP3    H2 8611   6.366   4.572   3.996
 2883TIP3   OH2 8612   0.786   5.054   4.918
 2883TIP3    H1 8613   0.710   5.079   4.971
 2883TIP3    H2 8614   0.837   4.996   4.975
 2884TIP3   OH2 8615   3.723   5.055   1.284
 2884TIP3    H1 8616   3.684   5.128   1.333
 2884TIP3    H2 8617   3.651   5.021   1.231
 2885TIP3   OH2 8618   1.011   3.431   1.997
 2885TIP3    H1 8619   0.991   3.489   1.924
 2885TIP3    H2 8620   1.055   3.486   2.061
 2886TIP3   OH2 8621   5.083   6.655   3.010
 2886TIP3    H1 8622   5.128   6.593   3.068
 2886TIP3    H2 8623   5.116   6.634   2.922
 2887TIP3   OH2 8624   4.904   5.342   4.480
 2887TIP3    H1 8625   4.884   5.405   4.412
 2887TIP3    H2 8626   4.998   5.324   4.469
 2888TIP3   OH2 8627   0.691   6.135   5.503
 2888TIP3    H1 8628   0.647   6.191   5.439
 2888TIP3    H2 8629   0.781   6.129   5.471
 2889TIP3   OH2 8630   1.873   0.622   3.675
 2889TIP3    H1 8631   1.833   0.708   3.688
 2889TIP3    H2 8632   1.924   0.607   3.755
 2890TIP3   OH2 8633   6.536   4.240   0.803
 2890TIP3    H1 8634   6.626   4.221   0.829
 2890TIP3    H2 8635   6.484   4.220   0.881
 2891TIP3   OH2 8636   5.792   4.503   5.039
 2891TIP3    H1 8637   5.769   4.447   4.965
 2891TIP3    H2 8638   5.802   4.590   5.000
 2892TIP3   OH2 8639   2.614   0.849   2.609
 2892TIP3    H1 8640   2.618   0.756   2.632
 2892TIP3    H2 8641   2.659   0.893   2.680
 2893TIP3   OH2 8642   2.686   0.368   1.911
 2893TIP3    H1 8643   2.616   0.319   1.868
 2893TIP3    H2 8644   2.755   0.376   1.845
 2894TIP3   OH2 8645   6.951   4.712   0.479
 2894TIP3    H1 8646   6.925   4.802   0.499
 2894TIP3    H2 8647   6.877   4.675   0.431
 2895TIP3   OH2 8648   5.766   1.901   2.399
 2895TIP3    H1 8649   5.756   1.884   2.493
 2895TIP3    H2 8650   5.824   1.978   2.395
 2896TIP3   OH2 8651   6.725   4.537   5.906
 2896TIP3    H1 8652   6.791   4.469   5.917
 2896TIP3    H2 8653   6.774   4.619   5.914
 2897TIP3   OH2 8654   5.211   4.274   2.141
 2897TIP3    H1 8655   5.294   4.319   2.155
 2897TIP3    H2 8656   5.155   4.302   2.213
 2898TIP3   OH2 8657   5.836   2.114   2.113
 2898TIP3    H1 8658   5.873   2.081   2.195
 2898TIP3    H2 8659   5.752   2.153   2.139
 2899TIP3   OH2 8660   1.927   1.657   5.485
 2899TIP3    H1 8661   1.983   1.583   5.508
 2899TIP3    H2 8662   1.841   1.619   5.470
 2900TIP3   OH2 8663   3.268   5.074   3.421
 2900TIP3    H1 8664   3.179   5.108   3.413
 2900TIP3    H2 8665   3.319   5.122   3.355
 2901TIP3   OH2 8666   2.234   5.950   5.509
 2901TIP3    H1 8667   2.292   5.921   5.580
 2901TIP3    H2 8668   2.196   6.031   5.542
 2902TIP3   OH2 8669   1.009   2.330   3.645
 2902TIP3    H1 8670   0.953   2.275   3.699
 2902TIP3    H2 8671   1.097   2.319   3.682
 2903TIP3   OH2 8672   6.290   5.667   3.209
 2903TIP3    H1 8673   6.320   5.619   3.132
 2903TIP3    H2 8674   6.196   5.647   3.214
 2904TIP3   OH2 8675   2.558   3.221   2.668
 2904TIP3    H1 8676   2.522   3.173   2.594
 2904TIP3    H2 8677   2.619   3.284   2.629
 2905TIP3   OH2 8678   6.484   0.636   5.921
 2905TIP3    H1 8679   6.463   0.720   5.879
 2905TIP3    H2 8680   6.433   0.572   5.871
 2906TIP3   OH2 8681   4.698   0.722   0.641
 2906TIP3    H1 8682   4.672   0.630   0.647
 2906TIP3    H2 8683   4.770   0.723   0.578
 2907TIP3   OH2 8684   4.115   4.113   2.458
 2907TIP3    H1 8685   4.041   4.125   2.516
 2907TIP3    H2 8686   4.143   4.022   2.473
 2908TIP3   OH2 8687   3.661   4.993   1.786
 2908TIP3    H1 8688   3.571   4.959   1.786
 2908TIP3    H2 8689   3.703   4.950   1.712
 2909TIP3   OH2 8690   0.582   2.843   4.370
 2909TIP3    H1 8691   0.546   2.830   4.282
 2909TIP3    H2 8692   0.658   2.899   4.356
 2910TIP3   OH2 8693   4.901   4.597   5.427
 2910TIP3    H1 8694   4.836   4.527   5.428
 2910TIP3    H2 8695   4.985   4.551   5.420
 2911TIP3   OH2 8696   1.063   3.285   0.378
 2911TIP3    H1 8697   1.028   3.244   0.457
 2911TIP3    H2 8698   1.006   3.254   0.307
 2912TIP3   OH2 8699   1.363   6.218   4.913
 2912TIP3    H1 8700   1.388   6.220   5.006
 2912TIP3    H2 8701   1.363   6.124   4.891
 2913TIP3   OH2 8702   4.567   5.132   4.253
 2913TIP3    H1 8703   4.637   5.094   4.199
 2913TIP3    H2 8704   4.586   5.101   4.342
 2914TIP3   OH2 8705   3.609   2.189   1.662
 2914TIP3    H1 8706   3.581   2.241   1.587
 2914TIP3    H2 8707   3.691   2.229   1.690
 2915TIP3   OH2 8708   2.690   2.320   0.069
 2915TIP3    H1 8709   2.658   2.235   0.039
 2915TIP3    H2 8710   2.764   2.299   0.127
 2916TIP3   OH2 8711   1.401   2.376   3.223
 2916TIP3    H1 8712   1.332   2.441   3.235
 2916TIP3    H2 8713   1.355   2.300   3.187
 2917TIP3   OH2 8714   3.057   2.798   0.379
 2917TIP3    H1 8715   3.132   2.857   0.364
 2917TIP3    H2 8716   3.003   2.809   0.301
 2918TIP3   OH2 8717   5.556   1.530   0.980
 2918TIP3    H1 8718   5.477   1.496   0.939
 2918TIP3    H2 8719   5.531   1.547   1.071
 2919TIP3   OH2 8720   1.976   5.134   1.967
 2919TIP3    H1 8721   1.883   5.155   1.961
 2919TIP3    H2 8722   1.979   5.042   1.991
 2920TIP3   OH2 8723   1.939   4.343   1.856
 2920TIP3    H1 8724   1.909   4.308   1.772
 2920TIP3    H2 8725   2.032   4.362   1.842
 2921TIP3   OH2 8726   2.222   2.284   5.423
 2921TIP3    H1 8727   2.233   2.315   5.333
 2921TIP3    H2 8728   2.159   2.345   5.462
 2922TIP3   OH2 8729   4.808   0.775   3.499
 2922TIP3    H1 8730   4.713   0.762   3.498
 2922TIP3    H2 8731   4.821   0.848   3.560
 2923TIP3   OH2 8732   0.984   0.994   5.662
 2923TIP3    H1 8733   0.903   1.041   5.640
 2923TIP3    H2 8734   1.004   0.943   5.583
 2924TIP3   OH2 8735   2.379   3.541   0.287
 2924TIP3    H1 8736   2.315   3.528   0.356
 2924TIP3    H2 8737   2.446   3.474   0.302
 2925TIP3   OH2 8738   4.522   2.918   2.424
 2925TIP3    H1 8739   4.561   2.954   2.345
 2925TIP3    H2 8740   4.552   2.828   2.427
 2926TIP3   OH2 8741   6.538   3.711   3.635
 2926TIP3    H1 8742   6.580   3.671   3.558
 2926TIP3    H2 8743   6.453   3.739   3.604
 2927TIP3   OH2 8744   3.657   4.782   0.303
 2927TIP3    H1 8745   3.672   4.693   0.271
 2927TIP3    H2 8746   3.562   4.793   0.298
 2928TIP3   OH2 8747   5.850   1.442   2.249
 2928TIP3    H1 8748   5.824   1.353   2.225
 2928TIP3    H2 8749   5.823   1.450   2.341
 2929TIP3   OH2 8750   2.647   2.618   3.559
 2929TIP3    H1 8751   2.572   2.666   3.594
 2929TIP3    H2 8752   2.701   2.598   3.635
 2930TIP3   OH2 8753   4.779   4.754   5.088
 2930TIP3    H1 8754   4.749   4.713   5.006
 2930TIP3    H2 8755   4.701   4.758   5.143
 2931TIP3   OH2 8756   1.555   0.265   3.453
 2931TIP3    H1 8757   1.641   0.226   3.437
 2931TIP3    H2 8758   1.493   0.193   3.439
 2932TIP3   OH2 8759   5.638   3.275   1.718
 2932TIP3    H1 8760   5.622   3.369   1.725
 2932TIP3    H2 8761   5.641   3.243   1.808
 2933TIP3   OH2 8762   6.597   2.384   1.843
 2933TIP3    H1 8763   6.552   2.384   1.928
 2933TIP3    H2 8764   6.608   2.291   1.823
 2934TIP3   OH2 8765   5.648   6.458   1.326
 2934TIP3    H1 8766   5.742   6.473   1.312
 2934TIP3    H2 8767   5.606   6.494   1.248
 2935TIP3   OH2 8768   2.435   1.758   0.380
 2935TIP3    H1 8769   2.427   1.783   0.472
 2935TIP3    H2 8770   2.348   1.724   0.356
 2936TIP3   OH2 8771   0.585   2.141   1.939
 2936TIP3    H1 8772   0.631   2.081   1.998
 2936TIP3    H2 8773   0.608   2.228   1.971
 2937TIP3   OH2 8774   5.885   2.773   1.926
 2937TIP3    H1 8775   5.945   2.819   1.867
 2937TIP3    H2 8776   5.814   2.835   1.941
 2938TIP3   OH2 8777   0.801   1.791   1.552
 2938TIP3    H1 8778   0.800   1.882   1.521
 2938TIP3    H2 8779   0.885   1.757   1.521
 2939TIP3   OH2 8780   5.084   4.677   4.595
 2939TIP3    H1 8781   5.104   4.604   4.654
 2939TIP3    H2 8782   5.087   4.755   4.651
 2940TIP3   OH2 8783   3.260   4.665   5.155
 2940TIP3    H1 8784   3.333   4.682   5.095
 2940TIP3    H2 8785   3.209   4.597   5.111
 2941TIP3   OH2 8786   1.511   2.126   5.348
 2941TIP3    H1 8787   1.545   2.048   5.392
 2941TIP3    H2 8788   1.545   2.199   5.400
 2942TIP3   OH2 8789   6.780   5.485   1.007
 2942TIP3    H1 8790   6.713   5.495   0.941
 2942TIP3    H2 8791   6.845   5.553   0.987
 2943TIP3   OH2 8792   4.152   6.297   0.220
 2943TIP3    H1 8793   4.201   6.336   0.147
 2943TIP3    H2 8794   4.155   6.203   0.205
 2944TIP3   OH2 8795   2.603   1.372   0.569
 2944TIP3    H1 8796   2.625   1.339   0.482
 2944TIP3    H2 8797   2.518   1.332   0.589
 2945TIP3   OH2 8798   4.081   4.057   0.998
 2945TIP3    H1 8799   4.050   3.967   0.989
 2945TIP3    H2 8800   4.010   4.110   0.962
 2946TIP3   OH2 8801   0.302   4.021   1.535
 2946TIP3    H1 8802   0.250   3.943   1.516
 2946TIP3    H2 8803   0.384   3.988   1.571
 2947TIP3   OH2 8804   4.345   0.075   5.694
 2947TIP3    H1 8805   4.254   0.054   5.712
 2947TIP3    H2 8806   4.349   0.170   5.696
 2948TIP3   OH2 8807   1.743   3.647   1.903
 2948TIP3    H1 8808   1.830   3.634   1.866
 2948TIP3    H2 8809   1.711   3.728   1.861
 2949TIP3   OH2 8810   5.628   1.390   3.943
 2949TIP3    H1 8811   5.614   1.299   3.968
 2949TIP3    H2 8812   5.664   1.431   4.022
 2950TIP3   OH2 8813   1.224   5.696   4.855
 2950TIP3    H1 8814   1.137   5.709   4.816
 2950TIP3    H2 8815   1.210   5.713   4.948
 2951TIP3   OH2 8816   4.573   0.088   1.468
 2951TIP3    H1 8817   4.643   0.098   1.403
 2951TIP3    H2 8818   4.593   0.006   1.513
 2952TIP3   OH2 8819   6.234   0.973   4.134
 2952TIP3    H1 8820   6.220   1.058   4.176
 2952TIP3    H2 8821   6.277   0.920   4.201
 2953TIP3   OH2 8822   1.989   1.185   5.786
 2953TIP3    H1 8823   1.915   1.241   5.760
 2953TIP3    H2 8824   1.948   1.104   5.817
 2954TIP3   OH2 8825   3.826   5.060   2.985
 2954TIP3    H1 8826   3.854   5.095   3.069
 2954TIP3    H2 8827   3.732   5.047   2.994
 2955TIP3   OH2 8828   6.499   6.538   1.890
 2955TIP3    H1 8829   6.479   6.445   1.896
 2955TIP3    H2 8830   6.472   6.574   1.974
 2956TIP3   OH2 8831   4.282   1.283   3.257
 2956TIP3    H1 8832   4.326   1.206   3.222
 2956TIP3    H2 8833   4.301   1.353   3.194
 2957TIP3   OH2 8834   0.704   2.408   2.647
 2957TIP3    H1 8835   0.625   2.369   2.684
 2957TIP3    H2 8836   0.676   2.493   2.615
 2958TIP3   OH2 8837   3.386   0.736   3.816
 2958TIP3    H1 8838   3.366   0.769   3.903
 2958TIP3    H2 8839   3.340   0.652   3.810
 2959TIP3   OH2 8840   0.423   4.353   0.665
 2959TIP3    H1 8841   0.341   4.363   0.712
 2959TIP3    H2 8842   0.488   4.397   0.721
 2960TIP3   OH2 8843   2.501   1.150   2.681
 2960TIP3    H1 8844   2.441   1.091   2.636
 2960TIP3    H2 8845   2.570   1.167   2.618
 2961TIP3   OH2 8846   1.542   4.952   1.604
 2961TIP3    H1 8847   1.480   4.923   1.671
 2961TIP3    H2 8848   1.623   4.970   1.653
 2962TIP3   OH2 8849   2.128   5.545   3.977
 2962TIP3    H1 8850   2.120   5.565   3.883
 2962TIP3    H2 8851   2.078   5.615   4.020
 2963TIP3   OH2 8852   5.280   2.218   3.887
 2963TIP3    H1 8853   5.253   2.309   3.875
 2963TIP3    H2 8854   5.262   2.177   3.802
 2964TIP3   OH2 8855   4.957   4.675   1.996
 2964TIP3    H1 8856   4.921   4.642   2.078
 2964TIP3    H2 8857   5.026   4.613   1.973
 2965TIP3   OH2 8858   2.168   0.874   1.739
 2965TIP3    H1 8859   2.155   0.788   1.699
 2965TIP3    H2 8860   2.112   0.932   1.689
 2966TIP3   OH2 8861   1.235   0.134   4.239
 2966TIP3    H1 8862   1.185   0.061   4.274
 2966TIP3    H2 8863   1.176   0.209   4.247
 2967TIP3   OH2 8864   2.450   5.144   1.665
 2967TIP3    H1 8865   2.372   5.096   1.637
 2967TIP3    H2 8866   2.416   5.224   1.705
 2968TIP3   OH2 8867   4.353   6.614   4.910
 2968TIP3    H1 8868   4.425   6.657   4.956
 2968TIP3    H2 8869   4.347   6.527   4.951
 2969TIP3   OH2 8870   0.817   2.744   5.301
 2969TIP3    H1 8871   0.818   2.657   5.341
 2969TIP3    H2 8872   0.727   2.754   5.268
 2970TIP3   OH2 8873   5.640   1.905   0.561
 2970TIP3    H1 8874   5.652   1.999   0.541
 2970TIP3    H2 8875   5.563   1.880   0.510
 2971TIP3   OH2 8876   6.447   3.809   0.945
 2971TIP3    H1 8877   6.518   3.778   1.000
 2971TIP3    H2 8878   6.401   3.730   0.918
 2972TIP3   OH2 8879   1.788   6.565   5.599
 2972TIP3    H1 8880   1.784   6.600   5.510
 2972TIP3    H2 8881   1.871   6.518   5.603
 2973TIP3   OH2 8882   3.740   6.115   2.115
 2973TIP3    H1 8883   3.777   6.103   2.203
 2973TIP3    H2 8884   3.646   6.119   2.129
 2974TIP3   OH2 8885   5.228   4.476   5.834
 2974TIP3    H1 8886   5.308   4.528   5.838
 2974TIP3    H2 8887   5.166   4.532   5.788
 2975TIP3   OH2 8888   1.501   0.679   0.763
 2975TIP3    H1 8889   1.507   0.654   0.855
 2975TIP3    H2 8890   1.522   0.773   0.762
 2976TIP3   OH2 8891   4.316   0.573   4.402
 2976TIP3    H1 8892   4.259   0.643   4.432
 2976TIP3    H2 8893   4.318   0.511   4.474
 2977TIP3   OH2 8894   1.176   2.875   5.844
 2977TIP3    H1 8895   1.093   2.905   5.809
 2977TIP3    H2 8896   1.206   2.945   5.902
 2978TIP3   OH2 8897   2.925   3.678   4.799
 2978TIP3    H1 8898   2.974   3.596   4.802
 2978TIP3    H2 8899   2.835   3.653   4.820
 2979TIP3   OH2 8900   5.044   6.345   2.737
 2979TIP3    H1 8901   5.023   6.257   2.770
 2979TIP3    H2 8902   5.032   6.338   2.642
 2980TIP3   OH2 8903   6.050   2.489   3.964
 2980TIP3    H1 8904   6.026   2.400   3.991
 2980TIP3    H2 8905   6.014   2.546   4.032
 2981TIP3   OH2 8906   3.290   4.054   2.408
 2981TIP3    H1 8907   3.200   4.042   2.379
 2981TIP3    H2 8908   3.303   3.987   2.476
 2982TIP3   OH2 8909   1.179   5.563   3.458
 2982TIP3    H1 8910   1.140   5.620   3.392
 2982TIP3    H2 8911   1.221   5.623   3.520
 2983TIP3   OH2 8912   5.235   0.653   4.357
 2983TIP3    H1 8913   5.293   0.698   4.295
 2983TIP3    H2 8914   5.295   0.611   4.419
 2984TIP3   OH2 8915   4.586   4.226   2.452
 2984TIP3    H1 8916   4.534   4.279   2.512
 2984TIP3    H2 8917   4.528   4.154   2.426
 2985TIP3   OH2 8918   0.273   6.667   2.159
 2985TIP3    H1 8919   0.207   6.632   2.099
 2985TIP3    H2 8920   0.354   6.668   2.108
 2986TIP3   OH2 8921   2.162   5.781   0.038
 2986TIP3    H1 8922   2.127   5.692   0.026
 2986TIP3    H2 8923   2.156   5.797   0.132
 2987TIP3   OH2 8924   2.989   6.309   1.396
 2987TIP3    H1 8925   2.953   6.360   1.324
 2987TIP3    H2 8926   2.972   6.363   1.474
 2988TIP3   OH2 8927   0.967   4.641   5.024
 2988TIP3    H1 8928   1.031   4.634   4.954
 2988TIP3    H2 8929   0.991   4.722   5.070
 2989TIP3   OH2 8930   1.363   6.638   0.031
 2989TIP3    H1 8931   1.269   6.656   0.029
 2989TIP3    H2 8932   1.397   6.693   0.101
 2990TIP3   OH2 8933   5.917   4.533   0.815
 2990TIP3    H1 8934   5.931   4.439   0.826
 2990TIP3    H2 8935   6.003   4.573   0.830
 2991TIP3   OH2 8936   6.994   4.127   5.771
 2991TIP3    H1 8937   6.971   4.055   5.830
 2991TIP3    H2 8938   6.999   4.204   5.828
 2992TIP3   OH2 8939   4.240   4.509   1.719
 2992TIP3    H1 8940   4.287   4.434   1.756
 2992TIP3    H2 8941   4.308   4.574   1.705
 2993TIP3   OH2 8942   3.909   4.235   4.144
 2993TIP3    H1 8943   3.859   4.245   4.063
 2993TIP3    H2 8944   3.992   4.196   4.117
 2994TIP3   OH2 8945   6.712   0.281   1.153
 2994TIP3    H1 8946   6.793   0.310   1.112
 2994TIP3    H2 8947   6.740   0.218   1.219
 2995TIP3   OH2 8948   6.493   2.336   5.802
 2995TIP3    H1 8949   6.508   2.410   5.861
 2995TIP3    H2 8950   6.456   2.376   5.723
 2996TIP3   OH2 8951   6.985   1.495   0.916
 2996TIP3    H1 8952   7.030   1.542   0.846
 2996TIP3    H2 8953   7.055   1.451   0.964
 2997TIP3   OH2 8954   1.956   0.922   0.331
 2997TIP3    H1 8955   2.041   0.888   0.306
 2997TIP3    H2 8956   1.937   0.880   0.415
 2998TIP3   OH2 8957   1.911   5.432   3.749
 2998TIP3    H1 8958   1.996   5.403   3.717
 2998TIP3    H2 8959   1.861   5.352   3.762
 2999TIP3   OH2 8960   3.716   6.372   3.750
 2999TIP3    H1 8961   3.707   6.393   3.657
 2999TIP3    H2 8962   3.627   6.356   3.780
 3000TIP3   OH2 8963   2.316   5.847   0.288
 3000TIP3    H1 8964   2.277   5.932   0.304
 3000TIP3    H2 8965   2.383   5.838   0.356
 3001TIP3   OH2 8966   1.725   3.288   2.969
 3001TIP3    H1 8967   1.664   3.311   2.899
 3001TIP3    H2 8968   1.765   3.372   2.994
 3002TIP3   OH2 8969   0.111   1.423   2.093
 3002TIP3    H1 8970   0.201   1.434   2.124
 3002TIP3    H2 8971   0.117   1.433   1.998
 3003TIP3   OH2 8972   6.313   5.752   2.830
 3003TIP3    H1 8973   6.270   5.789   2.752
 3003TIP3    H2 8974   6.277   5.803   2.903
 3004TIP3   OH2 8975   6.024   1.462   2.010
 3004TIP3    H1 8976   5.999   1.465   2.102
 3004TIP3    H2 8977   6.099   1.522   2.004
 3005TIP3   OH2 8978   1.083   1.599   3.876
 3005TIP3    H1 8979   1.134   1.639   3.804
 3005TIP3    H2 8980   1.107   1.507   3.873
 3006TIP3   OH2 8981   1.306   5.063   5.853
 3006TIP3    H1 8982   1.277   5.001   5.787
 3006TIP3    H2 8983   1.402   5.053   5.855
 3007TIP3   OH2 8984   0.973   0.304   4.810
 3007TIP3    H1 8985   0.908   0.240   4.779
 3007TIP3    H2 8986   1.049   0.289   4.754
 3008TIP3   OH2 8987   4.652   5.402   5.232
 3008TIP3    H1 8988   4.587   5.360   5.175
 3008TIP3    H2 8989   4.613   5.486   5.254
 3009TIP3   OH2 8990   5.490   6.489   4.093
 3009TIP3    H1 8991   5.472   6.405   4.050
 3009TIP3    H2 8992   5.563   6.525   4.043
 3010TIP3   OH2 8993   4.577   0.613   2.262
 3010TIP3    H1 8994   4.668   0.639   2.249
 3010TIP3    H2 8995   4.573   0.522   2.230
 3011TIP3   OH2 8996   1.328   1.567   5.680
 3011TIP3    H1 8997   1.253   1.540   5.626
 3011TIP3    H2 8998   1.346   1.657   5.653
 3012TIP3   OH2 8999   1.020   0.180   0.159
 3012TIP3    H1 9000   0.993   0.154   0.071
 3012TIP3    H2 9001   1.083   0.114   0.185
 3013TIP3   OH2 9002   3.070   1.066   4.105
 3013TIP3    H1 9003   3.088   1.096   4.194
 3013TIP3    H2 9004   3.030   0.979   4.117
 3014TIP3   OH2 9005   1.629   3.612   3.428
 3014TIP3    H1 9006   1.574   3.589   3.503
 3014TIP3    H2 9007   1.687   3.536   3.417
 3015TIP3   OH2 9008   1.089   5.494   2.057
 3015TIP3    H1 9009   1.035   5.481   2.135
 3015TIP3    H2 9010   1.107   5.588   2.056
 3016TIP3   OH2 9011   5.604   3.479   2.177
 3016TIP3    H1 9012   5.650   3.536   2.116
 3016TIP3    H2 9013   5.516   3.471   2.141
 3017TIP3   OH2 9014   6.658   5.230   4.595
 3017TIP3    H1 9015   6.637   5.273   4.679
 3017TIP3    H2 9016   6.685   5.302   4.538
 3018TIP3   OH2 9017   0.948   1.782   5.527
 3018TIP3    H1 9018   0.857   1.754   5.527
 3018TIP3    H2 9019   0.964   1.813   5.616
 3019TIP3   OH2 9020  -0.042   2.735   3.603
 3019TIP3    H1 9021  -0.041   2.791   3.681
 3019TIP3    H2 9022   0.044   2.693   3.603
 3020TIP3   OH2 9023   1.946   3.908   1.595
 3020TIP3    H1 9024   1.992   3.937   1.673
 3020TIP3    H2 9025   1.877   3.973   1.581
 3021TIP3   OH2 9026   5.565   6.639   4.828
 3021TIP3    H1 9027   5.582   6.685   4.910
 3021TIP3    H2 9028   5.479   6.599   4.841
 3022TIP3   OH2 9029   2.299   0.957   0.511
 3022TIP3    H1 9030   2.325   0.884   0.567
 3022TIP3    H2 9031   2.270   0.916   0.430
 3023TIP3   OH2 9032   3.809   3.968   3.942
 3023TIP3    H1 9033   3.795   3.881   3.904
 3023TIP3    H2 9034   3.844   4.020   3.871
 3024TIP3   OH2 9035   4.735   2.205   5.922
 3024TIP3    H1 9036   4.776   2.283   5.959
 3024TIP3    H2 9037   4.668   2.238   5.863
 3025TIP3   OH2 9038   4.660   1.232   3.677
 3025TIP3    H1 9039   4.598   1.241   3.749
 3025TIP3    H2 9040   4.711   1.313   3.679
 3026TIP3   OH2 9041   5.829   4.585   0.260
 3026TIP3    H1 9042   5.746   4.613   0.300
 3026TIP3    H2 9043   5.896   4.623   0.317
 3027TIP3   OH2 9044   5.112   0.094   0.767
 3027TIP3    H1 9045   5.130   0.182   0.802
 3027TIP3    H2 9046   5.198   0.054   0.757
 3028TIP3   OH2 9047   0.380   4.104   5.222
 3028TIP3    H1 9048   0.325   4.029   5.244
 3028TIP3    H2 9049   0.468   4.068   5.212
 3029TIP3   OH2 9050   1.444   0.359   4.629
 3029TIP3    H1 9051   1.415   0.388   4.715
 3029TIP3    H2 9052   1.373   0.301   4.598
 3030TIP3   OH2 9053   3.937   6.312   0.449
 3030TIP3    H1 9054   3.920   6.218   0.457
 3030TIP3    H2 9055   4.006   6.319   0.383
 3031TIP3   OH2 9056   2.393   1.698   5.447
 3031TIP3    H1 9057   2.383   1.745   5.530
 3031TIP3    H2 9058   2.375   1.764   5.380
 3032TIP3   OH2 9059   5.918   6.171   3.864
 3032TIP3    H1 9060   5.976   6.104   3.901
 3032TIP3    H2 9061   5.972   6.249   3.860
 3033TIP3   OH2 9062   6.633   4.803   0.691
 3033TIP3    H1 9063   6.605   4.714   0.671
 3033TIP3    H2 9064   6.718   4.792   0.735
 3034TIP3   OH2 9065   6.171   1.265   1.772
 3034TIP3    H1 9066   6.095   1.207   1.777
 3034TIP3    H2 9067   6.150   1.338   1.830
 3035TIP3   OH2 9068   1.724   6.540   3.146
 3035TIP3    H1 9069   1.734   6.583   3.232
 3035TIP3    H2 9070   1.648   6.484   3.156
 3036TIP3   OH2 9071   1.034   1.861   4.351
 3036TIP3    H1 9072   1.055   1.797   4.283
 3036TIP3    H2 9073   0.962   1.913   4.314
 3037TIP3   OH2 9074   3.792   1.561   3.786
 3037TIP3    H1 9075   3.789   1.470   3.815
 3037TIP3    H2 9076   3.711   1.574   3.738
 3038TIP3   OH2 9077   0.770   5.585   2.530
 3038TIP3    H1 9078   0.740   5.673   2.506
 3038TIP3    H2 9079   0.848   5.599   2.584
 3039TIP3   OH2 9080   5.139   1.735   2.434
 3039TIP3    H1 9081   5.226   1.723   2.395
 3039TIP3    H2 9082   5.126   1.656   2.487
 3040TIP3   OH2 9083   6.996   4.492   3.819
 3040TIP3    H1 9084   7.028   4.582   3.818
 3040TIP3    H2 9085   6.901   4.501   3.821
 3041TIP3   OH2 9086   4.508   6.263   2.077
 3041TIP3    H1 9087   4.546   6.205   2.012
 3041TIP3    H2 9088   4.471   6.205   2.143
 3042TIP3   OH2 9089   6.653   1.757   3.749
 3042TIP3    H1 9090   6.637   1.831   3.691
 3042TIP3    H2 9091   6.598   1.687   3.714
 3043TIP3   OH2 9092   5.166   3.771   5.279
 3043TIP3    H1 9093   5.246   3.810   5.314
 3043TIP3    H2 9094   5.193   3.684   5.250
 3044TIP3   OH2 9095   3.405   3.957   4.366
 3044TIP3    H1 9096   3.331   4.015   4.387
 3044TIP3    H2 9097   3.451   3.946   4.449
 3045TIP3   OH2 9098   0.459   0.171   5.818
 3045TIP3    H1 9099   0.497   0.084   5.806
 3045TIP3    H2 9100   0.478   0.193   5.908
 3046TIP3   OH2 9101   1.723   1.945   1.265
 3046TIP3    H1 9102   1.806   1.984   1.292
 3046TIP3    H2 9103   1.739   1.913   1.176
 3047TIP3   OH2 9104   3.970   2.935   0.534
 3047TIP3    H1 9105   4.059   2.903   0.551
 3047TIP3    H2 9106   3.913   2.877   0.584
 3048TIP3   OH2 9107   2.223   0.569   1.106
 3048TIP3    H1 9108   2.176   0.486   1.099
 3048TIP3    H2 9109   2.171   0.620   1.167
 3049TIP3   OH2 9110   4.270   2.961   2.873
 3049TIP3    H1 9111   4.317   3.007   2.943
 3049TIP3    H2 9112   4.317   2.985   2.794
 3050TIP3   OH2 9113   3.998   5.743   5.263
 3050TIP3    H1 9114   3.944   5.674   5.225
 3050TIP3    H2 9115   4.082   5.736   5.218
 3051TIP3   OH2 9116   2.989   5.204   2.212
 3051TIP3    H1 9117   3.052   5.133   2.223
 3051TIP3    H2 9118   3.029   5.278   2.258
 3052TIP3   OH2 9119   1.301   4.632   1.318
 3052TIP3    H1 9120   1.275   4.682   1.241
 3052TIP3    H2 9121   1.357   4.691   1.368
 3053TIP3   OH2 9122   2.959   5.876   5.647
 3053TIP3    H1 9123   2.929   5.941   5.710
 3053TIP3    H2 9124   2.908   5.797   5.667
 3054TIP3   OH2 9125   2.864   2.162   0.220
 3054TIP3    H1 9126   2.862   2.067   0.230
 3054TIP3    H2 9127   2.948   2.180   0.179
 3055TIP3   OH2 9128   4.940   0.979   4.980
 3055TIP3    H1 9129   4.853   1.012   4.958
 3055TIP3    H2 9130   4.924   0.893   5.018
 3056TIP3   OH2 9131   6.285   2.840   4.712
 3056TIP3    H1 9132   6.215   2.898   4.683
 3056TIP3    H2 9133   6.341   2.829   4.634
 3057TIP3   OH2 9134   5.138   5.436   2.452
 3057TIP3    H1 9135   5.182   5.403   2.373
 3057TIP3    H2 9136   5.047   5.450   2.424
 3058TIP3   OH2 9137   1.326   0.149   2.951
 3058TIP3    H1 9138   1.403   0.139   2.894
 3058TIP3    H2 9139   1.343   0.091   3.025
 3059TIP3   OH2 9140   4.406   4.275   4.218
 3059TIP3    H1 9141   4.501   4.265   4.227
 3059TIP3    H2 9142   4.382   4.339   4.285
 3060TIP3   OH2 9143   0.183   4.414   0.793
 3060TIP3    H1 9144   0.108   4.472   0.805
 3060TIP3    H2 9145   0.199   4.379   0.881
 3061TIP3   OH2 9146   1.997   3.648   1.727
 3061TIP3    H1 9147   1.988   3.735   1.688
 3061TIP3    H2 9148   2.046   3.597   1.662
 3062TIP3   OH2 9149   6.200   1.575   5.087
 3062TIP3    H1 9150   6.114   1.607   5.061
 3062TIP3    H2 9151   6.247   1.565   5.004
 3063TIP3   OH2 9152   3.356   2.092   2.293
 3063TIP3    H1 9153   3.313   2.148   2.358
 3063TIP3    H2 9154   3.385   2.015   2.343
 3064TIP3   OH2 9155   5.909   0.179   0.763
 3064TIP3    H1 9156   5.843   0.135   0.817
 3064TIP3    H2 9157   5.868   0.262   0.739
 3065TIP3   OH2 9158   4.955   2.068   3.755
 3065TIP3    H1 9159   4.958   1.976   3.727
 3065TIP3    H2 9160   5.034   2.107   3.717
 3066TIP3   OH2 9161   4.585   2.816   3.656
 3066TIP3    H1 9162   4.546   2.738   3.694
 3066TIP3    H2 9163   4.649   2.845   3.721
 3067TIP3   OH2 9164   2.876   2.920   0.604
 3067TIP3    H1 9165   2.921   2.853   0.553
 3067TIP3    H2 9166   2.813   2.872   0.658
 3068TIP3   OH2 9167   2.144   3.193   2.852
 3068TIP3    H1 9168   2.146   3.275   2.899
 3068TIP3    H2 9169   2.236   3.171   2.837
 3069TIP3   OH2 9170   6.532   5.310   1.455
 3069TIP3    H1 9171   6.620   5.280   1.431
 3069TIP3    H2 9172   6.527   5.297   1.549
 3070TIP3   OH2 9173   7.195   1.593   2.933
 3070TIP3    H1 9174   7.132   1.577   3.002
 3070TIP3    H2 9175   7.240   1.509   2.922
 3071TIP3   OH2 9176   2.409   2.510   5.614
 3071TIP3    H1 9177   2.315   2.502   5.599
 3071TIP3    H2 9178   2.416   2.565   5.692
 3072TIP3   OH2 9179   3.093   6.119   3.601
 3072TIP3    H1 9180   3.081   6.056   3.672
 3072TIP3    H2 9181   3.067   6.072   3.522
 3073TIP3   OH2 9182   4.330   3.191   1.325
 3073TIP3    H1 9183   4.282   3.143   1.258
 3073TIP3    H2 9184   4.267   3.206   1.395
 3074TIP3   OH2 9185   2.130   4.388   3.060
 3074TIP3    H1 9186   2.048   4.405   3.105
 3074TIP3    H2 9187   2.112   4.411   2.969
 3075TIP3   OH2 9188   5.541   1.954   2.234
 3075TIP3    H1 9189   5.633   1.928   2.242
 3075TIP3    H2 9190   5.524   2.006   2.312
 3076TIP3   OH2 9191   5.200   2.765   1.488
 3076TIP3    H1 9192   5.225   2.851   1.523
 3076TIP3    H2 9193   5.279   2.712   1.495
 3077TIP3   OH2 9194   2.717   4.840   4.871
 3077TIP3    H1 9195   2.723   4.744   4.873
 3077TIP3    H2 9196   2.629   4.860   4.903
 3078TIP3   OH2 9197   2.927   6.282   3.870
 3078TIP3    H1 9198   2.950   6.295   3.963
 3078TIP3    H2 9199   3.011   6.269   3.827
 3079TIP3   OH2 9200   4.745   3.307   1.630
 3079TIP3    H1 9201   4.737   3.402   1.620
 3079TIP3    H2 9202   4.702   3.271   1.552
 3080TIP3   OH2 9203   3.367   0.488   2.791
 3080TIP3    H1 9204   3.441   0.428   2.778
 3080TIP3    H2 9205   3.362   0.537   2.710
 3081TIP3   OH2 9206   0.360   4.284   5.482
 3081TIP3    H1 9207   0.379   4.215   5.418
 3081TIP3    H2 9208   0.278   4.256   5.523
 3082TIP3   OH2 9209   4.116   1.062   4.688
 3082TIP3    H1 9210   4.065   0.984   4.666
 3082TIP3    H2 9211   4.097   1.077   4.781
 3083TIP3   OH2 9212   0.642   2.852   5.602
 3083TIP3    H1 9213   0.708   2.782   5.598
 3083TIP3    H2 9214   0.592   2.842   5.521
 3084TIP3   OH2 9215   5.860   6.200   1.759
 3084TIP3    H1 9216   5.948   6.168   1.744
 3084TIP3    H2 9217   5.833   6.161   1.842
 3085TIP3   OH2 9218   1.811   4.242   2.442
 3085TIP3    H1 9219   1.723   4.230   2.407
 3085TIP3    H2 9220   1.849   4.311   2.388
 3086TIP3   OH2 9221   5.206   4.783   1.033
 3086TIP3    H1 9222   5.219   4.845   0.961
 3086TIP3    H2 9223   5.185   4.838   1.108
 3087TIP3   OH2 9224   3.667   0.254   4.833
 3087TIP3    H1 9225   3.654   0.215   4.746
 3087TIP3    H2 9226   3.754   0.226   4.859
 3088TIP3   OH2 9227   0.992   4.690   3.596
 3088TIP3    H1 9228   0.968   4.620   3.657
 3088TIP3    H2 9229   1.087   4.680   3.585
 3089TIP3   OH2 9230   2.782   5.181   5.261
 3089TIP3    H1 9231   2.806   5.194   5.169
 3089TIP3    H2 9232   2.733   5.099   5.262
 3090TIP3   OH2 9233   5.330   1.247   3.482
 3090TIP3    H1 9234   5.358   1.201   3.403
 3090TIP3    H2 9235   5.242   1.280   3.461
 3091TIP3   OH2 9236   6.790   0.062   2.529
 3091TIP3    H1 9237   6.879   0.052   2.495
 3091TIP3    H2 9238   6.747  -0.021   2.508
 3092TIP3   OH2 9239   5.559   6.277   4.554
 3092TIP3    H1 9240   5.630   6.255   4.495
 3092TIP3    H2 9241   5.480   6.276   4.500
 3093TIP3   OH2 9242   6.590   3.835   2.036
 3093TIP3    H1 9243   6.508   3.832   2.087
 3093TIP3    H2 9244   6.562   3.852   1.946
 3094TIP3   OH2 9245   3.238   6.054   4.954
 3094TIP3    H1 9246   3.252   6.022   4.865
 3094TIP3    H2 9247   3.320   6.032   5.000
 3095TIP3   OH2 9248   1.183   2.292   1.547
 3095TIP3    H1 9249   1.197   2.352   1.475
 3095TIP3    H2 9250   1.097   2.316   1.582
 3096TIP3   OH2 9251   6.764   1.007   5.425
 3096TIP3    H1 9252   6.747   0.921   5.462
 3096TIP3    H2 9253   6.686   1.058   5.446
 3097TIP3   OH2 9254   2.744   0.737   4.134
 3097TIP3    H1 9255   2.749   0.671   4.065
 3097TIP3    H2 9256   2.663   0.786   4.114
 3098TIP3   OH2 9257   4.310   3.211   4.179
 3098TIP3    H1 9258   4.224   3.247   4.156
 3098TIP3    H2 9259   4.328   3.246   4.266
 3099TIP3   OH2 9260   4.916   1.952   0.803
 3099TIP3    H1 9261   4.948   1.993   0.883
 3099TIP3    H2 9262   4.986   1.892   0.777
 3100TIP3   OH2 9263   6.904   2.994   3.131
 3100TIP3    H1 9264   6.954   3.023   3.055
 3100TIP3    H2 9265   6.972   2.970   3.195
 3101TIP3   OH2 9266   3.206   4.492   1.289
 3101TIP3    H1 9267   3.198   4.570   1.233
 3101TIP3    H2 9268   3.233   4.526   1.374
 3102TIP3   OH2 9269   4.699   2.945   0.365
 3102TIP3    H1 9270   4.739   3.032   0.374
 3102TIP3    H2 9271   4.683   2.935   0.271
 3103TIP3   OH2 9272   3.566   0.660   5.774
 3103TIP3    H1 9273   3.517   0.625   5.849
 3103TIP3    H2 9274   3.543   0.753   5.772
 3104TIP3   OH2 9275   0.765   3.461   5.077
 3104TIP3    H1 9276   0.768   3.474   5.172
 3104TIP3    H2 9277   0.793   3.370   5.065
 3105TIP3   OH2 9278   2.374   2.049   3.500
 3105TIP3    H1 9279   2.321   2.064   3.422
 3105TIP3    H2 9280   2.432   2.125   3.505
 3106TIP3   OH2 9281   6.755   1.218   3.301
 3106TIP3    H1 9282   6.835   1.184   3.341
 3106TIP3    H2 9283   6.738   1.299   3.348
 3107TIP3   OH2 9284   5.159   1.952   2.041
 3107TIP3    H1 9285   5.203   2.030   2.075
 3107TIP3    H2 9286   5.227   1.908   1.989
 3108TIP3   OH2 9287   4.370   2.739   4.330
 3108TIP3    H1 9288   4.286   2.783   4.337
 3108TIP3    H2 9289   4.377   2.687   4.410
 3109TIP3   OH2 9290   5.736   6.169   5.896
 3109TIP3    H1 9291   5.774   6.089   5.932
 3109TIP3    H2 9292   5.652   6.142   5.860
 3110TIP3   OH2 9293   2.540   0.600   1.789
 3110TIP3    H1 9294   2.593   0.523   1.808
 3110TIP3    H2 9295   2.465   0.567   1.740
 3111TIP3   OH2 9296   3.822   3.815   3.031
 3111TIP3    H1 9297   3.728   3.810   3.048
 3111TIP3    H2 9298   3.844   3.731   2.991
 3112TIP3   OH2 9299   3.856   4.724   3.489
 3112TIP3    H1 9300   3.770   4.762   3.507
 3112TIP3    H2 9301   3.908   4.746   3.567
 3113TIP3   OH2 9302   3.897   6.541   1.883
 3113TIP3    H1 9303   3.931   6.453   1.904
 3113TIP3    H2 9304   3.924   6.556   1.793
 3114TIP3   OH2 9305   3.098   1.470   0.667
 3114TIP3    H1 9306   3.019   1.489   0.616
 3114TIP3    H2 9307   3.068   1.463   0.757
 3115TIP3   OH2 9308   4.672   0.214   5.522
 3115TIP3    H1 9309   4.710   0.126   5.523
 3115TIP3    H2 9310   4.625   0.221   5.605
 3116TIP3   OH2 9311   0.754   6.494   0.361
 3116TIP3    H1 9312   0.777   6.407   0.394
 3116TIP3    H2 9313   0.714   6.478   0.275
 3117TIP3   OH2 9314   0.117   3.945   2.200
 3117TIP3    H1 9315   0.024   3.924   2.190
 3117TIP3    H2 9316   0.154   3.928   2.114
 3118TIP3   OH2 9317   2.665   4.016   1.085
 3118TIP3    H1 9318   2.620   4.099   1.067
 3118TIP3    H2 9319   2.739   4.040   1.140
 3119TIP3   OH2 9320   3.979   2.404   4.070
 3119TIP3    H1 9321   3.988   2.395   4.165
 3119TIP3    H2 9322   4.063   2.374   4.035
 3120TIP3   OH2 9323   3.854   5.566   4.914
 3120TIP3    H1 9324   3.885   5.568   5.005
 3120TIP3    H2 9325   3.782   5.504   4.915
 3121TIP3   OH2 9326   0.019   0.824   5.332
 3121TIP3    H1 9327  -0.014   0.890   5.392
 3121TIP3    H2 9328  -0.037   0.747   5.348
 3122TIP3   OH2 9329   4.385   2.302   3.689
 3122TIP3    H1 9330   4.314   2.240   3.668
 3122TIP3    H2 9331   4.352   2.350   3.765
 3123TIP3   OH2 9332   6.077   3.344   1.073
 3123TIP3    H1 9333   6.018   3.310   1.140
 3123TIP3    H2 9334   6.021   3.391   1.012
 3124TIP3   OH2 9335   3.849   0.485   3.941
 3124TIP3    H1 9336   3.792   0.448   3.874
 3124TIP3    H2 9337   3.859   0.577   3.916
 3125TIP3   OH2 9338   0.367   5.365   0.997
 3125TIP3    H1 9339   0.447   5.314   1.014
 3125TIP3    H2 9340   0.390   5.420   0.922
 3126TIP3   OH2 9341   5.353   5.092   4.201
 3126TIP3    H1 9342   5.340   4.998   4.189
 3126TIP3    H2 9343   5.328   5.130   4.117
 3127TIP3   OH2 9344   0.370   4.778   1.706
 3127TIP3    H1 9345   0.457   4.768   1.744
 3127TIP3    H2 9346   0.318   4.708   1.748
 3128TIP3   OH2 9347   2.413   2.809   0.603
 3128TIP3    H1 9348   2.458   2.725   0.600
 3128TIP3    H2 9349   2.421   2.837   0.695
 3129TIP3   OH2 9350   1.015   0.536   2.985
 3129TIP3    H1 9351   1.001   0.443   2.965
 3129TIP3    H2 9352   1.110   0.548   2.976
 3130TIP3   OH2 9353   4.133   2.893   4.323
 3130TIP3    H1 9354   4.152   2.971   4.270
 3130TIP3    H2 9355   4.038   2.881   4.315
 3131TIP3   OH2 9356   0.856   5.192   5.412
 3131TIP3    H1 9357   0.763   5.197   5.391
 3131TIP3    H2 9358   0.864   5.118   5.471
 3132TIP3   OH2 9359   6.720   1.821   1.719
 3132TIP3    H1 9360   6.748   1.865   1.799
 3132TIP3    H2 9361   6.651   1.878   1.683
 3133TIP3   OH2 9362   0.934   2.361   1.493
 3133TIP3    H1 9363   0.851   2.368   1.541
 3133TIP3    H2 9364   0.913   2.312   1.414
 3134TIP3   OH2 9365   6.390   0.411   3.652
 3134TIP3    H1 9366   6.450   0.466   3.703
 3134TIP3    H2 9367   6.343   0.472   3.596
 3135TIP3   OH2 9368   6.654   2.840   4.092
 3135TIP3    H1 9369   6.747   2.844   4.114
 3135TIP3    H2 9370   6.613   2.794   4.165
 3136TIP3   OH2 9371   1.115   6.543   5.727
 3136TIP3    H1 9372   1.080   6.490   5.656
 3136TIP3    H2 9373   1.191   6.493   5.759
 3137TIP3   OH2 9374   0.745   1.518   4.104
 3137TIP3    H1 9375   0.800   1.512   4.181
 3137TIP3    H2 9376   0.790   1.466   4.038
 3138TIP3   OH2 9377   1.396   5.938   0.119
 3138TIP3    H1 9378   1.325   5.916   0.060
 3138TIP3    H2 9379   1.456   5.991   0.067
 3139TIP3   OH2 9380   5.494   4.752   5.050
 3139TIP3    H1 9381   5.511   4.845   5.063
 3139TIP3    H2 9382   5.409   4.737   5.091
 3140TIP3   OH2 9383   0.970   1.329   3.246
 3140TIP3    H1 9384   0.973   1.340   3.341
 3140TIP3    H2 9385   0.932   1.243   3.232
 3141TIP3   OH2 9386   3.509   6.429   1.263
 3141TIP3    H1 9387   3.457   6.402   1.339
 3141TIP3    H2 9388   3.451   6.420   1.188
 3142TIP3   OH2 9389   3.182   4.995   2.192
 3142TIP3    H1 9390   3.176   4.901   2.176
 3142TIP3    H2 9391   3.270   5.019   2.162
 3143TIP3   OH2 9392   6.645   4.783   5.340
 3143TIP3    H1 9393   6.736   4.793   5.311
 3143TIP3    H2 9394   6.644   4.822   5.428
 3144TIP3   OH2 9395   3.976   3.405   0.919
 3144TIP3    H1 9396   4.071   3.409   0.931
 3144TIP3    H2 9397   3.951   3.323   0.962
 3145TIP3   OH2 9398   3.086   0.621   0.511
 3145TIP3    H1 9399   3.102   0.534   0.546
 3145TIP3    H2 9400   3.130   0.680   0.573
 3146TIP3   OH2 9401   3.488   2.979   0.564
 3146TIP3    H1 9402   3.494   3.066   0.522
 3146TIP3    H2 9403   3.424   2.931   0.510
 3147TIP3   OH2 9404   6.013   6.723   0.534
 3147TIP3    H1 9405   5.940   6.757   0.585
 3147TIP3    H2 9406   5.981   6.720   0.444
 3148TIP3   OH2 9407   3.361   1.532   3.550
 3148TIP3    H1 9408   3.294   1.470   3.578
 3148TIP3    H2 9409   3.440   1.479   3.537
 3149TIP3   OH2 9410   5.774   3.687   2.539
 3149TIP3    H1 9411   5.764   3.647   2.626
 3149TIP3    H2 9412   5.807   3.616   2.484
 3150TIP3   OH2 9413   6.401   3.661   0.580
 3150TIP3    H1 9414   6.434   3.621   0.500
 3150TIP3    H2 9415   6.401   3.589   0.644
 3151TIP3   OH2 9416   5.864   2.425   3.094
 3151TIP3    H1 9417   5.930   2.444   3.028
 3151TIP3    H2 9418   5.781   2.450   3.052
 3152TIP3   OH2 9419   6.886   5.530   0.184
 3152TIP3    H1 9420   6.978   5.542   0.164
 3152TIP3    H2 9421   6.851   5.483   0.109
 3153TIP3   OH2 9422   5.925   6.270   2.884
 3153TIP3    H1 9423   5.914   6.249   2.976
 3153TIP3    H2 9424   5.892   6.193   2.837
 3154TIP3   OH2 9425   7.139   4.318   0.001
 3154TIP3    H1 9426   7.137   4.410   0.027
 3154TIP3    H2 9427   7.135   4.270   0.084
 3155TIP3   OH2 9428   1.123   6.625   3.329
 3155TIP3    H1 9429   1.189   6.562   3.357
 3155TIP3    H2 9430   1.096   6.670   3.410
 3156TIP3   OH2 9431   4.889   2.792   2.229
 3156TIP3    H1 9432   4.908   2.779   2.322
 3156TIP3    H2 9433   4.821   2.859   2.227
 3157TIP3   OH2 9434   4.779   0.909   2.684
 3157TIP3    H1 9435   4.828   0.872   2.758
 3157TIP3    H2 9436   4.827   0.989   2.662
 3158TIP3   OH2 9437   5.911   2.857   3.304
 3158TIP3    H1 9438   5.853   2.816   3.240
 3158TIP3    H2 9439   5.993   2.871   3.258
 3159TIP3   OH2 9440   3.552   0.698   5.493
 3159TIP3    H1 9441   3.613   0.691   5.420
 3159TIP3    H2 9442   3.605   0.680   5.571
 3160TIP3   OH2 9443   0.364   6.313   4.358
 3160TIP3    H1 9444   0.360   6.380   4.426
 3160TIP3    H2 9445   0.389   6.361   4.279
 3161TIP3   OH2 9446   3.883   3.356   3.838
 3161TIP3    H1 9447   3.973   3.355   3.806
 3161TIP3    H2 9448   3.841   3.282   3.794
 3162TIP3   OH2 9449   2.194   1.185   2.219
 3162TIP3    H1 9450   2.182   1.123   2.147
 3162TIP3    H2 9451   2.215   1.268   2.176
 3163TIP3   OH2 9452   2.058   1.427   5.323
 3163TIP3    H1 9453   1.997   1.367   5.367
 3163TIP3    H2 9454   2.144   1.399   5.354
 3164TIP3   OH2 9455   4.209   3.481   1.317
 3164TIP3    H1 9456   4.217   3.386   1.306
 3164TIP3    H2 9457   4.126   3.503   1.273
 3165TIP3   OH2 9458   5.154   3.401   2.252
 3165TIP3    H1 9459   5.078   3.366   2.206
 3165TIP3    H2 9460   5.124   3.485   2.288
 3166TIP3   OH2 9461   1.055   4.860   0.713
 3166TIP3    H1 9462   1.130   4.917   0.729
 3166TIP3    H2 9463   1.086   4.772   0.733
 3167TIP3   OH2 9464   5.322   1.869   3.669
 3167TIP3    H1 9465   5.296   1.826   3.750
 3167TIP3    H2 9466   5.404   1.827   3.644
 3168TIP3   OH2 9467   4.272   0.748   4.836
 3168TIP3    H1 9468   4.280   0.823   4.896
 3168TIP3    H2 9469   4.356   0.703   4.844
 3169TIP3   OH2 9470   0.540   3.945   1.646
 3169TIP3    H1 9471   0.569   3.992   1.724
 3169TIP3    H2 9472   0.553   3.852   1.668
 3170TIP3   OH2 9473   2.894   5.307   1.156
 3170TIP3    H1 9474   2.850   5.302   1.070
 3170TIP3    H2 9475   2.900   5.401   1.174
 3171TIP3   OH2 9476   4.233   4.421   5.612
 3171TIP3    H1 9477   4.325   4.427   5.641
 3171TIP3    H2 9478   4.216   4.504   5.567
 3172TIP3   OH2 9479   0.455   2.303   0.042
 3172TIP3    H1 9480   0.512   2.375   0.070
 3172TIP3    H2 9481   0.456   2.307  -0.053
 3173TIP3   OH2 9482   1.556   4.816   2.391
 3173TIP3    H1 9483   1.468   4.853   2.384
 3173TIP3    H2 9484   1.541   4.726   2.421
 3174TIP3   OH2 9485   3.669   6.370   5.049
 3174TIP3    H1 9486   3.580   6.377   5.015
 3174TIP3    H2 9487   3.658   6.375   5.144
 3175TIP3   OH2 9488   5.729   1.444   3.705
 3175TIP3    H1 9489   5.673   1.425   3.780
 3175TIP3    H2 9490   5.816   1.416   3.732
 3176TIP3   OH2 9491   1.026   5.521   1.330
 3176TIP3    H1 9492   1.015   5.453   1.265
 3176TIP3    H2 9493   1.065   5.477   1.405
 3177TIP3   OH2 9494   6.321   3.838   4.421
 3177TIP3    H1 9495   6.309   3.877   4.334
 3177TIP3    H2 9496   6.278   3.899   4.481
 3178TIP3   OH2 9497   7.156   2.844   3.875
 3178TIP3    H1 9498   7.184   2.760   3.911
 3178TIP3    H2 9499   7.201   2.909   3.929
 3179TIP3   OH2 9500   0.902   2.878   4.714
 3179TIP3    H1 9501   0.807   2.873   4.712
 3179TIP3    H2 9502   0.928   2.884   4.622
 3180TIP3   OH2 9503   6.524   5.500   0.413
 3180TIP3    H1 9504   6.550   5.412   0.437
 3180TIP3    H2 9505   6.606   5.550   0.409
 3181TIP3   OH2 9506   5.641   4.540   5.470
 3181TIP3    H1 9507   5.620   4.623   5.513
 3181TIP3    H2 9508   5.611   4.552   5.379
 3182TIP3   OH2 9509   6.432   4.786   2.284
 3182TIP3    H1 9510   6.390   4.706   2.317
 3182TIP3    H2 9511   6.360   4.835   2.243
 3183TIP3   OH2 9512   2.538   2.737   1.524
 3183TIP3    H1 9513   2.482   2.761   1.599
 3183TIP3    H2 9514   2.480   2.743   1.448
 3184TIP3   OH2 9515   2.330   4.132   3.421
 3184TIP3    H1 9516   2.272   4.154   3.494
 3184TIP3    H2 9517   2.350   4.216   3.380
 3185TIP3   OH2 9518   6.270   3.056   3.445
 3185TIP3    H1 9519   6.294   2.983   3.502
 3185TIP3    H2 9520   6.352   3.104   3.433
 3186TIP3   OH2 9521   3.220   6.232   5.694
 3186TIP3    H1 9522   3.190   6.253   5.782
 3186TIP3    H2 9523   3.238   6.138   5.696
 3187TIP3   OH2 9524   4.557   6.411   4.349
 3187TIP3    H1 9525   4.568   6.378   4.259
 3187TIP3    H2 9526   4.609   6.350   4.402
 3188TIP3   OH2 9527   0.614   0.237  -0.007
 3188TIP3    H1 9528   0.619   0.172  -0.077
 3188TIP3    H2 9529   0.580   0.189   0.069
 3189TIP3   OH2 9530   0.902   2.355   0.983
 3189TIP3    H1 9531   0.917   2.450   0.988
 3189TIP3    H2 9532   0.982   2.320   0.946
 3190TIP3   OH2 9533   2.618   2.828   0.309
 3190TIP3    H1 9534   2.669   2.887   0.253
 3190TIP3    H2 9535   2.567   2.887   0.364
 3191TIP3   OH2 9536   0.615   2.444   5.066
 3191TIP3    H1 9537   0.552   2.474   5.132
 3191TIP3    H2 9538   0.609   2.508   4.996
 3192TIP3   OH2 9539   0.628   1.236   4.971
 3192TIP3    H1 9540   0.674   1.206   4.893
 3192TIP3    H2 9541   0.551   1.180   4.977
 3193TIP3   OH2 9542   0.715   1.746   0.569
 3193TIP3    H1 9543   0.650   1.778   0.506
 3193TIP3    H2 9544   0.798   1.779   0.536
 3194TIP3   OH2 9545   3.214   3.930   4.045
 3194TIP3    H1 9546   3.200   3.839   4.019
 3194TIP3    H2 9547   3.241   3.925   4.137
 3195TIP3   OH2 9548   2.573   2.497   4.406
 3195TIP3    H1 9549   2.578   2.412   4.362
 3195TIP3    H2 9550   2.651   2.500   4.462
 3196TIP3   OH2 9551   3.241   6.250   3.184
 3196TIP3    H1 9552   3.191   6.316   3.232
 3196TIP3    H2 9553   3.175   6.196   3.141
 3197TIP3   OH2 9554   6.096   1.947   2.763
 3197TIP3    H1 9555   6.038   2.023   2.762
 3197TIP3    H2 9556   6.175   1.977   2.807
 3198TIP3   OH2 9557   5.435   5.268   3.177
 3198TIP3    H1 9558   5.407   5.328   3.108
 3198TIP3    H2 9559   5.420   5.316   3.259
 3199TIP3   OH2 9560   2.680   1.273   0.331
 3199TIP3    H1 9561   2.643   1.186   0.348
 3199TIP3    H2 9562   2.682   1.280   0.236
 3200TIP3   OH2 9563   4.848   4.222   2.511
 3200TIP3    H1 9564   4.776   4.274   2.544
 3200TIP3    H2 9565   4.906   4.210   2.586
 3201TIP3   OH2 9566   6.330   0.912   2.588
 3201TIP3    H1 9567   6.386   0.988   2.606
 3201TIP3    H2 9568   6.379   0.862   2.523
 3202TIP3   OH2 9569   2.498   4.500   0.929
 3202TIP3    H1 9570   2.502   4.593   0.906
 3202TIP3    H2 9571   2.579   4.463   0.893
 3203TIP3   OH2 9572   4.721   6.670   4.306
 3203TIP3    H1 9573   4.740   6.706   4.219
 3203TIP3    H2 9574   4.661   6.598   4.289
 3204TIP3   OH2 9575   5.232   4.845   4.095
 3204TIP3    H1 9576   5.198   4.858   4.183
 3204TIP3    H2 9577   5.160   4.803   4.047
 3205TIP3   OH2 9578   0.946   2.876   0.337
 3205TIP3    H1 9579   0.984   2.889   0.424
 3205TIP3    H2 9580   0.999   2.807   0.297
 3206TIP3   OH2 9581   0.130   6.606   3.560
 3206TIP3    H1 9582   0.106   6.601   3.653
 3206TIP3    H2 9583   0.178   6.525   3.543
 3207TIP3   OH2 9584   3.372   5.093   0.637
 3207TIP3    H1 9585   3.436   5.124   0.700
 3207TIP3    H2 9586   3.375   4.998   0.644
 3208TIP3   OH2 9587   3.763   4.108   3.064
 3208TIP3    H1 9588   3.812   4.180   3.102
 3208TIP3    H2 9589   3.826   4.037   3.057
 3209TIP3   OH2 9590   5.965   3.825   1.359
 3209TIP3    H1 9591   6.025   3.816   1.285
 3209TIP3    H2 9592   5.923   3.910   1.346
 3210TIP3   OH2 9593   4.432   2.603   5.574
 3210TIP3    H1 9594   4.505   2.651   5.533
 3210TIP3    H2 9595   4.383   2.567   5.500
 3211TIP3   OH2 9596   6.491   3.996   3.623
 3211TIP3    H1 9597   6.533   4.077   3.653
 3211TIP3    H2 9598   6.562   3.945   3.584
 3212TIP3   OH2 9599   2.776   0.964   1.953
 3212TIP3    H1 9600   2.733   1.011   1.882
 3212TIP3    H2 9601   2.761   0.872   1.933
 3213TIP3   OH2 9602   5.451   3.680   3.295
 3213TIP3    H1 9603   5.536   3.695   3.336
 3213TIP3    H2 9604   5.387   3.693   3.365
 3214TIP3   OH2 9605   3.222   4.537   0.794
 3214TIP3    H1 9606   3.248   4.618   0.838
 3214TIP3    H2 9607   3.188   4.482   0.864
 3215TIP3   OH2 9608   3.040   2.333   5.174
 3215TIP3    H1 9609   2.954   2.304   5.204
 3215TIP3    H2 9610   3.031   2.427   5.163
 3216TIP3   OH2 9611   2.748   0.809   0.509
 3216TIP3    H1 9612   2.801   0.888   0.517
 3216TIP3    H2 9613   2.664   0.841   0.476
 3217TIP3   OH2 9614  -0.013   3.041   1.744
 3217TIP3    H1 9615   0.047   2.997   1.805
 3217TIP3    H2 9616  -0.085   2.979   1.733
 3218TIP3   OH2 9617   5.451   5.910   0.577
 3218TIP3    H1 9618   5.436   5.903   0.671
 3218TIP3    H2 9619   5.514   5.841   0.557
 3219TIP3   OH2 9620   1.894   3.060   2.917
 3219TIP3    H1 9621   1.958   3.105   2.862
 3219TIP3    H2 9622   1.832   3.127   2.943
 3220TIP3   OH2 9623   0.552   6.802   3.572
 3220TIP3    H1 9624   0.624   6.828   3.630
 3220TIP3    H2 9625   0.512   6.727   3.616
 3221TIP3   OH2 9626   1.196   2.081   4.353
 3221TIP3    H1 9627   1.159   2.126   4.429
 3221TIP3    H2 9628   1.148   1.999   4.348
 3222TIP3   OH2 9629   6.068   0.352   2.011
 3222TIP3    H1 9630   6.101   0.431   2.054
 3222TIP3    H2 9631   6.067   0.374   1.918
 3223TIP3   OH2 9632   2.712   0.928   5.382
 3223TIP3    H1 9633   2.668   0.947   5.465
 3223TIP3    H2 9634   2.730   1.014   5.344
 3224TIP3   OH2 9635   0.964   3.904   4.181
 3224TIP3    H1 9636   0.962   3.862   4.095
 3224TIP3    H2 9637   0.878   3.943   4.191
 3225TIP3   OH2 9638   6.948   5.895   0.787
 3225TIP3    H1 9639   6.949   5.957   0.861
 3225TIP3    H2 9640   6.872   5.921   0.735
 3226TIP3   OH2 9641   2.752   1.200   5.354
 3226TIP3    H1 9642   2.709   1.240   5.430
 3226TIP3    H2 9643   2.828   1.255   5.338
 3227TIP3   OH2 9644   0.069   2.093   1.242
 3227TIP3    H1 9645   0.070   1.998   1.254
 3227TIP3    H2 9646   0.147   2.111   1.189
 3228TIP3   OH2 9647   0.677   2.606   1.779
 3228TIP3    H1 9648   0.594   2.634   1.818
 3228TIP3    H2 9649   0.652   2.553   1.704
 3229TIP3   OH2 9650   6.312   1.588   0.746
 3229TIP3    H1 9651   6.294   1.644   0.670
 3229TIP3    H2 9652   6.349   1.508   0.709
 3230TIP3   OH2 9653   4.590   3.067   5.519
 3230TIP3    H1 9654   4.676   3.109   5.516
 3230TIP3    H2 9655   4.546   3.107   5.594
 3231TIP3   OH2 9656   6.665   1.647   5.290
 3231TIP3    H1 9657   6.712   1.725   5.262
 3231TIP3    H2 9658   6.719   1.610   5.360
 3232TIP3   OH2 9659   5.019   0.672   0.532
 3232TIP3    H1 9660   5.113   0.691   0.525
 3232TIP3    H2 9661   4.978   0.732   0.469
 3233TIP3   OH2 9662   7.110   1.318   4.497
 3233TIP3    H1 9663   7.186   1.325   4.555
 3233TIP3    H2 9664   7.077   1.229   4.510
 3234TIP3   OH2 9665   6.007   2.197   3.995
 3234TIP3    H1 9666   5.996   2.122   4.054
 3234TIP3    H2 9667   6.102   2.207   3.987
 3235TIP3   OH2 9668   1.672   1.702   1.933
 3235TIP3    H1 9669   1.668   1.612   1.966
 3235TIP3    H2 9670   1.765   1.724   1.936
 3236TIP3   OH2 9671   5.128   2.005   1.739
 3236TIP3    H1 9672   5.035   1.996   1.758
 3236TIP3    H2 9673   5.148   1.930   1.683
 3237TIP3   OH2 9674   3.438   4.411   4.791
 3237TIP3    H1 9675   3.398   4.334   4.750
 3237TIP3    H2 9676   3.465   4.466   4.717
 3238TIP3   OH2 9677   4.553   3.302   2.301
 3238TIP3    H1 9678   4.510   3.341   2.225
 3238TIP3    H2 9679   4.636   3.349   2.309
 3239TIP3   OH2 9680   0.812   3.540   3.914
 3239TIP3    H1 9681   0.785   3.460   3.960
 3239TIP3    H2 9682   0.776   3.530   3.826
 3240TIP3   OH2 9683   1.475   2.434   5.030
 3240TIP3    H1 9684   1.384   2.461   5.015
 3240TIP3    H2 9685   1.470   2.338   5.031
 3241TIP3   OH2 9686   6.528   0.257   4.926
 3241TIP3    H1 9687   6.478   0.306   4.861
 3241TIP3    H2 9688   6.575   0.190   4.876
 3242TIP3   OH2 9689   4.188   5.149   1.157
 3242TIP3    H1 9690   4.170   5.081   1.222
 3242TIP3    H2 9691   4.106   5.156   1.107
 3243TIP3   OH2 9692   6.884   5.513   5.516
 3243TIP3    H1 9693   6.963   5.467   5.543
 3243TIP3    H2 9694   6.814   5.450   5.527
 3244TIP3   OH2 9695   0.150   5.796   3.509
 3244TIP3    H1 9696   0.170   5.820   3.419
 3244TIP3    H2 9697   0.229   5.819   3.558
 3245TIP3   OH2 9698   0.091   3.643   1.909
 3245TIP3    H1 9699   0.146   3.578   1.865
 3245TIP3    H2 9700   0.084   3.611   1.999
 3246TIP3   OH2 9701   4.726   5.635   3.493
 3246TIP3    H1 9702   4.730   5.677   3.407
 3246TIP3    H2 9703   4.634   5.639   3.517
 3247TIP3   OH2 9704   4.107   1.011   1.931
 3247TIP3    H1 9705   4.105   0.920   1.961
 3247TIP3    H2 9706   4.020   1.046   1.954
 3248TIP3   OH2 9707   5.995   2.776   4.401
 3248TIP3    H1 9708   6.086   2.802   4.418
 3248TIP3    H2 9709   5.991   2.763   4.306
 3249TIP3   OH2 9710   3.230   1.329   3.997
 3249TIP3    H1 9711   3.135   1.338   3.990
 3249TIP3    H2 9712   3.247   1.238   3.970
 3250TIP3   OH2 9713   7.014   5.003   0.901
 3250TIP3    H1 9714   7.069   4.977   0.976
 3250TIP3    H2 9715   6.963   5.077   0.934
 3251TIP3   OH2 9716   5.528   2.157   2.767
 3251TIP3    H1 9717   5.578   2.237   2.751
 3251TIP3    H2 9718   5.525   2.150   2.862
 3252TIP3   OH2 9719   1.104   3.547   0.346
 3252TIP3    H1 9720   1.037   3.585   0.404
 3252TIP3    H2 9721   1.110   3.455   0.373
 3253TIP3   OH2 9722   1.354   0.584   3.628
 3253TIP3    H1 9723   1.299   0.640   3.574
 3253TIP3    H2 9724   1.438   0.581   3.582
 3254TIP3   OH2 9725   6.914   3.910   2.747
 3254TIP3    H1 9726   6.823   3.942   2.746
 3254TIP3    H2 9727   6.967   3.989   2.734
 3255TIP3   OH2 9728   0.073   2.392   2.674
 3255TIP3    H1 9729   0.144   2.344   2.632
 3255TIP3    H2 9730   0.115   2.467   2.715
 3256TIP3   OH2 9731   3.896   1.339   0.984
 3256TIP3    H1 9732   3.850   1.422   0.995
 3256TIP3    H2 9733   3.914   1.309   1.073
 3257TIP3   OH2 9734   6.779   3.738   0.571
 3257TIP3    H1 9735   6.795   3.706   0.482
 3257TIP3    H2 9736   6.700   3.791   0.563
 3258TIP3   OH2 9737   1.659   0.103   0.663
 3258TIP3    H1 9738   1.588   0.043   0.639
 3258TIP3    H2 9739   1.617   0.189   0.668
 3259TIP3   OH2 9740   1.790   4.686   2.973
 3259TIP3    H1 9741   1.809   4.595   2.997
 3259TIP3    H2 9742   1.696   4.695   2.987
 3260TIP3   OH2 9743   5.604   0.018   0.583
 3260TIP3    H1 9744   5.621   0.099   0.535
 3260TIP3    H2 9745   5.603  -0.050   0.515
 3261TIP3   OH2 9746   4.604   3.874   4.826
 3261TIP3    H1 9747   4.621   3.884   4.732
 3261TIP3    H2 9748   4.635   3.786   4.847
 3262TIP3   OH2 9749   2.903   4.998   2.034
 3262TIP3    H1 9750   2.962   4.995   1.958
 3262TIP3    H2 9751   2.947   5.057   2.095
 3263TIP3   OH2 9752   2.024   0.651   4.362
 3263TIP3    H1 9753   2.075   0.705   4.423
 3263TIP3    H2 9754   2.013   0.568   4.407
 3264TIP3   OH2 9755   4.409   3.529   0.770
 3264TIP3    H1 9756   4.460   3.462   0.723
 3264TIP3    H2 9757   4.475   3.592   0.799
 3265TIP3   OH2 9758   0.932   4.902   2.296
 3265TIP3    H1 9759   0.982   4.961   2.352
 3265TIP3    H2 9760   0.864   4.958   2.256
 3266TIP3   OH2 9761   6.902   2.507   2.279
 3266TIP3    H1 9762   6.831   2.548   2.228
 3266TIP3    H2 9763   6.948   2.581   2.318
 3267TIP3   OH2 9764   3.631   1.822   0.962
 3267TIP3    H1 9765   3.663   1.907   0.933
 3267TIP3    H2 9766   3.537   1.824   0.944
 3268TIP3   OH2 9767   0.811   1.586   0.908
 3268TIP3    H1 9768   0.806   1.682   0.910
 3268TIP3    H2 9769   0.904   1.567   0.920
 3269TIP3   OH2 9770   5.140   4.109   5.797
 3269TIP3    H1 9771   5.215   4.083   5.849
 3269TIP3    H2 9772   5.144   4.204   5.794
 3270TIP3   OH2 9773   2.984   4.084   4.761
 3270TIP3    H1 9774   3.005   4.178   4.769
 3270TIP3    H2 9775   3.046   4.051   4.696
 3271TIP3   OH2 9776   7.087   1.022   2.721
 3271TIP3    H1 9777   7.175   1.012   2.685
 3271TIP3    H2 9778   7.044   1.085   2.663
 3272TIP3   OH2 9779   3.793   4.786   5.604
 3272TIP3    H1 9780   3.734   4.769   5.531
 3272TIP3    H2 9781   3.846   4.860   5.575
 3273TIP3   OH2 9782   4.271   6.129   2.157
 3273TIP3    H1 9783   4.267   6.033   2.149
 3273TIP3    H2 9784   4.241   6.161   2.071
 3274TIP3   OH2 9785   4.912   5.486   5.211
 3274TIP3    H1 9786   4.832   5.435   5.222
 3274TIP3    H2 9787   4.897   5.537   5.131
 3275TIP3   OH2 9788   2.821   1.057   3.566
 3275TIP3    H1 9789   2.845   1.019   3.650
 3275TIP3    H2 9790   2.733   1.092   3.579
 3276TIP3   OH2 9791   0.010   4.718   5.348
 3276TIP3    H1 9792   0.095   4.733   5.387
 3276TIP3    H2 9793   0.007   4.623   5.333
 3277TIP3   OH2 9794   1.692   5.911   0.316
 3277TIP3    H1 9795   1.650   5.825   0.324
 3277TIP3    H2 9796   1.631   5.970   0.360
 3278TIP3   OH2 9797   3.840   3.021   0.794
 3278TIP3    H1 9798   3.922   3.064   0.769
 3278TIP3    H2 9799   3.810   3.070   0.871
 3279TIP3   OH2 9800   4.341   0.159   0.972
 3279TIP3    H1 9801   4.253   0.153   0.933
 3279TIP3    H2 9802   4.332   0.116   1.057
 3280TIP3   OH2 9803   2.603   2.010   0.859
 3280TIP3    H1 9804   2.690   1.979   0.835
 3280TIP3    H2 9805   2.606   2.021   0.954
 3281TIP3   OH2 9806   4.675   1.753   5.203
 3281TIP3    H1 9807   4.676   1.822   5.270
 3281TIP3    H2 9808   4.618   1.685   5.239
 3282TIP3   OH2 9809   2.465   5.790   1.027
 3282TIP3    H1 9810   2.380   5.749   1.043
 3282TIP3    H2 9811   2.528   5.728   1.065
 3283TIP3   OH2 9812   4.859   5.294   4.751
 3283TIP3    H1 9813   4.798   5.364   4.725
 3283TIP3    H2 9814   4.938   5.312   4.701
 3284TIP3   OH2 9815   3.947   4.846   2.817
 3284TIP3    H1 9816   3.923   4.936   2.838
 3284TIP3    H2 9817   4.026   4.829   2.869
 3285TIP3   OH2 9818   5.061   0.513   5.496
 3285TIP3    H1 9819   4.976   0.480   5.524
 3285TIP3    H2 9820   5.040   0.584   5.435
 3286TIP3   OH2 9821   4.470   3.372   5.394
 3286TIP3    H1 9822   4.454   3.279   5.380
 3286TIP3    H2 9823   4.386   3.415   5.377
 3287TIP3   OH2 9824   5.735   0.272   1.908
 3287TIP3    H1 9825   5.776   0.214   1.844
 3287TIP3    H2 9826   5.768   0.240   1.993
 3288TIP3   OH2 9827   1.940   3.603   4.636
 3288TIP3    H1 9828   1.905   3.572   4.720
 3288TIP3    H2 9829   1.925   3.698   4.638
 3289TIP3   OH2 9830   3.912   0.765   4.928
 3289TIP3    H1 9831   3.841   0.721   4.974
 3289TIP3    H2 9832   3.988   0.707   4.939
 3290TIP3   OH2 9833   4.358   6.570   2.164
 3290TIP3    H1 9834   4.432   6.510   2.156
 3290TIP3    H2 9835   4.389   6.652   2.124
 3291TIP3   OH2 9836   1.595   4.232   3.733
 3291TIP3    H1 9837   1.562   4.178   3.661
 3291TIP3    H2 9838   1.690   4.225   3.726
 3292TIP3   OH2 9839   2.402   3.077   1.941
 3292TIP3    H1 9840   2.439   2.992   1.921
 3292TIP3    H2 9841   2.477   3.134   1.956
 3293TIP3   OH2 9842   7.045   4.334   3.545
 3293TIP3    H1 9843   7.036   4.410   3.602
 3293TIP3    H2 9844   6.962   4.331   3.498
 3294TIP3   OH2 9845   0.222   0.753   2.101
 3294TIP3    H1 9846   0.127   0.751   2.110
 3294TIP3    H2 9847   0.245   0.846   2.113
 3295TIP3   OH2 9848   5.747   0.886   3.015
 3295TIP3    H1 9849   5.796   0.926   2.943
 3295TIP3    H2 9850   5.815   0.847   3.071
 3296TIP3   OH2 9851   3.425   2.505   1.720
 3296TIP3    H1 9852   3.485   2.461   1.660
 3296TIP3    H2 9853   3.431   2.598   1.696
 3297TIP3   OH2 9854   5.164   3.524   0.923
 3297TIP3    H1 9855   5.120   3.600   0.885
 3297TIP3    H2 9856   5.233   3.502   0.860
 3298TIP3   OH2 9857   6.984   3.433   0.898
 3298TIP3    H1 9858   6.930   3.512   0.901
 3298TIP3    H2 9859   7.074   3.464   0.891
 3299TIP3   OH2 9860   7.189   3.325   0.376
 3299TIP3    H1 9861   7.249   3.399   0.365
 3299TIP3    H2 9862   7.121   3.359   0.435
 3300TIP3   OH2 9863   4.158   1.779   2.573
 3300TIP3    H1 9864   4.155   1.863   2.619
 3300TIP3    H2 9865   4.125   1.798   2.485
 3301TIP3   OH2 9866   2.225   2.903   4.177
 3301TIP3    H1 9867   2.159   2.845   4.139
 3301TIP3    H2 9868   2.306   2.852   4.175
 3302TIP3   OH2 9869   4.272   5.378   1.333
 3302TIP3    H1 9870   4.220   5.454   1.305
 3302TIP3    H2 9871   4.229   5.303   1.292
 3303TIP3   OH2 9872   6.246   0.945   1.687
 3303TIP3    H1 9873   6.215   0.904   1.606
 3303TIP3    H2 9874   6.168   0.953   1.742
 3304TIP3   OH2 9875   0.924   2.025   3.891
 3304TIP3    H1 9876   0.879   1.940   3.891
 3304TIP3    H2 9877   1.016   2.004   3.879
 3305TIP3   OH2 9878   0.523   4.496   0.885
 3305TIP3    H1 9879   0.585   4.561   0.850
 3305TIP3    H2 9880   0.442   4.545   0.896
 3306TIP3   OH2 9881   4.662   1.665   1.076
 3306TIP3    H1 9882   4.627   1.735   1.021
 3306TIP3    H2 9883   4.607   1.589   1.056
 3307TIP3   OH2 9884   4.454   1.837   5.433
 3307TIP3    H1 9885   4.385   1.862   5.371
 3307TIP3    H2 9886   4.532   1.885   5.401
 3308TIP3   OH2 9887   3.127   4.405   0.496
 3308TIP3    H1 9888   3.142   4.365   0.411
 3308TIP3    H2 9889   3.050   4.461   0.482
 3309TIP3   OH2 9890   2.075   1.857   5.584
 3309TIP3    H1 9891   2.023   1.932   5.555
 3309TIP3    H2 9892   2.037   1.783   5.537
 3310TIP3   OH2 9893   5.343   3.808   0.042
 3310TIP3    H1 9894   5.437   3.797   0.057
 3310TIP3    H2 9895   5.302   3.739   0.093
 3311TIP3   OH2 9896   5.507   3.350   1.321
 3311TIP3    H1 9897   5.548   3.422   1.370
 3311TIP3    H2 9898   5.474   3.391   1.241
 3312TIP3   OH2 9899   2.148   2.560   5.357
 3312TIP3    H1 9900   2.203   2.568   5.279
 3312TIP3    H2 9901   2.108   2.646   5.367
 3313TIP3   OH2 9902   2.525   6.501   0.309
 3313TIP3    H1 9903   2.449   6.526   0.256
 3313TIP3    H2 9904   2.573   6.439   0.255
 3314TIP3   OH2 9905   0.094   4.107   0.691
 3314TIP3    H1 9906   0.159   4.040   0.670
 3314TIP3    H2 9907   0.143   4.189   0.692
 3315TIP3   OH2 9908   6.554   6.510   3.411
 3315TIP3    H1 9909   6.478   6.475   3.456
 3315TIP3    H2 9910   6.616   6.532   3.481
 3316TIP3   OH2 9911   2.355   3.899   3.602
 3316TIP3    H1 9912   2.400   3.834   3.549
 3316TIP3    H2 9913   2.376   3.983   3.560
 3317TIP3   OH2 9914   1.794   6.262   5.886
 3317TIP3    H1 9915   1.843   6.342   5.865
 3317TIP3    H2 9916   1.722   6.260   5.822
 3318TIP3   OH2 9917   5.227   6.095   2.661
 3318TIP3    H1 9918   5.160   6.076   2.596
 3318TIP3    H2 9919   5.296   6.031   2.644
 3319TIP3   OH2 9920   4.021   5.764   2.293
 3319TIP3    H1 9921   3.959   5.809   2.235
 3319TIP3    H2 9922   4.095   5.823   2.301
 3320TIP3   OH2 9923   6.513   3.642   4.083
 3320TIP3    H1 9924   6.549   3.624   3.996
 3320TIP3    H2 9925   6.482   3.732   4.077
 3321TIP3   OH2 9926   6.538   0.733   5.400
 3321TIP3    H1 9927   6.472   0.681   5.354
 3321TIP3    H2 9928   6.491   0.811   5.429
 3322TIP3   OH2 9929   3.272   2.482   2.674
 3322TIP3    H1 9930   3.361   2.448   2.667
 3322TIP3    H2 9931   3.281   2.575   2.653
 3323TIP3   OH2 9932   1.371   5.728   5.700
 3323TIP3    H1 9933   1.331   5.648   5.668
 3323TIP3    H2 9934   1.348   5.795   5.636
 3324TIP3   OH2 9935   2.370   4.687   2.943
 3324TIP3    H1 9936   2.429   4.614   2.923
 3324TIP3    H2 9937   2.305   4.685   2.873
 3325TIP3   OH2 9938   6.125   4.156   1.450
 3325TIP3    H1 9939   6.130   4.157   1.354
 3325TIP3    H2 9940   6.194   4.096   1.476
 3326TIP3   OH2 9941   1.729   0.543   4.275
 3326TIP3    H1 9942   1.715   0.552   4.369
 3326TIP3    H2 9943   1.651   0.498   4.243
 3327TIP3   OH2 9944   2.192   2.539   3.820
 3327TIP3    H1 9945   2.263   2.474   3.822
 3327TIP3    H2 9946   2.136   2.511   3.748
 3328TIP3   OH2 9947   5.590   0.230   0.395
 3328TIP3    H1 9948   5.598   0.162   0.329
 3328TIP3    H2 9949   5.503   0.267   0.381
 3329TIP3   OH2 9950   0.217   2.419   0.128
 3329TIP3    H1 9951   0.241   2.511   0.143
 3329TIP3    H2 9952   0.298   2.378   0.099
 3330TIP3   OH2 9953   5.204   1.992   0.868
 3330TIP3    H1 9954   5.219   1.897   0.862
 3330TIP3    H2 9955   5.279   2.025   0.918
 3331TIP3   OH2 9956   4.997   2.170   5.414
 3331TIP3    H1 9957   4.909   2.193   5.383
 3331TIP3    H2 9958   5.056   2.227   5.364
 3332TIP3   OH2 9959   0.905   1.982   3.385
 3332TIP3    H1 9960   0.820   1.968   3.426
 3332TIP3    H2 9961   0.909   2.077   3.370
 3333TIP3   OH2 9962   6.363   0.314   2.581
 3333TIP3    H1 9963   6.276   0.343   2.608
 3333TIP3    H2 9964   6.404   0.284   2.662
 3334TIP3   OH2 9965   2.664   1.220   2.464
 3334TIP3    H1 9966   2.707   1.163   2.401
 3334TIP3    H2 9967   2.734   1.278   2.495
 3335TIP3   OH2 9968   6.585   5.857   5.333
 3335TIP3    H1 9969   6.562   5.862   5.425
 3335TIP3    H2 9970   6.506   5.824   5.290
 3336TIP3   OH2 9971   4.108   4.183   2.949
 3336TIP3    H1 9972   4.114   4.121   3.023
 3336TIP3    H2 9973   4.088   4.267   2.990
 3337TIP3   OH2 9974   0.335   4.640   3.148
 3337TIP3    H1 9975   0.416   4.691   3.147
 3337TIP3    H2 9976   0.364   4.549   3.163
 3338TIP3   OH2 9977   2.899   5.911   2.790
 3338TIP3    H1 9978   2.900   5.925   2.696
 3338TIP3    H2 9979   2.827   5.850   2.805
 3339TIP3   OH2 9980   6.809   5.115   3.051
 3339TIP3    H1 9981   6.715   5.112   3.032
 3339TIP3    H2 9982   6.815   5.089   3.143
 3340TIP3   OH2 9983   0.385   4.955   4.231
 3340TIP3    H1 9984   0.409   5.010   4.305
 3340TIP3    H2 9985   0.425   4.998   4.155
 3341TIP3   OH2 9986   4.549   0.902   2.546
 3341TIP3    H1 9987   4.547   0.807   2.537
 3341TIP3    H2 9988   4.631   0.920   2.592
 3342TIP3   OH2 9989   2.913   5.113   3.453
 3342TIP3    H1 9990   2.954   5.071   3.529
 3342TIP3    H2 9991   2.860   5.043   3.413
 3343TIP3   OH2 9992   0.301   4.455   3.472
 3343TIP3    H1 9993   0.339   4.524   3.526
 3343TIP3    H2 9994   0.295   4.379   3.530
 3344TIP3   OH2 9995   1.805   5.684   4.507
 3344TIP3    H1 9996   1.713   5.670   4.529
 3344TIP3    H2 9997   1.845   5.597   4.509
 3345TIP3   OH2 9998   2.283   1.524   2.002
 3345TIP3    H1 9999   2.349   1.501   2.068
 3345TIP3    H210000   2.315   1.485   1.921
 3346TIP3   OH210001   1.416   4.114   5.463
 3346TIP3    H110002   1.488   4.176   5.471
 3346TIP3    H210003   1.458   4.028   5.468
 3347TIP3   OH210004   0.894   5.748   3.320
 3347TIP3    H110005   0.816   5.803   3.331
 3347TIP3    H210006   0.952   5.774   3.392
 3348TIP3   OH210007   2.258   5.349   0.518
 3348TIP3    H110008   2.239   5.261   0.551
 3348TIP3    H210009   2.342   5.372   0.558
 3349TIP3   OH210010   4.265   1.497   2.417
 3349TIP3    H110011   4.338   1.461   2.367
 3349TIP3    H210012   4.250   1.583   2.378
 3350TIP3   OH210013   1.272   2.230   1.848
 3350TIP3    H110014   1.255   2.229   1.754
 3350TIP3    H210015   1.259   2.139   1.876
 3351TIP3   OH210016   2.128   3.664   0.163
 3351TIP3    H110017   2.168   3.588   0.205
 3351TIP3    H210018   2.040   3.635   0.138
 3352TIP3   OH210019   2.097   6.025   5.865
 3352TIP3    H110020   2.109   6.026   5.960
 3352TIP3    H210021   2.003   6.008   5.853
 3353TIP3   OH210022   1.897   5.071   0.991
 3353TIP3    H110023   1.906   5.069   1.086
 3353TIP3    H210024   1.811   5.033   0.974
 3354TIP3   OH210025   6.299   2.564   4.658
 3354TIP3    H110026   6.323   2.646   4.702
 3354TIP3    H210027   6.308   2.497   4.726
 3355TIP3   OH210028   5.483   3.141   0.957
 3355TIP3    H110029   5.401   3.116   0.914
 3355TIP3    H210030   5.539   3.171   0.886
 3356TIP3   OH210031   6.873   0.722   3.662
 3356TIP3    H110032   6.798   0.665   3.649
 3356TIP3    H210033   6.838   0.798   3.709
 3357TIP3   OH210034   0.841   6.428   1.010
 3357TIP3    H110035   0.909   6.483   1.048
 3357TIP3    H210036   0.816   6.369   1.080
 3358TIP3   OH210037   5.821   5.612   5.890
 3358TIP3    H110038   5.820   5.699   5.849
 3358TIP3    H210039   5.842   5.552   5.819
 3359TIP3   OH210040   6.552   4.836   5.036
 3359TIP3    H110041   6.609   4.912   5.045
 3359TIP3    H210042   6.571   4.783   5.113
 3360TIP3   OH210043   5.198   4.623   2.931
 3360TIP3    H110044   5.284   4.587   2.910
 3360TIP3    H210045   5.158   4.641   2.846
 3361TIP3   OH210046   4.867   1.312   2.459
 3361TIP3    H110047   4.892   1.328   2.368
 3361TIP3    H210048   4.774   1.333   2.462
 3362TIP3   OH210049   3.265   4.480   5.722
 3362TIP3    H110050   3.235   4.531   5.646
 3362TIP3    H210051   3.245   4.389   5.699
 3363TIP3   OH210052   6.997   2.437   0.763
 3363TIP3    H110053   6.976   2.478   0.679
 3363TIP3    H210054   6.912   2.430   0.808
 3364TIP3   OH210055   0.514   4.231   1.150
 3364TIP3    H110056   0.591   4.174   1.151
 3364TIP3    H210057   0.504   4.256   1.059
 3365TIP3   OH210058   6.409   2.002   2.028
 3365TIP3    H110059   6.441   2.038   1.945
 3365TIP3    H210060   6.488   1.995   2.082
 3366TIP3   OH210061   4.514   3.623   5.505
 3366TIP3    H110062   4.445   3.683   5.477
 3366TIP3    H210063   4.493   3.541   5.462
 3367TIP3   OH210064   5.953   3.872   5.033
 3367TIP3    H110065   5.909   3.901   4.952
 3367TIP3    H210066   5.989   3.952   5.070
 3368TIP3   OH210067   4.142   2.255   1.820
 3368TIP3    H110068   4.204   2.320   1.854
 3368TIP3    H210069   4.160   2.176   1.870
 3369TIP3   OH210070   4.565   1.428   3.321
 3369TIP3    H110071   4.495   1.480   3.281
 3369TIP3    H210072   4.645   1.460   3.279
 3370TIP3   OH210073   0.443   4.538   5.608
 3370TIP3    H110074   0.365   4.593   5.611
 3370TIP3    H210075   0.416   4.460   5.560
 3371TIP3   OH210076   5.274   0.638   1.467
 3371TIP3    H110077   5.308   0.723   1.494
 3371TIP3    H210078   5.270   0.587   1.548
 3372TIP3   OH210079   3.297   2.131   3.334
 3372TIP3    H110080   3.364   2.177   3.284
 3372TIP3    H210081   3.345   2.069   3.388
 3373TIP3   OH210082   6.061   3.002   5.429
 3373TIP3    H110083   5.966   2.986   5.422
 3373TIP3    H210084   6.067   3.092   5.461
 3374TIP3   OH210085   5.162   5.533   5.358
 3374TIP3    H110086   5.081   5.506   5.314
 3374TIP3    H210087   5.132   5.589   5.430
 3375TIP3   OH210088   5.757   0.127   5.022
 3375TIP3    H110089   5.849   0.145   5.041
 3375TIP3    H210090   5.749   0.032   5.031
 3376TIP3   OH210091   4.530   5.610   1.723
 3376TIP3    H110092   4.541   5.604   1.818
 3376TIP3    H210093   4.616   5.639   1.691
 3377TIP3   OH210094   2.734   5.983   1.335
 3377TIP3    H110095   2.774   6.065   1.362
 3377TIP3    H210096   2.802   5.917   1.349
 3378TIP3   OH210097   0.385   2.570   0.647
 3378TIP3    H110098   0.382   2.526   0.562
 3378TIP3    H210099   0.297   2.561   0.682
 3379TIP3   OH210100   0.429   0.422   5.301
 3379TIP3    H110101   0.361   0.369   5.343
 3379TIP3    H210102   0.441   0.496   5.360
 3380TIP3   OH210103   5.871   4.389   3.848
 3380TIP3    H110104   5.956   4.416   3.816
 3380TIP3    H210105   5.876   4.397   3.943
 3381TIP3   OH210106   1.155   2.261   0.947
 3381TIP3    H110107   1.210   2.334   0.920
 3381TIP3    H210108   1.200   2.222   1.022
 3382TIP3   OH210109   5.698   3.045   2.407
 3382TIP3    H110110   5.734   3.134   2.410
 3382TIP3    H210111   5.646   3.042   2.327
 3383TIP3   OH210112   4.502   6.343   0.371
 3383TIP3    H110113   4.500   6.254   0.407
 3383TIP3    H210114   4.411   6.372   0.374
 3384TIP3   OH210115   1.128   5.546   5.731
 3384TIP3    H110116   1.183   5.489   5.678
 3384TIP3    H210117   1.046   5.497   5.742
 3385TIP3   OH210118   4.999   6.224   0.991
 3385TIP3    H110119   5.074   6.195   1.044
 3385TIP3    H210120   5.037   6.250   0.907
 3386TIP3   OH210121   0.872   1.471   3.018
 3386TIP3    H110122   0.912   1.449   3.103
 3386TIP3    H210123   0.879   1.566   3.013
 3387TIP3   OH210124   1.091   2.732   3.555
 3387TIP3    H110125   1.077   2.790   3.629
 3387TIP3    H210126   1.165   2.676   3.581
 3388TIP3   OH210127   1.330   4.687   4.433
 3388TIP3    H110128   1.387   4.667   4.507
 3388TIP3    H210129   1.244   4.702   4.472
 3389TIP3   OH210130   1.327   0.999   4.362
 3389TIP3    H110131   1.303   1.063   4.428
 3389TIP3    H210132   1.252   0.940   4.357
 3390TIP3   OH210133   5.361   5.393   3.425
 3390TIP3    H110134   5.337   5.467   3.481
 3390TIP3    H210135   5.290   5.329   3.438
 3391TIP3   OH210136   4.690   3.066   3.898
 3391TIP3    H110137   4.706   2.972   3.910
 3391TIP3    H210138   4.776   3.104   3.885
 3392TIP3   OH210139   4.596   0.352   2.568
 3392TIP3    H110140   4.654   0.344   2.493
 3392TIP3    H210141   4.648   0.398   2.634
 3393TIP3   OH210142   1.283   4.659   4.977
 3393TIP3    H110143   1.260   4.749   5.000
 3393TIP3    H210144   1.291   4.614   5.061
 3394TIP3   OH210145   5.183   6.485   3.226
 3394TIP3    H110146   5.205   6.564   3.276
 3394TIP3    H210147   5.261   6.431   3.229
 3395TIP3   OH210148   0.519   6.020   1.407
 3395TIP3    H110149   0.485   5.968   1.334
 3395TIP3    H210150   0.469   6.101   1.405
 3396TIP3   OH210151   7.153   3.162   1.008
 3396TIP3    H110152   7.122   3.105   1.078
 3396TIP3    H210153   7.096   3.142   0.934
 3397TIP3   OH210154   6.261   4.581   1.349
 3397TIP3    H110155   6.241   4.674   1.357
 3397TIP3    H210156   6.245   4.560   1.257
 3398TIP3   OH210157   3.366   3.787   1.143
 3398TIP3    H110158   3.335   3.743   1.222
 3398TIP3    H210159   3.338   3.730   1.072
 3399TIP3   OH210160   5.673   5.698   1.824
 3399TIP3    H110161   5.709   5.753   1.755
 3399TIP3    H210162   5.624   5.630   1.777
 3400TIP3   OH210163   1.133   5.245   0.708
 3400TIP3    H110164   1.215   5.286   0.737
 3400TIP3    H210165   1.081   5.237   0.787
 3401TIP3   OH210166   4.674   2.080   0.816
 3401TIP3    H110167   4.757   2.032   0.825
 3401TIP3    H210168   4.633   2.041   0.738
 3402TIP3   OH210169   6.217   6.563   5.450
 3402TIP3    H110170   6.164   6.587   5.374
 3402TIP3    H210171   6.286   6.508   5.414
 3403TIP3   OH210172   2.010   6.407   5.568
 3403TIP3    H110173   2.036   6.316   5.554
 3403TIP3    H210174   2.065   6.457   5.508
 3404TIP3   OH210175   1.089   4.077   3.037
 3404TIP3    H110176   1.160   4.141   3.046
 3404TIP3    H210177   1.100   4.040   2.950
 3405TIP3   OH210178   2.995   5.415   5.285
 3405TIP3    H110179   2.995   5.320   5.274
 3405TIP3    H210180   3.062   5.433   5.350
 3406TIP3   OH210181   4.596   2.322   2.550
 3406TIP3    H110182   4.628   2.370   2.474
 3406TIP3    H210183   4.580   2.389   2.616
 3407TIP3   OH210184   5.790   3.345   2.654
 3407TIP3    H110185   5.845   3.308   2.584
 3407TIP3    H210186   5.712   3.290   2.655
 3408TIP3   OH210187   1.497   0.125   4.358
 3408TIP3    H110188   1.480   0.087   4.444
 3408TIP3    H210189   1.411   0.153   4.327
 3409TIP3   OH210190   4.179   0.896   2.334
 3409TIP3    H110191   4.251   0.936   2.286
 3409TIP3    H210192   4.203   0.904   2.426
 3410TIP3   OH210193   1.191   3.232   0.882
 3410TIP3    H110194   1.234   3.178   0.815
 3410TIP3    H210195   1.262   3.257   0.941
 3411TIP3   OH210196   5.590   5.126   3.989
 3411TIP3    H110197   5.563   5.167   3.906
 3411TIP3    H210198   5.637   5.194   4.036
 3412TIP3   OH210199   6.399   1.774   2.741
 3412TIP3    H110200   6.475   1.833   2.745
 3412TIP3    H210201   6.414   1.711   2.812
 3413TIP3   OH210202   4.884   5.470   2.853
 3413TIP3    H110203   4.891   5.405   2.782
 3413TIP3    H210204   4.796   5.506   2.845
 3414TIP3   OH210205   3.518   1.362   1.040
 3414TIP3    H110206   3.425   1.371   1.062
 3414TIP3    H210207   3.534   1.268   1.044
 3415TIP3   OH210208   1.215   5.681   2.791
 3415TIP3    H110209   1.269   5.683   2.712
 3415TIP3    H210210   1.253   5.611   2.844
 3416TIP3   OH210211   2.084   4.934   0.849
 3416TIP3    H110212   2.007   4.961   0.898
 3416TIP3    H210213   2.073   4.840   0.835
 3417TIP3   OH210214   0.312   6.167   1.653
 3417TIP3    H110215   0.366   6.113   1.711
 3417TIP3    H210216   0.374   6.200   1.588
 3418TIP3   OH210217   4.860   5.086   5.525
 3418TIP3    H110218   4.844   5.114   5.434
 3418TIP3    H210219   4.822   5.157   5.578
 3419TIP3   OH210220   2.562   0.722   0.293
 3419TIP3    H110221   2.536   0.652   0.353
 3419TIP3    H210222   2.655   0.707   0.277
 3420TIP3   OH210223   5.371   1.421  -0.001
 3420TIP3    H110224   5.279   1.398   0.014
 3420TIP3    H210225   5.405   1.443   0.086
 3421TIP3   OH210226   6.026   4.360   1.140
 3421TIP3    H110227   5.950   4.323   1.187
 3421TIP3    H210228   5.995   4.445   1.108
 3422TIP3   OH210229   2.097   5.357   2.259
 3422TIP3    H110230   2.167   5.397   2.312
 3422TIP3    H210231   2.141   5.327   2.180
 3423TIP3   OH210232   3.522   6.545   1.875
 3423TIP3    H110233   3.444   6.508   1.833
 3423TIP3    H210234   3.489   6.612   1.933
 3424TIP3   OH210235   1.733   6.679   4.160
 3424TIP3    H110236   1.757   6.772   4.160
 3424TIP3    H210237   1.797   6.638   4.102
 3425TIP3   OH210238   3.377   0.652   2.484
 3425TIP3    H110239   3.348   0.630   2.395
 3425TIP3    H210240   3.300   0.690   2.526
 3426TIP3   OH210241   1.264   1.123   2.368
 3426TIP3    H110242   1.289   1.072   2.291
 3426TIP3    H210243   1.181   1.085   2.396
 3427TIP3   OH210244   2.778   1.889   2.045
 3427TIP3    H110245   2.736   1.875   1.960
 3427TIP3    H210246   2.810   1.979   2.042
 3428TIP3   OH210247   1.492   3.148   5.443
 3428TIP3    H110248   1.483   3.235   5.404
 3428TIP3    H210249   1.419   3.098   5.406
 3429TIP3   OH210250   0.141   1.951   3.108
 3429TIP3    H110251   0.220   1.908   3.078
 3429TIP3    H210252   0.116   1.903   3.188
 3430TIP3   OH210253   4.704   2.064   4.111
 3430TIP3    H110254   4.623   2.018   4.089
 3430TIP3    H210255   4.721   2.119   4.035
 3431TIP3   OH210256   3.784   5.482   5.431
 3431TIP3    H110257   3.869   5.471   5.474
 3431TIP3    H210258   3.723   5.432   5.486
 3432TIP3   OH210259   6.604   3.243   1.932
 3432TIP3    H110260   6.531   3.209   1.880
 3432TIP3    H210261   6.633   3.169   1.985
 3433TIP3   OH210262   0.567   4.213   4.307
 3433TIP3    H110263   0.508   4.221   4.232
 3433TIP3    H210264   0.509   4.202   4.382
 3434TIP3   OH210265   4.924   5.068   3.882
 3434TIP3    H110266   4.946   4.977   3.860
 3434TIP3    H210267   4.992   5.120   3.839
 3435TIP3   OH210268   4.683   4.058   3.247
 3435TIP3    H110269   4.705   4.051   3.340
 3435TIP3    H210270   4.764   4.087   3.205
 3436TIP3   OH210271   4.464   3.115   3.058
 3436TIP3    H110272   4.469   3.028   3.096
 3436TIP3    H210273   4.513   3.171   3.119
 3437TIP3   OH210274   6.616   4.430   2.477
 3437TIP3    H110275   6.673   4.459   2.405
 3437TIP3    H210276   6.657   4.466   2.555
 3438TIP3   OH210277   3.996   2.636   0.414
 3438TIP3    H110278   3.950   2.552   0.409
 3438TIP3    H210279   3.934   2.699   0.377
 3439TIP3   OH210280   0.436   0.276   2.022
 3439TIP3    H110281   0.367   0.316   2.074
 3439TIP3    H210282   0.497   0.240   2.087
 3440TIP3   OH210283   5.948   6.224   3.556
 3440TIP3    H110284   5.870   6.188   3.597
 3440TIP3    H210285   5.994   6.148   3.520
 3441TIP3   OH210286   4.402   2.646   2.888
 3441TIP3    H110287   4.323   2.681   2.847
 3441TIP3    H210288   4.377   2.632   2.980
 3442TIP3   OH210289   5.836   0.874   5.651
 3442TIP3    H110290   5.885   0.840   5.577
 3442TIP3    H210291   5.874   0.829   5.727
 3443TIP3   OH210292   1.427   5.608   0.778
 3443TIP3    H110293   1.519   5.620   0.803
 3443TIP3    H210294   1.378   5.621   0.859
 3444TIP3   OH210295   1.457   4.483   0.513
 3444TIP3    H110296   1.467   4.566   0.467
 3444TIP3    H210297   1.484   4.502   0.603
 3445TIP3   OH210298   7.095   1.267   3.804
 3445TIP3    H110299   7.130   1.332   3.865
 3445TIP3    H210300   7.165   1.253   3.741
 3446TIP3   OH210301   2.854   2.251   0.913
 3446TIP3    H110302   2.799   2.317   0.870
 3446TIP3    H210303   2.819   2.246   1.002
 3447TIP3   OH210304   0.129   5.896   3.238
 3447TIP3    H110305   0.155   5.988   3.230
 3447TIP3    H210306   0.043   5.891   3.197
 3448TIP3   OH210307   1.189   2.038   2.187
 3448TIP3    H110308   1.235   1.976   2.244
 3448TIP3    H210309   1.168   2.112   2.245
 3449TIP3   OH210310   4.415   5.125   0.638
 3449TIP3    H110311   4.470   5.096   0.711
 3449TIP3    H210312   4.469   5.108   0.560
 3450TIP3   OH210313   6.455   2.331   5.314
 3450TIP3    H110314   6.527   2.326   5.376
 3450TIP3    H210315   6.388   2.383   5.359
 3451TIP3   OH210316   0.176   2.724   1.341
 3451TIP3    H110317   0.200   2.676   1.421
 3451TIP3    H210318   0.163   2.655   1.275
 3452TIP3   OH210319   0.153   1.078   5.740
 3452TIP3    H110320   0.208   1.004   5.714
 3452TIP3    H210321   0.189   1.107   5.824
 3453TIP3   OH210322   7.096   5.919   4.149
 3453TIP3    H110323   7.017   5.973   4.141
 3453TIP3    H210324   7.108   5.881   4.062
 3454TIP3   OH210325   4.655   1.980   1.085
 3454TIP3    H110326   4.727   2.042   1.102
 3454TIP3    H210327   4.633   1.993   0.993
 3455TIP3   OH210328   2.918   6.663   0.145
 3455TIP3    H110329   2.870   6.589   0.106
 3455TIP3    H210330   2.851   6.713   0.191
 3456TIP3   OH210331   5.729   6.649   3.984
 3456TIP3    H110332   5.810   6.654   4.035
 3456TIP3    H210333   5.730   6.727   3.929
 3457TIP3   OH210334   5.190   3.683   1.182
 3457TIP3    H110335   5.208   3.718   1.095
 3457TIP3    H210336   5.273   3.694   1.229
 3458TIP3   OH210337   0.417   2.935   3.947
 3458TIP3    H110338   0.372   2.993   4.008
 3458TIP3    H210339   0.441   2.991   3.873
 3459TIP3   OH210340   3.009   4.628   3.478
 3459TIP3    H110341   2.922   4.627   3.518
 3459TIP3    H210342   3.030   4.536   3.462
 3460TIP3   OH210343   4.209   5.179   2.697
 3460TIP3    H110344   4.168   5.108   2.649
 3460TIP3    H210345   4.148   5.253   2.688
 3461TIP3   OH210346   4.460   2.938   4.126
 3461TIP3    H110347   4.457   2.892   4.210
 3461TIP3    H210348   4.445   2.868   4.061
 3462TIP3   OH210349   0.973   3.502   2.519
 3462TIP3    H110350   1.042   3.567   2.533
 3462TIP3    H210351   1.019   3.422   2.494
 3463TIP3   OH210352   5.067   0.771   2.164
 3463TIP3    H110353   5.117   0.769   2.083
 3463TIP3    H210354   5.114   0.833   2.220
 3464TIP3   OH210355   2.737   3.825   3.779
 3464TIP3    H110356   2.784   3.754   3.736
 3464TIP3    H210357   2.755   3.902   3.725
 3465TIP3   OH210358   4.930   6.755   1.484
 3465TIP3    H110359   4.915   6.670   1.525
 3465TIP3    H210360   4.871   6.756   1.409
 3466TIP3   OH210361   5.406   0.551   4.544
 3466TIP3    H110362   5.495   0.517   4.555
 3466TIP3    H210363   5.355   0.505   4.611
 3467TIP3   OH210364   4.204   3.435   5.323
 3467TIP3    H110365   4.113   3.416   5.344
 3467TIP3    H210366   4.204   3.527   5.296
 3468TIP3   OH210367   4.284   2.963   4.581
 3468TIP3    H110368   4.309   3.032   4.519
 3468TIP3    H210369   4.213   2.917   4.537
 3469TIP3   OH210370   0.337   3.577   3.791
 3469TIP3    H110371   0.280   3.639   3.746
 3469TIP3    H210372   0.391   3.539   3.722
 3470TIP3   OH210373   1.224   2.658   1.725
 3470TIP3    H110374   1.288   2.692   1.788
 3470TIP3    H210375   1.276   2.618   1.656
 3471TIP3   OH210376   3.838   2.403   1.110
 3471TIP3    H110377   3.851   2.365   1.197
 3471TIP3    H210378   3.773   2.472   1.124
 3472TIP3   OH210379   4.691   4.113   5.411
 3472TIP3    H110380   4.710   4.159   5.494
 3472TIP3    H210381   4.597   4.098   5.413
 3473TIP3   OH210382   3.717   6.500   1.598
 3473TIP3    H110383   3.800   6.545   1.587
 3473TIP3    H210384   3.721   6.462   1.686
 3474TIP3   OH210385   1.739   2.615   0.166
 3474TIP3    H110386   1.669   2.623   0.102
 3474TIP3    H210387   1.805   2.562   0.122
 3475TIP3   OH210388   3.537   6.537   5.775
 3475TIP3    H110389   3.525   6.631   5.760
 3475TIP3    H210390   3.614   6.531   5.831
 3476TIP3   OH210391   3.920   5.563   3.433
 3476TIP3    H110392   3.827   5.585   3.425
 3476TIP3    H210393   3.965   5.628   3.378
 3477TIP3   OH210394   6.274   0.309   4.508
 3477TIP3    H110395   6.316   0.224   4.515
 3477TIP3    H210396   6.301   0.356   4.587
 3478TIP3   OH210397   3.801   1.835   2.581
 3478TIP3    H110398   3.798   1.799   2.492
 3478TIP3    H210399   3.836   1.924   2.570
 3479TIP3   OH210400   3.736   5.674   1.914
 3479TIP3    H110401   3.804   5.613   1.942
 3479TIP3    H210402   3.711   5.644   1.826
 3480TIP3   OH210403   6.701   1.919   5.251
 3480TIP3    H110404   6.743   1.961   5.327
 3480TIP3    H210405   6.694   1.989   5.186
 3481TIP3   OH210406   6.139   3.379   1.827
 3481TIP3    H110407   6.155   3.461   1.872
 3481TIP3    H210408   6.059   3.394   1.777
 3482TIP3   OH210409   4.652   5.023   3.551
 3482TIP3    H110410   4.735   4.993   3.513
 3482TIP3    H210411   4.634   5.106   3.507
 3483TIP3   OH210412   0.683   4.739   2.194
 3483TIP3    H110413   0.684   4.812   2.132
 3483TIP3    H210414   0.622   4.767   2.263
 3484TIP3   OH210415   3.545   4.921   2.711
 3484TIP3    H110416   3.607   4.860   2.671
 3484TIP3    H210417   3.488   4.865   2.764
 3485TIP3   OH210418   1.028   5.952   1.692
 3485TIP3    H110419   1.044   5.876   1.635
 3485TIP3    H210420   0.941   5.937   1.728
 3486TIP3   OH210421   3.733   4.678   1.220
 3486TIP3    H110422   3.693   4.663   1.135
 3486TIP3    H210423   3.659   4.687   1.280
 3487TIP3   OH210424   6.251   2.669   1.231
 3487TIP3    H110425   6.278   2.738   1.170
 3487TIP3    H210426   6.205   2.605   1.176
 3488TIP3   OH210427   3.980   0.921   3.178
 3488TIP3    H110428   4.002   0.861   3.249
 3488TIP3    H210429   4.065   0.945   3.140
 3489TIP3   OH210430   6.184   2.735   4.936
 3489TIP3    H110431   6.202   2.753   4.844
 3489TIP3    H210432   6.166   2.641   4.940
 3490TIP3   OH210433   1.194   4.810   1.153
 3490TIP3    H110434   1.132   4.753   1.108
 3490TIP3    H210435   1.166   4.899   1.130
 3491TIP3   OH210436   1.041   4.773   4.326
 3491TIP3    H110437   1.058   4.694   4.275
 3491TIP3    H210438   1.054   4.746   4.417
 3492TIP3   OH210439   0.561   5.920   5.246
 3492TIP3    H110440   0.581   5.887   5.334
 3492TIP3    H210441   0.640   5.967   5.220
 3493TIP3   OH210442   4.951   2.683   1.446
 3493TIP3    H110443   4.932   2.688   1.352
 3493TIP3    H210444   5.038   2.722   1.455
 3494TIP3   OH210445   1.000   2.835   5.079
 3494TIP3    H110446   0.954   2.751   5.088
 3494TIP3    H210447   1.053   2.825   5.000
 3495TIP3   OH210448   1.684   1.060   4.591
 3495TIP3    H110449   1.682   0.966   4.573
 3495TIP3    H210450   1.748   1.095   4.529
 3496TIP3   OH210451   1.931   3.667   1.440
 3496TIP3    H110452   2.017   3.629   1.457
 3496TIP3    H210453   1.931   3.750   1.488
 3497TIP3   OH210454   6.557   1.769   0.932
 3497TIP3    H110455   6.562   1.790   0.838
 3497TIP3    H210456   6.647   1.750   0.957
 3498TIP3   OH210457   1.426   6.504   4.520
 3498TIP3    H110458   1.428   6.467   4.609
 3498TIP3    H210459   1.482   6.445   4.469
 3499TIP3   OH210460   0.275   4.040   3.502
 3499TIP3    H110461   0.336   4.084   3.443
 3499TIP3    H210462   0.192   4.086   3.490
 3500TIP3   OH210463   0.881   4.033   5.245
 3500TIP3    H110464   0.844   3.964   5.300
 3500TIP3    H210465   0.962   4.059   5.290
 3501TIP3   OH210466   0.729   0.493   3.587
 3501TIP3    H110467   0.767   0.453   3.665
 3501TIP3    H210468   0.753   0.585   3.593
 3502TIP3   OH210469   4.778   1.538   1.941
 3502TIP3    H110470   4.697   1.563   1.897
 3502TIP3    H210471   4.826   1.487   1.876
 3503TIP3   OH210472   7.154   4.461   5.703
 3503TIP3    H110473   7.132   4.453   5.796
 3503TIP3    H210474   7.074   4.492   5.662
 3504TIP3   OH210475   2.284   0.084   4.776
 3504TIP3    H110476   2.249   0.024   4.710
 3504TIP3    H210477   2.213   0.146   4.792
 3505TIP3   OH210478   3.612   4.812   3.242
 3505TIP3    H110479   3.624   4.730   3.193
 3505TIP3    H210480   3.517   4.823   3.246
 3506TIP3   OH210481   6.522   5.103   3.026
 3506TIP3    H110482   6.491   5.142   2.944
 3506TIP3    H210483   6.454   5.039   3.049
 3507TIP3   OH210484   5.556   3.904   0.264
 3507TIP3    H110485   5.570   3.998   0.255
 3507TIP3    H210486   5.478   3.897   0.320
 3508TIP3   OH210487   3.171   6.207   2.138
 3508TIP3    H110488   3.211   6.146   2.076
 3508TIP3    H210489   3.177   6.162   2.223
 3509TIP3   OH210490   6.207   2.000   3.470
 3509TIP3    H110491   6.302   1.989   3.461
 3509TIP3    H210492   6.174   1.987   3.381
 3510TIP3   OH210493   1.032   3.759   3.066
 3510TIP3    H110494   1.116   3.796   3.039
 3510TIP3    H210495   0.967   3.812   3.020
 3511TIP3   OH210496   0.637   6.328   4.948
 3511TIP3    H110497   0.684   6.348   5.029
 3511TIP3    H210498   0.643   6.408   4.897
 3512TIP3   OH210499   2.493   5.841   0.517
 3512TIP3    H110500   2.570   5.887   0.484
 3512TIP3    H210501   2.483   5.874   0.607
 3513TIP3   OH210502   1.495   6.270   5.187
 3513TIP3    H110503   1.576   6.296   5.231
 3513TIP3    H210504   1.442   6.350   5.184
 3514TIP3   OH210505   0.457   1.113   5.227
 3514TIP3    H110506   0.543   1.152   5.241
 3514TIP3    H210507   0.409   1.130   5.308
 3515TIP3   OH210508   2.488   1.436   5.748
 3515TIP3    H110509   2.505   1.404   5.836
 3515TIP3    H210510   2.572   1.427   5.703
 3516TIP3   OH210511   5.990   5.608   4.202
 3516TIP3    H110512   5.961   5.518   4.189
 3516TIP3    H210513   5.909   5.658   4.208
 3517TIP3   OH210514   5.796   3.994   0.079
 3517TIP3    H110515   5.847   3.978   0.158
 3517TIP3    H210516   5.779   3.908   0.043
 3518TIP3   OH210517   5.008   5.479   5.827
 3518TIP3    H110518   5.098   5.453   5.807
 3518TIP3    H210519   4.954   5.433   5.763
 3519TIP3   OH210520   1.560   3.915   2.160
 3519TIP3    H110521   1.561   3.952   2.248
 3519TIP3    H210522   1.487   3.852   2.161
 3520TIP3   OH210523   0.985   0.785   2.622
 3520TIP3    H110524   0.985   0.737   2.705
 3520TIP3    H210525   0.970   0.876   2.647
 3521TIP3   OH210526   5.620   0.276   3.373
 3521TIP3    H110527   5.577   0.199   3.336
 3521TIP3    H210528   5.577   0.288   3.458
 3522TIP3   OH210529   0.094   5.918   2.924
 3522TIP3    H110530   0.001   5.916   2.902
 3522TIP3    H210531   0.134   5.853   2.866
 3523TIP3   OH210532   1.808   4.347   1.611
 3523TIP3    H110533   1.804   4.292   1.533
 3523TIP3    H210534   1.844   4.430   1.579
 3524TIP3   OH210535   4.243   1.012   3.091
 3524TIP3    H110536   4.243   0.917   3.079
 3524TIP3    H210537   4.322   1.030   3.142
 3525TIP3   OH210538   1.481   2.158   5.047
 3525TIP3    H110539   1.495   2.166   5.141
 3525TIP3    H210540   1.401   2.107   5.038
 3526TIP3   OH210541   5.655   4.860   4.011
 3526TIP3    H110542   5.640   4.954   4.022
 3526TIP3    H210543   5.742   4.855   3.972
 3527TIP3   OH210544   5.643   3.048   3.464
 3527TIP3    H110545   5.656   3.071   3.372
 3527TIP3    H210546   5.722   2.999   3.488
 3528TIP3   OH210547   2.399   0.087   0.957
 3528TIP3    H110548   2.328   0.024   0.944
 3528TIP3    H210549   2.477   0.042   0.925
 3529TIP3   OH210550   5.470   6.106   1.114
 3529TIP3    H110551   5.384   6.123   1.152
 3529TIP3    H210552   5.526   6.088   1.190
 3530TIP3   OH210553   2.962   6.447   2.664
 3530TIP3    H110554   2.902   6.376   2.644
 3530TIP3    H210555   3.032   6.406   2.715
 3531TIP3   OH210556   1.176   3.732   3.985
 3531TIP3    H110557   1.114   3.793   3.946
 3531TIP3    H210558   1.146   3.646   3.957
 3532TIP3   OH210559   3.037   3.659   1.881
 3532TIP3    H110560   3.047   3.754   1.871
 3532TIP3    H210561   3.095   3.636   1.953
 3533TIP3   OH210562   4.821   5.515   1.768
 3533TIP3    H110563   4.826   5.466   1.685
 3533TIP3    H210564   4.822   5.606   1.741
 3534TIP3   OH210565   4.233   3.461   0.131
 3534TIP3    H110566   4.262   3.381   0.174
 3534TIP3    H210567   4.286   3.467   0.052
 3535TIP3   OH210568   3.139   5.149   5.606
 3535TIP3    H110569   3.054   5.119   5.573
 3535TIP3    H210570   3.195   5.072   5.599
 3536TIP3   OH210571   4.281   3.701   4.827
 3536TIP3    H110572   4.285   3.757   4.905
 3536TIP3    H210573   4.341   3.629   4.846
 3537TIP3   OH210574   5.225   3.809   0.929
 3537TIP3    H110575   5.319   3.794   0.920
 3537TIP3    H210576   5.188   3.782   0.845
 3538TIP3   OH210577   2.087   6.454   2.615
 3538TIP3    H110578   2.040   6.419   2.691
 3538TIP3    H210579   2.018   6.474   2.552
 3539TIP3   OH210580   1.541   5.701   2.279
 3539TIP3    H110581   1.512   5.792   2.291
 3539TIP3    H210582   1.636   5.707   2.269
 3540TIP3   OH210583   0.227   1.297   1.287
 3540TIP3    H110584   0.284   1.358   1.333
 3540TIP3    H210585   0.284   1.225   1.260
 3541TIP3   OH210586   4.356   0.317   4.615
 3541TIP3    H110587   4.418   0.259   4.659
 3541TIP3    H210588   4.271   0.294   4.654
 3542TIP3   OH210589   1.141   0.255   0.469
 3542TIP3    H110590   1.231   0.232   0.446
 3542TIP3    H210591   1.106   0.294   0.389
 3543TIP3   OH210592   0.512   6.606   3.956
 3543TIP3    H110593   0.571   6.605   3.881
 3543TIP3    H210594   0.523   6.693   3.995
 3544TIP3   OH210595   4.941   5.047   0.385
 3544TIP3    H110596   4.995   4.970   0.405
 3544TIP3    H210597   4.855   5.010   0.365
 3545TIP3   OH210598   4.502   1.251   1.145
 3545TIP3    H110599   4.444   1.184   1.182
 3545TIP3    H210600   4.565   1.269   1.215
 3546TIP3   OH210601   6.886   0.438   3.013
 3546TIP3    H110602   6.974   0.456   2.980
 3546TIP3    H210603   6.831   0.507   2.974
 3547TIP3   OH210604   5.599   3.924   3.782
 3547TIP3    H110605   5.555   3.999   3.822
 3547TIP3    H210606   5.692   3.937   3.803
 3548TIP3   OH210607   4.158   3.578   5.664
 3548TIP3    H110608   4.236   3.523   5.666
 3548TIP3    H210609   4.188   3.663   5.698
 3549TIP3   OH210610   4.901   3.808   2.593
 3549TIP3    H110611   4.846   3.863   2.648
 3549TIP3    H210612   4.966   3.868   2.556
 3550TIP3   OH210613   6.757   4.488   2.803
 3550TIP3    H110614   6.744   4.581   2.823
 3550TIP3    H210615   6.844   4.468   2.836
 3551TIP3   OH210616   3.320   3.338   1.777
 3551TIP3    H110617   3.362   3.421   1.799
 3551TIP3    H210618   3.285   3.351   1.688
 3552TIP3   OH210619   0.688   4.710   0.751
 3552TIP3    H110620   0.607   4.728   0.705
 3552TIP3    H210621   0.755   4.758   0.701
 3553TIP3   OH210622   7.148   2.624   2.518
 3553TIP3    H110623   7.212   2.565   2.559
 3553TIP3    H210624   7.071   2.619   2.574
 3554TIP3   OH210625   2.888   0.121   4.751
 3554TIP3    H110626   2.982   0.129   4.731
 3554TIP3    H210627   2.855   0.210   4.746
 3555TIP3   OH210628   2.745   3.934   5.859
 3555TIP3    H110629   2.672   3.973   5.812
 3555TIP3    H210630   2.728   3.840   5.854
 3556TIP3   OH210631   4.807   4.754   4.556
 3556TIP3    H110632   4.874   4.708   4.506
 3556TIP3    H210633   4.801   4.840   4.516
 3557TIP3   OH210634   5.086   3.780   2.182
 3557TIP3    H110635   5.124   3.754   2.266
 3557TIP3    H210636   5.142   3.851   2.152
 3558TIP3   OH210637   6.863   6.677   3.159
 3558TIP3    H110638   6.853   6.772   3.150
 3558TIP3    H210639   6.944   6.658   3.112
 3559TIP3   OH210640   6.264   1.964   0.676
 3559TIP3    H110641   6.185   2.002   0.639
 3559TIP3    H210642   6.301   2.034   0.730
 3560TIP3   OH210643   4.128   6.700   3.068
 3560TIP3    H110644   4.166   6.774   3.115
 3560TIP3    H210645   4.158   6.623   3.115
 3561TIP3   OH210646   1.534   3.296   0.785
 3561TIP3    H110647   1.614   3.312   0.734
 3561TIP3    H210648   1.463   3.330   0.730
 3562TIP3   OH210649   5.149   1.438   0.157
 3562TIP3    H110650   5.096   1.367   0.191
 3562TIP3    H210651   5.087   1.496   0.113
 3563TIP3   OH210652   2.705   2.390   0.677
 3563TIP3    H110653   2.759   2.319   0.640
 3563TIP3    H210654   2.641   2.409   0.608
 3564TIP3   OH210655   2.314   2.539   4.286
 3564TIP3    H110656   2.355   2.598   4.223
 3564TIP3    H210657   2.376   2.535   4.358
 3565TIP3   OH210658   3.829   3.903   0.704
 3565TIP3    H110659   3.856   3.921   0.614
 3565TIP3    H210660   3.840   3.808   0.713
 3566TIP3   OH210661   6.236   0.056   1.408
 3566TIP3    H110662   6.192   0.126   1.361
 3566TIP3    H210663   6.213  -0.024   1.360
 3567TIP3   OH210664   1.732   1.937   0.408
 3567TIP3    H110665   1.760   1.940   0.500
 3567TIP3    H210666   1.798   1.988   0.361
 3568TIP3   OH210667   4.003   5.779   3.023
 3568TIP3    H110668   3.916   5.743   3.004
 3568TIP3    H210669   4.007   5.859   2.971
 3569TIP3   OH210670   6.680   3.959   5.876
 3569TIP3    H110671   6.728   4.017   5.935
 3569TIP3    H210672   6.748   3.910   5.830
 3570TIP3   OH210673   4.324   2.503   1.856
 3570TIP3    H110674   4.328   2.549   1.772
 3570TIP3    H210675   4.394   2.439   1.853
 3571TIP3   OH210676   5.503   6.483   5.194
 3571TIP3    H110677   5.455   6.513   5.271
 3571TIP3    H210678   5.539   6.563   5.155
 3572TIP3   OH210679   3.839   5.947   1.621
 3572TIP3    H110680   3.797   5.944   1.707
 3572TIP3    H210681   3.898   5.872   1.621
 3573TIP3   OH210682   2.754   4.897   3.354
 3573TIP3    H110683   2.742   4.810   3.317
 3573TIP3    H210684   2.752   4.883   3.449
 3574TIP3   OH210685   5.151   3.767   4.234
 3574TIP3    H110686   5.077   3.813   4.274
 3574TIP3    H210687   5.216   3.835   4.216
 3575TIP3   OH210688   3.488   4.071   2.190
 3575TIP3    H110689   3.430   4.051   2.264
 3575TIP3    H210690   3.564   4.015   2.202
 3576TIP3   OH210691   3.560   1.862   4.354
 3576TIP3    H110692   3.509   1.802   4.299
 3576TIP3    H210693   3.531   1.949   4.328
 3577TIP3   OH210694   1.761   4.352   4.134
 3577TIP3    H110695   1.738   4.445   4.135
 3577TIP3    H210696   1.797   4.337   4.046
 3578TIP3   OH210697   0.890   4.377   5.167
 3578TIP3    H110698   0.978   4.357   5.138
 3578TIP3    H210699   0.876   4.469   5.143
 3579TIP3   OH210700   1.915   3.898   4.644
 3579TIP3    H110701   2.000   3.913   4.685
 3579TIP3    H210702   1.868   3.981   4.654
 3580TIP3   OH210703   3.242   4.057   3.575
 3580TIP3    H110704   3.226   4.008   3.655
 3580TIP3    H210705   3.266   4.145   3.605
 3581TIP3   OH210706   4.085   6.401   4.928
 3581TIP3    H110707   4.077   6.348   4.848
 3581TIP3    H210708   4.135   6.346   4.988
 3582TIP3   OH210709   6.824   1.149   0.545
 3582TIP3    H110710   6.749   1.187   0.499
 3582TIP3    H210711   6.882   1.224   0.561
 3583TIP3   OH210712   4.394   3.551   3.729
 3583TIP3    H110713   4.426   3.483   3.670
 3583TIP3    H210714   4.301   3.530   3.742
 3584TIP3   OH210715   3.147   5.330   3.485
 3584TIP3    H110716   3.063   5.284   3.494
 3584TIP3    H210717   3.158   5.342   3.391
 3585TIP3   OH210718   1.965   3.530   5.205
 3585TIP3    H110719   1.883   3.539   5.253
 3585TIP3    H210720   1.937   3.514   5.114
 3586TIP3   OH210721   5.287   2.354   4.407
 3586TIP3    H110722   5.268   2.360   4.501
 3586TIP3    H210723   5.211   2.309   4.370
 3587TIP3   OH210724   6.639   0.311   1.795
 3587TIP3    H110725   6.653   0.261   1.875
 3587TIP3    H210726   6.549   0.344   1.803
 3588TIP3   OH210727   5.552   3.703   5.884
 3588TIP3    H110728   5.645   3.703   5.861
 3588TIP3    H210729   5.509   3.748   5.811
 3589TIP3   OH210730   0.604   1.130   1.125
 3589TIP3    H110731   0.643   1.164   1.045
 3589TIP3    H210732   0.651   1.048   1.142
 3590TIP3   OH210733   0.158   1.940   1.617
 3590TIP3    H110734   0.151   1.878   1.544
 3590TIP3    H210735   0.219   1.899   1.678
 3591TIP3   OH210736   5.828   2.893   3.577
 3591TIP3    H110737   5.902   2.947   3.605
 3591TIP3    H210738   5.849   2.868   3.487
 3592TIP3   OH210739   0.089   3.718   5.404
 3592TIP3    H110740   0.115   3.763   5.484
 3592TIP3    H210741   0.082   3.626   5.429
 3593TIP3   OH210742   4.161   3.400   3.790
 3593TIP3    H110743   4.183   3.307   3.804
 3593TIP3    H210744   4.162   3.410   3.694
 3594TIP3   OH210745   1.444   0.060   4.897
 3594TIP3    H110746   1.513   0.124   4.880
 3594TIP3    H210747   1.363   0.105   4.876
 3595TIP3   OH210748   5.794   4.487   2.122
 3595TIP3    H110749   5.865   4.546   2.095
 3595TIP3    H210750   5.756   4.530   2.199
 3596TIP3   OH210751   0.896   3.098   0.203
 3596TIP3    H110752   0.919   3.012   0.239
 3596TIP3    H210753   0.833   3.079   0.133
 3597TIP3   OH210754   3.637   2.310   4.181
 3597TIP3    H110755   3.577   2.313   4.107
 3597TIP3    H210756   3.650   2.401   4.206
 3598TIP3   OH210757   5.402   4.792   0.235
 3598TIP3    H110758   5.317   4.833   0.222
 3598TIP3    H210759   5.414   4.737   0.158
 3599TIP3   OH210760   0.087   2.627   4.256
 3599TIP3    H110761   0.175   2.627   4.294
 3599TIP3    H210762   0.029   2.651   4.329
 3600TIP3   OH210763   3.126   0.504   5.358
 3600TIP3    H110764   3.190   0.473   5.422
 3600TIP3    H210765   3.045   0.515   5.409
 3601TIP3   OH210766   1.931   4.688   2.544
 3601TIP3    H110767   1.890   4.753   2.602
 3601TIP3    H210768   1.860   4.660   2.486
 3602TIP3   OH210769   1.431   0.345   0.383
 3602TIP3    H110770   1.468   0.258   0.370
 3602TIP3    H210771   1.477   0.401   0.320
 3603TIP3   OH210772   5.704   6.470   5.372
 3603TIP3    H110773   5.755   6.535   5.324
 3603TIP3    H210774   5.657   6.421   5.304
 3604TIP3   OH210775   3.835   2.780   2.644
 3604TIP3    H110776   3.900   2.786   2.574
 3604TIP3    H210777   3.763   2.835   2.615
 3605TIP3   OH210778   2.874   1.387   3.075
 3605TIP3    H110779   2.955   1.411   3.120
 3605TIP3    H210780   2.896   1.387   2.982
 3606TIP3   OH210781   0.830   2.264   4.467
 3606TIP3    H110782   0.870   2.301   4.389
 3606TIP3    H210783   0.741   2.242   4.440
 3607TIP3   OH210784   3.720   5.552   3.800
 3607TIP3    H110785   3.665   5.572   3.876
 3607TIP3    H210786   3.695   5.619   3.736
 3608TIP3   OH210787   6.162   5.511   0.828
 3608TIP3    H110788   6.237   5.553   0.786
 3608TIP3    H210789   6.196   5.426   0.858
 3609TIP3   OH210790   4.283   1.876   1.279
 3609TIP3    H110791   4.293   1.964   1.243
 3609TIP3    H210792   4.191   1.853   1.262
 3610TIP3   OH210793   7.094   2.432   2.956
 3610TIP3    H110794   7.152   2.508   2.949
 3610TIP3    H210795   7.151   2.361   2.985
 3611TIP3   OH210796   0.408   4.301   3.006
 3611TIP3    H110797   0.434   4.211   3.024
 3611TIP3    H210798   0.401   4.342   3.092
 3612TIP3   OH210799   5.938   2.172   2.763
 3612TIP3    H110800   5.925   2.266   2.780
 3612TIP3    H210801   5.902   2.129   2.840
 3613TIP3   OH210802   5.923   5.150   4.545
 3613TIP3    H110803   5.833   5.183   4.545
 3613TIP3    H210804   5.947   5.144   4.452
 3614TIP3   OH210805   2.002   2.753   4.926
 3614TIP3    H110806   2.089   2.766   4.890
 3614TIP3    H210807   1.946   2.812   4.875
 3615TIP3   OH210808   0.682   4.870   1.728
 3615TIP3    H110809   0.690   4.914   1.813
 3615TIP3    H210810   0.654   4.940   1.668
 3616TIP3   OH210811   1.075   3.290   2.728
 3616TIP3    H110812   1.108   3.265   2.814
 3616TIP3    H210813   1.045   3.380   2.739
 3617TIP3   OH210814   5.055   2.956   3.693
 3617TIP3    H110815   5.128   2.909   3.652
 3617TIP3    H210816   5.040   2.908   3.775
 3618TIP3   OH210817   3.104   3.111   2.118
 3618TIP3    H110818   3.108   3.094   2.212
 3618TIP3    H210819   3.012   3.129   2.100
 3619TIP3   OH210820   0.250   6.103   0.925
 3619TIP3    H110821   0.332   6.126   0.880
 3619TIP3    H210822   0.195   6.180   0.915
 3620TIP3   OH210823   2.039   5.971   2.743
 3620TIP3    H110824   2.032   6.054   2.696
 3620TIP3    H210825   2.106   5.922   2.696
 3621TIP3   OH210826   4.719   0.720   1.983
 3621TIP3    H110827   4.759   0.740   2.067
 3621TIP3    H210828   4.745   0.792   1.926
 3622TIP3   OH210829   0.506   0.724   3.330
 3622TIP3    H110830   0.499   0.776   3.250
 3622TIP3    H210831   0.520   0.634   3.299
 3623TIP3   OH210832   3.659   3.362   2.698
 3623TIP3    H110833   3.618   3.323   2.621
 3623TIP3    H210834   3.646   3.457   2.686
 3624TIP3   OH210835   2.065   6.274   0.969
 3624TIP3    H110836   2.045   6.339   1.037
 3624TIP3    H210837   2.111   6.204   1.016
 3625TIP3   OH210838   5.956   0.182   5.467
 3625TIP3    H110839   5.906   0.249   5.421
 3625TIP3    H210840   5.911   0.100   5.446
 3626TIP3   OH210841   4.189   4.356   0.033
 3626TIP3    H110842   4.184   4.393   0.121
 3626TIP3    H210843   4.260   4.292   0.038
 3627TIP3   OH210844   3.536   1.819   5.083
 3627TIP3    H110845   3.503   1.907   5.100
 3627TIP3    H210846   3.605   1.831   5.017
 3628TIP3   OH210847   2.110   0.330   1.158
 3628TIP3    H110848   2.033   0.278   1.181
 3628TIP3    H210849   2.172   0.314   1.230
 3629TIP3   OH210850   3.665   0.431   3.739
 3629TIP3    H110851   3.635   0.461   3.653
 3629TIP3    H210852   3.596   0.372   3.769
 3630TIP3   OH210853   2.295   0.958   2.588
 3630TIP3    H110854   2.356   0.933   2.519
 3630TIP3    H210855   2.250   1.035   2.553
 3631TIP3   OH210856   6.199   2.849   3.915
 3631TIP3    H110857   6.280   2.798   3.912
 3631TIP3    H210858   6.160   2.837   3.828
 3632TIP3   OH210859   5.856   5.669   4.667
 3632TIP3    H110860   5.940   5.625   4.657
 3632TIP3    H210861   5.875   5.744   4.723
 3633TIP3   OH210862   4.337   4.223   4.788
 3633TIP3    H110863   4.271   4.166   4.749
 3633TIP3    H210864   4.292   4.307   4.800
 3634TIP3   OH210865   2.243   5.645   3.016
 3634TIP3    H110866   2.155   5.607   3.014
 3634TIP3    H210867   2.278   5.619   3.101
 3635TIP3   OH210868   2.619   1.368   4.844
 3635TIP3    H110869   2.652   1.296   4.897
 3635TIP3    H210870   2.578   1.428   4.906
 3636TIP3   OH210871   3.811   2.862   1.714
 3636TIP3    H110872   3.799   2.769   1.698
 3636TIP3    H210873   3.890   2.867   1.768
 3637TIP3   OH210874  -0.021   4.855   4.359
 3637TIP3    H110875   0.006   4.764   4.359
 3637TIP3    H210876   0.055   4.903   4.393
 3638TIP3   OH210877   4.678   1.986   5.374
 3638TIP3    H110878   4.667   2.066   5.425
 3638TIP3    H210879   4.711   2.017   5.289
 3639TIP3   OH210880   3.046   4.479   5.216
 3639TIP3    H110881   3.117   4.486   5.280
 3639TIP3    H210882   3.005   4.395   5.234
 3640TIP3   OH210883   1.142   2.377   2.281
 3640TIP3    H110884   1.166   2.307   2.343
 3640TIP3    H210885   1.047   2.386   2.291
 3641TIP3   OH210886   0.188   4.331   2.149
 3641TIP3    H110887   0.225   4.356   2.065
 3641TIP3    H210888   0.220   4.242   2.164
 3642TIP3   OH210889   7.139   1.992   0.182
 3642TIP3    H110890   7.069   2.058   0.188
 3642TIP3    H210891   7.216   2.042   0.153
 3643TIP3   OH210892   2.762   2.892   2.793
 3643TIP3    H110893   2.712   2.824   2.749
 3643TIP3    H210894   2.835   2.911   2.733
 3644TIP3   OH210895   1.456   3.834   4.447
 3644TIP3    H110896   1.413   3.757   4.483
 3644TIP3    H210897   1.479   3.809   4.358
 3645TIP3   OH210898   4.580   0.604   5.453
 3645TIP3    H110899   4.559   0.576   5.364
 3645TIP3    H210900   4.574   0.700   5.450
 3646TIP3   OH210901   7.094   3.663   3.431
 3646TIP3    H110902   7.141   3.746   3.424
 3646TIP3    H210903   7.161   3.596   3.415
 3647TIP3   OH210904   5.103   0.427   1.300
 3647TIP3    H110905   5.167   0.495   1.323
 3647TIP3    H210906   5.156   0.354   1.268
 3648TIP3   OH210907   1.555   4.350   1.759
 3648TIP3    H110908   1.590   4.421   1.814
 3648TIP3    H210909   1.607   4.354   1.679
 3649TIP3   OH210910   6.360   0.674   3.098
 3649TIP3    H110911   6.319   0.733   3.160
 3649TIP3    H210912   6.352   0.718   3.013
 3650TIP3   OH210913   5.118   1.385   4.611
 3650TIP3    H110914   5.144   1.370   4.702
 3650TIP3    H210915   5.186   1.444   4.576
 3651TIP3   OH210916   2.217   1.583   0.347
 3651TIP3    H110917   2.252   1.498   0.373
 3651TIP3    H210918   2.171   1.566   0.265
 3652TIP3   OH210919   5.590   6.681   3.054
 3652TIP3    H110920   5.568   6.593   3.022
 3652TIP3    H210921   5.528   6.739   3.011
 3653TIP3   OH210922   2.329   3.358   5.791
 3653TIP3    H110923   2.376   3.279   5.818
 3653TIP3    H210924   2.307   3.343   5.699
 3654TIP3   OH210925   2.272   4.972   1.541
 3654TIP3    H110926   2.327   4.949   1.466
 3654TIP3    H210927   2.206   5.032   1.505
 3655TIP3   OH210928   3.162   6.200   2.518
 3655TIP3    H110929   3.165   6.245   2.603
 3655TIP3    H210930   3.252   6.200   2.488
 3656TIP3   OH210931   3.497   1.430   4.780
 3656TIP3    H110932   3.578   1.421   4.829
 3656TIP3    H210933   3.447   1.497   4.827
 3657TIP3   OH210934   1.126   4.581   0.662
 3657TIP3    H110935   1.098   4.543   0.578
 3657TIP3    H210936   1.124   4.508   0.723
 3658TIP3   OH210937   6.049   0.190   1.022
 3658TIP3    H110938   6.097   0.111   1.049
 3658TIP3    H210939   6.010   0.167   0.938
 3659TIP3   OH210940   4.224   4.941   0.769
 3659TIP3    H110941   4.271   5.022   0.750
 3659TIP3    H210942   4.230   4.931   0.864
 3660TIP3   OH210943   0.264   2.677   0.180
 3660TIP3    H110944   0.238   2.701   0.269
 3660TIP3    H210945   0.222   2.743   0.124
 3661TIP3   OH210946   0.994   5.489   4.205
 3661TIP3    H110947   0.933   5.521   4.137
 3661TIP3    H210948   1.001   5.395   4.188
 3662TIP3   OH210949   2.620   4.792   0.609
 3662TIP3    H110950   2.575   4.771   0.691
 3662TIP3    H210951   2.711   4.809   0.636
 3663TIP3   OH210952   6.132   2.399   0.757
 3663TIP3    H110953   6.154   2.489   0.731
 3663TIP3    H210954   6.076   2.367   0.687
 3664TIP3   OH210955   4.376   3.062   3.850
 3664TIP3    H110956   4.284   3.065   3.824
 3664TIP3    H210957   4.408   2.978   3.815
 3665TIP3   OH210958   0.425   3.473   4.424
 3665TIP3    H110959   0.423   3.438   4.513
 3665TIP3    H210960   0.389   3.403   4.369
 3666TIP3   OH210961   0.899   4.689   0.253
 3666TIP3    H110962   0.880   4.702   0.160
 3666TIP3    H210963   0.813   4.695   0.296
 3667TIP3   OH210964   0.132   0.438   4.437
 3667TIP3    H110965   0.122   0.479   4.523
 3667TIP3    H210966   0.060   0.474   4.385
 3668TIP3   OH210967   1.338   3.373   5.806
 3668TIP3    H110968   1.303   3.454   5.771
 3668TIP3    H210969   1.420   3.360   5.759
 3669TIP3   OH210970   1.804   5.383   4.279
 3669TIP3    H110971   1.892   5.396   4.315
 3669TIP3    H210972   1.750   5.363   4.356
 3670TIP3   OH210973   6.854   2.233   5.622
 3670TIP3    H110974   6.858   2.148   5.578
 3670TIP3    H210975   6.836   2.211   5.713
 3671TIP3   OH210976   2.110   5.437   0.304
 3671TIP3    H110977   2.183   5.485   0.267
 3671TIP3    H210978   2.143   5.401   0.387
 3672TIP3   OH210979   7.153   2.754   4.448
 3672TIP3    H110980   7.165   2.843   4.481
 3672TIP3    H210981   7.062   2.750   4.419
 3673TIP3   OH210982   0.278   4.279   3.692
 3673TIP3    H110983   0.279   4.342   3.763
 3673TIP3    H210984   0.351   4.221   3.710
 3674TIP3   OH210985   6.899   0.376   3.292
 3674TIP3    H110986   6.881   0.415   3.207
 3674TIP3    H210987   6.992   0.353   3.290
 3675TIP3   OH210988   3.995   6.338   1.342
 3675TIP3    H110989   3.903   6.326   1.320
 3675TIP3    H210990   4.017   6.261   1.395
 3676TIP3   OH210991   2.340   4.940   2.059
 3676TIP3    H110992   2.309   4.868   2.114
 3676TIP3    H210993   2.350   4.901   1.972
 3677TIP3   OH210994   3.262   5.904   3.134
 3677TIP3    H110995   3.218   5.820   3.126
 3677TIP3    H210996   3.227   5.957   3.062
 3678TIP3   OH210997   6.013   0.429   3.696
 3678TIP3    H110998   6.085   0.399   3.641
 3678TIP3    H210999   5.957   0.352   3.706
 3679TIP3   OH211000   6.422   1.954   1.181
 3679TIP3    H111001   6.484   1.881   1.183
 3679TIP3    H211002   6.353   1.925   1.121
 3680TIP3   OH211003   2.432   2.136   1.413
 3680TIP3    H111004   2.441   2.225   1.378
 3680TIP3    H211005   2.345   2.108   1.386
 3681TIP3   OH211006   4.565   2.984   1.175
 3681TIP3    H111007   4.506   2.929   1.124
 3681TIP3    H211008   4.519   2.999   1.258
 3682TIP3   OH211009   4.767   5.248   5.003
 3682TIP3    H111010   4.827   5.250   4.928
 3682TIP3    H211011   4.680   5.244   4.964
 3683TIP3   OH211012   6.818   1.566   1.907
 3683TIP3    H111013   6.903   1.610   1.903
 3683TIP3    H211014   6.816   1.527   1.994
 3684TIP3   OH211015   7.100   5.173   0.249
 3684TIP3    H111016   7.109   5.079   0.268
 3684TIP3    H211017   7.176   5.194   0.195
 3685TIP3   OH211018   0.597   3.255   1.858
 3685TIP3    H111019   0.602   3.339   1.813
 3685TIP3    H211020   0.508   3.224   1.842
 3686TIP3   OH211021   0.216   3.134   2.846
 3686TIP3    H111022   0.274   3.181   2.786
 3686TIP3    H211023   0.144   3.195   2.863
 3687TIP3   OH211024   7.008   0.484   2.385
 3687TIP3    H111025   7.015   0.567   2.337
 3687TIP3    H211026   6.977   0.509   2.472
 3688TIP3   OH211027   3.424   3.589   0.485
 3688TIP3    H111028   3.502   3.607   0.432
 3688TIP3    H211029   3.451   3.522   0.547
 3689TIP3   OH211030   2.099   0.635   1.620
 3689TIP3    H111031   2.180   0.583   1.619
 3689TIP3    H211032   2.038   0.581   1.671
 3690TIP3   OH211033   0.113   3.769   1.633
 3690TIP3    H111034   0.198   3.735   1.604
 3690TIP3    H211035   0.119   3.770   1.728
 3691TIP3   OH211036   6.017   2.160   5.206
 3691TIP3    H111037   5.962   2.234   5.232
 3691TIP3    H211038   5.996   2.147   5.113
 3692TIP3   OH211039   2.665   3.391   4.542
 3692TIP3    H111040   2.609   3.315   4.526
 3692TIP3    H211041   2.707   3.372   4.626
 3693TIP3   OH211042   7.070   3.829   4.640
 3693TIP3    H111043   6.985   3.785   4.631
 3693TIP3    H211044   7.127   3.762   4.678
 3694TIP3   OH211045   4.754   1.731   0.520
 3694TIP3    H111046   4.684   1.667   0.508
 3694TIP3    H211047   4.818   1.687   0.576
 3695TIP3   OH211048   3.614   0.965   4.210
 3695TIP3    H111049   3.631   0.939   4.300
 3695TIP3    H211050   3.572   1.051   4.217
 3696TIP3   OH211051   4.040   1.240   3.688
 3696TIP3    H111052   4.102   1.283   3.628
 3696TIP3    H211053   4.087   1.236   3.771
 3697TIP3   OH211054   1.957   6.750   2.194
 3697TIP3    H111055   1.948   6.798   2.276
 3697TIP3    H211056   2.051   6.748   2.178
 3698TIP3   OH211057   0.189   4.336   4.809
 3698TIP3    H111058   0.248   4.309   4.880
 3698TIP3    H211059   0.122   4.267   4.807
 3699TIP3   OH211060   5.864   5.717   4.950
 3699TIP3    H111061   5.944   5.680   4.987
 3699TIP3    H211062   5.819   5.643   4.910
 3700TIP3   OH211063   6.891   3.210   0.811
 3700TIP3    H111064   6.811   3.232   0.762
 3700TIP3    H211065   6.929   3.294   0.833
 3701TIP3   OH211066   0.350   5.444   2.397
 3701TIP3    H111067   0.261   5.455   2.365
 3701TIP3    H211068   0.390   5.380   2.339
 3702TIP3   OH211069   6.327   4.534   2.431
 3702TIP3    H111070   6.416   4.512   2.460
 3702TIP3    H211071   6.282   4.560   2.511
 3703TIP3   OH211072   6.437   2.502   0.458
 3703TIP3    H111073   6.425   2.527   0.550
 3703TIP3    H211074   6.531   2.515   0.442
 3704TIP3   OH211075   2.060   1.622   3.988
 3704TIP3    H111076   1.969   1.649   4.000
 3704TIP3    H211077   2.107   1.703   3.966
 3705TIP3   OH211078   3.977   5.330   3.569
 3705TIP3    H111079   3.963   5.387   3.494
 3705TIP3    H211080   3.894   5.334   3.617
 3706TIP3   OH211081   2.123   2.808   0.655
 3706TIP3    H111082   2.153   2.725   0.619
 3706TIP3    H211083   2.203   2.860   0.664
 3707TIP3   OH211084   6.206   5.584   5.817
 3707TIP3    H111085   6.293   5.612   5.787
 3707TIP3    H211086   6.195   5.627   5.901
 3708TIP3   OH211087   2.210   5.699   1.011
 3708TIP3    H111088   2.202   5.742   1.097
 3708TIP3    H211089   2.159   5.753   0.952
 3709TIP3   OH211090   0.207   4.057   4.969
 3709TIP3    H111091   0.256   4.133   5.001
 3709TIP3    H211092   0.131   4.095   4.924
 3710TIP3   OH211093   2.428   1.626   1.253
 3710TIP3    H111094   2.460   1.536   1.257
 3710TIP3    H211095   2.338   1.621   1.285
 3711TIP3   OH211096   6.281   6.275   4.790
 3711TIP3    H111097   6.243   6.273   4.702
 3711TIP3    H211098   6.240   6.201   4.835
 3712TIP3   OH211099   4.370   4.954   5.412
 3712TIP3    H111100   4.448   4.913   5.375
 3712TIP3    H211101   4.404   5.026   5.465
 3713TIP3   OH211102   5.780   3.964   3.439
 3713TIP3    H111103   5.718   3.901   3.476
 3713TIP3    H211104   5.839   3.912   3.386
 3714TIP3   OH211105   5.207   3.703   2.448
 3714TIP3    H111106   5.300   3.682   2.458
 3714TIP3    H211107   5.161   3.626   2.483
 3715TIP3   OH211108   4.832   2.571   2.061
 3715TIP3    H111109   4.849   2.645   2.120
 3715TIP3    H211110   4.753   2.530   2.097
 3716TIP3   OH211111   3.606   3.263   1.941
 3716TIP3    H111112   3.636   3.348   1.908
 3716TIP3    H211113   3.674   3.237   2.004
 3717TIP3   OH211114   1.722   3.215   4.533
 3717TIP3    H111115   1.630   3.186   4.528
 3717TIP3    H211116   1.720   3.294   4.587
 3718TIP3   OH211117   1.007   4.562   3.273
 3718TIP3    H111118   0.996   4.494   3.339
 3718TIP3    H211119   0.983   4.519   3.191
 3719TIP3   OH211120   4.691   4.579   3.374
 3719TIP3    H111121   4.764   4.592   3.436
 3719TIP3    H211122   4.712   4.497   3.330
 3720TIP3   OH211123   1.732   3.122   5.240
 3720TIP3    H111124   1.637   3.124   5.250
 3720TIP3    H211125   1.753   3.030   5.226
 3721TIP3   OH211126   0.132   1.786   4.112
 3721TIP3    H111127   0.049   1.745   4.136
 3721TIP3    H211128   0.128   1.874   4.150
 3722TIP3   OH211129   4.162   6.840   2.233
 3722TIP3    H111130   4.166   6.819   2.326
 3722TIP3    H211131   4.120   6.764   2.193
 3723TIP3   OH211132   0.866   2.680   1.564
 3723TIP3    H111133   0.783   2.706   1.603
 3723TIP3    H211134   0.852   2.589   1.538
 3724TIP3   OH211135   0.198   0.257   5.072
 3724TIP3    H111136   0.238   0.200   5.006
 3724TIP3    H211137   0.232   0.344   5.053
 3725TIP3   OH211138   4.916   0.722   5.107
 3725TIP3    H111139   4.888   0.630   5.107
 3725TIP3    H211140   4.935   0.741   5.199
 3726TIP3   OH211141   0.719   3.014   1.666
 3726TIP3    H111142   0.785   3.035   1.732
 3726TIP3    H211143   0.641   2.989   1.717
 3727TIP3   OH211144   1.736   3.391   0.569
 3727TIP3    H111145   1.765   3.460   0.509
 3727TIP3    H211146   1.808   3.328   0.569
 3728TIP3   OH211147   4.452   5.277   5.082
 3728TIP3    H111148   4.389   5.301   5.014
 3728TIP3    H211149   4.462   5.182   5.072
 3729TIP3   OH211150   4.601   3.357   3.934
 3729TIP3    H111151   4.561   3.444   3.931
 3729TIP3    H211152   4.667   3.359   3.864
 3730TIP3   OH211153   6.188   2.931   2.085
 3730TIP3    H111154   6.151   2.886   2.161
 3730TIP3    H211155   6.192   2.865   2.017
 3731TIP3   OH211156   5.538   5.432   0.857
 3731TIP3    H111157   5.584   5.353   0.886
 3731TIP3    H211158   5.451   5.425   0.897
 3732TIP3   OH211159   3.311   6.371   4.355
 3732TIP3    H111160   3.344   6.382   4.444
 3732TIP3    H211161   3.295   6.459   4.323
 3733TIP3   OH211162   4.830   2.929   5.128
 3733TIP3    H111163   4.786   3.011   5.148
 3733TIP3    H211164   4.759   2.867   5.110
 3734TIP3   OH211165   5.388   5.171   4.459
 3734TIP3    H111166   5.323   5.110   4.495
 3734TIP3    H211167   5.391   5.150   4.365
 3735TIP3   OH211168   3.307   1.632   0.978
 3735TIP3    H111169   3.345   1.656   1.063
 3735TIP3    H211170   3.251   1.706   0.956
 3736TIP3   OH211171   0.790   5.324   5.122
 3736TIP3    H111172   0.752   5.236   5.112
 3736TIP3    H211173   0.716   5.383   5.110
 3737TIP3   OH211174   5.501   0.919   3.106
 3737TIP3    H111175   5.461   0.834   3.127
 3737TIP3    H211176   5.580   0.896   3.056
 3738TIP3   OH211177   3.032   3.112   4.001
 3738TIP3    H111178   2.958   3.090   3.944
 3738TIP3    H211179   3.063   3.197   3.970
 3739TIP3   OH211180   5.928   4.916   5.066
 3739TIP3    H111181   5.873   4.989   5.038
 3739TIP3    H211182   5.906   4.845   5.005
 3740TIP3   OH211183   5.790   4.543   1.344
 3740TIP3    H111184   5.757   4.459   1.316
 3740TIP3    H211185   5.764   4.604   1.276
 3741TIP3   OH211186   1.141   3.690   0.673
 3741TIP3    H111187   1.089   3.701   0.752
 3741TIP3    H211188   1.086   3.639   0.614
 3742TIP3   OH211189   5.353   6.474   3.485
 3742TIP3    H111190   5.437   6.430   3.472
 3742TIP3    H211191   5.366   6.563   3.453
 3743TIP3   OH211192   3.683   2.821   3.418
 3743TIP3    H111193   3.646   2.908   3.432
 3743TIP3    H211194   3.776   2.836   3.403
 3744TIP3   OH211195   3.736   6.647   2.293
 3744TIP3    H111196   3.829   6.666   2.291
 3744TIP3    H211197   3.721   6.591   2.217
 3745TIP3   OH211198   3.725   3.949   2.235
 3745TIP3    H111199   3.807   3.911   2.267
 3745TIP3    H211200   3.743   3.970   2.143
 3746TIP3   OH211201   1.263   6.023   3.884
 3746TIP3    H111202   1.270   6.056   3.974
 3746TIP3    H211203   1.332   5.957   3.876
 3747TIP3   OH211204   3.218   3.008   5.242
 3747TIP3    H111205   3.127   3.021   5.270
 3747TIP3    H211206   3.216   2.926   5.193
 3748TIP3   OH211207   6.443   6.077   5.139
 3748TIP3    H111208   6.409   6.165   5.127
 3748TIP3    H211209   6.397   6.044   5.217
 3749TIP3   OH211210   5.834   6.051   4.701
 3749TIP3    H111211   5.872   6.139   4.702
 3749TIP3    H211212   5.807   6.036   4.792
 3750TIP3   OH211213   5.781   3.054   1.640
 3750TIP3    H111214   5.855   3.067   1.579
 3750TIP3    H211215   5.740   3.140   1.646
 3751TIP3   OH211216   4.503   1.563   0.700
 3751TIP3    H111217   4.519   1.479   0.658
 3751TIP3    H211218   4.469   1.619   0.629
 3752TIP3   OH211219   6.371   0.247   2.975
 3752TIP3    H111220   6.305   0.232   2.907
 3752TIP3    H211221   6.445   0.287   2.929
 3753TIP3   OH211222   6.318   6.765   2.771
 3753TIP3    H111223   6.266   6.688   2.747
 3753TIP3    H211224   6.391   6.729   2.821
 3754TIP3   OH211225   2.965   2.533   1.055
 3754TIP3    H111226   2.993   2.538   0.964
 3754TIP3    H211227   2.951   2.440   1.071
 3755TIP3   OH211228   4.258   2.803   5.444
 3755TIP3    H111229   4.348   2.833   5.452
 3755TIP3    H211230   4.265   2.712   5.415
 3756TIP3   OH211231   2.604   0.758   5.760
 3756TIP3    H111232   2.681   0.793   5.805
 3756TIP3    H211233   2.601   0.666   5.784
 3757TIP3   OH211234   6.346   5.251   4.702
 3757TIP3    H111235   6.415   5.304   4.742
 3757TIP3    H211236   6.267   5.272   4.753
 3758TIP3   OH211237   2.206   5.647   4.592
 3758TIP3    H111238   2.154   5.702   4.650
 3758TIP3    H211239   2.293   5.645   4.634
 3759TIP3   OH211240   6.185   4.422   1.564
 3759TIP3    H111241   6.183   4.479   1.487
 3759TIP3    H211242   6.163   4.335   1.529
 3760TIP3   OH211243   1.892   2.753   3.820
 3760TIP3    H111244   1.947   2.754   3.741
 3760TIP3    H211245   1.955   2.747   3.892
 3761TIP3   OH211246   0.187   4.320   1.059
 3761TIP3    H111247   0.172   4.410   1.089
 3761TIP3    H211248   0.221   4.275   1.136
 3762TIP3   OH211249   0.148   3.730   2.448
 3762TIP3    H111250   0.114   3.733   2.359
 3762TIP3    H211251   0.243   3.735   2.438
 3763TIP3   OH211252   3.868   2.984   3.709
 3763TIP3    H111253   3.875   3.010   3.617
 3763TIP3    H211254   3.788   2.931   3.713
 3764TIP3   OH211255   0.503   3.737   0.476
 3764TIP3    H111256   0.479   3.794   0.402
 3764TIP3    H211257   0.584   3.775   0.509
 3765TIP3   OH211258   0.287   2.067   5.414
 3765TIP3    H111259   0.194   2.079   5.394
 3765TIP3    H211260   0.293   2.075   5.509
 3766TIP3   OH211261   3.405   2.282   1.889
 3766TIP3    H111262   3.473   2.219   1.863
 3766TIP3    H211263   3.417   2.356   1.829
 3767TIP3   OH211264   5.473   0.586   3.560
 3767TIP3    H111265   5.564   0.617   3.555
 3767TIP3    H211266   5.440   0.595   3.471
 3768TIP3   OH211267   2.507   4.201   0.936
 3768TIP3    H111268   2.416   4.230   0.939
 3768TIP3    H211269   2.512   4.143   0.860
 3769TIP3   OH211270   1.895   1.206   4.453
 3769TIP3    H111271   1.962   1.267   4.485
 3769TIP3    H211272   1.837   1.261   4.400
 3770TIP3   OH211273   1.773   5.045   5.165
 3770TIP3    H111274   1.864   5.074   5.174
 3770TIP3    H211275   1.770   4.961   5.212
 3771TIP3   OH211276   3.157   1.271   0.231
 3771TIP3    H111277   3.109   1.337   0.281
 3771TIP3    H211278   3.089   1.220   0.188
 3772TIP3   OH211279   4.000   3.145   1.178
 3772TIP3    H111280   3.909   3.118   1.165
 3772TIP3    H211281   4.051   3.068   1.151
 3773TIP3   OH211282   1.951   2.459   0.104
 3773TIP3    H111283   2.023   2.457   0.167
 3773TIP3    H211284   1.970   2.387   0.044
 3774TIP3   OH211285   4.219   5.224   1.654
 3774TIP3    H111286   4.307   5.261   1.652
 3774TIP3    H211287   4.207   5.193   1.743
 3775TIP3   OH211288   0.742   5.065   4.468
 3775TIP3    H111289   0.723   5.159   4.465
 3775TIP3    H211290   0.790   5.048   4.387
 3776TIP3   OH211291   4.072   0.610   5.199
 3776TIP3    H111292   4.164   0.584   5.204
 3776TIP3    H211293   4.069   0.695   5.243
 3777TIP3   OH211294   4.204   4.086   1.746
 3777TIP3    H111295   4.198   4.019   1.678
 3777TIP3    H211296   4.114   4.100   1.775
 3778TIP3   OH211297   7.029   5.302   5.357
 3778TIP3    H111298   6.936   5.316   5.339
 3778TIP3    H211299   7.033   5.274   5.449
 3779TIP3   OH211300   5.492   3.807   0.840
 3779TIP3    H111301   5.479   3.875   0.775
 3779TIP3    H211302   5.559   3.749   0.802
 3780TIP3   OH211303   4.778   0.401   4.496
 3780TIP3    H111304   4.796   0.320   4.543
 3780TIP3    H211305   4.786   0.378   4.403
 3781TIP3   OH211306   0.578   1.615   2.471
 3781TIP3    H111307   0.571   1.571   2.386
 3781TIP3    H211308   0.536   1.554   2.532
 3782TIP3   OH211309   0.223   5.666   4.739
 3782TIP3    H111310   0.218   5.570   4.738
 3782TIP3    H211311   0.317   5.685   4.744
 3783TIP3   OH211312   3.147   6.013   5.265
 3783TIP3    H111313   3.205   5.967   5.326
 3783TIP3    H211314   3.156   6.105   5.289
 3784TIP3   OH211315   3.504   4.470   2.391
 3784TIP3    H111316   3.444   4.540   2.417
 3784TIP3    H211317   3.583   4.516   2.363
 3785TIP3   OH211318   7.145   6.620   3.378
 3785TIP3    H111319   7.218   6.600   3.437
 3785TIP3    H211320   7.172   6.700   3.333
 3786TIP3   OH211321   4.575   5.962   0.762
 3786TIP3    H111322   4.484   5.990   0.752
 3786TIP3    H211323   4.626   6.041   0.742
 3787TIP3   OH211324   2.357   0.524   4.272
 3787TIP3    H111325   2.424   0.462   4.240
 3787TIP3    H211326   2.282   0.469   4.294
 3788TIP3   OH211327   3.364   1.751   0.211
 3788TIP3    H111328   3.362   1.756   0.115
 3788TIP3    H211329   3.289   1.697   0.233
 3789TIP3   OH211330   3.366   5.959   1.299
 3789TIP3    H111331   3.359   5.874   1.342
 3789TIP3    H211332   3.452   5.993   1.325
 3790TIP3   OH211333   7.127   2.761   0.560
 3790TIP3    H111334   7.066   2.817   0.512
 3790TIP3    H211335   7.072   2.711   0.620
 3791TIP3   OH211336   2.165   5.856   3.237
 3791TIP3    H111337   2.074   5.881   3.253
 3791TIP3    H211338   2.182   5.883   3.147
 3792TIP3   OH211339   2.896   6.753   4.120
 3792TIP3    H111340   2.812   6.744   4.076
 3792TIP3    H211341   2.960   6.756   4.049
 3793TIP3   OH211342   3.217   5.498   5.870
 3793TIP3    H111343   3.154   5.487   5.799
 3793TIP3    H211344   3.188   5.577   5.916
 3794TIP3   OH211345   5.235   0.949   0.423
 3794TIP3    H111346   5.233   0.983   0.513
 3794TIP3    H211347   5.272   0.861   0.433
 3795TIP3   OH211348   7.072   3.233   0.092
 3795TIP3    H111349   7.014   3.219   0.017
 3795TIP3    H211350   7.065   3.327   0.109
 3796TIP3   OH211351   5.889   0.728   2.359
 3796TIP3    H111352   5.923   0.777   2.433
 3796TIP3    H211353   5.899   0.636   2.383
 3797TIP3   OH211354   3.945   6.580   0.588
 3797TIP3    H111355   3.876   6.601   0.525
 3797TIP3    H211356   3.981   6.496   0.557
 3798TIP3   OH211357   1.633   4.827   0.121
 3798TIP3    H111358   1.597   4.799   0.037
 3798TIP3    H211359   1.720   4.786   0.124
 3799TIP3   OH211360   2.393   2.741   2.328
 3799TIP3    H111361   2.314   2.794   2.313
 3799TIP3    H211362   2.386   2.713   2.419
 3800TIP3   OH211363   2.159   0.766   2.397
 3800TIP3    H111364   2.245   0.801   2.423
 3800TIP3    H211365   2.178   0.712   2.320
 3801TIP3   OH211366   5.256   5.648   2.626
 3801TIP3    H111367   5.241   5.738   2.598
 3801TIP3    H211368   5.196   5.596   2.572
 3802TIP3   OH211369   6.446   5.344   3.182
 3802TIP3    H111370   6.483   5.341   3.270
 3802TIP3    H211371   6.505   5.291   3.129
 3803TIP3   OH211372   2.229   4.364   1.231
 3803TIP3    H111373   2.309   4.323   1.262
 3803TIP3    H211374   2.217   4.440   1.288
 3804TIP3   OH211375   4.964   2.024   4.564
 3804TIP3    H111376   4.906   1.954   4.594
 3804TIP3    H211377   4.925   2.054   4.482
 3805TIP3   OH211378   7.077   0.186   2.728
 3805TIP3    H111379   7.147   0.238   2.689
 3805TIP3    H211380   7.042   0.134   2.655
 3806TIP3   OH211381   7.037   3.046   1.265
 3806TIP3    H111382   7.106   3.008   1.320
 3806TIP3    H211383   6.997   3.114   1.319
 3807TIP3   OH211384   3.710   6.016   5.488
 3807TIP3    H111385   3.620   5.986   5.501
 3807TIP3    H211386   3.764   5.942   5.513
 3808TIP3   OH211387   5.333   0.868   1.577
 3808TIP3    H111388   5.403   0.864   1.642
 3808TIP3    H211389   5.261   0.912   1.622
 3809TIP3   OH211390   5.102   5.968   0.033
 3809TIP3    H111391   5.177   5.949  -0.023
 3809TIP3    H211392   5.057   5.885   0.042
 3810TIP3   OH211393   3.386   5.559   3.314
 3810TIP3    H111394   3.330   5.494   3.271
 3810TIP3    H211395   3.428   5.510   3.385
 3811TIP3   OH211396   3.637   5.535   2.739
 3811TIP3    H111397   3.679   5.461   2.695
 3811TIP3    H211398   3.583   5.494   2.807
 3812TIP3   OH211399   2.737   1.170   2.849
 3812TIP3    H111400   2.686   1.107   2.899
 3812TIP3    H211401   2.672   1.231   2.813
 3813TIP3   OH211402   1.215   1.624   2.407
 3813TIP3    H111403   1.243   1.535   2.391
 3813TIP3    H211404   1.178   1.622   2.495
 3814TIP3   OH211405   6.027   0.855   0.037
 3814TIP3    H111406   5.983   0.796  -0.024
 3814TIP3    H211407   5.958   0.884   0.096
 3815TIP3   OH211408   5.528   0.070   3.236
 3815TIP3    H111409   5.550   0.001   3.174
 3815TIP3    H211410   5.459   0.032   3.291
 3816TIP3   OH211411   2.083   6.337   5.866
 3816TIP3    H111412   2.092   6.241   5.873
 3816TIP3    H211413   2.128   6.359   5.784
 3817TIP3   OH211414   6.708   4.588   3.978
 3817TIP3    H111415   6.630   4.619   4.024
 3817TIP3    H211416   6.738   4.663   3.928
 3818TIP3   OH211417   3.486   6.387   0.228
 3818TIP3    H111418   3.506   6.403   0.321
 3818TIP3    H211419   3.544   6.447   0.181
 3819TIP3   OH211420   2.842   5.561   1.131
 3819TIP3    H111421   2.836   5.632   1.195
 3819TIP3    H211422   2.753   5.549   1.099
 3820TIP3   OH211423   1.053   5.997   0.404
 3820TIP3    H111424   0.966   5.958   0.416
 3820TIP3    H211425   1.105   5.929   0.363
 3821TIP3   OH211426   0.482   6.698   1.958
 3821TIP3    H111427   0.570   6.702   1.920
 3821TIP3    H211428   0.425   6.737   1.891
 3822TIP3   OH211429   3.407   5.180   3.213
 3822TIP3    H111430   3.418   5.113   3.145
 3822TIP3    H211431   3.496   5.197   3.243
 3823TIP3   OH211432   2.789   4.298   2.493
 3823TIP3    H111433   2.870   4.345   2.475
 3823TIP3    H211434   2.731   4.321   2.421
 3824TIP3   OH211435   1.644   6.208   3.321
 3824TIP3    H111436   1.672   6.258   3.398
 3824TIP3    H211437   1.726   6.181   3.280
 3825TIP3   OH211438   5.064   2.235   2.572
 3825TIP3    H111439   5.026   2.245   2.485
 3825TIP3    H211440   5.068   2.324   2.607
 3826TIP3   OH211441   4.048   2.163   5.389
 3826TIP3    H111442   3.983   2.093   5.380
 3826TIP3    H211443   3.997   2.240   5.415
 3827TIP3   OH211444   7.019   6.639   0.514
 3827TIP3    H111445   6.992   6.712   0.457
 3827TIP3    H211446   7.090   6.675   0.567
 3828TIP3   OH211447   5.990   2.163   1.194
 3828TIP3    H111448   6.053   2.179   1.264
 3828TIP3    H211449   5.977   2.068   1.196
 3829TIP3   OH211450   0.541   2.376   0.479
 3829TIP3    H111451   0.582   2.393   0.394
 3829TIP3    H211452   0.609   2.394   0.543
 3830TIP3   OH211453   2.363   6.652   0.517
 3830TIP3    H111454   2.406   6.591   0.458
 3830TIP3    H211455   2.296   6.695   0.463
 3831TIP3   OH211456   2.569   1.612   0.162
 3831TIP3    H111457   2.530   1.637   0.246
 3831TIP3    H211458   2.499   1.567   0.116
 3832TIP3   OH211459   0.991   4.182   4.351
 3832TIP3    H111460   1.002   4.237   4.428
 3832TIP3    H211461   1.052   4.109   4.364
 3833TIP3   OH211462   6.013   5.956   5.277
 3833TIP3    H111463   5.928   5.998   5.266
 3833TIP3    H211464   5.994   5.862   5.268
 3834TIP3   OH211465   6.651   5.216   0.838
 3834TIP3    H111466   6.575   5.186   0.789
 3834TIP3    H211467   6.719   5.231   0.772
 3835TIP3   OH211468   6.846   1.287   1.347
 3835TIP3    H111469   6.930   1.241   1.340
 3835TIP3    H211470   6.859   1.349   1.419
 3836TIP3   OH211471   5.624   5.436   5.198
 3836TIP3    H111472   5.588   5.416   5.112
 3836TIP3    H211473   5.565   5.502   5.234
 3837TIP3   OH211474   0.259   5.011   5.268
 3837TIP3    H111475   0.263   4.957   5.189
 3837TIP3    H211476   0.230   5.097   5.237
 3838TIP3   OH211477   4.884   3.548   2.810
 3838TIP3    H111478   4.807   3.601   2.830
 3838TIP3    H211479   4.863   3.461   2.843
 3839TIP3   OH211480   6.537   4.114   3.884
 3839TIP3    H111481   6.600   4.182   3.908
 3839TIP3    H211482   6.576   4.033   3.915
 3840TIP3   OH211483   6.922   0.356   0.988
 3840TIP3    H111484   7.014   0.336   1.006
 3840TIP3    H211485   6.921   0.386   0.897
 3841TIP3   OH211486   4.406   3.936  -0.042
 3841TIP3    H111487   4.482   3.918   0.014
 3841TIP3    H211488   4.437   4.003  -0.103
 3842TIP3   OH211489   3.894   0.836   0.439
 3842TIP3    H111490   3.966   0.825   0.501
 3842TIP3    H211491   3.922   0.908   0.382
 3843TIP3   OH211492   4.119   2.971   3.201
 3843TIP3    H111493   4.087   2.895   3.249
 3843TIP3    H211494   4.214   2.957   3.196
 3844TIP3   OH211495   6.526   4.960   4.174
 3844TIP3    H111496   6.560   4.989   4.089
 3844TIP3    H211497   6.573   5.013   4.238
 3845TIP3   OH211498   5.520   2.026   5.431
 3845TIP3    H111499   5.466   2.105   5.442
 3845TIP3    H211500   5.497   1.971   5.505
 3846TIP3   OH211501   0.416   2.003   4.291
 3846TIP3    H111502   0.461   2.067   4.346
 3846TIP3    H211503   0.483   1.940   4.268
 3847TIP3   OH211504   2.646   6.862   4.355
 3847TIP3    H111505   2.566   6.813   4.332
 3847TIP3    H211506   2.653   6.930   4.288
 3848TIP3   OH211507   4.876   3.400   3.222
 3848TIP3    H111508   4.967   3.379   3.242
 3848TIP3    H211509   4.826   3.359   3.292
 3849TIP3   OH211510   5.129   6.098   3.924
 3849TIP3    H111511   5.035   6.100   3.908
 3849TIP3    H211512   5.143   6.161   3.995
 3850TIP3   OH211513   3.777   5.344   2.581
 3850TIP3    H111514   3.799   5.284   2.510
 3850TIP3    H211515   3.856   5.347   2.635
 3851TIP3   OH211516   5.898   6.793   4.432
 3851TIP3    H111517   5.809   6.823   4.447
 3851TIP3    H211518   5.892   6.698   4.434
 3852TIP3   OH211519   3.656   1.109   1.912
 3852TIP3    H111520   3.618   1.094   1.825
 3852TIP3    H211521   3.600   1.175   1.952
 3853TIP3   OH211522   1.051   4.603   1.023
 3853TIP3    H111523   1.029   4.534   1.086
 3853TIP3    H211524   0.967   4.642   0.999
 3854TIP3   OH211525   6.919   2.247   0.467
 3854TIP3    H111526   6.857   2.292   0.524
 3854TIP3    H211527   6.933   2.162   0.508
 3855TIP3   OH211528   4.625   3.324   5.807
 3855TIP3    H111529   4.718   3.303   5.803
 3855TIP3    H211530   4.589   3.266   5.874
 3856TIP3   OH211531   6.526   4.293   5.164
 3856TIP3    H111532   6.437   4.263   5.183
 3856TIP3    H211533   6.557   4.331   5.246
 3857TIP3   OH211534   6.456   6.746   3.253
 3857TIP3    H111535   6.511   6.817   3.285
 3857TIP3    H211536   6.459   6.680   3.323
 3858TIP3   OH211537   0.660   1.338   2.444
 3858TIP3    H111538   0.611   1.277   2.498
 3858TIP3    H211539   0.740   1.355   2.493
 3859TIP3   OH211540   5.751   3.666   5.162
 3859TIP3    H111541   5.797   3.738   5.119
 3859TIP3    H211542   5.797   3.654   5.245
 3860TIP3   OH211543   4.118   3.820   4.132
 3860TIP3    H111544   4.190   3.773   4.175
 3860TIP3    H211545   4.098   3.767   4.055
 3861TIP3   OH211546   1.006   2.582   4.524
 3861TIP3    H111547   0.918   2.584   4.485
 3861TIP3    H211548   1.036   2.492   4.509
 3862TIP3   OH211549   6.476   4.693   4.125
 3862TIP3    H111550   6.484   4.643   4.206
 3862TIP3    H211551   6.484   4.784   4.152
 3863TIP3   OH211552   0.517   0.620   5.466
 3863TIP3    H111553   0.456   0.687   5.435
 3863TIP3    H211554   0.594   0.670   5.494
 3864TIP3   OH211555   5.508   3.226   4.926
 3864TIP3    H111556   5.547   3.306   4.959
 3864TIP3    H211557   5.567   3.156   4.954
 3865TIP3   OH211558   0.690   3.627   2.964
 3865TIP3    H111559   0.616   3.615   3.024
 3865TIP3    H211560   0.686   3.551   2.906
 3866TIP3   OH211561   6.367   2.714   2.357
 3866TIP3    H111562   6.427   2.766   2.410
 3866TIP3    H211563   6.280   2.737   2.390
 3867TIP3   OH211564   4.549   3.366   4.566
 3867TIP3    H111565   4.617   3.299   4.566
 3867TIP3    H211566   4.516   3.367   4.656
 3868TIP3   OH211567   5.208   4.158   4.394
 3868TIP3    H111568   5.168   4.243   4.376
 3868TIP3    H211569   5.146   4.114   4.452
 3869TIP3   OH211570   0.565   3.304   5.758
 3869TIP3    H111571   0.572   3.336   5.848
 3869TIP3    H211572   0.499   3.234   5.763
 3870TIP3   OH211573   1.614   2.808   1.792
 3870TIP3    H111574   1.540   2.800   1.851
 3870TIP3    H211575   1.690   2.785   1.845
 3871TIP3   OH211576   5.310   2.070   0.529
 3871TIP3    H111577   5.247   1.999   0.517
 3871TIP3    H211578   5.276   2.120   0.603
 3872TIP3   OH211579   5.349   1.257   1.506
 3872TIP3    H111580   5.429   1.309   1.518
 3872TIP3    H211581   5.300   1.303   1.438
 3873TIP3   OH211582   5.192   1.297   4.868
 3873TIP3    H111583   5.263   1.359   4.884
 3873TIP3    H211584   5.115   1.336   4.909
 3874TIP3   OH211585   0.790   2.652   3.603
 3874TIP3    H111586   0.881   2.681   3.599
 3874TIP3    H211587   0.743   2.728   3.636
 3875TIP3   OH211588   1.672   5.877   3.246
 3875TIP3    H111589   1.627   5.867   3.162
 3875TIP3    H211590   1.701   5.968   3.246
 3876TIP3   OH211591   1.513   6.140   3.056
 3876TIP3    H111592   1.547   6.194   3.127
 3876TIP3    H211593   1.502   6.201   2.983
 3877TIP3   OH211594   2.232   6.705   2.131
 3877TIP3    H111595   2.303   6.768   2.120
 3877TIP3    H211596   2.275   6.627   2.166
 3878TIP3   OH211597   3.145   0.464   2.603
 3878TIP3    H111598   3.088   0.429   2.536
 3878TIP3    H211599   3.128   0.558   2.602
 3879TIP3   OH211600   0.886   4.533   5.613
 3879TIP3    H111601   0.935   4.543   5.695
 3879TIP3    H211602   0.911   4.446   5.581
 3880TIP3   OH211603   5.430   4.239   0.189
 3880TIP3    H111604   5.492   4.233   0.262
 3880TIP3    H211605   5.372   4.311   0.212
 3881TIP3   OH211606   2.047   1.004   4.626
 3881TIP3    H111607   2.060   1.064   4.552
 3881TIP3    H211608   2.062   1.059   4.703
 3882TIP3   OH211609   6.682   6.596   0.209
 3882TIP3    H111610   6.711   6.537   0.139
 3882TIP3    H211611   6.708   6.683   0.178
 3883TIP3   OH211612   2.393   0.287   0.682
 3883TIP3    H111613   2.411   0.195   0.661
 3883TIP3    H211614   2.327   0.284   0.751
 3884TIP3   OH211615   5.052   1.953   3.083
 3884TIP3    H111616   5.031   1.955   2.989
 3884TIP3    H211617   4.984   1.899   3.122
 3885TIP3   OH211618   2.788   6.125   4.144
 3885TIP3    H111619   2.802   6.218   4.161
 3885TIP3    H211620   2.859   6.081   4.190
 3886TIP3   OH211621   5.141   0.692   0.107
 3886TIP3    H111622   5.211   0.757   0.108
 3886TIP3    H211623   5.063   0.741   0.083
 3887TIP3   OH211624   3.258   3.719   4.717
 3887TIP3    H111625   3.260   3.666   4.797
 3887TIP3    H211626   3.337   3.694   4.670
 3888TIP3   OH211627   2.058   4.648   3.542
 3888TIP3    H111628   1.987   4.666   3.603
 3888TIP3    H211629   2.115   4.725   3.549
 3889TIP3   OH211630   2.114   1.702   3.229
 3889TIP3    H111631   2.117   1.797   3.236
 3889TIP3    H211632   2.109   1.672   3.320
 3890TIP3   OH211633   0.304   0.951   4.751
 3890TIP3    H111634   0.331   0.878   4.806
 3890TIP3    H211635   0.341   1.028   4.793
 3891TIP3   OH211636   3.707   5.301   3.704
 3891TIP3    H111637   3.724   5.264   3.791
 3891TIP3    H211638   3.712   5.395   3.717
 3892TIP3   OH211639   1.527   0.394   1.338
 3892TIP3    H111640   1.439   0.396   1.300
 3892TIP3    H211641   1.520   0.331   1.410
 3893TIP3   OH211642   0.128   6.138   1.405
 3893TIP3    H111643   0.079   6.064   1.443
 3893TIP3    H211644   0.176   6.175   1.479
 3894TIP3   OH211645   3.228   4.184   2.746
 3894TIP3    H111646   3.238   4.219   2.657
 3894TIP3    H211647   3.135   4.160   2.752
 3895TIP3   OH211648   5.830   1.447   4.154
 3895TIP3    H111649   5.812   1.519   4.214
 3895TIP3    H211650   5.924   1.431   4.163
 3896TIP3   OH211651   6.181   4.757   0.142
 3896TIP3    H111652   6.261   4.805   0.164
 3896TIP3    H211653   6.111   4.820   0.153
 3897TIP3   OH211654   6.888   5.054   4.664
 3897TIP3    H111655   6.803   5.092   4.642
 3897TIP3    H211656   6.901   4.985   4.600
 3898TIP3   OH211657   4.991   5.209   4.171
 3898TIP3    H111658   5.070   5.222   4.224
 3898TIP3    H211659   5.024   5.198   4.082
 3899TIP3   OH211660   6.273   0.845   1.417
 3899TIP3    H111661   6.201   0.797   1.376
 3899TIP3    H211662   6.342   0.845   1.351
 3900TIP3   OH211663   5.988   1.691   5.318
 3900TIP3    H111664   6.017   1.757   5.255
 3900TIP3    H211665   6.035   1.713   5.399
 3901TIP3   OH211666   0.802   2.902   1.311
 3901TIP3    H111667   0.867   2.876   1.376
 3901TIP3    H211668   0.721   2.857   1.337
 3902TIP3   OH211669   3.466   5.528   4.609
 3902TIP3    H111670   3.477   5.488   4.523
 3902TIP3    H211671   3.519   5.474   4.668
 3903TIP3   OH211672   2.123   3.728   2.999
 3903TIP3    H111673   2.205   3.777   3.004
 3903TIP3    H211674   2.082   3.743   3.084
 3904TIP3   OH211675   7.043   2.295   5.413
 3904TIP3    H111676   7.065   2.376   5.458
 3904TIP3    H211677   6.969   2.259   5.463
 3905TIP3   OH211678   2.069   2.159   4.482
 3905TIP3    H111679   2.010   2.085   4.466
 3905TIP3    H211680   2.014   2.224   4.526
 3906TIP3   OH211681   5.032   4.375   4.416
 3906TIP3    H111682   4.974   4.452   4.414
 3906TIP3    H211683   4.998   4.322   4.488
 3907TIP3   OH211684   7.035   0.845   3.467
 3907TIP3    H111685   6.971   0.834   3.537
 3907TIP3    H211686   7.035   0.939   3.450
 3908TIP3   OH211687   3.476   4.268   4.208
 3908TIP3    H111688   3.386   4.236   4.199
 3908TIP3    H211689   3.525   4.222   4.140
 3909TIP3   OH211690   2.191   4.636   2.052
 3909TIP3    H111691   2.159   4.651   1.963
 3909TIP3    H211692   2.261   4.572   2.042
 3910TIP3   OH211693   3.208   2.458   2.102
 3910TIP3    H111694   3.165   2.410   2.173
 3910TIP3    H211695   3.247   2.389   2.048
 3911TIP3   OH211696   6.736   3.342   3.801
 3911TIP3    H111697   6.787   3.400   3.858
 3911TIP3    H211698   6.680   3.293   3.861
 3912TIP3   OH211699   2.203   0.117   2.635
 3912TIP3    H111700   2.294   0.102   2.610
 3912TIP3    H211701   2.168   0.029   2.650
 3913TIP3   OH211702   1.562   6.081   0.522
 3913TIP3    H111703   1.490   6.019   0.533
 3913TIP3    H211704   1.521   6.158   0.482
 3914TIP3   OH211705   5.653   3.416   5.074
 3914TIP3    H111706   5.688   3.338   5.118
 3914TIP3    H211707   5.714   3.486   5.099
 3915TIP3   OH211708   1.872   2.576   1.496
 3915TIP3    H111709   1.837   2.525   1.569
 3915TIP3    H211710   1.796   2.625   1.463
 3916TIP3   OH211711   2.995   2.371   0.614
 3916TIP3    H111712   2.926   2.321   0.571
 3916TIP3    H211713   3.068   2.370   0.552
 3917TIP3   OH211714   2.678   1.166   3.910
 3917TIP3    H111715   2.668   1.137   4.001
 3917TIP3    H211716   2.650   1.258   3.911
 3918TIP3   OH211717   1.210   0.643   5.697
 3918TIP3    H111718   1.139   0.606   5.749
 3918TIP3    H211719   1.285   0.644   5.755
 3919TIP3   OH211720   4.265   1.649   3.622
 3919TIP3    H111721   4.349   1.641   3.667
 3919TIP3    H211722   4.226   1.729   3.658
 3920TIP3   OH211723   5.316   6.541   4.879
 3920TIP3    H111724   5.315   6.447   4.894
 3920TIP3    H211725   5.304   6.580   4.966
 3921TIP3   OH211726   3.520   4.217   0.995
 3921TIP3    H111727   3.601   4.269   0.994
 3921TIP3    H211728   3.451   4.281   1.011
 3922TIP3   OH211729   1.703   1.617   0.580
 3922TIP3    H111730   1.694   1.709   0.604
 3922TIP3    H211731   1.783   1.589   0.624
 3923TIP3   OH211732   2.967   0.668   1.122
 3923TIP3    H111733   2.922   0.703   1.046
 3923TIP3    H211734   2.943   0.726   1.194
 3924TIP3   OH211735   4.606   3.004   5.842
 3924TIP3    H111736   4.630   2.911   5.839
 3924TIP3    H211737   4.641   3.035   5.925
 3925TIP3   OH211738   6.967   6.089   1.519
 3925TIP3    H111739   7.042   6.032   1.499
 3925TIP3    H211740   6.901   6.029   1.553
 3926TIP3   OH211741   2.904   3.467   5.674
 3926TIP3    H111742   2.948   3.388   5.643
 3926TIP3    H211743   2.815   3.460   5.640
 3927TIP3   OH211744   3.990   3.253   0.198
 3927TIP3    H111745   3.946   3.338   0.193
 3927TIP3    H211746   3.925   3.189   0.170
 3928TIP3   OH211747   4.887   4.612   2.245
 3928TIP3    H111748   4.964   4.625   2.299
 3928TIP3    H211749   4.870   4.518   2.249
 3929TIP3   OH211750   3.279   4.157   3.106
 3929TIP3    H111751   3.363   4.112   3.102
 3929TIP3    H211752   3.230   4.111   3.174
 3930TIP3   OH211753   4.398   1.274   2.248
 3930TIP3    H111754   4.426   1.248   2.160
 3930TIP3    H211755   4.303   1.281   2.242
 3931TIP3   OH211756   1.539   4.602   1.156
 3931TIP3    H111757   1.488   4.618   1.235
 3931TIP3    H211758   1.630   4.603   1.185
 3932TIP3   OH211759   5.664   1.660   5.227
 3932TIP3    H111760   5.715   1.672   5.307
 3932TIP3    H211761   5.580   1.700   5.246
 3933TIP3   OH211762   5.854   5.751   2.930
 3933TIP3    H111763   5.904   5.761   3.011
 3933TIP3    H211764   5.763   5.747   2.960
 3934TIP3   OH211765   1.025   1.001   0.224
 3934TIP3    H111766   0.992   1.031   0.308
 3934TIP3    H211767   1.104   1.052   0.209
 3935TIP3   OH211768   6.084   0.812   2.579
 3935TIP3    H111769   6.040   0.897   2.580
 3935TIP3    H211770   6.177   0.833   2.579
 3936TIP3   OH211771   6.167   3.917   4.177
 3936TIP3    H111772   6.136   3.837   4.134
 3936TIP3    H211773   6.110   3.926   4.254
 3937TIP3   OH211774   6.823   3.097   1.056
 3937TIP3    H111775   6.869   3.151   0.992
 3937TIP3    H211776   6.889   3.077   1.122
 3938TIP3   OH211777   1.951   1.716   4.437
 3938TIP3    H111778   1.992   1.744   4.355
 3938TIP3    H211779   1.965   1.790   4.496
 3939TIP3   OH211780   1.139   6.426   2.081
 3939TIP3    H111781   1.227   6.426   2.045
 3939TIP3    H211782   1.122   6.335   2.103
 3940TIP3   OH211783   2.888   4.280   5.316
 3940TIP3    H111784   2.916   4.194   5.285
 3940TIP3    H211785   2.879   4.270   5.411
 3941TIP3   OH211786   5.417   3.382   5.505
 3941TIP3    H111787   5.325   3.408   5.512
 3941TIP3    H211788   5.466   3.457   5.537
 3942TIP3   OH211789   0.306   2.550   2.430
 3942TIP3    H111790   0.252   2.544   2.351
 3942TIP3    H211791   0.319   2.459   2.457
 3943TIP3   OH211792   4.949   2.296   4.459
 3943TIP3    H111793   4.873   2.286   4.517
 3943TIP3    H211794   5.021   2.318   4.518
 3944TIP3   OH211795   4.015   5.439   5.563
 3944TIP3    H111796   4.011   5.357   5.612
 3944TIP3    H211797   4.098   5.479   5.588
 3945TIP3   OH211798   4.565   0.877   5.465
 3945TIP3    H111799   4.568   0.963   5.422
 3945TIP3    H211800   4.627   0.884   5.537
 3946TIP3   OH211801   5.941   0.494   5.627
 3946TIP3    H111802   5.860   0.456   5.593
 3946TIP3    H211803   5.944   0.467   5.719
 3947TIP3   OH211804   4.526   2.299   5.790
 3947TIP3    H111805   4.442   2.257   5.771
 3947TIP3    H211806   4.505   2.393   5.794
 3948TIP3   OH211807   1.466   3.045   3.604
 3948TIP3    H111808   1.560   3.032   3.599
 3948TIP3    H211809   1.453   3.100   3.681
 3949TIP3   OH211810   3.013  -0.081   1.311
 3949TIP3    H111811   2.972  -0.141   1.248
 3949TIP3    H211812   2.941  -0.030   1.347
 3950TIP3   OH211813   2.615   0.213   3.529
 3950TIP3    H111814   2.601   0.118   3.532
 3950TIP3    H211815   2.609   0.241   3.620
 3951TIP3   OH211816   5.069   1.642   0.757
 3951TIP3    H111817   5.011   1.597   0.819
 3951TIP3    H211818   5.104   1.572   0.703
 3952TIP3   OH211819   3.665   4.993   3.716
 3952TIP3    H111820   3.680   5.053   3.643
 3952TIP3    H211821   3.570   4.990   3.726
 3953TIP3   OH211822   5.601   0.256   2.271
 3953TIP3    H111823   5.552   0.207   2.337
 3953TIP3    H211824   5.681   0.206   2.258
 3954TIP3   OH211825   6.863   5.343   3.327
 3954TIP3    H111826   6.777   5.365   3.362
 3954TIP3    H211827   6.897   5.426   3.293
 3955TIP3   OH211828   2.348   6.322   4.216
 3955TIP3    H111829   2.418   6.274   4.259
 3955TIP3    H211830   2.340   6.280   4.130
 3956TIP3   OH211831   1.951   2.796   1.638
 3956TIP3    H111832   1.873   2.851   1.644
 3956TIP3    H211833   1.917   2.709   1.616
 3957TIP3   OH211834   5.746   1.749   2.643
 3957TIP3    H111835   5.672   1.757   2.703
 3957TIP3    H211836   5.823   1.751   2.700
 3958TIP3   OH211837   1.628   1.120   2.249
 3958TIP3    H111838   1.572   1.067   2.191
 3958TIP3    H211839   1.580   1.202   2.259
 3959TIP3   OH211840   0.169   0.789   3.308
 3959TIP3    H111841   0.200   0.702   3.334
 3959TIP3    H211842   0.086   0.773   3.263
 3960TIP3   OH211843   2.506   1.772   3.497
 3960TIP3    H111844   2.515   1.863   3.469
 3960TIP3    H211845   2.596   1.744   3.516
 3961TIP3   OH211846   1.106   3.806   2.735
 3961TIP3    H111847   1.114   3.815   2.640
 3961TIP3    H211848   1.045   3.734   2.748
 3962TIP3   OH211849   5.389   5.842   0.237
 3962TIP3    H111850   5.414   5.821   0.147
 3962TIP3    H211851   5.404   5.760   0.285
 3963TIP3   OH211852   3.044   3.665   5.176
 3963TIP3    H111853   2.957   3.691   5.144
 3963TIP3    H211854   3.036   3.670   5.272
 3964TIP3   OH211855   2.853   1.195   4.347
 3964TIP3    H111856   2.938   1.239   4.356
 3964TIP3    H211857   2.807   1.246   4.280
 3965TIP3   OH211858   6.490   1.573   3.575
 3965TIP3    H111859   6.407   1.598   3.616
 3965TIP3    H211860   6.481   1.479   3.559
 3966TIP3   OH211861   6.813   3.784   5.612
 3966TIP3    H111862   6.773   3.743   5.535
 3966TIP3    H211863   6.901   3.808   5.584
 3967TIP3   OH211864   4.964   1.048   1.044
 3967TIP3    H111865   4.873   1.064   1.071
 3967TIP3    H211866   4.960   1.042   0.949
 3968TIP3   OH211867   0.333   6.201   0.548
 3968TIP3    H111868   0.289   6.218   0.631
 3968TIP3    H211869   0.393   6.275   0.537
 3969TIP3   OH211870   1.134   0.683   1.818
 3969TIP3    H111871   1.201   0.743   1.786
 3969TIP3    H211872   1.140   0.687   1.913
 3970TIP3   OH211873   2.322   1.609   3.055
 3970TIP3    H111874   2.278   1.622   3.139
 3970TIP3    H211875   2.268   1.657   2.992
 3971TIP3   OH211876   3.857   5.867   2.087
 3971TIP3    H111877   3.796   5.811   2.040
 3971TIP3    H211878   3.834   5.956   2.060
 3972TIP3   OH211879   6.030   6.785   3.202
 3972TIP3    H111880   5.953   6.793   3.145
 3972TIP3    H211881   6.029   6.693   3.229
 3973TIP3   OH211882   0.739   1.239   2.086
 3973TIP3    H111883   0.823   1.220   2.045
 3973TIP3    H211884   0.685   1.275   2.015
 3974TIP3   OH211885   5.963   0.210   2.559
 3974TIP3    H111886   5.980   0.134   2.615
 3974TIP3    H211887   5.871   0.229   2.572
 3975TIP3   OH211888   5.298   4.889   2.722
 3975TIP3    H111889   5.319   4.921   2.810
 3975TIP3    H211890   5.302   4.968   2.667
 3976TIP3   OH211891   4.203   3.888   1.567
 3976TIP3    H111892   4.112   3.879   1.541
 3976TIP3    H211893   4.252   3.836   1.504
 3977TIP3   OH211894   2.385   1.165   0.210
 3977TIP3    H111895   2.294   1.137   0.207
 3977TIP3    H211896   2.416   1.157   0.119
 3978TIP3   OH211897   6.446   1.538   4.339
 3978TIP3    H111898   6.474   1.627   4.364
 3978TIP3    H211899   6.488   1.522   4.255
 3979TIP3   OH211900   5.217   2.123   3.629
 3979TIP3    H111901   5.230   2.140   3.536
 3979TIP3    H211902   5.210   2.028   3.635
 3980TIP3   OH211903   1.990   1.544   2.294
 3980TIP3    H111904   1.917   1.603   2.279
 3980TIP3    H211905   2.049   1.592   2.353
 3981TIP3   OH211906   1.656   1.382   0.348
 3981TIP3    H111907   1.751   1.376   0.358
 3981TIP3    H211908   1.632   1.463   0.393
 3982TIP3   OH211909   0.462   3.937   4.824
 3982TIP3    H111910   0.474   4.032   4.829
 3982TIP3    H211911   0.478   3.906   4.913
 3983TIP3   OH211912   3.177   5.217   0.907
 3983TIP3    H111913   3.249   5.270   0.874
 3983TIP3    H211914   3.098   5.262   0.877
 3984TIP3   OH211915   0.826   1.832   2.625
 3984TIP3    H111916   0.784   1.751   2.653
 3984TIP3    H211917   0.766   1.870   2.561
 3985TIP3   OH211918   5.124   1.149   2.186
 3985TIP3    H111919   5.034   1.181   2.192
 3985TIP3    H211920   5.138   1.101   2.268
 3986TIP3   OH211921   0.107   3.497   3.356
 3986TIP3    H111922   0.176   3.560   3.378
 3986TIP3    H211923   0.153   3.417   3.333
 3987TIP3   OH211924   3.982   2.496   5.566
 3987TIP3    H111925   3.904   2.518   5.516
 3987TIP3    H211926   3.950   2.447   5.641
 3988TIP3   OH211927   5.095   0.899   5.754
 3988TIP3    H111928   5.186   0.924   5.764
 3988TIP3    H211929   5.098   0.806   5.732
 3989TIP3   OH211930  -0.009   5.015   5.446
 3989TIP3    H111931  -0.022   4.965   5.365
 3989TIP3    H211932   0.040   5.092   5.419
 3990TIP3   OH211933   5.517   2.799   3.293
 3990TIP3    H111934   5.583   2.792   3.224
 3990TIP3    H211935   5.544   2.736   3.360
 3991TIP3   OH211936   1.926   5.893   2.984
 3991TIP3    H111937   1.914   5.799   2.993
 3991TIP3    H211938   1.946   5.906   2.891
 3992TIP3   OH211939   4.880   0.454   5.223
 3992TIP3    H111940   4.950   0.432   5.162
 3992TIP3    H211941   4.894   0.394   5.297
 3993TIP3   OH211942   7.190   3.744   2.737
 3993TIP3    H111943   7.155   3.804   2.803
 3993TIP3    H211944   7.158   3.779   2.654
 3994TIP3   OH211945   6.381   2.794   4.428
 3994TIP3    H111946   6.352   2.750   4.348
 3994TIP3    H211947   6.452   2.740   4.461
 3995TIP3   OH211948   2.703   5.727   2.562
 3995TIP3    H111949   2.678   5.816   2.541
 3995TIP3    H211950   2.799   5.728   2.561
 3996TIP3   OH211951   7.138   5.466   0.399
 3996TIP3    H111952   7.182   5.422   0.326
 3996TIP3    H211953   7.053   5.422   0.404
 3997TIP3   OH211954   5.243   6.543   1.456
 3997TIP3    H111955   5.259   6.596   1.378
 3997TIP3    H211956   5.330   6.515   1.484
 3998TIP3   OH211957   5.282   1.504   5.456
 3998TIP3    H111958   5.222   1.485   5.528
 3998TIP3    H211959   5.353   1.441   5.467
 3999TIP3   OH211960   3.010   2.530   3.155
 3999TIP3    H111961   2.973   2.602   3.104
 3999TIP3    H211962   3.040   2.571   3.236
 4000TIP3   OH211963   4.147   2.754   0.073
 4000TIP3    H111964   4.084   2.715   0.012
 4000TIP3    H211965   4.221   2.693   0.071
 4001TIP3   OH211966   3.907   6.413   0.112
 4001TIP3    H111967   3.898   6.411   0.017
 4001TIP3    H211968   3.936   6.325   0.135
 4002TIP3   OH211969   3.629   1.061   0.351
 4002TIP3    H111970   3.586   1.003   0.414
 4002TIP3    H211971   3.574   1.054   0.272
 4003TIP3   OH211972   3.359   4.293   5.181
 4003TIP3    H111973   3.326   4.208   5.153
 4003TIP3    H211974   3.335   4.298   5.274
 4004TIP3   OH211975   1.366   6.340   2.421
 4004TIP3    H111976   1.275   6.332   2.446
 4004TIP3    H211977   1.384   6.434   2.425
 4005TIP3   OH211978   4.091   1.332   1.775
 4005TIP3    H111979   4.165   1.278   1.805
 4005TIP3    H211980   4.014   1.278   1.793
 4006TIP3   OH211981   3.439   3.451   5.055
 4006TIP3    H111982   3.505   3.403   5.105
 4006TIP3    H211983   3.414   3.392   4.984
 4007TIP3   OH211984   5.165   2.182   5.684
 4007TIP3    H111985   5.116   2.152   5.607
 4007TIP3    H211986   5.248   2.216   5.648
 4008TIP3   OH211987   4.983   6.852   4.537
 4008TIP3    H111988   4.887   6.847   4.545
 4008TIP3    H211989   5.015   6.778   4.588
 4009TIP3   OH211990   5.823   6.703   5.255
 4009TIP3    H111991   5.898   6.649   5.231
 4009TIP3    H211992   5.850   6.747   5.335
 4010TIP3   OH211993   6.698   3.701   3.844
 4010TIP3    H111994   6.723   3.611   3.866
 4010TIP3    H211995   6.649   3.693   3.762
 4011TIP3   OH211996   1.164   3.392   1.200
 4011TIP3    H111997   1.069   3.403   1.209
 4011TIP3    H211998   1.174   3.311   1.149
 4012TIP3   OH211999   6.064   1.127   3.334
 4012TIP3    H112000   5.983   1.114   3.384
 4012TIP3    H212001   6.042   1.195   3.271
 4013TIP3   OH212002   5.616   4.386   4.122
 4013TIP3    H112003   5.650   4.475   4.124
 4013TIP3    H212004   5.650   4.345   4.202
 4014TIP3   OH212005   5.309   0.818   2.007
 4014TIP3    H112006   5.325   0.724   1.994
 4014TIP3    H212007   5.361   0.841   2.084
 4015TIP3   OH212008   6.142   0.532   5.028
 4015TIP3    H112009   6.098   0.550   5.111
 4015TIP3    H212010   6.084   0.472   4.981
 4016TIP3   OH212011   0.937   5.064   0.830
 4016TIP3    H112012   0.976   4.999   0.772
 4016TIP3    H212013   0.854   5.088   0.788
 4017TIP3   OH212014   6.787   4.824   0.209
 4017TIP3    H112015   6.809   4.732   0.194
 4017TIP3    H212016   6.742   4.851   0.129
 4018TIP3   OH212017   6.802   6.672   3.475
 4018TIP3    H112018   6.829   6.677   3.383
 4018TIP3    H212019   6.837   6.589   3.506
 4019TIP3   OH212020   5.624   3.831   5.434
 4019TIP3    H112021   5.607   3.926   5.436
 4019TIP3    H212022   5.709   3.821   5.476
 4020TIP3   OH212023   1.454   1.579   2.167
 4020TIP3    H112024   1.415   1.510   2.220
 4020TIP3    H212025   1.386   1.602   2.104
 4021TIP3   OH212026   5.108   2.180   0.700
 4021TIP3    H112027   5.140   2.117   0.764
 4021TIP3    H212028   5.027   2.214   0.738
 4022TIP3   OH212029   2.373   0.493   0.537
 4022TIP3    H112030   2.387   0.452   0.452
 4022TIP3    H212031   2.381   0.421   0.599
 4023TIP3   OH212032   4.899   1.060   3.362
 4023TIP3    H112033   4.808   1.090   3.360
 4023TIP3    H212034   4.908   1.013   3.445
 4024TIP3   OH212035   6.272   4.889   5.808
 4024TIP3    H112036   6.178   4.901   5.816
 4024TIP3    H212037   6.309   4.976   5.823
 4025TIP3   OH212038   5.990   3.415   0.684
 4025TIP3    H112039   5.976   3.477   0.612
 4025TIP3    H212040   6.043   3.464   0.747
 4026TIP3   OH212041   3.485   6.383   4.583
 4026TIP3    H112042   3.561   6.345   4.539
 4026TIP3    H212043   3.522   6.443   4.648
 4027TIP3   OH212044   1.634   2.677   1.418
 4027TIP3    H112045   1.604   2.762   1.385
 4027TIP3    H212046   1.565   2.649   1.477
 4028TIP3   OH212047   2.386   2.418   1.341
 4028TIP3    H112048   2.293   2.429   1.362
 4028TIP3    H212049   2.423   2.505   1.351
 4029TIP3   OH212050   1.859   5.991   0.988
 4029TIP3    H112051   1.936   5.998   0.933
 4029TIP3    H212052   1.892   5.962   1.073
 4030TIP3   OH212053   2.409   0.753   4.696
 4030TIP3    H112054   2.468   0.690   4.737
 4030TIP3    H212055   2.463   0.797   4.630
 4031TIP3   OH212056   6.016   1.014   4.658
 4031TIP3    H112057   5.965   0.940   4.691
 4031TIP3    H212058   5.955   1.062   4.601
 4032TIP3   OH212059   5.391   6.438   0.505
 4032TIP3    H112060   5.301   6.463   0.484
 4032TIP3    H212061   5.387   6.410   0.596
 4033TIP3   OH212062   2.125   1.000   1.995
 4033TIP3    H112063   2.201   1.029   1.945
 4033TIP3    H212064   2.102   0.915   1.956
 4034TIP3   OH212065   2.889   0.382   4.688
 4034TIP3    H112066   2.946   0.421   4.621
 4034TIP3    H212067   2.801   0.412   4.665
 4035TIP3   OH212068   5.498   4.054   1.010
 4035TIP3    H112069   5.440   4.009   0.949
 4035TIP3    H212070   5.483   4.147   0.993
 4036TIP3   OH212071   5.062   4.193   0.457
 4036TIP3    H112072   5.033   4.281   0.431
 4036TIP3    H212073   5.049   4.192   0.552
 4037TIP3   OH212074   1.793   5.764   2.220
 4037TIP3    H112075   1.882   5.749   2.250
 4037TIP3    H212076   1.794   5.738   2.127
 4038TIP3   OH212077   4.095   1.253   2.967
 4038TIP3    H112078   4.046   1.272   3.047
 4038TIP3    H212079   4.137   1.168   2.984
 4039TIP3   OH212080   0.690   1.698   1.785
 4039TIP3    H112081   0.735   1.707   1.701
 4039TIP3    H212082   0.597   1.702   1.762
 4040TIP3   OH212083   4.323   0.987   1.600
 4040TIP3    H112084   4.406   0.985   1.647
 4040TIP3    H212085   4.283   0.901   1.618
 4041TIP3   OH212086   0.191   1.556   3.507
 4041TIP3    H112087   0.105   1.597   3.496
 4041TIP3    H212088   0.223   1.544   3.417
 4042TIP3   OH212089   1.257   1.178   4.584
 4042TIP3    H112090   1.267   1.256   4.637
 4042TIP3    H212091   1.322   1.116   4.618
 4043TIP3   OH212092   4.693   4.921   0.400
 4043TIP3    H112093   4.647   5.004   0.391
 4043TIP3    H212094   4.680   4.877   0.316
 4044TIP3   OH212095   4.285   2.751   2.289
 4044TIP3    H112096   4.273   2.832   2.339
 4044TIP3    H212097   4.279   2.681   2.354
 4045TIP3   OH212098   6.754   3.680   2.405
 4045TIP3    H112099   6.787   3.591   2.411
 4045TIP3    H212100   6.798   3.717   2.329
 4046TIP3   OH212101   2.696   4.022   2.029
 4046TIP3    H112102   2.612   4.047   2.067
 4046TIP3    H212103   2.723   3.945   2.079
 4047TIP3   OH212104   6.658   0.223   2.051
 4047TIP3    H112105   6.601   0.169   2.106
 4047TIP3    H212106   6.646   0.312   2.083
 4048TIP3   OH212107   3.060   2.795   5.745
 4048TIP3    H112108   3.042   2.770   5.654
 4048TIP3    H212109   3.056   2.713   5.794
 4049TIP3   OH212110   1.787   1.677   3.785
 4049TIP3    H112111   1.777   1.652   3.876
 4049TIP3    H212112   1.839   1.606   3.747
 4050TIP3   OH212113   4.717   6.758   4.571
 4050TIP3    H112114   4.715   6.720   4.484
 4050TIP3    H212115   4.717   6.683   4.630
 4051TIP3   OH212116   6.054   6.749   0.840
 4051TIP3    H112117   6.108   6.741   0.761
 4051TIP3    H212118   5.992   6.676   0.833
 4052TIP3   OH212119   5.425   4.529   3.604
 4052TIP3    H112120   5.491   4.487   3.549
 4052TIP3    H212121   5.422   4.476   3.683
 4053TIP3   OH212122   7.002   3.180   3.945
 4053TIP3    H112123   7.045   3.264   3.930
 4053TIP3    H212124   6.911   3.202   3.963
 4054TIP3   OH212125   0.575   0.174   5.534
 4054TIP3    H112126   0.493   0.196   5.577
 4054TIP3    H212127   0.616   0.109   5.592
 4055TIP3   OH212128   2.772   1.984   4.031
 4055TIP3    H112129   2.694   2.000   4.085
 4055TIP3    H212130   2.756   1.899   3.990
 4056TIP3   OH212131   4.262   5.021   1.468
 4056TIP3    H112132   4.209   4.941   1.462
 4056TIP3    H212133   4.214   5.077   1.529
 4057TIP3   OH212134   0.294   1.586   4.213
 4057TIP3    H112135   0.237   1.650   4.170
 4057TIP3    H212136   0.382   1.613   4.190
 4058TIP3   OH212137   1.124   6.045   2.721
 4058TIP3    H112138   1.046   6.028   2.668
 4058TIP3    H212139   1.093   6.044   2.811
 4059TIP3   OH212140   4.412   4.025   2.367
 4059TIP3    H112141   4.396   3.958   2.300
 4059TIP3    H212142   4.326   4.039   2.407
 4060TIP3   OH212143   7.193   4.303   2.350
 4060TIP3    H112144   7.226   4.277   2.263
 4060TIP3    H212145   7.099   4.291   2.344
 4061TIP3   OH212146   0.251   5.928   3.940
 4061TIP3    H112147   0.318   5.990   3.912
 4061TIP3    H212148   0.200   5.975   4.006
 4062TIP3   OH212149   2.446   1.355   1.212
 4062TIP3    H112150   2.367   1.366   1.160
 4062TIP3    H212151   2.441   1.264   1.244
 4063TIP3   OH212152   1.970   4.158   2.636
 4063TIP3    H112153   1.943   4.078   2.681
 4063TIP3    H212154   1.895   4.180   2.581
 4064TIP3   OH212155   2.337   0.736   0.651
 4064TIP3    H112156   2.361   0.658   0.600
 4064TIP3    H212157   2.269   0.705   0.712
 4065TIP3   OH212158   2.560   1.786   1.075
 4065TIP3    H112159   2.501   1.740   1.134
 4065TIP3    H212160   2.563   1.876   1.109
 4066TIP3   OH212161   1.277   1.015   3.456
 4066TIP3    H112162   1.315   0.934   3.422
 4066TIP3    H212163   1.345   1.052   3.511
 4067TIP3   OH212164   5.532   0.715   0.984
 4067TIP3    H112165   5.551   0.688   1.074
 4067TIP3    H212166   5.601   0.778   0.963
 4068TIP3   OH212167   0.907   3.264   5.632
 4068TIP3    H112168   0.831   3.215   5.602
 4068TIP3    H212169   0.977   3.241   5.570
 4069TIP3   OH212170   1.134   2.836   0.564
 4069TIP3    H112171   1.090   2.763   0.607
 4069TIP3    H212172   1.225   2.829   0.594
 4070TIP3   OH212173   6.482   6.671   3.800
 4070TIP3    H112174   6.453   6.590   3.840
 4070TIP3    H212175   6.545   6.644   3.733
 4071TIP3   OH212176   0.523   4.501   2.615
 4071TIP3    H112177   0.496   4.589   2.588
 4071TIP3    H212178   0.618   4.504   2.617
 4072TIP3   OH212179   2.971   1.948   1.072
 4072TIP3    H112180   2.984   1.998   1.153
 4072TIP3    H212181   2.974   2.013   1.002
 4073TIP3   OH212182   2.602   3.128   1.638
 4073TIP3    H112183   2.520   3.086   1.614
 4073TIP3    H212184   2.612   3.110   1.732
 4074TIP3   OH212185   4.538   3.317   1.140
 4074TIP3    H112186   4.627   3.318   1.172
 4074TIP3    H212187   4.487   3.275   1.209
 4075TIP3   OH212188   4.297   0.431   2.948
 4075TIP3    H112189   4.290   0.513   2.900
 4075TIP3    H212190   4.367   0.383   2.903
 4076TIP3   OH212191   0.472   3.321   3.297
 4076TIP3    H112192   0.482   3.259   3.369
 4076TIP3    H212193   0.406   3.282   3.240
 4077TIP3   OH212194   0.107   1.583  -0.015
 4077TIP3    H112195   0.084   1.562   0.075
 4077TIP3    H212196   0.198   1.553  -0.024
 4078TIP3   OH212197   4.424   3.106   2.139
 4078TIP3    H112198   4.462   3.130   2.054
 4078TIP3    H212199   4.486   3.140   2.203
 4079TIP3   OH212200   6.635   6.527   3.141
 4079TIP3    H112201   6.717   6.576   3.133
 4079TIP3    H212202   6.605   6.544   3.230
 4080TIP3   OH212203   2.089   2.691   4.018
 4080TIP3    H112204   2.126   2.642   3.945
 4080TIP3    H212205   2.065   2.624   4.083
 4081TIP3   OH212206   1.043   6.210   4.239
 4081TIP3    H112207   0.957   6.223   4.279
 4081TIP3    H212208   1.056   6.116   4.238
 4082TIP3   OH212209   4.347   0.582   5.599
 4082TIP3    H112210   4.422   0.587   5.539
 4082TIP3    H212211   4.349   0.665   5.646
 4083TIP3   OH212212   2.562   3.501   2.224
 4083TIP3    H112213   2.601   3.574   2.272
 4083TIP3    H212214   2.631   3.435   2.220
 4084TIP3   OH212215   4.699   5.286   1.121
 4084TIP3    H112216   4.611   5.317   1.143
 4084TIP3    H212217   4.685   5.197   1.088
 4085TIP3   OH212218   4.354   3.903   1.914
 4085TIP3    H112219   4.384   3.944   1.833
 4085TIP3    H212220   4.334   3.813   1.890
 4086TIP3   OH212221   5.546   0.576   1.455
 4086TIP3    H112222   5.579   0.518   1.524
 4086TIP3    H212223   5.451   0.570   1.463
 4087TIP3   OH212224   3.495   6.172   1.739
 4087TIP3    H112225   3.437   6.098   1.722
 4087TIP3    H212226   3.441   6.235   1.786
 4088TIP3   OH212227   1.573   2.124   2.074
 4088TIP3    H112228   1.563   2.210   2.115
 4088TIP3    H212229   1.561   2.061   2.145
 4089TIP3   OH212230   0.250   5.437   2.775
 4089TIP3    H112231   0.170   5.406   2.732
 4089TIP3    H212232   0.238   5.413   2.867
 4090TIP3   OH212233   5.525   4.859   0.608
 4090TIP3    H112234   5.594   4.894   0.664
 4090TIP3    H212235   5.571   4.808   0.541
 4091TIP3   OH212236   6.244   1.107   0.164
 4091TIP3    H112237   6.212   1.067   0.244
 4091TIP3    H212238   6.305   1.175   0.193
 4092TIP3   OH212239   4.437   2.148   2.036
 4092TIP3    H112240   4.522   2.107   2.018
 4092TIP3    H212241   4.386   2.131   1.957
 4093TIP3   OH212242   3.618   3.725   2.364
 4093TIP3    H112243   3.609   3.807   2.315
 4093TIP3    H212244   3.655   3.663   2.302
 4094TIP3   OH212245   3.141   4.029   3.323
 4094TIP3    H112246   3.179   3.941   3.322
 4094TIP3    H212247   3.166   4.065   3.408
 4095TIP3   OH212248   1.596   2.311   5.548
 4095TIP3    H112249   1.624   2.251   5.617
 4095TIP3    H212250   1.506   2.333   5.570
 4096TIP3   OH212251   4.273   5.326   3.561
 4096TIP3    H112252   4.195   5.337   3.616
 4096TIP3    H212253   4.254   5.249   3.508
 4097TIP3   OH212254   0.529   6.531   2.963
 4097TIP3    H112255   0.587   6.596   3.001
 4097TIP3    H212256   0.495   6.572   2.883
 4098TIP3   OH212257   4.307   5.735   0.671
 4098TIP3    H112258   4.375   5.772   0.616
 4098TIP3    H212259   4.291   5.648   0.635
 4099TIP3   OH212260   2.673   2.722   5.673
 4099TIP3    H112261   2.610   2.699   5.742
 4099TIP3    H212262   2.755   2.680   5.700
 4100TIP3   OH212263   3.820   1.416   1.381
 4100TIP3    H112264   3.825   1.323   1.405
 4100TIP3    H212265   3.912   1.441   1.368
 4101TIP3   OH212266   5.407   3.037   2.285
 4101TIP3    H112267   5.330   3.029   2.229
 4101TIP3    H212268   5.405   3.127   2.317
 4102TIP3   OH212269   5.189   5.346   4.383
 4102TIP3    H112270   5.220   5.383   4.301
 4102TIP3    H212271   5.250   5.273   4.400
 4103TIP3   OH212272   5.329   4.206   0.437
 4103TIP3    H112273   5.236   4.223   0.453
 4103TIP3    H212274   5.331   4.166   0.350
 4104TIP3   OH212275   2.255  -0.062   4.327
 4104TIP3    H112276   2.250  -0.045   4.421
 4104TIP3    H212277   2.185  -0.008   4.289
 4105TIP3   OH212278   2.090   5.254   3.976
 4105TIP3    H112279   2.180   5.262   4.009
 4105TIP3    H212280   2.072   5.340   3.938
 4106TIP3   OH212281   2.017   4.995   2.616
 4106TIP3    H112282   2.065   5.050   2.677
 4106TIP3    H212283   1.994   4.917   2.667
 4107TIP3   OH212284   2.133   5.043   3.020
 4107TIP3    H112285   2.195   5.044   3.093
 4107TIP3    H212286   2.053   5.004   3.057
 4108TIP3   OH212287   1.290   3.923   5.005
 4108TIP3    H112288   1.197   3.947   5.000
 4108TIP3    H212289   1.334   3.984   4.945
 4109TIP3   OH212290   5.248   5.634   4.463
 4109TIP3    H112291   5.290   5.611   4.546
 4109TIP3    H212292   5.190   5.560   4.445
 4110TIP3   OH212293   0.271   0.836   0.355
 4110TIP3    H112294   0.258   0.746   0.384
 4110TIP3    H212295   0.366   0.848   0.361
 4111TIP3   OH212296   6.438   1.444   2.844
 4111TIP3    H112297   6.495   1.414   2.773
 4111TIP3    H212298   6.488   1.514   2.886
 4112TIP3   OH212299   1.732   3.058   0.396
 4112TIP3    H112300   1.798   3.044   0.464
 4112TIP3    H212301   1.678   2.979   0.399
 4113TIP3   OH212302  -0.054   3.379   1.600
 4113TIP3    H112303   0.022   3.349   1.650
 4113TIP3    H212304  -0.128   3.332   1.638
 4114TIP3   OH212305   6.139   3.279   5.482
 4114TIP3    H112306   6.067   3.295   5.543
 4114TIP3    H212307   6.212   3.254   5.537
 4115TIP3   OH212308   5.899   6.449   2.621
 4115TIP3    H112309   5.960   6.378   2.600
 4115TIP3    H212310   5.820   6.405   2.652
 4116TIP3   OH212311   0.482   6.485   1.770
 4116TIP3    H112312   0.537   6.481   1.692
 4116TIP3    H212313   0.521   6.553   1.824
 4117TIP3   OH212314   6.255   5.527   4.154
 4117TIP3    H112315   6.163   5.549   4.169
 4117TIP3    H212316   6.290   5.511   4.242
 4118TIP3   OH212317   5.662   6.407   2.737
 4118TIP3    H112318   5.657   6.473   2.806
 4118TIP3    H212319   5.572   6.397   2.706
 4119TIP3   OH212320  -0.029   4.015   2.478
 4119TIP3    H112321   0.027   3.965   2.418
 4119TIP3    H212322  -0.037   4.101   2.437
 4120TIP3   OH212323   4.382   0.248   4.341
 4120TIP3    H112324   4.358   0.283   4.427
 4120TIP3    H212325   4.447   0.181   4.361
 4121TIP3   OH212326   6.580   0.741   3.424
 4121TIP3    H112327   6.567   0.815   3.484
 4121TIP3    H212328   6.502   0.687   3.435
 4122TIP3   OH212329   5.759   2.206   0.506
 4122TIP3    H112330   5.683   2.251   0.542
 4122TIP3    H212331   5.834   2.252   0.542
 4123TIP3   OH212332   5.455   5.624   5.023
 4123TIP3    H112333   5.510   5.618   4.945
 4123TIP3    H212334   5.392   5.693   5.002
 4124TIP3   OH212335   6.122   5.131   3.975
 4124TIP3    H112336   6.180   5.143   3.900
 4124TIP3    H212337   6.045   5.086   3.940
 4125TIP3   OH212338   4.972   5.142   2.472
 4125TIP3    H112339   4.897   5.184   2.430
 4125TIP3    H212340   4.950   5.143   2.566
 4126TIP3   OH212341   6.742   4.175   4.614
 4126TIP3    H112342   6.741   4.102   4.675
 4126TIP3    H212343   6.811   4.153   4.552
 4127TIP3   OH212344   3.627   2.564   1.228
 4127TIP3    H112345   3.679   2.636   1.264
 4127TIP3    H212346   3.558   2.607   1.177
 4128TIP3   OH212347   2.480   0.847   3.538
 4128TIP3    H112348   2.437   0.924   3.501
 4128TIP3    H212349   2.473   0.859   3.633
 4129TIP3   OH212350   1.003   6.115   0.070
 4129TIP3    H112351   0.939   6.152   0.008
 4129TIP3    H212352   0.963   6.033   0.099
 4130TIP3   OH212353   2.946   3.582   4.097
 4130TIP3    H112354   2.887   3.557   4.168
 4130TIP3    H212355   2.970   3.498   4.056
 4131TIP3   OH212356   5.327   2.421   3.042
 4131TIP3    H112357   5.261   2.406   2.974
 4131TIP3    H212358   5.309   2.509   3.074
 4132TIP3   OH212359   6.415   2.898   5.661
 4132TIP3    H112360   6.348   2.967   5.661
 4132TIP3    H212361   6.494   2.941   5.693
 4133TIP3   OH212362   4.945   0.453   4.927
 4133TIP3    H112363   4.942   0.522   4.860
 4133TIP3    H212364   5.038   0.448   4.951
 4134TIP3   OH212365   4.930   1.228   0.158
 4134TIP3    H112366   4.849   1.216   0.207
 4134TIP3    H212367   4.981   1.149   0.177
 4135TIP3   OH212368   4.063   1.537   1.380
 4135TIP3    H112369   4.117   1.552   1.302
 4135TIP3    H212370   4.094   1.601   1.444
 4136TIP3   OH212371   1.095   2.358   4.360
 4136TIP3    H112372   1.185   2.387   4.374
 4136TIP3    H212373   1.098   2.306   4.280
 4137TIP3   OH212374   5.764   6.659   2.562
 4137TIP3    H112375   5.826   6.732   2.565
 4137TIP3    H212376   5.815   6.583   2.590
 4138TIP3   OH212377   5.076   4.261   1.893
 4138TIP3    H112378   5.012   4.190   1.893
 4138TIP3    H212379   5.119   4.254   1.979
 4139TIP3   OH212380   1.447   3.437   5.439
 4139TIP3    H112381   1.381   3.493   5.398
 4139TIP3    H212382   1.531   3.476   5.413
 4140TIP3   OH212383   1.428   5.017   5.106
 4140TIP3    H112384   1.491   4.948   5.085
 4140TIP3    H212385   1.439   5.032   5.199
 4141TIP3   OH212386   4.631   6.705   4.978
 4141TIP3    H112387   4.681   6.675   5.053
 4141TIP3    H212388   4.647   6.640   4.910
 4142TIP3   OH212389   0.092   0.995   3.601
 4142TIP3    H112390   0.014   0.946   3.574
 4142TIP3    H212391   0.096   0.985   3.696
 4143TIP3   OH212392   6.134   3.831   5.578
 4143TIP3    H112393   6.172   3.916   5.598
 4143TIP3    H212394   6.197   3.788   5.520
 4144TIP3   OH212395   0.793   0.537   5.749
 4144TIP3    H112396   0.797   0.461   5.807
 4144TIP3    H212397   0.716   0.585   5.778
 4145TIP3   OH212398   5.678   0.677   5.116
 4145TIP3    H112399   5.686   0.759   5.068
 4145TIP3    H212400   5.612   0.627   5.068
 4146TIP3   OH212401   0.059   4.135   1.836
 4146TIP3    H112402   0.132   4.175   1.788
 4146TIP3    H212403   0.098   4.060   1.881
 4147TIP3   OH212404   4.186   6.040   3.555
 4147TIP3    H112405   4.119   5.993   3.505
 4147TIP3    H212406   4.136   6.090   3.620
 4148TIP3   OH212407   0.246   5.414   4.844
 4148TIP3    H112408   0.323   5.361   4.824
 4148TIP3    H212409   0.201   5.366   4.914
 4149TIP3   OH212410   6.275   4.689   1.627
 4149TIP3    H112411   6.277   4.605   1.581
 4149TIP3    H212412   6.236   4.750   1.563
 4150TIP3   OH212413   5.272   3.577   5.718
 4150TIP3    H112414   5.349   3.614   5.674
 4150TIP3    H212415   5.234   3.517   5.654
 4151TIP3   OH212416   5.363   0.896   5.755
 4151TIP3    H112417   5.423   0.971   5.754
 4151TIP3    H212418   5.357   0.870   5.663
 4152TIP3   OH212419   4.577   3.584   5.098
 4152TIP3    H112420   4.626   3.543   5.168
 4152TIP3    H212421   4.530   3.656   5.140
 4153TIP3   OH212422   2.085   3.628   3.707
 4153TIP3    H112423   2.097   3.666   3.621
 4153TIP3    H212424   2.079   3.533   3.691
 4154TIP3   OH212425   6.627   2.508   2.933
 4154TIP3    H112426   6.707   2.460   2.955
 4154TIP3    H212427   6.647   2.599   2.954
 4155TIP3   OH212428   4.122   1.310   2.564
 4155TIP3    H112429   4.172   1.351   2.494
 4155TIP3    H212430   4.079   1.383   2.609
 4156TIP3   OH212431   6.916   0.569   2.639
 4156TIP3    H112432   6.958   0.504   2.696
 4156TIP3    H212433   6.940   0.653   2.676
 4157TIP3   OH212434   6.652   1.396   5.817
 4157TIP3    H112435   6.678   1.406   5.725
 4157TIP3    H212436   6.683   1.475   5.860
 4158TIP3   OH212437   1.016   0.504   5.015
 4158TIP3    H112438   0.946   0.562   4.986
 4158TIP3    H212439   1.031   0.446   4.940
 4159TIP3   OH212440   2.932   1.697   4.400
 4159TIP3    H112441   2.847   1.740   4.386
 4159TIP3    H212442   2.910   1.618   4.450
 4160TIP3   OH212443   2.516   2.163   5.335
 4160TIP3    H112444   2.536   2.101   5.405
 4160TIP3    H212445   2.491   2.108   5.260
 4161TIP3   OH212446   7.127   1.770   0.306
 4161TIP3    H112447   7.152   1.843   0.249
 4161TIP3    H212448   7.176   1.695   0.272
 4162TIP3   OH212449   6.171   2.116   0.364
 4162TIP3    H112450   6.094   2.145   0.315
 4162TIP3    H212451   6.139   2.048   0.422
 4163TIP3   OH212452   6.500   5.459   5.517
 4163TIP3    H112453   6.517   5.503   5.433
 4163TIP3    H212454   6.574   5.401   5.530
 4164TIP3   OH212455   0.738   4.256   2.288
 4164TIP3    H112456   0.759   4.348   2.272
 4164TIP3    H212457   0.686   4.258   2.368
 4165TIP3   OH212458   3.759   0.747   3.118
 4165TIP3    H112459   3.739   0.756   3.024
 4165TIP3    H212460   3.828   0.811   3.134
 4166TIP3   OH212461   1.186   5.154   2.212
 4166TIP3    H112462   1.226   5.225   2.161
 4166TIP3    H212463   1.096   5.149   2.180
 4167TIP3   OH212464   2.024   6.553   3.175
 4167TIP3    H112465   1.932   6.577   3.192
 4167TIP3    H212466   2.074   6.628   3.207
 4168TIP3   OH212467   5.476   5.148   3.496
 4168TIP3    H112468   5.430   5.217   3.449
 4168TIP3    H212469   5.546   5.121   3.437
 4169TIP3   OH212470   7.121   2.443   3.603
 4169TIP3    H112471   7.156   2.526   3.635
 4169TIP3    H212472   7.189   2.409   3.546
 4170TIP3   OH212473   2.412   1.379   3.694
 4170TIP3    H112474   2.396   1.468   3.725
 4170TIP3    H212475   2.324   1.340   3.687
 4171TIP3   OH212476   5.163   4.624   0.639
 4171TIP3    H112477   5.179   4.562   0.568
 4171TIP3    H212478   5.245   4.626   0.688
 4172TIP3   OH212479   4.519   0.748   3.135
 4172TIP3    H112480   4.496   0.779   3.047
 4172TIP3    H212481   4.611   0.773   3.146
 4173TIP3   OH212482   0.160   2.538   1.132
 4173TIP3    H112483   0.173   2.444   1.115
 4173TIP3    H212484   0.093   2.564   1.069
 4174TIP3   OH212485   7.013   3.544   5.767
 4174TIP3    H112486   6.978   3.614   5.712
 4174TIP3    H212487   7.104   3.569   5.783
 4175TIP3   OH212488   0.007   0.178   3.449
 4175TIP3    H112489   0.097   0.150   3.461
 4175TIP3    H212490   0.013   0.267   3.414
 4176TIP3   OH212491   0.944   4.739   2.544
 4176TIP3    H112492   0.922   4.788   2.465
 4176TIP3    H212493   0.953   4.805   2.612
 4177TIP3   OH212494   5.505   2.273   4.269
 4177TIP3    H112495   5.421   2.296   4.310
 4177TIP3    H212496   5.521   2.344   4.208
 4178TIP3   OH212497   6.056   6.156   1.362
 4178TIP3    H112498   6.083   6.065   1.364
 4178TIP3    H212499   6.138   6.206   1.364
 4179TIP3   OH212500   6.220   3.083   5.691
 4179TIP3    H112501   6.204   3.143   5.763
 4179TIP3    H212502   6.133   3.049   5.668
 4180TIP3   OH212503   1.244   1.978   5.031
 4180TIP3    H112504   1.205   1.959   5.116
 4180TIP3    H212505   1.295   1.901   5.009
 4181TIP3   OH212506   2.112   4.676   1.768
 4181TIP3    H112507   2.024   4.690   1.733
 4181TIP3    H212508   2.134   4.586   1.742
 4182TIP3   OH212509   5.582   4.663   0.392
 4182TIP3    H112510   5.534   4.715   0.329
 4182TIP3    H212511   5.518   4.602   0.428
 4183TIP3   OH212512   4.520   0.626   2.547
 4183TIP3    H112513   4.534   0.532   2.555
 4183TIP3    H212514   4.509   0.640   2.453
 4184TIP3   OH212515   5.857   1.721   4.319
 4184TIP3    H112516   5.776   1.747   4.274
 4184TIP3    H212517   5.906   1.802   4.330
 4185TIP3   OH212518   5.632   0.734   1.261
 4185TIP3    H112519   5.596   0.723   1.349
 4185TIP3    H212520   5.727   0.737   1.275
 4186TIP3   OH212521   3.210   0.229   1.266
 4186TIP3    H112522   3.227   0.229   1.360
 4186TIP3    H212523   3.287   0.271   1.227
 4187TIP3   OH212524   0.322   0.665   5.821
 4187TIP3    H112525   0.385   0.596   5.803
 4187TIP3    H212526   0.264   0.665   5.745
 4188TIP3   OH212527   3.245   0.538   5.597
 4188TIP3    H112528   3.322   0.558   5.650
 4188TIP3    H212529   3.182   0.607   5.619
 4189TIP3   OH212530   5.530   1.647   3.694
 4189TIP3    H112531   5.607   1.591   3.682
 4189TIP3    H212532   5.469   1.594   3.745
 4190TIP3   OH212533   5.614   3.268   5.714
 4190TIP3    H112534   5.535   3.306   5.753
 4190TIP3    H212535   5.654   3.340   5.666
 4191TIP3   OH212536   1.470   3.575   1.934
 4191TIP3    H112537   1.556   3.609   1.960
 4191TIP3    H212538   1.489   3.508   1.869
 4192TIP3   OH212539   1.250   2.462   0.236
 4192TIP3    H112540   1.343   2.456   0.256
 4192TIP3    H212541   1.207   2.419   0.310
 4193TIP3   OH212542   2.537   3.719   4.178
 4193TIP3    H112543   2.544   3.626   4.201
 4193TIP3    H212544   2.536   3.720   4.083
 4194TIP3   OH212545   5.290   2.238   1.792
 4194TIP3    H112546   5.348   2.207   1.862
 4194TIP3    H212547   5.228   2.166   1.779
 4195TIP3   OH212548   3.248   4.524   2.739
 4195TIP3    H112549   3.193   4.538   2.662
 4195TIP3    H212550   3.279   4.612   2.762
 4196TIP3   OH212551   3.452   0.829   1.253
 4196TIP3    H112552   3.403   0.769   1.309
 4196TIP3    H212553   3.531   0.848   1.302
 4197TIP3   OH212554   6.539   1.090   2.242
 4197TIP3    H112555   6.582   1.122   2.321
 4197TIP3    H212556   6.547   0.995   2.248
 4198TIP3   OH212557   5.039   3.617   0.382
 4198TIP3    H112558   4.994   3.545   0.426
 4198TIP3    H212559   4.993   3.626   0.298
 4199TIP3   OH212560   5.736   6.360   0.601
 4199TIP3    H112561   5.811   6.321   0.557
 4199TIP3    H212562   5.664   6.298   0.587
 4200TIP3   OH212563   6.061   6.642   2.406
 4200TIP3    H112564   5.991   6.614   2.347
 4200TIP3    H212565   6.057   6.580   2.479
 4201TIP3   OH212566   3.526   6.265   3.407
 4201TIP3    H112567   3.472   6.234   3.334
 4201TIP3    H212568   3.520   6.361   3.402
 4202TIP3   OH212569   6.853   4.768   4.141
 4202TIP3    H112570   6.808   4.760   4.056
 4202TIP3    H212571   6.783   4.768   4.205
 4203TIP3   OH212572   6.417   1.951   2.491
 4203TIP3    H112573   6.489   2.012   2.509
 4203TIP3    H212574   6.353   2.003   2.443
 4204TIP3   OH212575   1.281   1.398   4.725
 4204TIP3    H112576   1.343   1.465   4.694
 4204TIP3    H212577   1.197   1.444   4.732
 4205TIP3   OH212578   3.510   6.698   4.709
 4205TIP3    H112579   3.569   6.717   4.783
 4205TIP3    H212580   3.548   6.746   4.636
 4206TIP3   OH212581   3.744   2.280   5.599
 4206TIP3    H112582   3.651   2.297   5.583
 4206TIP3    H212583   3.763   2.322   5.683
 4207TIP3   OH212584   6.879   4.117   5.122
 4207TIP3    H112585   6.808   4.053   5.119
 4207TIP3    H212586   6.940   4.087   5.055
 4208TIP3   OH212587   4.354   4.769   1.954
 4208TIP3    H112588   4.310   4.794   2.035
 4208TIP3    H212589   4.375   4.677   1.967
 4209TIP3   OH212590   0.981   0.421   1.340
 4209TIP3    H112591   0.943   0.483   1.402
 4209TIP3    H212592   0.943   0.445   1.256
 4210TIP3   OH212593   6.572   4.492   5.362
 4210TIP3    H112594   6.559   4.586   5.350
 4210TIP3    H212595   6.649   4.485   5.418
 4211TIP3   OH212596   1.607   1.853   2.179
 4211TIP3    H112597   1.534   1.828   2.235
 4211TIP3    H212598   1.621   1.778   2.121
 4212TIP3   OH212599   0.531   5.929   2.591
 4212TIP3    H112600   0.488   5.852   2.629
 4212TIP3    H212601   0.591   5.959   2.658
 4213TIP3   OH212602   3.008   2.782   1.953
 4213TIP3    H112603   3.069   2.715   1.921
 4213TIP3    H212604   2.958   2.807   1.876
 4214TIP3   OH212605   2.329   4.464   0.682
 4214TIP3    H112606   2.308   4.397   0.617
 4214TIP3    H212607   2.417   4.493   0.660
 4215TIP3   OH212608   1.371   0.739   3.390
 4215TIP3    H112609   1.328   0.761   3.308
 4215TIP3    H212610   1.378   0.644   3.390
 4216TIP3   OH212611   5.316   6.485   3.787
 4216TIP3    H112612   5.318   6.486   3.691
 4216TIP3    H212613   5.353   6.399   3.810
 4217TIP3   OH212614   1.884   3.023   4.134
 4217TIP3    H112615   1.896   3.077   4.212
 4217TIP3    H212616   1.971   3.018   4.094
 4218TIP3   OH212617   6.736   5.415   2.548
 4218TIP3    H112618   6.780   5.334   2.525
 4218TIP3    H212619   6.653   5.412   2.501
 4219TIP3   OH212620   5.441   6.262   3.941
 4219TIP3    H112621   5.522   6.215   3.919
 4219TIP3    H212622   5.390   6.201   3.993
 4220TIP3   OH212623   3.029   0.700   5.654
 4220TIP3    H112624   2.982   0.709   5.737
 4220TIP3    H212625   2.961   0.675   5.591
 4221TIP3   OH212626   6.704   2.496   0.342
 4221TIP3    H112627   6.784   2.531   0.305
 4221TIP3    H212628   6.690   2.414   0.295
 4222TIP3   OH212629   4.740   6.020   3.581
 4222TIP3    H112630   4.664   6.051   3.631
 4222TIP3    H212631   4.790   6.099   3.562
 4223TIP3   OH212632   7.052   3.764   1.888
 4223TIP3    H112633   7.143   3.737   1.901
 4223TIP3    H212634   7.000   3.690   1.920
 4224TIP3   OH212635   4.995   4.691   1.642
 4224TIP3    H112636   4.997   4.691   1.546
 4224TIP3    H212637   4.905   4.715   1.664
 4225TIP3   OH212638   1.716   3.385   3.704
 4225TIP3    H112639   1.775   3.415   3.774
 4225TIP3    H212640   1.775   3.351   3.636
 4226TIP3   OH212641   1.256   3.970   4.107
 4226TIP3    H112642   1.217   3.936   4.188
 4226TIP3    H212643   1.281   3.891   4.058
 4227TIP3   OH212644   6.214   4.545   4.913
 4227TIP3    H112645   6.307   4.566   4.912
 4227TIP3    H212646   6.172   4.620   4.872
 4228TIP3   OH212647   3.596   3.301   4.749
 4228TIP3    H112648   3.580   3.267   4.661
 4228TIP3    H212649   3.687   3.331   4.746
 4229TIP3   OH212650   2.255   2.939   2.165
 4229TIP3    H112651   2.304   3.006   2.117
 4229TIP3    H212652   2.200   2.988   2.226
 4230TIP3   OH212653   3.746   5.631   5.732
 4230TIP3    H112654   3.748   5.535   5.737
 4230TIP3    H212655   3.823   5.659   5.781
 4231TIP3   OH212656   4.103   2.622   1.537
 4231TIP3    H112657   4.166   2.618   1.466
 4231TIP3    H212658   4.098   2.715   1.561
 4232TIP3   OH212659   3.594   2.578   0.901
 4232TIP3    H112660   3.526   2.552   0.964
 4232TIP3    H212661   3.556   2.559   0.816
 4233TIP3   OH212662   1.016   5.739   1.485
 4233TIP3    H112663   0.966   5.787   1.418
 4233TIP3    H212664   1.048   5.661   1.440
 4234TIP3   OH212665   3.681   0.899   0.103
 4234TIP3    H112666   3.733   0.979   0.107
 4234TIP3    H212667   3.645   0.898   0.014
 4235TIP3   OH212668   6.779   4.051   3.590
 4235TIP3    H112669   6.866   4.093   3.594
 4235TIP3    H212670   6.795   3.960   3.614
 4236TIP3   OH212671   3.832   6.703   5.623
 4236TIP3    H112672   3.832   6.668   5.534
 4236TIP3    H212673   3.790   6.635   5.676
 4237TIP3   OH212674   4.725   1.348   0.752
 4237TIP3    H112675   4.769   1.300   0.822
 4237TIP3    H212676   4.631   1.334   0.768
 4238TIP3   OH212677   0.247   0.629   4.084
 4238TIP3    H112678   0.326   0.657   4.038
 4238TIP3    H212679   0.226   0.545   4.045
 4239TIP3   OH212680   1.703   4.979   4.781
 4239TIP3    H112681   1.704   5.010   4.691
 4239TIP3    H212682   1.641   5.037   4.826
 4240TIP3   OH212683   5.267   2.940   2.535
 4240TIP3    H112684   5.229   3.017   2.492
 4240TIP3    H212685   5.361   2.957   2.535
 4241TIP3   OH212686   2.210   1.719   2.839
 4241TIP3    H112687   2.141   1.690   2.780
 4241TIP3    H212688   2.206   1.814   2.836
 4242TIP3   OH212689   5.458   4.048   3.290
 4242TIP3    H112690   5.514   4.020   3.363
 4242TIP3    H212691   5.401   4.115   3.328
 4243TIP3   OH212692   2.944   1.610   4.943
 4243TIP3    H112693   3.022   1.665   4.937
 4243TIP3    H212694   2.975   1.522   4.924
 4244TIP3   OH212695   4.618   6.478   5.719
 4244TIP3    H112696   4.651   6.410   5.777
 4244TIP3    H212697   4.665   6.557   5.746
 4245TIP3   OH212698   0.612   4.742   5.191
 4245TIP3    H112699   0.529   4.789   5.203
 4245TIP3    H212700   0.636   4.714   5.279
 4246TIP3   OH212701   1.241   3.973   3.665
 4246TIP3    H112702   1.226   4.027   3.743
 4246TIP3    H212703   1.164   3.917   3.659
 4247TIP3   OH212704   0.085   5.857   0.067
 4247TIP3    H112705   0.169   5.846   0.111
 4247TIP3    H212706   0.038   5.922   0.119
 4248TIP3   OH212707   2.547   5.976   2.893
 4248TIP3    H112708   2.615   5.916   2.923
 4248TIP3    H212709   2.520   6.024   2.972
 4249TIP3   OH212710   0.941   5.112   5.842
 4249TIP3    H112711   0.996   5.127   5.764
 4249TIP3    H212712   0.867   5.060   5.809
 4250TIP3   OH212713   4.813   4.833   0.133
 4250TIP3    H112714   4.866   4.911   0.122
 4250TIP3    H212715   4.876   4.761   0.141
 4251TIP3   OH212716   0.487   1.400   4.675
 4251TIP3    H112717   0.478   1.366   4.586
 4251TIP3    H212718   0.407   1.371   4.720
 4252TIP3   OH212719   1.200   3.660   2.486
 4252TIP3    H112720   1.228   3.749   2.465
 4252TIP3    H212721   1.281   3.613   2.506
 4253TIP3   OH212722   6.669   1.200   2.455
 4253TIP3    H112723   6.654   1.273   2.516
 4253TIP3    H212724   6.724   1.139   2.503
 4254TIP3   OH212725   4.185   3.229   2.349
 4254TIP3    H112726   4.174   3.283   2.271
 4254TIP3    H212727   4.228   3.286   2.412
 4255TIP3   OH212728   3.997   6.529   4.411
 4255TIP3    H112729   3.976   6.464   4.345
 4255TIP3    H212730   4.093   6.537   4.409
 4256TIP3   OH212731   4.423   4.980   2.413
 4256TIP3    H112732   4.421   4.893   2.454
 4256TIP3    H212733   4.452   4.963   2.323
 4257TIP3   OH212734   2.129   5.934   0.862
 4257TIP3    H112735   2.213   5.910   0.822
 4257TIP3    H212736   2.066   5.923   0.791
 4258TIP3   OH212737   2.351   3.267   0.010
 4258TIP3    H112738   2.292   3.307   0.074
 4258TIP3    H212739   2.437   3.303   0.030
 4259TIP3   OH212740   2.066   2.249   0.927
 4259TIP3    H112741   2.050   2.343   0.919
 4259TIP3    H212742   2.016   2.210   0.855
 4260TIP3   OH212743   2.458   5.016   0.329
 4260TIP3    H112744   2.372   4.981   0.303
 4260TIP3    H212745   2.451   5.110   0.314
 4261TIP3   OH212746   5.723   6.052   1.973
 4261TIP3    H112747   5.737   6.023   2.064
 4261TIP3    H212748   5.637   6.018   1.950
 4262TIP3   OH212749   2.924   6.114   0.757
 4262TIP3    H112750   2.999   6.092   0.813
 4262TIP3    H212751   2.873   6.176   0.808
 4263TIP3   OH212752   6.241   6.740   1.213
 4263TIP3    H112753   6.194   6.665   1.176
 4263TIP3    H212754   6.329   6.707   1.230
 4264TIP3   OH212755   3.253   2.422   4.979
 4264TIP3    H112756   3.335   2.384   5.011
 4264TIP3    H212757   3.188   2.399   5.046
 4265TIP3   OH212758   6.005   2.591   3.471
 4265TIP3    H112759   5.950   2.646   3.416
 4265TIP3    H212760   6.043   2.652   3.535
 4266TIP3   OH212761   4.893   5.912   0.673
 4266TIP3    H112762   4.864   5.939   0.761
 4266TIP3    H212763   4.811   5.896   0.625
 4267TIP3   OH212764   0.545   1.334   1.937
 4267TIP3    H112765   0.506   1.350   1.851
 4267TIP3    H212766   0.482   1.275   1.980
 4268TIP3   OH212767   2.171   2.548   0.545
 4268TIP3    H112768   2.161   2.565   0.452
 4268TIP3    H212769   2.248   2.491   0.551
 4269TIP3   OH212770   0.380   2.388   1.415
 4269TIP3    H112771   0.349   2.471   1.449
 4269TIP3    H212772   0.306   2.351   1.367
 4270TIP3   OH212773   6.213   1.571   3.652
 4270TIP3    H112774   6.158   1.624   3.595
 4270TIP3    H212775   6.180   1.482   3.641
 4271TIP3   OH212776   3.461   2.198   0.264
 4271TIP3    H112777   3.448   2.197   0.169
 4271TIP3    H212778   3.518   2.123   0.281
 4272TIP3   OH212779   0.641   3.970   2.379
 4272TIP3    H112780   0.639   4.051   2.429
 4272TIP3    H212781   0.622   3.996   2.289
 4273TIP3   OH212782   0.128   1.360   0.415
 4273TIP3    H112783   0.143   1.443   0.461
 4273TIP3    H212784   0.108   1.298   0.484
 4274TIP3   OH212785   1.574   3.620   4.678
 4274TIP3    H112786   1.593   3.689   4.741
 4274TIP3    H212787   1.481   3.633   4.657
 4275TIP3   OH212788   3.378   5.686   1.928
 4275TIP3    H112789   3.440   5.736   1.980
 4275TIP3    H212790   3.391   5.717   1.838
 4276TIP3   OH212791   5.546   3.652   4.851
 4276TIP3    H112792   5.464   3.697   4.869
 4276TIP3    H212793   5.579   3.627   4.938
 4277TIP3   OH212794   6.763   4.477   5.584
 4277TIP3    H112795   6.775   4.387   5.614
 4277TIP3    H212796   6.744   4.526   5.664
 4278TIP3   OH212797   3.919   1.990   4.885
 4278TIP3    H112798   3.827   2.012   4.891
 4278TIP3    H212799   3.929   1.948   4.800
 4279TIP3   OH212800   1.017   2.404   3.054
 4279TIP3    H112801   0.957   2.476   3.033
 4279TIP3    H212802   1.093   2.419   2.998
 4280TIP3   OH212803   1.410   3.130   3.346
 4280TIP3    H112804   1.427   3.117   3.440
 4280TIP3    H212805   1.496   3.123   3.305
 4281TIP3   OH212806   2.491   0.423   5.791
 4281TIP3    H112807   2.399   0.427   5.816
 4281TIP3    H212808   2.490   0.386   5.702
 4282TIP3   OH212809   4.240   1.765   3.911
 4282TIP3    H112810   4.164   1.819   3.931
 4282TIP3    H212811   4.272   1.799   3.828
 4283TIP3   OH212812   3.424   6.480   2.678
 4283TIP3    H112813   3.435   6.417   2.749
 4283TIP3    H212814   3.435   6.428   2.598
 4284TIP3   OH212815   1.763   5.060   4.510
 4284TIP3    H112816   1.709   5.137   4.488
 4284TIP3    H212817   1.727   4.990   4.456
 4285TIP3   OH212818   2.394   2.359   3.794
 4285TIP3    H112819   2.441   2.337   3.713
 4285TIP3    H212820   2.316   2.304   3.793
 4286TIP3   OH212821   4.505   3.597   1.169
 4286TIP3    H112822   4.490   3.511   1.129
 4286TIP3    H212823   4.465   3.659   1.108
 4287TIP3   OH212824   3.700   4.207   2.401
 4287TIP3    H112825   3.608   4.206   2.429
 4287TIP3    H212826   3.705   4.136   2.336
 4288TIP3   OH212827   0.338   3.020   0.179
 4288TIP3    H112828   0.273   3.090   0.175
 4288TIP3    H212829   0.368   3.022   0.270
 4289TIP3   OH212830   5.738   5.301   3.150
 4289TIP3    H112831   5.790   5.240   3.098
 4289TIP3    H212832   5.725   5.256   3.233
 4290TIP3   OH212833   1.921   2.288   5.319
 4290TIP3    H112834   1.972   2.364   5.290
 4290TIP3    H212835   1.842   2.326   5.359
 4291TIP3   OH212836   6.147   5.533   3.695
 4291TIP3    H112837   6.073   5.528   3.754
 4291TIP3    H212838   6.112   5.505   3.610
 4292TIP3   OH212839   3.666   2.214   5.292
 4292TIP3    H112840   3.740   2.250   5.244
 4292TIP3    H212841   3.645   2.281   5.357
 4293TIP3   OH212842   1.476   4.002   2.543
 4293TIP3    H112843   1.381   4.007   2.526
 4293TIP3    H212844   1.484   3.932   2.608
 4294TIP3   OH212845   3.633   2.926   2.520
 4294TIP3    H112846   3.571   2.926   2.593
 4294TIP3    H212847   3.606   3.000   2.466
 4295TIP3   OH212848   5.521   6.093   4.256
 4295TIP3    H112849   5.446   6.124   4.307
 4295TIP3    H212850   5.596   6.110   4.312
 4296TIP3   OH212851   3.975   5.135   5.115
 4296TIP3    H112852   4.025   5.179   5.184
 4296TIP3    H212853   3.915   5.078   5.163
 4297TIP3   OH212854   4.193   1.780   4.738
 4297TIP3    H112855   4.201   1.743   4.826
 4297TIP3    H212856   4.213   1.706   4.680
 4298TIP3   OH212857   1.267   0.873   5.269
 4298TIP3    H112858   1.269   0.966   5.291
 4298TIP3    H212859   1.307   0.830   5.345
 4299TIP3   OH212860   0.859   5.608   4.605
 4299TIP3    H112861   0.918   5.533   4.614
 4299TIP3    H212862   0.894   5.674   4.665
 4300TIP3   OH212863   3.022   5.752   0.160
 4300TIP3    H112864   2.943   5.783   0.116
 4300TIP3    H212865   3.093   5.773   0.100
 4301TIP3   OH212866   1.644   1.348   2.409
 4301TIP3    H112867   1.693   1.279   2.365
 4301TIP3    H212868   1.710   1.399   2.455
 4302TIP3   OH212869   0.156   6.566   2.797
 4302TIP3    H112870   0.222   6.635   2.804
 4302TIP3    H212871   0.194   6.504   2.735
 4303TIP3   OH212872   2.778   2.741   0.832
 4303TIP3    H112873   2.816   2.654   0.844
 4303TIP3    H212874   2.693   2.738   0.876
 4304TIP3   OH212875   3.271   5.215   3.883
 4304TIP3    H112876   3.305   5.150   3.822
 4304TIP3    H212877   3.178   5.223   3.860
 4305TIP3   OH212878   0.490   5.665   2.331
 4305TIP3    H112879   0.487   5.569   2.331
 4305TIP3    H212880   0.404   5.692   2.298
 4306TIP3   OH212881   1.948   5.955   1.807
 4306TIP3    H112882   1.945   6.015   1.733
 4306TIP3    H212883   1.904   6.003   1.878
 4307TIP3   OH212884   4.936   0.102   2.290
 4307TIP3    H112885   5.024   0.126   2.262
 4307TIP3    H212886   4.892   0.076   2.210
 4308TIP3   OH212887   3.557   5.598   4.002
 4308TIP3    H112888   3.494   5.666   4.026
 4308TIP3    H212889   3.507   5.517   4.005
 4309TIP3   OH212890   6.051   0.171   5.102
 4309TIP3    H112891   6.074   0.231   5.173
 4309TIP3    H212892   6.115   0.100   5.111
 4310TIP3   OH212893   6.102   4.280   3.071
 4310TIP3    H112894   6.007   4.275   3.078
 4310TIP3    H212895   6.126   4.208   3.012
 4311TIP3   OH212896   6.599   1.669   2.045
 4311TIP3    H112897   6.673   1.674   1.984
 4311TIP3    H212898   6.524   1.648   1.990
 4312TIP3   OH212899   3.811   4.712   0.735
 4312TIP3    H112900   3.896   4.696   0.775
 4312TIP3    H212901   3.831   4.748   0.649
 4313TIP3   OH212902   2.743   5.544  -0.008
 4313TIP3    H112903   2.836   5.520  -0.008
 4313TIP3    H212904   2.708   5.503   0.071
 4314TIP3   OH212905   1.573   3.366   5.679
 4314TIP3    H112906   1.594   3.459   5.689
 4314TIP3    H212907   1.526   3.361   5.596
 4315TIP3   OH212908   6.181   3.152   3.193
 4315TIP3    H112909   6.202   3.103   3.273
 4315TIP3    H212910   6.136   3.230   3.225
 4316TIP3   OH212911   1.329   6.030   4.168
 4316TIP3    H112912   1.268   6.042   4.241
 4316TIP3    H212913   1.375   5.949   4.189
 4317TIP3   OH212914   4.135   0.513   4.752
 4317TIP3    H112915   4.154   0.457   4.827
 4317TIP3    H212916   4.174   0.597   4.775
 4318TIP3   OH212917   6.335   4.485   2.798
 4318TIP3    H112918   6.269   4.416   2.782
 4318TIP3    H212919   6.345   4.486   2.893
 4319TIP3   OH212920   2.284   6.779   5.296
 4319TIP3    H112921   2.252   6.853   5.243
 4319TIP3    H212922   2.373   6.764   5.264
 4320TIP3   OH212923   5.191   4.215   2.969
 4320TIP3    H112924   5.211   4.140   3.024
 4320TIP3    H212925   5.251   4.283   2.997
 4321TIP3   OH212926   2.583   3.434   1.383
 4321TIP3    H112927   2.621   3.444   1.470
 4321TIP3    H212928   2.657   3.450   1.323
 4322TIP3   OH212929   2.395   4.288   1.840
 4322TIP3    H112930   2.371   4.196   1.850
 4322TIP3    H212931   2.473   4.286   1.783
 4323TIP3   OH212932   1.078   0.754   0.190
 4323TIP3    H112933   1.150   0.724   0.245
 4323TIP3    H212934   1.088   0.849   0.187
 4324TIP3   OH212935   3.312   4.271   5.448
 4324TIP3    H112936   3.406   4.279   5.461
 4324TIP3    H212937   3.278   4.249   5.534
 4325TIP3   OH212938   5.294   3.182   4.086
 4325TIP3    H112939   5.363   3.245   4.110
 4325TIP3    H212940   5.336   3.124   4.023
 4326TIP3   OH212941   0.272   1.197   2.533
 4326TIP3    H112942   0.348   1.199   2.474
 4326TIP3    H212943   0.253   1.289   2.551
 4327TIP3   OH212944   2.798   0.544   0.459
 4327TIP3    H112945   2.888   0.569   0.437
 4327TIP3    H212946   2.768   0.615   0.517
 4328TIP3   OH212947   4.488   4.450   3.155
 4328TIP3    H112948   4.556   4.417   3.095
 4328TIP3    H212949   4.428   4.498   3.098
 4329TIP3   OH212950   4.676   5.608   1.315
 4329TIP3    H112951   4.615   5.545   1.275
 4329TIP3    H212952   4.744   5.620   1.249
 4330TIP3   OH212953   0.408   6.004   4.240
 4330TIP3    H112954   0.317   5.978   4.227
 4330TIP3    H212955   0.436   5.954   4.317
 4331TIP3   OH212956   3.781   5.984   3.963
 4331TIP3    H112957   3.868   6.006   3.995
 4331TIP3    H212958   3.795   5.963   3.870
 4332TIP3   OH212959   5.841   2.187   4.675
 4332TIP3    H112960   5.798   2.106   4.651
 4332TIP3    H212961   5.924   2.186   4.627
 4333TIP3   OH212962   5.572   5.924   4.620
 4333TIP3    H112963   5.569   5.866   4.545
 4333TIP3    H212964   5.645   5.984   4.601
 4334TIP3   OH212965   0.601   5.498   3.015
 4334TIP3    H112966   0.604   5.408   2.982
 4334TIP3    H212967   0.552   5.547   2.949
 4335TIP3   OH212968   3.605   0.044   2.525
 4335TIP3    H112969   3.601  -0.018   2.598
 4335TIP3    H212970   3.699   0.054   2.508
 4336TIP3   OH212971   6.504   5.960   0.893
 4336TIP3    H112972   6.461   6.046   0.894
 4336TIP3    H212973   6.537   5.950   0.983
 4337TIP3   OH212974   3.401   3.450   5.495
 4337TIP3    H112975   3.348   3.438   5.416
 4337TIP3    H212976   3.472   3.387   5.486
 4338TIP3   OH212977   1.377   6.388   1.122
 4338TIP3    H112978   1.313   6.367   1.055
 4338TIP3    H212979   1.437   6.449   1.080
 4339TIP3   OH212980   5.932   3.699   3.900
 4339TIP3    H112981   6.012   3.687   3.850
 4339TIP3    H212982   5.957   3.680   3.990
 4340TIP3   OH212983   7.149   5.533   5.037
 4340TIP3    H112984   7.240   5.549   5.062
 4340TIP3    H212985   7.100   5.604   5.077
 4341TIP3   OH212986   1.185   1.410   3.077
 4341TIP3    H112987   1.125   1.409   3.151
 4341TIP3    H212988   1.268   1.439   3.114
 4342TIP3   OH212989   6.004   3.173   1.508
 4342TIP3    H112990   5.999   3.091   1.459
 4342TIP3    H212991   6.000   3.241   1.442
 4343TIP3   OH212992   1.441   1.347   0.176
 4343TIP3    H112993   1.524   1.377   0.213
 4343TIP3    H212994   1.424   1.408   0.104
 4344TIP3   OH212995   1.171   6.271   0.735
 4344TIP3    H112996   1.222   6.203   0.691
 4344TIP3    H212997   1.166   6.343   0.672
 4345TIP3   OH212998   6.838   2.333   2.989
 4345TIP3    H112999   6.931   2.352   2.980
 4345TIP3    H213000   6.823   2.331   3.084
 4346TIP3   OH213001   3.445   1.144   3.019
 4346TIP3    H113002   3.538   1.135   2.995
 4346TIP3    H213003   3.409   1.203   2.953
 4347TIP3   OH213004   7.079   2.782   1.330
 4347TIP3    H113005   7.163   2.827   1.342
 4347TIP3    H213006   7.103   2.690   1.320
 4348TIP3   OH213007   3.079   1.548   2.272
 4348TIP3    H113008   3.159   1.563   2.321
 4348TIP3    H213009   3.108   1.529   2.183
 4349TIP3   OH213010   6.489   0.028   1.453
 4349TIP3    H113011   6.398   0.049   1.436
 4349TIP3    H213012   6.491   0.003   1.546
 4350TIP3   OH213013   1.521   0.102   1.744
 4350TIP3    H113014   1.542   0.137   1.657
 4350TIP3    H213015   1.438   0.143   1.768
 4351TIP3   OH213016   2.853   1.497   0.561
 4351TIP3    H113017   2.779   1.435   0.565
 4351TIP3    H213018   2.811   1.583   0.557
 4352TIP3   OH213019   1.544   1.481   4.147
 4352TIP3    H113020   1.549   1.440   4.060
 4352TIP3    H213021   1.628   1.527   4.156
 4353TIP3   OH213022   3.373   4.794   3.424
 4353TIP3    H113023   3.459   4.769   3.457
 4353TIP3    H213024   3.339   4.855   3.490
 4354TIP3   OH213025   3.417   6.285   2.472
 4354TIP3    H113026   3.389   6.301   2.382
 4354TIP3    H213027   3.504   6.246   2.464
 4355TIP3   OH213028   2.621   6.690   5.457
 4355TIP3    H113029   2.653   6.607   5.423
 4355TIP3    H213030   2.697   6.728   5.503
 4356TIP3   OH213031   0.235   3.705   4.402
 4356TIP3    H113032   0.301   3.637   4.413
 4356TIP3    H213033   0.236   3.752   4.486
 4357TIP3   OH213034   3.177   1.510   5.198
 4357TIP3    H113035   3.184   1.534   5.105
 4357TIP3    H213036   3.262   1.533   5.235
 4358TIP3   OH213037   6.649   3.630   3.394
 4358TIP3    H113038   6.625   3.550   3.347
 4358TIP3    H213039   6.710   3.674   3.334
 4359TIP3   OH213040   0.756   3.322   3.192
 4359TIP3    H113041   0.676   3.275   3.218
 4359TIP3    H213042   0.783   3.281   3.110
 4360TIP3   OH213043   0.794   5.245   0.471
 4360TIP3    H113044   0.701   5.231   0.452
 4360TIP3    H213045   0.795   5.319   0.532
 4361TIP3   OH213046   2.885   1.279   1.697
 4361TIP3    H113047   2.947   1.258   1.627
 4361TIP3    H213048   2.803   1.300   1.651
 4362TIP3   OH213049   4.322   5.923   1.837
 4362TIP3    H113050   4.259   5.868   1.883
 4362TIP3    H213051   4.291   6.013   1.851
 4363TIP3   OH213052   4.457   4.285   5.806
 4363TIP3    H113053   4.385   4.227   5.780
 4363TIP3    H213054   4.536   4.233   5.792
 4364TIP3   OH213055   1.282   1.035   0.705
 4364TIP3    H113056   1.320   1.107   0.755
 4364TIP3    H213057   1.213   1.000   0.761
 4365TIP3   OH213058   0.658   5.379   3.946
 4365TIP3    H113059   0.654   5.449   3.882
 4365TIP3    H213060   0.569   5.376   3.983
 4366TIP3   OH213061   1.944   2.121   5.542
 4366TIP3    H113062   1.955   2.182   5.469
 4366TIP3    H213063   1.867   2.069   5.518
 4367TIP3   OH213064   0.548   2.805   1.336
 4367TIP3    H113065   0.504   2.736   1.386
 4367TIP3    H213066   0.490   2.881   1.343
 4368TIP3   OH213067   0.181   3.001   5.581
 4368TIP3    H113068   0.233   3.024   5.658
 4368TIP3    H213069   0.105   2.955   5.617
 4369TIP3   OH213070   1.949   4.305   1.169
 4369TIP3    H113071   1.965   4.214   1.195
 4369TIP3    H213072   2.031   4.350   1.188
 4370TIP3   OH213073   3.885   6.798   4.393
 4370TIP3    H113074   3.923   6.710   4.391
 4370TIP3    H213075   3.904   6.830   4.481
 4371TIP3   OH213076   3.974   1.704   3.532
 4371TIP3    H113077   4.012   1.635   3.477
 4371TIP3    H213078   3.933   1.657   3.604
 4372TIP3   OH213079   6.240   0.884   3.269
 4372TIP3    H113080   6.312   0.922   3.320
 4372TIP3    H213081   6.167   0.945   3.281
 4373TIP3   OH213082   6.334   2.481   4.045
 4373TIP3    H113083   6.240   2.485   4.030
 4373TIP3    H213084   6.354   2.388   4.052
 4374TIP3   OH213085   6.493   1.333   1.711
 4374TIP3    H113086   6.551   1.306   1.783
 4374TIP3    H213087   6.480   1.427   1.724
 4375TIP3   OH213088   0.739   4.184   5.048
 4375TIP3    H113089   0.807   4.249   5.030
 4375TIP3    H213090   0.774   4.132   5.121
 4376TIP3   OH213091   5.169   0.970   3.632
 4376TIP3    H113092   5.209   0.946   3.549
 4376TIP3    H213093   5.162   1.065   3.629
 4377TIP3   OH213094   0.635   5.947   4.721
 4377TIP3    H113095   0.581   6.025   4.721
 4377TIP3    H213096   0.676   5.945   4.634
 4378TIP3   OH213097   3.251   1.896   3.617
 4378TIP3    H113098   3.317   1.897   3.686
 4378TIP3    H213099   3.299   1.872   3.538
 4379TIP3   OH213100   0.762   5.898   1.768
 4379TIP3    H113101   0.687   5.856   1.728
 4379TIP3    H213102   0.734   5.987   1.787
 4380TIP3   OH213103   7.178   1.803   2.508
 4380TIP3    H113104   7.243   1.872   2.522
 4380TIP3    H213105   7.094   1.848   2.510
 4381TIP3   OH213106   4.223   2.335   5.679
 4381TIP3    H113107   4.232   2.241   5.662
 4381TIP3    H213108   4.204   2.374   5.594
 4382TIP3   OH213109   2.987   0.798   3.695
 4382TIP3    H113110   2.997   0.878   3.746
 4382TIP3    H213111   2.893   0.778   3.700
 4383TIP3   OH213112   4.354   4.742   2.583
 4383TIP3    H113113   4.276   4.718   2.633
 4383TIP3    H213114   4.380   4.662   2.537
 4384TIP3   OH213115   4.322   2.286   4.806
 4384TIP3    H113116   4.401   2.309   4.855
 4384TIP3    H213117   4.310   2.359   4.745
 4385TIP3   OH213118   3.488   3.054   5.259
 4385TIP3    H113119   3.393   3.063   5.258
 4385TIP3    H213120   3.520   3.121   5.198
 4386TIP3   OH213121   6.022   5.529   0.038
 4386TIP3    H113122   6.079   5.481  -0.022
 4386TIP3    H213123   5.977   5.462   0.089
 4387TIP3   OH213124   0.259   2.655   3.364
 4387TIP3    H113125   0.301   2.638   3.280
 4387TIP3    H213126   0.168   2.673   3.342
 4388TIP3   OH213127   4.577   6.289   4.104
 4388TIP3    H113128   4.643   6.357   4.095
 4388TIP3    H213129   4.581   6.240   4.021
 4389TIP3   OH213130   5.954   3.039   0.490
 4389TIP3    H113131   5.939   3.123   0.447
 4389TIP3    H213132   5.881   2.985   0.460
 4390TIP3   OH213133   3.457   3.016   0.844
 4390TIP3    H113134   3.457   2.967   0.762
 4390TIP3    H213135   3.412   3.098   0.823
 4391TIP3   OH213136   5.335   5.644   5.727
 4391TIP3    H113137   5.300   5.733   5.731
 4391TIP3    H213138   5.397   5.646   5.653
 4392TIP3   OH213139   4.696   2.935   4.767
 4392TIP3    H113140   4.705   2.909   4.858
 4392TIP3    H213141   4.685   3.030   4.770
 4393TIP3   OH213142   5.185   5.911   1.040
 4393TIP3    H113143   5.268   5.952   1.015
 4393TIP3    H213144   5.145   5.973   1.102
 4394TIP3   OH213145   4.293   3.301   4.453
 4394TIP3    H113146   4.381   3.321   4.486
 4394TIP3    H213147   4.252   3.387   4.442
 4395TIP3   OH213148   5.675   5.896   3.250
 4395TIP3    H113149   5.584   5.920   3.270
 4395TIP3    H213150   5.683   5.805   3.280
 4396TIP3   OH213151   6.962   6.374   2.287
 4396TIP3    H113152   6.871   6.360   2.315
 4396TIP3    H213153   6.954   6.416   2.201
 4397TIP3   OH213154   2.087   5.403   1.340
 4397TIP3    H113155   2.131   5.482   1.370
 4397TIP3    H213156   2.007   5.435   1.298
 4398TIP3   OH213157   2.513   5.307   4.539
 4398TIP3    H113158   2.606   5.315   4.562
 4398TIP3    H213159   2.469   5.303   4.624
 4399TIP3   OH213160   6.739   1.799   3.287
 4399TIP3    H113161   6.773   1.863   3.224
 4399TIP3    H213162   6.748   1.842   3.372
 4400TIP3   OH213163   0.803   2.457   3.819
 4400TIP3    H113164   0.871   2.395   3.845
 4400TIP3    H213165   0.783   2.434   3.728
 4401TIP3   OH213166   6.030   4.126   3.329
 4401TIP3    H113167   6.094   4.197   3.334
 4401TIP3    H213168   6.083   4.047   3.328
 4402TIP3   OH213169   1.022   6.384   2.894
 4402TIP3    H113170   1.037   6.457   2.953
 4402TIP3    H213171   1.062   6.309   2.939
 4403TIP3   OH213172   2.717   6.033   4.940
 4403TIP3    H113173   2.805   6.041   4.905
 4403TIP3    H213174   2.724   5.965   5.007
 4404TIP3   OH213175   5.589   0.714   5.732
 4404TIP3    H113176   5.496   0.720   5.755
 4404TIP3    H213177   5.605   0.791   5.676
 4405TIP3   OH213178   6.472   6.410   5.916
 4405TIP3    H113179   6.537   6.340   5.916
 4405TIP3    H213180   6.512   6.480   5.863
 4406TIP3   OH213181   1.594   1.202   0.656
 4406TIP3    H113182   1.646   1.187   0.577
 4406TIP3    H213183   1.641   1.157   0.725
 4407TIP3   OH213184   1.529   0.799   3.067
 4407TIP3    H113185   1.583   0.720   3.066
 4407TIP3    H213186   1.585   0.867   3.032
 4408TIP3   OH213187   4.814   5.789   5.313
 4408TIP3    H113188   4.844   5.716   5.258
 4408TIP3    H213189   4.836   5.867   5.263
 4409TIP3   OH213190   0.197   5.572   5.094
 4409TIP3    H113191   0.254   5.546   5.022
 4409TIP3    H213192   0.234   5.653   5.127
 4410TIP3   OH213193   6.767   1.019   4.394
 4410TIP3    H113194   6.695   1.074   4.365
 4410TIP3    H213195   6.829   1.080   4.434
 4411TIP3   OH213196   2.716   1.017   2.217
 4411TIP3    H113197   2.751   0.967   2.142
 4411TIP3    H213198   2.779   1.088   2.229
 4412TIP3   OH213199   1.060   4.321   4.614
 4412TIP3    H113200   0.976   4.366   4.625
 4412TIP3    H213201   1.122   4.373   4.664
 4413TIP3   OH213202   3.586   4.315   3.761
 4413TIP3    H113203   3.650   4.273   3.703
 4413TIP3    H213204   3.633   4.389   3.798
 4414TIP3   OH213205   6.289   5.296   2.114
 4414TIP3    H113206   6.355   5.247   2.164
 4414TIP3    H213207   6.230   5.331   2.181
 4415TIP3   OH213208   1.241   5.346   0.377
 4415TIP3    H113209   1.328   5.320   0.346
 4415TIP3    H213210   1.189   5.267   0.371
 4416TIP3   OH213211   4.520   5.736   0.981
 4416TIP3    H113212   4.477   5.651   0.974
 4416TIP3    H213213   4.450   5.800   0.970
 4417TIP3   OH213214   6.657   2.768   3.451
 4417TIP3    H113215   6.709   2.689   3.464
 4417TIP3    H213216   6.675   2.822   3.528
 4418TIP3   OH213217   2.090   6.575   1.618
 4418TIP3    H113218   2.147   6.552   1.691
 4418TIP3    H213219   2.033   6.643   1.652
 4419TIP3   OH213220   1.409   5.803   3.952
 4419TIP3    H113221   1.441   5.776   4.038
 4419TIP3    H213222   1.416   5.724   3.898
 4420TIP3   OH213223   5.073   6.010   2.445
 4420TIP3    H113224   5.023   5.950   2.500
 4420TIP3    H213225   5.028   6.094   2.455
 4421TIP3   OH213226   0.388   2.126   2.214
 4421TIP3    H113227   0.375   2.035   2.239
 4421TIP3    H213228   0.301   2.165   2.218
 4422TIP3   OH213229   1.689   1.845   0.961
 4422TIP3    H113230   1.596   1.849   0.940
 4422TIP3    H213231   1.725   1.927   0.929
 4423TIP3   OH213232   0.648   6.512   3.686
 4423TIP3    H113233   0.639   6.421   3.658
 4423TIP3    H213234   0.733   6.515   3.731
 4424TIP3   OH213235   6.319   0.782   2.125
 4424TIP3    H113236   6.355   0.851   2.181
 4424TIP3    H213237   6.269   0.828   2.058
 4425TIP3   OH213238   2.441   1.442   2.533
 4425TIP3    H113239   2.419   1.452   2.626
 4425TIP3    H213240   2.486   1.357   2.528
 4426TIP3   OH213241   6.082   2.396   3.709
 4426TIP3    H113242   6.164   2.429   3.671
 4426TIP3    H213243   6.078   2.438   3.795
 4427TIP3   OH213244   1.979   2.302   2.376
 4427TIP3    H113245   2.073   2.305   2.395
 4427TIP3    H213246   1.937   2.321   2.460
 4428TIP3   OH213247   3.229   6.308   1.861
 4428TIP3    H113248   3.233   6.294   1.955
 4428TIP3    H213249   3.172   6.238   1.829
 4429TIP3   OH213250   2.334   1.052   3.443
 4429TIP3    H113251   2.279   0.997   3.388
 4429TIP3    H213252   2.374   1.115   3.383
 4430TIP3   OH213253   0.382   0.419   4.768
 4430TIP3    H113254   0.331   0.462   4.837
 4430TIP3    H213255   0.323   0.352   4.733
 4431TIP3   OH213256   6.549   0.819   4.535
 4431TIP3    H113257   6.593   0.738   4.507
 4431TIP3    H213258   6.620   0.882   4.548
 4432TIP3   OH213259   0.211   1.732   1.908
 4432TIP3    H113260   0.165   1.816   1.913
 4432TIP3    H213261   0.297   1.754   1.871
 4433TIP3   OH213262   0.339   0.403   0.629
 4433TIP3    H113263   0.316   0.341   0.698
 4433TIP3    H213264   0.265   0.402   0.568
 4434TIP3   OH213265   0.974   2.354   5.228
 4434TIP3    H113266   0.892   2.307   5.246
 4434TIP3    H213267   0.950   2.419   5.162
 4435TIP3   OH213268   0.364   4.971   2.969
 4435TIP3    H113269   0.374   5.034   2.898
 4435TIP3    H213270   0.428   4.903   2.950
 4436TIP3   OH213271   3.771   1.049   0.953
 4436TIP3    H113272   3.832   1.108   0.996
 4436TIP3    H213273   3.732   1.101   0.882
 4437TIP3   OH213274   4.063   3.067   5.761
 4437TIP3    H113275   4.084   3.048   5.853
 4437TIP3    H213276   4.133   3.126   5.733
 4438TIP3   OH213277   3.534   6.627   2.891
 4438TIP3    H113278   3.485   6.588   2.819
 4438TIP3    H213279   3.473   6.629   2.964
 4439TIP3   OH213280   6.290   4.069   0.080
 4439TIP3    H113281   6.247   4.021   0.008
 4439TIP3    H213282   6.302   4.003   0.148
 4440TIP3   OH213283   4.735   4.803   5.565
 4440TIP3    H113284   4.749   4.890   5.529
 4440TIP3    H213285   4.808   4.751   5.532
 4441TIP3   OH213286   5.801   5.252   1.346
 4441TIP3    H113287   5.782   5.284   1.434
 4441TIP3    H213288   5.778   5.160   1.347
 4442TIP3   OH213289   6.399   1.308   4.891
 4442TIP3    H113290   6.391   1.272   4.803
 4442TIP3    H213291   6.429   1.235   4.945
 4443TIP3   OH213292   0.578   1.033   1.820
 4443TIP3    H113293   0.597   1.110   1.766
 4443TIP3    H213294   0.651   0.973   1.802
 4444TIP3   OH213295   6.825   3.422   2.848
 4444TIP3    H113296   6.745   3.373   2.869
 4444TIP3    H213297   6.870   3.368   2.783
 4445TIP3   OH213298   0.675   6.245   1.688
 4445TIP3    H113299   0.657   6.214   1.776
 4445TIP3    H213300   0.613   6.316   1.674
 4446TIP3   OH213301   6.373   5.686   2.392
 4446TIP3    H113302   6.285   5.703   2.425
 4446TIP3    H213303   6.404   5.611   2.442
 4447TIP3   OH213304   0.317   1.779   2.515
 4447TIP3    H113305   0.266   1.785   2.595
 4447TIP3    H213306   0.408   1.785   2.544
 4448TIP3   OH213307   2.027   2.992   3.512
 4448TIP3    H113308   2.083   2.935   3.564
 4448TIP3    H213309   1.994   2.937   3.441
 4449TIP3   OH213310   5.929   1.630   4.993
 4449TIP3    H113311   5.835   1.649   5.000
 4449TIP3    H213312   5.951   1.652   4.903
 4450TIP3   OH213313   4.623   0.217   1.893
 4450TIP3    H113314   4.681   0.290   1.872
 4450TIP3    H213315   4.552   0.257   1.945
 4451TIP3   OH213316   4.878   1.546   4.668
 4451TIP3    H113317   4.787   1.540   4.638
 4451TIP3    H213318   4.908   1.456   4.673
 4452TIP3   OH213319   2.240   5.755   5.734
 4452TIP3    H113320   2.270   5.816   5.801
 4452TIP3    H213321   2.165   5.711   5.773
 4453TIP3   OH213322   4.431   4.765   3.011
 4453TIP3    H113323   4.386   4.684   2.986
 4453TIP3    H213324   4.481   4.789   2.933
 4454TIP3   OH213325   5.083   1.149   4.459
 4454TIP3    H113326   5.099   1.063   4.498
 4454TIP3    H213327   5.105   1.211   4.528
 4455TIP3   OH213328   6.583   5.980   1.870
 4455TIP3    H113329   6.556   6.000   1.959
 4455TIP3    H213330   6.659   5.922   1.880
 4456TIP3   OH213331   5.398   2.302   1.495
 4456TIP3    H113332   5.366   2.282   1.583
 4456TIP3    H213333   5.480   2.253   1.487
 4457TIP3   OH213334   5.214   6.541   2.799
 4457TIP3    H113335   5.279   6.516   2.733
 4457TIP3    H213336   5.140   6.481   2.784
 4458TIP3   OH213337   7.021   1.529   2.229
 4458TIP3    H113338   7.010   1.455   2.169
 4458TIP3    H213339   7.104   1.568   2.204
 4459TIP3   OH213340   3.409   6.311   1.505
 4459TIP3    H113341   3.335   6.251   1.508
 4459TIP3    H213342   3.478   6.266   1.553
 4460TIP3   OH213343   0.515   6.300   5.361
 4460TIP3    H113344   0.528   6.395   5.362
 4460TIP3    H213345   0.496   6.279   5.270
 4461TIP3   OH213346   1.853   0.308   1.950
 4461TIP3    H113347   1.891   0.345   1.870
 4461TIP3    H213348   1.796   0.378   1.983
 4462TIP3   OH213349   1.423   1.243   2.999
 4462TIP3    H113350   1.416   1.331   2.961
 4462TIP3    H213351   1.335   1.206   2.990
 4463TIP3   OH213352   4.959   2.499   3.329
 4463TIP3    H113353   4.997   2.429   3.276
 4463TIP3    H213354   5.006   2.494   3.412
 4464TIP3   OH213355   4.376   1.894   2.924
 4464TIP3    H113356   4.417   1.843   2.853
 4464TIP3    H213357   4.424   1.868   3.002
 4465TIP3   OH213358   1.006   4.943   3.708
 4465TIP3    H113359   0.956   4.864   3.687
 4465TIP3    H213360   1.050   4.965   3.626
 4466TIP3   OH213361   3.612   0.533   4.311
 4466TIP3    H113362   3.573   0.504   4.228
 4466TIP3    H213363   3.555   0.496   4.379
 4467TIP3   OH213364   0.720   1.572   3.308
 4467TIP3    H113365   0.746   1.576   3.401
 4467TIP3    H213366   0.646   1.511   3.307
 4468TIP3   OH213367   1.167   5.709   5.122
 4468TIP3    H113368   1.098   5.750   5.175
 4468TIP3    H213369   1.215   5.653   5.183
 4469TIP3   OH213370   2.704   0.682   3.481
 4469TIP3    H113371   2.629   0.739   3.499
 4469TIP3    H213372   2.706   0.621   3.555
 4470TIP3   OH213373   4.919   6.683   2.439
 4470TIP3    H113374   5.003   6.648   2.408
 4470TIP3    H213375   4.917   6.663   2.532
 4471TIP3   OH213376   1.424   1.205   3.584
 4471TIP3    H113377   1.336   1.240   3.571
 4471TIP3    H213378   1.436   1.205   3.679
 4472TIP3   OH213379   0.166   0.597   1.586
 4472TIP3    H113380   0.102   0.661   1.617
 4472TIP3    H213381   0.223   0.648   1.528
 4473TIP3   OH213382   3.858   1.128   0.547
 4473TIP3    H113383   3.816   1.096   0.467
 4473TIP3    H213384   3.917   1.057   0.572
 4474TIP3   OH213385   1.048   5.792   2.363
 4474TIP3    H113386   1.098   5.854   2.310
 4474TIP3    H213387   0.961   5.832   2.371
 4475TIP3   OH213388   2.229   5.207   2.066
 4475TIP3    H113389   2.141   5.185   2.034
 4475TIP3    H213390   2.275   5.123   2.069
 4476TIP3   OH213391   5.032   0.579   1.831
 4476TIP3    H113392   5.100   0.541   1.775
 4476TIP3    H213393   4.993   0.648   1.778
 4477TIP3   OH213394   4.241   4.963   4.711
 4477TIP3    H113395   4.199   4.879   4.695
 4477TIP3    H213396   4.206   4.991   4.796
 4478TIP3   OH213397   6.794   5.704   3.838
 4478TIP3    H113398   6.703   5.732   3.838
 4478TIP3    H213399   6.795   5.624   3.891
 4479TIP3   OH213400   4.300   3.839   5.423
 4479TIP3    H113401   4.263   3.791   5.349
 4479TIP3    H213402   4.227   3.893   5.455
 4480TIP3   OH213403   4.919   1.440   5.512
 4480TIP3    H113404   4.985   1.461   5.579
 4480TIP3    H213405   4.879   1.359   5.542
 4481TIP3   OH213406   1.157   5.511   0.560
 4481TIP3    H113407   1.208   5.462   0.496
 4481TIP3    H213408   1.106   5.444   0.606
 4482TIP3   OH213409   5.985   2.061   0.835
 4482TIP3    H113410   6.074   2.039   0.861
 4482TIP3    H213411   5.963   1.997   0.767
 4483TIP3   OH213412   6.725   2.167   4.033
 4483TIP3    H113413   6.813   2.170   3.997
 4483TIP3    H213414   6.731   2.106   4.107
 4484TIP3   OH213415   5.042   3.901   1.314
 4484TIP3    H113416   5.092   3.958   1.256
 4484TIP3    H213417   5.073   3.813   1.295
 4485TIP3   OH213418   4.010   2.473   5.063
 4485TIP3    H113419   4.011   2.398   5.004
 4485TIP3    H213420   3.917   2.497   5.069
 4486TIP3   OH213421   1.898   6.424   1.240
 4486TIP3    H113422   1.884   6.432   1.335
 4486TIP3    H213423   1.817   6.384   1.207
 4487TIP3   OH213424   0.896   5.928   2.001
 4487TIP3    H113425   0.875   5.998   2.062
 4487TIP3    H213426   0.833   5.939   1.929
 4488TIP3   OH213427   0.685   0.602   0.772
 4488TIP3    H113428   0.660   0.610   0.681
 4488TIP3    H213429   0.700   0.508   0.785
 4489TIP3   OH213430   2.805   2.215   0.485
 4489TIP3    H113431   2.876   2.154   0.506
 4489TIP3    H213432   2.818   2.236   0.393
 4490TIP3   OH213433   6.155   0.625   1.618
 4490TIP3    H113434   6.146   0.599   1.526
 4490TIP3    H213435   6.248   0.645   1.628
 4491TIP3   OH213436   4.053   6.214   3.172
 4491TIP3    H113437   3.975   6.164   3.197
 4491TIP3    H213438   4.077   6.261   3.252
 4492TIP3   OH213439   1.830   6.655   3.377
 4492TIP3    H113440   1.876   6.657   3.461
 4492TIP3    H213441   1.832   6.746   3.347
 4493TIP3   OH213442   2.482   2.470   2.281
 4493TIP3    H113443   2.443   2.555   2.298
 4493TIP3    H213444   2.487   2.428   2.367
 4494TIP3   OH213445   5.577   5.960   0.021
 4494TIP3    H113446   5.655   5.936   0.072
 4494TIP3    H213447   5.542   6.036   0.066
 4495TIP3   OH213448   1.986   1.447   4.488
 4495TIP3    H113449   2.013   1.462   4.579
 4495TIP3    H213450   1.950   1.531   4.459
 4496TIP3   OH213451   6.026   0.650   3.450
 4496TIP3    H113452   6.027   0.668   3.356
 4496TIP3    H213453   5.994   0.560   3.458
 4497TIP3   OH213454   1.546   2.001   0.729
 4497TIP3    H113455   1.638   2.017   0.706
 4497TIP3    H213456   1.533   2.050   0.810
 4498TIP3   OH213457   3.539   4.821   3.988
 4498TIP3    H113458   3.582   4.793   4.068
 4498TIP3    H213459   3.564   4.913   3.978
 4499TIP3   OH213460   3.619   1.139   1.597
 4499TIP3    H113461   3.683   1.111   1.531
 4499TIP3    H213462   3.582   1.057   1.630
 4500TIP3   OH213463   1.782   4.953   3.401
 4500TIP3    H113464   1.723   4.902   3.458
 4500TIP3    H213465   1.858   4.971   3.455
 4501TIP3   OH213466   6.712   2.912   3.646
 4501TIP3    H113467   6.664   2.993   3.665
 4501TIP3    H213468   6.773   2.903   3.719
 4502TIP3   OH213469   1.195   4.346   1.909
 4502TIP3    H113470   1.134   4.419   1.900
 4502TIP3    H213471   1.222   4.327   1.819
 4503TIP3   OH213472   0.420   1.052   0.698
 4503TIP3    H113473   0.398   1.072   0.607
 4503TIP3    H213474   0.504   1.005   0.693
 4504TIP3   OH213475   6.357   5.651   1.442
 4504TIP3    H113476   6.317   5.596   1.375
 4504TIP3    H213477   6.329   5.613   1.525
 4505TIP3   OH213478   2.206   2.045   4.222
 4505TIP3    H113479   2.225   2.122   4.169
 4505TIP3    H213480   2.139   2.075   4.284
 4506TIP3   OH213481   4.651   3.191   1.870
 4506TIP3    H113482   4.559   3.179   1.846
 4506TIP3    H213483   4.693   3.223   1.790
 4507TIP3   OH213484   5.985   1.044   2.528
 4507TIP3    H113485   6.011   1.096   2.604
 4507TIP3    H213486   6.004   1.100   2.453
 4508TIP3   OH213487   6.814   2.673   3.893
 4508TIP3    H113488   6.823   2.689   3.987
 4508TIP3    H213489   6.826   2.760   3.854
 4509TIP3   OH213490   5.988   3.269   5.081
 4509TIP3    H113491   5.926   3.235   5.147
 4509TIP3    H213492   6.052   3.318   5.132
 4510TIP3   OH213493   1.705   1.290   2.873
 4510TIP3    H113494   1.623   1.301   2.826
 4510TIP3    H213495   1.707   1.363   2.935
 4511TIP3   OH213496   5.487   3.829   2.573
 4511TIP3    H113497   5.569   3.856   2.531
 4511TIP3    H213498   5.451   3.911   2.609
 4512TIP3   OH213499   2.141   2.745   1.841
 4512TIP3    H113500   2.065   2.770   1.788
 4512TIP3    H213501   2.146   2.650   1.832
 4513TIP3   OH213502   4.531   5.120   1.437
 4513TIP3    H113503   4.457   5.059   1.444
 4513TIP3    H213504   4.498   5.202   1.473
 4514TIP3   OH213505   0.215   5.099   0.187
 4514TIP3    H113506   0.253   5.178   0.226
 4514TIP3    H213507   0.234   5.108   0.093
 4515TIP3   OH213508   3.604   5.891   3.291
 4515TIP3    H113509   3.556   5.911   3.211
 4515TIP3    H213510   3.541   5.907   3.361
 4516TIP3   OH213511   0.268   2.713   0.876
 4516TIP3    H113512   0.181   2.738   0.908
 4516TIP3    H213513   0.285   2.628   0.917
 4517TIP3   OH213514   1.664   6.618   2.600
 4517TIP3    H113515   1.582   6.615   2.552
 4517TIP3    H213516   1.640   6.648   2.688
 4518TIP3   OH213517   1.619   2.476   1.981
 4518TIP3    H113518   1.669   2.556   1.998
 4518TIP3    H213519   1.548   2.478   2.046
 4519TIP3   OH213520   4.433   5.020   4.997
 4519TIP3    H113521   4.338   5.022   4.985
 4519TIP3    H213522   4.469   5.032   4.909
 4520TIP3   OH213523   2.078   3.213   5.759
 4520TIP3    H113524   2.098   3.212   5.665
 4520TIP3    H213525   2.012   3.282   5.769
 4521TIP3   OH213526   1.886   2.935   0.595
 4521TIP3    H113527   1.869   2.990   0.671
 4521TIP3    H213528   1.968   2.889   0.616
 4522TIP3   OH213529   5.042   1.286   5.202
 4522TIP3    H113530   5.007   1.316   5.119
 4522TIP3    H213531   5.022   1.356   5.264
 4523TIP3   OH213532   0.903   3.129   4.116
 4523TIP3    H113533   0.949   3.049   4.089
 4523TIP3    H213534   0.824   3.097   4.159
 4524TIP3   OH213535   6.623   3.793   5.399
 4524TIP3    H113536   6.561   3.856   5.437
 4524TIP3    H213537   6.569   3.719   5.373
 4525TIP3   OH213538   4.246   1.051   4.134
 4525TIP3    H113539   4.223   1.074   4.225
 4525TIP3    H213540   4.242   0.956   4.132
 4526TIP3   OH213541   2.160   2.591   0.279
 4526TIP3    H113542   2.226   2.655   0.253
 4526TIP3    H213543   2.088   2.643   0.313
 4527TIP3   OH213544   3.306   0.068   2.854
 4527TIP3    H113545   3.323   0.118   2.934
 4527TIP3    H213546   3.249   0.125   2.802
 4528TIP3   OH213547   4.351   0.051   2.470
 4528TIP3    H113548   4.322   0.142   2.482
 4528TIP3    H213549   4.397   0.030   2.551
 4529TIP3   OH213550   3.126   4.953   2.818
 4529TIP3    H113551   3.141   4.958   2.723
 4529TIP3    H213552   3.084   4.868   2.831
 4530TIP3   OH213553   1.388   0.936   3.710
 4530TIP3    H113554   1.293   0.930   3.724
 4530TIP3    H213555   1.416   0.845   3.696
 4531TIP3   OH213556   0.602   2.080   5.852
 4531TIP3    H113557   0.662   2.007   5.868
 4531TIP3    H213558   0.652   2.140   5.796
 4532TIP3   OH213559   3.635   1.792   0.009
 4532TIP3    H113560   3.717   1.746   0.031
 4532TIP3    H213561   3.566   1.734   0.041
 4533TIP3   OH213562   6.680   6.095   1.638
 4533TIP3    H113563   6.660   6.025   1.575
 4533TIP3    H213564   6.657   6.057   1.723
 4534TIP3   OH213565   2.356   3.828   3.094
 4534TIP3    H113566   2.408   3.905   3.119
 4534TIP3    H213567   2.378   3.762   3.160
 4535TIP3   OH213568   5.701   3.974   2.438
 4535TIP3    H113569   5.761   3.903   2.457
 4535TIP3    H213570   5.658   3.948   2.356
 4536TIP3   OH213571   1.124   1.148   1.064
 4536TIP3    H113572   1.162   1.221   1.113
 4536TIP3    H213573   1.047   1.122   1.116
 4537TIP3   OH213574   1.676   5.759   0.685
 4537TIP3    H113575   1.620   5.799   0.619
 4537TIP3    H213576   1.753   5.728   0.637
 4538TIP3   OH213577   6.080   2.181   4.551
 4538TIP3    H113578   6.091   2.260   4.498
 4538TIP3    H213579   6.165   2.139   4.548
 4539TIP3   OH213580   0.972   0.834   5.122
 4539TIP3    H113581   1.058   0.871   5.139
 4539TIP3    H213582   0.966   0.759   5.182
 4540TIP3   OH213583   3.565   1.703   3.678
 4540TIP3    H113584   3.524   1.760   3.744
 4540TIP3    H213585   3.493   1.654   3.639
 4541TIP3   OH213586   2.154   0.995   0.956
 4541TIP3    H113587   2.152   1.063   0.888
 4541TIP3    H213588   2.182   0.916   0.910
 4542TIP3   OH213589   5.711   5.409   0.474
 4542TIP3    H113590   5.628   5.386   0.514
 4542TIP3    H213591   5.688   5.441   0.386
 4543TIP3   OH213592   0.687   1.490   0.651
 4543TIP3    H113593   0.739   1.501   0.731
 4543TIP3    H213594   0.707   1.568   0.599
 4544TIP3   OH213595   3.581   0.668   2.679
 4544TIP3    H113596   3.523   0.669   2.604
 4544TIP3    H213597   3.635   0.590   2.667
 4545TIP3   OH213598   3.753   4.460   5.403
 4545TIP3    H113599   3.686   4.497   5.346
 4545TIP3    H213600   3.766   4.371   5.371
 4546TIP3   OH213601   4.630   6.143   1.848
 4546TIP3    H113602   4.722   6.152   1.823
 4546TIP3    H213603   4.582   6.143   1.765
 4547TIP3   OH213604   6.690   4.496   5.052
 4547TIP3    H113605   6.717   4.454   4.971
 4547TIP3    H213606   6.630   4.434   5.094
 4548TIP3   OH213607   3.112   2.183   2.846
 4548TIP3    H113608   3.139   2.117   2.910
 4548TIP3    H213609   3.194   2.209   2.803
 4549TIP3   OH213610   2.353   5.140   1.083
 4549TIP3    H113611   2.414   5.184   1.142
 4549TIP3    H213612   2.291   5.209   1.057
 4550TIP3   OH213613   6.248   6.481   2.893
 4550TIP3    H113614   6.270   6.391   2.869
 4550TIP3    H213615   6.291   6.495   2.977
 4551TIP3   OH213616   4.665   5.304   3.136
 4551TIP3    H113617   4.603   5.273   3.203
 4551TIP3    H213618   4.647   5.249   3.060
 4552TIP3   OH213619   6.831   0.870   2.328
 4552TIP3    H113620   6.768   0.829   2.268
 4552TIP3    H213621   6.781   0.936   2.374
 4553TIP3   OH213622   6.428   1.618   1.114
 4553TIP3    H113623   6.506   1.580   1.154
 4553TIP3    H213624   6.460   1.657   1.033
 4554TIP3   OH213625   3.231   6.552   0.172
 4554TIP3    H113626   3.305   6.492   0.167
 4554TIP3    H213627   3.158   6.503   0.133
 4555TIP3   OH213628   5.263   1.732   0.194
 4555TIP3    H113629   5.216   1.649   0.181
 4555TIP3    H213630   5.194   1.796   0.213
 4556TIP3   OH213631   0.804   2.054   4.156
 4556TIP3    H113632   0.760   2.138   4.166
 4556TIP3    H213633   0.838   2.056   4.066
 4557TIP3   OH213634   2.725   6.690   4.836
 4557TIP3    H113635   2.712   6.772   4.787
 4557TIP3    H213636   2.803   6.651   4.798
 4558TIP3   OH213637   0.618   3.693   1.781
 4558TIP3    H113638   0.592   3.623   1.721
 4558TIP3    H213639   0.711   3.707   1.764
 4559TIP3   OH213640   1.052   2.022   1.794
 4559TIP3    H113641   1.027   2.081   1.865
 4559TIP3    H213642   1.017   1.936   1.820
 4560TIP3   OH213643   2.263   0.352   2.888
 4560TIP3    H113644   2.347   0.307   2.884
 4560TIP3    H213645   2.283   0.434   2.934
 4561TIP3   OH213646   4.623   4.971   2.202
 4561TIP3    H113647   4.656   4.924   2.125
 4561TIP3    H213648   4.683   4.947   2.272
 4562TIP3   OH213649   3.657   2.097   2.566
 4562TIP3    H113650   3.602   2.019   2.573
 4562TIP3    H213651   3.635   2.133   2.480
 4563TIP3   OH213652   3.441   2.658   5.751
 4563TIP3    H113653   3.347   2.644   5.748
 4563TIP3    H213654   3.478   2.588   5.698
 4564TIP3   OH213655   0.250   6.633   0.771
 4564TIP3    H113656   0.227   6.632   0.864
 4564TIP3    H213657   0.301   6.713   0.760
 4565TIP3   OH213658   2.913   6.111   4.778
 4565TIP3    H113659   2.995   6.075   4.745
 4565TIP3    H213660   2.850   6.097   4.707
 4566TIP3   OH213661   3.254   6.671   5.547
 4566TIP3    H113662   3.216   6.755   5.572
 4566TIP3    H213663   3.188   6.606   5.572
 4567TIP3   OH213664   3.920   5.953   4.686
 4567TIP3    H113665   3.853   5.889   4.709
 4567TIP3    H213666   3.992   5.934   4.746
 4568TIP3   OH213667   3.708   6.635   1.324
 4568TIP3    H113668   3.663   6.606   1.404
 4568TIP3    H213669   3.688   6.567   1.259
 4569TIP3   OH213670   2.021   3.036   4.828
 4569TIP3    H113671   2.038   3.016   4.736
 4569TIP3    H213672   1.927   3.055   4.831
 4570TIP3   OH213673   2.950   3.029   5.835
 4570TIP3    H113674   3.028   3.080   5.815
 4570TIP3    H213675   2.981   2.939   5.842
 4571TIP3   OH213676   4.648   6.250   3.214
 4571TIP3    H113677   4.628   6.309   3.287
 4571TIP3    H213678   4.613   6.294   3.137
 4572TIP3   OH213679   0.027   3.670   0.580
 4572TIP3    H113680   0.107   3.619   0.570
 4572TIP3    H213681   0.045   3.728   0.654
 4573TIP3   OH213682   6.316   0.566   4.324
 4573TIP3    H113683   6.336   0.530   4.410
 4573TIP3    H213684   6.380   0.528   4.265
 4574TIP3   OH213685   2.683   3.578   4.860
 4574TIP3    H113686   2.601   3.626   4.876
 4574TIP3    H213687   2.654   3.490   4.834
 4575TIP3   OH213688   3.058   3.873   4.957
 4575TIP3    H113689   3.028   3.950   4.908
 4575TIP3    H213690   3.008   3.800   4.920
 4576TIP3   OH213691   0.354   1.871   1.098
 4576TIP3    H113692   0.372   1.829   1.013
 4576TIP3    H213693   0.403   1.953   1.094
 4577TIP3   OH213694   4.804   3.216   5.514
 4577TIP3    H113695   4.837   3.296   5.472
 4577TIP3    H213696   4.818   3.230   5.608
 4578TIP3   OH213697   4.035   5.877   0.862
 4578TIP3    H113698   4.053   5.946   0.926
 4578TIP3    H213699   4.122   5.852   0.830
 4579TIP3   OH213700   0.850   2.307   1.251
 4579TIP3    H113701   0.877   2.333   1.163
 4579TIP3    H213702   0.762   2.343   1.261
 4580TIP3   OH213703   6.280   3.116   0.810
 4580TIP3    H113704   6.267   3.066   0.890
 4580TIP3    H213705   6.192   3.123   0.771
 4581TIP3   OH213706   2.636   0.334   0.941
 4581TIP3    H113707   2.610   0.379   1.021
 4581TIP3    H213708   2.560   0.342   0.883
 4582TIP3   OH213709   1.122   0.257   0.739
 4582TIP3    H113710   1.211   0.271   0.769
 4582TIP3    H213711   1.128   0.258   0.643
 4583TIP3   OH213712   3.740   3.841   1.492
 4583TIP3    H113713   3.647   3.861   1.506
 4583TIP3    H213714   3.777   3.838   1.581
 4584TIP3   OH213715   3.906   4.713   0.483
 4584TIP3    H113716   3.886   4.624   0.455
 4584TIP3    H213717   3.998   4.725   0.462
 4585TIP3   OH213718   2.423   5.103   5.248
 4585TIP3    H113719   2.382   5.026   5.210
 4585TIP3    H213720   2.463   5.149   5.174
 4586TIP3   OH213721   6.877   2.395   4.304
 4586TIP3    H113722   6.941   2.438   4.247
 4586TIP3    H213723   6.794   2.401   4.257
 4587TIP3   OH213724   2.868   0.638   5.452
 4587TIP3    H113725   2.861   0.712   5.392
 4587TIP3    H213726   2.792   0.583   5.431
 4588TIP3   OH213727   0.501   0.009   1.744
 4588TIP3    H113728   0.558   0.042   1.675
 4588TIP3    H213729   0.552   0.021   1.824
 4589TIP3   OH213730   1.627   1.564   2.729
 4589TIP3    H113731   1.564   1.492   2.736
 4589TIP3    H213732   1.705   1.524   2.690
 4590TIP3   OH213733   2.268   0.854   5.352
 4590TIP3    H113734   2.198   0.794   5.378
 4590TIP3    H213735   2.337   0.841   5.417
 4591TIP3   OH213736   4.593   1.205   1.773
 4591TIP3    H113737   4.599   1.119   1.731
 4591TIP3    H213738   4.572   1.265   1.702
 4592TIP3   OH213739   6.485   3.229   0.129
 4592TIP3    H113740   6.446   3.189   0.206
 4592TIP3    H213741   6.578   3.205   0.134
 4593TIP3   OH213742   0.539   2.776   5.242
 4593TIP3    H113743   0.477   2.833   5.288
 4593TIP3    H213744   0.497   2.690   5.243
 4594TIP3   OH213745   2.995   1.562   5.710
 4594TIP3    H113746   3.032   1.572   5.622
 4594TIP3    H213747   2.945   1.642   5.724
 4595TIP3   OH213748   1.547   0.823   4.441
 4595TIP3    H113749   1.631   0.842   4.400
 4595TIP3    H213750   1.488   0.889   4.405
 4596TIP3   OH213751   0.139   6.191   3.676
 4596TIP3    H113752   0.206   6.240   3.628
 4596TIP3    H213753   0.137   6.232   3.762
 4597TIP3   OH213754   4.036   4.269   5.487
 4597TIP3    H113755   4.109   4.304   5.538
 4597TIP3    H213756   3.959   4.285   5.542
 4598TIP3   OH213757   4.766   2.197   0.363
 4598TIP3    H113758   4.814   2.251   0.426
 4598TIP3    H213759   4.694   2.253   0.334
 4599TIP3   OH213760   3.866   4.101   1.198
 4599TIP3    H113761   3.841   4.189   1.226
 4599TIP3    H213762   3.815   4.086   1.118
 4600TIP3   OH213763   4.972   6.611   0.164
 4600TIP3    H113764   4.931   6.565   0.237
 4600TIP3    H213765   4.924   6.582   0.086
 4601TIP3   OH213766   3.430   5.079   4.866
 4601TIP3    H113767   3.485   5.054   4.940
 4601TIP3    H213768   3.418   4.998   4.817
 4602TIP3   OH213769   1.763   1.428   1.010
 4602TIP3    H113770   1.797   1.344   0.979
 4602TIP3    H213771   1.702   1.456   0.941
 4603TIP3   OH213772   6.548   4.364   1.280
 4603TIP3    H113773   6.640   4.357   1.306
 4603TIP3    H213774   6.506   4.413   1.351
 4604TIP3   OH213775   0.175   5.032   4.451
 4604TIP3    H113776   0.180   5.125   4.469
 4604TIP3    H213777   0.266   5.004   4.441
 4605TIP3   OH213778   4.739   6.261   0.733
 4605TIP3    H113779   4.826   6.225   0.754
 4605TIP3    H213780   4.719   6.320   0.806
 4606TIP3   OH213781   6.648   3.170   1.396
 4606TIP3    H113782   6.573   3.139   1.447
 4606TIP3    H213783   6.637   3.130   1.310
 4607TIP3   OH213784   0.028   1.238   3.355
 4607TIP3    H113785   0.055   1.243   3.447
 4607TIP3    H213786   0.087   1.174   3.316
 4608TIP3   OH213787   7.059   3.952   4.045
 4608TIP3    H113788   7.101   3.959   3.960
 4608TIP3    H213789   7.130   3.959   4.109
 4609TIP3   OH213790   0.833   2.525   4.335
 4609TIP3    H113791   0.737   2.530   4.334
 4609TIP3    H213792   0.857   2.513   4.243
 4610TIP3   OH213793   2.622   3.827   4.549
 4610TIP3    H113794   2.675   3.853   4.474
 4610TIP3    H213795   2.668   3.863   4.625
 4611TIP3   OH213796   4.599   2.571   2.696
 4611TIP3    H113797   4.523   2.584   2.753
 4611TIP3    H213798   4.669   2.620   2.739
 4612TIP3   OH213799   6.898   2.932   3.845
 4612TIP3    H113800   6.890   3.011   3.899
 4612TIP3    H213801   6.987   2.900   3.862
 4613TIP3   OH213802   2.793   3.805   2.190
 4613TIP3    H113803   2.760   3.795   2.280
 4613TIP3    H213804   2.877   3.759   2.190
 4614TIP3   OH213805   6.320   6.267   5.512
 4614TIP3    H113806   6.239   6.244   5.466
 4614TIP3    H213807   6.374   6.310   5.446
 4615TIP3   OH213808   5.296   0.556   5.244
 4615TIP3    H113809   5.229   0.487   5.249
 4615TIP3    H213810   5.246   0.636   5.230
 4616TIP3   OH213811   2.583   4.314   3.247
 4616TIP3    H113812   2.644   4.364   3.193
 4616TIP3    H213813   2.497   4.337   3.214
 4617TIP3   OH213814   2.215   5.668   4.317
 4617TIP3    H113815   2.227   5.691   4.409
 4617TIP3    H213816   2.170   5.583   4.319
 4618TIP3   OH213817   3.757   5.359   5.678
 4618TIP3    H113818   3.843   5.329   5.708
 4618TIP3    H213819   3.708   5.278   5.661
 4619TIP3   OH213820   4.808   3.974   2.801
 4619TIP3    H113821   4.847   4.060   2.810
 4619TIP3    H213822   4.793   3.944   2.890
 4620TIP3   OH213823   0.396   3.158   3.525
 4620TIP3    H113824   0.306   3.187   3.540
 4620TIP3    H213825   0.388   3.085   3.463
 4621TIP3   OH213826   0.341   6.769   0.070
 4621TIP3    H113827   0.291   6.731   0.141
 4621TIP3    H213828   0.320   6.863   0.073
 4622TIP3   OH213829   5.985   0.887   3.639
 4622TIP3    H113830   6.047   0.895   3.711
 4622TIP3    H213831   6.020   0.816   3.585
 4623TIP3   OH213832   1.654   5.259   4.089
 4623TIP3    H113833   1.728   5.297   4.135
 4623TIP3    H213834   1.590   5.330   4.082
 4624TIP3   OH213835   7.026   3.820   0.653
 4624TIP3    H113836   6.939   3.808   0.615
 4624TIP3    H213837   7.081   3.757   0.608
 4625TIP3   OH213838   6.311   5.231   0.556
 4625TIP3    H113839   6.361   5.159   0.594
 4625TIP3    H213840   6.272   5.275   0.632
 4626TIP3   OH213841   7.077   5.775   3.062
 4626TIP3    H113842   7.059   5.780   2.968
 4626TIP3    H213843   7.025   5.846   3.100
 4627TIP3   OH213844   6.701   4.394   4.804
 4627TIP3    H113845   6.734   4.395   4.714
 4627TIP3    H213846   6.656   4.310   4.811
 4628TIP3   OH213847   3.517   4.952   1.136
 4628TIP3    H113848   3.500   4.896   1.061
 4628TIP3    H213849   3.466   5.031   1.119
 4629TIP3   OH213850   0.833   0.991   2.891
 4629TIP3    H113851   0.846   0.909   2.844
 4629TIP3    H213852   0.907   1.045   2.865
 4630TIP3   OH213853   6.366   4.509   1.084
 4630TIP3    H113854   6.354   4.431   1.030
 4630TIP3    H213855   6.379   4.475   1.173
 4631TIP3   OH213856   2.870   6.510   1.616
 4631TIP3    H113857   2.776   6.510   1.601
 4631TIP3    H213858   2.879   6.516   1.712
 4632TIP3   OH213859   4.142   2.127   3.675
 4632TIP3    H113860   4.069   2.186   3.655
 4632TIP3    H213861   4.106   2.066   3.740
 4633TIP3   OH213862   0.960   2.892   3.827
 4633TIP3    H113863   0.937   2.984   3.841
 4633TIP3    H213864   0.877   2.844   3.839
 4634TIP3   OH213865   2.886   2.446   2.632
 4634TIP3    H113866   2.823   2.491   2.577
 4634TIP3    H213867   2.959   2.427   2.574
 4635TIP3   OH213868   6.225   1.405   4.450
 4635TIP3    H113869   6.299   1.462   4.429
 4635TIP3    H213870   6.152   1.465   4.467
 4636TIP3   OH213871   4.864   5.760   0.421
 4636TIP3    H113872   4.839   5.714   0.341
 4636TIP3    H213873   4.857   5.695   0.490
 4637TIP3   OH213874   0.185   3.473   3.971
 4637TIP3    H113875   0.244   3.495   3.898
 4637TIP3    H213876   0.201   3.542   4.036
 4638TIP3   OH213877   0.695   3.094   4.355
 4638TIP3    H113878   0.603   3.122   4.351
 4638TIP3    H213879   0.736   3.155   4.416
 4639TIP3   OH213880   0.122   0.325   0.474
 4639TIP3    H113881   0.165   0.261   0.417
 4639TIP3    H213882   0.039   0.284   0.497
 4640TIP3   OH213883   6.841   6.118   1.925
 4640TIP3    H113884   6.934   6.137   1.916
 4640TIP3    H213885   6.834   6.024   1.913
 4641TIP3   OH213886   1.035   0.905   3.424
 4641TIP3    H113887   1.104   0.970   3.423
 4641TIP3    H213888   0.959   0.949   3.385
 4642TIP3   OH213889   4.877   1.497   3.282
 4642TIP3    H113890   4.840   1.444   3.212
 4642TIP3    H213891   4.927   1.565   3.237
 4643TIP3   OH213892   1.614   6.037   3.999
 4643TIP3    H113893   1.528   6.013   4.033
 4643TIP3    H213894   1.605   6.028   3.904
 4644TIP3   OH213895   1.988   5.736   5.852
 4644TIP3    H113896   1.899   5.716   5.823
 4644TIP3    H213897   1.983   5.826   5.885
 4645TIP3   OH213898   3.798   1.060   4.899
 4645TIP3    H113899   3.849   0.980   4.912
 4645TIP3    H213900   3.708   1.030   4.889
 4646TIP3   OH213901   3.906   4.036   4.434
 4646TIP3    H113902   3.868   4.065   4.517
 4646TIP3    H213903   3.969   4.105   4.412
 4647TIP3   OH213904   2.792   1.459   1.078
 4647TIP3    H113905   2.753   1.542   1.105
 4647TIP3    H213906   2.729   1.422   1.016
 4648TIP3   OH213907   1.582   3.189   2.682
 4648TIP3    H113908   1.568   3.132   2.758
 4648TIP3    H213909   1.505   3.246   2.682
 4649TIP3   OH213910   7.094   1.650   4.261
 4649TIP3    H113911   7.047   1.572   4.233
 4649TIP3    H213912   7.122   1.630   4.351
 4650TIP3   OH213913   1.709   0.266   4.002
 4650TIP3    H113914   1.674   0.186   3.962
 4650TIP3    H213915   1.690   0.335   3.939
 4651TIP3   OH213916   4.209   4.453   2.056
 4651TIP3    H113917   4.302   4.431   2.048
 4651TIP3    H213918   4.173   4.384   2.112
 4652TIP3   OH213919   2.852   2.073   1.646
 4652TIP3    H113920   2.815   2.124   1.719
 4652TIP3    H213921   2.943   2.102   1.640
 4653TIP3   OH213922   2.852   5.881   3.791
 4653TIP3    H113923   2.944   5.891   3.816
 4653TIP3    H213924   2.842   5.937   3.714
 4654TIP3   OH213925   3.988   0.853   5.759
 4654TIP3    H113926   3.948   0.792   5.821
 4654TIP3    H213927   3.926   0.926   5.754
 4655TIP3   OH213928   1.426   4.092   3.043
 4655TIP3    H113929   1.493   4.062   3.105
 4655TIP3    H213930   1.473   4.099   2.960
 4656TIP3   OH213931   5.828   0.708   5.882
 4656TIP3    H113932   5.747   0.697   5.832
 4656TIP3    H213933   5.837   0.626   5.930
 4657TIP3   OH213934   2.803   6.043   3.570
 4657TIP3    H113935   2.755   6.058   3.489
 4657TIP3    H213936   2.866   6.115   3.575
 4658TIP3   OH213937   5.308   1.493   0.383
 4658TIP3    H113938   5.259   1.438   0.322
 4658TIP3    H213939   5.373   1.538   0.329
 4659TIP3   OH213940   6.580   5.166  -0.004
 4659TIP3    H113941   6.528   5.110  -0.063
 4659TIP3    H213942   6.517   5.230   0.029
 4660TIP3   OH213943   7.105   1.845   5.670
 4660TIP3    H113944   7.108   1.907   5.743
 4660TIP3    H213945   7.148   1.767   5.704
 4661TIP3   OH213946   4.669   6.311   4.878
 4661TIP3    H113947   4.761   6.307   4.855
 4661TIP3    H213948   4.658   6.244   4.946
 4662TIP3   OH213949   6.721   1.387   3.632
 4662TIP3    H113950   6.719   1.453   3.563
 4662TIP3    H213951   6.648   1.329   3.611
 4663TIP3   OH213952   2.022   3.544   3.268
 4663TIP3    H113953   1.955   3.503   3.213
 4663TIP3    H213954   1.990   3.633   3.282
 4664TIP3   OH213955   1.501   4.286   5.055
 4664TIP3    H113956   1.470   4.264   4.967
 4664TIP3    H213957   1.423   4.280   5.110
 4665TIP3   OH213958   5.150   5.784   3.146
 4665TIP3    H113959   5.107   5.742   3.072
 4665TIP3    H213960   5.143   5.878   3.128
 4666TIP3   OH213961   4.265   0.695   1.353
 4666TIP3    H113962   4.222   0.676   1.437
 4666TIP3    H213963   4.357   0.674   1.368
 4667TIP3   OH213964   2.919   6.436   1.170
 4667TIP3    H113965   3.005   6.475   1.154
 4667TIP3    H213966   2.858   6.510   1.164
 4668TIP3   OH213967   3.081   6.328   4.625
 4668TIP3    H113968   3.051   6.318   4.715
 4668TIP3    H213969   3.089   6.238   4.593
 4669TIP3   OH213970   6.474   2.322   0.261
 4669TIP3    H113971   6.391   2.329   0.214
 4669TIP3    H213972   6.472   2.394   0.323
 4670TIP3   OH213973   4.584   2.361   4.157
 4670TIP3    H113974   4.573   2.285   4.214
 4670TIP3    H213975   4.651   2.414   4.199
 4671TIP3   OH213976   3.463   6.397   3.849
 4671TIP3    H113977   3.385   6.360   3.809
 4671TIP3    H213978   3.452   6.383   3.943
 4672TIP3   OH213979   0.123   4.674   2.749
 4672TIP3    H113980   0.157   4.625   2.824
 4672TIP3    H213981   0.130   4.612   2.676
 4673TIP3   OH213982   1.118   3.425   5.421
 4673TIP3    H113983   1.128   3.331   5.433
 4673TIP3    H213984   1.152   3.442   5.333
 4674TIP3   OH213985   4.219   1.574   4.325
 4674TIP3    H113986   4.263   1.557   4.408
 4674TIP3    H213987   4.235   1.666   4.308
 4675TIP3   OH213988   3.671   5.307   1.800
 4675TIP3    H113989   3.662   5.334   1.891
 4675TIP3    H213990   3.647   5.215   1.800
 4676TIP3   OH213991   1.431   2.006   3.351
 4676TIP3    H113992   1.358   2.058   3.384
 4676TIP3    H213993   1.482   2.068   3.299
 4677TIP3   OH213994   3.031   1.020   3.214
 4677TIP3    H113995   3.110   0.969   3.232
 4677TIP3    H213996   2.962   0.974   3.261
 4678TIP3   OH213997   4.955   0.814   1.597
 4678TIP3    H113998   4.973   0.878   1.528
 4678TIP3    H213999   4.884   0.761   1.563
 4679TIP3   OH214000   6.614   4.157   4.913
 4679TIP3    H114001   6.604   4.199   4.998
 4679TIP3    H214002   6.528   4.164   4.871
 4680TIP3   OH214003   5.516   2.139   3.586
 4680TIP3    H114004   5.599   2.188   3.583
 4680TIP3    H214005   5.516   2.098   3.672
 4681TIP3   OH214006   5.675   1.546   0.589
 4681TIP3    H114007   5.582   1.526   0.579
 4681TIP3    H214008   5.692   1.614   0.524
 4682TIP3   OH214009   0.060   3.071   3.973
 4682TIP3    H114010  -0.010   3.136   3.981
 4682TIP3    H214011   0.140   3.122   3.986
 4683TIP3   OH214012   1.125   4.062   5.387
 4683TIP3    H114013   1.213   4.097   5.397
 4683TIP3    H214014   1.110   4.013   5.468
 4684TIP3   OH214015   6.447   0.638   4.783
 4684TIP3    H114016   6.517   0.601   4.838
 4684TIP3    H214017   6.492   0.702   4.728
 4685TIP3   OH214018   1.988   2.891   2.024
 4685TIP3    H114019   2.031   2.952   1.964
 4685TIP3    H214020   2.059   2.859   2.080
 4686TIP3   OH214021   5.306   5.457   3.860
 4686TIP3    H114022   5.346   5.482   3.776
 4686TIP3    H214023   5.306   5.538   3.911
 4687TIP3   OH214024   5.374   4.146   3.809
 4687TIP3    H114025   5.304   4.095   3.849
 4687TIP3    H214026   5.408   4.200   3.881
 4688TIP3   OH214027   6.277   0.825   1.078
 4688TIP3    H114028   6.329   0.746   1.060
 4688TIP3    H214029   6.342   0.891   1.101
 4689TIP3   OH214030   0.782   3.370   0.608
 4689TIP3    H114031   0.806   3.302   0.546
 4689TIP3    H214032   0.853   3.370   0.672
 4690TIP3   OH214033   0.833   2.114   5.264
 4690TIP3    H114034   0.852   2.054   5.191
 4690TIP3    H214035   0.913   2.115   5.315
 4691TIP3   OH214036   5.336   5.054   0.603
 4691TIP3    H114037   5.322   5.073   0.510
 4691TIP3    H214038   5.400   4.983   0.604
 4692TIP3   OH214039   5.088   1.949   0.223
 4692TIP3    H114040   5.034   1.980   0.296
 4692TIP3    H214041   5.145   2.024   0.203
 4693TIP3   OH214042   4.462   5.507   0.234
 4693TIP3    H114043   4.414   5.589   0.234
 4693TIP3    H214044   4.436   5.465   0.152
 4694TIP3   OH214045   4.707   2.965   2.967
 4694TIP3    H114046   4.612   2.975   2.962
 4694TIP3    H214047   4.730   2.995   3.055
 4695TIP3   OH214048   3.976   0.518   1.522
 4695TIP3    H114049   4.009   0.429   1.537
 4695TIP3    H214050   4.004   0.567   1.599
 4696TIP3   OH214051   2.762   4.904   5.210
 4696TIP3    H114052   2.685   4.905   5.153
 4696TIP3    H214053   2.816   4.833   5.175
 4697TIP3   OH214054   0.829   5.375   4.377
 4697TIP3    H114055   0.909   5.396   4.328
 4697TIP3    H214056   0.821   5.445   4.442
 4698TIP3   OH214057   6.069   4.360   4.719
 4698TIP3    H114058   6.144   4.401   4.675
 4698TIP3    H214059   6.104   4.332   4.803
 4699TIP3   OH214060   2.031   2.242   4.811
 4699TIP3    H114061   2.043   2.323   4.861
 4699TIP3    H214062   1.960   2.261   4.750
 4700TIP3   OH214063   5.166   5.967   5.420
 4700TIP3    H114064   5.239   6.021   5.389
 4700TIP3    H214065   5.149   5.907   5.347
 4701TIP3   OH214066   6.543   2.428   3.468
 4701TIP3    H114067   6.638   2.431   3.469
 4701TIP3    H214068   6.518   2.459   3.381
 4702TIP3   OH214069   3.433   4.275   0.524
 4702TIP3    H114070   3.475   4.229   0.451
 4702TIP3    H214071   3.464   4.229   0.602
 4703TIP3   OH214072   2.220   2.780   1.548
 4703TIP3    H114073   2.273   2.711   1.588
 4703TIP3    H214074   2.131   2.764   1.582
 4704TIP3   OH214075   3.513   5.920   0.111
 4704TIP3    H114076   3.520   5.936   0.205
 4704TIP3    H214077   3.489   6.005   0.074
 4705TIP3   OH214078   0.107   3.913   4.302
 4705TIP3    H114079   0.113   3.923   4.207
 4705TIP3    H214080   0.150   3.829   4.319
 4706TIP3   OH214081   6.643   0.094   4.255
 4706TIP3    H114082   6.608   0.005   4.250
 4706TIP3    H214083   6.702   0.100   4.180
 4707TIP3   OH214084   6.958   5.759   5.439
 4707TIP3    H114085   6.905   5.748   5.359
 4707TIP3    H214086   6.940   5.680   5.490
 4708TIP3   OH214087   1.363   1.773   3.947
 4708TIP3    H114088   1.286   1.766   4.003
 4708TIP3    H214089   1.437   1.766   4.007
 4709TIP3   OH214090   6.877   0.550   3.895
 4709TIP3    H114091   6.876   0.613   3.823
 4709TIP3    H214092   6.968   0.522   3.900
 4710TIP3   OH214093   2.612   2.902   1.090
 4710TIP3    H114094   2.573   2.969   1.147
 4710TIP3    H214095   2.693   2.942   1.059
 4711TIP3   OH214096   7.200   2.285   1.021
 4711TIP3    H114097   7.209   2.266   1.114
 4711TIP3    H214098   7.111   2.319   1.011
 4712TIP3   OH214099   3.623   1.077   3.748
 4712TIP3    H114100   3.629   0.985   3.773
 4712TIP3    H214101   3.614   1.076   3.653
 4713TIP3   OH214102   4.487   6.527   5.480
 4713TIP3    H114103   4.404   6.569   5.505
 4713TIP3    H214104   4.519   6.487   5.561
 4714TIP3   OH214105   1.339   2.124   4.657
 4714TIP3    H114106   1.359   2.080   4.574
 4714TIP3    H214107   1.246   2.146   4.650
 4715TIP3   OH214108   3.268   6.572   1.488
 4715TIP3    H114109   3.290   6.604   1.576
 4715TIP3    H214110   3.283   6.477   1.494
 4716TIP3   OH214111   3.581   6.595   4.131
 4716TIP3    H114112   3.595   6.502   4.111
 4716TIP3    H214113   3.542   6.630   4.051
 4717TIP3   OH214114   5.067   4.887   3.002
 4717TIP3    H114115   4.991   4.878   3.059
 4717TIP3    H214116   5.096   4.797   2.988
 4718TIP3   OH214117   2.481   6.398   3.177
 4718TIP3    H114118   2.537   6.414   3.253
 4718TIP3    H214119   2.394   6.426   3.206
 4719TIP3   OH214120   0.863   3.134   2.671
 4719TIP3    H114121   0.935   3.197   2.676
 4719TIP3    H214122   0.900   3.053   2.706
 4720TIP3   OH214123   3.063   2.610   2.420
 4720TIP3    H114124   3.083   2.663   2.496
 4720TIP3    H214125   3.064   2.671   2.346
 4721TIP3   OH214126   3.233   6.276   3.741
 4721TIP3    H114127   3.239   6.355   3.687
 4721TIP3    H214128   3.178   6.217   3.689
 4722TIP3   OH214129   5.597   1.500   2.066
 4722TIP3    H114130   5.630   1.586   2.039
 4722TIP3    H214131   5.676   1.453   2.093
 4723TIP3   OH214132   6.941   2.601   0.247
 4723TIP3    H114133   7.002   2.528   0.257
 4723TIP3    H214134   6.997   2.678   0.236
 4724TIP3   OH214135   3.687   4.488   4.151
 4724TIP3    H114136   3.613   4.427   4.142
 4724TIP3    H214137   3.745   4.446   4.214
 4725TIP3   OH214138   5.427   5.934   3.306
 4725TIP3    H114139   5.378   6.011   3.335
 4725TIP3    H214140   5.458   5.894   3.387
 4726TIP3   OH214141   5.274   0.282   1.174
 4726TIP3    H114142   5.307   0.331   1.099
 4726TIP3    H214143   5.350   0.269   1.230
 4727TIP3   OH214144   4.536   0.773   3.498
 4727TIP3    H114145   4.469   0.735   3.555
 4727TIP3    H214146   4.525   0.867   3.508
 4728TIP3   OH214147   5.088   5.665   4.787
 4728TIP3    H114148   5.093   5.607   4.863
 4728TIP3    H214149   4.996   5.660   4.759
 4729TIP3   OH214150   1.683   5.228   1.516
 4729TIP3    H114151   1.629   5.149   1.524
 4729TIP3    H214152   1.620   5.299   1.505
 4730TIP3   OH214153   5.429   6.448   2.957
 4730TIP3    H114154   5.385   6.507   2.896
 4730TIP3    H214155   5.420   6.361   2.918
 4731TIP3   OH214156   1.806   6.124   4.917
 4731TIP3    H114157   1.808   6.193   4.851
 4731TIP3    H214158   1.714   6.121   4.945
 4732TIP3   OH214159   3.863   0.484   4.632
 4732TIP3    H114160   3.802   0.517   4.697
 4732TIP3    H214161   3.949   0.507   4.666
 4733TIP3   OH214162   6.388   5.193   4.437
 4733TIP3    H114163   6.442   5.138   4.381
 4733TIP3    H214164   6.402   5.158   4.525
 4734TIP3   OH214165   5.307   5.151   0.340
 4734TIP3    H114166   5.371   5.169   0.272
 4734TIP3    H214167   5.225   5.186   0.306
 4735TIP3   OH214168   5.508   1.754   0.822
 4735TIP3    H114169   5.494   1.714   0.736
 4735TIP3    H214170   5.541   1.682   0.876
 4736TIP3   OH214171   0.545   6.122   0.851
 4736TIP3    H114172   0.623   6.095   0.899
 4736TIP3    H214173   0.534   6.055   0.783
 4737TIP3   OH214174   5.654   5.913   0.314
 4737TIP3    H114175   5.563   5.935   0.294
 4737TIP3    H214176   5.649   5.829   0.359
 4738TIP3   OH214177   2.163   4.608   5.576
 4738TIP3    H114178   2.163   4.637   5.485
 4738TIP3    H214179   2.226   4.666   5.619
 4739TIP3   OH214180   5.226   4.782   3.285
 4739TIP3    H114181   5.273   4.856   3.246
 4739TIP3    H214182   5.293   4.714   3.294
 4740TIP3   OH214183   1.520   4.738   2.711
 4740TIP3    H114184   1.482   4.660   2.750
 4740TIP3    H214185   1.453   4.771   2.651
 4741TIP3   OH214186   6.005   1.255   0.995
 4741TIP3    H114187   5.961   1.251   0.910
 4741TIP3    H214188   6.096   1.232   0.977
 4742TIP3   OH214189   3.508   0.861   0.513
 4742TIP3    H114190   3.507   0.840   0.606
 4742TIP3    H214191   3.425   0.827   0.479
 4743TIP3   OH214192   1.389   2.403   4.378
 4743TIP3    H114193   1.454   2.473   4.373
 4743TIP3    H214194   1.404   2.362   4.463
 4744TIP3   OH214195   7.047   1.500   4.884
 4744TIP3    H114196   6.963   1.467   4.852
 4744TIP3    H214197   7.072   1.440   4.954
 4745TIP3   OH214198   6.357   0.553   2.759
 4745TIP3    H114199   6.442   0.512   2.772
 4745TIP3    H214200   6.336   0.536   2.667
 4746TIP3   OH214201   6.638   1.777   1.295
 4746TIP3    H114202   6.733   1.786   1.290
 4746TIP3    H214203   6.623   1.716   1.368
 4747TIP3   OH214204   6.555   1.174   5.602
 4747TIP3    H114205   6.482   1.233   5.621
 4747TIP3    H214206   6.519   1.112   5.539
 4748TIP3   OH214207   0.779   5.923   1.285
 4748TIP3    H114208   0.730   5.988   1.335
 4748TIP3    H214209   0.742   5.839   1.312
 4749TIP3   OH214210   4.371   3.781   1.004
 4749TIP3    H114211   4.363   3.876   1.003
 4749TIP3    H214212   4.296   3.750   0.953
 4750TIP3   OH214213   4.651   2.481  -0.012
 4750TIP3    H114214   4.690   2.505  -0.096
 4750TIP3    H214215   4.725   2.455   0.042
 4751TIP3   OH214216   3.450   2.043   5.216
 4751TIP3    H114217   3.357   2.063   5.204
 4751TIP3    H214218   3.464   2.050   5.310
 4752TIP3   OH214219   2.803   4.476   1.077
 4752TIP3    H114220   2.755   4.461   0.995
 4752TIP3    H214221   2.821   4.570   1.077
 4753TIP3   OH214222   6.171   5.641   4.766
 4753TIP3    H114223   6.134   5.556   4.788
 4753TIP3    H214224   6.220   5.667   4.844
 4754TIP3   OH214225   1.888   2.204   3.080
 4754TIP3    H114226   1.932   2.275   3.127
 4754TIP3    H214227   1.859   2.245   2.998
 4755TIP3   OH214228   0.352   1.563   5.279
 4755TIP3    H114229   0.335   1.656   5.262
 4755TIP3    H214230   0.383   1.529   5.195
 4756TIP3   OH214231   3.975   1.090   1.163
 4756TIP3    H114232   4.010   1.002   1.147
 4756TIP3    H214233   4.052   1.144   1.181
 4757TIP3   OH214234   4.905   1.056   5.326
 4757TIP3    H114235   4.845   1.130   5.317
 4757TIP3    H214236   4.989   1.088   5.293
 4758TIP3   OH214237   2.674   3.675   2.441
 4758TIP3    H114238   2.747   3.626   2.479
 4758TIP3    H214239   2.655   3.744   2.506
 4759TIP3   OH214240   2.852   3.233   1.548
 4759TIP3    H114241   2.912   3.160   1.531
 4759TIP3    H214242   2.767   3.191   1.562
 4760TIP3   OH214243   0.764   1.592   5.767
 4760TIP3    H114244   0.685   1.631   5.804
 4760TIP3    H214245   0.763   1.617   5.675
 4761TIP3   OH214246   0.526   3.925   0.755
 4761TIP3    H114247   0.542   4.008   0.799
 4761TIP3    H214248   0.438   3.933   0.718
 4762TIP3   OH214249   6.579   3.040   1.167
 4762TIP3    H114250   6.631   2.967   1.202
 4762TIP3    H214251   6.632   3.076   1.096
 4763TIP3   OH214252   2.476   0.435   3.750
 4763TIP3    H114253   2.482   0.340   3.744
 4763TIP3    H214254   2.382   0.453   3.754
 4764TIP3   OH214255   4.955   6.324   3.243
 4764TIP3    H114256   4.906   6.323   3.161
 4764TIP3    H214257   5.035   6.373   3.223
 4765TIP3   OH214258   4.397   6.510   3.895
 4765TIP3    H114259   4.312   6.539   3.926
 4765TIP3    H214260   4.378   6.439   3.834
 4766TIP3   OH214261   3.943   4.795   2.418
 4766TIP3    H114262   3.945   4.704   2.390
 4766TIP3    H214263   3.880   4.837   2.359
 4767TIP3   OH214264   2.869   2.660   0.186
 4767TIP3    H114265   2.849   2.752   0.167
 4767TIP3    H214266   2.793   2.629   0.234
 4768TIP3   OH214267   6.658   1.285   1.957
 4768TIP3    H114268   6.698   1.314   2.039
 4768TIP3    H214269   6.722   1.224   1.920
 4769TIP3   OH214270   0.745   0.532   4.889
 4769TIP3    H114271   0.658   0.518   4.926
 4769TIP3    H214272   0.767   0.622   4.912
 4770TIP3   OH214273   4.509   1.454   0.978
 4770TIP3    H114274   4.500   1.367   1.019
 4770TIP3    H214275   4.477   1.441   0.889
 4771TIP3   OH214276   6.034   3.395   4.828
 4771TIP3    H114277   6.083   3.321   4.862
 4771TIP3    H214278   5.973   3.418   4.898
 4772TIP3   OH214279   3.012   4.366   4.797
 4772TIP3    H114280   3.027   4.434   4.731
 4772TIP3    H214281   3.062   4.394   4.873
 4773TIP3   OH214282   6.506   4.802   5.672
 4773TIP3    H114283   6.504   4.707   5.678
 4773TIP3    H214284   6.423   4.830   5.711
 4774TIP3   OH214285   5.201   6.513   5.668
 4774TIP3    H114286   5.218   6.531   5.760
 4774TIP3    H214287   5.105   6.505   5.663
 4775TIP3   OH214288   2.758   6.449   5.249
 4775TIP3    H114289   2.752   6.382   5.181
 4775TIP3    H214290   2.761   6.532   5.202
 4776TIP3   OH214291   5.847   2.408   1.514
 4776TIP3    H114292   5.830   2.472   1.445
 4776TIP3    H214293   5.795   2.331   1.488
 4777TIP3   OH214294   2.092   3.641   2.740
 4777TIP3    H114295   2.002   3.671   2.726
 4777TIP3    H214296   2.110   3.663   2.831
 4778TIP3   OH214297   0.587   5.103   5.106
 4778TIP3    H114298   0.557   5.115   5.196
 4778TIP3    H214299   0.516   5.055   5.064
 4779TIP3   OH214300   1.508  -0.005   2.373
 4779TIP3    H114301   1.482   0.062   2.310
 4779TIP3    H214302   1.425  -0.046   2.400
 4780TIP3   OH214303   2.594   1.179   3.624
 4780TIP3    H114304   2.639   1.168   3.708
 4780TIP3    H214305   2.525   1.243   3.642
 4781TIP3   OH214306   6.875   0.401   0.362
 4781TIP3    H114307   6.843   0.438   0.279
 4781TIP3    H214308   6.895   0.309   0.340
 4782TIP3   OH214309   5.522   6.231   5.405
 4782TIP3    H114310   5.600   6.236   5.459
 4782TIP3    H214311   5.467   6.303   5.436
 4783TIP3   OH214312   6.656   3.364   0.742
 4783TIP3    H114313   6.670   3.447   0.786
 4783TIP3    H214314   6.648   3.386   0.649
 4784TIP3   OH214315   3.952   1.313   4.345
 4784TIP3    H114316   3.889   1.298   4.274
 4784TIP3    H214317   3.998   1.229   4.353
 4785TIP3   OH214318   4.589   5.719   0.647
 4785TIP3    H114319   4.586   5.793   0.708
 4785TIP3    H214320   4.635   5.650   0.694
 4786TIP3   OH214321   1.484   5.724   1.341
 4786TIP3    H114322   1.543   5.768   1.279
 4786TIP3    H214323   1.519   5.635   1.347
 4787TIP3   OH214324   3.832   6.023   4.421
 4787TIP3    H114325   3.868   5.937   4.399
 4787TIP3    H214326   3.873   6.044   4.505
 4788TIP3   OH214327   0.069   4.728   0.887
 4788TIP3    H114328   0.020   4.800   0.926
 4788TIP3    H214329   0.018   4.702   0.811
 4789TIP3   OH214330   1.651   3.999   4.249
 4789TIP3    H114331   1.616   3.910   4.247
 4789TIP3    H214332   1.631   4.035   4.162
 4790TIP3   OH214333   5.876   5.321   0.684
 4790TIP3    H114334   5.838   5.343   0.599
 4790TIP3    H214335   5.970   5.323   0.669
 4791TIP3   OH214336   6.929   5.691   1.346
 4791TIP3    H114337   7.021   5.672   1.367
 4791TIP3    H214338   6.896   5.609   1.308
 4792TIP3   OH214339   6.528   2.090   4.394
 4792TIP3    H114340   6.550   2.068   4.485
 4792TIP3    H214341   6.606   2.065   4.344
 4793TIP3   OH214342   5.998   1.194   2.029
 4793TIP3    H114343   5.908   1.162   2.022
 4793TIP3    H214344   5.990   1.289   2.014
 4794TIP3   OH214345   4.138   0.328   2.738
 4794TIP3    H114346   4.155   0.355   2.829
 4794TIP3    H214347   4.205   0.262   2.719
 4795TIP3   OH214348   4.694   3.439   4.902
 4795TIP3    H114349   4.640   3.487   4.964
 4795TIP3    H214350   4.699   3.496   4.825
 4796TIP3   OH214351   3.422   6.225   2.856
 4796TIP3    H114352   3.439   6.149   2.801
 4796TIP3    H214353   3.471   6.207   2.937
 4797TIP3   OH214354   4.249   2.436   2.794
 4797TIP3    H114355   4.325   2.401   2.841
 4797TIP3    H214356   4.179   2.373   2.811
 4798TIP3   OH214357   1.382   0.714   1.222
 4798TIP3    H114358   1.291   0.724   1.193
 4798TIP3    H214359   1.389   0.773   1.297
 4799TIP3   OH214360   0.193   2.952   4.236
 4799TIP3    H114361   0.166   2.977   4.148
 4799TIP3    H214362   0.145   2.871   4.254
 4800TIP3   OH214363   2.538   6.085   0.281
 4800TIP3    H114364   2.477   6.105   0.352
 4800TIP3    H214365   2.551   6.169   0.236
 4801TIP3   OH214366   4.977   5.527   3.580
 4801TIP3    H114367   5.057   5.562   3.541
 4801TIP3    H214368   4.906   5.566   3.529
 4802TIP3   OH214369   4.079   0.265   1.578
 4802TIP3    H114370   4.015   0.196   1.564
 4802TIP3    H214371   4.130   0.268   1.497
 4803TIP3   OH214372   5.919   3.414   1.671
 4803TIP3    H114373   5.825   3.399   1.674
 4803TIP3    H214374   5.934   3.453   1.585
 4804TIP3   OH214375   6.313   6.409   3.524
 4804TIP3    H114376   6.352   6.324   3.545
 4804TIP3    H214377   6.231   6.410   3.572
 4805TIP3   OH214378   4.775   1.202   5.580
 4805TIP3    H114379   4.682   1.188   5.601
 4805TIP3    H214380   4.809   1.114   5.565
 4806TIP3   OH214381   6.536   6.717   1.679
 4806TIP3    H114382   6.509   6.658   1.750
 4806TIP3    H214383   6.467   6.784   1.677
 4807TIP3   OH214384   4.254   3.437   2.158
 4807TIP3    H114385   4.333   3.418   2.108
 4807TIP3    H214386   4.277   3.514   2.210
 4808TIP3   OH214387   0.205   2.589   3.685
 4808TIP3    H114388   0.271   2.520   3.684
 4808TIP3    H214389   0.247   2.660   3.734
 4809TIP3   OH214390   4.175   3.229   1.546
 4809TIP3    H114391   4.165   3.176   1.625
 4809TIP3    H214392   4.124   3.309   1.564
 4810TIP3   OH214393   3.016   6.602   4.870
 4810TIP3    H114394   3.068   6.628   4.794
 4810TIP3    H214395   3.029   6.507   4.877
 4811TIP3   OH214396   5.033   2.119   1.385
 4811TIP3    H114397   5.065   2.187   1.445
 4811TIP3    H214398   5.097   2.118   1.314
 4812TIP3   OH214399   3.642   1.721   4.788
 4812TIP3    H114400   3.685   1.741   4.705
 4812TIP3    H214401   3.564   1.670   4.763
 4813TIP3   OH214402   4.760   4.191   0.112
 4813TIP3    H114403   4.741   4.284   0.125
 4813TIP3    H214404   4.855   4.184   0.122
 4814TIP3   OH214405   5.052   1.749   5.812
 4814TIP3    H114406   5.024   1.810   5.743
 4814TIP3    H214407   5.147   1.759   5.816
 4815TIP3   OH214408   3.317   3.038   1.111
 4815TIP3    H114409   3.360   3.000   1.035
 4815TIP3    H214410   3.248   2.975   1.134
 4816TIP3   OH214411   1.956   6.764   5.434
 4816TIP3    H114412   1.905   6.775   5.515
 4816TIP3    H214413   2.026   6.704   5.458
 4817TIP3   OH214414   3.813   6.106   5.055
 4817TIP3    H114415   3.744   6.122   4.992
 4817TIP3    H214416   3.803   6.176   5.120
 4818TIP3   OH214417   2.011   4.191   0.430
 4818TIP3    H114418   2.001   4.126   0.361
 4818TIP3    H214419   1.929   4.241   0.427
 4819TIP3   OH214420   0.194   6.595   4.875
 4819TIP3    H114421   0.198   6.622   4.783
 4819TIP3    H214422   0.269   6.638   4.916
 4820TIP3   OH214423   4.110   3.132   3.812
 4820TIP3    H114424   4.074   3.133   3.900
 4820TIP3    H214425   4.047   3.083   3.760
 4821TIP3   OH214426   2.751   1.437   0.076
 4821TIP3    H114427   2.713   1.520   0.104
 4821TIP3    H214428   2.710   1.420  -0.009
 4822TIP3   OH214429   1.437   6.450   3.106
 4822TIP3    H114430   1.406   6.540   3.091
 4822TIP3    H214431   1.423   6.405   3.023
 4823TIP3   OH214432   5.312   1.238   5.629
 4823TIP3    H114433   5.385   1.213   5.573
 4823TIP3    H214434   5.322   1.183   5.707
 4824TIP3   OH214435   5.419   5.498   0.266
 4824TIP3    H114436   5.457   5.421   0.225
 4824TIP3    H214437   5.494   5.547   0.299
 4825TIP3   OH214438   4.446   0.778   0.975
 4825TIP3    H114439   4.465   0.813   1.062
 4825TIP3    H214440   4.515   0.814   0.919
 4826TIP3   OH214441   2.453   3.036   0.423
 4826TIP3    H114442   2.381   3.068   0.369
 4826TIP3    H214443   2.413   2.970   0.480
 4827TIP3   OH214444   5.779   1.438   1.707
 4827TIP3    H114445   5.743   1.361   1.751
 4827TIP3    H214446   5.825   1.404   1.631
 4828TIP3   OH214447   0.737   0.072   0.289
 4828TIP3    H114448   0.721  -0.010   0.242
 4828TIP3    H214449   0.804   0.116   0.237
 4829TIP3   OH214450   4.280   2.087   3.995
 4829TIP3    H114451   4.206   2.082   3.935
 4829TIP3    H214452   4.329   2.164   3.966
 4830TIP3   OH214453   0.770   3.184   5.096
 4830TIP3    H114454   0.830   3.133   5.150
 4830TIP3    H214455   0.691   3.194   5.149
 4831TIP3   OH214456   6.235   4.367   3.383
 4831TIP3    H114457   6.250   4.349   3.476
 4831TIP3    H214458   6.160   4.427   3.382
 4832TIP3   OH214459   3.141   2.830   1.635
 4832TIP3    H114460   3.134   2.751   1.688
 4832TIP3    H214461   3.056   2.873   1.645
 4833TIP3   OH214462   2.538   1.193   4.226
 4833TIP3    H114463   2.484   1.212   4.149
 4833TIP3    H214464   2.487   1.129   4.276
 4834TIP3   OH214465   6.074   1.395   5.642
 4834TIP3    H114466   6.006   1.341   5.685
 4834TIP3    H214467   6.026   1.442   5.573
 4835TIP3   OH214468   3.376   5.025   3.682
 4835TIP3    H114469   3.310   4.958   3.705
 4835TIP3    H214470   3.339   5.069   3.606
 4836TIP3   OH214471   0.934   3.012   5.274
 4836TIP3    H114472   0.962   2.949   5.207
 4836TIP3    H214473   0.907   2.958   5.348
 4837TIP3   OH214474   0.465   4.517   5.061
 4837TIP3    H114475   0.417   4.521   5.144
 4837TIP3    H214476   0.520   4.596   5.062
 4838TIP3   OH214477   6.678   4.798   1.251
 4838TIP3    H114478   6.773   4.807   1.254
 4838TIP3    H214479   6.649   4.872   1.197
 4839TIP3   OH214480   0.178   4.891   5.635
 4839TIP3    H114481   0.113   4.952   5.599
 4839TIP3    H214482   0.220   4.940   5.705
 4840TIP3   OH214483   3.179   5.438   1.781
 4840TIP3    H114484   3.105   5.456   1.840
 4840TIP3    H214485   3.145   5.458   1.693
 4841TIP3   OH214486   1.530   3.054   5.728
 4841TIP3    H114487   1.537   3.134   5.676
 4841TIP3    H214488   1.532   2.983   5.665
 4842TIP3   OH214489   6.156   5.841   4.219
 4842TIP3    H114490   6.120   5.858   4.306
 4842TIP3    H214491   6.153   5.746   4.210
 4843TIP3   OH214492   4.110   4.922   3.104
 4843TIP3    H114493   4.169   4.848   3.115
 4843TIP3    H214494   4.026   4.891   3.137
 4844TIP3   OH214495   1.358   2.949   5.077
 4844TIP3    H114496   1.354   2.909   5.163
 4844TIP3    H214497   1.267   2.949   5.046
 4845TIP3   OH214498   5.099   0.808   4.610
 4845TIP3    H114499   5.184   0.801   4.567
 4845TIP3    H214500   5.119   0.832   4.700
 4846TIP3   OH214501   2.488   2.808   0.870
 4846TIP3    H114502   2.524   2.867   0.936
 4846TIP3    H214503   2.403   2.782   0.905
 4847TIP3   OH214504   5.644   0.324   0.855
 4847TIP3    H114505   5.662   0.410   0.893
 4847TIP3    H214506   5.648   0.338   0.760
 4848TIP3   OH214507   2.937   5.518   2.254
 4848TIP3    H114508   3.015   5.491   2.303
 4848TIP3    H214509   2.872   5.451   2.274
 4849TIP3   OH214510   1.929   1.910   3.720
 4849TIP3    H114511   1.879   1.828   3.728
 4849TIP3    H214512   1.960   1.911   3.630
 4850TIP3   OH214513   6.890   6.381   2.998
 4850TIP3    H114514   6.819   6.440   2.974
 4850TIP3    H214515   6.947   6.434   3.054
 4851TIP3   OH214516   0.491   0.710   2.249
 4851TIP3    H114517   0.533   0.794   2.230
 4851TIP3    H214518   0.430   0.697   2.176
 4852TIP3   OH214519   3.604   5.217   0.775
 4852TIP3    H114520   3.637   5.271   0.703
 4852TIP3    H214521   3.595   5.279   0.848
 4853TIP3   OH214522   3.206   3.444   5.258
 4853TIP3    H114523   3.147   3.517   5.237
 4853TIP3    H214524   3.272   3.446   5.188
 4854TIP3   OH214525   5.306   2.768   2.943
 4854TIP3    H114526   5.279   2.737   3.029
 4854TIP3    H214527   5.316   2.689   2.890
 4855TIP3   OH214528   4.362   0.546   0.812
 4855TIP3    H114529   4.374   0.607   0.885
 4855TIP3    H214530   4.303   0.592   0.752
 4856TIP3   OH214531   6.355   5.027   3.387
 4856TIP3    H114532   6.432   4.970   3.388
 4856TIP3    H214533   6.352   5.062   3.298
 4857TIP3   OH214534   7.161   2.201   5.672
 4857TIP3    H114535   7.188   2.288   5.701
 4857TIP3    H214536   7.110   2.217   5.593
 4858TIP3   OH214537   3.571   5.087   5.844
 4858TIP3    H114538   3.541   5.177   5.831
 4858TIP3    H214539   3.505   5.033   5.801
 4859TIP3   OH214540   0.261   4.509   1.602
 4859TIP3    H114541   0.181   4.457   1.603
 4859TIP3    H214542   0.271   4.540   1.691
 4860TIP3   OH214543   1.855   6.686   1.763
 4860TIP3    H114544   1.841   6.777   1.790
 4860TIP3    H214545   1.876   6.640   1.844
 4861TIP3   OH214546   5.742   3.869   1.016
 4861TIP3    H114547   5.659   3.916   1.013
 4861TIP3    H214548   5.808   3.938   1.020
 4862TIP3   OH214549   6.115   0.512   2.979
 4862TIP3    H114550   6.192   0.479   2.933
 4862TIP3    H214551   6.073   0.433   3.015
 4863TIP3   OH214552   4.440   6.080   3.105
 4863TIP3    H114553   4.526   6.078   3.064
 4863TIP3    H214554   4.379   6.088   3.032
 4864TIP3   OH214555   6.148   4.720   4.540
 4864TIP3    H114556   6.137   4.740   4.633
 4864TIP3    H214557   6.195   4.636   4.539
 4865TIP3   OH214558   6.747   5.481   4.435
 4865TIP3    H114559   6.813   5.511   4.498
 4865TIP3    H214560   6.667   5.527   4.460
 4866TIP3   OH214561   5.385   5.019   3.813
 4866TIP3    H114562   5.440   4.994   3.888
 4866TIP3    H214563   5.386   4.942   3.756
 4867TIP3   OH214564   3.379   6.542   3.107
 4867TIP3    H114565   3.309   6.493   3.149
 4867TIP3    H214566   3.458   6.491   3.124
 4868TIP3   OH214567   1.451   2.188   0.919
 4868TIP3    H114568   1.531   2.220   0.961
 4868TIP3    H214569   1.386   2.186   0.989
 4869TIP3   OH214570   3.608   5.546   0.144
 4869TIP3    H114571   3.526   5.589   0.117
 4869TIP3    H214572   3.645   5.605   0.210
 4870TIP3   OH214573   2.610   6.290   0.491
 4870TIP3    H114574   2.700   6.309   0.519
 4870TIP3    H214575   2.587   6.361   0.432
 4871TIP3   OH214576   2.886   0.114   2.611
 4871TIP3    H114577   2.935   0.033   2.624
 4871TIP3    H214578   2.897   0.133   2.518
 4872TIP3   OH214579   0.884   1.742   2.941
 4872TIP3    H114580   0.887   1.721   2.848
 4872TIP3    H214581   0.970   1.780   2.960
 4873TIP3   OH214582   2.676   2.612   1.093
 4873TIP3    H114583   2.748   2.573   1.141
 4873TIP3    H214584   2.678   2.705   1.117
 4874TIP3   OH214585   1.122   4.562   5.408
 4874TIP3    H114586   1.057   4.629   5.427
 4874TIP3    H214587   1.078   4.479   5.425
 4875TIP3   OH214588   3.622   3.289   5.571
 4875TIP3    H114589   3.695   3.259   5.517
 4875TIP3    H214590   3.601   3.214   5.626
 4876TIP3   OH214591   4.559   3.136   1.482
 4876TIP3    H114592   4.491   3.198   1.454
 4876TIP3    H214593   4.520   3.050   1.466
 4877TIP3   OH214594   2.951   6.683   3.335
 4877TIP3    H114595   2.860   6.701   3.313
 4877TIP3    H214596   2.950   6.664   3.429
 4878TIP3   OH214597   5.871   3.908   5.541
 4878TIP3    H114598   5.953   3.873   5.575
 4878TIP3    H214599   5.893   3.942   5.454
 4879TIP3   OH214600   0.056   5.181   2.821
 4879TIP3    H114601   0.049   5.110   2.758
 4879TIP3    H214602  -0.027   5.179   2.870
 4880TIP3   OH214603   6.087   6.112   5.048
 4880TIP3    H114604   6.088   6.029   5.098
 4880TIP3    H214605   6.120   6.088   4.962
 4881TIP3   OH214606   0.874   3.620   0.214
 4881TIP3    H114607   0.859   3.531   0.183
 4881TIP3    H214608   0.968   3.624   0.231
 4882TIP3   OH214609   3.472   4.072   4.938
 4882TIP3    H114610   3.535   4.020   4.888
 4882TIP3    H214611   3.519   4.151   4.963
 4883TIP3   OH214612   0.844   0.775   1.744
 4883TIP3    H114613   0.887   0.754   1.661
 4883TIP3    H214614   0.849   0.694   1.795
 4884TIP3   OH214615   5.133   5.856   0.370
 4884TIP3    H114616   5.206   5.859   0.309
 4884TIP3    H214617   5.089   5.773   0.350
 4885TIP3   OH214618   4.968   4.107   1.485
 4885TIP3    H114619   4.960   4.178   1.421
 4885TIP3    H214620   4.972   4.028   1.431
 4886TIP3   OH214621   1.041   1.944   4.816
 4886TIP3    H114622   0.985   2.019   4.837
 4886TIP3    H214623   1.111   1.946   4.881
 4887TIP3   OH214624   2.090   3.229   3.394
 4887TIP3    H114625   2.159   3.200   3.334
 4887TIP3    H214626   2.063   3.150   3.440
 4888TIP3   OH214627   5.737   2.777   0.795
 4888TIP3    H114628   5.826   2.803   0.770
 4888TIP3    H214629   5.719   2.828   0.874
 4889TIP3   OH214630   1.722   1.731   4.928
 4889TIP3    H114631   1.753   1.778   5.005
 4889TIP3    H214632   1.711   1.798   4.861
 4890TIP3   OH214633   4.594   0.449   3.075
 4890TIP3    H114634   4.530   0.519   3.059
 4890TIP3    H214635   4.550   0.392   3.139
 4891TIP3   OH214636   2.341   0.336   0.111
 4891TIP3    H114637   2.387   0.413   0.079
 4891TIP3    H214638   2.300   0.298   0.033
 4892TIP3   OH214639   2.453   5.950   5.673
 4892TIP3    H114640   2.485   5.862   5.693
 4892TIP3    H214641   2.495   5.972   5.590
 4893TIP3   OH214642   7.144   2.762   0.111
 4893TIP3    H114643   7.110   2.838   0.159
 4893TIP3    H214644   7.221   2.796   0.065
 4894TIP3   OH214645   6.692   1.675   5.877
 4894TIP3    H114646   6.745   1.735   5.930
 4894TIP3    H214647   6.611   1.665   5.927
 4895TIP3   OH214648   4.177   6.181   1.888
 4895TIP3    H114649   4.205   6.236   1.814
 4895TIP3    H214650   4.095   6.221   1.917
 4896TIP3   OH214651   1.791   2.931   4.524
 4896TIP3    H114652   1.872   2.943   4.574
 4896TIP3    H214653   1.745   3.014   4.534
 4897TIP3   OH214654   5.648   1.920   1.433
 4897TIP3    H114655   5.559   1.913   1.466
 4897TIP3    H214656   5.642   1.888   1.342
 4898TIP3   OH214657   5.117   6.485   0.560
 4898TIP3    H114658   5.125   6.554   0.494
 4898TIP3    H214659   5.064   6.524   0.629
 4899TIP3   OH214660   5.640   6.207   0.920
 4899TIP3    H114661   5.597   6.160   0.992
 4899TIP3    H214662   5.720   6.241   0.959
 4900TIP3   OH214663   2.315   4.904   0.981
 4900TIP3    H114664   2.231   4.918   0.937
 4900TIP3    H214665   2.330   4.985   1.029
 4901TIP3   OH214666   3.925   0.293   3.279
 4901TIP3    H114667   3.874   0.230   3.228
 4901TIP3    H214668   4.005   0.307   3.228
 4902TIP3   OH214669   6.456   6.403   5.310
 4902TIP3    H114670   6.456   6.403   5.215
 4902TIP3    H214671   6.501   6.485   5.333
 4903TIP3   OH214672   1.788   0.954   1.540
 4903TIP3    H114673   1.763   0.980   1.628
 4903TIP3    H214674   1.883   0.968   1.536
 4904TIP3   OH214675   6.223   2.591   2.972
 4904TIP3    H114676   6.232   2.500   3.003
 4904TIP3    H214677   6.182   2.583   2.886
 4905TIP3   OH214678   4.452   1.068   3.249
 4905TIP3    H114679   4.466   1.074   3.344
 4905TIP3    H214680   4.528   1.018   3.217
 4906TIP3   OH214681   6.567   3.433   3.232
 4906TIP3    H114682   6.483   3.478   3.236
 4906TIP3    H214683   6.596   3.445   3.141
 4907TIP3   OH214684   5.742   3.592   1.977
 4907TIP3    H114685   5.831   3.571   2.003
 4907TIP3    H214686   5.735   3.562   1.887
 4908TIP3   OH214687   4.912   4.762   4.052
 4908TIP3    H114688   4.938   4.726   4.136
 4908TIP3    H214689   4.835   4.711   4.026
 4909TIP3   OH214690   3.384   5.193   1.218
 4909TIP3    H114691   3.289   5.194   1.232
 4909TIP3    H214692   3.421   5.193   1.306
 4910TIP3   OH214693   0.490   1.741   0.880
 4910TIP3    H114694   0.586   1.742   0.879
 4910TIP3    H214695   0.466   1.657   0.841
 4911TIP3   OH214696   5.989   5.126   2.985
 4911TIP3    H114697   5.913   5.078   2.953
 4911TIP3    H214698   6.023   5.072   3.056
 4912TIP3   OH214699   0.595   3.716   4.707
 4912TIP3    H114700   0.609   3.708   4.613
 4912TIP3    H214701   0.533   3.788   4.716
 4913TIP3   OH214702   6.546   4.800   3.426
 4913TIP3    H114703   6.514   4.742   3.357
 4913TIP3    H214704   6.557   4.744   3.502
 4914TIP3   OH214705   2.045   5.674   2.744
 4914TIP3    H114706   2.130   5.708   2.771
 4914TIP3    H214707   2.050   5.670   2.649
 4915TIP3   OH214708   4.547   1.950   4.948
 4915TIP3    H114709   4.599   2.030   4.952
 4915TIP3    H214710   4.590   1.890   5.008
 4916TIP3   OH214711   0.971   0.288   3.225
 4916TIP3    H114712   0.905   0.266   3.291
 4916TIP3    H214713   1.007   0.204   3.198
 4917TIP3   OH214714   2.256   5.436   2.498
 4917TIP3    H114715   2.323   5.443   2.566
 4917TIP3    H214716   2.255   5.343   2.474
 4918TIP3   OH214717   4.573   1.489   4.862
 4918TIP3    H114718   4.484   1.489   4.826
 4918TIP3    H214719   4.629   1.466   4.787
 4919TIP3   OH214720   1.379   1.262   0.868
 4919TIP3    H114721   1.459   1.291   0.824
 4919TIP3    H214722   1.410   1.222   0.949
 4920TIP3   OH214723   7.232   4.388   1.572
 4920TIP3    H114724   7.148   4.421   1.604
 4920TIP3    H214725   7.211   4.350   1.487
 4921TIP3   OH214726   6.503   4.572   0.347
 4921TIP3    H114727   6.408   4.563   0.352
 4921TIP3    H214728   6.522   4.581   0.254
 4922TIP3   OH214729   1.952   5.967   2.313
 4922TIP3    H114730   1.905   5.967   2.396
 4922TIP3    H214731   1.887   5.939   2.249
 4923TIP3   OH214732   3.365   2.391   2.944
 4923TIP3    H114733   3.396   2.452   2.877
 4923TIP3    H214734   3.369   2.305   2.902
 4924TIP3   OH214735   4.040   3.782   4.472
 4924TIP3    H114736   4.030   3.869   4.433
 4924TIP3    H214737   3.993   3.724   4.412
 4925TIP3   OH214738   2.986   0.655   1.736
 4925TIP3    H114739   2.990   0.749   1.751
 4925TIP3    H214740   2.893   0.636   1.722
 4926TIP3   OH214741   0.877   3.139   4.847
 4926TIP3    H114742   0.841   3.149   4.935
 4926TIP3    H214743   0.847   3.052   4.819
 4927TIP3   OH214744   6.114   3.690   2.307
 4927TIP3    H114745   6.075   3.774   2.286
 4927TIP3    H214746   6.126   3.692   2.402
 4928TIP3   OH214747   0.551   2.054   4.688
 4928TIP3    H114748   0.590   2.064   4.774
 4928TIP3    H214749   0.480   2.118   4.686
 4929TIP3   OH214750   3.686   6.475   2.061
 4929TIP3    H114751   3.628   6.479   1.985
 4929TIP3    H214752   3.773   6.463   2.024
 4930TIP3   OH214753   6.781   6.606   2.299
 4930TIP3    H114754   6.874   6.616   2.318
 4930TIP3    H214755   6.771   6.634   2.208
 4931TIP3   OH214756   6.407   4.730   2.823
 4931TIP3    H114757   6.356   4.787   2.764
 4931TIP3    H214758   6.400   4.643   2.783
 4932TIP3   OH214759   4.067   0.810   2.757
 4932TIP3    H114760   4.159   0.827   2.778
 4932TIP3    H214761   4.049   0.867   2.683
 4933TIP3   OH214762   3.737   5.414   0.654
 4933TIP3    H114763   3.822   5.456   0.643
 4933TIP3    H214764   3.676   5.486   0.672
 4934TIP3   OH214765   0.082   5.903   1.770
 4934TIP3    H114766   0.170   5.939   1.755
 4934TIP3    H214767   0.082   5.879   1.862
 4935TIP3   OH214768   3.809   2.222   0.915
 4935TIP3    H114769   3.839   2.132   0.931
 4935TIP3    H214770   3.813   2.264   1.001
 4936TIP3   OH214771   7.131   0.289   5.259
 4936TIP3    H114772   7.095   0.253   5.179
 4936TIP3    H214773   7.167   0.374   5.233
 4937TIP3   OH214774   2.736   1.439   3.757
 4937TIP3    H114775   2.646   1.431   3.787
 4937TIP3    H214776   2.730   1.449   3.662
 4938TIP3   OH214777   5.448   0.855   3.818
 4938TIP3    H114778   5.493   0.878   3.899
 4938TIP3    H214779   5.506   0.887   3.749
 4939TIP3   OH214780   6.310   4.459   5.430
 4939TIP3    H114781   6.261   4.509   5.365
 4939TIP3    H214782   6.402   4.472   5.405
 4940TIP3   OH214783   0.424   0.187   4.487
 4940TIP3    H114784   0.339   0.169   4.527
 4940TIP3    H214785   0.460   0.100   4.467
 4941TIP3   OH214786   1.211   0.520   0.283
 4941TIP3    H114787   1.180   0.562   0.363
 4941TIP3    H214788   1.286   0.468   0.311
 4942TIP3   OH214789   0.446   6.211   5.113
 4942TIP3    H114790   0.454   6.118   5.090
 4942TIP3    H214791   0.491   6.257   5.042
 4943TIP3   OH214792   2.822   5.489   4.466
 4943TIP3    H114793   2.810   5.446   4.550
 4943TIP3    H214794   2.826   5.418   4.402
 4944TIP3   OH214795   5.111   1.638   5.065
 4944TIP3    H114796   5.052   1.692   5.012
 4944TIP3    H214797   5.063   1.622   5.146
 4945TIP3   OH214798   2.508   4.308   3.828
 4945TIP3    H114799   2.422   4.271   3.847
 4945TIP3    H214800   2.499   4.344   3.740
 4946TIP3   OH214801   3.657   4.245   2.746
 4946TIP3    H114802   3.597   4.219   2.675
 4946TIP3    H214803   3.699   4.163   2.772
 4947TIP3   OH214804   6.793   3.406   2.318
 4947TIP3    H114805   6.749   3.322   2.311
 4947TIP3    H214806   6.770   3.452   2.237
 4948TIP3   OH214807   3.502   2.914   4.901
 4948TIP3    H114808   3.442   2.841   4.916
 4948TIP3    H214809   3.486   2.941   4.811
 4949TIP3   OH214810   4.863   0.692   3.230
 4949TIP3    H114811   4.853   0.737   3.314
 4949TIP3    H214812   4.929   0.744   3.184
 4950TIP3   OH214813   5.657   3.443   0.497
 4950TIP3    H114814   5.595   3.372   0.517
 4950TIP3    H214815   5.727   3.400   0.448
 4951TIP3   OH214816   5.406   0.561   2.000
 4951TIP3    H114817   5.493   0.558   2.040
 4951TIP3    H214818   5.385   0.470   1.982
 4952TIP3   OH214819   3.358   0.402   4.450
 4952TIP3    H114820   3.311   0.471   4.404
 4952TIP3    H214821   3.292   0.362   4.507
 4953TIP3   OH214822   4.304   4.358   4.474
 4953TIP3    H114823   4.309   4.430   4.537
 4953TIP3    H214824   4.385   4.308   4.487
 4954TIP3   OH214825   1.701   5.681   5.715
 4954TIP3    H114826   1.620   5.677   5.663
 4954TIP3    H214827   1.771   5.689   5.650
 4955TIP3   OH214828   2.961   5.994   2.531
 4955TIP3    H114829   3.019   6.070   2.537
 4955TIP3    H214830   3.004   5.937   2.467
 4956TIP3   OH214831   1.590   2.249   1.525
 4956TIP3    H114832   1.648   2.195   1.579
 4956TIP3    H214833   1.553   2.312   1.587
 4957TIP3   OH214834   6.147   5.775   2.518
 4957TIP3    H114835   6.075   5.749   2.576
 4957TIP3    H214836   6.108   5.839   2.458
 4958TIP3   OH214837   5.183   0.397   5.851
 4958TIP3    H114838   5.114   0.362   5.795
 4958TIP3    H214839   5.218   0.320   5.896
 4959TIP3   OH214840   4.042   6.598   1.288
 4959TIP3    H114841   4.041   6.504   1.303
 4959TIP3    H214842   4.063   6.636   1.374
 4960TIP3   OH214843   5.786   3.216   5.297
 4960TIP3    H114844   5.691   3.207   5.306
 4960TIP3    H214845   5.816   3.244   5.383
 4961TIP3   OH214846   0.011   2.642   5.233
 4961TIP3    H114847  -0.015   2.701   5.163
 4961TIP3    H214848   0.066   2.576   5.190
 4962TIP3   OH214849   4.849   4.051   4.063
 4962TIP3    H114850   4.762   4.014   4.050
 4962TIP3    H214851   4.872   4.088   3.978
 4963TIP3   OH214852   6.164   4.211   4.945
 4963TIP3    H114853   6.188   4.191   5.035
 4963TIP3    H214854   6.246   4.205   4.896
 4964TIP3   OH214855   6.552   3.074   0.770
 4964TIP3    H114856   6.581   3.160   0.740
 4964TIP3    H214857   6.460   3.087   0.795
 4965TIP3   OH214858   6.431   0.349   1.138
 4965TIP3    H114859   6.523   0.336   1.161
 4965TIP3    H214860   6.417   0.289   1.064
 4966TIP3   OH214861   4.937   6.577   5.711
 4966TIP3    H114862   4.991   6.644   5.668
 4966TIP3    H214863   4.863   6.626   5.747
 4967TIP3   OH214864   6.341   1.265   3.913
 4967TIP3    H114865   6.306   1.266   3.824
 4967TIP3    H214866   6.309   1.347   3.952
 4968TIP3   OH214867   0.813   4.862   0.562
 4968TIP3    H114868   0.803   4.864   0.467
 4968TIP3    H214869   0.907   4.872   0.576
 4969TIP3   OH214870   2.829   0.348   4.131
 4969TIP3    H114871   2.917   0.316   4.151
 4969TIP3    H214872   2.842   0.411   4.060
 4970TIP3   OH214873   0.626   3.984   3.247
 4970TIP3    H114874   0.657   3.901   3.283
 4970TIP3    H214875   0.579   3.959   3.167
 4971TIP3   OH214876   6.750   6.145   2.974
 4971TIP3    H114877   6.809   6.219   2.985
 4971TIP3    H214878   6.662   6.182   2.980
 4972TIP3   OH214879   3.941   4.529   5.598
 4972TIP3    H114880   3.913   4.620   5.605
 4972TIP3    H214881   3.908   4.500   5.513
 4973TIP3   OH214882   3.097   2.034   4.771
 4973TIP3    H114883   3.188   2.065   4.763
 4973TIP3    H214884   3.077   1.998   4.686
 4974TIP3   OH214885   7.138   0.211   3.717
 4974TIP3    H114886   7.163   0.197   3.625
 4974TIP3    H214887   7.048   0.244   3.713
 4975TIP3   OH214888   4.137   5.186   0.600
 4975TIP3    H114889   4.093   5.126   0.660
 4975TIP3    H214890   4.230   5.173   0.618
 4976TIP3   OH214891   6.672   3.363   4.553
 4976TIP3    H114892   6.713   3.323   4.630
 4976TIP3    H214893   6.581   3.377   4.579
 4977TIP3   OH214894   5.907   1.989   1.629
 4977TIP3    H114895   5.968   1.916   1.624
 4977TIP3    H214896   5.828   1.959   1.584
 4978TIP3   OH214897   5.062   3.084   4.258
 4978TIP3    H114898   5.104   3.046   4.336
 4978TIP3    H214899   5.135   3.114   4.204
 4979TIP3   OH214900   2.404   3.238   2.898
 4979TIP3    H114901   2.467   3.234   2.826
 4979TIP3    H214902   2.403   3.330   2.924
 4980TIP3   OH214903   0.091   6.734   5.798
 4980TIP3    H114904   0.032   6.809   5.782
 4980TIP3    H214905   0.048   6.660   5.755
 4981TIP3   OH214906   4.227   1.558   3.138
 4981TIP3    H114907   4.172   1.562   3.216
 4981TIP3    H214908   4.301   1.615   3.157
 4982TIP3   OH214909   1.732   6.213   4.354
 4982TIP3    H114910   1.652   6.248   4.393
 4982TIP3    H214911   1.710   6.123   4.329
 4983TIP3   OH214912   5.527   6.452   1.580
 4983TIP3    H114913   5.562   6.467   1.493
 4983TIP3    H214914   5.542   6.535   1.626
 4984TIP3   OH214915   5.195   4.648   3.679
 4984TIP3    H114916   5.237   4.569   3.645
 4984TIP3    H214917   5.267   4.709   3.696
 4985TIP3   OH214918   0.023   0.830   4.542
 4985TIP3    H114919   0.111   0.804   4.513
 4985TIP3    H214920  -0.006   0.757   4.596
 4986TIP3   OH214921   6.386   3.826   5.031
 4986TIP3    H114922   6.310   3.781   5.068
 4986TIP3    H214923   6.349   3.884   4.964
 4987TIP3   OH214924   0.775   4.423   1.111
 4987TIP3    H114925   0.762   4.486   1.182
 4987TIP3    H214926   0.770   4.475   1.031
 4988TIP3   OH214927   2.015   1.991   5.253
 4988TIP3    H114928   1.998   2.080   5.284
 4988TIP3    H214929   2.074   2.003   5.178
 4989TIP3   OH214930  -0.017   5.725   0.333
 4989TIP3    H114931  -0.049   5.635   0.342
 4989TIP3    H214932   0.073   5.716   0.299
 4990TIP3   OH214933   4.118   5.918   4.884
 4990TIP3    H114934   4.156   5.893   4.968
 4990TIP3    H214935   4.130   6.013   4.880
 4991TIP3   OH214936   0.115   6.296   0.214
 4991TIP3    H114937   0.028   6.284   0.251
 4991TIP3    H214938   0.175   6.258   0.278
 4992TIP3   OH214939   6.834   5.743   5.199
 4992TIP3    H114940   6.754   5.785   5.231
 4992TIP3    H214941   6.861   5.796   5.124
 4993TIP3   OH214942   2.203   2.024   0.070
 4993TIP3    H114943   2.133   1.964   0.097
 4993TIP3    H214944   2.262   2.027   0.146
 4994TIP3   OH214945   4.798   0.455   5.500
 4994TIP3    H114946   4.753   0.371   5.511
 4994TIP3    H214947   4.728   0.520   5.497
 4995TIP3   OH214948   1.464   3.982   1.079
 4995TIP3    H114949   1.425   3.941   1.156
 4995TIP3    H214950   1.403   3.963   1.008
 4996TIP3   OH214951   6.939   0.148   5.530
 4996TIP3    H114952   6.848   0.150   5.563
 4996TIP3    H214953   6.992   0.154   5.609
 4997TIP3   OH214954   4.760   5.243   0.147
 4997TIP3    H114955   4.771   5.171   0.085
 4997TIP3    H214956   4.828   5.306   0.122
 4998TIP3   OH214957   6.577   1.416   4.144
 4998TIP3    H114958   6.606   1.418   4.053
 4998TIP3    H214959   6.583   1.324   4.170
 4999TIP3   OH214960   3.137   2.582   1.787
 4999TIP3    H114961   3.223   2.542   1.779
 4999TIP3    H214962   3.077   2.515   1.754
 5000TIP3   OH214963   0.639   3.732   3.710
 5000TIP3    H114964   0.580   3.660   3.689
 5000TIP3    H214965   0.581   3.807   3.726
 5001TIP3   OH214966   6.651   5.238   0.417
 5001TIP3    H114967   6.741   5.272   0.407
 5001TIP3    H214968   6.659   5.144   0.402
 5002TIP3   OH214969   6.918   4.560   5.395
 5002TIP3    H114970   6.940   4.492   5.332
 5002TIP3    H214971   6.876   4.514   5.467
 5003TIP3   OH214972   5.638   4.131   3.975
 5003TIP3    H114973   5.609   4.217   4.004
 5003TIP3    H214974   5.733   4.135   3.977
 5004TIP3   OH214975   1.115   6.606   3.737
 5004TIP3    H114976   1.142   6.656   3.813
 5004TIP3    H214977   1.196   6.567   3.703
 5005TIP3   OH214978   6.519   4.263   0.181
 5005TIP3    H114979   6.448   4.321   0.153
 5005TIP3    H214980   6.478   4.203   0.243
 5006TIP3   OH214981   6.116   0.160   3.905
 5006TIP3    H114982   6.145   0.097   3.972
 5006TIP3    H214983   6.196   0.182   3.857
 5007TIP3   OH214984   5.766   3.870   0.661
 5007TIP3    H114985   5.847   3.876   0.712
 5007TIP3    H214986   5.729   3.958   0.663
 5008TIP3   OH214987   4.676   4.824   1.371
 5008TIP3    H114988   4.730   4.864   1.303
 5008TIP3    H214989   4.613   4.769   1.323
 5009TIP3   OH214990   6.780   1.879   3.951
 5009TIP3    H114991   6.847   1.939   3.918
 5009TIP3    H214992   6.735   1.849   3.872
 5010TIP3   OH214993   1.997   1.037   3.316
 5010TIP3    H114994   2.079   0.998   3.284
 5010TIP3    H214995   1.956   0.968   3.368
 5011TIP3   OH214996   1.835   5.705   1.750
 5011TIP3    H114997   1.900   5.762   1.791
 5011TIP3    H214998   1.823   5.634   1.812
 5012TIP3   OH214999   3.393   4.220   1.984
 5012TIP3    H115000   3.401   4.313   2.002
 5012TIP3    H215001   3.433   4.177   2.060
 5013TIP3   OH215002   1.793   4.466   2.245
 5013TIP3    H115003   1.873   4.516   2.264
 5013TIP3    H215004   1.822   4.400   2.183
 5014TIP3   OH215005   6.515   0.823   1.268
 5014TIP3    H115006   6.520   0.755   1.201
 5014TIP3    H215007   6.516   0.905   1.219
 5015TIP3   OH215008   2.670   2.926   1.839
 5015TIP3    H115009   2.592   2.900   1.790
 5015TIP3    H215010   2.701   2.845   1.880
 5016TIP3   OH215011   4.410   0.288   5.395
 5016TIP3    H115012   4.343   0.270   5.461
 5016TIP3    H215013   4.490   0.249   5.430
 5017TIP3   OH215014   6.944   2.411   1.088
 5017TIP3    H115015   6.988   2.432   1.170
 5017TIP3    H215016   6.860   2.374   1.113
 5018TIP3   OH215017   1.662   0.708   3.380
 5018TIP3    H115018   1.591   0.770   3.363
 5018TIP3    H215019   1.720   0.716   3.304
 5019TIP3   OH215020   2.763   1.776   0.073
 5019TIP3    H115021   2.739   1.818  -0.010
 5019TIP3    H215022   2.690   1.717   0.092
 5020TIP3   OH215023   6.926   2.349   5.125
 5020TIP3    H115024   6.878   2.429   5.146
 5020TIP3    H215025   6.982   2.333   5.201
 5021TIP3   OH215026   2.696   3.967   5.020
 5021TIP3    H115027   2.600   3.959   5.020
 5021TIP3    H215028   2.716   3.998   5.108
 5022TIP3   OH215029   3.440   0.936   5.800
 5022TIP3    H115030   3.414   1.004   5.738
 5022TIP3    H215031   3.358   0.893   5.825
 5023TIP3   OH215032   1.054   5.885   1.202
 5023TIP3    H115033   1.035   5.877   1.108
 5023TIP3    H215034   0.969   5.906   1.242
 5024TIP3   OH215035   4.757   2.302   3.536
 5024TIP3    H115036   4.796   2.257   3.462
 5024TIP3    H215037   4.698   2.238   3.575
 5025TIP3   OH215038   0.117   5.477   4.418
 5025TIP3    H115039   0.105   5.415   4.491
 5025TIP3    H215040   0.029   5.485   4.380
 5026TIP3   OH215041   0.335   0.408   1.360
 5026TIP3    H115042   0.318   0.433   1.269
 5026TIP3    H215043   0.349   0.313   1.356
 5027TIP3   OH215044   4.447   5.801   0.136
 5027TIP3    H115045   4.497   5.736   0.087
 5027TIP3    H215046   4.503   5.824   0.210
 5028TIP3   OH215047   5.466   0.313   3.653
 5028TIP3    H115048   5.519   0.389   3.631
 5028TIP3    H215049   5.410   0.300   3.576
 5029TIP3   OH215050   4.126   1.197   2.254
 5029TIP3    H115051   4.077   1.209   2.173
 5029TIP3    H215052   4.062   1.212   2.324
 5030TIP3   OH215053   2.463   6.515   2.136
 5030TIP3    H115054   2.527   6.467   2.189
 5030TIP3    H215055   2.476   6.483   2.047
 5031TIP3   OH215056   1.123   0.649   0.547
 5031TIP3    H115057   1.132   0.666   0.640
 5031TIP3    H215058   1.049   0.703   0.519
 5032TIP3   OH215059   2.744   4.635   3.255
 5032TIP3    H115060   2.702   4.612   3.172
 5032TIP3    H215061   2.826   4.586   3.255
 5033TIP3   OH215062   3.245   4.042   5.091
 5033TIP3    H115063   3.194   3.981   5.037
 5033TIP3    H215064   3.326   4.056   5.042
 5034TIP3   OH215065   3.175   0.446   0.769
 5034TIP3    H115066   3.082   0.447   0.791
 5034TIP3    H215067   3.211   0.375   0.823
 5035TIP3   OH215068   6.775   0.628   1.209
 5035TIP3    H115069   6.795   0.568   1.281
 5035TIP3    H215070   6.758   0.571   1.134
 5036TIP3   OH215071   1.629   2.978   5.003
 5036TIP3    H115072   1.622   2.889   4.968
 5036TIP3    H215073   1.541   3.015   4.991
 5037TIP3   OH215074   7.163   3.838   3.765
 5037TIP3    H115075   7.174   3.744   3.748
 5037TIP3    H215076   7.124   3.873   3.685
 5038TIP3   OH215077   6.185   4.346   0.620
 5038TIP3    H115078   6.090   4.333   0.622
 5038TIP3    H215079   6.197   4.441   0.623
 5039TIP3   OH215080   5.829   4.028   1.722
 5039TIP3    H115081   5.770   4.077   1.664
 5039TIP3    H215082   5.894   3.990   1.663
 5040TIP3   OH215083   4.476   4.282   0.740
 5040TIP3    H115084   4.409   4.272   0.808
 5040TIP3    H215085   4.428   4.273   0.658
 5041TIP3   OH215086   4.992   3.128   0.949
 5041TIP3    H115087   4.955   3.182   0.878
 5041TIP3    H215088   4.925   3.129   1.017
 5042TIP3   OH215089   1.708   2.733   3.565
 5042TIP3    H115090   1.664   2.748   3.648
 5042TIP3    H215091   1.661   2.659   3.526
 5043TIP3   OH215092   6.450   6.156   3.252
 5043TIP3    H115093   6.493   6.183   3.333
 5043TIP3    H215094   6.442   6.061   3.260
 5044TIP3   OH215095   6.530   6.356   4.748
 5044TIP3    H115096   6.444   6.325   4.773
 5044TIP3    H215097   6.521   6.452   4.746
 5045TIP3   OH215098   1.407   1.383   3.357
 5045TIP3    H115099   1.449   1.364   3.441
 5045TIP3    H215100   1.314   1.390   3.377
 5046TIP3   OH215101   1.811   0.879   4.366
 5046TIP3    H115102   1.833   0.939   4.294
 5046TIP3    H215103   1.853   0.797   4.342
 5047TIP3   OH215104   3.719   1.324   0.234
 5047TIP3    H115105   3.795   1.344   0.287
 5047TIP3    H215106   3.677   1.250   0.278
 5048TIP3   OH215107   4.538   1.100   5.710
 5048TIP3    H115108   4.566   1.037   5.777
 5048TIP3    H215109   4.443   1.087   5.704
 5049TIP3   OH215110   0.785   3.926   2.080
 5049TIP3    H115111   0.848   3.888   2.019
 5049TIP3    H215112   0.744   3.851   2.123
 5050TIP3   OH215113   3.129   2.184   3.571
 5050TIP3    H115114   3.161   2.220   3.488
 5050TIP3    H215115   3.177   2.102   3.582
 5051TIP3   OH215116   3.651   1.532   1.229
 5051TIP3    H115117   3.637   1.472   1.156
 5051TIP3    H215118   3.700   1.481   1.293
 5052TIP3   OH215119   2.381   3.617   2.658
 5052TIP3    H115120   2.377   3.657   2.571
 5052TIP3    H215121   2.290   3.611   2.686
 5053TIP3   OH215122   3.345   0.287   0.322
 5053TIP3    H115123   3.419   0.336   0.286
 5053TIP3    H215124   3.365   0.276   0.415
 5054TIP3   OH215125   2.964   4.132   2.138
 5054TIP3    H115126   2.888   4.187   2.120
 5054TIP3    H215127   3.033   4.193   2.164
 5055TIP3   OH215128   1.104   5.050   1.039
 5055TIP3    H115129   1.178   5.043   0.978
 5055TIP3    H215130   1.027   5.027   0.987
 5056TIP3   OH215131   6.405   5.881   3.312
 5056TIP3    H115132   6.367   5.800   3.278
 5056TIP3    H215133   6.358   5.897   3.393
 5057TIP3   OH215134   3.548   3.519   3.088
 5057TIP3    H115135   3.599   3.504   3.168
 5057TIP3    H215136   3.462   3.482   3.108
 5058TIP3   OH215137   1.819   5.621   0.947
 5058TIP3    H115138   1.750   5.687   0.948
 5058TIP3    H215139   1.880   5.651   0.879
 5059TIP3   OH215140   2.880   2.789   3.268
 5059TIP3    H115141   2.935   2.858   3.232
 5059TIP3    H215142   2.926   2.761   3.347
 5060TIP3   OH215143   1.216   0.124   3.596
 5060TIP3    H115144   1.254   0.194   3.650
 5060TIP3    H215145   1.267   0.047   3.619
 5061TIP3   OH215146   1.308   0.467   0.735
 5061TIP3    H115147   1.264   0.507   0.660
 5061TIP3    H215148   1.361   0.537   0.772
 5062TIP3   OH215149   6.775   3.426   1.134
 5062TIP3    H115150   6.846   3.452   1.193
 5062TIP3    H215151   6.820   3.391   1.057
 5063TIP3   OH215152   1.490   2.710   1.095
 5063TIP3    H115153   1.432   2.786   1.095
 5063TIP3    H215154   1.490   2.680   1.186
 5064TIP3   OH215155   3.103   0.126   3.759
 5064TIP3    H115156   3.180   0.142   3.704
 5064TIP3    H215157   3.132   0.060   3.822
 5065TIP3   OH215158   3.898   3.927   5.318
 5065TIP3    H115159   3.982   3.914   5.363
 5065TIP3    H215160   3.833   3.892   5.378
 5066TIP3   OH215161   3.528   5.392   2.018
 5066TIP3    H115162   3.533   5.382   2.113
 5066TIP3    H215163   3.473   5.469   2.004
 5067TIP3   OH215164   6.589   2.617   4.600
 5067TIP3    H115165   6.518   2.557   4.623
 5067TIP3    H215166   6.660   2.595   4.661
 5068TIP3   OH215167   2.967   2.110   2.612
 5068TIP3    H115168   2.932   2.021   2.615
 5068TIP3    H215169   2.987   2.131   2.703
 5069TIP3   OH215170   6.984   2.104   3.908
 5069TIP3    H115171   7.024   2.084   3.823
 5069TIP3    H215172   7.040   2.171   3.946
 5070TIP3   OH215173   0.243   1.534   3.205
 5070TIP3    H115174   0.265   1.490   3.123
 5070TIP3    H215175   0.148   1.523   3.213
 5071TIP3   OH215176   6.626   2.454   5.503
 5071TIP3    H115177   6.555   2.504   5.544
 5071TIP3    H215178   6.686   2.435   5.575
 5072TIP3   OH215179   6.040   1.563   3.020
 5072TIP3    H115180   6.057   1.526   2.933
 5072TIP3    H215181   5.948   1.590   3.016
 5073TIP3   OH215182   2.374   3.632   5.591
 5073TIP3    H115183   2.466   3.618   5.615
 5073TIP3    H215184   2.326   3.620   5.672
 5074TIP3   OH215185   3.020   3.948   2.334
 5074TIP3    H115186   2.981   4.026   2.295
 5074TIP3    H215187   3.017   3.882   2.265
 5075TIP3   OH215188   5.948   6.199   3.179
 5075TIP3    H115189   6.030   6.233   3.212
 5075TIP3    H215190   5.938   6.114   3.221
 5076TIP3   OH215191   1.953   0.648   2.520
 5076TIP3    H115192   2.020   0.694   2.469
 5076TIP3    H215193   2.002   0.590   2.578
 5077TIP3   OH215194   4.317   6.164   2.849
 5077TIP3    H115195   4.321   6.258   2.865
 5077TIP3    H215196   4.338   6.153   2.757
 5078TIP3   OH215197   2.981   2.944   2.614
 5078TIP3    H115198   2.992   2.850   2.627
 5078TIP3    H215199   2.933   2.951   2.532
 5079TIP3   OH215200   4.786   5.755   4.546
 5079TIP3    H115201   4.861   5.801   4.507
 5079TIP3    H215202   4.716   5.765   4.482
 5080TIP3   OH215203   5.312   5.400   1.710
 5080TIP3    H115204   5.402   5.431   1.722
 5080TIP3    H215205   5.322   5.312   1.673
 5081TIP3   OH215206   4.364   6.728   1.502
 5081TIP3    H115207   4.370   6.776   1.585
 5081TIP3    H215208   4.315   6.787   1.444
 5082TIP3   OH215209   4.462   0.873   4.570
 5082TIP3    H115210   4.371   0.853   4.548
 5082TIP3    H215211   4.471   0.844   4.660
 5083TIP3   OH215212   5.033   3.183   0.178
 5083TIP3    H115213   5.122   3.200   0.147
 5083TIP3    H215214   4.992   3.132   0.108
 5084TIP3   OH215215   5.178   6.352   2.017
 5084TIP3    H115216   5.171   6.300   1.937
 5084TIP3    H215217   5.252   6.313   2.065
 5085TIP3   OH215218   4.918   4.943   4.966
 5085TIP3    H115219   4.849   4.986   4.916
 5085TIP3    H215220   4.873   4.873   5.013
 5086TIP3   OH215221   5.603   4.949   4.288
 5086TIP3    H115222   5.683   5.002   4.285
 5086TIP3    H215223   5.561   4.966   4.204
 5087TIP3   OH215224   1.559   5.829   1.910
 5087TIP3    H115225   1.616   5.752   1.916
 5087TIP3    H215226   1.483   5.799   1.861
 5088TIP3   OH215227   3.914   0.881   5.471
 5088TIP3    H115228   3.821   0.901   5.482
 5088TIP3    H215229   3.944   0.853   5.557
 5089TIP3   OH215230   1.586   6.244   4.585
 5089TIP3    H115231   1.661   6.253   4.643
 5089TIP3    H215232   1.572   6.150   4.578
 5090TIP3   OH215233   6.896   4.177   4.378
 5090TIP3    H115234   6.896   4.216   4.290
 5090TIP3    H215235   6.896   4.083   4.363
 5091TIP3   OH215236   6.465   5.878   0.440
 5091TIP3    H115237   6.554   5.853   0.462
 5091TIP3    H215238   6.472   5.968   0.408
 5092TIP3   OH215239   1.469   3.817   1.311
 5092TIP3    H115240   1.463   3.736   1.260
 5092TIP3    H215241   1.485   3.788   1.401
 5093TIP3   OH215242   7.043   2.239   2.659
 5093TIP3    H115243   7.117   2.298   2.674
 5093TIP3    H215244   6.967   2.297   2.653
 5094TIP3   OH215245   0.139   6.696   5.395
 5094TIP3    H115246   0.180   6.609   5.389
 5094TIP3    H215247   0.199   6.747   5.449
 5095TIP3   OH215248   5.190   6.633   0.342
 5095TIP3    H115249   5.224   6.699   0.401
 5095TIP3    H215250   5.112   6.673   0.303
 5096TIP3   OH215251   2.581   2.822   4.857
 5096TIP3    H115252   2.668   2.864   4.861
 5096TIP3    H215253   2.546   2.833   4.945
 5097TIP3   OH215254   3.444   5.280   4.414
 5097TIP3    H115255   3.373   5.329   4.372
 5097TIP3    H215256   3.470   5.215   4.349
 5098TIP3   OH215257   0.984   2.430   2.587
 5098TIP3    H115258   0.967   2.456   2.496
 5098TIP3    H215259   0.897   2.424   2.627
 5099TIP3   OH215260   6.130   0.176   1.636
 5099TIP3    H115261   6.150   0.139   1.550
 5099TIP3    H215262   6.120   0.099   1.693
 5100TIP3   OH215263   4.224   4.992   4.268
 5100TIP3    H115264   4.190   4.993   4.178
 5100TIP3    H215265   4.276   4.911   4.273
 5101TIP3   OH215266   3.478   6.343   4.136
 5101TIP3    H115267   3.420   6.334   4.211
 5101TIP3    H215268   3.563   6.312   4.167
 5102TIP3   OH215269   3.907   1.585   4.826
 5102TIP3    H115270   3.895   1.507   4.772
 5102TIP3    H215271   3.820   1.627   4.827
 5103TIP3   OH215272   2.227   0.377   2.006
 5103TIP3    H115273   2.248   0.341   1.920
 5103TIP3    H215274   2.135   0.354   2.020
 5104TIP3   OH215275   3.908   2.813   0.982
 5104TIP3    H115276   3.820   2.843   0.958
 5104TIP3    H215277   3.956   2.811   0.899
 5105TIP3   OH215278   0.985   6.625   0.326
 5105TIP3    H115279   0.962   6.685   0.255
 5105TIP3    H215280   0.905   6.576   0.343
 5106TIP3   OH215281   3.106   4.963   0.738
 5106TIP3    H115282   3.186   4.920   0.769
 5106TIP3    H215283   3.129   5.055   0.733
 5107TIP3   OH215284   2.535   2.240   4.329
 5107TIP3    H115285   2.549   2.175   4.261
 5107TIP3    H215286   2.472   2.199   4.389
 5108TIP3   OH215287   4.776   5.945   0.925
 5108TIP3    H115288   4.691   5.924   0.888
 5108TIP3    H215289   4.757   6.004   0.998
 5109TIP3   OH215290   4.740   5.564   3.215
 5109TIP3    H115291   4.694   5.482   3.200
 5109TIP3    H215292   4.832   5.544   3.197
 5110TIP3   OH215293   2.972   0.655   3.136
 5110TIP3    H115294   2.898   0.618   3.184
 5110TIP3    H215295   3.042   0.663   3.200
 5111TIP3   OH215296   2.233   3.648   5.113
 5111TIP3    H115297   2.207   3.576   5.171
 5111TIP3    H215298   2.162   3.653   5.048
 5112TIP3   OH215299   5.728   2.380   0.969
 5112TIP3    H115300   5.706   2.401   1.060
 5112TIP3    H215301   5.756   2.288   0.972
 5113TIP3   OH215302   3.196   2.738   5.127
 5113TIP3    H115303   3.217   2.667   5.067
 5113TIP3    H215304   3.260   2.729   5.198
 5114TIP3   OH215305   0.480   1.927   3.954
 5114TIP3    H115306   0.449   1.855   4.009
 5114TIP3    H215307   0.460   1.899   3.864
 5115TIP3   OH215308  -0.019   5.691   1.340
 5115TIP3    H115309   0.001   5.600   1.322
 5115TIP3    H215310  -0.037   5.729   1.255
 5116TIP3   OH215311   1.924   4.652   0.259
 5116TIP3    H115312   1.986   4.626   0.327
 5116TIP3    H215313   1.973   4.710   0.201
 5117TIP3   OH215314   5.927   0.901   4.321
 5117TIP3    H115315   5.927   0.977   4.379
 5117TIP3    H215316   6.017   0.893   4.292
 5118TIP3   OH215317   0.381   1.267   0.893
 5118TIP3    H115318   0.389   1.191   0.835
 5118TIP3    H215319   0.437   1.246   0.968
 5119TIP3   OH215320   6.348   3.157   2.123
 5119TIP3    H115321   6.293   3.083   2.097
 5119TIP3    H215322   6.402   3.174   2.046
 5120TIP3   OH215323   6.916   6.007   4.505
 5120TIP3    H115324   6.990   6.067   4.506
 5120TIP3    H215325   6.839   6.064   4.505
 5121TIP3   OH215326   0.497   0.088   5.102
 5121TIP3    H115327   0.492   0.160   5.165
 5121TIP3    H215328   0.523   0.129   5.020
 5122TIP3   OH215329   0.452   3.969   2.985
 5122TIP3    H115330   0.361   3.970   2.956
 5122TIP3    H215331   0.500   3.930   2.912
 5123TIP3   OH215332   3.317   4.930   0.104
 5123TIP3    H115333   3.291   4.955   0.015
 5123TIP3    H215334   3.413   4.933   0.102
 5124TIP3   OH215335   0.493   4.504   4.786
 5124TIP3    H115336   0.574   4.556   4.783
 5124TIP3    H215337   0.446   4.537   4.862
 5125TIP3   OH215338   1.359   0.449   3.363
 5125TIP3    H115339   1.408   0.476   3.285
 5125TIP3    H215340   1.414   0.382   3.404
 5126TIP3   OH215341  -0.051   2.467   0.087
 5126TIP3    H115342  -0.049   2.560   0.108
 5126TIP3    H215343   0.034   2.434   0.115
 5127TIP3   OH215344   7.145   3.678   4.102
 5127TIP3    H115345   7.232   3.715   4.087
 5127TIP3    H215346   7.088   3.724   4.040
 5128TIP3   OH215347   6.985   3.941   0.240
 5128TIP3    H115348   7.049   3.872   0.224
 5128TIP3    H215349   6.952   3.923   0.328
 5129TIP3   OH215350   2.809   1.746   1.168
 5129TIP3    H115351   2.867   1.815   1.135
 5129TIP3    H215352   2.728   1.758   1.119
 5130TIP3   OH215353   2.750   0.309   5.744
 5130TIP3    H115354   2.670   0.341   5.785
 5130TIP3    H215355   2.820   0.359   5.787
 5131TIP3   OH215356   4.354   5.506   0.906
 5131TIP3    H115357   4.360   5.474   0.816
 5131TIP3    H215358   4.260   5.523   0.919
 5132TIP3   OH215359   5.026   6.022   4.930
 5132TIP3    H115360   4.943   5.988   4.898
 5132TIP3    H215361   5.072   6.053   4.852
 5133TIP3   OH215362   2.695   0.075   0.915
 5133TIP3    H115363   2.680   0.161   0.954
 5133TIP3    H215364   2.782   0.082   0.876
 5134TIP3   OH215365   5.676   2.935   1.973
 5134TIP3    H115366   5.683   3.026   2.001
 5134TIP3    H215367   5.595   2.930   1.923
 5135TIP3   OH215368   3.997   6.420   2.754
 5135TIP3    H115369   4.011   6.514   2.765
 5135TIP3    H215370   4.018   6.382   2.840
 5136TIP3   OH215371   6.567   4.528   0.642
 5136TIP3    H115372   6.607   4.485   0.567
 5136TIP3    H215373   6.567   4.462   0.711
 5137TIP3   OH215374   3.961   3.027   4.063
 5137TIP3    H115375   3.885   2.974   4.041
 5137TIP3    H215376   3.937   3.069   4.146
 5138TIP3   OH215377   1.201   0.896   1.007
 5138TIP3    H115378   1.160   0.983   1.012
 5138TIP3    H215379   1.169   0.850   1.085
 5139TIP3   OH215380   2.764   1.404   5.635
 5139TIP3    H115381   2.830   1.396   5.703
 5139TIP3    H215382   2.762   1.497   5.614
 5140TIP3   OH215383   4.908   2.808   2.509
 5140TIP3    H115384   4.906   2.731   2.565
 5140TIP3    H215385   4.887   2.881   2.567
 5141TIP3   OH215386   2.737   0.103   4.334
 5141TIP3    H115387   2.755   0.194   4.357
 5141TIP3    H215388   2.710   0.063   4.417
 5142TIP3   OH215389   0.309   4.537   2.276
 5142TIP3    H115390   0.256   4.470   2.233
 5142TIP3    H215391   0.280   4.537   2.367
 5143TIP3   OH215392   4.808   1.658   4.191
 5143TIP3    H115393   4.798   1.565   4.175
 5143TIP3    H215394   4.793   1.699   4.106
 5144TIP3   OH215395   1.409   4.508   0.114
 5144TIP3    H115396   1.350   4.582   0.131
 5144TIP3    H215397   1.447   4.489   0.200
 5145TIP3   OH215398   4.779   6.018   3.134
 5145TIP3    H115399   4.737   6.103   3.138
 5145TIP3    H215400   4.754   5.975   3.216
 5146TIP3   OH215401   3.024   1.686   4.137
 5146TIP3    H115402   2.956   1.659   4.075
 5146TIP3    H215403   2.979   1.685   4.222
 5147TIP3   OH215404   3.908   3.657   5.750
 5147TIP3    H115405   3.823   3.652   5.706
 5147TIP3    H215406   3.966   3.604   5.695
 5148TIP3   OH215407   1.392   4.860   1.861
 5148TIP3    H115408   1.396   4.955   1.874
 5148TIP3    H215409   1.315   4.846   1.806
 5149TIP3   OH215410   2.604   6.225   5.854
 5149TIP3    H115411   2.668   6.295   5.863
 5149TIP3    H215412   2.570   6.235   5.765
 5150TIP3   OH215413   6.430   4.772   0.924
 5150TIP3    H115414   6.452   4.681   0.945
 5150TIP3    H215415   6.515   4.814   0.912
 5151TIP3   OH215416   1.876   3.573   0.093
 5151TIP3    H115417   1.797   3.626   0.107
 5151TIP3    H215418   1.844   3.484   0.082
 5152TIP3   OH215419   3.672   3.818   0.447
 5152TIP3    H115420   3.669   3.758   0.521
 5152TIP3    H215421   3.727   3.891   0.477
 5153TIP3   OH215422   1.158   0.952   4.058
 5153TIP3    H115423   1.121   1.040   4.064
 5153TIP3    H215424   1.129   0.908   4.138
 5154TIP3   OH215425   4.624   6.143   2.877
 5154TIP3    H115426   4.616   6.091   2.797
 5154TIP3    H215427   4.707   6.190   2.867
 5155TIP3   OH215428   5.839   5.033   0.400
 5155TIP3    H115429   5.749   5.065   0.392
 5155TIP3    H215430   5.891   5.111   0.417
 5156TIP3   OH215431   7.168   6.083   0.918
 5156TIP3    H115432   7.230   6.092   0.990
 5156TIP3    H215433   7.096   6.141   0.941
 5157TIP3   OH215434   0.089   3.667   4.689
 5157TIP3    H115435   0.126   3.651   4.776
 5157TIP3    H215436   0.136   3.744   4.657
 5158TIP3   OH215437   4.066   6.631   5.220
 5158TIP3    H115438   4.000   6.569   5.189
 5158TIP3    H215439   4.143   6.576   5.238
 5159TIP3   OH215440   2.737   4.241   3.932
 5159TIP3    H115441   2.759   4.316   3.988
 5159TIP3    H215442   2.656   4.267   3.888
 5160TIP3   OH215443   4.377   5.748   3.248
 5160TIP3    H115444   4.445   5.774   3.311
 5160TIP3    H215445   4.415   5.764   3.162
 5161TIP3   OH215446   7.179   1.344   1.331
 5161TIP3    H115447   7.271   1.340   1.307
 5161TIP3    H215448   7.153   1.434   1.314
 5162TIP3   OH215449   4.179   5.199   2.974
 5162TIP3    H115450   4.199   5.116   3.016
 5162TIP3    H215451   4.208   5.189   2.884
 5163TIP3   OH215452   5.362   4.354   4.035
 5163TIP3    H115453   5.341   4.444   4.008
 5163TIP3    H215454   5.449   4.361   4.075
 5164TIP3   OH215455   2.215   1.811   1.451
 5164TIP3    H115456   2.127   1.775   1.441
 5164TIP3    H215457   2.208   1.872   1.524
 5165TIP3   OH215458   4.538   5.139   0.394
 5165TIP3    H115459   4.449   5.161   0.364
 5165TIP3    H215460   4.588   5.219   0.380
 5166TIP3   OH215461   0.611   2.756   0.657
 5166TIP3    H115462   0.549   2.684   0.671
 5166TIP3    H215463   0.696   2.717   0.674
 5167TIP3   OH215464   5.157   2.496   3.857
 5167TIP3    H115465   5.239   2.540   3.836
 5167TIP3    H215466   5.124   2.465   3.773
 5168TIP3   OH215467   6.405   6.571   4.197
 5168TIP3    H115468   6.378   6.481   4.175
 5168TIP3    H215469   6.485   6.559   4.249
 5169TIP3   OH215470   4.567   6.436   1.236
 5169TIP3    H115471   4.533   6.524   1.225
 5169TIP3    H215472   4.514   6.382   1.177
 5170TIP3   OH215473   4.895   3.518   4.514
 5170TIP3    H115474   4.901   3.422   4.511
 5170TIP3    H215475   4.985   3.549   4.503
 5171TIP3   OH215476   3.811   1.205   5.695
 5171TIP3    H115477   3.893   1.204   5.646
 5171TIP3    H215478   3.802   1.296   5.725
 5172TIP3   OH215479   2.163   0.329   5.213
 5172TIP3    H115480   2.167   0.423   5.234
 5172TIP3    H215481   2.077   0.317   5.173
 5173TIP3   OH215482   5.427   3.432   0.258
 5173TIP3    H115483   5.521   3.417   0.252
 5173TIP3    H215484   5.401   3.388   0.338
 5174TIP3   OH215485   6.142   5.171   0.064
 5174TIP3    H115486   6.057   5.144   0.031
 5174TIP3    H215487   6.145   5.137   0.153
 5175TIP3   OH215488   6.072   3.556   3.153
 5175TIP3    H115489   6.016   3.540   3.077
 5175TIP3    H215490   6.058   3.481   3.210
 5176TIP3   OH215491   3.950   5.868   2.568
 5176TIP3    H115492   3.945   5.961   2.588
 5176TIP3    H215493   4.010   5.862   2.494
 5177TIP3   OH215494   3.074   1.584   1.189
 5177TIP3    H115495   2.982   1.610   1.193
 5177TIP3    H215496   3.122   1.664   1.210
 5178TIP3   OH215497   0.398   2.230   0.791
 5178TIP3    H115498   0.488   2.200   0.784
 5178TIP3    H215499   0.403   2.325   0.779
 5179TIP3   OH215500   0.860   3.622   3.615
 5179TIP3    H115501   0.840   3.574   3.535
 5179TIP3    H215502   0.775   3.654   3.646
 5180TIP3   OH215503   6.040   6.662   1.948
 5180TIP3    H115504   5.969   6.606   1.917
 5180TIP3    H215505   6.063   6.715   1.872
 5181TIP3   OH215506   5.112   3.848   3.696
 5181TIP3    H115507   5.125   3.846   3.791
 5181TIP3    H215508   5.017   3.862   3.685
 5182TIP3   OH215509   2.417   0.756   2.444
 5182TIP3    H115510   2.477   0.815   2.489
 5182TIP3    H215511   2.470   0.714   2.376
 5183TIP3   OH215512   6.739   3.195   4.326
 5183TIP3    H115513   6.771   3.121   4.377
 5183TIP3    H215514   6.672   3.235   4.381
 5184TIP3   OH215515   4.990   2.720   0.869
 5184TIP3    H115516   4.969   2.793   0.810
 5184TIP3    H215517   4.983   2.757   0.957
 5185TIP3   OH215518   1.447   1.782   1.668
 5185TIP3    H115519   1.496   1.823   1.597
 5185TIP3    H215520   1.443   1.849   1.737
 5186TIP3   OH215521   2.662   2.971   3.398
 5186TIP3    H115522   2.568   2.960   3.382
 5186TIP3    H215523   2.702   2.893   3.359
 5187TIP3   OH215524   0.554   4.230   4.852
 5187TIP3    H115525   0.536   4.324   4.840
 5187TIP3    H215526   0.617   4.227   4.924
 5188TIP3   OH215527   5.518   0.484   5.388
 5188TIP3    H115528   5.464   0.528   5.322
 5188TIP3    H215529   5.455   0.441   5.445
 5189TIP3   OH215530   2.890   5.064   5.467
 5189TIP3    H115531   2.858   5.114   5.392
 5189TIP3    H215532   2.827   5.082   5.537
 5190TIP3   OH215533   2.029   5.414   0.690
 5190TIP3    H115534   1.949   5.367   0.713
 5190TIP3    H215535   2.063   5.367   0.614
 5191TIP3   OH215536   6.760   5.875   1.474
 5191TIP3    H115537   6.805   5.807   1.425
 5191TIP3    H215538   6.671   5.842   1.484
 5192TIP3   OH215539   7.203   0.162   4.794
 5192TIP3    H115540   7.131   0.122   4.745
 5192TIP3    H215541   7.177   0.253   4.804
 5193TIP3   OH215542   2.141   5.208   2.757
 5193TIP3    H115543   2.057   5.239   2.791
 5193TIP3    H215544   2.172   5.280   2.702
 5194TIP3   OH215545   1.121   4.031   1.932
 5194TIP3    H115546   1.158   4.118   1.945
 5194TIP3    H215547   1.043   4.045   1.880
 5195TIP3   OH215548   1.422   5.078   0.609
 5195TIP3    H115549   1.416   5.171   0.633
 5195TIP3    H215550   1.420   5.078   0.513
 5196TIP3   OH215551   3.652   2.816   4.595
 5196TIP3    H115552   3.694   2.862   4.667
 5196TIP3    H215553   3.677   2.724   4.606
 5197TIP3   OH215554   2.792   5.648   5.380
 5197TIP3    H115555   2.848   5.678   5.309
 5197TIP3    H215556   2.756   5.565   5.349
 5198TIP3   OH215557   6.584   2.114   3.778
 5198TIP3    H115558   6.623   2.144   3.861
 5198TIP3    H215559   6.511   2.058   3.805
 5199TIP3   OH215560   0.093   2.256   2.966
 5199TIP3    H115561   0.150   2.232   2.893
 5199TIP3    H215562   0.090   2.177   3.020
 5200TIP3   OH215563   6.305   2.095   5.211
 5200TIP3    H115564   6.364   2.168   5.229
 5200TIP3    H215565   6.217   2.133   5.217
 5201TIP3   OH215566   0.336   5.200   3.395
 5201TIP3    H115567   0.301   5.282   3.431
 5201TIP3    H215568   0.419   5.188   3.442
 5202TIP3   OH215569   1.675   2.362   4.330
 5202TIP3    H115570   1.629   2.440   4.300
 5202TIP3    H215571   1.678   2.371   4.425
 5203TIP3   OH215572   4.966   1.418   4.974
 5203TIP3    H115573   4.891   1.468   4.941
 5203TIP3    H215574   5.024   1.484   5.011
 5204TIP3   OH215575   3.325   3.026   3.602
 5204TIP3    H115576   3.334   2.940   3.643
 5204TIP3    H215577   3.415   3.053   3.584
 5205TIP3   OH215578   3.147   5.408   5.500
 5205TIP3    H115579   3.165   5.315   5.516
 5205TIP3    H215580   3.087   5.432   5.571
 5206TIP3   OH215581   6.793   4.427   0.941
 5206TIP3    H115582   6.757   4.344   0.974
 5206TIP3    H215583   6.736   4.494   0.977
 5207TIP3   OH215584   0.996   1.072   4.467
 5207TIP3    H115585   0.925   1.135   4.480
 5207TIP3    H215586   1.059   1.092   4.536
 5208TIP3   OH215587   3.206   2.231   2.500
 5208TIP3    H115588   3.240   2.293   2.566
 5208TIP3    H215589   3.136   2.185   2.545
 5209TIP3   OH215590   5.060   0.360   1.997
 5209TIP3    H115591   5.057   0.441   1.946
 5209TIP3    H215592   5.085   0.388   2.085
 5210TIP3   OH215593   5.525   5.718   5.299
 5210TIP3    H115594   5.504   5.695   5.209
 5210TIP3    H215595   5.487   5.805   5.311
 5211TIP3   OH215596   4.646   3.518   0.149
 5211TIP3    H115597   4.580   3.586   0.163
 5211TIP3    H215598   4.616   3.471   0.071
 5212TIP3   OH215599   2.126   6.591   1.197
 5212TIP3    H115600   2.187   6.594   1.270
 5212TIP3    H215601   2.058   6.530   1.224
 5213TIP3   OH215602   0.749   1.189   0.675
 5213TIP3    H115603   0.835   1.205   0.715
 5213TIP3    H215604   0.702   1.271   0.685
 5214TIP3   OH215605   6.980   1.443   3.627
 5214TIP3    H115606   7.008   1.402   3.708
 5214TIP3    H215607   6.887   1.421   3.619
 5215TIP3   OH215608   6.965   5.499   3.707
 5215TIP3    H115609   6.899   5.561   3.737
 5215TIP3    H215610   7.030   5.553   3.662
 5216TIP3   OH215611   5.053   5.450   4.930
 5216TIP3    H115612   5.092   5.419   5.012
 5216TIP3    H215613   4.971   5.400   4.923
 5217TIP3   OH215614   0.513   2.629   1.025
 5217TIP3    H115615   0.473   2.652   1.109
 5217TIP3    H215616   0.450   2.659   0.960
 5218TIP3   OH215617   3.393   0.135   5.057
 5218TIP3    H115618   3.332   0.126   5.130
 5218TIP3    H215619   3.381   0.055   5.006
 5219TIP3   OH215620   5.996   0.736   2.871
 5219TIP3    H115621   6.034   0.659   2.912
 5219TIP3    H215622   5.994   0.715   2.778
 5220TIP3   OH215623   2.937   5.599   0.651
 5220TIP3    H115624   2.963   5.640   0.569
 5220TIP3    H215625   2.859   5.648   0.679
 5221TIP3   OH215626   1.821   5.324   4.795
 5221TIP3    H115627   1.863   5.346   4.878
 5221TIP3    H215628   1.728   5.328   4.813
 5222TIP3   OH215629   6.294   1.261   2.217
 5222TIP3    H115630   6.327   1.317   2.147
 5222TIP3    H215631   6.363   1.195   2.229
 5223TIP3   OH215632   1.239   3.108   0.661
 5223TIP3    H115633   1.331   3.117   0.635
 5223TIP3    H215634   1.206   3.035   0.608
 5224TIP3   OH215635   6.717   1.495   3.370
 5224TIP3    H115636   6.788   1.550   3.335
 5224TIP3    H215637   6.650   1.557   3.398
 5225TIP3   OH215638   4.795   3.025   3.237
 5225TIP3    H115639   4.882   3.038   3.274
 5225TIP3    H215640   4.768   2.939   3.271
 5226TIP3   OH215641   0.691   5.835   2.785
 5226TIP3    H115642   0.767   5.779   2.798
 5226TIP3    H215643   0.616   5.779   2.803
 5227TIP3   OH215644   3.758   3.324   0.037
 5227TIP3    H115645   3.815   3.287  -0.030
 5227TIP3    H215646   3.712   3.249   0.074
 5228TIP3   OH215647   3.119   2.764   5.487
 5228TIP3    H115648   3.146   2.844   5.532
 5228TIP3    H215649   3.200   2.726   5.454
 5229TIP3   OH215650   4.539   3.954   0.732
 5229TIP3    H115651   4.520   4.031   0.786
 5229TIP3    H215652   4.479   3.887   0.766
 5230TIP3   OH215653   4.616   2.858   3.386
 5230TIP3    H115654   4.655   2.776   3.358
 5230TIP3    H215655   4.612   2.852   3.482
 5231TIP3   OH215656   4.911   1.311   5.833
 5231TIP3    H115657   4.846   1.374   5.865
 5231TIP3    H215658   4.885   1.293   5.743
 5232TIP3   OH215659   3.074   4.963   4.536
 5232TIP3    H115660   3.158   4.936   4.574
 5232TIP3    H215661   3.020   4.885   4.539
 5233TIP3   OH215662   6.162   4.345   2.247
 5233TIP3    H115663   6.169   4.254   2.273
 5233TIP3    H215664   6.216   4.393   2.309
 5234TIP3   OH215665   2.552   1.738   2.183
 5234TIP3    H115666   2.606   1.681   2.238
 5234TIP3    H215667   2.605   1.753   2.105
 5235TIP3   OH215668   1.103   1.901   3.139
 5235TIP3    H115669   1.092   1.964   3.210
 5235TIP3    H215670   1.058   1.822   3.170
 5236TIP3   OH215671   4.942   2.846   4.172
 5236TIP3    H115672   4.958   2.828   4.079
 5236TIP3    H215673   4.981   2.933   4.186
 5237TIP3   OH215674   2.234   6.184   5.668
 5237TIP3    H115675   2.328   6.190   5.687
 5237TIP3    H215676   2.199   6.132   5.740
 5238TIP3   OH215677   1.322   0.610   4.524
 5238TIP3    H115678   1.386   0.673   4.491
 5238TIP3    H215679   1.361   0.524   4.506
 5239TIP3   OH215680   4.207   0.219   1.336
 5239TIP3    H115681   4.269   0.275   1.290
 5239TIP3    H215682   4.244   0.131   1.330
 5240TIP3   OH215683   5.645   0.482   4.661
 5240TIP3    H115684   5.718   0.526   4.705
 5240TIP3    H215685   5.620   0.411   4.720
 5241TIP3   OH215686   6.267   2.679   4.209
 5241TIP3    H115687   6.227   2.748   4.155
 5241TIP3    H215688   6.311   2.622   4.145
 5242TIP3   OH215689   6.558   3.148   3.732
 5242TIP3    H115690   6.484   3.175   3.785
 5242TIP3    H215691   6.585   3.228   3.687
 5243TIP3   OH215692   5.942   2.874   1.090
 5243TIP3    H115693   5.925   2.783   1.112
 5243TIP3    H215694   5.861   2.906   1.051
 5244TIP3   OH215695   2.354   3.429   1.221
 5244TIP3    H115696   2.395   3.363   1.164
 5244TIP3    H215697   2.424   3.460   1.278
 5245TIP3   OH215698   5.682   1.213   2.189
 5245TIP3    H115699   5.678   1.174   2.277
 5245TIP3    H215700   5.596   1.196   2.151
 5246TIP3   OH215701   2.543   5.360   2.480
 5246TIP3    H115702   2.634   5.387   2.483
 5246TIP3    H215703   2.540   5.292   2.413
 5247TIP3   OH215704   5.111   0.402   4.419
 5247TIP3    H115705   5.128   0.494   4.399
 5247TIP3    H215706   5.138   0.355   4.341
 5248TIP3   OH215707   0.281   2.302   3.222
 5248TIP3    H115708   0.371   2.327   3.199
 5248TIP3    H215709   0.238   2.288   3.138
 5249TIP3   OH215710   6.505   5.445   4.827
 5249TIP3    H115711   6.583   5.467   4.879
 5249TIP3    H215712   6.433   5.489   4.872
 5250TIP3   OH215713   0.371   1.726   2.832
 5250TIP3    H115714   0.363   1.779   2.911
 5250TIP3    H215715   0.446   1.668   2.848
 5251TIP3   OH215716   0.638   2.858   4.638
 5251TIP3    H115717   0.636   2.859   4.543
 5251TIP3    H215718   0.622   2.949   4.664
 5252TIP3   OH215719   0.667   4.622   5.464
 5252TIP3    H115720   0.728   4.559   5.503
 5252TIP3    H215721   0.585   4.609   5.512
 5253TIP3   OH215722   1.527   4.116   3.338
 5253TIP3    H115723   1.434   4.136   3.324
 5253TIP3    H215724   1.531   4.081   3.427
 5254TIP3   OH215725   4.082   0.068   5.756
 5254TIP3    H115726   4.059   0.123   5.831
 5254TIP3    H215727   4.067  -0.022   5.786
 5255TIP3   OH215728   3.214   1.785   3.991
 5255TIP3    H115729   3.157   1.734   4.048
 5255TIP3    H215730   3.248   1.722   3.927
 5256TIP3   OH215731   6.088   4.051   2.777
 5256TIP3    H115732   6.149   4.022   2.709
 5256TIP3    H215733   6.075   3.975   2.833
 5257TIP3   OH215734   1.838   6.357   4.142
 5257TIP3    H115735   1.917   6.404   4.167
 5257TIP3    H215736   1.811   6.310   4.221
 5258TIP3   OH215737   3.831   2.306   0.185
 5258TIP3    H115738   3.788   2.231   0.226
 5258TIP3    H215739   3.889   2.341   0.253
 5259TIP3   OH215740   3.943   2.835   0.262
 5259TIP3    H115741   4.017   2.815   0.205
 5259TIP3    H215742   3.981   2.890   0.331
 5260TIP3   OH215743   4.795   1.048   4.566
 5260TIP3    H115744   4.851   1.090   4.632
 5260TIP3    H215745   4.810   0.954   4.578
 5261TIP3   OH215746   6.289   3.337   4.233
 5261TIP3    H115747   6.331   3.269   4.285
 5261TIP3    H215748   6.198   3.309   4.226
 5262TIP3   OH215749   2.465   3.120   5.820
 5262TIP3    H115750   2.536   3.083   5.768
 5262TIP3    H215751   2.393   3.058   5.810
 5263TIP3   OH215752   5.411   5.519   4.271
 5263TIP3    H115753   5.355   5.551   4.342
 5263TIP3    H215754   5.369   5.551   4.191
 5264TIP3   OH215755   1.215   4.087   2.201
 5264TIP3    H115756   1.243   4.038   2.124
 5264TIP3    H215757   1.120   4.098   2.189
 5265TIP3   OH215758   3.698   1.429   4.967
 5265TIP3    H115759   3.668   1.507   5.014
 5265TIP3    H215760   3.715   1.365   5.036
 5266TIP3   OH215761   4.953   5.423   0.059
 5266TIP3    H115762   4.913   5.434  -0.027
 5266TIP3    H215763   5.047   5.434   0.044
 5267TIP3   OH215764   6.158   3.693   5.144
 5267TIP3    H115765   6.141   3.603   5.175
 5267TIP3    H215766   6.086   3.712   5.085
 5268TIP3   OH215767   5.096   2.271   3.192
 5268TIP3    H115768   5.170   2.303   3.141
 5268TIP3    H215769   5.125   2.185   3.223
 5269TIP3   OH215770   1.903   6.283   4.707
 5269TIP3    H115771   1.977   6.314   4.758
 5269TIP3    H215772   1.899   6.343   4.632
 5270TIP3   OH215773   3.620   5.255   1.419
 5270TIP3    H115774   3.648   5.346   1.432
 5270TIP3    H215775   3.527   5.256   1.441
 5271TIP3   OH215776   4.406   2.101   4.581
 5271TIP3    H115777   4.433   2.163   4.649
 5271TIP3    H215778   4.451   2.131   4.502
 5272TIP3   OH215779   5.238   2.614   5.525
 5272TIP3    H115780   5.157   2.564   5.536
 5272TIP3    H215781   5.259   2.645   5.613
 5273TIP3   OH215782   1.114   6.147   1.923
 5273TIP3    H115783   1.174   6.140   1.849
 5273TIP3    H215784   1.090   6.056   1.943
 5274TIP3   OH215785   0.449   2.120   0.520
 5274TIP3    H115786   0.487   2.203   0.490
 5274TIP3    H215787   0.423   2.137   0.610
 5275TIP3   OH215788   0.720   6.657   0.619
 5275TIP3    H115789   0.770   6.587   0.577
 5275TIP3    H215790   0.777   6.689   0.688
 5276TIP3   OH215791   0.305   2.703   4.388
 5276TIP3    H115792   0.337   2.736   4.472
 5276TIP3    H215793   0.368   2.635   4.364
 5277TIP3   OH215794   3.328   5.694   4.854
 5277TIP3    H115795   3.271   5.708   4.779
 5277TIP3    H215796   3.411   5.737   4.831
 5278TIP3   OH215797   4.057   0.065   2.998
 5278TIP3    H115798   4.141   0.081   3.042
 5278TIP3    H215799   4.064  -0.025   2.967
 5279TIP3   OH215800   3.846   1.143   1.436
 5279TIP3    H115801   3.906   1.091   1.489
 5279TIP3    H215802   3.883   1.140   1.348
 5280TIP3   OH215803   3.068   5.386   3.750
 5280TIP3    H115804   3.096   5.401   3.660
 5280TIP3    H215805   3.108   5.458   3.799
 5281TIP3   OH215806   6.491   4.612   4.843
 5281TIP3    H115807   6.566   4.562   4.873
 5281TIP3    H215808   6.527   4.695   4.811
 5282TIP3   OH215809   5.432   3.351   3.269
 5282TIP3    H115810   5.502   3.382   3.212
 5282TIP3    H215811   5.362   3.416   3.261
 5283TIP3   OH215812   3.108   4.723   2.139
 5283TIP3    H115813   3.018   4.706   2.167
 5283TIP3    H215814   3.102   4.733   2.044
 5284TIP3   OH215815   5.797   4.739   4.866
 5284TIP3    H115816   5.810   4.812   4.806
 5284TIP3    H215817   5.705   4.713   4.852
 5285TIP3   OH215818   4.609   0.942   0.365
 5285TIP3    H115819   4.564   0.939   0.280
 5285TIP3    H215820   4.542   0.914   0.428
 5286TIP3   OH215821   2.394   0.931   4.342
 5286TIP3    H115822   2.455   0.912   4.413
 5286TIP3    H215823   2.313   0.888   4.367
 5287TIP3   OH215824   1.005   5.800   3.572
 5287TIP3    H115825   1.096   5.771   3.576
 5287TIP3    H215826   1.008   5.892   3.599
 5288TIP3   OH215827   6.568   5.210   5.035
 5288TIP3    H115828   6.504   5.280   5.021
 5288TIP3    H215829   6.647   5.241   4.991
 5289TIP3   OH215830   2.496   3.202   2.339
 5289TIP3    H115831   2.513   3.108   2.331
 5289TIP3    H215832   2.522   3.239   2.255
 5290TIP3   OH215833   2.686   1.744   2.788
 5290TIP3    H115834   2.596   1.743   2.757
 5290TIP3    H215835   2.679   1.740   2.884
 5291TIP3   OH215836   3.382   0.612   4.760
 5291TIP3    H115837   3.358   0.536   4.813
 5291TIP3    H215838   3.467   0.640   4.795
 5292TIP3   OH215839   3.574   3.162   4.506
 5292TIP3    H115840   3.514   3.123   4.570
 5292TIP3    H215841   3.579   3.098   4.436
 5293TIP3   OH215842   2.154   3.214   1.644
 5293TIP3    H115843   2.235   3.261   1.663
 5293TIP3    H215844   2.096   3.280   1.606
 5294TIP3   OH215845   2.170   2.987   1.267
 5294TIP3    H115846   2.130   3.022   1.347
 5294TIP3    H215847   2.215   2.908   1.295
 5295TIP3   OH215848   2.427   2.722   5.815
 5295TIP3    H115849   2.487   2.776   5.867
 5295TIP3    H215850   2.342   2.765   5.824
 5296TIP3   OH215851   4.914   1.326   2.171
 5296TIP3    H115852   4.824   1.302   2.146
 5296TIP3    H215853   4.911   1.422   2.180
 5297TIP3   OH215854   1.185   0.644   4.089
 5297TIP3    H115855   1.263   0.627   4.036
 5297TIP3    H215856   1.179   0.739   4.093
 5298TIP3   OH215857   3.796   4.927   5.864
 5298TIP3    H115858   3.800   4.873   5.784
 5298TIP3    H215859   3.729   4.993   5.845
 5299TIP3   OH215860   6.102   2.440   4.459
 5299TIP3    H115861   6.190   2.432   4.497
 5299TIP3    H215862   6.064   2.516   4.501
 5300TIP3   OH215863   3.446   2.810   4.415
 5300TIP3    H115864   3.451   2.718   4.388
 5300TIP3    H215865   3.515   2.819   4.481
 5301TIP3   OH215866   0.022   4.612   4.907
 5301TIP3    H115867   0.063   4.544   4.853
 5301TIP3    H215868  -0.071   4.590   4.906
 5302TIP3   OH215869   1.237   2.701   3.862
 5302TIP3    H115870   1.255   2.649   3.940
 5302TIP3    H215871   1.143   2.689   3.847
 5303TIP3   OH215872   4.889   1.718   1.708
 5303TIP3    H115873   4.962   1.666   1.740
 5303TIP3    H215874   4.866   1.776   1.781
 5304TIP3   OH215875   7.193   5.076   3.608
 5304TIP3    H115876   7.255   5.030   3.551
 5304TIP3    H215877   7.170   5.155   3.560
 5305TIP3   OH215878   2.423   5.835   3.640
 5305TIP3    H115879   2.409   5.914   3.691
 5305TIP3    H215880   2.499   5.793   3.681
 5306TIP3   OH215881   0.417   0.451   4.416
 5306TIP3    H115882   0.418   0.359   4.441
 5306TIP3    H215883   0.324   0.470   4.399
 5307TIP3   OH215884   5.384   2.997   5.577
 5307TIP3    H115885   5.378   2.922   5.636
 5307TIP3    H215886   5.335   3.067   5.621
 5308TIP3   OH215887   6.483   0.913   5.806
 5308TIP3    H115888   6.514   1.000   5.832
 5308TIP3    H215889   6.389   0.923   5.796
 5309TIP3   OH215890   1.581   4.677   1.832
 5309TIP3    H115891   1.522   4.743   1.869
 5309TIP3    H215892   1.539   4.651   1.750
 5310TIP3   OH215893   2.788   6.602   3.826
 5310TIP3    H115894   2.731   6.538   3.869
 5310TIP3    H215895   2.735   6.636   3.754
 5311TIP3   OH215896   0.808   4.063   3.535
 5311TIP3    H115897   0.851   4.003   3.597
 5311TIP3    H215898   0.868   4.068   3.461
 5312TIP3   OH215899  -0.057   4.138   1.048
 5312TIP3    H115900  -0.106   4.145   0.966
 5312TIP3    H215901   0.018   4.196   1.036
 5313TIP3   OH215902   6.641   1.084   0.782
 5313TIP3    H115903   6.704   1.096   0.712
 5313TIP3    H215904   6.658   1.156   0.843
 5314TIP3   OH215905   4.468   6.301   2.405
 5314TIP3    H115906   4.499   6.210   2.398
 5314TIP3    H215907   4.545   6.349   2.436
 5315TIP3   OH215908   6.961   5.339   1.476
 5315TIP3    H115909   6.912   5.402   1.424
 5315TIP3    H215910   7.041   5.385   1.501
 5316TIP3   OH215911   5.655   4.199   0.629
 5316TIP3    H115912   5.625   4.286   0.653
 5316TIP3    H215913   5.743   4.191   0.667
 5317TIP3   OH215914   0.597   2.405   1.250
 5317TIP3    H115915   0.573   2.372   1.163
 5317TIP3    H215916   0.517   2.396   1.302
 5318TIP3   OH215917   3.650   2.828   5.124
 5318TIP3    H115918   3.604   2.857   5.046
 5318TIP3    H215919   3.623   2.890   5.192
 5319TIP3   OH215920   1.376   3.935   4.721
 5319TIP3    H115921   1.281   3.923   4.712
 5319TIP3    H215922   1.405   3.968   4.636
 5320TIP3   OH215923   1.218   1.023   4.944
 5320TIP3    H115924   1.285   1.031   4.875
 5320TIP3    H215925   1.139   1.057   4.904
 5321TIP3   OH215926   6.185   5.924   3.020
 5321TIP3    H115927   6.101   5.902   3.062
 5321TIP3    H215928   6.250   5.907   3.088
 5322TIP3   OH215929   1.839   3.340   2.291
 5322TIP3    H115930   1.931   3.366   2.292
 5322TIP3    H215931   1.835   3.270   2.225
 5323TIP3   OH215932   1.250   5.935   3.300
 5323TIP3    H115933   1.281   6.014   3.257
 5323TIP3    H215934   1.325   5.904   3.350
 5324TIP3   OH215935   6.236   3.698   0.038
 5324TIP3    H115936   6.225   3.741  -0.047
 5324TIP3    H215937   6.150   3.703   0.079
 5325TIP3   OH215938   4.483   4.531   3.879
 5325TIP3    H115939   4.515   4.443   3.896
 5325TIP3    H215940   4.389   4.521   3.867
 5326TIP3   OH215941   1.121   2.840   1.277
 5326TIP3    H115942   1.086   2.760   1.237
 5326TIP3    H215943   1.118   2.822   1.371
 5327TIP3   OH215944   2.678   6.051   3.908
 5327TIP3    H115945   2.722   6.098   3.979
 5327TIP3    H215946   2.745   5.993   3.873
 5328TIP3   OH215947   0.319   3.790   3.601
 5328TIP3    H115948   0.294   3.879   3.576
 5328TIP3    H215949   0.330   3.743   3.518
 5329TIP3   OH215950   3.224   4.226   4.056
 5329TIP3    H115951   3.138   4.264   4.037
 5329TIP3    H215952   3.208   4.132   4.062
 5330TIP3   OH215953   6.222   6.577   4.377
 5330TIP3    H115954   6.285   6.589   4.306
 5330TIP3    H215955   6.225   6.660   4.426
 5331TIP3   OH215956   2.834   2.484   5.509
 5331TIP3    H115957   2.743   2.489   5.480
 5331TIP3    H215958   2.884   2.524   5.437
 5332TIP3   OH215959   1.590   1.797   2.598
 5332TIP3    H115960   1.595   1.717   2.651
 5332TIP3    H215961   1.544   1.770   2.519
 5333TIP3   OH215962   5.712   0.024   3.938
 5333TIP3    H115963   5.738   0.046   4.027
 5333TIP3    H215964   5.619   0.044   3.935
 5334TIP3   OH215965   2.027   3.026   1.487
 5334TIP3    H115966   1.986   2.952   1.532
 5334TIP3    H215967   2.033   3.095   1.554
 5335TIP3   OH215968   2.616   1.697   0.825
 5335TIP3    H115969   2.555   1.623   0.829
 5335TIP3    H215970   2.622   1.728   0.915
 5336TIP3   OH215971   5.632   1.909   4.000
 5336TIP3    H115972   5.675   1.893   4.084
 5336TIP3    H215973   5.563   1.843   3.996
 5337TIP3   OH215974   6.431   6.403   2.550
 5337TIP3    H115975   6.472   6.408   2.637
 5337TIP3    H215976   6.441   6.491   2.514
 5338TIP3   OH215977   0.376   0.685   0.569
 5338TIP3    H115978   0.464   0.689   0.532
 5338TIP3    H215979   0.362   0.592   0.589
 5339TIP3   OH215980   6.928   5.078   3.328
 5339TIP3    H115981   7.014   5.053   3.293
 5339TIP3    H215982   6.914   5.167   3.297
 5340TIP3   OH215983   2.199   5.338   5.786
 5340TIP3    H115984   2.223   5.393   5.861
 5340TIP3    H215985   2.281   5.298   5.758
 5341TIP3   OH215986   5.717   3.330   3.438
 5341TIP3    H115987   5.748   3.272   3.507
 5341TIP3    H215988   5.696   3.273   3.365
 5342TIP3   OH215989   5.733   6.587   4.329
 5342TIP3    H115990   5.646   6.606   4.293
 5342TIP3    H215991   5.767   6.516   4.275
 5343TIP3   OH215992   2.104   0.201   3.295
 5343TIP3    H115993   2.193   0.164   3.295
 5343TIP3    H215994   2.116   0.291   3.327
 5344TIP3   OH215995   2.484   1.967   4.228
 5344TIP3    H115996   2.505   1.978   4.136
 5344TIP3    H215997   2.392   1.994   4.236
 5345TIP3   OH215998   2.376   0.691   4.058
 5345TIP3    H115999   2.285   0.715   4.043
 5345TIP3    H216000   2.372   0.627   4.129
 5346TIP3   OH216001   2.756   5.577   3.485
 5346TIP3    H116002   2.775   5.550   3.396
 5346TIP3    H216003   2.745   5.495   3.533
 5347TIP3   OH216004   0.578   0.430   2.273
 5347TIP3    H116005   0.545   0.518   2.257
 5347TIP3    H216006   0.673   0.440   2.277
 5348TIP3   OH216007   2.942   4.693   5.078
 5348TIP3    H116008   2.985   4.629   5.135
 5348TIP3    H216009   2.937   4.649   4.992
 5349TIP3   OH216010   1.024   6.028   2.962
 5349TIP3    H116011   0.938   6.069   2.965
 5349TIP3    H216012   1.006   5.934   2.964
 5350TIP3   OH216013   6.116   1.641   4.241
 5350TIP3    H116014   6.064   1.653   4.320
 5350TIP3    H216015   6.100   1.550   4.215
 5351TIP3   OH216016   4.011   2.612   2.225
 5351TIP3    H116017   3.958   2.577   2.296
 5351TIP3    H216018   4.023   2.705   2.247
 5352TIP3   OH216019   1.839   1.441   2.640
 5352TIP3    H116020   1.905   1.468   2.703
 5352TIP3    H216021   1.841   1.345   2.643
 5353TIP3   OH216022   2.777   0.484   2.428
 5353TIP3    H116023   2.838   0.516   2.362
 5353TIP3    H216024   2.725   0.418   2.382
 5354TIP3   OH216025   0.751   3.849   0.566
 5354TIP3    H116026   0.706   3.907   0.627
 5354TIP3    H216027   0.824   3.901   0.533
 5355TIP3   OH216028   6.688   2.084   1.067
 5355TIP3    H116029   6.667   2.089   0.974
 5355TIP3    H216030   6.625   2.021   1.102
 5356TIP3   OH216031   6.194   3.370   2.169
 5356TIP3    H116032   6.260   3.301   2.172
 5356TIP3    H216033   6.236   3.442   2.123
 5357TIP3   OH216034   5.828   0.632   4.827
 5357TIP3    H116035   5.763   0.701   4.843
 5357TIP3    H216036   5.911   0.672   4.854
 5358TIP3   OH216037   6.041   0.755   5.490
 5358TIP3    H116038   6.024   0.695   5.417
 5358TIP3    H216039   6.041   0.698   5.568
 5359TIP3   OH216040   5.509   3.617   1.372
 5359TIP3    H116041   5.447   3.678   1.413
 5359TIP3    H216042   5.518   3.650   1.282
 5360TIP3   OH216043   6.898   2.587   0.572
 5360TIP3    H116044   6.883   2.588   0.478
 5360TIP3    H216045   6.815   2.618   0.609
 5361TIP3   OH216046   4.489   5.144   4.747
 5361TIP3    H116047   4.429   5.211   4.713
 5361TIP3    H216048   4.488   5.075   4.681
 5362TIP3   OH216049   2.802   4.831   3.614
 5362TIP3    H116050   2.843   4.865   3.694
 5362TIP3    H216051   2.761   4.749   3.642
 5363TIP3   OH216052   2.307   1.686   4.678
 5363TIP3    H116053   2.232   1.710   4.733
 5363TIP3    H216054   2.368   1.760   4.687
 5364TIP3   OH216055   4.145   5.700   3.835
 5364TIP3    H116056   4.205   5.699   3.909
 5364TIP3    H216057   4.109   5.789   3.834
 5365TIP3   OH216058   5.058   4.267   0.741
 5365TIP3    H116059   4.970   4.299   0.761
 5365TIP3    H216060   5.052   4.172   0.748
 5366TIP3   OH216061   4.001   1.552   0.735
 5366TIP3    H116062   3.948   1.573   0.813
 5366TIP3    H216063   3.992   1.458   0.724
 5367TIP3   OH216064   0.712   6.089   5.750
 5367TIP3    H116065   0.688   6.093   5.658
 5367TIP3    H216066   0.734   5.997   5.765
 5368TIP3   OH216067   6.514   6.311   4.348
 5368TIP3    H116068   6.499   6.294   4.255
 5368TIP3    H216069   6.459   6.246   4.393
 5369TIP3   OH216070   1.489   4.712   0.359
 5369TIP3    H116071   1.421   4.701   0.292
 5369TIP3    H216072   1.567   4.737   0.309
 5370TIP3   OH216073   1.010   1.281   0.836
 5370TIP3    H116074   1.075   1.236   0.891
 5370TIP3    H216075   1.061   1.349   0.792
 5371TIP3   OH216076   1.328   1.716   0.816
 5371TIP3    H116077   1.325   1.695   0.722
 5371TIP3    H216078   1.328   1.812   0.818
 5372TIP3   OH216079   4.263   3.842   2.934
 5372TIP3    H116080   4.338   3.889   2.971
 5372TIP3    H216081   4.194   3.852   2.999
 5373TIP3   OH216082   5.188   1.699   2.897
 5373TIP3    H116083   5.108   1.658   2.928
 5373TIP3    H216084   5.160   1.755   2.824
 5374TIP3   OH216085   3.957   4.807   0.175
 5374TIP3    H116086   3.920   4.810   0.087
 5374TIP3    H216087   4.015   4.731   0.174
 5375TIP3   OH216088   1.491   5.060   3.651
 5375TIP3    H116089   1.502   5.043   3.744
 5375TIP3    H216090   1.443   4.985   3.618
 5376TIP3   OH216091   6.749   5.630   0.380
 5376TIP3    H116092   6.802   5.595   0.308
 5376TIP3    H216093   6.757   5.725   0.372
 5377TIP3   OH216094   5.691   0.069   4.598
 5377TIP3    H116095   5.727   0.043   4.513
 5377TIP3    H216096   5.738   0.015   4.662
 5378TIP3   OH216097   7.136   4.556   3.245
 5378TIP3    H116098   7.211   4.497   3.250
 5378TIP3    H216099   7.159   4.628   3.304
 5379TIP3   OH216100   4.779   0.429   0.993
 5379TIP3    H116101   4.711   0.467   0.936
 5379TIP3    H216102   4.826   0.368   0.936
 5380TIP3   OH216103   0.307   0.400   3.247
 5380TIP3    H116104   0.294   0.465   3.315
 5380TIP3    H216105   0.401   0.401   3.230
 5381TIP3   OH216106   1.541   5.336   4.815
 5381TIP3    H116107   1.479   5.284   4.865
 5381TIP3    H216108   1.514   5.426   4.829
 5382TIP3   OH216109   7.038   5.809   2.787
 5382TIP3    H116110   7.002   5.873   2.726
 5382TIP3    H216111   7.018   5.724   2.747
 5383TIP3   OH216112   6.894   1.391   0.615
 5383TIP3    H116113   6.927   1.441   0.691
 5383TIP3    H216114   6.809   1.431   0.597
 5384TIP3   OH216115   5.916   1.604   0.149
 5384TIP3    H116116   5.989   1.617   0.089
 5384TIP3    H216117   5.841   1.642   0.102
 5385TIP3   OH216118   1.344   1.855   1.341
 5385TIP3    H116119   1.279   1.905   1.390
 5385TIP3    H216120   1.406   1.921   1.309
 5386TIP3   OH216121   5.169   3.144   2.736
 5386TIP3    H116122   5.104   3.156   2.805
 5386TIP3    H216123   5.118   3.141   2.655
 5387TIP3   OH216124   6.556   1.742   4.482
 5387TIP3    H116125   6.567   1.701   4.568
 5387TIP3    H216126   6.488   1.808   4.496
 5388TIP3   OH216127   0.479   3.986   4.113
 5388TIP3    H116128   0.490   3.903   4.066
 5388TIP3    H216129   0.533   3.977   4.191
 5389TIP3   OH216130   1.015   6.783   3.518
 5389TIP3    H116131   1.052   6.748   3.599
 5389TIP3    H216132   0.969   6.863   3.545
 5390TIP3   OH216133   2.353   2.142   4.530
 5390TIP3    H116134   2.258   2.145   4.532
 5390TIP3    H216135   2.376   2.057   4.567
 5391TIP3   OH216136   1.150   6.595   1.675
 5391TIP3    H116137   1.236   6.595   1.718
 5391TIP3    H216138   1.089   6.567   1.744
 5392TIP3   OH216139   5.269   2.508   3.486
 5392TIP3    H116140   5.276   2.415   3.464
 5392TIP3    H216141   5.315   2.517   3.569
 5393TIP3   OH216142   3.669   6.253   4.362
 5393TIP3    H116143   3.722   6.192   4.412
 5393TIP3    H216144   3.720   6.334   4.361
 5394TIP3   OH216145   6.354   4.476   5.706
 5394TIP3    H116146   6.397   4.390   5.701
 5394TIP3    H216147   6.327   4.495   5.617
 5395TIP3   OH216148   3.951   5.559   0.507
 5395TIP3    H116149   4.035   5.533   0.543
 5395TIP3    H216150   3.919   5.627   0.566
 5396TIP3   OH216151   2.066   5.407   3.296
 5396TIP3    H116152   2.039   5.342   3.231
 5396TIP3    H216153   1.985   5.428   3.343
 5397TIP3   OH216154   4.491   2.339   4.450
 5397TIP3    H116155   4.439   2.290   4.386
 5397TIP3    H216156   4.437   2.415   4.472
 5398TIP3   OH216157   6.682   6.225   3.402
 5398TIP3    H116158   6.682   6.320   3.412
 5398TIP3    H216159   6.762   6.206   3.353
 5399TIP3   OH216160   4.799   3.216   0.330
 5399TIP3    H116161   4.890   3.191   0.317
 5399TIP3    H216162   4.803   3.301   0.374
 5400TIP3   OH216163   0.024   6.327   2.602
 5400TIP3    H116164  -0.026   6.336   2.683
 5400TIP3    H216165   0.114   6.342   2.628
 5401TIP3   OH216166   1.400   2.851   0.608
 5401TIP3    H116167   1.432   2.881   0.693
 5401TIP3    H216168   1.479   2.819   0.564
 5402TIP3   OH216169   5.725   1.050   4.558
 5402TIP3    H116170   5.709   0.968   4.605
 5402TIP3    H216171   5.694   1.034   4.469
 5403TIP3   OH216172   2.781   3.371   5.314
 5403TIP3    H116173   2.843   3.339   5.249
 5403TIP3    H216174   2.699   3.326   5.293
 5404TIP3   OH216175   7.007   4.757   3.089
 5404TIP3    H116176   6.933   4.792   3.137
 5404TIP3    H216177   7.034   4.679   3.138
 5405TIP3   OH216178   6.309   0.413   0.771
 5405TIP3    H116179   6.318   0.329   0.726
 5405TIP3    H216180   6.399   0.442   0.786
 5406TIP3   OH216181   2.720   1.521   3.243
 5406TIP3    H116182   2.793   1.516   3.304
 5406TIP3    H216183   2.743   1.461   3.173
 5407TIP3   OH216184   0.276   6.425   2.300
 5407TIP3    H116185   0.292   6.511   2.263
 5407TIP3    H216186   0.182   6.423   2.317
 5408TIP3   OH216187   5.879   5.770   3.890
 5408TIP3    H116188   5.959   5.821   3.898
 5408TIP3    H216189   5.825   5.796   3.965
 5409TIP3   OH216190   2.239   6.034   3.749
 5409TIP3    H116191   2.172   6.018   3.682
 5409TIP3    H216192   2.224   6.124   3.777
 5410TIP3   OH216193   1.619   5.934   0.882
 5410TIP3    H116194   1.702   5.977   0.903
 5410TIP3    H216195   1.643   5.867   0.818
 5411TIP3   OH216196   5.951   2.313   1.994
 5411TIP3    H116197   6.015   2.323   2.065
 5411TIP3    H216198   5.897   2.239   2.022
 5412TIP3   OH216199   1.880   0.423   3.488
 5412TIP3    H116200   1.875   0.336   3.529
 5412TIP3    H216201   1.863   0.484   3.560
 5413TIP3   OH216202   3.608   0.392   0.408
 5413TIP3    H116203   3.656   0.318   0.445
 5413TIP3    H216204   3.675   0.447   0.369
 5414TIP3   OH216205   5.450   1.209   2.807
 5414TIP3    H116206   5.426   1.284   2.862
 5414TIP3    H216207   5.476   1.141   2.870
 5415TIP3   OH216208   2.260   4.332   0.954
 5415TIP3    H116209   2.332   4.392   0.934
 5415TIP3    H216210   2.231   4.358   1.042
 5416TIP3   OH216211   5.875   6.265   1.060
 5416TIP3    H116212   5.903   6.203   1.127
 5416TIP3    H216213   5.940   6.256   0.990
 5417TIP3   OH216214   3.894   4.313   0.731
 5417TIP3    H116215   3.977   4.332   0.775
 5417TIP3    H216216   3.891   4.217   0.726
 5418TIP3   OH216217   7.127   3.410   3.994
 5418TIP3    H116218   7.221   3.431   3.986
 5418TIP3    H216219   7.092   3.480   4.049
 5419TIP3   OH216220   6.829   3.871   1.751
 5419TIP3    H116221   6.921   3.898   1.761
 5419TIP3    H216222   6.829   3.778   1.771
 5420TIP3   OH216223   4.896   5.030   4.417
 5420TIP3    H116224   4.877   5.039   4.324
 5420TIP3    H216225   4.907   5.120   4.448
 5421TIP3   OH216226   0.963   3.667   4.569
 5421TIP3    H116227   1.011   3.749   4.555
 5421TIP3    H216228   0.988   3.640   4.657
 5422TIP3   OH216229   6.759   5.107   3.536
 5422TIP3    H116230   6.717   5.022   3.549
 5422TIP3    H216231   6.829   5.090   3.473
 5423TIP3   OH216232   6.746   6.140   1.328
 5423TIP3    H116233   6.773   6.058   1.368
 5423TIP3    H216234   6.762   6.206   1.395
 5424TIP3   OH216235   4.962   1.107   2.647
 5424TIP3    H116236   4.929   1.181   2.595
 5424TIP3    H216237   5.048   1.089   2.610
 5425TIP3   OH216238   4.462   3.663   4.585
 5425TIP3    H116239   4.432   3.602   4.518
 5425TIP3    H216240   4.381   3.694   4.626
 5426TIP3   OH216241   0.881   5.099   0.049
 5426TIP3    H116242   0.918   5.186   0.032
 5426TIP3    H216243   0.946   5.056   0.105
 5427TIP3   OH216244   3.980   0.003   0.738
 5427TIP3    H116245   3.886   0.018   0.752
 5427TIP3    H216246   3.982  -0.067   0.672
 5428TIP3   OH216247   3.336   5.961   1.666
 5428TIP3    H116248   3.310   6.015   1.592
 5428TIP3    H216249   3.313   5.872   1.641
 5429TIP3   OH216250   2.129   1.456   0.647
 5429TIP3    H116251   2.110   1.475   0.555
 5429TIP3    H216252   2.080   1.522   0.695
 5430TIP3   OH216253   4.944   3.597   3.529
 5430TIP3    H116254   5.035   3.590   3.559
 5430TIP3    H216255   4.940   3.540   3.452
 5431TIP3   OH216256   4.937   3.774   4.027
 5431TIP3    H116257   4.894   3.692   4.052
 5431TIP3    H216258   5.008   3.784   4.090
 5432TIP3   OH216259   7.121   4.960   1.150
 5432TIP3    H116260   7.097   4.877   1.190
 5432TIP3    H216261   7.105   5.025   1.219
 5433TIP3   OH216262   5.196   1.199   1.132
 5433TIP3    H116263   5.112   1.167   1.101
 5433TIP3    H216264   5.261   1.148   1.083
 5434TIP3   OH216265   2.507   5.658   2.764
 5434TIP3    H116266   2.562   5.691   2.835
 5434TIP3    H216267   2.564   5.660   2.686
 5435TIP3   OH216268   5.339   5.732   0.828
 5435TIP3    H116269   5.321   5.825   0.841
 5435TIP3    H216270   5.392   5.706   0.903
 5436TIP3   OH216271   4.396   5.044   3.073
 5436TIP3    H116272   4.388   4.950   3.055
 5436TIP3    H216273   4.464   5.074   3.014
 5437TIP3   OH216274   5.033   6.212   0.705
 5437TIP3    H116275   5.123   6.193   0.678
 5437TIP3    H216276   4.989   6.237   0.623
 5438TIP3   OH216277   6.283   0.015   5.237
 5438TIP3    H116278   6.372  -0.016   5.221
 5438TIP3    H216279   6.239  -0.059   5.280
 5439TIP3   OH216280   6.576   0.083   2.753
 5439TIP3    H116281   6.661   0.093   2.711
 5439TIP3    H216282   6.574   0.152   2.819
 5440TIP3   OH216283   5.504   5.616   1.288
 5440TIP3    H116284   5.469   5.681   1.227
 5440TIP3    H216285   5.596   5.640   1.299
 5441TIP3   OH216286   1.550   0.216   2.685
 5441TIP3    H116287   1.460   0.246   2.673
 5441TIP3    H216288   1.543   0.121   2.693
 5442TIP3   OH216289   3.723   1.722   0.680
 5442TIP3    H116290   3.720   1.629   0.660
 5442TIP3    H216291   3.706   1.727   0.774
 5443TIP3   OH216292   0.481   1.054   3.196
 5443TIP3    H116293   0.522   1.078   3.279
 5443TIP3    H216294   0.521   1.112   3.131
 5444TIP3   OH216295   4.667   6.250   3.839
 5444TIP3    H116296   4.592   6.220   3.788
 5444TIP3    H216297   4.700   6.326   3.790
 5445TIP3   OH216298   4.206   5.316   3.219
 5445TIP3    H116299   4.273   5.381   3.244
 5445TIP3    H216300   4.226   5.296   3.127
 5446TIP3   OH216301   5.954   6.722   0.263
 5446TIP3    H116302   5.879   6.668   0.239
 5446TIP3    H216303   6.030   6.675   0.226
 5447TIP3   OH216304   0.843   1.481   4.357
 5447TIP3    H116305   0.795   1.545   4.410
 5447TIP3    H216306   0.847   1.403   4.413
 5448TIP3   OH216307   5.958   4.469   4.106
 5448TIP3    H116308   5.920   4.494   4.191
 5448TIP3    H216309   5.998   4.549   4.073
 5449TIP3   OH216310   0.355   5.295   1.683
 5449TIP3    H116311   0.338   5.223   1.744
 5449TIP3    H216312   0.405   5.255   1.612
 5450TIP3   OH216313   4.459   2.539   0.966
 5450TIP3    H116314   4.480   2.623   0.926
 5450TIP3    H216315   4.542   2.509   1.005
 5451TIP3   OH216316   0.678   2.464   1.522
 5451TIP3    H116317   0.633   2.382   1.545
 5451TIP3    H216318   0.641   2.487   1.436
 5452TIP3   OH216319   0.868   2.535   4.760
 5452TIP3    H116320   0.777   2.553   4.739
 5452TIP3    H216321   0.916   2.557   4.680
 5453TIP3   OH216322   2.666   1.028   1.345
 5453TIP3    H116323   2.578   1.014   1.310
 5453TIP3    H216324   2.654   1.079   1.424
 5454TIP3   OH216325   6.045   2.211   1.663
 5454TIP3    H116326   6.002   2.281   1.713
 5454TIP3    H216327   5.976   2.146   1.649
 5455TIP3   OH216328   1.127   0.966   3.788
 5455TIP3    H116329   1.144   0.970   3.882
 5455TIP3    H216330   1.074   0.887   3.776
 5456TIP3   OH216331   5.348   6.734   4.398
 5456TIP3    H116332   5.422   6.762   4.452
 5456TIP3    H216333   5.355   6.639   4.394
 5457TIP3   OH216334   7.087   6.318   0.355
 5457TIP3    H116335   7.035   6.395   0.328
 5457TIP3    H216336   7.035   6.277   0.424
 5458TIP3   OH216337   0.988   3.563   2.834
 5458TIP3    H116338   0.896   3.540   2.820
 5458TIP3    H216339   0.999   3.560   2.929
 5459TIP3   OH216340   0.255   3.134   4.639
 5459TIP3    H116341   0.334   3.185   4.657
 5459TIP3    H216342   0.212   3.125   4.724
 5460TIP3   OH216343   1.650   3.624   5.771
 5460TIP3    H116344   1.573   3.658   5.727
 5460TIP3    H216345   1.718   3.689   5.754
 5461TIP3   OH216346   6.885   3.171   3.407
 5461TIP3    H116347   6.954   3.183   3.342
 5461TIP3    H216348   6.875   3.256   3.449
 5462TIP3   OH216349   5.173   3.256   3.173
 5462TIP3    H116350   5.268   3.255   3.182
 5462TIP3    H216351   5.143   3.177   3.218
 5463TIP3   OH216352   7.109   2.510   1.327
 5463TIP3    H116353   7.063   2.503   1.411
 5463TIP3    H216354   7.201   2.495   1.348
 5464TIP3   OH216355   7.102   5.209   2.034
 5464TIP3    H116356   7.032   5.163   1.988
 5464TIP3    H216357   7.129   5.148   2.103
 5465TIP3   OH216358   0.801   5.584   3.584
 5465TIP3    H116359   0.866   5.645   3.548
 5465TIP3    H216360   0.853   5.522   3.635
 5466TIP3   OH216361   6.273   5.779   3.726
 5466TIP3    H116362   6.225   5.697   3.715
 5466TIP3    H216363   6.318   5.769   3.810
 5467TIP3   OH216364   0.845   0.207   5.027
 5467TIP3    H116365   0.811   0.257   5.101
 5467TIP3    H216366   0.849   0.271   4.955
 5468TIP3   OH216367   2.257   2.940   5.867
 5468TIP3    H116368   2.233   3.016   5.920
 5468TIP3    H216369   2.190   2.875   5.889
 5469TIP3   OH216370   5.290   3.626   4.012
 5469TIP3    H116371   5.211   3.639   4.065
 5469TIP3    H216372   5.362   3.654   4.068
 5470TIP3   OH216373   3.380   0.368   1.929
 5470TIP3    H116374   3.286   0.384   1.938
 5470TIP3    H216375   3.390   0.274   1.941
 5471TIP3   OH216376   4.271   6.371   1.095
 5471TIP3    H116377   4.236   6.426   1.025
 5471TIP3    H216378   4.272   6.427   1.172
 5472TIP3   OH216379   6.693   4.736   4.365
 5472TIP3    H116380   6.655   4.677   4.430
 5472TIP3    H216381   6.694   4.822   4.408
 5473TIP3   OH216382   1.755   6.386   2.726
 5473TIP3    H116383   1.704   6.322   2.676
 5473TIP3    H216384   1.744   6.469   2.679
 5474TIP3   OH216385   2.452   4.736   5.337
 5474TIP3    H116386   2.367   4.697   5.355
 5474TIP3    H216387   2.442   4.778   5.252
 5475TIP3   OH216388   6.731   5.967   4.244
 5475TIP3    H116389   6.769   6.008   4.167
 5475TIP3    H216390   6.805   5.953   4.303
 5476TIP3   OH216391   4.417   1.783   2.661
 5476TIP3    H116392   4.331   1.783   2.619
 5476TIP3    H216393   4.429   1.693   2.692
 5477TIP3   OH216394   6.865   3.757   3.592
 5477TIP3    H116395   6.872   3.704   3.671
 5477TIP3    H216396   6.941   3.733   3.539
 5478TIP3   OH216397   7.138   5.009   3.171
 5478TIP3    H116398   7.232   5.020   3.161
 5478TIP3    H216399   7.121   4.917   3.154
 5479TIP3   OH216400   1.811   5.278   3.161
 5479TIP3    H116401   1.809   5.308   3.252
 5479TIP3    H216402   1.726   5.237   3.147
 5480TIP3   OH216403   0.624   1.987   2.208
 5480TIP3    H116404   0.628   1.899   2.172
 5480TIP3    H216405   0.534   2.016   2.191
 5481TIP3   OH216406   0.516   3.374   0.587
 5481TIP3    H116407   0.608   3.374   0.611
 5481TIP3    H216408   0.480   3.296   0.629
 5482TIP3   OH216409   4.339   5.370   3.882
 5482TIP3    H116410   4.403   5.401   3.946
 5482TIP3    H216411   4.293   5.299   3.927
 5483TIP3   OH216412   4.184   1.350   3.492
 5483TIP3    H116413   4.189   1.445   3.494
 5483TIP3    H216414   4.230   1.325   3.413
 5484TIP3   OH216415   6.479   1.163   4.672
 5484TIP3    H116416   6.398   1.135   4.630
 5484TIP3    H216417   6.505   1.242   4.624
 5485TIP3   OH216418   6.359   4.530   4.621
 5485TIP3    H116419   6.440   4.525   4.571
 5485TIP3    H216420   6.386   4.514   4.712
 5486TIP3   OH216421   2.094   3.873   0.556
 5486TIP3    H116422   2.163   3.927   0.518
 5486TIP3    H216423   2.029   3.936   0.588
 5487TIP3   OH216424   0.190   5.303   5.485
 5487TIP3    H116425   0.208   5.315   5.578
 5487TIP3    H216426   0.116   5.360   5.467
 5488TIP3   OH216427   7.244   5.840   2.513
 5488TIP3    H116428   7.149   5.842   2.502
 5488TIP3    H216429   7.274   5.927   2.487
 5489TIP3   OH216430   1.210   4.588   3.871
 5489TIP3    H116431   1.130   4.570   3.822
 5489TIP3    H216432   1.233   4.678   3.846
 5490TIP3   OH216433   6.198   4.933   0.815
 5490TIP3    H116434   6.199   4.840   0.839
 5490TIP3    H216435   6.124   4.969   0.864
 5491TIP3   OH216436   1.804   0.885   0.676
 5491TIP3    H116437   1.819   0.965   0.625
 5491TIP3    H216438   1.724   0.903   0.725
 5492TIP3   OH216439   0.596   2.035   0.147
 5492TIP3    H116440   0.537   2.109   0.135
 5492TIP3    H216441   0.620   2.008   0.058
 5493TIP3   OH216442   6.829   1.198   5.658
 5493TIP3    H116443   6.838   1.142   5.581
 5493TIP3    H216444   6.736   1.193   5.681
 5494TIP3   OH216445   1.892   1.983   4.891
 5494TIP3    H116446   1.838   2.025   4.958
 5494TIP3    H216447   1.951   2.052   4.862
 5495TIP3   OH216448   5.313   3.405   2.882
 5495TIP3    H116449   5.288   3.333   2.824
 5495TIP3    H216450   5.258   3.394   2.959
 5496TIP3   OH216451   0.937   4.126   2.172
 5496TIP3    H116452   0.888   4.053   2.134
 5496TIP3    H216453   0.870   4.187   2.203
 5497TIP3   OH216454   1.210   0.414   4.242
 5497TIP3    H116455   1.302   0.424   4.267
 5497TIP3    H216456   1.181   0.502   4.219
 5498TIP3   OH216457   1.616   2.788   0.408
 5498TIP3    H116458   1.566   2.791   0.326
 5498TIP3    H216459   1.601   2.699   0.441
 5499TIP3   OH216460   6.872   5.279   0.670
 5499TIP3    H116461   6.866   5.375   0.675
 5499TIP3    H216462   6.910   5.262   0.584
 5500TIP3   OH216463   3.862   2.529   0.834
 5500TIP3    H116464   3.780   2.570   0.861
 5500TIP3    H216465   3.889   2.477   0.910
 5501TIP3   OH216466   6.673   2.813   0.895
 5501TIP3    H116467   6.735   2.879   0.925
 5501TIP3    H216468   6.626   2.853   0.822
 5502TIP3   OH216469   4.766   2.019   4.362
 5502TIP3    H116470   4.726   1.934   4.380
 5502TIP3    H216471   4.729   2.046   4.278
 5503TIP3   OH216472   5.486   4.602   5.813
 5503TIP3    H116473   5.503   4.586   5.720
 5503TIP3    H216474   5.531   4.684   5.831
 5504TIP3   OH216475   6.911   6.401   5.220
 5504TIP3    H116476   6.869   6.376   5.137
 5504TIP3    H216477   6.970   6.329   5.239
 5505TIP3   OH216478   3.424   3.449   0.771
 5505TIP3    H116479   3.515   3.454   0.801
 5505TIP3    H216480   3.393   3.365   0.805
 5506TIP3   OH216481   6.994   6.272   1.234
 5506TIP3    H116482   6.903   6.289   1.258
 5506TIP3    H216483   7.008   6.180   1.257
 5507TIP3   OH216484   5.830   6.807   2.983
 5507TIP3    H116485   5.877   6.729   2.953
 5507TIP3    H216486   5.740   6.776   2.999
 5508TIP3   OH216487   6.987   2.843   2.815
 5508TIP3    H116488   6.958   2.755   2.789
 5508TIP3    H216489   7.081   2.835   2.828
 5509TIP3   OH216490   5.119   3.184   2.441
 5509TIP3    H116491   5.153   3.273   2.430
 5509TIP3    H216492   5.117   3.149   2.352
 5510TIP3   OH216493   2.662   6.302   0.180
 5510TIP3    H116494   2.661   6.356   0.100
 5510TIP3    H216495   2.748   6.319   0.219
 5511TIP3   OH216496   4.706   3.117   2.590
 5511TIP3    H116497   4.634   3.068   2.550
 5511TIP3    H216498   4.754   3.052   2.641
 5512TIP3   OH216499   4.541   2.339   1.777
 5512TIP3    H116500   4.582   2.424   1.762
 5512TIP3    H216501   4.586   2.279   1.718
 5513TIP3   OH216502   4.286   5.692   2.894
 5513TIP3    H116503   4.288   5.787   2.904
 5513TIP3    H216504   4.256   5.659   2.978
 5514TIP3   OH216505   2.147   4.429   0.133
 5514TIP3    H116506   2.071   4.370   0.131
 5514TIP3    H216507   2.165   4.447   0.040
 5515TIP3   OH216508   6.822   3.642   5.189
 5515TIP3    H116509   6.891   3.676   5.245
 5515TIP3    H216510   6.742   3.650   5.242
 5516TIP3   OH216511   1.561   2.419   1.226
 5516TIP3    H116512   1.627   2.488   1.223
 5516TIP3    H216513   1.586   2.365   1.300
 5517TIP3   OH216514   3.566   5.255   4.667
 5517TIP3    H116515   3.512   5.194   4.719
 5517TIP3    H216516   3.535   5.244   4.577
 5518TIP3   OH216517   5.483   4.187   4.480
 5518TIP3    H116518   5.388   4.175   4.484
 5518TIP3    H216519   5.515   4.154   4.564
 5519TIP3   OH216520   4.557   5.637   5.301
 5519TIP3    H116521   4.640   5.673   5.332
 5519TIP3    H216522   4.528   5.698   5.233
 5520TIP3   OH216523   6.652   6.546   5.035
 5520TIP3    H116524   6.580   6.545   4.971
 5520TIP3    H216525   6.614   6.587   5.113
 5521TIP3   OH216526   0.010   6.445   4.995
 5521TIP3    H116527  -0.020   6.508   5.060
 5521TIP3    H216528   0.076   6.492   4.944
 5522TIP3   OH216529   0.199   5.017   3.202
 5522TIP3    H116530   0.249   4.967   3.138
 5522TIP3    H216531   0.252   5.095   3.219
 5523TIP3   OH216532   1.712   1.946   4.403
 5523TIP3    H116533   1.618   1.947   4.383
 5523TIP3    H216534   1.750   2.005   4.338
 5524TIP3   OH216535   6.810   0.594   4.776
 5524TIP3    H116536   6.740   0.551   4.728
 5524TIP3    H216537   6.770   0.620   4.859
 5525TIP3   OH216538   6.934   1.881   3.666
 5525TIP3    H116539   6.853   1.885   3.615
 5525TIP3    H216540   6.985   1.956   3.637
 5526TIP3   OH216541   1.730   4.435   4.990
 5526TIP3    H116542   1.635   4.422   4.996
 5526TIP3    H216543   1.767   4.357   5.033
 5527TIP3   OH216544   5.045   3.465   1.333
 5527TIP3    H116545   4.982   3.495   1.398
 5527TIP3    H216546   5.088   3.545   1.303
 5528TIP3   OH216547   6.033   5.548   1.083
 5528TIP3    H116548   6.106   5.536   1.144
 5528TIP3    H216549   6.074   5.557   0.997
 5529TIP3   OH216550   7.023   3.790   2.529
 5529TIP3    H116551   7.054   3.878   2.508
 5529TIP3    H216552   6.955   3.804   2.596
 5530TIP3   OH216553   3.643   5.556   1.688
 5530TIP3    H116554   3.701   5.536   1.615
 5530TIP3    H216555   3.640   5.475   1.739
 5531TIP3   OH216556   2.743   4.760   4.290
 5531TIP3    H116557   2.789   4.795   4.215
 5531TIP3    H216558   2.717   4.672   4.264
 5532TIP3   OH216559   5.230   5.954   2.029
 5532TIP3    H116560   5.201   5.902   2.105
 5532TIP3    H216561   5.156   5.953   1.969
 5533TIP3   OH216562   3.762   6.412   2.885
 5533TIP3    H116563   3.707   6.470   2.834
 5533TIP3    H216564   3.846   6.411   2.839
 5534TIP3   OH216565   3.129   6.739   2.098
 5534TIP3    H116566   3.125   6.667   2.161
 5534TIP3    H216567   3.057   6.720   2.037
 5535TIP3   OH216568   5.890   2.154   2.471
 5535TIP3    H116569   5.926   2.151   2.560
 5535TIP3    H216570   5.879   2.248   2.453
 5536TIP3   OH216571   0.200   3.324   3.655
 5536TIP3    H116572   0.195   3.419   3.655
 5536TIP3    H216573   0.112   3.295   3.630
 5537TIP3   OH216574   1.994   0.561   4.766
 5537TIP3    H116575   1.924   0.602   4.716
 5537TIP3    H216576   2.057   0.631   4.783
 5538TIP3   OH216577   4.746   6.087   0.517
 5538TIP3    H116578   4.729   6.106   0.425
 5538TIP3    H216579   4.725   6.169   0.563
 5539TIP3   OH216580   4.476   5.133   1.160
 5539TIP3    H116581   4.389   5.110   1.128
 5539TIP3    H216582   4.461   5.167   1.248
 5540TIP3   OH216583   6.899   4.764   0.825
 5540TIP3    H116584   6.958   4.839   0.820
 5540TIP3    H216585   6.952   4.690   0.795
 5541TIP3   OH216586   3.528   4.119   3.178
 5541TIP3    H116587   3.545   4.092   3.269
 5541TIP3    H216588   3.613   4.115   3.136
 5542TIP3   OH216589   0.429   4.922   4.994
 5542TIP3    H116590   0.491   4.891   4.928
 5542TIP3    H216591   0.344   4.889   4.965
 5543TIP3   OH216592   5.878   3.959   3.844
 5543TIP3    H116593   5.891   3.868   3.871
 5543TIP3    H216594   5.965   3.988   3.817
 5544TIP3   OH216595   0.328   4.110   2.551
 5544TIP3    H116596   0.315   4.100   2.645
 5544TIP3    H216597   0.332   4.204   2.537
 5545TIP3   OH216598   6.244   4.954   4.155
 5545TIP3    H116599   6.339   4.957   4.162
 5545TIP3    H216600   6.224   5.014   4.083
 5546TIP3   OH216601   4.388   4.064   0.304
 5546TIP3    H116602   4.356   4.122   0.374
 5546TIP3    H216603   4.324   3.994   0.299
 5547TIP3   OH216604   7.099   4.934   1.629
 5547TIP3    H116605   7.094   4.839   1.636
 5547TIP3    H216606   7.061   4.966   1.711
 5548TIP3   OH216607   3.976   2.891   2.308
 5548TIP3    H116608   4.053   2.928   2.265
 5548TIP3    H216609   3.942   2.963   2.361
 5549TIP3   OH216610   2.982   5.662   2.598
 5549TIP3    H116611   3.018   5.733   2.652
 5549TIP3    H216612   3.021   5.583   2.634
 5550TIP3   OH216613   1.487   0.272   5.664
 5550TIP3    H116614   1.527   0.278   5.577
 5550TIP3    H216615   1.530   0.341   5.715
 5551TIP3   OH216616   1.538   2.613   4.248
 5551TIP3    H116617   1.461   2.667   4.229
 5551TIP3    H216618   1.609   2.676   4.262
 5552TIP3   OH216619   0.357   6.709   3.162
 5552TIP3    H116620   0.424   6.668   3.108
 5552TIP3    H216621   0.308   6.637   3.200
 5553TIP3   OH216622   1.627   1.645   5.232
 5553TIP3    H116623   1.627   1.733   5.193
 5553TIP3    H216624   1.667   1.590   5.165
 5554TIP3   OH216625   2.485   6.636   4.469
 5554TIP3    H116626   2.451   6.589   4.545
 5554TIP3    H216627   2.581   6.626   4.476
 5555TIP3   OH216628   0.591   5.339   4.263
 5555TIP3    H116629   0.678   5.339   4.304
 5555TIP3    H216630   0.570   5.432   4.252
 5556TIP3   OH216631   4.705   1.135   0.958
 5556TIP3    H116632   4.647   1.145   1.033
 5556TIP3    H216633   4.648   1.110   0.886
 5557TIP3   OH216634   2.808   3.963   1.785
 5557TIP3    H116635   2.903   3.963   1.801
 5557TIP3    H216636   2.770   4.005   1.862
 5558TIP3   OH216637   4.670   4.319   0.449
 5558TIP3    H116638   4.730   4.350   0.381
 5558TIP3    H216639   4.676   4.224   0.444
 5559TIP3   OH216640   5.705   4.957   1.663
 5559TIP3    H116641   5.623   4.911   1.646
 5559TIP3    H216642   5.679   5.039   1.705
 5560TIP3   OH216643   1.870   4.782   4.947
 5560TIP3    H116644   1.869   4.698   4.901
 5560TIP3    H216645   1.813   4.839   4.894
 5561TIP3   OH216646   5.439   5.063   1.331
 5561TIP3    H116647   5.418   5.132   1.394
 5561TIP3    H216648   5.431   5.105   1.245
 5562TIP3   OH216649   6.577   2.085   2.935
 5562TIP3    H116650   6.554   2.165   2.888
 5562TIP3    H216651   6.599   2.022   2.867
 5563TIP3   OH216652   4.806   4.450   0.195
 5563TIP3    H116653   4.869   4.489   0.135
 5563TIP3    H216654   4.723   4.494   0.176
 5564TIP3   OH216655   2.258   5.526   0.782
 5564TIP3    H116656   2.262   5.581   0.860
 5564TIP3    H216657   2.175   5.479   0.791
 5565TIP3   OH216658   4.756   5.957   4.245
 5565TIP3    H116659   4.692   6.027   4.234
 5565TIP3    H216660   4.776   5.958   4.339
 5566TIP3   OH216661   3.433   6.249   5.374
 5566TIP3    H116662   3.342   6.261   5.347
 5566TIP3    H216663   3.436   6.161   5.410
 5567TIP3   OH216664   1.219   4.141   3.907
 5567TIP3    H116665   1.288   4.206   3.895
 5567TIP3    H216666   1.231   4.109   3.996
 5568TIP3   OH216667   4.865   4.073   1.865
 5568TIP3    H116668   4.821   4.025   1.936
 5568TIP3    H216669   4.812   4.055   1.787
 5569TIP3   OH216670   5.500   2.002   0.948
 5569TIP3    H116671   5.568   2.069   0.947
 5569TIP3    H216672   5.508   1.958   0.864
 5570TIP3   OH216673   0.142   1.675   1.478
 5570TIP3    H116674   0.144   1.588   1.518
 5570TIP3    H216675   0.194   1.666   1.398
 5571TIP3   OH216676   0.870   3.540   1.596
 5571TIP3    H116677   0.844   3.624   1.559
 5571TIP3    H216678   0.960   3.554   1.626
 5572TIP3   OH216679   2.573   5.149   4.987
 5572TIP3    H116680   2.557   5.141   4.893
 5572TIP3    H216681   2.668   5.147   4.996
 5573TIP3   OH216682   5.432   5.929   2.657
 5573TIP3    H116683   5.505   5.902   2.600
 5573TIP3    H216684   5.465   5.915   2.745
 5574TIP3   OH216685   1.893   1.855   2.456
 5574TIP3    H116686   1.819   1.910   2.482
 5574TIP3    H216687   1.967   1.916   2.450
 5575TIP3   OH216688   6.177   1.912   0.076
 5575TIP3    H116689   6.252   1.896   0.133
 5575TIP3    H216690   6.141   1.825   0.059
 5576TIP3   OH216691   0.795   1.649   0.104
 5576TIP3    H116692   0.862   1.692   0.157
 5576TIP3    H216693   0.758   1.582   0.162
 5577TIP3   OH216694   7.146   4.607   2.433
 5577TIP3    H116695   7.111   4.528   2.391
 5577TIP3    H216696   7.227   4.577   2.475
 5578TIP3   OH216697   0.537   4.551   0.176
 5578TIP3    H116698   0.568   4.461   0.165
 5578TIP3    H216699   0.443   4.542   0.193
 5579TIP3   OH216700   2.307   2.610   2.562
 5579TIP3    H116701   2.292   2.627   2.655
 5579TIP3    H216702   2.365   2.534   2.560
 5580TIP3   OH216703   2.765   1.652   3.574
 5580TIP3    H116704   2.836   1.691   3.626
 5580TIP3    H216705   2.810   1.604   3.505
 5581TIP3   OH216706   5.444   3.428   5.885
 5581TIP3    H116707   5.490   3.511   5.887
 5581TIP3    H216708   5.353   3.452   5.869
 5582TIP3   OH216709   5.550   4.469   0.722
 5582TIP3    H116710   5.622   4.507   0.671
 5582TIP3    H216711   5.513   4.543   0.770
 5583TIP3   OH216712   3.289   0.992   1.533
 5583TIP3    H116713   3.271   0.905   1.496
 5583TIP3    H216714   3.326   1.041   1.460
 5584TIP3   OH216715   4.348   2.363   3.968
 5584TIP3    H116716   4.299   2.402   4.040
 5584TIP3    H216717   4.438   2.356   4.000
 5585TIP3   OH216718   3.981   0.058   5.358
 5585TIP3    H116719   3.908   0.013   5.401
 5585TIP3    H216720   4.035  -0.013   5.323
 5586TIP3   OH216721   6.913   5.940   4.999
 5586TIP3    H116722   7.007   5.931   5.015
 5586TIP3    H216723   6.893   6.031   5.021
 5587TIP3   OH216724   3.016   1.725   3.751
 5587TIP3    H116725   3.001   1.812   3.788
 5587TIP3    H216726   3.080   1.685   3.810
 5588TIP3   OH216727   3.741   4.403   0.978
 5588TIP3    H116728   3.790   4.376   0.900
 5588TIP3    H216729   3.711   4.491   0.959
 5589TIP3   OH216730   0.651   4.929   2.647
 5589TIP3    H116731   0.614   5.015   2.624
 5589TIP3    H216732   0.654   4.881   2.564
 5590TIP3   OH216733   1.051   1.987   1.181
 5590TIP3    H116734   1.132   2.038   1.180
 5590TIP3    H216735   0.981   2.053   1.178
 5591TIP3   OH216736   1.908   4.114   2.982
 5591TIP3    H116737   1.860   4.140   3.061
 5591TIP3    H216738   1.997   4.098   3.013
 5592TIP3   OH216739   2.586   5.218   3.297
 5592TIP3    H116740   2.657   5.191   3.238
 5592TIP3    H216741   2.592   5.156   3.370
 5593TIP3   OH216742   1.884   1.013   1.021
 5593TIP3    H116743   1.978   1.008   1.009
 5593TIP3    H216744   1.850   0.933   0.982
 5594TIP3   OH216745   4.368   6.341   4.983
 5594TIP3    H116746   4.406   6.373   5.065
 5594TIP3    H216747   4.441   6.300   4.937
 5595TIP3   OH216748   2.280   5.808   2.683
 5595TIP3    H116749   2.359   5.764   2.715
 5595TIP3    H216750   2.313   5.875   2.623
 5596TIP3   OH216751   4.602   2.652   5.209
 5596TIP3    H116752   4.667   2.581   5.214
 5596TIP3    H216753   4.578   2.668   5.300
 5597TIP3   OH216754   0.754   4.570   4.820
 5597TIP3    H116755   0.809   4.581   4.742
 5597TIP3    H216756   0.813   4.585   4.894
 5598TIP3   OH216757   5.005   3.199   2.961
 5598TIP3    H116758   4.943   3.162   3.024
 5598TIP3    H216759   5.076   3.233   3.015
 5599TIP3   OH216760   4.359   6.715   0.171
 5599TIP3    H116761   4.288   6.672   0.219
 5599TIP3    H216762   4.322   6.733   0.085
 5600TIP3   OH216763   3.086   1.935   2.969
 5600TIP3    H116764   3.093   1.897   3.057
 5600TIP3    H216765   3.153   1.888   2.918
 5601TIP3   OH216766   2.602   6.430   2.955
 5601TIP3    H116767   2.542   6.385   2.895
 5601TIP3    H216768   2.573   6.402   3.042
 5602TIP3   OH216769   2.401   3.913   1.034
 5602TIP3    H116770   2.399   3.913   0.938
 5602TIP3    H216771   2.487   3.948   1.056
 5603TIP3   OH216772   3.848   5.252   4.306
 5603TIP3    H116773   3.805   5.337   4.300
 5603TIP3    H216774   3.776   5.189   4.312
 5604TIP3   OH216775   1.105   4.718   1.914
 5604TIP3    H116776   1.046   4.792   1.897
 5604TIP3    H216777   1.099   4.704   2.009
 5605TIP3   OH216778   4.187   2.316   0.310
 5605TIP3    H116779   4.159   2.287   0.397
 5605TIP3    H216780   4.202   2.410   0.321
 5606TIP3   OH216781   2.896   0.044   4.096
 5606TIP3    H116782   2.841   0.045   4.174
 5606TIP3    H216783   2.976   0.088   4.123
 5607TIP3   OH216784   5.381   4.069   2.425
 5607TIP3    H116785   5.451   4.133   2.413
 5607TIP3    H216786   5.306   4.106   2.378
 5608TIP3   OH216787   4.368   5.685   4.054
 5608TIP3    H116788   4.442   5.627   4.037
 5608TIP3    H216789   4.386   5.763   4.001
 5609TIP3   OH216790   2.855   0.341   5.079
 5609TIP3    H116791   2.796   0.411   5.108
 5609TIP3    H216792   2.886   0.370   4.993
 5610TIP3   OH216793   3.533   0.401   2.270
 5610TIP3    H116794   3.565   0.491   2.259
 5610TIP3    H216795   3.603   0.346   2.235
 5611TIP3   OH216796   2.105   1.195   0.777
 5611TIP3    H116797   2.149   1.224   0.697
 5611TIP3    H216798   2.120   1.265   0.840
 5612TIP3   OH216799   0.380   1.887   3.699
 5612TIP3    H116800   0.302   1.840   3.728
 5612TIP3    H216801   0.409   1.840   3.621
 5613TIP3   OH216802   4.314   5.138   5.792
 5613TIP3    H116803   4.315   5.048   5.759
 5613TIP3    H216804   4.322   5.128   5.887
 5614TIP3   OH216805   2.161   0.724   0.874
 5614TIP3    H116806   2.181   0.669   0.950
 5614TIP3    H216807   2.066   0.716   0.862
 5615TIP3   OH216808   2.597   4.202   0.126
 5615TIP3    H116809   2.638   4.146   0.059
 5615TIP3    H216810   2.632   4.289   0.110
 5616TIP3   OH216811   2.166   1.174   4.819
 5616TIP3    H116812   2.228   1.218   4.876
 5616TIP3    H216813   2.219   1.115   4.765
 5617TIP3   OH216814   4.451   5.492   3.667
 5617TIP3    H116815   4.463   5.443   3.749
 5617TIP3    H216816   4.389   5.439   3.617
 5618TIP3   OH216817   4.884   3.433   0.575
 5618TIP3    H116818   4.813   3.497   0.569
 5618TIP3    H216819   4.854   3.370   0.640
 5619TIP3   OH216820   3.828   3.705   3.397
 5619TIP3    H116821   3.741   3.745   3.392
 5619TIP3    H216822   3.812   3.611   3.402
 5620TIP3   OH216823   4.363   2.527   4.639
 5620TIP3    H116824   4.440   2.583   4.649
 5620TIP3    H216825   4.290   2.581   4.671
 5621TIP3   OH216826   0.249   2.479   0.444
 5621TIP3    H116827   0.257   2.425   0.365
 5621TIP3    H216828   0.155   2.476   0.466
 5622TIP3   OH216829   6.399   3.690   1.761
 5622TIP3    H116830   6.450   3.770   1.757
 5622TIP3    H216831   6.458   3.626   1.801
 5623TIP3   OH216832   4.952   4.517   1.306
 5623TIP3    H116833   5.041   4.483   1.313
 5623TIP3    H216834   4.960   4.609   1.330
 5624TIP3   OH216835   6.654   1.922   4.870
 5624TIP3    H116836   6.694   1.968   4.944
 5624TIP3    H216837   6.561   1.945   4.874
 5625TIP3   OH216838   4.775   1.693   2.997
 5625TIP3    H116839   4.770   1.733   2.910
 5625TIP3    H216840   4.792   1.601   2.980
 5626TIP3   OH216841   4.992   6.384   5.090
 5626TIP3    H116842   5.039   6.467   5.084
 5626TIP3    H216843   5.024   6.343   5.170
 5627TIP3   OH216844   5.781   5.552   2.554
 5627TIP3    H116845   5.806   5.459   2.560
 5627TIP3    H216846   5.724   5.556   2.478
 5628TIP3   OH216847   4.470   5.448   1.160
 5628TIP3    H116848   4.437   5.439   1.071
 5628TIP3    H216849   4.394   5.429   1.215
 5629TIP3   OH216850   4.702   2.425   2.329
 5629TIP3    H116851   4.684   2.392   2.241
 5629TIP3    H216852   4.791   2.396   2.348
 5630TIP3   OH216853   0.945   0.813   5.854
 5630TIP3    H116854   0.904   0.736   5.815
 5630TIP3    H216855   0.954   0.874   5.781
 5631TIP3   OH216856   1.197   1.087   3.155
 5631TIP3    H116857   1.108   1.097   3.187
 5631TIP3    H216858   1.251   1.127   3.224
 5632TIP3   OH216859   4.757   4.293   3.774
 5632TIP3    H116860   4.740   4.370   3.720
 5632TIP3    H216861   4.671   4.268   3.808
 5633TIP3   OH216862   3.958   3.213   2.011
 5633TIP3    H116863   3.899   3.162   2.067
 5633TIP3    H216864   3.949   3.303   2.042
 5634TIP3   OH216865   1.095   6.283   2.600
 5634TIP3    H116866   1.134   6.198   2.619
 5634TIP3    H216867   1.063   6.314   2.684
 5635TIP3   OH216868   6.751   1.083   3.593
 5635TIP3    H116869   6.805   1.114   3.520
 5635TIP3    H216870   6.814   1.068   3.664
 5636TIP3   OH216871   2.648   0.483   5.323
 5636TIP3    H116872   2.605   0.566   5.305
 5636TIP3    H216873   2.591   0.417   5.285
 5637TIP3   OH216874   1.978   5.096   2.266
 5637TIP3    H116875   1.973   5.178   2.217
 5637TIP3    H216876   2.042   5.114   2.336
 5638TIP3   OH216877   3.556   0.235   4.357
 5638TIP3    H116878   3.597   0.214   4.441
 5638TIP3    H216879   3.475   0.280   4.380
 5639TIP3   OH216880   1.507   2.367   1.744
 5639TIP3    H116881   1.533   2.415   1.823
 5639TIP3    H216882   1.436   2.310   1.773
 5640TIP3   OH216883   1.955   0.432   5.509
 5640TIP3    H116884   1.939   0.347   5.469
 5640TIP3    H216885   1.875   0.453   5.557
 5641TIP3   OH216886   3.039   0.243   1.772
 5641TIP3    H116887   3.104   0.172   1.769
 5641TIP3    H216888   3.032   0.272   1.681
 5642TIP3   OH216889   3.582   0.123   3.279
 5642TIP3    H116890   3.536   0.043   3.304
 5642TIP3    H216891   3.641   0.140   3.352
 5643TIP3   OH216892   1.994   1.672   0.747
 5643TIP3    H116893   1.980   1.764   0.724
 5643TIP3    H216894   1.966   1.666   0.839
 5644TIP3   OH216895   2.694   4.586   5.435
 5644TIP3    H116896   2.772   4.641   5.430
 5644TIP3    H216897   2.621   4.645   5.416
 5645TIP3   OH216898   1.649   6.690   2.227
 5645TIP3    H116899   1.744   6.685   2.214
 5645TIP3    H216900   1.627   6.781   2.208
 5646TIP3   OH216901   6.202   4.062   1.205
 5646TIP3    H116902   6.295   4.065   1.228
 5646TIP3    H216903   6.182   3.968   1.198
 5647TIP3   OH216904   2.733   4.576   4.860
 5647TIP3    H116905   2.693   4.534   4.784
 5647TIP3    H216906   2.735   4.509   4.927
 5648TIP3   OH216907   2.056   4.572   0.492
 5648TIP3    H116908   2.081   4.620   0.570
 5648TIP3    H216909   2.118   4.499   0.488
 5649TIP3   OH216910   0.767   3.350   4.116
 5649TIP3    H116911   0.769   3.377   4.208
 5649TIP3    H216912   0.835   3.283   4.110
 5650TIP3   OH216913   4.785   1.656   4.979
 5650TIP3    H116914   4.710   1.620   4.933
 5650TIP3    H216915   4.749   1.686   5.063
 5651TIP3   OH216916   4.639   4.410   2.793
 5651TIP3    H116917   4.603   4.323   2.777
 5651TIP3    H216918   4.651   4.448   2.706
 5652TIP3   OH216919   4.116   1.310   1.224
 5652TIP3    H116920   4.128   1.355   1.307
 5652TIP3    H216921   4.195   1.332   1.174
 5653TIP3   OH216922   6.146   6.361   1.912
 5653TIP3    H116923   6.159   6.422   1.985
 5653TIP3    H216924   6.052   6.342   1.912
 5654TIP3   OH216925   1.780   3.305   5.460
 5654TIP3    H116926   1.748   3.228   5.413
 5654TIP3    H216927   1.767   3.377   5.399
 5655TIP3   OH216928   0.922   0.630   4.019
 5655TIP3    H116929   1.005   0.626   4.068
 5655TIP3    H216930   0.862   0.675   4.078
 5656TIP3   OH216931   2.305   2.162   4.812
 5656TIP3    H116932   2.349   2.218   4.748
 5656TIP3    H216933   2.212   2.180   4.799
 5657TIP3   OH216934   4.027   2.261   4.898
 5657TIP3    H116935   3.982   2.178   4.881
 5657TIP3    H216936   4.099   2.262   4.835
 5658TIP3   OH216937   1.704   1.305   1.994
 5658TIP3    H116938   1.739   1.359   2.065
 5658TIP3    H216939   1.749   1.337   1.916
 5659TIP3   OH216940   2.905   6.380   0.286
 5659TIP3    H116941   2.969   6.446   0.257
 5659TIP3    H216942   2.892   6.399   0.379
 5660TIP3   OH216943   2.108   2.017   0.698
 5660TIP3    H116944   2.177   1.984   0.755
 5660TIP3    H216945   2.155   2.055   0.623
 5661TIP3   OH216946   0.146   2.628   4.667
 5661TIP3    H116947   0.073   2.641   4.606
 5661TIP3    H216948   0.216   2.684   4.633
 5662TIP3   OH216949   4.428   3.373   1.724
 5662TIP3    H116950   4.438   3.279   1.732
 5662TIP3    H216951   4.509   3.409   1.762
 5663TIP3   OH216952   6.050   5.551   0.575
 5663TIP3    H116953   6.133   5.537   0.531
 5663TIP3    H216954   6.073   5.564   0.667
 5664TIP3   OH216955   0.693   1.733   2.094
 5664TIP3    H116956   0.630   1.676   2.138
 5664TIP3    H216957   0.702   1.696   2.006
 5665TIP3   OH216958   4.906   2.714   0.072
 5665TIP3    H116959   4.932   2.698   0.163
 5665TIP3    H216960   4.811   2.726   0.076
 5666TIP3   OH216961   1.320   4.187   4.847
 5666TIP3    H116962   1.297   4.244   4.773
 5666TIP3    H216963   1.354   4.107   4.806
 5667TIP3   OH216964   6.851   2.173   3.545
 5667TIP3    H116965   6.944   2.193   3.539
 5667TIP3    H216966   6.818   2.234   3.612
 5668TIP3   OH216967   3.057   0.280   4.452
 5668TIP3    H116968   3.008   0.362   4.443
 5668TIP3    H216969   3.026   0.242   4.535
 5669TIP3   OH216970   0.756   1.328   0.967
 5669TIP3    H116971   0.745   1.417   0.936
 5669TIP3    H216972   0.845   1.304   0.940
 5670TIP3   OH216973   7.243   2.073   5.288
 5670TIP3    H116974   7.221   1.992   5.243
 5670TIP3    H216975   7.165   2.128   5.278
 5671TIP3   OH216976   0.739   1.835   0.840
 5671TIP3    H116977   0.743   1.803   0.750
 5671TIP3    H216978   0.807   1.902   0.845
 5672TIP3   OH216979   1.363   3.425   0.622
 5672TIP3    H116980   1.275   3.386   0.616
 5672TIP3    H216981   1.346   3.519   0.633
 5673TIP3   OH216982   4.203   2.452   2.119
 5673TIP3    H116983   4.240   2.471   2.033
 5673TIP3    H216984   4.145   2.526   2.137
 5674TIP3   OH216985   1.349   1.250   4.114
 5674TIP3    H116986   1.412   1.273   4.183
 5674TIP3    H216987   1.276   1.211   4.160
 5675TIP3   OH216988   6.418   3.226   2.386
 5675TIP3    H116989   6.402   3.191   2.298
 5675TIP3    H216990   6.512   3.216   2.399
 5676TIP3   OH216991   3.588   1.335   2.601
 5676TIP3    H116992   3.662   1.393   2.589
 5676TIP3    H216993   3.552   1.359   2.687
 5677TIP3   OH216994   5.119   3.040   0.402
 5677TIP3    H116995   5.098   3.096   0.327
 5677TIP3    H216996   5.109   2.951   0.368
 5678TIP3   OH216997   2.668   3.112   5.277
 5678TIP3    H116998   2.723   3.041   5.243
 5678TIP3    H216999   2.631   3.153   5.198
 5679TIP3   OH217000   2.464   1.295   5.227
 5679TIP3    H117001   2.489   1.383   5.253
 5679TIP3    H217002   2.473   1.243   5.306
 5680TIP3   OH217003   1.187   2.345   4.991
 5680TIP3    H117004   1.220   2.255   4.990
 5680TIP3    H217005   1.101   2.339   5.032
 5681TIP3   OH217006   0.561   0.955   0.247
 5681TIP3    H117007   0.608   0.871   0.244
 5681TIP3    H217008   0.624   1.019   0.215
 5682TIP3   OH217009   0.378   1.479   0.293
 5682TIP3    H117010   0.356   1.561   0.337
 5682TIP3    H217011   0.331   1.412   0.344
 5683TIP3   OH217012   1.774   2.127   2.360
 5683TIP3    H117013   1.700   2.180   2.329
 5683TIP3    H217014   1.848   2.187   2.357
 5684TIP3   OH217015   4.602   1.312   3.961
 5684TIP3    H117016   4.597   1.223   3.995
 5684TIP3    H217017   4.578   1.368   4.035
 5685TIP3   OH217018   6.443   2.365   1.066
 5685TIP3    H117019   6.522   2.332   1.021
 5685TIP3    H217020   6.442   2.319   1.150
 5686TIP3   OH217021   6.490   5.985   4.415
 5686TIP3    H117022   6.564   6.005   4.358
 5686TIP3    H217023   6.483   5.890   4.413
 5687TIP3   OH217024   2.022   6.494   3.597
 5687TIP3    H117025   2.117   6.484   3.603
 5687TIP3    H217026   2.001   6.564   3.659
 5688TIP3   OH217027   0.699   2.240   2.393
 5688TIP3    H117028   0.673   2.233   2.485
 5688TIP3    H217029   0.641   2.179   2.347
 5689TIP3   OH217030   5.018   0.488   3.737
 5689TIP3    H117031   5.030   0.569   3.786
 5689TIP3    H217032   4.952   0.508   3.671
 5690TIP3   OH217033   0.826   3.540   5.327
 5690TIP3    H117034   0.906   3.514   5.373
 5690TIP3    H217035   0.755   3.513   5.386
 5691TIP3   OH217036   6.770   3.869   4.038
 5691TIP3    H117037   6.866   3.874   4.042
 5691TIP3    H217038   6.752   3.813   3.962
 5692TIP3   OH217039   1.309   1.505   3.675
 5692TIP3    H117040   1.393   1.544   3.651
 5692TIP3    H217041   1.323   1.471   3.764
 5693TIP3   OH217042   4.488   3.949   4.007
 5693TIP3    H117043   4.521   3.929   3.920
 5693TIP3    H217044   4.393   3.945   3.998
 5694TIP3   OH217045   3.429   4.651   4.440
 5694TIP3    H117046   3.499   4.692   4.491
 5694TIP3    H217047   3.426   4.561   4.471
 5695TIP3   OH217048   3.368   0.803   0.101
 5695TIP3    H117049   3.362   0.735   0.168
 5695TIP3    H217050   3.434   0.864   0.135
 5696TIP3   OH217051   1.706   5.348   4.524
 5696TIP3    H117052   1.620   5.375   4.556
 5696TIP3    H217053   1.756   5.327   4.603
 5697TIP3   OH217054   6.210   3.482   2.627
 5697TIP3    H117055   6.229   3.407   2.684
 5697TIP3    H217056   6.288   3.536   2.632
 5698TIP3   OH217057   2.672   6.331   4.741
 5698TIP3    H117058   2.623   6.258   4.704
 5698TIP3    H217059   2.740   6.349   4.676
 5699TIP3   OH217060   6.515   0.463   2.167
 5699TIP3    H117061   6.450   0.533   2.170
 5699TIP3    H217062   6.499   0.412   2.246
 5700TIP3   OH217063   3.821   5.903   1.313
 5700TIP3    H117064   3.836   5.955   1.235
 5700TIP3    H217065   3.797   5.967   1.380
 5701TIP3   OH217066   3.185   4.031   0.766
 5701TIP3    H117067   3.219   3.953   0.722
 5701TIP3    H217068   3.247   4.046   0.837
 5702TIP3   OH217069   1.816   1.825   2.881
 5702TIP3    H117070   1.741   1.844   2.937
 5702TIP3    H217071   1.857   1.748   2.921
 5703TIP3   OH217072   3.611   4.561   3.081
 5703TIP3    H117073   3.658   4.533   3.159
 5703TIP3    H217074   3.577   4.480   3.042
 5704TIP3   OH217075   6.743   2.298   0.696
 5704TIP3    H117076   6.673   2.243   0.663
 5704TIP3    H217077   6.699   2.373   0.737
 5705TIP3   OH217078   6.056   3.751   2.556
 5705TIP3    H117079   5.971   3.714   2.582
 5705TIP3    H217080   6.115   3.729   2.628
 5706TIP3   OH217081   6.868   2.915   4.397
 5706TIP3    H117082   6.856   2.928   4.491
 5706TIP3    H217083   6.853   2.821   4.384
 5707TIP3   OH217084   1.676   5.046   2.335
 5707TIP3    H117085   1.687   5.020   2.244
 5707TIP3    H217086   1.646   4.967   2.379
 5708TIP3   OH217087   3.174   0.214   3.299
 5708TIP3    H117088   3.194   0.248   3.387
 5708TIP3    H217089   3.089   0.172   3.307
 5709TIP3   OH217090   6.388   2.860   3.608
 5709TIP3    H117091   6.442   2.864   3.687
 5709TIP3    H217092   6.448   2.832   3.539
 5710TIP3   OH217093   3.715   3.801   4.638
 5710TIP3    H117094   3.772   3.828   4.565
 5710TIP3    H217095   3.646   3.867   4.640
 5711TIP3   OH217096   4.800   0.344   2.353
 5711TIP3    H117097   4.774   0.371   2.265
 5711TIP3    H217098   4.814   0.249   2.346
 5712TIP3   OH217099   5.905   5.569   1.889
 5712TIP3    H117100   5.942   5.587   1.975
 5712TIP3    H217101   5.817   5.607   1.892
 5713TIP3   OH217102   3.991   6.557   1.607
 5713TIP3    H117103   4.012   6.644   1.642
 5713TIP3    H217104   4.063   6.501   1.638
 5714TIP3   OH217105   1.521   5.244   2.466
 5714TIP3    H117106   1.561   5.171   2.418
 5714TIP3    H217107   1.535   5.222   2.558
 5715TIP3   OH217108   4.872   5.932   0.190
 5715TIP3    H117109   4.938   5.953   0.124
 5715TIP3    H217110   4.838   5.847   0.164
 5716TIP3   OH217111   5.197   0.223   2.299
 5716TIP3    H117112   5.208   0.309   2.259
 5716TIP3    H217113   5.157   0.241   2.384
 5717TIP3   OH217114   2.092   0.998   1.255
 5717TIP3    H117115   2.109   1.001   1.161
 5717TIP3    H217116   2.119   0.910   1.281
 5718TIP3   OH217117   1.536   4.750   4.204
 5718TIP3    H117118   1.501   4.698   4.276
 5718TIP3    H217119   1.546   4.838   4.240
 5719TIP3   OH217120   3.964   3.748   0.227
 5719TIP3    H117121   3.973   3.661   0.264
 5719TIP3    H217122   3.924   3.733   0.141
 5720TIP3   OH217123   3.752   4.055   0.933
 5720TIP3    H117124   3.695   3.985   0.967
 5720TIP3    H217125   3.763   4.033   0.841
 5721TIP3   OH217126   0.413   0.504   2.695
 5721TIP3    H117127   0.419   0.464   2.608
 5721TIP3    H217128   0.328   0.476   2.729
 5722TIP3   OH217129   3.994   1.822   3.214
 5722TIP3    H117130   3.964   1.875   3.288
 5722TIP3    H217131   3.936   1.745   3.216
 5723TIP3   OH217132   7.132   5.616   3.516
 5723TIP3    H117133   7.086   5.679   3.461
 5723TIP3    H217134   7.214   5.659   3.538
 5724TIP3   OH217135   0.711   1.657   5.479
 5724TIP3    H117136   0.622   1.690   5.487
 5724TIP3    H217137   0.717   1.626   5.389
 5725TIP3   OH217138   4.564   0.004   3.239
 5725TIP3    H117139   4.648  -0.027   3.204
 5725TIP3    H217140   4.579   0.097   3.257
 5726TIP3   OH217141   2.602   5.108   3.549
 5726TIP3    H117142   2.686   5.072   3.518
 5726TIP3    H217143   2.570   5.042   3.610
 5727TIP3   OH217144   4.246   0.323   0.696
 5727TIP3    H117145   4.262   0.374   0.776
 5727TIP3    H217146   4.230   0.389   0.629
 5728TIP3   OH217147   5.396   3.197   1.578
 5728TIP3    H117148   5.469   3.247   1.614
 5728TIP3    H217149   5.367   3.248   1.502
 5729TIP3   OH217150   1.870   1.965   2.154
 5729TIP3    H117151   1.846   2.021   2.228
 5729TIP3    H217152   1.798   1.902   2.147
 5730TIP3   OH217153   4.787   5.553   2.065
 5730TIP3    H117154   4.711   5.593   2.023
 5730TIP3    H217155   4.839   5.518   1.993
 5731TIP3   OH217156   0.823   0.122   4.157
 5731TIP3    H117157   0.877   0.201   4.159
 5731TIP3    H217158   0.833   0.083   4.244
 5732TIP3   OH217159   7.068   1.100   4.131
 5732TIP3    H117160   7.081   1.034   4.199
 5732TIP3    H217161   6.974   1.098   4.113
 5733TIP3   OH217162   5.211   3.227   1.331
 5733TIP3    H117163   5.241   3.288   1.264
 5733TIP3    H217164   5.136   3.271   1.372
 5734TIP3   OH217165   2.815   6.035   5.823
 5734TIP3    H117166   2.723   6.013   5.816
 5734TIP3    H217167   2.820   6.094   5.898
 5735TIP3   OH217168   1.786   0.616   4.009
 5735TIP3    H117169   1.750   0.597   4.096
 5735TIP3    H217170   1.811   0.708   4.013
 5736TIP3   OH217171   1.969   5.882   4.428
 5736TIP3    H117172   1.914   5.810   4.460
 5736TIP3    H217173   1.967   5.947   4.498
 5737TIP3   OH217174   0.602   3.449   1.653
 5737TIP3    H117175   0.696   3.466   1.653
 5737TIP3    H217176   0.576   3.462   1.562
 5738TIP3   OH217177   3.424   3.818   0.694
 5738TIP3    H117178   3.379   3.780   0.770
 5738TIP3    H217179   3.436   3.745   0.634
 5739TIP3   OH217180   2.797   5.473   2.802
 5739TIP3    H117181   2.725   5.423   2.840
 5739TIP3    H217182   2.806   5.550   2.858
 5740TIP3   OH217183   5.163   0.076   3.600
 5740TIP3    H117184   5.129   0.143   3.660
 5740TIP3    H217185   5.093   0.011   3.594
 5741TIP3   OH217186   4.800   2.249   1.219
 5741TIP3    H117187   4.730   2.230   1.282
 5741TIP3    H217188   4.881   2.242   1.269
 5742TIP3   OH217189   5.974   6.644   4.114
 5742TIP3    H117190   6.033   6.589   4.167
 5742TIP3    H217191   6.032   6.689   4.053
 5743TIP3   OH217192   1.993   0.219   2.169
 5743TIP3    H117193   1.938   0.262   2.104
 5743TIP3    H217194   1.933   0.169   2.224
 5744TIP3   OH217195   6.482   1.922   1.642
 5744TIP3    H117196   6.433   2.002   1.657
 5744TIP3    H217197   6.417   1.852   1.647
 5745TIP3   OH217198   2.202   6.474   4.690
 5745TIP3    H117199   2.189   6.496   4.598
 5745TIP3    H217200   2.295   6.494   4.706
 5746TIP3   OH217201   4.581   0.948   0.777
 5746TIP3    H117202   4.513   1.005   0.740
 5746TIP3    H217203   4.586   0.874   0.717
 5747TIP3   OH217204   3.978   6.191   3.671
 5747TIP3    H117205   3.905   6.184   3.610
 5747TIP3    H217206   3.965   6.277   3.713
 5748TIP3   OH217207   7.128   5.732   5.242
 5748TIP3    H117208   7.136   5.822   5.211
 5748TIP3    H217209   7.067   5.738   5.317
 5749TIP3   OH217210   5.941   1.754   1.396
 5749TIP3    H117211   5.908   1.842   1.414
 5749TIP3    H217212   5.968   1.756   1.305
 5750TIP3   OH217213   4.914   6.532   1.974
 5750TIP3    H117214   4.849   6.477   2.019
 5750TIP3    H217215   4.996   6.484   1.985
 5751TIP3   OH217216   0.349   1.317   4.283
 5751TIP3    H117217   0.351   1.412   4.267
 5751TIP3    H217218   0.257   1.297   4.295
 5752TIP3   OH217219   2.463   2.154   5.715
 5752TIP3    H117220   2.555   2.157   5.687
 5752TIP3    H217221   2.413   2.145   5.635
 5753TIP3   OH217222   5.202   3.532   1.830
 5753TIP3    H117223   5.242   3.614   1.801
 5753TIP3    H217224   5.263   3.498   1.896
 5754TIP3   OH217225   4.760   4.071   4.948
 5754TIP3    H117226   4.731   3.990   4.906
 5754TIP3    H217227   4.715   4.140   4.900
 5755TIP3   OH217228   0.025   4.917   2.660
 5755TIP3    H117229  -0.061   4.901   2.700
 5755TIP3    H217230   0.080   4.847   2.693
 5756TIP3   OH217231   6.654   2.401   4.146
 5756TIP3    H117232   6.578   2.443   4.105
 5756TIP3    H217233   6.667   2.321   4.095
 5757TIP3   OH217234   5.959   4.415   2.432
 5757TIP3    H117235   6.028   4.356   2.462
 5757TIP3    H217236   6.001   4.469   2.364
 5758TIP3   OH217237   3.690   0.497   1.573
 5758TIP3    H117238   3.677   0.442   1.495
 5758TIP3    H217239   3.778   0.532   1.561
 5759TIP3   OH217240   4.352   5.404   5.707
 5759TIP3    H117241   4.448   5.397   5.707
 5759TIP3    H217242   4.321   5.315   5.722
 5760TIP3   OH217243   5.865   4.215   2.229
 5760TIP3    H117244   5.878   4.305   2.259
 5760TIP3    H217245   5.885   4.218   2.135
 5761TIP3   OH217246   0.848   4.877   5.142
 5761TIP3    H117247   0.895   4.828   5.210
 5761TIP3    H217248   0.761   4.838   5.140
 5762TIP3   OH217249   5.674   6.199   3.246
 5762TIP3    H117250   5.656   6.110   3.216
 5762TIP3    H217251   5.767   6.212   3.229
 5763TIP3   OH217252   3.590   0.347   5.100
 5763TIP3    H117253   3.515   0.351   5.159
 5763TIP3    H217254   3.564   0.285   5.032
 5764TIP3   OH217255   5.321   5.566   4.732
 5764TIP3    H117256   5.255   5.625   4.767
 5764TIP3    H217257   5.404   5.599   4.768
 5765TIP3   OH217258   4.963   2.743   3.228
 5765TIP3    H117259   4.958   2.661   3.277
 5765TIP3    H217260   4.926   2.722   3.142
 5766TIP3   OH217261   1.629   2.871   5.524
 5766TIP3    H117262   1.611   2.833   5.438
 5766TIP3    H217263   1.580   2.815   5.585
 5767TIP3   OH217264   4.300   2.808   5.728
 5767TIP3    H117265   4.314   2.752   5.651
 5767TIP3    H217266   4.224   2.769   5.772
 5768TIP3   OH217267   3.899   2.201   0.646
 5768TIP3    H117268   3.879   2.108   0.634
 5768TIP3    H217269   3.866   2.221   0.733
 5769TIP3   OH217270   3.223   3.984   4.669
 5769TIP3    H117271   3.216   3.936   4.587
 5769TIP3    H217272   3.228   3.915   4.736
 5770TIP3   OH217273   0.659   6.578   4.829
 5770TIP3    H117274   0.566   6.597   4.841
 5770TIP3    H217275   0.682   6.618   4.745
 5771TIP3   OH217276   2.012   0.646   5.227
 5771TIP3    H117277   2.068   0.702   5.174
 5771TIP3    H217278   1.957   0.706   5.277
 5772TIP3   OH217279   0.200   2.955   2.440
 5772TIP3    H117280   0.177   3.038   2.483
 5772TIP3    H217281   0.121   2.929   2.394
 5773TIP3   OH217282   3.401   4.997   4.505
 5773TIP3    H117283   3.407   5.092   4.500
 5773TIP3    H217284   3.402   4.968   4.413
 5774TIP3   OH217285   2.437   1.047   3.156
 5774TIP3    H117286   2.514   1.092   3.192
 5774TIP3    H217287   2.404   1.106   3.088
 5775TIP3   OH217288   0.468   6.526   1.140
 5775TIP3    H117289   0.447   6.496   1.051
 5775TIP3    H217290   0.554   6.488   1.158
 5776TIP3   OH217291   5.054   4.770   0.407
 5776TIP3    H117292   5.078   4.768   0.500
 5776TIP3    H217293   5.042   4.678   0.384
 5777TIP3   OH217294   7.226   4.523   4.004
 5777TIP3    H117295   7.194   4.611   3.984
 5777TIP3    H217296   7.167   4.464   3.956
 5778TIP3   OH217297   4.353   5.510   3.342
 5778TIP3    H117298   4.275   5.511   3.397
 5778TIP3    H217299   4.359   5.599   3.307
 5779TIP3   OH217300   4.058   5.980   3.836
 5779TIP3    H117301   4.036   6.067   3.801
 5779TIP3    H217302   4.087   5.997   3.925
 5780TIP3   OH217303   4.975   3.612   1.580
 5780TIP3    H117304   5.066   3.596   1.602
 5780TIP3    H217305   4.926   3.573   1.652
 5781TIP3   OH217306   6.411   3.522   0.850
 5781TIP3    H117307   6.478   3.507   0.917
 5781TIP3    H217308   6.374   3.435   0.834
 5782TIP3   OH217309   2.375   5.231   3.650
 5782TIP3    H117310   2.458   5.212   3.606
 5782TIP3    H217311   2.374   5.326   3.659
 5783TIP3   OH217312   1.336   0.147   0.093
 5783TIP3    H117313   1.406   0.146   0.158
 5783TIP3    H217314   1.379   0.175   0.012
 5784TIP3   OH217315   5.813   1.532   0.804
 5784TIP3    H117316   5.758   1.540   0.882
 5784TIP3    H217317   5.753   1.549   0.731
 5785TIP3   OH217318   4.130   4.861   5.521
 5785TIP3    H117319   4.053   4.893   5.474
 5785TIP3    H217320   4.203   4.876   5.461
 5786TIP3   OH217321   3.753   3.323   4.100
 5786TIP3    H117322   3.687   3.261   4.070
 5786TIP3    H217323   3.785   3.365   4.020
 5787TIP3   OH217324   4.134   1.687   5.263
 5787TIP3    H117325   4.155   1.658   5.174
 5787TIP3    H217326   4.193   1.761   5.279
 5788TIP3   OH217327   6.817   0.988   2.569
 5788TIP3    H117328   6.804   0.903   2.612
 5788TIP3    H217329   6.853   1.044   2.637
 5789TIP3   OH217330   7.211   1.329   2.930
 5789TIP3    H117331   7.184   1.358   3.017
 5789TIP3    H217332   7.182   1.238   2.924
 5790TIP3   OH217333   4.249   5.886   4.599
 5790TIP3    H117334   4.230   5.793   4.594
 5790TIP3    H217335   4.195   5.918   4.672
 5791TIP3   OH217336   6.973   4.678   1.093
 5791TIP3    H117337   6.934   4.719   1.015
 5791TIP3    H217338   6.939   4.588   1.092
 5792TIP3   OH217339   1.841   4.456   3.274
 5792TIP3    H117340   1.795   4.506   3.341
 5792TIP3    H217341   1.901   4.519   3.233
 5793TIP3   OH217342   2.113   0.794   4.833
 5793TIP3    H117343   2.135   0.857   4.763
 5793TIP3    H217344   2.184   0.803   4.896
 5794TIP3   OH217345   2.196   4.132   4.640
 5794TIP3    H117346   2.285   4.165   4.629
 5794TIP3    H217347   2.207   4.049   4.686
 5795TIP3   OH217348   5.809   0.359   4.400
 5795TIP3    H117349   5.781   0.450   4.413
 5795TIP3    H217350   5.762   0.309   4.467
 5796TIP3   OH217351   5.291   1.785   5.470
 5796TIP3    H117352   5.248   1.795   5.385
 5796TIP3    H217353   5.301   1.690   5.481
 5797TIP3   OH217354   1.964   3.848   5.058
 5797TIP3    H117355   2.007   3.913   5.003
 5797TIP3    H217356   1.954   3.771   5.001
 5798TIP3   OH217357   3.829   5.479   3.131
 5798TIP3    H117358   3.801   5.556   3.083
 5798TIP3    H217359   3.836   5.509   3.222
 5799TIP3   OH217360   6.092   2.373   5.636
 5799TIP3    H117361   6.059   2.304   5.579
 5799TIP3    H217362   6.084   2.337   5.724
 5800TIP3   OH217363   4.215   2.568   1.108
 5800TIP3    H117364   4.301   2.572   1.065
 5800TIP3    H217365   4.177   2.485   1.078
 5801TIP3   OH217366   4.848   6.295   5.319
 5801TIP3    H117367   4.856   6.384   5.353
 5801TIP3    H217368   4.756   6.272   5.332
 5802TIP3   OH217369   4.444   4.772   4.228
 5802TIP3    H117370   4.402   4.752   4.312
 5802TIP3    H217371   4.515   4.708   4.221
 5803TIP3   OH217372   2.714   6.719   2.410
 5803TIP3    H117373   2.643   6.780   2.387
 5803TIP3    H217374   2.726   6.732   2.504
 5804TIP3   OH217375   0.461   5.264   1.409
 5804TIP3    H117376   0.437   5.353   1.382
 5804TIP3    H217377   0.475   5.217   1.327
 5805TIP3   OH217378   2.753   5.659   4.126
 5805TIP3    H117379   2.826   5.678   4.068
 5805TIP3    H217380   2.719   5.575   4.095
 5806TIP3   OH217381   2.696   1.653   1.414
 5806TIP3    H117382   2.617   1.706   1.427
 5806TIP3    H217383   2.727   1.676   1.327
 5807TIP3   OH217384   0.843   5.626   4.028
 5807TIP3    H117385   0.920   5.673   3.998
 5807TIP3    H217386   0.781   5.633   3.956
 5808TIP3   OH217387   1.555   2.957   1.563
 5808TIP3    H117388   1.574   2.898   1.636
 5808TIP3    H217389   1.477   3.005   1.591
 5809TIP3   OH217390   1.304   4.556   0.907
 5809TIP3    H117391   1.229   4.593   0.954
 5809TIP3    H217392   1.267   4.519   0.827
 5810TIP3   OH217393   5.235   2.209   2.093
 5810TIP3    H117394   5.222   2.234   2.185
 5810TIP3    H217395   5.329   2.214   2.079
 5811TIP3   OH217396   3.273   4.588   3.586
 5811TIP3    H117397   3.185   4.612   3.557
 5811TIP3    H217398   3.332   4.638   3.529
 5812TIP3   OH217399   4.184   5.704   0.232
 5812TIP3    H117400   4.109   5.759   0.252
 5812TIP3    H217401   4.200   5.718   0.139
 5813TIP3   OH217402   2.454   3.230   1.063
 5813TIP3    H117403   2.539   3.265   1.036
 5813TIP3    H217404   2.475   3.168   1.133
 5814TIP3   OH217405   0.230   0.588   1.869
 5814TIP3    H117406   0.234   0.643   1.948
 5814TIP3    H217407   0.209   0.650   1.799
 5815TIP3   OH217408   0.456   4.802   0.650
 5815TIP3    H117409   0.421   4.772   0.567
 5815TIP3    H217410   0.427   4.893   0.658
 5816TIP3   OH217411   4.259   5.993   0.215
 5816TIP3    H117412   4.317   6.035   0.279
 5816TIP3    H217413   4.283   5.901   0.217
 5817TIP3   OH217414   0.635   5.050   3.158
 5817TIP3    H117415   0.560   5.106   3.177
 5817TIP3    H217416   0.660   5.073   3.069
 5818TIP3   OH217417   6.777   5.008   5.108
 5818TIP3    H117418   6.768   5.087   5.161
 5818TIP3    H217419   6.862   4.972   5.132
 5819TIP3   OH217420   1.249   3.075   4.800
 5819TIP3    H117421   1.169   3.115   4.768
 5819TIP3    H217422   1.291   3.143   4.852
 5820TIP3   OH217423   6.378   0.213   3.836
 5820TIP3    H117424   6.383   0.277   3.907
 5820TIP3    H217425   6.407   0.262   3.758
 5821TIP3   OH217426   2.338   1.654   5.833
 5821TIP3    H117427   2.344   1.566   5.796
 5821TIP3    H217428   2.385   1.710   5.772
 5822TIP3   OH217429   1.603   5.384   0.562
 5822TIP3    H117430   1.557   5.345   0.636
 5822TIP3    H217431   1.651   5.458   0.599
 5823TIP3   OH217432   4.995   6.526   4.281
 5823TIP3    H117433   5.034   6.523   4.368
 5823TIP3    H217434   4.917   6.581   4.292
 5824TIP3   OH217435   1.391   4.442   4.297
 5824TIP3    H117436   1.392   4.375   4.365
 5824TIP3    H217437   1.363   4.522   4.343
 5825TIP3   OH217438   0.589   0.663   5.931
 5825TIP3    H117439   0.536   0.663   6.010
 5825TIP3    H217440   0.552   0.734   5.878
 5826TIP3   OH217441   0.255   3.367   4.256
 5826TIP3    H117442   0.170   3.330   4.234
 5826TIP3    H217443   0.240   3.462   4.261
 5827TIP3   OH217444   6.186   4.827   1.426
 5827TIP3    H117445   6.190   4.918   1.457
 5827TIP3    H217446   6.096   4.800   1.442
 5828TIP3   OH217447   0.507   1.033   3.857
 5828TIP3    H117448   0.568   1.105   3.873
 5828TIP3    H217449   0.553   0.977   3.794
 5829TIP3   OH217450   0.095   3.494   2.644
 5829TIP3    H117451   0.088   3.514   2.550
 5829TIP3    H217452   0.038   3.558   2.686
 5830TIP3   OH217453   7.053   1.324   5.101
 5830TIP3    H117454   7.058   1.346   5.194
 5830TIP3    H217455   7.114   1.251   5.090
 5831TIP3   OH217456   2.707   2.550   4.783
 5831TIP3    H117457   2.737   2.635   4.753
 5831TIP3    H217458   2.612   2.557   4.785
 5832TIP3   OH217459   3.812   3.654   0.938
 5832TIP3    H117460   3.860   3.582   0.980
 5832TIP3    H217461   3.755   3.688   1.007
 5833TIP3   OH217462   5.447   2.890   4.158
 5833TIP3    H117463   5.424   2.831   4.230
 5833TIP3    H217464   5.416   2.976   4.187
 5834TIP3   OH217465   2.426   5.779   2.061
 5834TIP3    H117466   2.372   5.768   2.139
 5834TIP3    H217467   2.425   5.873   2.044
 5835TIP3   OH217468   3.525   4.598   4.953
 5835TIP3    H117469   3.601   4.583   5.010
 5835TIP3    H217470   3.515   4.517   4.903
 5836TIP3   OH217471   6.969   2.803   1.058
 5836TIP3    H117472   6.874   2.817   1.057
 5836TIP3    H217473   6.998   2.837   1.143
 5837TIP3   OH217474   5.261   5.354   2.214
 5837TIP3    H117475   5.172   5.355   2.181
 5837TIP3    H217476   5.310   5.408   2.152
 5838TIP3   OH217477   7.000   0.835   4.013
 5838TIP3    H117478   7.050   0.854   4.093
 5838TIP3    H217479   6.909   0.831   4.043
 5839TIP3   OH217480   3.109   3.301   5.531
 5839TIP3    H117481   3.153   3.350   5.462
 5839TIP3    H217482   3.069   3.227   5.485
 5840TIP3   OH217483   0.786   4.686   0.987
 5840TIP3    H117484   0.757   4.725   0.904
 5840TIP3    H217485   0.712   4.697   1.046
 5841TIP3   OH217486   2.556   1.396   3.960
 5841TIP3    H117487   2.476   1.349   3.937
 5841TIP3    H217488   2.525   1.473   4.007
 5842TIP3   OH217489   4.829   1.799   3.962
 5842TIP3    H117490   4.898   1.754   3.913
 5842TIP3    H217491   4.869   1.882   3.988
 5843TIP3   OH217492   6.626   3.068   3.325
 5843TIP3    H117493   6.628   2.976   3.350
 5843TIP3    H217494   6.714   3.100   3.344
 5844TIP3   OH217495   4.093   0.955   0.645
 5844TIP3    H117496   4.147   0.975   0.721
 5844TIP3    H217497   4.124   0.870   0.615
 5845TIP3   OH217498   0.804   0.171   3.420
 5845TIP3    H117499   0.740   0.229   3.461
 5845TIP3    H217500   0.803   0.092   3.475
 5846TIP3   OH217501   3.085   3.459   3.706
 5846TIP3    H117502   3.160   3.419   3.663
 5846TIP3    H217503   3.022   3.477   3.635
 5847TIP3   OH217504   1.950   3.188   2.562
 5847TIP3    H117505   2.010   3.177   2.635
 5847TIP3    H217506   1.947   3.283   2.546
 5848TIP3   OH217507   0.201   2.079   5.664
 5848TIP3    H117508   0.114   2.110   5.689
 5848TIP3    H217509   0.258   2.105   5.737
 5849TIP3   OH217510   1.773   3.581   1.235
 5849TIP3    H117511   1.834   3.588   1.162
 5849TIP3    H217512   1.828   3.590   1.313
 5850TIP3   OH217513   2.488   5.483   5.090
 5850TIP3    H117514   2.552   5.500   5.022
 5850TIP3    H217515   2.538   5.482   5.171
 5851TIP3   OH217516   2.324   3.526   2.118
 5851TIP3    H117517   2.403   3.515   2.170
 5851TIP3    H217518   2.262   3.463   2.155
 5852TIP3   OH217519   1.740   3.942   2.572
 5852TIP3    H117520   1.672   3.980   2.516
 5852TIP3    H217521   1.739   3.849   2.551
 5853TIP3   OH217522   6.281   6.722   0.614
 5853TIP3    H117523   6.327   6.682   0.541
 5853TIP3    H217524   6.189   6.722   0.588
 5854TIP3   OH217525   3.438   3.190   4.957
 5854TIP3    H117526   3.491   3.120   4.996
 5854TIP3    H217527   3.487   3.216   4.879
 5855TIP3   OH217528   1.928   1.091   5.241
 5855TIP3    H117529   1.952   1.144   5.165
 5855TIP3    H217530   1.857   1.035   5.209
 5856TIP3   OH217531   1.532   1.844   4.164
 5856TIP3    H117532   1.516   1.921   4.218
 5856TIP3    H217533   1.572   1.781   4.224
 5857TIP3   OH217534   2.556   4.109   5.742
 5857TIP3    H117535   2.609   4.174   5.694
 5857TIP3    H217536   2.559   4.140   5.832
 5858TIP3   OH217537   1.347   3.318   2.688
 5858TIP3    H117538   1.271   3.262   2.669
 5858TIP3    H217539   1.314   3.407   2.672
 5859TIP3   OH217540   6.328   0.365   1.396
 5859TIP3    H117541   6.342   0.385   1.303
 5859TIP3    H217542   6.234   0.347   1.403
 5860TIP3   OH217543   3.536   3.037   4.261
 5860TIP3    H117544   3.490   3.065   4.182
 5860TIP3    H217545   3.497   2.953   4.283
 5861TIP3   OH217546   3.460   0.973   0.764
 5861TIP3    H117547   3.520   1.044   0.742
 5861TIP3    H217548   3.463   0.968   0.860
 5862TIP3   OH217549   2.552   2.283   3.561
 5862TIP3    H117550   2.534   2.311   3.471
 5862TIP3    H217551   2.648   2.274   3.564
 5863TIP3   OH217552   3.795   6.194   3.458
 5863TIP3    H117553   3.703   6.220   3.456
 5863TIP3    H217554   3.806   6.139   3.380
 5864TIP3   OH217555   5.699   1.955   4.542
 5864TIP3    H117556   5.628   1.978   4.481
 5864TIP3    H217557   5.777   1.951   4.486
 5865TIP3   OH217558   4.932   2.860   5.697
 5865TIP3    H117559   4.970   2.945   5.676
 5865TIP3    H217560   4.838   2.875   5.699
 5866TIP3   OH217561   0.750   6.288   0.046
 5866TIP3    H117562   0.763   6.237   0.126
 5866TIP3    H217563   0.674   6.343   0.066
 5867TIP3   OH217564   4.494   2.759   4.651
 5867TIP3    H117565   4.418   2.802   4.610
 5867TIP3    H217566   4.545   2.832   4.687
 5868TIP3   OH217567   3.757   0.196   3.565
 5868TIP3    H117568   3.813   0.273   3.557
 5868TIP3    H217569   3.677   0.228   3.605
 5869TIP3   OH217570   4.608   3.595   5.794
 5869TIP3    H117571   4.623   3.502   5.811
 5869TIP3    H217572   4.609   3.602   5.698
 5870TIP3   OH217573   4.311   2.959   0.337
 5870TIP3    H117574   4.324   2.959   0.432
 5870TIP3    H217575   4.314   3.052   0.313
 5871TIP3   OH217576   7.183   5.971   3.673
 5871TIP3    H117577   7.231   6.054   3.668
 5871TIP3    H217578   7.229   5.913   3.614
 5872TIP3   OH217579   5.850   1.824   0.736
 5872TIP3    H117580   5.806   1.756   0.786
 5872TIP3    H217581   5.782   1.860   0.679
 5873TIP3   OH217582   1.438   3.760   1.612
 5873TIP3    H117583   1.511   3.796   1.663
 5873TIP3    H217584   1.451   3.665   1.615
 5874TIP3   OH217585   5.513   6.422   0.799
 5874TIP3    H117586   5.576   6.471   0.746
 5874TIP3    H217587   5.567   6.359   0.847
 5875TIP3   OH217588   2.138   1.587   3.488
 5875TIP3    H117589   2.183   1.504   3.499
 5875TIP3    H217590   2.183   1.647   3.547
 5876TIP3   OH217591   5.963   5.325   4.123
 5876TIP3    H117592   6.027   5.274   4.074
 5876TIP3    H217593   5.984   5.308   4.215
 5877TIP3   OH217594   1.716   3.922   0.924
 5877TIP3    H117595   1.778   3.963   0.985
 5877TIP3    H217596   1.630   3.942   0.961
 5878TIP3   OH217597   5.220   1.945   1.177
 5878TIP3    H117598   5.127   1.947   1.155
 5878TIP3    H217599   5.260   1.894   1.106
 5879TIP3   OH217600   5.694   1.120   2.456
 5879TIP3    H117601   5.620   1.061   2.472
 5879TIP3    H217602   5.771   1.067   2.476
 5880TIP3   OH217603   5.781   1.332   4.509
 5880TIP3    H117604   5.756   1.424   4.507
 5880TIP3    H217605   5.701   1.285   4.531
 5881TIP3   OH217606   1.313   4.114   1.534
 5881TIP3    H117607   1.249   4.043   1.526
 5881TIP3    H217608   1.383   4.089   1.473
 5882TIP3   OH217609   7.132   3.724   0.311
 5882TIP3    H117610   7.125   3.708   0.405
 5882TIP3    H217611   7.223   3.705   0.290
 5883TIP3   OH217612   4.410   2.714   0.288
 5883TIP3    H117613   4.390   2.807   0.296
 5883TIP3    H217614   4.341   2.670   0.338
 5884TIP3   OH217615   5.354   5.105   2.304
 5884TIP3    H117616   5.341   5.196   2.275
 5884TIP3    H217617   5.303   5.053   2.242
 5885TIP3   OH217618   2.592   6.316   1.314
 5885TIP3    H117619   2.646   6.386   1.278
 5885TIP3    H217620   2.512   6.317   1.261
 5886TIP3   OH217621   1.056   1.367   2.833
 5886TIP3    H117622   1.124   1.395   2.894
 5886TIP3    H217623   0.974   1.383   2.879
 5887TIP3   OH217624   1.148   6.196   3.346
 5887TIP3    H117625   1.081   6.201   3.278
 5887TIP3    H217626   1.202   6.274   3.332
 5888TIP3   OH217627   3.769   4.881   2.222
 5888TIP3    H117628   3.787   4.837   2.139
 5888TIP3    H217629   3.684   4.923   2.208
 5889TIP3   OH217630   0.330   2.212   3.701
 5889TIP3    H117631   0.368   2.287   3.654
 5889TIP3    H217632   0.405   2.171   3.745
 5890TIP3   OH217633   3.512   3.035   0.222
 5890TIP3    H117634   3.456   3.059   0.149
 5890TIP3    H217635   3.577   2.975   0.184
 5891TIP3   OH217636   5.457   2.554   2.508
 5891TIP3    H117637   5.361   2.557   2.503
 5891TIP3    H217638   5.486   2.627   2.454
 5892TIP3   OH217639   1.832   2.106   1.640
 5892TIP3    H117640   1.890   2.104   1.716
 5892TIP3    H217641   1.889   2.127   1.567
 5893TIP3   OH217642   0.404   3.395   2.495
 5893TIP3    H117643   0.478   3.442   2.532
 5893TIP3    H217644   0.424   3.387   2.402
 5894TIP3   OH217645   3.588   4.929   0.054
 5894TIP3    H117646   3.624   4.959   0.137
 5894TIP3    H217647   3.658   4.943  -0.010
 5895TIP3   OH217648   6.331   5.961   2.568
 5895TIP3    H117649   6.271   5.890   2.544
 5895TIP3    H217650   6.283   6.012   2.633
 5896TIP3   OH217651   1.289   0.128   1.054
 5896TIP3    H117652   1.333   0.066   1.113
 5896TIP3    H217653   1.277   0.078   0.973
 5897TIP3   OH217654   0.420   4.583   4.477
 5897TIP3    H117655   0.459   4.548   4.397
 5897TIP3    H217656   0.395   4.672   4.454
 5898TIP3   OH217657   1.112   0.488   2.161
 5898TIP3    H117658   1.076   0.427   2.097
 5898TIP3    H217659   1.129   0.568   2.111
 5899TIP3   OH217660   4.051   1.031   1.626
 5899TIP3    H117661   4.146   1.038   1.619
 5899TIP3    H217662   4.034   1.018   1.719
 5900TIP3   OH217663   0.358   5.748   3.759
 5900TIP3    H117664   0.305   5.810   3.810
 5900TIP3    H217665   0.310   5.665   3.765
 5901TIP3   OH217666   2.014   2.457   5.037
 5901TIP3    H117667   1.923   2.437   5.017
 5901TIP3    H217668   2.022   2.551   5.020
 5902TIP3   OH217669   1.694   0.312   0.093
 5902TIP3    H117670   1.649   0.323   0.009
 5902TIP3    H217671   1.765   0.377   0.091
 5903TIP3   OH217672   1.283   3.239   1.966
 5903TIP3    H117673   1.243   3.284   2.041
 5903TIP3    H217674   1.377   3.254   1.977
 5904TIP3   OH217675   1.362   2.689   4.775
 5904TIP3    H117676   1.280   2.712   4.818
 5904TIP3    H217677   1.359   2.594   4.766
 5905TIP3   OH217678   3.704   6.310   1.411
 5905TIP3    H117679   3.660   6.362   1.344
 5905TIP3    H217680   3.698   6.364   1.490
 5906TIP3   OH217681   4.235   4.593   3.634
 5906TIP3    H117682   4.221   4.500   3.651
 5906TIP3    H217683   4.300   4.595   3.563
 5907TIP3   OH217684   5.393   2.562   3.770
 5907TIP3    H117685   5.472   2.516   3.799
 5907TIP3    H217686   5.406   2.652   3.798
 5908TIP3   OH217687   1.956   2.059   1.385
 5908TIP3    H117688   2.004   2.013   1.316
 5908TIP3    H217689   2.024   2.094   1.442
 5909TIP3   OH217690   2.644   4.529   4.129
 5909TIP3    H117691   2.570   4.558   4.075
 5909TIP3    H217692   2.720   4.535   4.071
 5910TIP3   OH217693   4.015   0.264   4.719
 5910TIP3    H117694   4.044   0.355   4.710
 5910TIP3    H217695   4.011   0.250   4.813
 5911TIP3   OH217696   5.295   5.594   0.592
 5911TIP3    H117697   5.299   5.649   0.671
 5911TIP3    H217698   5.380   5.549   0.590
 5912TIP3   OH217699   5.619   3.622   0.235
 5912TIP3    H117700   5.587   3.711   0.221
 5912TIP3    H217701   5.602   3.603   0.327
 5913TIP3   OH217702   5.538   3.176   2.648
 5913TIP3    H117703   5.495   3.128   2.576
 5913TIP3    H217704   5.530   3.118   2.723
 5914TIP3   OH217705   1.861   5.674   5.491
 5914TIP3    H117706   1.834   5.739   5.427
 5914TIP3    H217707   1.957   5.676   5.488
 5915TIP3   OH217708   0.740   2.574   2.148
 5915TIP3    H117709   0.645   2.581   2.140
 5915TIP3    H217710   0.770   2.543   2.063
 5916TIP3   OH217711   0.473   0.608   0.928
 5916TIP3    H117712   0.544   0.609   0.864
 5916TIP3    H217713   0.499   0.673   0.994
 5917TIP3   OH217714   6.349   2.511   3.697
 5917TIP3    H117715   6.401   2.531   3.619
 5917TIP3    H217716   6.406   2.453   3.748
 5918TIP3   OH217717   5.082   2.998   3.290
 5918TIP3    H117718   5.031   2.920   3.267
 5918TIP3    H217719   5.164   2.963   3.325
 5919TIP3   OH217720   0.015   2.432   5.815
 5919TIP3    H117721  -0.056   2.437   5.879
 5919TIP3    H217722   0.089   2.475   5.858
 5920TIP3   OH217723   5.479   2.987   5.240
 5920TIP3    H117724   5.484   3.076   5.273
 5920TIP3    H217725   5.560   2.975   5.190
 5921TIP3   OH217726   4.495   0.071   0.114
 5921TIP3    H117727   4.518   0.085   0.023
 5921TIP3    H217728   4.576   0.084   0.162
 5922TIP3   OH217729   4.027   1.808   0.816
 5922TIP3    H117730   3.972   1.750   0.763
 5922TIP3    H217731   4.083   1.853   0.753
 5923TIP3   OH217732   2.472   6.129   1.486
 5923TIP3    H117733   2.524   6.197   1.442
 5923TIP3    H217734   2.490   6.049   1.437
 5924TIP3   OH217735   4.413   3.080   5.302
 5924TIP3    H117736   4.493   3.059   5.350
 5924TIP3    H217737   4.442   3.099   5.213
 5925TIP3   OH217738   5.361   3.822   1.459
 5925TIP3    H117739   5.289   3.859   1.510
 5925TIP3    H217740   5.391   3.895   1.405
 5926TIP3   OH217741   0.494   5.656   2.807
 5926TIP3    H117742   0.399   5.671   2.797
 5926TIP3    H217743   0.516   5.596   2.735
 5927TIP3   OH217744   6.583   0.814   0.794
 5927TIP3    H117745   6.499   0.824   0.749
 5927TIP3    H217746   6.619   0.902   0.799
 5928TIP3   OH217747   5.991   4.501   1.814
 5928TIP3    H117748   5.921   4.563   1.793
 5928TIP3    H217749   6.045   4.498   1.735
 5929TIP3   OH217750   3.616   2.179   3.760
 5929TIP3    H117751   3.570   2.237   3.820
 5929TIP3    H217752   3.683   2.137   3.814
 5930TIP3   OH217753   7.015   3.973   2.045
 5930TIP3    H117754   7.025   4.049   1.989
 5930TIP3    H217755   7.040   3.899   1.989
 5931TIP3   OH217756   4.497   4.549   0.478
 5931TIP3    H117757   4.579   4.501   0.486
 5931TIP3    H217758   4.513   4.632   0.524
 5932TIP3   OH217759   7.039   0.152   4.253
 5932TIP3    H117760   7.021   0.230   4.305
 5932TIP3    H217761   7.135   0.146   4.253
 5933TIP3   OH217762   2.372   1.198   3.985
 5933TIP3    H117763   2.288   1.161   4.012
 5933TIP3    H217764   2.392   1.153   3.903
 5934TIP3   OH217765   6.098   1.581   0.911
 5934TIP3    H117766   6.181   1.589   0.865
 5934TIP3    H217767   6.034   1.561   0.843
 5935TIP3   OH217768   0.499   3.808   2.159
 5935TIP3    H117769   0.511   3.894   2.120
 5935TIP3    H217770   0.465   3.826   2.247
 5936TIP3   OH217771   2.138   4.165   4.113
 5936TIP3    H117772   2.056   4.214   4.108
 5936TIP3    H217773   2.142   4.132   4.202
 5937TIP3   OH217774   7.017   0.741   0.443
 5937TIP3    H117775   7.109   0.723   0.423
 5937TIP3    H217776   6.979   0.656   0.464
 5938TIP3   OH217777   6.628   3.955  -0.002
 5938TIP3    H117778   6.699   3.930  -0.062
 5938TIP3    H217779   6.628   4.050  -0.003
 5939TIP3   OH217780   7.160   6.050   0.228
 5939TIP3    H117781   7.161   6.129   0.281
 5939TIP3    H217782   7.210   5.986   0.280
 5940TIP3   OH217783   3.283   2.796   2.849
 5940TIP3    H117784   3.374   2.800   2.877
 5940TIP3    H217785   3.243   2.731   2.907
 5941TIP3   OH217786   6.124   2.830   3.132
 5941TIP3    H117787   6.121   2.881   3.051
 5941TIP3    H217788   6.139   2.740   3.102
 5942TIP3   OH217789   3.320   1.824   2.170
 5942TIP3    H117790   3.256   1.838   2.239
 5942TIP3    H217791   3.274   1.846   2.089
 5943TIP3   OH217792   1.263   6.608   0.337
 5943TIP3    H117793   1.207   6.684   0.354
 5943TIP3    H217794   1.209   6.550   0.284
 5944TIP3   OH217795   0.605   0.339   0.692
 5944TIP3    H117796   0.514   0.341   0.662
 5944TIP3    H217797   0.606   0.270   0.759
 5945TIP3   OH217798   5.207   4.585   4.204
 5945TIP3    H117799   5.240   4.675   4.202
 5945TIP3    H217800   5.265   4.540   4.265
 5946TIP3   OH217801   6.783   3.957   4.788
 5946TIP3    H117802   6.747   4.021   4.849
 5946TIP3    H217803   6.710   3.899   4.768
 5947TIP3   OH217804   6.145   2.396   2.156
 5947TIP3    H117805   6.199   2.475   2.158
 5947TIP3    H217806   6.204   2.326   2.183
 5948TIP3   OH217807   4.546   4.538   0.198
 5948TIP3    H117808   4.525   4.572   0.285
 5948TIP3    H217809   4.506   4.601   0.138
 5949TIP3   OH217810   2.309   5.240   3.315
 5949TIP3    H117811   2.402   5.236   3.338
 5949TIP3    H217812   2.300   5.180   3.241
 5950TIP3   OH217813   1.935   3.480   4.394
 5950TIP3    H117814   1.933   3.545   4.323
 5950TIP3    H217815   1.933   3.531   4.474
 5951TIP3   OH217816   3.175   2.426   0.408
 5951TIP3    H117817   3.159   2.430   0.314
 5951TIP3    H217818   3.271   2.430   0.415
 5952TIP3   OH217819   5.068   3.917   5.071
 5952TIP3    H117820   4.987   3.949   5.111
 5952TIP3    H217821   5.097   3.846   5.129
 5953TIP3   OH217822   3.324   1.007   4.409
 5953TIP3    H117823   3.273   1.039   4.483
 5953TIP3    H217824   3.353   0.920   4.436
 5954TIP3   OH217825   4.267   3.612   2.805
 5954TIP3    H117826   4.261   3.694   2.854
 5954TIP3    H217827   4.330   3.560   2.854
 5955TIP3   OH217828   5.394   1.418   2.409
 5955TIP3    H117829   5.467   1.382   2.461
 5955TIP3    H217830   5.315   1.385   2.453
 5956TIP3   OH217831   1.354   5.191   5.524
 5956TIP3    H117832   1.382   5.256   5.588
 5956TIP3    H217833   1.422   5.194   5.456
 5957TIP3   OH217834   2.217   6.500   2.966
 5957TIP3    H117835   2.185   6.420   2.926
 5957TIP3    H217836   2.149   6.526   3.028
 5958TIP3   OH217837   1.476   6.767   4.571
 5958TIP3    H117838   1.541   6.729   4.630
 5958TIP3    H217839   1.434   6.692   4.530
 5959TIP3   OH217840   6.026   0.800   0.977
 5959TIP3    H117841   6.034   0.711   0.945
 5959TIP3    H217842   6.111   0.819   1.016
 5960TIP3   OH217843   2.138   3.083   1.874
 5960TIP3    H117844   2.146   3.135   1.794
 5960TIP3    H217845   2.228   3.056   1.894
 5961TIP3   OH217846   2.525   0.840   0.836
 5961TIP3    H117847   2.599   0.783   0.816
 5961TIP3    H217848   2.452   0.803   0.787
 5962TIP3   OH217849   4.065   0.325   4.038
 5962TIP3    H117850   4.120   0.298   3.965
 5962TIP3    H217851   3.996   0.378   3.998
 5963TIP3   OH217852   5.404   0.725   4.835
 5963TIP3    H117853   5.434   0.634   4.836
 5963TIP3    H217854   5.321   0.723   4.882
 5964TIP3   OH217855   6.727   4.410   0.409
 5964TIP3    H117856   6.666   4.466   0.361
 5964TIP3    H217857   6.710   4.322   0.377
 5965TIP3   OH217858   3.547   4.693   1.834
 5965TIP3    H117859   3.508   4.606   1.834
 5965TIP3    H217860   3.536   4.724   1.924
 5966TIP3   OH217861   0.425   4.772   3.460
 5966TIP3    H117862   0.486   4.725   3.517
 5966TIP3    H217863   0.450   4.747   3.371
 5967TIP3   OH217864   1.637   4.972   2.073
 5967TIP3    H117865   1.695   4.906   2.036
 5967TIP3    H217866   1.554   4.926   2.088
 5968TIP3   OH217867   5.265   3.316   4.391
 5968TIP3    H117868   5.203   3.371   4.345
 5968TIP3    H217869   5.343   3.314   4.334
 5969TIP3   OH217870   3.235   0.040   1.750
 5969TIP3    H117871   3.193  -0.037   1.787
 5969TIP3    H217872   3.307   0.060   1.810
 5970TIP3   OH217873   6.016   5.245   0.441
 5970TIP3    H117874   6.058   5.330   0.452
 5970TIP3    H217875   6.088   5.182   0.445
 5971TIP3   OH217876   0.966   3.638   1.164
 5971TIP3    H117877   0.891   3.696   1.180
 5971TIP3    H217878   0.928   3.550   1.165
 5972TIP3   OH217879   0.231   2.494   1.887
 5972TIP3    H117880   0.149   2.544   1.892
 5972TIP3    H217881   0.209   2.409   1.926
 5973TIP3   OH217882   6.793   2.807   1.902
 5973TIP3    H117883   6.767   2.822   1.811
 5973TIP3    H217884   6.848   2.728   1.898
 5974TIP3   OH217885   4.869   3.689   2.022
 5974TIP3    H117886   4.878   3.614   2.081
 5974TIP3    H217887   4.942   3.746   2.046
 5975TIP3   OH217888   6.622   1.632   1.561
 5975TIP3    H117889   6.682   1.558   1.573
 5975TIP3    H217890   6.638   1.688   1.636
 5976TIP3   OH217891   1.800   3.921   5.259
 5976TIP3    H117892   1.861   3.929   5.185
 5976TIP3    H217893   1.806   3.828   5.284
 5977TIP3   OH217894   3.289   1.069   3.957
 5977TIP3    H117895   3.209   1.057   4.007
 5977TIP3    H217896   3.331   0.983   3.957
 5978TIP3   OH217897   6.846   3.567   0.357
 5978TIP3    H117898   6.899   3.567   0.277
 5978TIP3    H217899   6.893   3.509   0.416
 5979TIP3   OH217900   4.285   5.820   1.366
 5979TIP3    H117901   4.295   5.741   1.420
 5979TIP3    H217902   4.364   5.821   1.311
 5980TIP3   OH217903   6.231   1.911   0.993
 5980TIP3    H117904   6.230   1.828   0.946
 5980TIP3    H217905   6.264   1.974   0.929
 5981TIP3   OH217906   2.422   3.819   5.178
 5981TIP3    H117907   2.469   3.739   5.202
 5981TIP3    H217908   2.332   3.790   5.162
 5982TIP3   OH217909   2.021   5.576   2.498
 5982TIP3    H117910   1.939   5.526   2.494
 5982TIP3    H217911   2.089   5.513   2.475
 5983TIP3   OH217912   1.167   1.519   3.429
 5983TIP3    H117913   1.215   1.600   3.413
 5983TIP3    H217914   1.190   1.495   3.519
 5984TIP3   OH217915   2.913   3.693   3.620
 5984TIP3    H117916   2.986   3.692   3.681
 5984TIP3    H217917   2.928   3.770   3.565
 5985TIP3   OH217918   7.110   0.581   3.493
 5985TIP3    H117919   7.041   0.535   3.541
 5985TIP3    H217920   7.075   0.668   3.477
 5986TIP3   OH217921   2.766   6.230   5.606
 5986TIP3    H117922   2.709   6.154   5.593
 5986TIP3    H217923   2.816   6.209   5.684
 5987TIP3   OH217924   0.967   5.842   0.943
 5987TIP3    H117925   0.974   5.848   0.847
 5987TIP3    H217926   0.889   5.893   0.964
 5988TIP3   OH217927   2.805   4.738   0.097
 5988TIP3    H117928   2.763   4.790   0.165
 5988TIP3    H217929   2.775   4.776   0.015
 5989TIP3   OH217930   3.053   4.852   1.264
 5989TIP3    H117931   3.110   4.786   1.224
 5989TIP3    H217932   3.053   4.924   1.202
 5990TIP3   OH217933   3.171   4.075   4.382
 5990TIP3    H117934   3.110   4.002   4.374
 5990TIP3    H217935   3.119   4.152   4.359
 5991TIP3   OH217936   1.989   6.678   4.638
 5991TIP3    H117937   1.918   6.675   4.574
 5991TIP3    H217938   2.012   6.587   4.653
 5992TIP3   OH217939   0.181   0.527   2.273
 5992TIP3    H117940   0.166   0.452   2.217
 5992TIP3    H217941   0.202   0.599   2.213
 5993TIP3   OH217942   6.869   2.489   1.843
 5993TIP3    H117943   6.939   2.450   1.897
 5993TIP3    H217944   6.788   2.454   1.879
 5994TIP3   OH217945   4.302   2.579   5.107
 5994TIP3    H117946   4.222   2.536   5.137
 5994TIP3    H217947   4.372   2.533   5.153
 5995TIP3   OH217948   4.177   1.380   4.133
 5995TIP3    H117949   4.200   1.397   4.224
 5995TIP3    H217950   4.087   1.410   4.124
 5996TIP3   OH217951   0.602   3.064   2.740
 5996TIP3    H117952   0.560   3.145   2.768
 5996TIP3    H217953   0.691   3.090   2.715
 5997TIP3   OH217954   3.199   5.220   5.023
 5997TIP3    H117955   3.275   5.199   4.968
 5997TIP3    H217956   3.178   5.138   5.068
 5998TIP3   OH217957   6.258   5.829   0.798
 5998TIP3    H117958   6.335   5.841   0.853
 5998TIP3    H217959   6.198   5.899   0.825
 5999TIP3   OH217960   4.276   4.939  -0.025
 5999TIP3    H117961   4.324   5.021  -0.011
 5999TIP3    H217962   4.321   4.898  -0.099
 6000TIP3   OH217963   1.029   4.043   4.930
 6000TIP3    H117964   0.958   3.998   4.976
 6000TIP3    H217965   0.994   4.059   4.842
 6001TIP3   OH217966   5.648   6.626   3.312
 6001TIP3    H117967   5.699   6.552   3.283
 6001TIP3    H217968   5.624   6.673   3.232
 6002TIP3   OH217969   3.964   6.288   2.019
 6002TIP3    H117970   3.905   6.247   2.082
 6002TIP3    H217971   4.023   6.341   2.073
 6003TIP3   OH217972   1.513   2.122   4.282
 6003TIP3    H117973   1.477   2.141   4.195
 6003TIP3    H217974   1.562   2.202   4.304
 6004TIP3   OH217975   7.183   0.075   3.135
 6004TIP3    H117976   7.256   0.131   3.108
 6004TIP3    H217977   7.107   0.115   3.094
 6005TIP3   OH217978   6.754   0.570   5.875
 6005TIP3    H117979   6.744   0.621   5.794
 6005TIP3    H217980   6.667   0.536   5.893
 6006TIP3   OH217981   4.736   4.798   1.647
 6006TIP3    H117982   4.681   4.872   1.674
 6006TIP3    H217983   4.742   4.807   1.551
 6007TIP3   OH217984   5.704   2.217   0.117
 6007TIP3    H117985   5.698   2.130   0.077
 6007TIP3    H217986   5.624   2.225   0.169
 6008TIP3   OH217987   2.084   5.146   1.445
 6008TIP3    H117988   2.095   5.238   1.423
 6008TIP3    H217989   2.061   5.104   1.362
 6009TIP3   OH217990   0.974   1.445   2.468
 6009TIP3    H117991   0.940   1.398   2.545
 6009TIP3    H217992   0.924   1.526   2.466
 6010TIP3   OH217993   6.092   0.300   1.274
 6010TIP3    H117994   6.011   0.320   1.322
 6010TIP3    H217995   6.062   0.279   1.185
 6011TIP3   OH217996   3.404   5.588   3.693
 6011TIP3    H117997   3.477   5.649   3.703
 6011TIP3    H217998   3.443   5.511   3.652
 6012TIP3   OH217999   4.350   3.815   2.183
 6012TIP3    H118000   4.353   3.841   2.091
 6012TIP3    H218001   4.413   3.744   2.191
 6013TIP3   OH218002   4.451   3.818   5.162
 6013TIP3    H118003   4.400   3.878   5.108
 6013TIP3    H218004   4.457   3.861   5.247
 6014TIP3   OH218005   2.297   6.580   0.172
 6014TIP3    H118006   2.230   6.647   0.188
 6014TIP3    H218007   2.270   6.538   0.090
 6015TIP3   OH218008   5.450   4.669   3.953
 6015TIP3    H118009   5.521   4.734   3.956
 6015TIP3    H218010   5.398   4.687   4.032
 6016TIP3   OH218011   0.223   6.671   1.072
 6016TIP3    H118012   0.307   6.648   1.112
 6016TIP3    H218013   0.243   6.743   1.013
 6017TIP3   OH218014   6.074   6.047   1.696
 6017TIP3    H118015   6.068   5.989   1.619
 6017TIP3    H218016   6.168   6.056   1.711
 6018TIP3   OH218017   7.119   4.621   1.360
 6018TIP3    H118018   7.067   4.601   1.438
 6018TIP3    H218019   7.071   4.580   1.289
 6019TIP3   OH218020   5.316   2.031   4.076
 6019TIP3    H118021   5.293   2.102   4.017
 6019TIP3    H218022   5.275   2.056   4.159
 6020TIP3   OH218023   4.885   4.732   3.525
 6020TIP3    H118024   4.893   4.772   3.612
 6020TIP3    H218025   4.882   4.806   3.465
 6021TIP3   OH218026   3.649   2.845   0.091
 6021TIP3    H118027   3.729   2.864   0.041
 6021TIP3    H218028   3.646   2.750   0.096
 6022TIP3   OH218029   6.038   5.587   3.135
 6022TIP3    H118030   5.952   5.558   3.165
 6022TIP3    H218031   6.065   5.519   3.073
 6023TIP3   OH218032   3.507   5.167   2.222
 6023TIP3    H118033   3.501   5.184   2.316
 6023TIP3    H218034   3.504   5.071   2.215
 6024TIP3   OH218035   1.177   2.546   5.645
 6024TIP3    H118036   1.151   2.489   5.573
 6024TIP3    H218037   1.139   2.506   5.723
 6025TIP3   OH218038   1.107   6.405   4.561
 6025TIP3    H118039   1.142   6.343   4.497
 6025TIP3    H218040   1.096   6.487   4.512
 6026TIP3   OH218041   0.786   2.475   0.568
 6026TIP3    H118042   0.833   2.449   0.489
 6026TIP3    H218043   0.852   2.518   0.623
 6027TIP3   OH218044   3.807   0.085   2.316
 6027TIP3    H118045   3.867   0.155   2.338
 6027TIP3    H218046   3.744   0.125   2.255
 6028TIP3   OH218047   3.772   1.595   0.938
 6028TIP3    H118048   3.707   1.540   0.982
 6028TIP3    H218049   3.750   1.684   0.965
 6029TIP3   OH218050   6.475   6.399   3.845
 6029TIP3    H118051   6.571   6.398   3.845
 6029TIP3    H218052   6.451   6.361   3.760
 6030TIP3   OH218053   6.516   2.575   3.241
 6030TIP3    H118054   6.554   2.503   3.190
 6030TIP3    H218055   6.573   2.650   3.220
 6031TIP3   OH218056   5.892   2.749   4.655
 6031TIP3    H118057   5.932   2.756   4.569
 6031TIP3    H218058   5.931   2.671   4.693
 6032TIP3   OH218059   3.347   2.670   5.367
 6032TIP3    H118060   3.371   2.584   5.401
 6032TIP3    H218061   3.411   2.730   5.404
 6033TIP3   OH218062   2.085   2.453   3.562
 6033TIP3    H118063   2.153   2.452   3.494
 6033TIP3    H218064   2.056   2.544   3.564
 6034TIP3   OH218065   1.165   1.956   3.784
 6034TIP3    H118066   1.216   1.896   3.839
 6034TIP3    H218067   1.168   1.916   3.697
 6035TIP3   OH218068   5.628   1.778   2.898
 6035TIP3    H118069   5.569   1.805   2.967
 6035TIP3    H218070   5.714   1.809   2.926
 6036TIP3   OH218071   1.091   5.181   5.615
 6036TIP3    H118072   1.108   5.247   5.547
 6036TIP3    H218073   1.178   5.149   5.639
 6037TIP3   OH218074   3.295   1.288   5.884
 6037TIP3    H118075   3.346   1.261   5.807
 6037TIP3    H218076   3.348   1.258   5.958
 6038TIP3   OH218077   3.116   0.727   3.930
 6038TIP3    H118078   3.043   0.728   3.868
 6038TIP3    H218079   3.159   0.643   3.915
 6039TIP3   OH218080   1.485   2.450   2.736
 6039TIP3    H118081   1.557   2.496   2.779
 6039TIP3    H218082   1.426   2.519   2.705
 6040TIP3   OH218083   2.895   2.561   5.754
 6040TIP3    H118084   2.952   2.490   5.783
 6040TIP3    H218085   2.858   2.530   5.672
 6041TIP3   OH218086   5.609   0.532   2.225
 6041TIP3    H118087   5.587   0.577   2.307
 6041TIP3    H218088   5.606   0.439   2.248
 6042TIP3   OH218089   0.444   4.034   3.808
 6042TIP3    H118090   0.436   4.014   3.901
 6042TIP3    H218091   0.428   3.950   3.764
 6043TIP3   OH218092   3.334   1.612   2.439
 6043TIP3    H118093   3.390   1.567   2.375
 6043TIP3    H218094   3.388   1.619   2.517
 6044TIP3   OH218095   3.581   1.574   5.729
 6044TIP3    H118096   3.581   1.657   5.682
 6044TIP3    H218097   3.668   1.537   5.714
 6045TIP3   OH218098   5.163   0.726   4.993
 6045TIP3    H118099   5.091   0.700   5.051
 6045TIP3    H218100   5.143   0.817   4.970
 6046TIP3   OH218101   4.818   3.302   0.840
 6046TIP3    H118102   4.723   3.291   0.829
 6046TIP3    H218103   4.826   3.385   0.887
 6047TIP3   OH218104   6.659   4.915   2.101
 6047TIP3    H118105   6.723   4.875   2.160
 6047TIP3    H218106   6.581   4.927   2.155
 6048TIP3   OH218107   6.418   3.897   4.059
 6048TIP3    H118108   6.475   3.937   4.125
 6048TIP3    H218109   6.331   3.929   4.080
 6049TIP3   OH218110   3.105   1.968   3.839
 6049TIP3    H118111   3.153   1.912   3.900
 6049TIP3    H218112   3.144   1.949   3.753
 6050TIP3   OH218113   0.186   5.197   1.444
 6050TIP3    H118114   0.210   5.106   1.426
 6050TIP3    H218115   0.269   5.242   1.457
 6051TIP3   OH218116   3.717   2.166   2.996
 6051TIP3    H118117   3.771   2.193   2.921
 6051TIP3    H218118   3.776   2.173   3.071
 6052TIP3   OH218119   2.207   0.889   3.241
 6052TIP3    H118120   2.268   0.943   3.191
 6052TIP3    H218121   2.176   0.824   3.178
 6053TIP3   OH218122   5.077   5.672   2.895
 6053TIP3    H118123   5.020   5.601   2.866
 6053TIP3    H218124   5.131   5.693   2.819
 6054TIP3   OH218125   6.267   1.835   1.878
 6054TIP3    H118126   6.212   1.806   1.951
 6054TIP3    H218127   6.313   1.912   1.912
 6055TIP3   OH218128   1.133   2.166   0.358
 6055TIP3    H118129   1.208   2.192   0.304
 6055TIP3    H218130   1.100   2.086   0.317
 6056TIP3   OH218131   3.626   2.417   4.542
 6056TIP3    H118132   3.718   2.389   4.543
 6056TIP3    H218133   3.579   2.341   4.577
 6057TIP3   OH218134   0.843   0.518   1.106
 6057TIP3    H118135   0.865   0.451   1.042
 6057TIP3    H218136   0.853   0.601   1.058
 6058TIP3   OH218137   3.864   3.789   1.747
 6058TIP3    H118138   3.938   3.729   1.739
 6058TIP3    H218139   3.902   3.873   1.769
 6059TIP3   OH218140   5.595   3.563   1.753
 6059TIP3    H118141   5.533   3.618   1.800
 6059TIP3    H218142   5.658   3.624   1.715
 6060TIP3   OH218143   3.812   1.402   5.275
 6060TIP3    H118144   3.880   1.339   5.252
 6060TIP3    H218145   3.742   1.349   5.313
 6061TIP3   OH218146   4.494   3.409   2.041
 6061TIP3    H118147   4.487   3.505   2.040
 6061TIP3    H218148   4.556   3.390   1.970
 6062TIP3   OH218149   7.164   6.672   5.190
 6062TIP3    H118150   7.215   6.699   5.266
 6062TIP3    H218151   7.204   6.717   5.116
 6063TIP3   OH218152   0.669   2.097   5.507
 6063TIP3    H118153   0.722   2.092   5.428
 6063TIP3    H218154   0.731   2.080   5.578
 6064TIP3   OH218155   3.392   4.459   1.822
 6064TIP3    H118156   3.403   4.383   1.765
 6064TIP3    H218157   3.304   4.451   1.857
 6065TIP3   OH218158   6.459   5.380   3.967
 6065TIP3    H118159   6.367   5.388   3.992
 6065TIP3    H218160   6.508   5.404   4.045
 6066TIP3   OH218161   0.427   5.247   3.131
 6066TIP3    H118162   0.355   5.270   3.073
 6066TIP3    H218163   0.394   5.265   3.219
 6067TIP3   OH218164   5.247   6.149   3.352
 6067TIP3    H118165   5.324   6.205   3.342
 6067TIP3    H218166   5.188   6.199   3.409
 6068TIP3   OH218167   2.839   2.488   3.750
 6068TIP3    H118168   2.840   2.393   3.743
 6068TIP3    H218169   2.926   2.516   3.721
 6069TIP3   OH218170   3.159   1.788   4.849
 6069TIP3    H118171   3.088   1.853   4.855
 6069TIP3    H218172   3.162   1.765   4.757
 6070TIP3   OH218173   6.178   2.477   3.279
 6070TIP3    H118174   6.134   2.539   3.337
 6070TIP3    H218175   6.249   2.528   3.239
 6071TIP3   OH218176   6.060   5.195   2.711
 6071TIP3    H118177   6.032   5.286   2.702
 6071TIP3    H218178   6.030   5.169   2.798
 6072TIP3   OH218179   0.781   2.418   5.848
 6072TIP3    H118180   0.771   2.510   5.822
 6072TIP3    H218181   0.711   2.372   5.802
 6073TIP3   OH218182   3.003   5.029   3.732
 6073TIP3    H118183   3.059   4.952   3.726
 6073TIP3    H218184   3.016   5.061   3.822
 6074TIP3   OH218185   6.214   3.500   1.582
 6074TIP3    H118186   6.196   3.477   1.673
 6074TIP3    H218187   6.200   3.419   1.533
 6075TIP3   OH218188   5.490   2.118   1.973
 6075TIP3    H118189   5.557   2.183   1.951
 6075TIP3    H218190   5.507   2.097   2.065
 6076TIP3   OH218191   1.790   0.649   3.140
 6076TIP3    H118192   1.789   0.736   3.102
 6076TIP3    H218193   1.814   0.591   3.068
 6077TIP3   OH218194   5.157   5.113   3.750
 6077TIP3    H118195   5.238   5.062   3.750
 6077TIP3    H218196   5.154   5.154   3.664
 6078TIP3   OH218197   5.266   2.634   3.178
 6078TIP3    H118198   5.340   2.694   3.184
 6078TIP3    H218199   5.249   2.608   3.269
 6079TIP3   OH218200   1.067   1.395   1.577
 6079TIP3    H118201   1.049   1.456   1.649
 6079TIP3    H218202   1.159   1.371   1.587
 6080TIP3   OH218203   5.722   6.460   4.693
 6080TIP3    H118204   5.672   6.541   4.700
 6080TIP3    H218205   5.665   6.399   4.646
 6081TIP3   OH218206   0.097   1.410   5.358
 6081TIP3    H118207   0.182   1.425   5.398
 6081TIP3    H218208   0.060   1.336   5.406
 6082TIP3   OH218209   6.519   0.704   0.116
 6082TIP3    H118210   6.481   0.720   0.029
 6082TIP3    H218211   6.613   0.719   0.104
 6083TIP3   OH218212   5.199   2.928   5.362
 6083TIP3    H118213   5.294   2.924   5.368
 6083TIP3    H218214   5.172   2.971   5.443
 6084TIP3   OH218215   2.679   5.733   5.079
 6084TIP3    H118216   2.759   5.680   5.070
 6084TIP3    H218217   2.653   5.751   4.988
 6085TIP3   OH218218   5.767   6.538   0.180
 6085TIP3    H118219   5.789   6.447   0.203
 6085TIP3    H218220   5.672   6.544   0.192
 6086TIP3   OH218221   6.909   6.665   4.999
 6086TIP3    H118222   6.851   6.591   4.982
 6086TIP3    H218223   6.950   6.645   5.083
 6087TIP3   OH218224   2.502   6.116   3.123
 6087TIP3    H118225   2.461   6.202   3.131
 6087TIP3    H218226   2.557   6.109   3.201
 6088TIP3   OH218227   5.624   1.247   0.756
 6088TIP3    H118228   5.588   1.181   0.698
 6088TIP3    H218229   5.702   1.280   0.711
 6089TIP3   OH218230   5.982   6.254   0.567
 6089TIP3    H118231   6.019   6.192   0.505
 6089TIP3    H218232   6.012   6.340   0.537
 6090TIP3   OH218233   4.309   5.622   1.550
 6090TIP3    H118234   4.376   5.604   1.617
 6090TIP3    H218235   4.299   5.539   1.504
 6091TIP3   OH218236   3.572   0.918   5.074
 6091TIP3    H118237   3.488   0.890   5.111
 6091TIP3    H218238   3.549   0.952   4.987
 6092TIP3   OH218239   2.313   1.352   5.009
 6092TIP3    H118240   2.334   1.439   4.975
 6092TIP3    H218241   2.371   1.342   5.085
 6093TIP3   OH218242   2.040   1.754   5.834
 6093TIP3    H118243   2.117   1.776   5.887
 6093TIP3    H218244   2.064   1.781   5.745
 6094TIP3   OH218245   6.181   3.144   4.421
 6094TIP3    H118246   6.144   3.232   4.432
 6094TIP3    H218247   6.163   3.100   4.504
 6095TIP3   OH218248   4.327   6.612   2.423
 6095TIP3    H118249   4.350   6.622   2.330
 6095TIP3    H218250   4.371   6.532   2.450
 6096TIP3   OH218251   1.731   0.662   2.690
 6096TIP3    H118252   1.735   0.566   2.687
 6096TIP3    H218253   1.815   0.691   2.654
 6097TIP3   OH218254   0.483   6.566   4.471
 6097TIP3    H118255   0.559   6.594   4.522
 6097TIP3    H218256   0.518   6.550   4.383
 6098TIP3   OH218257   5.108   0.778   2.617
 6098TIP3    H118258   5.094   0.701   2.562
 6098TIP3    H218259   5.115   0.851   2.556
 6099TIP3   OH218260   2.215   5.661   1.462
 6099TIP3    H118261   2.161   5.699   1.531
 6099TIP3    H218262   2.296   5.636   1.507
 6100TIP3   OH218263   1.791   3.985   2.040
 6100TIP3    H118264   1.721   3.948   2.094
 6100TIP3    H218265   1.871   3.942   2.072
 6101TIP3   OH218266   3.396   2.533   0.706
 6101TIP3    H118267   3.411   2.471   0.635
 6101TIP3    H218268   3.378   2.616   0.663
 6102TIP3   OH218269   3.204   5.220   2.958
 6102TIP3    H118270   3.117   5.183   2.941
 6102TIP3    H218271   3.263   5.171   2.901
 6103TIP3   OH218272   1.605   2.310   2.255
 6103TIP3    H118273   1.655   2.346   2.182
 6103TIP3    H218274   1.600   2.382   2.318
 6104TIP3   OH218275   4.043   0.124   2.087
 6104TIP3    H118276   4.047   0.212   2.123
 6104TIP3    H218277   3.979   0.130   2.016
 6105TIP3   OH218278   3.474   5.896   2.305
 6105TIP3    H118279   3.540   5.841   2.263
 6105TIP3    H218280   3.418   5.834   2.353
 6106TIP3   OH218281   1.194   3.010   3.614
 6106TIP3    H118282   1.265   3.073   3.616
 6106TIP3    H218283   1.156   3.014   3.702
 6107TIP3   OH218284   5.523   5.743   3.762
 6107TIP3    H118285   5.550   5.713   3.849
 6107TIP3    H218286   5.507   5.836   3.772
 6108TIP3   OH218287   3.161   5.387   3.192
 6108TIP3    H118288   3.224   5.318   3.169
 6108TIP3    H218289   3.079   5.358   3.154
 6109TIP3   OH218290   0.341   6.378   3.523
 6109TIP3    H118291   0.355   6.345   3.434
 6109TIP3    H218292   0.428   6.378   3.562
 6110TIP3   OH218293   3.564   4.632   3.800
 6110TIP3    H118294   3.491   4.571   3.807
 6110TIP3    H218295   3.560   4.683   3.881
 6111TIP3   OH218296   3.514   5.958   4.031
 6111TIP3    H118297   3.554   5.962   4.118
 6111TIP3    H218298   3.585   5.928   3.973
 6112TIP3   OH218299   4.634   3.510   0.427
 6112TIP3    H118300   4.646   3.492   0.334
 6112TIP3    H218301   4.639   3.606   0.434
 6113TIP3   OH218302   1.486   6.629   0.507
 6113TIP3    H118303   1.433   6.668   0.577
 6113TIP3    H218304   1.451   6.667   0.426
 6114TIP3   OH218305   5.671   5.387   1.965
 6114TIP3    H118306   5.762   5.417   1.958
 6114TIP3    H218307   5.677   5.309   2.020
 6115TIP3   OH218308   4.723   3.172   5.222
 6115TIP3    H118309   4.760   3.247   5.176
 6115TIP3    H218310   4.736   3.193   5.315
 6116TIP3   OH218311   0.224   3.923   3.219
 6116TIP3    H118312   0.289   3.991   3.204
 6116TIP3    H218313   0.173   3.921   3.137
 6117TIP3   OH218314   5.043   4.361   5.169
 6117TIP3    H118315   5.093   4.442   5.166
 6117TIP3    H218316   5.081   4.307   5.099
 6118TIP3   OH218317   2.480   1.873   4.989
 6118TIP3    H118318   2.431   1.863   5.071
 6118TIP3    H218319   2.495   1.967   4.981
 6119TIP3   OH218320   2.038   3.807   2.018
 6119TIP3    H118321   2.117   3.766   1.983
 6119TIP3    H218322   1.988   3.734   2.056
 6120TIP3   OH218323   5.765   4.202   3.282
 6120TIP3    H118324   5.714   4.129   3.317
 6120TIP3    H218325   5.855   4.182   3.307
 6121TIP3   OH218326   5.062   1.507   2.592
 6121TIP3    H118327   5.001   1.436   2.574
 6121TIP3    H218328   5.148   1.465   2.594
 6122TIP3   OH218329   4.157   4.033   4.712
 6122TIP3    H118330   4.070   4.051   4.677
 6122TIP3    H218331   4.201   3.984   4.643
 6123TIP3   OH218332   0.926   6.480   1.530
 6123TIP3    H118333   0.999   6.538   1.553
 6123TIP3    H218334   0.946   6.397   1.574
 6124TIP3   OH218335   1.327   5.330   2.041
 6124TIP3    H118336   1.376   5.374   2.111
 6124TIP3    H218337   1.349   5.380   1.962
 6125TIP3   OH218338   0.529   0.829   3.024
 6125TIP3    H118339   0.584   0.862   2.954
 6125TIP3    H218340   0.521   0.901   3.086
 6126TIP3   OH218341   3.755   3.264   1.347
 6126TIP3    H118342   3.830   3.204   1.343
 6126TIP3    H218343   3.680   3.209   1.367
 6127TIP3   OH218344   3.025   0.004   2.212
 6127TIP3    H118345   3.110   0.022   2.172
 6127TIP3    H218346   2.982  -0.056   2.150
 6128TIP3   OH218347   4.144   0.338   3.143
 6128TIP3    H118348   4.228   0.351   3.099
 6128TIP3    H218349   4.081   0.385   3.088
 6129TIP3   OH218350   5.608   5.682   4.025
 6129TIP3    H118351   5.636   5.590   4.032
 6129TIP3    H218352   5.649   5.725   4.100
 6130TIP3   OH218353   1.245   3.944   0.387
 6130TIP3    H118354   1.337   3.947   0.414
 6130TIP3    H218355   1.226   4.033   0.358
 6131TIP3   OH218356   4.093   6.316   5.568
 6131TIP3    H118357   3.998   6.304   5.570
 6131TIP3    H218358   4.111   6.351   5.481
 6132TIP3   OH218359   4.201   6.245   4.369
 6132TIP3    H118360   4.250   6.264   4.290
 6132TIP3    H218361   4.113   6.279   4.352
 6133TIP3   OH218362   5.209   2.762   3.548
 6133TIP3    H118363   5.196   2.674   3.513
 6133TIP3    H218364   5.256   2.809   3.479
 6134TIP3   OH218365   0.327   0.352   1.781
 6134TIP3    H118366   0.283   0.432   1.810
 6134TIP3    H218367   0.368   0.317   1.860
 6135TIP3   OH218368   5.525   2.166   3.043
 6135TIP3    H118369   5.472   2.245   3.051
 6135TIP3    H218370   5.466   2.094   3.068
 6136TIP3   OH218371   5.031   5.804   4.375
 6136TIP3    H118372   5.102   5.781   4.434
 6136TIP3    H218373   5.000   5.721   4.339
 6137TIP3   OH218374   0.542   6.249   5.899
 6137TIP3    H118375   0.521   6.315   5.833
 6137TIP3    H218376   0.622   6.207   5.866
 6138TIP3   OH218377   0.515   3.203   1.267
 6138TIP3    H118378   0.580   3.218   1.336
 6138TIP3    H218379   0.481   3.116   1.285
 6139TIP3   OH218380   2.319   5.326   4.108
 6139TIP3    H118381   2.331   5.420   4.105
 6139TIP3    H218382   2.405   5.290   4.086
 6140TIP3   OH218383   3.554   2.782   3.197
 6140TIP3    H118384   3.575   2.800   3.288
 6140TIP3    H218385   3.463   2.809   3.187
 6141TIP3   OH218386   1.897   4.013   1.112
 6141TIP3    H118387   1.850   3.962   1.177
 6141TIP3    H218388   1.989   4.009   1.140
 6142TIP3   OH218389   1.917   1.300   0.067
 6142TIP3    H118390   1.860   1.311  -0.009
 6142TIP3    H218391   1.995   1.257   0.033
 6143TIP3   OH218392   3.874   3.195   1.662
 6143TIP3    H118393   3.852   3.121   1.607
 6143TIP3    H218394   3.948   3.164   1.716
 6144TIP3   OH218395   6.691   0.181   5.678
 6144TIP3    H118396   6.719   0.194   5.769
 6144TIP3    H218397   6.619   0.118   5.683
 6145TIP3   OH218398   0.647   6.726   3.127
 6145TIP3    H118399   0.621   6.693   3.214
 6145TIP3    H218400   0.732   6.768   3.142
 6146TIP3   OH218401   4.768   4.061   0.538
 6146TIP3    H118402   4.681   4.048   0.574
 6146TIP3    H218403   4.827   4.049   0.612
 6147TIP3   OH218404   2.950   1.527   3.413
 6147TIP3    H118405   2.963   1.576   3.494
 6147TIP3    H218406   3.023   1.466   3.409
 6148TIP3   OH218407   0.387   2.972   0.930
 6148TIP3    H118408   0.460   2.959   0.990
 6148TIP3    H218409   0.345   2.886   0.925
 6149TIP3   OH218410   4.723   3.655   2.408
 6149TIP3    H118411   4.654   3.608   2.454
 6149TIP3    H218412   4.769   3.703   2.477
 6150TIP3   OH218413   5.061   2.767   3.943
 6150TIP3    H118414   5.069   2.679   3.907
 6150TIP3    H218415   5.149   2.789   3.973
 6151TIP3   OH218416   6.810   4.213   5.572
 6151TIP3    H118417   6.873   4.197   5.642
 6151TIP3    H218418   6.834   4.150   5.504
 6152TIP3   OH218419   0.916   0.411   0.228
 6152TIP3    H118420   0.948   0.331   0.186
 6152TIP3    H218421   0.991   0.471   0.226
 6153TIP3   OH218422   0.403   6.445   2.521
 6153TIP3    H118423   0.367   6.441   2.432
 6153TIP3    H218424   0.378   6.362   2.561
 6154TIP3   OH218425   0.103   0.941   3.015
 6154TIP3    H118426   0.126   1.012   3.076
 6154TIP3    H218427   0.012   0.919   3.036
 6155TIP3   OH218428   6.790   1.643   5.024
 6155TIP3    H118429   6.738   1.609   4.951
 6155TIP3    H218430   6.740   1.619   5.102
 6156TIP3   OH218431   4.991   2.139   4.838
 6156TIP3    H118432   5.086   2.148   4.851
 6156TIP3    H218433   4.980   2.131   4.744
 6157TIP3   OH218434   5.963   4.609   3.152
 6157TIP3    H118435   6.029   4.626   3.085
 6157TIP3    H218436   6.009   4.557   3.218
 6158TIP3   OH218437   0.442   5.541   1.586
 6158TIP3    H118438   0.390   5.483   1.531
 6158TIP3    H218439   0.419   5.516   1.676
 6159TIP3   OH218440   1.401   2.830   3.330
 6159TIP3    H118441   1.436   2.857   3.415
 6159TIP3    H218442   1.306   2.827   3.343
 6160TIP3   OH218443   4.740   4.245   0.815
 6160TIP3    H118444   4.645   4.234   0.823
 6160TIP3    H218445   4.750   4.295   0.733
 6161TIP3   OH218446   4.277   5.543   4.358
 6161TIP3    H118447   4.325   5.465   4.331
 6161TIP3    H218448   4.341   5.594   4.408
 6162TIP3   OH218449   7.061   1.134   1.774
 6162TIP3    H118450   7.087   1.078   1.847
 6162TIP3    H218451   7.060   1.075   1.698
 6163TIP3   OH218452   3.678   6.760   1.797
 6163TIP3    H118453   3.714   6.790   1.881
 6163TIP3    H218454   3.661   6.667   1.810
 6164TIP3   OH218455   5.365   0.815   5.494
 6164TIP3    H118456   5.312   0.803   5.416
 6164TIP3    H218457   5.456   0.812   5.462
 6165TIP3   OH218458   1.986   3.675   4.227
 6165TIP3    H118459   1.964   3.768   4.218
 6165TIP3    H218460   2.056   3.660   4.163
 6166TIP3   OH218461   0.481   5.966   0.642
 6166TIP3    H118462   0.412   5.900   0.646
 6166TIP3    H218463   0.444   6.036   0.587
 6167TIP3   OH218464   4.867   0.817   0.138
 6167TIP3    H118465   4.794   0.877   0.123
 6167TIP3    H218466   4.886   0.826   0.231
 6168TIP3   OH218467   3.001   4.000   2.720
 6168TIP3    H118468   2.936   4.022   2.653
 6168TIP3    H218469   2.957   4.019   2.803
 6169TIP3   OH218470   3.216   1.556   5.868
 6169TIP3    H118471   3.134   1.535   5.822
 6169TIP3    H218472   3.256   1.471   5.884
 6170TIP3   OH218473   4.680   3.113   4.491
 6170TIP3    H118474   4.638   3.029   4.512
 6170TIP3    H218475   4.772   3.100   4.514
 6171TIP3   OH218476   6.194   6.364   4.542
 6171TIP3    H118477   6.194   6.453   4.507
 6171TIP3    H218478   6.237   6.311   4.475
 6172TIP3   OH218479   6.930   0.131   0.306
 6172TIP3    H118480   6.935   0.095   0.218
 6172TIP3    H218481   6.853   0.089   0.345
 6173TIP3   OH218482   1.950   6.502   0.294
 6173TIP3    H118483   1.899   6.498   0.213
 6173TIP3    H218484   1.886   6.518   0.362
 6174TIP3   OH218485   6.327   0.596   3.463
 6174TIP3    H118486   6.243   0.643   3.469
 6174TIP3    H218487   6.311   0.527   3.399
 6175TIP3   OH218488   2.711   5.735   2.985
 6175TIP3    H118489   2.768   5.699   3.053
 6175TIP3    H218490   2.631   5.759   3.031
 6176TIP3   OH218491   4.889   1.883   3.456
 6176TIP3    H118492   4.875   1.841   3.541
 6176TIP3    H218493   4.860   1.819   3.392
 6177TIP3   OH218494   7.129   3.558   3.724
 6177TIP3    H118495   7.122   3.496   3.796
 6177TIP3    H218496   7.117   3.505   3.645
 6178TIP3   OH218497   2.869   3.242   4.243
 6178TIP3    H118498   2.945   3.240   4.185
 6178TIP3    H218499   2.905   3.237   4.331
 6179TIP3   OH218500   3.983   4.091   0.180
 6179TIP3    H118501   3.925   4.139   0.121
 6179TIP3    H218502   3.953   4.000   0.175
 6180TIP3   OH218503   2.102   1.126   4.012
 6180TIP3    H118504   2.063   1.105   4.097
 6180TIP3    H218505   2.127   1.219   4.019
 6181TIP3   OH218506   3.924   1.776   0.011
 6181TIP3    H118507   4.016   1.799  -0.001
 6181TIP3    H218508   3.878   1.860   0.013
 6182TIP3   OH218509   3.903   2.378   5.818
 6182TIP3    H118510   3.891   2.422   5.903
 6182TIP3    H218511   3.952   2.299   5.839
 6183TIP3   OH218512   4.832   1.995   1.529
 6183TIP3    H118513   4.849   1.901   1.524
 6183TIP3    H218514   4.899   2.034   1.472
 6184TIP3   OH218515   1.537   4.967   2.900
 6184TIP3    H118516   1.573   5.054   2.884
 6184TIP3    H218517   1.558   4.917   2.822
 6185TIP3   OH218518   6.398   3.856   5.868
 6185TIP3    H118519   6.409   3.798   5.793
 6185TIP3    H218520   6.473   3.914   5.865
 6186TIP3   OH218521   6.071   0.736   5.797
 6186TIP3    H118522   6.135   0.670   5.824
 6186TIP3    H218523   5.989   0.707   5.836
 6187TIP3   OH218524   1.959   5.585   2.981
 6187TIP3    H118525   1.997   5.608   2.896
 6187TIP3    H218526   1.869   5.618   2.977
 6188TIP3   OH218527   0.051   6.789   0.607
 6188TIP3    H118528   0.113   6.728   0.648
 6188TIP3    H218529   0.094   6.815   0.525
 6189TIP3   OH218530   4.285   3.852   2.640
 6189TIP3    H118531   4.295   3.772   2.691
 6189TIP3    H218532   4.244   3.914   2.700
 6190TIP3   OH218533   4.094   6.055   1.050
 6190TIP3    H118534   4.083   6.130   0.991
 6190TIP3    H218535   4.009   6.047   1.095
 6191TIP3   OH218536   4.251   2.887   0.918
 6191TIP3    H118537   4.282   2.941   0.845
 6191TIP3    H218538   4.181   2.835   0.880
 6192TIP3   OH218539   6.650   5.667   4.646
 6192TIP3    H118540   6.729   5.679   4.698
 6192TIP3    H218541   6.604   5.594   4.689
 6193TIP3   OH218542   5.023   5.614   1.405
 6193TIP3    H118543   4.981   5.589   1.323
 6193TIP3    H218544   5.038   5.531   1.450
 6194TIP3   OH218545   1.582   0.876   0.362
 6194TIP3    H118546   1.522   0.923   0.420
 6194TIP3    H218547   1.635   0.944   0.320
 6195TIP3   OH218548   5.790   1.060   2.798
 6195TIP3    H118549   5.817   1.103   2.717
 6195TIP3    H218550   5.764   1.131   2.856
 6196TIP3   OH218551   3.459   6.101   2.136
 6196TIP3    H118552   3.414   6.059   2.062
 6196TIP3    H218553   3.470   6.031   2.200
 6197TIP3   OH218554   5.221   5.239   3.979
 6197TIP3    H118555   5.216   5.186   3.900
 6197TIP3    H218556   5.272   5.316   3.952
 6198TIP3   OH218557   5.245   2.665   1.161
 6198TIP3    H118558   5.306   2.723   1.207
 6198TIP3    H218559   5.233   2.591   1.221
 6199TIP3   OH218560   5.715   2.929   4.374
 6199TIP3    H118561   5.734   3.023   4.377
 6199TIP3    H218562   5.801   2.888   4.388
 6200TIP3   OH218563   5.254   4.291   1.386
 6200TIP3    H118564   5.211   4.249   1.460
 6200TIP3    H218565   5.183   4.310   1.325
 6201TIP3   OH218566   5.354   2.838   5.043
 6201TIP3    H118567   5.382   2.883   4.963
 6201TIP3    H218568   5.393   2.889   5.114
 6202TIP3   OH218569   1.411   4.778   2.120
 6202TIP3    H118570   1.365   4.784   2.037
 6202TIP3    H218571   1.397   4.688   2.149
 6203TIP3   OH218572   0.302   6.004   5.333
 6203TIP3    H118573   0.290   5.919   5.374
 6203TIP3    H218574   0.393   6.004   5.303
 6204TIP3   OH218575   4.585   5.514   3.991
 6204TIP3    H118576   4.637   5.447   4.036
 6204TIP3    H218577   4.641   5.543   3.919
 6205TIP3   OH218578   3.035   2.977   3.156
 6205TIP3    H118579   3.039   2.992   3.062
 6205TIP3    H218580   3.036   3.064   3.195
 6206TIP3   OH218581   0.833   0.118   2.199
 6206TIP3    H118582   0.917   0.142   2.240
 6206TIP3    H218583   0.767   0.143   2.264
 6207TIP3   OH218584   3.289   2.976   5.530
 6207TIP3    H118585   3.284   2.993   5.435
 6207TIP3    H218586   3.376   2.937   5.542
 6208TIP3   OH218587   5.590   3.771   3.535
 6208TIP3    H118588   5.541   3.688   3.541
 6208TIP3    H218589   5.601   3.798   3.626
 6209TIP3   OH218590   1.804   5.375   5.113
 6209TIP3    H118591   1.854   5.294   5.106
 6209TIP3    H218592   1.867   5.445   5.095
 6210TIP3   OH218593   1.179   3.798   1.217
 6210TIP3    H118594   1.250   3.766   1.162
 6210TIP3    H218595   1.115   3.726   1.217
 6211TIP3   OH218596   4.741   6.512   5.141
 6211TIP3    H118597   4.825   6.480   5.107
 6211TIP3    H218598   4.747   6.501   5.236
 6212TIP3   OH218599   5.664   1.676   3.324
 6212TIP3    H118600   5.595   1.741   3.312
 6212TIP3    H218601   5.617   1.594   3.343
 6213TIP3   OH218602   4.152   2.588   5.834
 6213TIP3    H118603   4.067   2.608   5.795
 6213TIP3    H218604   4.177   2.504   5.796
 6214TIP3   OH218605   1.561   3.237   2.092
 6214TIP3    H118606   1.617   3.159   2.091
 6214TIP3    H218607   1.621   3.310   2.081
 6215TIP3   OH218608   1.324   1.153   1.394
 6215TIP3    H118609   1.389   1.135   1.463
 6215TIP3    H218610   1.283   1.068   1.378
 6216TIP3   OH218611   0.951   4.139   2.543
 6216TIP3    H118612   0.856   4.148   2.534
 6216TIP3    H218613   0.977   4.083   2.470
 6217TIP3   OH218614   1.901   0.449   2.934
 6217TIP3    H118615   1.946   0.420   2.854
 6217TIP3    H218616   1.836   0.381   2.950
 6218TIP3   OH218617   3.731   5.761   4.512
 6218TIP3    H118618   3.781   5.688   4.548
 6218TIP3    H218619   3.767   5.774   4.424
 6219TIP3   OH218620   6.374   4.121   0.628
 6219TIP3    H118621   6.305   4.184   0.608
 6219TIP3    H218622   6.451   4.175   0.648
 6220TIP3   OH218623   4.036   6.046   2.912
 6220TIP3    H118624   4.023   6.103   2.988
 6220TIP3    H218625   4.130   6.047   2.897
 6221TIP3   OH218626   6.455   4.674   3.685
 6221TIP3    H118627   6.500   4.607   3.633
 6221TIP3    H218628   6.427   4.629   3.764
 6222TIP3   OH218629   1.967   6.361   3.910
 6222TIP3    H118630   1.907   6.356   3.984
 6222TIP3    H218631   1.948   6.445   3.869
 6223TIP3   OH218632   2.757   1.149   0.697
 6223TIP3    H118633   2.755   1.245   0.702
 6223TIP3    H218634   2.673   1.122   0.734
 6224TIP3   OH218635   4.884   6.440   1.663
 6224TIP3    H118636   4.796   6.470   1.641
 6224TIP3    H218637   4.923   6.513   1.711
 6225TIP3   OH218638   5.014   5.991   1.861
 6225TIP3    H118639   4.940   5.930   1.864
 6225TIP3    H218640   4.983   6.063   1.805
 6226TIP3   OH218641   4.610   0.362   1.324
 6226TIP3    H118642   4.630   0.269   1.325
 6226TIP3    H218643   4.695   0.405   1.333
 6227TIP3   OH218644   2.182   0.437   3.712
 6227TIP3    H118645   2.134   0.356   3.692
 6227TIP3    H218646   2.124   0.484   3.773
 6228TIP3   OH218647   4.664   2.054   2.168
 6228TIP3    H118648   4.598   2.106   2.215
 6228TIP3    H218649   4.635   1.964   2.178
 6229TIP3   OH218650   4.959   5.892   2.651
 6229TIP3    H118651   4.869   5.862   2.640
 6229TIP3    H218652   4.962   5.925   2.741
 6230TIP3   OH218653   4.250   1.933   5.284
 6230TIP3    H118654   4.260   1.957   5.192
 6230TIP3    H218655   4.197   2.004   5.321
 6231TIP3   OH218656   4.800   4.579   5.815
 6231TIP3    H118657   4.712   4.549   5.791
 6231TIP3    H218658   4.797   4.674   5.800
 6232TIP3   OH218659   6.871   4.989   0.561
 6232TIP3    H118660   6.779   4.985   0.538
 6232TIP3    H218661   6.874   5.039   0.642
 6233TIP3   OH218662   2.573   3.772   0.614
 6233TIP3    H118663   2.601   3.841   0.674
 6233TIP3    H218664   2.571   3.813   0.528
 6234TIP3   OH218665   6.048   2.231   5.875
 6234TIP3    H118666   6.019   2.184   5.953
 6234TIP3    H218667   6.093   2.165   5.821
 6235TIP3   OH218668   6.119   6.335   4.247
 6235TIP3    H118669   6.131   6.419   4.292
 6235TIP3    H218670   6.205   6.315   4.210
 6236TIP3   OH218671   1.438   3.321   2.443
 6236TIP3    H118672   1.416   3.282   2.527
 6236TIP3    H218673   1.406   3.258   2.378
 6237TIP3   OH218674   3.473   4.877   1.406
 6237TIP3    H118675   3.382   4.902   1.421
 6237TIP3    H218676   3.491   4.902   1.316
 6238TIP3   OH218677   6.577   2.787   5.471
 6238TIP3    H118678   6.520   2.814   5.542
 6238TIP3    H218679   6.661   2.767   5.514
 6239TIP3   OH218680   2.211   3.373   4.523
 6239TIP3    H118681   2.292   3.344   4.480
 6239TIP3    H218682   2.141   3.338   4.469
 6240TIP3   OH218683   0.214   6.349   0.733
 6240TIP3    H118684   0.236   6.436   0.767
 6240TIP3    H218685   0.121   6.353   0.715
 6241TIP3   OH218686   6.071   4.280   5.410
 6241TIP3    H118687   6.055   4.350   5.346
 6241TIP3    H218688   6.138   4.316   5.468
 6242TIP3   OH218689   7.046   6.318   4.820
 6242TIP3    H118690   7.114   6.372   4.860
 6242TIP3    H218691   7.095   6.250   4.774
 6243TIP3   OH218692   6.412   3.394   2.795
 6243TIP3    H118693   6.448   3.306   2.798
 6243TIP3    H218694   6.480   3.449   2.833
 6244TIP3   OH218695   3.866   1.750   3.977
 6244TIP3    H118696   3.921   1.700   4.038
 6244TIP3    H218697   3.846   1.688   3.906
 6245TIP3   OH218698   2.498   4.850   5.094
 6245TIP3    H118699   2.521   4.769   5.049
 6245TIP3    H218700   2.415   4.877   5.053
 6246TIP3   OH218701   3.035   1.827   3.439
 6246TIP3    H118702   3.093   1.834   3.515
 6246TIP3    H218703   3.023   1.917   3.410
 6247TIP3   OH218704   2.550   2.481   0.901
 6247TIP3    H118705   2.599   2.544   0.953
 6247TIP3    H218706   2.616   2.432   0.852
 6248TIP3   OH218707   2.103   0.751   4.101
 6248TIP3    H118708   2.109   0.839   4.137
 6248TIP3    H218709   2.057   0.701   4.168
 6249TIP3   OH218710   6.123   2.417   5.351
 6249TIP3    H118711   6.078   2.455   5.426
 6249TIP3    H218712   6.096   2.325   5.351
 6250TIP3   OH218713   5.012   6.303   0.064
 6250TIP3    H118714   4.995   6.395   0.085
 6250TIP3    H218715   5.106   6.300   0.045
 6251TIP3   OH218716   6.918   2.906   0.430
 6251TIP3    H118717   6.965   2.966   0.488
 6251TIP3    H218718   6.956   2.922   0.344
 6252TIP3   OH218719   6.341   5.659   5.007
 6252TIP3    H118720   6.390   5.741   5.000
 6252TIP3    H218721   6.328   5.646   5.101
 6253TIP3   OH218722   2.492   4.938   3.709
 6253TIP3    H118723   2.551   4.869   3.740
 6253TIP3    H218724   2.405   4.898   3.710
 6254TIP3   OH218725   4.446   4.576   5.444
 6254TIP3    H118726   4.493   4.511   5.392
 6254TIP3    H218727   4.382   4.614   5.384
 6255TIP3   OH218728   5.651   5.189   2.178
 6255TIP3    H118729   5.589   5.116   2.179
 6255TIP3    H218730   5.653   5.219   2.269
 6256TIP3   OH218731   4.773   5.337   4.054
 6256TIP3    H118732   4.837   5.291   4.108
 6256TIP3    H218733   4.826   5.378   3.985
 6257TIP3   OH218734   5.257   6.732   0.845
 6257TIP3    H118735   5.225   6.642   0.835
 6257TIP3    H218736   5.352   6.724   0.835
 6258TIP3   OH218737   0.631   0.231   0.986
 6258TIP3    H118738   0.601   0.208   1.074
 6258TIP3    H218739   0.723   0.252   0.996
 6259TIP3   OH218740   5.306   0.433   5.591
 6259TIP3    H118741   5.300   0.478   5.675
 6259TIP3    H218742   5.230   0.464   5.541
 6260TIP3   OH218743   6.151   0.455   5.411
 6260TIP3    H118744   6.212   0.382   5.421
 6260TIP3    H218745   6.097   0.452   5.490
 6261TIP3   OH218746   3.491   0.728   1.738
 6261TIP3    H118747   3.423   0.660   1.739
 6261TIP3    H218748   3.570   0.682   1.712
 6262TIP3   OH218749   6.091   6.375   3.904
 6262TIP3    H118750   6.083   6.446   3.841
 6262TIP3    H218751   6.167   6.399   3.957
 6263TIP3   OH218752   7.094   1.386   1.697
 6263TIP3    H118753   7.066   1.298   1.719
 6263TIP3    H218754   7.189   1.380   1.687
 6264TIP3   OH218755   0.833   2.096   0.473
 6264TIP3    H118756   0.898   2.025   0.481
 6264TIP3    H218757   0.777   2.086   0.550
 6265TIP3   OH218758   6.535   2.760   5.198
 6265TIP3    H118759   6.611   2.795   5.151
 6265TIP3    H218760   6.550   2.783   5.290
 6266TIP3   OH218761   6.918   2.152   0.165
 6266TIP3    H118762   6.915   2.229   0.109
 6266TIP3    H218763   6.844   2.163   0.225
 6267TIP3   OH218764   4.487   6.451   5.217
 6267TIP3    H118765   4.484   6.490   5.304
 6267TIP3    H218766   4.564   6.490   5.176
 6268TIP3   OH218767   1.138   4.306   0.274
 6268TIP3    H118768   1.095   4.222   0.264
 6268TIP3    H218769   1.225   4.284   0.308
 6269TIP3   OH218770   5.928   5.780   2.147
 6269TIP3    H118771   5.979   5.837   2.090
 6269TIP3    H218772   5.956   5.803   2.236
 6270TIP3   OH218773   5.349   1.056   4.974
 6270TIP3    H118774   5.339   1.084   5.065
 6270TIP3    H218775   5.273   1.092   4.929
 6271TIP3   OH218776   6.911   3.439   4.973
 6271TIP3    H118777   6.895   3.494   5.050
 6271TIP3    H218778   6.997   3.399   4.989
 6272TIP3   OH218779   5.299   0.278   4.909
 6272TIP3    H118780   5.350   0.220   4.853
 6272TIP3    H218781   5.252   0.335   4.849
 6273TIP3   OH218782   6.597   5.343   3.478
 6273TIP3    H118783   6.660   5.280   3.513
 6273TIP3    H218784   6.564   5.389   3.555
 6274TIP3   OH218785   1.593   4.379   1.387
 6274TIP3    H118786   1.669   4.362   1.331
 6274TIP3    H218787   1.521   4.334   1.343
 6275TIP3   OH218788   7.045   3.026   4.219
 6275TIP3    H118789   6.979   3.010   4.286
 6275TIP3    H218790   6.995   3.037   4.138
 6276TIP3   OH218791   4.412   6.461   1.546
 6276TIP3    H118792   4.375   6.404   1.478
 6276TIP3    H218793   4.406   6.549   1.509
 6277TIP3   OH218794   1.297   1.757   5.264
 6277TIP3    H118795   1.259   1.673   5.238
 6277TIP3    H218796   1.355   1.735   5.337
 6278TIP3   OH218797   6.985   1.646   3.177
 6278TIP3    H118798   7.003   1.721   3.234
 6278TIP3    H218799   6.923   1.679   3.112
 6279TIP3   OH218800   0.284   6.260   2.673
 6279TIP3    H118801   0.258   6.174   2.642
 6279TIP3    H218802   0.325   6.243   2.758
 6280TIP3   OH218803   5.226   5.960   4.235
 6280TIP3    H118804   5.161   5.897   4.264
 6280TIP3    H218805   5.227   6.027   4.303
 6281TIP3   OH218806   7.097   0.519   2.876
 6281TIP3    H118807   7.094   0.613   2.893
 6281TIP3    H218808   7.178   0.506   2.827
 6282TIP3   OH218809   6.301   6.605   0.251
 6282TIP3    H118810   6.324   6.615   0.159
 6282TIP3    H218811   6.368   6.654   0.299
 6283TIP3   OH218812   3.208   1.579   0.329
 6283TIP3    H118813   3.125   1.533   0.335
 6283TIP3    H218814   3.235   1.591   0.421
 6284TIP3   OH218815   5.520   1.672   4.992
 6284TIP3    H118816   5.570   1.677   5.074
 6284TIP3    H218817   5.506   1.763   4.967
 6285TIP3   OH218818   5.503   1.935   4.927
 6285TIP3    H118819   5.599   1.925   4.925
 6285TIP3    H218820   5.484   1.966   5.015
 6286TIP3   OH218821   5.509   4.503   1.653
 6286TIP3    H118822   5.528   4.518   1.745
 6286TIP3    H218823   5.553   4.575   1.607
 6287TIP3   OH218824   7.072   0.016   2.455
 6287TIP3    H118825   7.163  -0.012   2.456
 6287TIP3    H218826   7.066   0.076   2.380
 6288TIP3   OH218827   1.965   1.385   2.890
 6288TIP3    H118828   1.994   1.338   2.968
 6288TIP3    H218829   1.882   1.344   2.865
 6289TIP3   OH218830   3.655   1.240   5.448
 6289TIP3    H118831   3.692   1.200   5.527
 6289TIP3    H218832   3.572   1.278   5.476
 6290TIP3   OH218833   4.173   2.369   4.460
 6290TIP3    H118834   4.245   2.399   4.515
 6290TIP3    H218835   4.158   2.279   4.486
 6291TIP3   OH218836   5.454   5.992   5.320
 6291TIP3    H118837   5.466   6.073   5.370
 6291TIP3    H218838   5.395   6.017   5.249
 6292TIP3   OH218839   6.829   6.414   4.693
 6292TIP3    H118840   6.755   6.398   4.752
 6292TIP3    H218841   6.899   6.359   4.729
 6293TIP3   OH218842   0.191   6.544   0.170
 6293TIP3    H118843   0.221   6.553   0.260
 6293TIP3    H218844   0.175   6.451   0.159
 6294TIP3   OH218845   1.805   3.069   1.647
 6294TIP3    H118846   1.802   3.094   1.739
 6294TIP3    H218847   1.714   3.052   1.624
 6295TIP3   OH218848   6.318   0.047   4.671
 6295TIP3    H118849   6.252   0.097   4.720
 6295TIP3    H218850   6.348  -0.020   4.732
 6296TIP3   OH218851   0.642   4.958   2.042
 6296TIP3    H118852   0.547   4.948   2.046
 6296TIP3    H218853   0.656   5.037   1.990
 6297TIP3   OH218854   2.781   5.090   3.135
 6297TIP3    H118855   2.707   5.049   3.091
 6297TIP3    H218856   2.789   5.042   3.218
 6298TIP3   OH218857   5.666   4.571   3.741
 6298TIP3    H118858   5.606   4.584   3.815
 6298TIP3    H218859   5.733   4.511   3.774
 6299TIP3   OH218860   3.071   5.836   4.808
 6299TIP3    H118861   3.020   5.781   4.747
 6299TIP3    H218862   3.044   5.806   4.895
 6300TIP3   OH218863   2.805   2.219   2.137
 6300TIP3    H118864   2.890   2.222   2.093
 6300TIP3    H218865   2.824   2.185   2.224
 6301TIP3   OH218866   5.701   4.604   3.198
 6301TIP3    H118867   5.787   4.641   3.175
 6301TIP3    H218868   5.668   4.568   3.115
 6302TIP3   OH218869   6.355   3.290   5.107
 6302TIP3    H118870   6.420   3.340   5.058
 6302TIP3    H218871   6.399   3.207   5.128
 6303TIP3   OH218872   4.600   0.419   0.748
 6303TIP3    H118873   4.525   0.473   0.770
 6303TIP3    H218874   4.568   0.329   0.754
 6304TIP3   OH218875   1.157   0.908   4.667
 6304TIP3    H118876   1.252   0.911   4.657
 6304TIP3    H218877   1.136   0.815   4.677
 6305TIP3   OH218878   6.284   6.350   5.092
 6305TIP3    H118879   6.270   6.444   5.076
 6305TIP3    H218880   6.199   6.319   5.122
 6306TIP3   OH218881   6.734   0.706   5.190
 6306TIP3    H118882   6.757   0.798   5.175
 6306TIP3    H218883   6.682   0.708   5.271
 6307TIP3   OH218884   6.537   4.305   2.072
 6307TIP3    H118885   6.491   4.247   2.131
 6307TIP3    H218886   6.516   4.273   1.984
 6308TIP3   OH218887   2.427   1.760   0.660
 6308TIP3    H118888   2.508   1.778   0.708
 6308TIP3    H218889   2.358   1.798   0.714
 6309TIP3   OH218890   3.634   2.299   4.810
 6309TIP3    H118891   3.717   2.312   4.764
 6309TIP3    H218892   3.615   2.384   4.850
 6310TIP3   OH218893   5.614   5.248   3.725
 6310TIP3    H118894   5.551   5.216   3.662
 6310TIP3    H218895   5.696   5.205   3.702
 6311TIP3   OH218896   5.444   5.205   5.762
 6311TIP3    H118897   5.513   5.247   5.812
 6311TIP3    H218898   5.380   5.275   5.746
 6312TIP3   OH218899   6.179   6.266   3.289
 6312TIP3    H118900   6.259   6.215   3.287
 6312TIP3    H218901   6.195   6.335   3.354
 6313TIP3   OH218902   3.339   2.083   4.061
 6313TIP3    H118903   3.244   2.080   4.051
 6313TIP3    H218904   3.353   2.075   4.155
 6314TIP3   OH218905   7.008   1.317   5.811
 6314TIP3    H118906   6.956   1.266   5.749
 6314TIP3    H218907   6.944   1.356   5.871
 6315TIP3   OH218908   4.667   1.240   5.236
 6315TIP3    H118909   4.610   1.193   5.175
 6315TIP3    H218910   4.659   1.332   5.209
 6316TIP3   OH218911   4.188   3.449   2.516
 6316TIP3    H118912   4.106   3.487   2.484
 6316TIP3    H218913   4.166   3.413   2.602
 6317TIP3   OH218914   1.932   0.105   0.725
 6317TIP3    H118915   1.845   0.114   0.687
 6317TIP3    H218916   1.991   0.147   0.662
 6318TIP3   OH218917   2.415   4.135   1.271
 6318TIP3    H118918   2.486   4.114   1.331
 6318TIP3    H218919   2.420   4.068   1.204
 6319TIP3   OH218920   1.869   0.230   3.684
 6319TIP3    H118921   1.932   0.224   3.755
 6319TIP3    H218922   1.791   0.186   3.717
 6320TIP3   OH218923   5.115   6.333   2.291
 6320TIP3    H118924   5.209   6.315   2.294
 6320TIP3    H218925   5.095   6.337   2.198
 6321TIP3   OH218926   1.909   6.176   0.244
 6321TIP3    H118927   1.993   6.216   0.263
 6321TIP3    H218928   1.910   6.093   0.292
 6322TIP3   OH218929   2.915   3.859   4.016
 6322TIP3    H118930   2.937   3.779   4.063
 6322TIP3    H218931   2.860   3.829   3.943
 6323TIP3   OH218932   6.492   5.912   4.723
 6323TIP3    H118933   6.474   5.942   4.634
 6323TIP3    H218934   6.546   5.834   4.712
 6324TIP3   OH218935   1.932   1.620   3.036
 6324TIP3    H118936   1.978   1.543   3.002
 6324TIP3    H218937   1.982   1.646   3.113
 6325TIP3   OH218938   6.876   0.148   1.305
 6325TIP3    H118939   6.968   0.162   1.327
 6325TIP3    H218940   6.862   0.054   1.315
 6326TIP3   OH218941   3.020   3.412   0.688
 6326TIP3    H118942   2.989   3.494   0.648
 6326TIP3    H218943   3.009   3.426   0.782
 6327TIP3   OH218944   3.615   1.555   0.339
 6327TIP3    H118945   3.535   1.549   0.286
 6327TIP3    H218946   3.667   1.480   0.310
 6328TIP3   OH218947   0.247   5.626   5.424
 6328TIP3    H118948   0.193   5.567   5.371
 6328TIP3    H218949   0.185   5.667   5.484
 6329TIP3   OH218950   6.693   6.365   2.378
 6329TIP3    H118951   6.598   6.358   2.376
 6329TIP3    H218952   6.710   6.455   2.350
 6330TIP3   OH218953   6.414   6.184   3.582
 6330TIP3    H118954   6.365   6.104   3.565
 6330TIP3    H218955   6.505   6.161   3.566
 6331TIP3   OH218956   4.134   5.880   4.354
 6331TIP3    H118957   4.173   5.793   4.349
 6331TIP3    H218958   4.166   5.916   4.437
 6332TIP3   OH218959   5.771   0.003   3.550
 6332TIP3    H118960   5.787   0.052   3.631
 6332TIP3    H218961   5.747   0.070   3.486
 6333TIP3   OH218962   6.955   6.665   4.630
 6333TIP3    H118963   6.940   6.593   4.691
 6333TIP3    H218964   6.870   6.679   4.589
 6334TIP3   OH218965   6.925   2.581   2.779
 6334TIP3    H118966   6.964   2.517   2.839
 6334TIP3    H218967   6.892   2.528   2.706
 6335TIP3   OH218968   2.486   2.786   5.502
 6335TIP3    H118969   2.428   2.721   5.542
 6335TIP3    H218970   2.569   2.775   5.548
 6336TIP3   OH218971   0.540   0.478   3.931
 6336TIP3    H118972   0.634   0.494   3.932
 6336TIP3    H218973   0.531   0.389   3.897
 6337TIP3   OH218974   3.274   3.681   0.885
 6337TIP3    H118975   3.185   3.708   0.862
 6337TIP3    H218976   3.283   3.593   0.846
 6338TIP3   OH218977   5.483   1.176   4.088
 6338TIP3    H118978   5.396   1.151   4.118
 6338TIP3    H218979   5.542   1.116   4.132
 6339TIP3   OH218980   4.370   5.315   4.275
 6339TIP3    H118981   4.284   5.275   4.260
 6339TIP3    H218982   4.433   5.247   4.253
 6340TIP3   OH218983   4.057   3.526   1.803
 6340TIP3    H118984   4.054   3.507   1.710
 6340TIP3    H218985   4.049   3.441   1.845
 6341TIP3   OH218986   7.129   5.388   2.262
 6341TIP3    H118987   7.144   5.320   2.196
 6341TIP3    H218988   7.174   5.356   2.340
 6342TIP3   OH218989   5.413   2.572   4.575
 6342TIP3    H118990   5.464   2.492   4.566
 6342TIP3    H218991   5.473   2.635   4.616
 6343TIP3   OH218992   5.698   3.485   5.595
 6343TIP3    H118993   5.744   3.548   5.650
 6343TIP3    H218994   5.733   3.501   5.507
 6344TIP3   OH218995   5.443   3.851   4.407
 6344TIP3    H118996   5.495   3.926   4.378
 6344TIP3    H218997   5.414   3.875   4.495
 6345TIP3   OH218998   3.047   2.045   4.197
 6345TIP3    H118999   3.031   1.967   4.143
 6345TIP3    H219000   3.013   2.117   4.144
 6346TIP3   OH219001   1.263   4.593   2.524
 6346TIP3    H119002   1.257   4.676   2.573
 6346TIP3    H219003   1.173   4.563   2.515
 6347TIP3   OH219004   0.662   0.923   3.667
 6347TIP3    H119005   0.752   0.891   3.661
 6347TIP3    H219006   0.616   0.875   3.597
 6348TIP3   OH219007   3.274   3.225   0.748
 6348TIP3    H119008   3.223   3.303   0.730
 6348TIP3    H219009   3.329   3.213   0.670
 6349TIP3   OH219010   3.001   6.509   5.656
 6349TIP3    H119011   2.979   6.452   5.729
 6349TIP3    H219012   2.960   6.467   5.580
 6350TIP3   OH219013   5.536   0.642   2.478
 6350TIP3    H119014   5.566   0.559   2.515
 6350TIP3    H219015   5.595   0.707   2.516
 6351TIP3   OH219016   0.781   5.406   1.979
 6351TIP3    H119017   0.809   5.480   2.033
 6351TIP3    H219018   0.822   5.421   1.894
 6352TIP3   OH219019   6.958   3.834   5.904
 6352TIP3    H119020   7.049   3.808   5.891
 6352TIP3    H219021   6.918   3.758   5.947
 6353TIP3   OH219022   1.064   3.097   3.388
 6353TIP3    H119023   1.105   3.059   3.466
 6353TIP3    H219024   1.119   3.173   3.366
 6354TIP3   OH219025   0.569   5.077   5.749
 6354TIP3    H119026   0.541   5.002   5.802
 6354TIP3    H219027   0.506   5.081   5.677
 6355TIP3   OH219028   5.242   0.864   5.260
 6355TIP3    H119029   5.278   0.882   5.173
 6355TIP3    H219030   5.240   0.949   5.304
 6356TIP3   OH219031   5.001   1.115   4.753
 6356TIP3    H119032   5.065   1.181   4.781
 6356TIP3    H219033   4.968   1.078   4.835
 6357TIP3   OH219034   3.939   1.901   4.627
 6357TIP3    H119035   4.009   1.840   4.647
 6357TIP3    H219036   3.869   1.846   4.591
 6358TIP3   OH219037   4.456   4.771   3.743
 6358TIP3    H119038   4.402   4.720   3.683
 6358TIP3    H219039   4.454   4.723   3.825
 6359TIP3   OH219040   5.236   1.007   1.785
 6359TIP3    H119041   5.168   1.056   1.831
 6359TIP3    H219042   5.240   0.923   1.830
 6360TIP3   OH219043   0.163   1.947   4.405
 6360TIP3    H119044   0.214   1.878   4.447
 6360TIP3    H219045   0.225   1.989   4.345
 6361TIP3   OH219046   3.847   2.848   4.356
 6361TIP3    H119047   3.805   2.862   4.441
 6361TIP3    H219048   3.835   2.755   4.337
 6362TIP3   OH219049   3.180   5.409   4.661
 6362TIP3    H119050   3.153   5.334   4.608
 6362TIP3    H219051   3.275   5.399   4.669
 6363TIP3   OH219052   3.541   1.696   2.623
 6363TIP3    H119053   3.634   1.698   2.599
 6363TIP3    H219054   3.540   1.667   2.714
 6364TIP3   OH219055   2.300   2.588   3.407
 6364TIP3    H119056   2.354   2.621   3.335
 6364TIP3    H219057   2.337   2.629   3.485
 6365TIP3   OH219058   6.735   3.603   4.304
 6365TIP3    H119059   6.755   3.697   4.299
 6365TIP3    H219060   6.649   3.595   4.262
 6366TIP3   OH219061   0.765   4.606   4.313
 6366TIP3    H119062   0.688   4.560   4.278
 6366TIP3    H219063   0.769   4.687   4.262
 6367TIP3   OH219064   6.625   0.039   5.266
 6367TIP3    H119065   6.569  -0.027   5.225
 6367TIP3    H219066   6.714   0.016   5.239
 6368TIP3   OH219067   6.681   0.351   4.382
 6368TIP3    H119068   6.603   0.372   4.331
 6368TIP3    H219069   6.700   0.259   4.360
 6369TIP3   OH219070   0.143   0.268   2.182
 6369TIP3    H119071   0.124   0.243   2.091
 6369TIP3    H219072   0.156   0.185   2.227
 6370TIP3   OH219073   2.948   0.255   2.828
 6370TIP3    H119074   2.889   0.244   2.902
 6370TIP3    H219075   2.915   0.195   2.761
 6371TIP3   OH219076   6.576   3.771   4.574
 6371TIP3    H119077   6.529   3.781   4.490
 6371TIP3    H219078   6.506   3.762   4.639
 6372TIP3   OH219079   6.943   3.353   4.245
 6372TIP3    H119080   7.014   3.309   4.199
 6372TIP3    H219081   6.894   3.283   4.289
 6373TIP3   OH219082   4.712   4.027   1.653
 6373TIP3    H119083   4.670   4.110   1.631
 6373TIP3    H219084   4.778   4.013   1.585
 6374TIP3   OH219085   3.018   0.404   1.528
 6374TIP3    H119086   3.108   0.372   1.536
 6374TIP3    H219087   3.003   0.411   1.434
 6375TIP3   OH219088   3.110   5.441   1.510
 6375TIP3    H119089   3.127   5.462   1.418
 6375TIP3    H219090   3.017   5.419   1.512
 6376TIP3   OH219091   1.531   5.518   3.289
 6376TIP3    H119092   1.592   5.450   3.315
 6376TIP3    H219093   1.529   5.514   3.194
 6377TIP3   OH219094   0.645   6.167   4.406
 6377TIP3    H119095   0.565   6.206   4.371
 6377TIP3    H219096   0.632   6.167   4.501
 6378TIP3   OH219097   2.991   6.614   4.332
 6378TIP3    H119098   3.081   6.645   4.339
 6378TIP3    H219099   2.946   6.684   4.284
 6379TIP3   OH219100   4.546   1.161   2.929
 6379TIP3    H119101   4.574   1.184   2.840
 6379TIP3    H219102   4.518   1.243   2.968
 6380TIP3   OH219103   5.773   4.556   0.586
 6380TIP3    H119104   5.812   4.631   0.541
 6380TIP3    H219105   5.824   4.547   0.667
 6381TIP3   OH219106   4.616   5.582   2.824
 6381TIP3    H119107   4.557   5.620   2.889
 6381TIP3    H219108   4.559   5.529   2.768
 6382TIP3   OH219109   6.838   5.518   4.069
 6382TIP3    H119110   6.912   5.457   4.066
 6382TIP3    H219111   6.764   5.465   4.100
 6383TIP3   OH219112   6.508   6.733   0.381
 6383TIP3    H119113   6.572   6.688   0.326
 6383TIP3    H219114   6.559   6.799   0.428
 6384TIP3   OH219115   3.748   2.617   5.487
 6384TIP3    H119116   3.719   2.703   5.456
 6384TIP3    H219117   3.667   2.569   5.503
 6385TIP3   OH219118   3.155   6.247   5.413
 6385TIP3    H119119   3.078   6.305   5.408
 6385TIP3    H219120   3.169   6.235   5.506
 6386TIP3   OH219121   7.168   2.182   0.719
 6386TIP3    H119122   7.086   2.214   0.759
 6386TIP3    H219123   7.190   2.104   0.771
 6387TIP3   OH219124   6.440   3.608   4.785
 6387TIP3    H119125   6.361   3.634   4.832
 6387TIP3    H219126   6.512   3.643   4.837
 6388TIP3   OH219127   5.924   0.293   4.065
 6388TIP3    H119128   5.969   0.289   4.150
 6388TIP3    H219129   5.970   0.229   4.010
 6389TIP3   OH219130   3.667   5.630   3.341
 6389TIP3    H119131   3.614   5.708   3.324
 6389TIP3    H219132   3.607   5.568   3.383
 6390TIP3   OH219133   6.328   2.266   2.495
 6390TIP3    H119134   6.414   2.224   2.508
 6390TIP3    H219135   6.331   2.299   2.405
 6391TIP3   OH219136   6.541   0.006   3.964
 6391TIP3    H119137   6.475   0.062   3.924
 6391TIP3    H219138   6.614   0.066   3.982
 6392TIP3   OH219139   1.013   5.035   3.234
 6392TIP3    H119140   1.006   4.956   3.180
 6392TIP3    H219141   1.052   5.005   3.316
 6393TIP3   OH219142   5.750   5.547   1.098
 6393TIP3    H119143   5.723   5.456   1.092
 6393TIP3    H219144   5.845   5.545   1.081
 6394TIP3   OH219145   5.298   3.893   4.675
 6394TIP3    H119146   5.281   3.805   4.707
 6394TIP3    H219147   5.226   3.946   4.709
 6395TIP3   OH219148   2.413   5.396   2.754
 6395TIP3    H119149   2.414   5.485   2.790
 6395TIP3    H219150   2.486   5.394   2.693
 6396TIP3   OH219151   0.888   2.407   2.303
 6396TIP3    H119152   0.833   2.338   2.343
 6396TIP3    H219153   0.834   2.442   2.232
 6397TIP3   OH219154   2.604   3.198   5.021
 6397TIP3    H119155   2.581   3.243   4.939
 6397TIP3    H219156   2.629   3.110   4.995
 6398TIP3   OH219157   7.132   1.589   1.246
 6398TIP3    H119158   7.170   1.602   1.159
 6398TIP3    H219159   7.147   1.672   1.291
 6399TIP3   OH219160   6.369   0.419   1.694
 6399TIP3    H119161   6.420   0.496   1.669
 6399TIP3    H219162   6.344   0.378   1.611
 6400TIP3   OH219163   7.096   3.889   5.575
 6400TIP3    H119164   7.188   3.895   5.599
 6400TIP3    H219165   7.078   3.973   5.532
 6401TIP3   OH219166   5.143   4.026   3.322
 6401TIP3    H119167   5.164   4.017   3.229
 6401TIP3    H219168   5.182   4.109   3.348
 6402TIP3   OH219169   5.403   4.836   3.613
 6402TIP3    H119170   5.474   4.899   3.605
 6402TIP3    H219171   5.437   4.756   3.572
 6403TIP3   OH219172   0.831   4.901   4.675
 6403TIP3    H119173   0.836   4.954   4.755
 6403TIP3    H219174   0.828   4.965   4.604
 6404TIP3   OH219175   3.847   3.790   4.892
 6404TIP3    H119176   3.822   3.876   4.924
 6404TIP3    H219177   3.806   3.783   4.805
 6405TIP3   OH219178   0.196   5.329   5.767
 6405TIP3    H119179   0.165   5.306   5.854
 6405TIP3    H219180   0.250   5.406   5.780
 6406TIP3   OH219181   0.624   1.872   2.463
 6406TIP3    H119182   0.662   1.896   2.378
 6406TIP3    H219183   0.602   1.780   2.454
 6407TIP3   OH219184   4.086   5.717   3.264
 6407TIP3    H119185   4.054   5.755   3.182
 6407TIP3    H219186   4.181   5.727   3.260
 6408TIP3   OH219187   1.153   5.723   3.144
 6408TIP3    H119188   1.212   5.787   3.184
 6408TIP3    H219189   1.067   5.765   3.146
 6409TIP3   OH219190   6.581   3.478   5.541
 6409TIP3    H119191   6.528   3.417   5.490
 6409TIP3    H219192   6.652   3.425   5.575
 6410TIP3   OH219193   3.065   1.319   4.943
 6410TIP3    H119194   3.094   1.345   4.856
 6410TIP3    H219195   3.129   1.254   4.972
 6411TIP3   OH219196   6.636   4.960   0.391
 6411TIP3    H119197   6.572   4.892   0.413
 6411TIP3    H219198   6.697   4.917   0.331
 6412TIP3   OH219199   5.668   1.493   2.879
 6412TIP3    H119200   5.574   1.506   2.869
 6412TIP3    H219201   5.702   1.581   2.900
 6413TIP3   OH219202   1.756   0.425   2.504
 6413TIP3    H119203   1.662   0.413   2.490
 6413TIP3    H219204   1.780   0.502   2.452
 6414TIP3   OH219205   4.090   2.774   2.553
 6414TIP3    H119206   4.149   2.699   2.551
 6414TIP3    H219207   4.136   2.843   2.506
 6415TIP3   OH219208   6.450   2.909   3.161
 6415TIP3    H119209   6.356   2.899   3.173
 6415TIP3    H219210   6.471   2.993   3.201
 6416TIP3   OH219211   5.633   4.475   2.957
 6416TIP3    H119212   5.683   4.394   2.971
 6416TIP3    H219213   5.659   4.504   2.869
 6417TIP3   OH219214   3.591   0.365   5.511
 6417TIP3    H119215   3.651   0.436   5.532
 6417TIP3    H219216   3.599   0.354   5.416
 6418TIP3   OH219217   2.610   2.054   1.135
 6418TIP3    H119218   2.586   2.146   1.122
 6418TIP3    H219219   2.605   2.041   1.230
 6419TIP3   OH219220   6.821   0.894   1.301
 6419TIP3    H119221   6.903   0.877   1.255
 6419TIP3    H219222   6.763   0.823   1.275
 6420TIP3   OH219223   3.241   6.656   5.262
 6420TIP3    H119224   3.222   6.621   5.349
 6420TIP3    H219225   3.323   6.614   5.237
 6421TIP3   OH219226   4.795   4.357   2.286
 6421TIP3    H119227   4.839   4.306   2.355
 6421TIP3    H219228   4.702   4.351   2.308
 6422TIP3   OH219229   6.416   1.054   1.144
 6422TIP3    H119230   6.486   1.093   1.196
 6422TIP3    H219231   6.412   1.108   1.065
 6423TIP3   OH219232   6.200   3.327   1.356
 6423TIP3    H119233   6.256   3.266   1.309
 6423TIP3    H219234   6.114   3.317   1.315
 6424TIP3   OH219235   0.603   1.287   0.116
 6424TIP3    H119236   0.582   1.314   0.027
 6424TIP3    H219237   0.643   1.200   0.106
 6425TIP3   OH219238   0.202   6.432   1.703
 6425TIP3    H119239   0.235   6.344   1.686
 6425TIP3    H219240   0.279   6.488   1.698
 6426TIP3   OH219241   4.314   3.239   0.478
 6426TIP3    H119242   4.231   3.279   0.505
 6426TIP3    H219243   4.308   3.235   0.383
 6427TIP3   OH219244   6.049   6.525   5.231
 6427TIP3    H119245   5.993   6.464   5.182
 6427TIP3    H219246   6.109   6.560   5.165
 6428TIP3   OH219247   1.027   5.898   5.474
 6428TIP3    H119248   0.966   5.868   5.407
 6428TIP3    H219249   1.104   5.843   5.464
 6429TIP3   OH219250   5.183   5.246   1.296
 6429TIP3    H119251   5.101   5.293   1.311
 6429TIP3    H219252   5.236   5.307   1.243
 6430TIP3   OH219253   6.096   4.681   4.040
 6430TIP3    H119254   6.155   4.705   4.111
 6430TIP3    H219255   6.041   4.759   4.027
 6431TIP3   OH219256   5.932   6.277   4.578
 6431TIP3    H119257   5.887   6.351   4.618
 6431TIP3    H219258   6.022   6.307   4.564
 6432TIP3   OH219259   4.371   2.801   1.741
 6432TIP3    H119260   4.462   2.797   1.770
 6432TIP3    H219261   4.320   2.790   1.822
 6433TIP3   OH219262   2.253   5.812   1.244
 6433TIP3    H119263   2.341   5.826   1.279
 6433TIP3    H219264   2.210   5.756   1.308
 6434TIP3   OH219265   6.266   3.797   1.457
 6434TIP3    H119266   6.302   3.723   1.506
 6434TIP3    H219267   6.193   3.760   1.408
 6435TIP3   OH219268   1.692   0.535   5.572
 6435TIP3    H119269   1.689   0.545   5.667
 6435TIP3    H219270   1.685   0.624   5.538
 6436TIP3   OH219271   4.022   4.606   1.958
 6436TIP3    H119272   4.093   4.547   1.981
 6436TIP3    H219273   3.947   4.574   2.008
 6437TIP3   OH219274   4.807   1.818   4.692
 6437TIP3    H119275   4.716   1.839   4.712
 6437TIP3    H219276   4.810   1.722   4.697
 6438TIP3   OH219277   2.588   0.930   4.533
 6438TIP3    H119278   2.590   1.007   4.590
 6438TIP3    H219279   2.667   0.938   4.480
 6439TIP3   OH219280   1.717   6.716   1.078
 6439TIP3    H119281   1.697   6.800   1.036
 6439TIP3    H219282   1.777   6.673   1.017
 6440TIP3   OH219283   7.201   2.734   3.323
 6440TIP3    H119284   7.180   2.731   3.416
 6440TIP3    H219285   7.169   2.819   3.293
 6441TIP3   OH219286   3.622   2.751   2.918
 6441TIP3    H119287   3.663   2.832   2.888
 6441TIP3    H219288   3.607   2.765   3.012
 6442TIP3   OH219289   3.812   4.450   2.645
 6442TIP3    H119290   3.757   4.373   2.656
 6442TIP3    H219291   3.787   4.509   2.716
 6443TIP3   OH219292   6.672   6.843   2.629
 6443TIP3    H119293   6.639   6.819   2.542
 6443TIP3    H219294   6.696   6.759   2.669
 6444TIP3   OH219295   5.968   6.565   2.900
 6444TIP3    H119296   5.942   6.478   2.868
 6444TIP3    H219297   6.054   6.580   2.862
 6445TIP3   OH219298   0.382   4.774   2.619
 6445TIP3    H119299   0.299   4.755   2.662
 6445TIP3    H219300   0.442   4.795   2.691
 6446TIP3   OH219301   4.798   6.131   1.147
 6446TIP3    H119302   4.870   6.145   1.085
 6446TIP3    H219303   4.829   6.166   1.230
 6447TIP3   OH219304   1.365   0.314   3.713
 6447TIP3    H119305   1.385   0.404   3.690
 6447TIP3    H219306   1.345   0.317   3.806
 6448TIP3   OH219307   7.026   2.707   5.825
 6448TIP3    H119308   7.010   2.764   5.901
 6448TIP3    H219309   6.949   2.652   5.820
 6449TIP3   OH219310   0.110   5.507   2.016
 6449TIP3    H119311   0.106   5.412   2.032
 6449TIP3    H219312   0.021   5.531   1.993
 6450TIP3   OH219313   1.892   4.875   3.154
 6450TIP3    H119314   1.823   4.897   3.217
 6450TIP3    H219315   1.854   4.805   3.100
 6451TIP3   OH219316   2.827   4.986   0.744
 6451TIP3    H119317   2.922   4.976   0.747
 6451TIP3    H219318   2.802   4.995   0.836
 6452TIP3   OH219319   0.403   6.298   1.382
 6452TIP3    H119320   0.319   6.342   1.389
 6452TIP3    H219321   0.447   6.341   1.309
 6453TIP3   OH219322   3.898   2.814   5.720
 6453TIP3    H119323   3.905   2.771   5.635
 6453TIP3    H219324   3.891   2.907   5.700
 6454TIP3   OH219325   7.135   5.057   0.614
 6454TIP3    H119326   7.060   5.008   0.580
 6454TIP3    H219327   7.173   5.000   0.680
 6455TIP3   OH219328   2.992   3.794   0.887
 6455TIP3    H119329   2.925   3.771   0.952
 6455TIP3    H219330   3.013   3.885   0.905
 6456TIP3   OH219331   6.663   4.023   2.721
 6456TIP3    H119332   6.602   4.065   2.783
 6456TIP3    H219333   6.638   4.057   2.636
 6457TIP3   OH219334   2.917   2.933   1.736
 6457TIP3    H119335   2.824   2.923   1.754
 6457TIP3    H219336   2.935   3.026   1.747
 6458TIP3   OH219337   4.045   0.409   5.730
 6458TIP3    H119338   4.089   0.460   5.798
 6458TIP3    H219339   3.956   0.444   5.729
 6459TIP3   OH219340   6.366   3.428   3.706
 6459TIP3    H119341   6.414   3.389   3.633
 6459TIP3    H219342   6.418   3.409   3.783
 6460TIP3   OH219343   4.462   1.549   5.707
 6460TIP3    H119344   4.525   1.530   5.637
 6460TIP3    H219345   4.511   1.604   5.768
 6461TIP3   OH219346   6.594   0.360   2.843
 6461TIP3    H119347   6.645   0.413   2.904
 6461TIP3    H219348   6.641   0.366   2.760
 6462TIP3   OH219349   0.233   3.935   0.307
 6462TIP3    H119350   0.239   3.952   0.213
 6462TIP3    H219351   0.254   3.842   0.316
 6463TIP3   OH219352   6.715   0.788   1.588
 6463TIP3    H119353   6.736   0.734   1.664
 6463TIP3    H219354   6.800   0.816   1.554
 6464TIP3   OH219355   3.432   1.727   1.220
 6464TIP3    H119356   3.466   1.816   1.213
 6464TIP3    H219357   3.509   1.672   1.233
 6465TIP3   OH219358   0.770   5.865   2.374
 6465TIP3    H119359   0.749   5.778   2.341
 6465TIP3    H219360   0.699   5.920   2.342
 6466TIP3   OH219361   4.212   6.481   0.425
 6466TIP3    H119362   4.189   6.403   0.374
 6466TIP3    H219363   4.187   6.555   0.369
 6467TIP3   OH219364   3.024   5.462   4.122
 6467TIP3    H119365   2.967   5.425   4.054
 6467TIP3    H219366   3.008   5.556   4.118
 6468TIP3   OH219367   3.862   4.299   5.726
 6468TIP3    H119368   3.871   4.394   5.720
 6468TIP3    H219369   3.834   4.283   5.816
 6469TIP3   OH219370   0.191   3.238   0.917
 6469TIP3    H119371   0.097   3.216   0.915
 6469TIP3    H219372   0.235   3.153   0.914
 6470TIP3   OH219373   0.533   2.308   4.113
 6470TIP3    H119374   0.537   2.363   4.035
 6470TIP3    H219375   0.446   2.267   4.109
 6471TIP3   OH219376   3.487   0.587   0.895
 6471TIP3    H119377   3.569   0.627   0.923
 6471TIP3    H219378   3.427   0.661   0.884
 6472TIP3   OH219379   5.928   6.351   5.067
 6472TIP3    H119380   5.989   6.279   5.053
 6472TIP3    H219381   5.842   6.314   5.051
 6473TIP3   OH219382   6.078   4.916   3.124
 6473TIP3    H119383   6.092   4.862   3.047
 6473TIP3    H219384   6.163   4.917   3.169
 6474TIP3   OH219385   3.803   3.071   0.101
 6474TIP3    H119386   3.894   3.048   0.080
 6474TIP3    H219387   3.783   3.019   0.179
 6475TIP3   OH219388   2.748   4.565   3.602
 6475TIP3    H119389   2.676   4.579   3.541
 6475TIP3    H219390   2.728   4.481   3.644
 6476TIP3   OH219391   4.051   4.649   0.874
 6476TIP3    H119392   4.129   4.694   0.842
 6476TIP3    H219393   4.024   4.699   0.951
 6477TIP3   OH219394   0.211   2.239   1.648
 6477TIP3    H119395   0.237   2.147   1.647
 6477TIP3    H219396   0.200   2.260   1.741
 6478TIP3   OH219397   7.223   3.255   4.253
 6478TIP3    H119398   7.201   3.162   4.254
 6478TIP3    H219399   7.208   3.284   4.343
 6479TIP3   OH219400   2.028   3.090   5.225
 6479TIP3    H119401   1.933   3.079   5.219
 6479TIP3    H219402   2.063   3.026   5.162
 6480TIP3   OH219403   0.982   3.873   3.608
 6480TIP3    H119404   1.024   3.864   3.522
 6480TIP3    H219405   0.952   3.785   3.629
 6481TIP3   OH219406   3.653   0.103   0.258
 6481TIP3    H119407   3.732   0.049   0.258
 6481TIP3    H219408   3.658   0.151   0.175
 6482TIP3   OH219409   1.657   5.451  -0.001
 6482TIP3    H119410   1.688   5.541  -0.012
 6482TIP3    H219411   1.613   5.452   0.085
 6483TIP3   OH219412   5.357   6.724   3.384
 6483TIP3    H119413   5.295   6.774   3.332
 6483TIP3    H219414   5.438   6.725   3.333
 6484TIP3   OH219415   5.801   0.534   4.104
 6484TIP3    H119416   5.831   0.444   4.097
 6484TIP3    H219417   5.792   0.564   4.013
 6485TIP3   OH219418   4.088   5.625   1.744
 6485TIP3    H119419   4.091   5.537   1.781
 6485TIP3    H219420   4.153   5.624   1.674
 6486TIP3   OH219421   7.023   3.013   5.278
 6486TIP3    H119422   6.985   2.925   5.278
 6486TIP3    H219423   7.117   2.999   5.275
 6487TIP3   OH219424   2.306   2.701   4.967
 6487TIP3    H119425   2.282   2.617   4.927
 6487TIP3    H219426   2.334   2.679   5.056
 6488TIP3   OH219427   1.550   4.511   3.848
 6488TIP3    H119428   1.505   4.430   3.871
 6488TIP3    H219429   1.592   4.539   3.929
 6489TIP3   OH219430   0.958   1.228   1.931
 6489TIP3    H119431   1.026   1.268   1.985
 6489TIP3    H219432   0.985   1.137   1.922
 6490TIP3   OH219433   4.685   4.805   1.999
 6490TIP3    H119434   4.638   4.794   1.916
 6490TIP3    H219435   4.777   4.795   1.976
 6491TIP3   OH219436   5.888   3.653   1.062
 6491TIP3    H119437   5.827   3.579   1.059
 6491TIP3    H219438   5.840   3.725   1.020
 6492TIP3   OH219439   4.409   4.513   3.435
 6492TIP3    H119440   4.396   4.509   3.340
 6492TIP3    H219441   4.491   4.563   3.445
 6493TIP3   OH219442   5.745   0.684   3.532
 6493TIP3    H119443   5.787   0.768   3.552
 6493TIP3    H219444   5.770   0.665   3.441
 6494TIP3   OH219445   2.820   0.850   4.812
 6494TIP3    H119446   2.750   0.915   4.819
 6494TIP3    H219447   2.889   0.884   4.868
 6495TIP3   OH219448   0.726   0.814   5.549
 6495TIP3    H119449   0.716   0.850   5.461
 6495TIP3    H219450   0.820   0.815   5.565
 6496TIP3   OH219451   3.163   0.211   4.748
 6496TIP3    H119452   3.213   0.288   4.777
 6496TIP3    H219453   3.230   0.146   4.727
 6497TIP3   OH219454   3.915   3.010   3.450
 6497TIP3    H119455   3.879   3.079   3.395
 6497TIP3    H219456   4.010   3.014   3.434
 6498TIP3   OH219457   6.541   1.747   4.125
 6498TIP3    H119458   6.605   1.684   4.157
 6498TIP3    H219459   6.584   1.791   4.052
 6499TIP3   OH219460   1.824   0.857   4.714
 6499TIP3    H119461   1.892   0.864   4.647
 6499TIP3    H219462   1.797   0.947   4.731
 6500TIP3   OH219463   4.439   6.253   5.702
 6500TIP3    H119464   4.491   6.325   5.739
 6500TIP3    H219465   4.348   6.280   5.717
 6501TIP3   OH219466   3.482   5.102   2.496
 6501TIP3    H119467   3.449   5.187   2.525
 6501TIP3    H219468   3.502   5.055   2.577
 6502TIP3   OH219469   5.751   3.546   4.318
 6502TIP3    H119470   5.731   3.596   4.398
 6502TIP3    H219471   5.686   3.575   4.254
 6503TIP3   OH219472   6.246   2.464   2.710
 6503TIP3    H119473   6.285   2.546   2.680
 6503TIP3    H219474   6.257   2.404   2.636
 6504TIP3   OH219475   6.851   4.689   5.169
 6504TIP3    H119476   6.784   4.634   5.128
 6504TIP3    H219477   6.869   4.645   5.252
 6505TIP3   OH219478   2.389   3.874   5.462
 6505TIP3    H119479   2.332   3.855   5.387
 6505TIP3    H219480   2.386   3.794   5.515
 6506TIP3   OH219481   0.580   0.399   3.197
 6506TIP3    H119482   0.550   0.403   3.106
 6506TIP3    H219483   0.663   0.447   3.197
 6507TIP3   OH219484   6.247   1.749   3.852
 6507TIP3    H119485   6.226   1.686   3.784
 6507TIP3    H219486   6.180   1.816   3.844
 6508TIP3   OH219487   5.764   6.423   5.831
 6508TIP3    H119488   5.802   6.414   5.743
 6508TIP3    H219489   5.754   6.333   5.862
 6509TIP3   OH219490   6.814   1.117   3.987
 6509TIP3    H119491   6.816   1.212   3.985
 6509TIP3    H219492   6.724   1.094   3.965
 6510TIP3   OH219493   3.942   5.521   1.988
 6510TIP3    H119494   3.897   5.440   1.964
 6510TIP3    H219495   3.957   5.513   2.082
 6511TIP3   OH219496   5.467   6.039   3.755
 6511TIP3    H119497   5.387   6.076   3.717
 6511TIP3    H219498   5.436   5.991   3.832
 6512TIP3   OH219499   5.153   1.803   1.561
 6512TIP3    H119500   5.102   1.773   1.487
 6512TIP3    H219501   5.201   1.726   1.591
 6513TIP3   OH219502   1.274   6.455   0.564
 6513TIP3    H119503   1.347   6.401   0.534
 6513TIP3    H219504   1.251   6.508   0.487
 6514TIP3   OH219505   0.284   6.163   5.553
 6514TIP3    H119506   0.315   6.150   5.464
 6514TIP3    H219507   0.330   6.097   5.605
 6515TIP3   OH219508   0.637   5.873   3.347
 6515TIP3    H119509   0.594   5.815   3.410
 6515TIP3    H219510   0.571   5.887   3.279
 6516TIP3   OH219511   4.510   4.826   5.188
 6516TIP3    H119512   4.433   4.769   5.193
 6516TIP3    H219513   4.488   4.891   5.121
 6517TIP3   OH219514   5.417   5.770   2.331
 6517TIP3    H119515   5.454   5.782   2.243
 6517TIP3    H219516   5.322   5.769   2.316
 6518TIP3   OH219517   0.668   2.768   0.394
 6518TIP3    H119518   0.761   2.787   0.409
 6518TIP3    H219519   0.628   2.776   0.481
 6519TIP3   OH219520   3.720   0.249   1.245
 6519TIP3    H119521   3.806   0.224   1.279
 6519TIP3    H219522   3.737   0.282   1.157
 6520TIP3   OH219523   5.740   6.039   4.062
 6520TIP3    H119524   5.671   6.083   4.113
 6520TIP3    H219525   5.777   6.108   4.008
 6521TIP3   OH219526   6.096   1.981   2.326
 6521TIP3    H119527   6.057   2.063   2.357
 6521TIP3    H219528   6.068   1.915   2.390
 6522TIP3   OH219529   6.964   4.032   5.380
 6522TIP3    H119530   7.024   3.964   5.349
 6522TIP3    H219531   6.918   4.062   5.302
 6523TIP3   OH219532   0.516   3.515   3.591
 6523TIP3    H119533   0.578   3.444   3.609
 6523TIP3    H219534   0.465   3.484   3.516
 6524TIP3   OH219535   6.926   0.902   3.050
 6524TIP3    H119536   6.906   0.993   3.029
 6524TIP3    H219537   6.866   0.880   3.121
 6525TIP3   OH219538   5.527   1.466   1.538
 6525TIP3    H119539   5.533   1.509   1.624
 6525TIP3    H219540   5.608   1.490   1.494
 6526TIP3   OH219541   2.927   5.801   1.311
 6526TIP3    H119542   2.992   5.829   1.247
 6526TIP3    H219543   2.978   5.779   1.389
 6527TIP3   OH219544   4.890   4.262   4.617
 6527TIP3    H119545   4.904   4.203   4.690
 6527TIP3    H219546   4.833   4.331   4.652
 6528TIP3   OH219547   2.187   3.625   4.072
 6528TIP3    H119548   2.235   3.677   4.007
 6528TIP3    H219549   2.184   3.537   4.034
 6529TIP3   OH219550   0.124   3.609   2.945
 6529TIP3    H119551   0.050   3.591   3.003
 6529TIP3    H219552   0.093   3.679   2.888
 6530TIP3   OH219553   3.529   4.027   4.636
 6530TIP3    H119554   3.449   4.036   4.688
 6530TIP3    H219555   3.592   4.084   4.680
 6531TIP3   OH219556   5.968   5.933   3.236
 6531TIP3    H119557   6.007   5.867   3.294
 6531TIP3    H219558   5.876   5.909   3.231
 6532TIP3   OH219559   0.246   4.621   1.874
 6532TIP3    H119560   0.253   4.542   1.929
 6532TIP3    H219561   0.195   4.682   1.927
 6533TIP3   OH219562   2.745   1.929   3.406
 6533TIP3    H119563   2.676   1.942   3.340
 6533TIP3    H219564   2.817   1.890   3.357
 6534TIP3   OH219565   7.132   0.797   2.417
 6534TIP3    H119566   7.179   0.854   2.477
 6534TIP3    H219567   7.042   0.828   2.420
 6535TIP3   OH219568   1.535   5.948   3.723
 6535TIP3    H119569   1.544   5.961   3.628
 6535TIP3    H219570   1.557   5.856   3.737
 6536TIP3   OH219571   5.217   0.275   2.963
 6536TIP3    H119572   5.268   0.233   2.894
 6536TIP3    H219573   5.137   0.223   2.969
 6537TIP3   OH219574   4.576   3.492   2.551
 6537TIP3    H119575   4.544   3.513   2.639
 6537TIP3    H219576   4.566   3.397   2.544
 6538TIP3   OH219577   4.747   5.678   0.175
 6538TIP3    H119578   4.779   5.588   0.175
 6538TIP3    H219579   4.697   5.686   0.093
 6539TIP3   OH219580   5.761   4.244   1.201
 6539TIP3    H119581   5.750   4.271   1.110
 6539TIP3    H219582   5.672   4.244   1.237
 6540TIP3   OH219583   5.895   2.736   1.559
 6540TIP3    H119584   5.800   2.744   1.565
 6540TIP3    H219585   5.910   2.644   1.534
 6541TIP3   OH219586   1.508   3.027   2.903
 6541TIP3    H119587   1.536   2.962   2.967
 6541TIP3    H219588   1.412   3.028   2.911
 6542TIP3   OH219589   0.624   1.266   3.643
 6542TIP3    H119590   0.643   1.249   3.735
 6542TIP3    H219591   0.529   1.254   3.635
 6543TIP3   OH219592   5.281   3.976   0.267
 6543TIP3    H119593   5.195   3.959   0.306
 6543TIP3    H219594   5.282   3.922   0.188
 6544TIP3   OH219595   0.812   2.597   3.012
 6544TIP3    H119596   0.810   2.592   2.916
 6544TIP3    H219597   0.812   2.691   3.032
 6545TIP3   OH219598   0.102   2.166   0.089
 6545TIP3    H119599   0.128   2.258   0.095
 6545TIP3    H219600   0.111   2.145  -0.004
 6546TIP3   OH219601   0.295   2.448   4.847
 6546TIP3    H119602   0.383   2.480   4.865
 6546TIP3    H219603   0.258   2.514   4.788
 6547TIP3   OH219604   1.355   6.050   5.745
 6547TIP3    H119605   1.317   6.060   5.832
 6547TIP3    H219606   1.290   6.086   5.685
 6548TIP3   OH219607   4.646   0.109   4.356
 6548TIP3    H119608   4.698   0.119   4.436
 6548TIP3    H219609   4.682   0.175   4.296
 6549TIP3   OH219610   5.143   5.555   0.356
 6549TIP3    H119611   5.219   5.530   0.302
 6549TIP3    H219612   5.177   5.557   0.445
 6550TIP3   OH219613   3.763   2.005   5.710
 6550TIP3    H119614   3.835   1.958   5.667
 6550TIP3    H219615   3.761   2.090   5.665
 6551TIP3   OH219616   6.293   1.522   3.996
 6551TIP3    H119617   6.326   1.543   4.083
 6551TIP3    H219618   6.282   1.608   3.953
 6552TIP3   OH219619   1.424   1.571   3.163
 6552TIP3    H119620   1.511   1.555   3.127
 6552TIP3    H219621   1.427   1.535   3.252
 6553TIP3   OH219622   0.700   3.776   3.409
 6553TIP3    H119623   0.722   3.861   3.445
 6553TIP3    H219624   0.662   3.728   3.482
 6554TIP3   OH219625   1.379   0.639   1.585
 6554TIP3    H119626   1.464   0.646   1.542
 6554TIP3    H219627   1.316   0.671   1.520
 6555TIP3   OH219628   4.311   0.315   2.508
 6555TIP3    H119629   4.285   0.382   2.445
 6555TIP3    H219630   4.404   0.328   2.522
 6556TIP3   OH219631   3.455   2.746   1.618
 6556TIP3    H119632   3.366   2.756   1.585
 6556TIP3    H219633   3.509   2.799   1.559
 6557TIP3   OH219634   2.087   4.874   2.366
 6557TIP3    H119635   2.035   4.928   2.307
 6557TIP3    H219636   2.023   4.836   2.426
 6558TIP3   OH219637   3.361   4.918   5.780
 6558TIP3    H119638   3.367   4.841   5.836
 6558TIP3    H219639   3.293   4.972   5.820
 6559TIP3   OH219640   4.726   4.300   3.037
 6559TIP3    H119641   4.706   4.311   2.944
 6559TIP3    H219642   4.803   4.244   3.038
 6560TIP3   OH219643   7.166   1.873   0.595
 6560TIP3    H119644   7.227   1.918   0.537
 6560TIP3    H219645   7.117   1.944   0.638
 6561TIP3   OH219646   4.531   0.575   5.845
 6561TIP3    H119647   4.607   0.539   5.800
 6561TIP3    H219648   4.550   0.566   5.938
 6562TIP3   OH219649   6.338   0.808   2.856
 6562TIP3    H119650   6.349   0.869   2.783
 6562TIP3    H219651   6.313   0.725   2.814
 6563TIP3   OH219652   2.298   4.994   5.487
 6563TIP3    H119653   2.349   4.990   5.406
 6563TIP3    H219654   2.213   5.029   5.460
 6564TIP3   OH219655   0.528   5.486   2.617
 6564TIP3    H119656   0.596   5.515   2.555
 6564TIP3    H219657   0.448   5.484   2.565
 6565TIP3   OH219658   5.769   1.012   1.999
 6565TIP3    H119659   5.754   1.012   2.094
 6565TIP3    H219660   5.790   0.921   1.978
 6566TIP3   OH219661   0.183   6.688   4.294
 6566TIP3    H119662   0.258   6.742   4.268
 6566TIP3    H219663   0.142   6.738   4.365
 6567TIP3   OH219664   7.019   1.164   0.879
 6567TIP3    H119665   6.946   1.225   0.884
 6567TIP3    H219666   7.027   1.128   0.967
 6568TIP3   OH219667   7.140   5.164   4.341
 6568TIP3    H119668   7.171   5.073   4.337
 6568TIP3    H219669   7.122   5.179   4.434
 6569TIP3   OH219670   5.710   4.995   1.358
 6569TIP3    H119671   5.741   4.943   1.431
 6569TIP3    H219672   5.614   4.992   1.365
 6570TIP3   OH219673   2.358   3.402   4.261
 6570TIP3    H119674   2.454   3.398   4.257
 6570TIP3    H219675   2.339   3.496   4.266
 6571TIP3   OH219676   3.397   2.210   5.750
 6571TIP3    H119677   3.468   2.194   5.812
 6571TIP3    H219678   3.429   2.281   5.695
 6572TIP3   OH219679   3.377   2.083   5.490
 6572TIP3    H119680   3.398   2.096   5.582
 6572TIP3    H219681   3.361   2.171   5.456
 6573TIP3   OH219682   3.415   4.352   3.288
 6573TIP3    H119683   3.416   4.265   3.248
 6573TIP3    H219684   3.369   4.340   3.371
 6574TIP3   OH219685   6.156   5.824   5.660
 6574TIP3    H119686   6.136   5.741   5.702
 6574TIP3    H219687   6.250   5.820   5.642
 6575TIP3   OH219688   3.785   1.522   5.536
 6575TIP3    H119689   3.878   1.518   5.511
 6575TIP3    H219690   3.741   1.466   5.473
 6576TIP3   OH219691   1.489   0.286   0.936
 6576TIP3    H119692   1.443   0.370   0.926
 6576TIP3    H219693   1.431   0.233   0.991
 6577TIP3   OH219694   0.724   6.703   4.530
 6577TIP3    H119695   0.810   6.729   4.564
 6577TIP3    H219696   0.712   6.758   4.452
 6578TIP3   OH219697   4.411   3.588   2.346
 6578TIP3    H119698   4.341   3.588   2.411
 6578TIP3    H219699   4.485   3.545   2.390
 6579TIP3   OH219700   2.199   4.426   1.737
 6579TIP3    H119701   2.293   4.410   1.749
 6579TIP3    H219702   2.168   4.349   1.689
 6580TIP3   OH219703   5.848   2.812   5.021
 6580TIP3    H119704   5.872   2.763   5.100
 6580TIP3    H219705   5.931   2.849   4.990
 6581TIP3   OH219706   5.834   0.460   3.303
 6581TIP3    H119707   5.834   0.365   3.313
 6581TIP3    H219708   5.755   0.478   3.251
 6582TIP3   OH219709   6.236   3.172   4.877
 6582TIP3    H119710   6.303   3.207   4.935
 6582TIP3    H219711   6.184   3.113   4.932
 6583TIP3   OH219712   0.266   2.218   4.150
 6583TIP3    H119713   0.185   2.224   4.202
 6583TIP3    H219714   0.303   2.132   4.173
 6584TIP3   OH219715   2.641   1.638   2.493
 6584TIP3    H119716   2.723   1.610   2.451
 6584TIP3    H219717   2.591   1.558   2.505
 6585TIP3   OH219718   5.309   3.392   3.723
 6585TIP3    H119719   5.303   3.461   3.657
 6585TIP3    H219720   5.335   3.314   3.675
 6586TIP3   OH219721   6.583   3.380   0.478
 6586TIP3    H119722   6.595   3.439   0.404
 6586TIP3    H219723   6.493   3.347   0.468
 6587TIP3   OH219724   1.717   3.939   3.793
 6587TIP3    H119725   1.694   3.913   3.883
 6587TIP3    H219726   1.775   3.869   3.762
 6588TIP3   OH219727   1.695   4.251   4.380
 6588TIP3    H119728   1.674   4.164   4.346
 6588TIP3    H219729   1.707   4.306   4.302
 6589TIP3   OH219730   0.471   6.653   0.341
 6589TIP3    H119731   0.428   6.731   0.377
 6589TIP3    H219732   0.552   6.645   0.391
 6590TIP3   OH219733   1.719   4.379   0.305
 6590TIP3    H119734   1.714   4.405   0.397
 6590TIP3    H219735   1.762   4.453   0.262
 6591TIP3   OH219736   1.346   4.354   4.055
 6591TIP3    H119737   1.381   4.391   4.136
 6591TIP3    H219738   1.251   4.355   4.067
 6592TIP3   OH219739   2.217   6.629   4.388
 6592TIP3    H119740   2.212   6.721   4.360
 6592TIP3    H219741   2.310   6.607   4.379
 6593TIP3   OH219742   3.069   2.824   1.164
 6593TIP3    H119743   3.022   2.879   1.101
 6593TIP3    H219744   3.035   2.735   1.148
 6594TIP3   OH219745   1.968   3.382   1.570
 6594TIP3    H119746   1.961   3.393   1.475
 6594TIP3    H219747   1.886   3.338   1.594
 6595TIP3   OH219748   6.786   2.024   3.115
 6595TIP3    H119749   6.709   2.067   3.078
 6595TIP3    H219750   6.860   2.078   3.087
 6596TIP3   OH219751   5.551   5.291   0.165
 6596TIP3    H119752   5.615   5.222   0.185
 6596TIP3    H219753   5.589   5.337   0.089
 6597TIP3   OH219754   4.414   2.415   1.474
 6597TIP3    H119755   4.430   2.343   1.413
 6597TIP3    H219756   4.339   2.385   1.527
 6598TIP3   OH219757   2.089   2.835   5.414
 6598TIP3    H119758   2.149   2.907   5.431
 6598TIP3    H219759   2.004   2.867   5.447
 6599TIP3   OH219760   2.113   0.407   2.409
 6599TIP3    H119761   2.174   0.455   2.353
 6599TIP3    H219762   2.033   0.401   2.356
 6600TIP3   OH219763   5.218   5.403   3.050
 6600TIP3    H119764   5.133   5.435   3.079
 6600TIP3    H219765   5.207   5.387   2.956
 6601TIP3   OH219766   2.945   4.768   0.929
 6601TIP3    H119767   2.882   4.775   1.001
 6601TIP3    H219768   2.988   4.853   0.928
 6602TIP3   OH219769   2.857   4.292   1.660
 6602TIP3    H119770   2.904   4.375   1.664
 6602TIP3    H219771   2.917   4.233   1.615
 6603TIP3   OH219772   0.331   0.397   1.059
 6603TIP3    H119773   0.401   0.460   1.041
 6603TIP3    H219774   0.301   0.369   0.973
 6604TIP3   OH219775   6.959   3.300   2.650
 6604TIP3    H119776   6.930   3.257   2.569
 6604TIP3    H219777   7.045   3.336   2.628
 6605TIP3   OH219778   1.415   5.111   0.334
 6605TIP3    H119779   1.502   5.108   0.295
 6605TIP3    H219780   1.358   5.072   0.268
 6606TIP3   OH219781   5.503   6.061   4.829
 6606TIP3    H119782   5.570   6.022   4.885
 6606TIP3    H219783   5.517   6.020   4.743
 6607TIP3   OH219784   3.109   1.298   4.384
 6607TIP3    H119785   3.149   1.247   4.455
 6607TIP3    H219786   3.160   1.379   4.382
 6608TIP3   OH219787   5.591   2.527   3.013
 6608TIP3    H119788   5.505   2.507   3.051
 6608TIP3    H219789   5.575   2.533   2.919
 6609TIP3   OH219790   5.748   6.058   5.244
 6609TIP3    H119791   5.723   6.150   5.253
 6609TIP3    H219792   5.665   6.010   5.248
 6610TIP3   OH219793   1.550   3.419   1.249
 6610TIP3    H119794   1.628   3.474   1.248
 6610TIP3    H219795   1.551   3.377   1.335
 6611TIP3   OH219796   1.345   5.877   1.544
 6611TIP3    H119797   1.425   5.871   1.491
 6611TIP3    H219798   1.284   5.927   1.489
 6612TIP3   OH219799   4.841   1.711   2.707
 6612TIP3    H119800   4.874   1.639   2.654
 6612TIP3    H219801   4.908   1.779   2.700
 6613TIP3   OH219802   6.762   1.326   5.109
 6613TIP3    H119803   6.768   1.377   5.028
 6613TIP3    H219804   6.850   1.291   5.123
 6614TIP3   OH219805   4.460   0.606   4.156
 6614TIP3    H119806   4.555   0.597   4.155
 6614TIP3    H219807   4.435   0.577   4.244
 6615TIP3   OH219808   5.221   5.508   0.033
 6615TIP3    H119809   5.261   5.430  -0.007
 6615TIP3    H219810   5.294   5.569   0.045
 6616TIP3   OH219811   6.577   1.196   0.116
 6616TIP3    H119812   6.640   1.132   0.083
 6616TIP3    H219813   6.543   1.238   0.037
 6617TIP3   OH219814   3.224   4.412   0.196
 6617TIP3    H119815   3.164   4.480   0.166
 6617TIP3    H219816   3.231   4.351   0.123
 6618TIP3   OH219817   0.108   2.401   3.427
 6618TIP3    H119818   0.156   2.475   3.464
 6618TIP3    H219819   0.165   2.369   3.357
 6619TIP3   OH219820   2.158   0.452   3.389
 6619TIP3    H119821   2.225   0.506   3.347
 6619TIP3    H219822   2.198   0.421   3.470
 6620TIP3   OH219823   4.374   6.009   5.731
 6620TIP3    H119824   4.406   6.099   5.723
 6620TIP3    H219825   4.346   6.001   5.822
 6621TIP3   OH219826   1.003   5.412   3.667
 6621TIP3    H119827   1.012   5.411   3.572
 6621TIP3    H219828   1.028   5.324   3.695
 6622TIP3   OH219829   3.875   2.674   4.708
 6622TIP3    H119830   3.960   2.629   4.700
 6622TIP3    H219831   3.895   2.766   4.689
 6623TIP3   OH219832   3.646   4.342   1.470
 6623TIP3    H119833   3.637   4.437   1.476
 6623TIP3    H219834   3.726   4.328   1.420
 6624TIP3   OH219835   5.957   2.628   2.152
 6624TIP3    H119836   5.927   2.539   2.130
 6624TIP3    H219837   5.927   2.682   2.078
 6625TIP3   OH219838   1.565   0.944   0.781
 6625TIP3    H119839   1.552   0.965   0.873
 6625TIP3    H219840   1.498   0.995   0.735
 6626TIP3   OH219841   2.287   2.050   5.529
 6626TIP3    H119842   2.269   2.128   5.477
 6626TIP3    H219843   2.204   2.001   5.529
 6627TIP3   OH219844   5.901   3.878   2.209
 6627TIP3    H119845   5.849   3.947   2.250
 6627TIP3    H219846   5.911   3.906   2.118
 6628TIP3   OH219847   3.331   0.027   3.171
 6628TIP3    H119848   3.423   0.052   3.171
 6628TIP3    H219849   3.292   0.079   3.242
 6629TIP3   OH219850   1.122   3.893   5.632
 6629TIP3    H119851   1.036   3.857   5.614
 6629TIP3    H219852   1.176   3.818   5.655
 6630TIP3   OH219853   5.985   2.438   0.277
 6630TIP3    H119854   5.975   2.360   0.222
 6630TIP3    H219855   6.000   2.509   0.214
 6631TIP3   OH219856   4.734   2.245   4.806
 6631TIP3    H119857   4.805   2.185   4.826
 6631TIP3    H219858   4.714   2.230   4.714
 6632TIP3   OH219859   3.891   4.388   4.661
 6632TIP3    H119860   3.831   4.452   4.702
 6632TIP3    H219861   3.892   4.412   4.569
 6633TIP3   OH219862   0.012   1.143   4.973
 6633TIP3    H119863   0.013   1.134   4.877
 6633TIP3    H219864  -0.059   1.086   5.002
 6634TIP3   OH219865   5.595   3.703   0.551
 6634TIP3    H119866   5.621   3.612   0.534
 6634TIP3    H219867   5.672   3.742   0.593
 6635TIP3   OH219868   6.451   0.975   0.370
 6635TIP3    H119869   6.546   0.979   0.376
 6635TIP3    H219870   6.434   0.920   0.293
 6636TIP3   OH219871   7.031   6.297   1.657
 6636TIP3    H119872   7.014   6.231   1.590
 6636TIP3    H219873   7.055   6.246   1.734
 6637TIP3   OH219874   1.762   0.785   5.485
 6637TIP3    H119875   1.746   0.879   5.486
 6637TIP3    H219876   1.832   0.771   5.548
 6638TIP3   OH219877   1.284   4.356   3.025
 6638TIP3    H119878   1.326   4.271   3.037
 6638TIP3    H219879   1.348   4.420   3.057
 6639TIP3   OH219880   0.593   5.111   4.090
 6639TIP3    H119881   0.670   5.142   4.043
 6639TIP3    H219882   0.564   5.186   4.141
 6640TIP3   OH219883   5.277   5.386   5.706
 6640TIP3    H119884   5.282   5.481   5.714
 6640TIP3    H219885   5.317   5.367   5.621
 6641TIP3   OH219886   4.092   1.480   0.069
 6641TIP3    H119887   4.020   1.463   0.008
 6641TIP3    H219888   4.171   1.470   0.017
 6642TIP3   OH219889   1.779   5.196   1.235
 6642TIP3    H119890   1.737   5.203   1.321
 6642TIP3    H219891   1.806   5.286   1.214
 6643TIP3   OH219892   6.685   3.405   1.541
 6643TIP3    H119893   6.656   3.314   1.533
 6643TIP3    H219894   6.630   3.453   1.479
 6644TIP3   OH219895   6.636   6.554   4.345
 6644TIP3    H119896   6.615   6.465   4.370
 6644TIP3    H219897   6.625   6.605   4.425
 6645TIP3   OH219898   3.677   0.526   4.839
 6645TIP3    H119899   3.674   0.431   4.831
 6645TIP3    H219900   3.719   0.541   4.924
 6646TIP3   OH219901   2.420   4.314   2.987
 6646TIP3    H119902   2.354   4.372   2.950
 6646TIP3    H219903   2.420   4.238   2.929
 6647TIP3   OH219904   4.031   2.750   1.219
 6647TIP3    H119905   4.091   2.683   1.185
 6647TIP3    H219906   3.980   2.778   1.144
 6648TIP3   OH219907   2.308   1.417   4.584
 6648TIP3    H119908   2.386   1.441   4.534
 6648TIP3    H219909   2.280   1.499   4.626
 6649TIP3   OH219910   6.031   1.917   0.494
 6649TIP3    H119911   5.972   1.941   0.422
 6649TIP3    H219912   5.979   1.859   0.549
 6650TIP3   OH219913   0.510   2.727   4.107
 6650TIP3    H119914   0.511   2.666   4.034
 6650TIP3    H219915   0.503   2.813   4.066
 6651TIP3   OH219916   6.177   2.667   0.782
 6651TIP3    H119917   6.103   2.706   0.736
 6651TIP3    H219918   6.155   2.674   0.875
 6652TIP3   OH219919   6.800   1.440   1.646
 6652TIP3    H119920   6.891   1.436   1.620
 6652TIP3    H219921   6.802   1.481   1.733
 6653TIP3   OH219922   4.479   2.876   1.418
 6653TIP3    H119923   4.556   2.822   1.434
 6653TIP3    H219924   4.411   2.814   1.390
 6654TIP3   OH219925   4.086   1.813   2.323
 6654TIP3    H119926   4.001   1.852   2.308
 6654TIP3    H219927   4.098   1.753   2.250
 6655TIP3   OH219928   4.104   5.305   4.600
 6655TIP3    H119929   4.092   5.240   4.531
 6655TIP3    H219930   4.052   5.273   4.673
 6656TIP3   OH219931   1.648   3.703   4.252
 6656TIP3    H119932   1.739   3.675   4.247
 6656TIP3    H219933   1.607   3.639   4.311
 6657TIP3   OH219934   0.442   1.484   2.666
 6657TIP3    H119935   0.475   1.431   2.738
 6657TIP3    H219936   0.347   1.484   2.678
 6658TIP3   OH219937   1.902   1.935   3.253
 6658TIP3    H119938   1.892   2.003   3.186
 6658TIP3    H219939   1.831   1.874   3.235
 6659TIP3   OH219940   4.689   2.583   3.314
 6659TIP3    H119941   4.775   2.543   3.325
 6659TIP3    H219942   4.629   2.525   3.360
 6660TIP3   OH219943   5.319   1.793   5.887
 6660TIP3    H119944   5.347   1.855   5.820
 6660TIP3    H219945   5.293   1.848   5.961
 6661TIP3   OH219946   6.156  -0.015   3.510
 6661TIP3    H119947   6.243   0.022   3.521
 6661TIP3    H219948   6.150  -0.084   3.576
 6662TIP3   OH219949   1.921   2.834   3.051
 6662TIP3    H119950   1.922   2.924   3.017
 6662TIP3    H219951   1.907   2.844   3.145
 6663TIP3   OH219952   6.417   1.814   5.253
 6663TIP3    H119953   6.509   1.842   5.257
 6663TIP3    H219954   6.367   1.893   5.274
 6664TIP3   OH219955   1.753   2.359   0.770
 6664TIP3    H119956   1.705   2.422   0.823
 6664TIP3    H219957   1.742   2.389   0.680
 6665TIP3   OH219958   2.089   6.650   5.753
 6665TIP3    H119959   2.085   6.717   5.685
 6665TIP3    H219960   2.066   6.569   5.708
 6666TIP3   OH219961   0.318   5.928   0.197
 6666TIP3    H119962   0.266   5.932   0.278
 6666TIP3    H219963   0.361   6.013   0.192
 6667TIP3   OH219964   1.479   6.763   3.462
 6667TIP3    H119965   1.459   6.851   3.496
 6667TIP3    H219966   1.483   6.774   3.367
 6668TIP3   OH219967   6.863   1.620   1.311
 6668TIP3    H119968   6.955   1.626   1.286
 6668TIP3    H219969   6.860   1.655   1.400
 6669TIP3   OH219970   4.551   2.389   4.940
 6669TIP3    H119971   4.615   2.334   4.896
 6669TIP3    H219972   4.565   2.476   4.903
 6670TIP3   OH219973   5.879   2.607   1.051
 6670TIP3    H119974   5.959   2.555   1.037
 6670TIP3    H219975   5.809   2.554   1.013
 6671TIP3   OH219976   5.678   0.886   2.254
 6671TIP3    H119977   5.587   0.861   2.239
 6671TIP3    H219978   5.717   0.810   2.299
 6672TIP3   OH219979   4.721   5.734   2.621
 6672TIP3    H119980   4.751   5.663   2.563
 6672TIP3    H219981   4.692   5.689   2.700
 6673TIP3   OH219982   1.367   6.130   3.486
 6673TIP3    H119983   1.450   6.138   3.438
 6673TIP3    H219984   1.300   6.128   3.418
 6674TIP3   OH219985   2.337   4.463   5.911
 6674TIP3    H119986   2.272   4.530   5.932
 6674TIP3    H219987   2.420   4.511   5.904
 6675TIP3   OH219988   0.577   5.200   2.584
 6675TIP3    H119989   0.484   5.185   2.567
 6675TIP3    H219990   0.600   5.276   2.530
 6676TIP3   OH219991   4.923   2.493   4.695
 6676TIP3    H119992   4.828   2.488   4.710
 6676TIP3    H219993   4.934   2.564   4.632
 6677TIP3   OH219994   7.042   0.977   5.040
 6677TIP3    H119995   6.951   0.980   5.067
 6677TIP3    H219996   7.053   0.888   5.005
 6678TIP3   OH219997   3.399   4.870   1.683
 6678TIP3    H119998   3.433   4.894   1.597
 6678TIP3    H219999   3.457   4.801   1.714
 6679TIP3   OH220000   0.920   5.165   2.446
 6679TIP3    H120001   0.898   5.224   2.519
 6679TIP3    H220002   0.861   5.192   2.375
 6680TIP3   OH220003   0.890   1.394   3.921
 6680TIP3    H120004   0.973   1.366   3.959
 6680TIP3    H220005   0.910   1.478   3.879
 6681TIP3   OH220006   4.647   6.111   5.060
 6681TIP3    H120007   4.576   6.104   5.124
 6681TIP3    H220008   4.723   6.074   5.104
 6682TIP3   OH220009   4.311   5.980   5.460
 6682TIP3    H120010   4.343   5.980   5.550
 6682TIP3    H220011   4.309   5.888   5.435
 6683TIP3   OH220012   2.502   1.277   3.348
 6683TIP3    H120013   2.508   1.372   3.342
 6683TIP3    H220014   2.593   1.247   3.347
 6684TIP3   OH220015   3.196   4.731   4.268
 6684TIP3    H120016   3.142   4.656   4.290
 6684TIP3    H220017   3.275   4.721   4.321
 6685TIP3   OH220018   5.982   1.144   5.423
 6685TIP3    H120019   5.972   1.219   5.365
 6685TIP3    H220020   6.073   1.116   5.410
 6686TIP3   OH220021   0.298   0.781   5.413
 6686TIP3    H120022   0.225   0.800   5.354
 6686TIP3    H220023   0.260   0.725   5.481
 6687TIP3   OH220024   3.198   6.524   3.981
 6687TIP3    H120025   3.135   6.487   4.043
 6687TIP3    H220026   3.144   6.560   3.911
 6688TIP3   OH220027   6.205   1.480   4.816
 6688TIP3    H120028   6.159   1.440   4.742
 6688TIP3    H220029   6.243   1.406   4.863
 6689TIP3   OH220030   3.971   5.246   4.864
 6689TIP3    H120031   3.972   5.187   4.939
 6689TIP3    H220032   3.886   5.288   4.867
 6690TIP3   OH220033   3.372   5.451   2.949
 6690TIP3    H120034   3.308   5.382   2.964
 6690TIP3    H220035   3.456   5.406   2.939
 6691TIP3   OH220036   0.457   0.594   0.214
 6691TIP3    H120037   0.510   0.515   0.209
 6691TIP3    H220038   0.403   0.591   0.135
 6692TIP3   OH220039   2.388   2.707   0.187
 6692TIP3    H120040   2.470   2.732   0.229
 6692TIP3    H220041   2.406   2.624   0.144
 6693TIP3   OH220042   4.191   2.071   2.208
 6693TIP3    H120043   4.132   2.080   2.282
 6693TIP3    H220044   4.220   2.160   2.189
 6694TIP3   OH220045   3.862   0.071   1.613
 6694TIP3    H120046   3.775   0.049   1.581
 6694TIP3    H220047   3.911  -0.011   1.606
 6695TIP3   OH220048   6.107   5.000   0.272
 6695TIP3    H120049   6.013   5.018   0.274
 6695TIP3    H220050   6.124   4.952   0.353
 6696TIP3   OH220051   0.127  -0.028   2.695
 6696TIP3    H120052   0.168   0.051   2.729
 6696TIP3    H220053   0.062  -0.052   2.762
 6697TIP3   OH220054   0.198   0.261   5.361
 6697TIP3    H120055   0.102   0.265   5.357
 6697TIP3    H220056   0.225   0.236   5.273
 6698TIP3   OH220057   2.374   2.033   2.935
 6698TIP3    H120058   2.463   2.066   2.950
 6698TIP3    H220059   2.324   2.065   3.011
 6699TIP3   OH220060   3.037   2.074   1.306
 6699TIP3    H120061   3.095   1.998   1.302
 6699TIP3    H220062   3.034   2.097   1.399
 6700TIP3   OH220063   1.856   2.827   5.179
 6700TIP3    H120064   1.777   2.774   5.185
 6700TIP3    H220065   1.897   2.801   5.096
 6701TIP3   OH220066   3.659   2.146   1.357
 6701TIP3    H120067   3.605   2.214   1.316
 6701TIP3    H220068   3.749   2.175   1.343
 6702TIP3   OH220069   3.064   6.152   0.222
 6702TIP3    H120070   3.055   6.127   0.314
 6702TIP3    H220071   2.990   6.210   0.206
 6703TIP3   OH220072   4.834   2.223   3.944
 6703TIP3    H120073   4.815   2.308   3.906
 6703TIP3    H220074   4.881   2.176   3.875
 6704TIP3   OH220075   1.832   5.201   0.694
 6704TIP3    H120076   1.790   5.129   0.741
 6704TIP3    H220077   1.760   5.255   0.662
 6705TIP3   OH220078   2.040   0.563   3.906
 6705TIP3    H120079   2.084   0.635   3.952
 6705TIP3    H220080   1.961   0.547   3.957
 6706TIP3   OH220081   6.398   2.204   4.593
 6706TIP3    H120082   6.451   2.190   4.515
 6706TIP3    H220083   6.421   2.292   4.623
 6707TIP3   OH220084   2.314   0.543   5.308
 6707TIP3    H120085   2.253   0.580   5.372
 6707TIP3    H220086   2.366   0.617   5.279
 6708TIP3   OH220087   1.875   5.748   0.486
 6708TIP3    H120088   1.886   5.682   0.418
 6708TIP3    H220089   1.845   5.826   0.439
 6709TIP3   OH220090   5.422   4.027   1.260
 6709TIP3    H120091   5.334   4.050   1.230
 6709TIP3    H220092   5.476   4.033   1.181
 6710TIP3   OH220093   2.158   1.987   2.767
 6710TIP3    H120094   2.250   2.004   2.785
 6710TIP3    H220095   2.154   1.974   2.672
 6711TIP3   OH220096   0.321   3.781   2.711
 6711TIP3    H120097   0.252   3.749   2.653
 6711TIP3    H220098   0.355   3.702   2.753
 6712TIP3   OH220099   5.464   2.905   3.736
 6712TIP3    H120100   5.393   2.909   3.672
 6712TIP3    H220101   5.468   2.994   3.773
 6713TIP3   OH220102   1.825   5.451   2.227
 6713TIP3    H120103   1.803   5.490   2.312
 6713TIP3    H220104   1.905   5.401   2.244
 6714TIP3   OH220105   3.315   2.942   3.184
 6714TIP3    H120106   3.227   2.905   3.171
 6714TIP3    H220107   3.313   3.025   3.137
 6715TIP3   OH220108   4.630   4.679   2.347
 6715TIP3    H120109   4.573   4.678   2.271
 6715TIP3    H220110   4.717   4.700   2.312
 6716TIP3   OH220111   5.698   0.122   5.376
 6716TIP3    H120112   5.690   0.184   5.303
 6716TIP3    H220113   5.650   0.045   5.347
 6717TIP3   OH220114   3.551   5.301   5.296
 6717TIP3    H120115   3.575   5.387   5.329
 6717TIP3    H220116   3.461   5.311   5.264
 6718TIP3   OH220117   0.247   0.112   2.408
 6718TIP3    H120118   0.170   0.055   2.413
 6718TIP3    H220119   0.320   0.056   2.435
 6719TIP3   OH220120   1.459   0.595   2.733
 6719TIP3    H120121   1.466   0.504   2.703
 6719TIP3    H220122   1.545   0.632   2.712
 6720TIP3   OH220123   5.025   6.196   0.360
 6720TIP3    H120124   4.993   6.226   0.274
 6720TIP3    H220125   5.101   6.252   0.378
 6721TIP3   OH220126   0.093   0.975   2.539
 6721TIP3    H120127   0.150   0.900   2.556
 6721TIP3    H220128   0.150   1.051   2.551
 6722TIP3   OH220129   2.730   2.745   5.207
 6722TIP3    H120130   2.671   2.678   5.173
 6722TIP3    H220131   2.673   2.821   5.224
 6723TIP3   OH220132   0.799   6.183   2.975
 6723TIP3    H120133   0.737   6.119   3.012
 6723TIP3    H220134   0.823   6.239   3.048
 6724TIP3   OH220135   5.658   2.517   1.722
 6724TIP3    H120136   5.745   2.499   1.684
 6724TIP3    H220137   5.630   2.598   1.681
 6725TIP3   OH220138   4.110   3.122   1.800
 6725TIP3    H120139   4.080   3.147   1.887
 6725TIP3    H220140   4.102   3.027   1.797
 6726TIP3   OH220141   2.635   1.646   4.755
 6726TIP3    H120142   2.714   1.595   4.738
 6726TIP3    H220143   2.571   1.582   4.786
 6727TIP3   OH220144   2.917   0.388   0.119
 6727TIP3    H120145   2.909   0.481   0.095
 6727TIP3    H220146   3.001   0.361   0.081
 6728TIP3   OH220147   3.138   6.047   4.628
 6728TIP3    H120148   3.123   5.959   4.662
 6728TIP3    H220149   3.232   6.052   4.613
 6729TIP3   OH220150   6.271   1.113   3.534
 6729TIP3    H120151   6.202   1.090   3.472
 6729TIP3    H220152   6.226   1.162   3.603
 6730TIP3   OH220153   5.166   4.017   1.073
 6730TIP3    H120154   5.194   4.087   1.014
 6730TIP3    H220155   5.168   3.938   1.019
 6731TIP3   OH220156   1.542   0.135   0.252
 6731TIP3    H120157   1.590   0.080   0.314
 6731TIP3    H220158   1.606   0.202   0.225
 6732TIP3   OH220159   4.058   6.000   5.604
 6732TIP3    H120160   4.144   6.015   5.564
 6732TIP3    H220161   3.998   5.994   5.530
 6733TIP3   OH220162   2.724   1.755   0.531
 6733TIP3    H120163   2.633   1.749   0.558
 6733TIP3    H220164   2.769   1.795   0.605
 6734TIP3   OH220165   0.358   0.233   2.868
 6734TIP3    H120166   0.377   0.182   2.789
 6734TIP3    H220167   0.381   0.323   2.845
 6735TIP3   OH220168   4.589   6.593   2.760
 6735TIP3    H120169   4.662   6.636   2.805
 6735TIP3    H220170   4.512   6.646   2.780
 6736TIP3   OH220171   0.145   6.470   4.590
 6736TIP3    H120172   0.194   6.547   4.560
 6736TIP3    H220173   0.058   6.482   4.552
 6737TIP3   OH220174   2.753   0.309   3.308
 6737TIP3    H120175   2.709   0.262   3.379
 6737TIP3    H220176   2.821   0.249   3.278
 6738TIP3   OH220177   3.048   5.380   2.703
 6738TIP3    H120178   2.971   5.388   2.760
 6738TIP3    H220179   3.035   5.297   2.658
 6739TIP3   OH220180   5.638   2.841   2.640
 6739TIP3    H120181   5.565   2.811   2.587
 6739TIP3    H220182   5.716   2.810   2.595
 6740TIP3   OH220183   3.472   3.063   2.683
 6740TIP3    H120184   3.378   3.081   2.689
 6740TIP3    H220185   3.504   3.124   2.616
 6741TIP3   OH220186   5.785   1.963   5.410
 6741TIP3    H120187   5.705   2.013   5.427
 6741TIP3    H220188   5.810   1.987   5.321
 6742TIP3   OH220189   3.782   1.620   3.259
 6742TIP3    H120190   3.709   1.572   3.220
 6742TIP3    H220191   3.740   1.683   3.318
 6743TIP3   OH220192   6.828   6.560   5.422
 6743TIP3    H120193   6.874   6.518   5.350
 6743TIP3    H220194   6.815   6.490   5.486
 6744TIP3   OH220195   2.673   1.434   2.759
 6744TIP3    H120196   2.713   1.520   2.754
 6744TIP3    H220197   2.721   1.380   2.696
 6745TIP3   OH220198   4.776   0.374   1.582
 6745TIP3    H120199   4.757   0.389   1.674
 6745TIP3    H220200   4.816   0.288   1.579
 6746TIP3   OH220201   4.182   3.694   5.220
 6746TIP3    H120202   4.216   3.749   5.150
 6746TIP3    H220203   4.098   3.662   5.186
 6747TIP3   OH220204   6.917   2.772   4.131
 6747TIP3    H120205   6.985   2.836   4.151
 6747TIP3    H220206   6.960   2.687   4.140
 6748TIP3   OH220207   1.201   0.216   4.593
 6748TIP3    H120208   1.205   0.138   4.649
 6748TIP3    H220209   1.178   0.182   4.506
 6749TIP3   OH220210   2.391   2.656   5.223
 6749TIP3    H120211   2.408   2.749   5.234
 6749TIP3    H220212   2.452   2.613   5.283
 6750TIP3   OH220213   3.181   4.877   1.843
 6750TIP3    H120214   3.244   4.885   1.771
 6750TIP3    H220215   3.143   4.790   1.832
 6751TIP3   OH220216   6.483   4.653   3.193
 6751TIP3    H120217   6.401   4.604   3.194
 6751TIP3    H220218   6.552   4.587   3.199
 6752TIP3   OH220219   6.624   6.034   3.844
 6752TIP3    H120220   6.596   5.987   3.765
 6752TIP3    H220221   6.716   6.055   3.828
 6753TIP3   OH220222   6.375   4.099   2.197
 6753TIP3    H120223   6.401   4.007   2.194
 6753TIP3    H220224   6.282   4.096   2.220
 6754TIP3   OH220225   0.531   1.215   4.471
 6754TIP3    H120226   0.480   1.134   4.461
 6754TIP3    H220227   0.498   1.273   4.403
 6755TIP3   OH220228   1.426   0.597   1.868
 6755TIP3    H120229   1.518   0.601   1.842
 6755TIP3    H220230   1.381   0.652   1.804
 6756TIP3   OH220231   3.290   0.224   0.908
 6756TIP3    H120232   3.209   0.178   0.929
 6756TIP3    H220233   3.335   0.234   0.992
 6757TIP3   OH220234   4.476   2.068   2.374
 6757TIP3    H120235   4.423   2.147   2.364
 6757TIP3    H220236   4.431   2.001   2.324
 6758TIP3   OH220237   1.975   2.837   2.638
 6758TIP3    H120238   2.015   2.763   2.684
 6758TIP3    H220239   2.047   2.898   2.622
 6759TIP3   OH220240   5.039   5.066   5.250
 6759TIP3    H120241   4.951   5.088   5.219
 6759TIP3    H220242   5.034   4.973   5.272
 6760TIP3   OH220243   5.150   2.847   0.229
 6760TIP3    H120244   5.194   2.777   0.277
 6760TIP3    H220245   5.213   2.875   0.163
 6761TIP3   OH220246   2.301   1.077   3.704
 6761TIP3    H120247   2.238   1.008   3.722
 6761TIP3    H220248   2.312   1.076   3.609
 6762TIP3   OH220249   5.860   6.371   5.580
 6762TIP3    H120250   5.807   6.389   5.502
 6762TIP3    H220251   5.948   6.401   5.556
 6763TIP3   OH220252   1.754   1.602   2.443
 6763TIP3    H120253   1.812   1.570   2.512
 6763TIP3    H220254   1.774   1.696   2.437
 6764TIP3   OH220255   2.611   5.934   0.073
 6764TIP3    H120256   2.704   5.940   0.096
 6764TIP3    H220257   2.566   5.975   0.147
 6765TIP3   OH220258   5.285   3.118   0.707
 6765TIP3    H120259   5.197   3.148   0.685
 6765TIP3    H220260   5.272   3.047   0.769
 6766TIP3   OH220261   0.564   6.403   0.908
 6766TIP3    H120262   0.658   6.410   0.922
 6766TIP3    H220263   0.551   6.314   0.874
 6767TIP3   OH220264   1.730   3.322   5.055
 6767TIP3    H120265   1.760   3.232   5.068
 6767TIP3    H220266   1.785   3.355   4.985
 6768TIP3   OH220267   4.986   2.746   5.249
 6768TIP3    H120268   4.934   2.819   5.218
 6768TIP3    H220269   5.073   2.783   5.265
 6769TIP3   OH220270   6.868   1.524   2.468
 6769TIP3    H120271   6.914   1.527   2.384
 6769TIP3    H220272   6.938   1.526   2.533
 6770TIP3   OH220273   5.046   3.764   0.701
 6770TIP3    H120274   5.091   3.774   0.617
 6770TIP3    H220275   4.965   3.718   0.680
 6771TIP3   OH220276   4.166   1.717   1.551
 6771TIP3    H120277   4.241   1.664   1.528
 6771TIP3    H220278   4.197   1.775   1.621
 6772TIP3   OH220279   4.903   0.131   1.644
 6772TIP3    H120280   4.934   0.136   1.734
 6772TIP3    H220281   4.982   0.119   1.591
 6773TIP3   OH220282   1.413   2.788   5.305
 6773TIP3    H120283   1.486   2.784   5.244
 6773TIP3    H220284   1.357   2.714   5.280
 6774TIP3   OH220285   6.343   0.593   5.259
 6774TIP3    H120286   6.390   0.512   5.241
 6774TIP3    H220287   6.262   0.566   5.303
 6775TIP3   OH220288   5.736   0.404   1.602
 6775TIP3    H120289   5.800   0.364   1.661
 6775TIP3    H220290   5.674   0.449   1.659
 6776TIP3   OH220291   6.424   5.604   2.154
 6776TIP3    H120292   6.417   5.618   2.248
 6776TIP3    H220293   6.491   5.537   2.144
 6777TIP3   OH220294   3.445   4.461   2.103
 6777TIP3    H120295   3.463   4.455   2.197
 6777TIP3    H220296   3.434   4.555   2.087
 6778TIP3   OH220297   0.358   1.464  -0.001
 6778TIP3    H120298   0.431   1.457  -0.062
 6778TIP3    H220299   0.397   1.453   0.085
 6779TIP3   OH220300   3.947   2.842   4.989
 6779TIP3    H120301   3.892   2.768   5.012
 6779TIP3    H220302   4.034   2.819   5.021
 6780TIP3   OH220303   1.611   5.007   0.803
 6780TIP3    H120304   1.610   4.930   0.746
 6780TIP3    H220305   1.547   5.066   0.764
 6781TIP3   OH220306   5.649   3.437   4.064
 6781TIP3    H120307   5.649   3.527   4.030
 6781TIP3    H220308   5.738   3.424   4.097
 6782TIP3   OH220309   4.241   3.672   0.524
 6782TIP3    H120310   4.152   3.637   0.524
 6782TIP3    H220311   4.283   3.629   0.599
 6783TIP3   OH220312   5.152   0.442   2.724
 6783TIP3    H120313   5.230   0.496   2.740
 6783TIP3    H220314   5.082   0.485   2.773
 6784TIP3   OH220315   7.057   4.054   1.697
 6784TIP3    H120316   7.138   4.070   1.746
 6784TIP3    H220317   7.085   3.999   1.624
 6785TIP3   OH220318   1.060   1.892   5.785
 6785TIP3    H120319   1.047   1.872   5.878
 6785TIP3    H220320   1.143   1.939   5.781
 6786TIP3   OH220321   3.367   3.465   1.500
 6786TIP3    H120322   3.437   3.488   1.439
 6786TIP3    H220323   3.312   3.405   1.449
 6787TIP3   OH220324   4.261   1.549   4.591
 6787TIP3    H120325   4.332   1.485   4.589
 6787TIP3    H220326   4.185   1.498   4.618
 6788TIP3   OH220327   0.814   4.513   2.601
 6788TIP3    H120328   0.902   4.495   2.632
 6788TIP3    H220329   0.826   4.559   2.518
 6789TIP3   OH220330   1.900   3.483   0.833
 6789TIP3    H120331   1.848   3.415   0.790
 6789TIP3    H220332   1.985   3.479   0.789
 6790TIP3   OH220333   2.554   6.326   2.582
 6790TIP3    H120334   2.460   6.321   2.597
 6790TIP3    H220335   2.564   6.375   2.501
 6791TIP3   OH220336   4.999   0.104   5.187
 6791TIP3    H120337   5.028   0.118   5.277
 6791TIP3    H220338   5.046   0.026   5.158
 6792TIP3   OH220339   5.153   3.543   3.322
 6792TIP3    H120340   5.136   3.561   3.229
 6792TIP3    H220341   5.186   3.625   3.357
 6793TIP3   OH220342   0.038   1.063   2.215
 6793TIP3    H120343   0.039   1.133   2.281
 6793TIP3    H220344   0.121   1.017   2.227
 6794TIP3   OH220345   3.349   1.616   5.391
 6794TIP3    H120346   3.440   1.643   5.384
 6794TIP3    H220347   3.302   1.695   5.418
 6795TIP3   OH220348   0.644   5.638   3.839
 6795TIP3    H120349   0.620   5.729   3.854
 6795TIP3    H220350   0.664   5.633   3.746
 6796TIP3   OH220351   6.976   1.263   0.046
 6796TIP3    H120352   7.014   1.324  -0.016
 6796TIP3    H220353   6.967   1.313   0.127
 6797TIP3   OH220354   0.465   6.614   5.445
 6797TIP3    H120355   0.411   6.594   5.522
 6797TIP3    H220356   0.484   6.707   5.453
 6798TIP3   OH220357   5.851   3.290   3.683
 6798TIP3    H120358   5.760   3.287   3.713
 6798TIP3    H220359   5.902   3.275   3.763
 6799TIP3   OH220360   1.576   3.903   5.422
 6799TIP3    H120361   1.537   3.881   5.337
 6799TIP3    H220362   1.667   3.927   5.400
 6800TIP3   OH220363   6.923   6.431   3.532
 6800TIP3    H120364   7.009   6.453   3.496
 6800TIP3    H220365   6.928   6.338   3.553
 6801TIP3   OH220366   2.166   0.749   0.265
 6801TIP3    H120367   2.145   0.659   0.289
 6801TIP3    H220368   2.229   0.741   0.193
 6802TIP3   OH220369   0.807   6.346   4.614
 6802TIP3    H120370   0.771   6.408   4.550
 6802TIP3    H220371   0.901   6.364   4.614
 6803TIP3   OH220372   6.984   1.794   5.318
 6803TIP3    H120373   6.991   1.804   5.223
 6803TIP3    H220374   7.066   1.751   5.344
 6804TIP3   OH220375   1.819   3.030   0.860
 6804TIP3    H120376   1.899   2.994   0.899
 6804TIP3    H220377   1.771   3.067   0.934
 6805TIP3   OH220378   3.070   0.677   4.575
 6805TIP3    H120379   3.138   0.721   4.525
 6805TIP3    H220380   3.087   0.702   4.666
 6806TIP3   OH220381   1.461   4.081   1.769
 6806TIP3    H120382   1.401   4.061   1.697
 6806TIP3    H220383   1.491   4.170   1.752
 6807TIP3   OH220384   3.671   3.533   2.175
 6807TIP3    H120385   3.599   3.571   2.125
 6807TIP3    H220386   3.733   3.502   2.108
 6808TIP3   OH220387   3.737   4.202   5.287
 6808TIP3    H120388   3.801   4.139   5.256
 6808TIP3    H220389   3.673   4.210   5.216
 6809TIP3   OH220390   5.474   2.456   0.537
 6809TIP3    H120391   5.559   2.454   0.580
 6809TIP3    H220392   5.421   2.393   0.586
 6810TIP3   OH220393   7.115   1.874   1.712
 6810TIP3    H120394   7.187   1.890   1.651
 6810TIP3    H220395   7.114   1.952   1.768
 6811TIP3   OH220396   6.251   4.717   1.913
 6811TIP3    H120397   6.232   4.715   1.820
 6811TIP3    H220398   6.328   4.774   1.920
 6812TIP3   OH220399   6.756   3.263   4.835
 6812TIP3    H120400   6.804   3.196   4.884
 6812TIP3    H220401   6.809   3.342   4.845
 6813TIP3   OH220402   2.467   2.025   0.194
 6813TIP3    H120403   2.534   2.062   0.136
 6813TIP3    H220404   2.497   1.936   0.212
 6814TIP3   OH220405   5.915   4.203   0.770
 6814TIP3    H120406   5.940   4.196   0.862
 6814TIP3    H220407   5.961   4.130   0.728
 6815TIP3   OH220408   1.257   1.145   0.168
 6815TIP3    H120409   1.296   1.060   0.148
 6815TIP3    H220410   1.330   1.206   0.165
 6816TIP3   OH220411   3.127   2.655   3.373
 6816TIP3    H120412   3.199   2.592   3.371
 6816TIP3    H220413   3.092   2.651   3.462
 6817TIP3   OH220414   0.905   1.811   1.913
 6817TIP3    H120415   0.858   1.812   1.996
 6817TIP3    H220416   0.839   1.786   1.848
 6818TIP3   OH220417   5.194   4.555   5.471
 6818TIP3    H120418   5.162   4.586   5.556
 6818TIP3    H220419   5.257   4.621   5.444
 6819TIP3   OH220420   0.318   1.804   0.664
 6819TIP3    H120421   0.274   1.880   0.703
 6819TIP3    H220422   0.378   1.773   0.732
 6820TIP3   OH220423   0.638   4.257   5.361
 6820TIP3    H120424   0.625   4.181   5.305
 6820TIP3    H220425   0.699   4.312   5.312
 6821TIP3   OH220426   6.585   5.149   3.915
 6821TIP3    H120427   6.551   5.238   3.929
 6821TIP3    H220428   6.676   5.162   3.891
 6822TIP3   OH220429   3.242   3.058   5.799
 6822TIP3    H120430   3.262   3.033   5.709
 6822TIP3    H220431   3.300   3.004   5.852
 6823TIP3   OH220432   3.000   5.180   5.881
 6823TIP3    H120433   3.051   5.121   5.935
 6823TIP3    H220434   3.054   5.195   5.803
 6824TIP3   OH220435   3.723   0.510   0.025
 6824TIP3    H120436   3.818   0.521   0.033
 6824TIP3    H220437   3.702   0.548  -0.060
 6825TIP3   OH220438   0.885   1.357   3.536
 6825TIP3    H120439   0.889   1.453   3.536
 6825TIP3    H220440   0.803   1.336   3.580
 6826TIP3   OH220441   4.549   3.861   2.616
 6826TIP3    H120442   4.568   3.892   2.528
 6826TIP3    H220443   4.453   3.864   2.622
 6827TIP3   OH220444   2.345   0.498   1.621
 6827TIP3    H120445   2.394   0.545   1.554
 6827TIP3    H220446   2.361   0.406   1.603
 6828TIP3   OH220447   4.813   0.090   2.049
 6828TIP3    H120448   4.895   0.081   2.000
 6828TIP3    H220449   4.758   0.148   1.996
 6829TIP3   OH220450   2.216   2.081   5.063
 6829TIP3    H120451   2.276   2.089   4.989
 6829TIP3    H220452   2.209   2.170   5.098
 6830TIP3   OH220453   5.115   4.847   4.810
 6830TIP3    H120454   5.049   4.891   4.863
 6830TIP3    H220455   5.163   4.792   4.872
 6831TIP3   OH220456   1.545   4.355   5.509
 6831TIP3    H120457   1.627   4.402   5.491
 6831TIP3    H220458   1.493   4.416   5.561
 6832TIP3   OH220459   6.230   5.279   0.922
 6832TIP3    H120460   6.303   5.274   0.985
 6832TIP3    H220461   6.183   5.196   0.934
 6833TIP3   OH220462   6.194   0.084   2.010
 6833TIP3    H120463   6.122   0.146   2.022
 6833TIP3    H220464   6.267   0.137   1.980
 6834TIP3   OH220465   3.796   4.124   4.680
 6834TIP3    H120466   3.830   4.090   4.763
 6834TIP3    H220467   3.812   4.218   4.684
 6835TIP3   OH220468   2.159   0.175   5.453
 6835TIP3    H120469   2.064   0.165   5.443
 6835TIP3    H220470   2.186   0.226   5.376
 6836TIP3   OH220471   2.780   3.207   2.936
 6836TIP3    H120472   2.724   3.145   2.982
 6836TIP3    H220473   2.858   3.156   2.913
 6837TIP3   OH220474   2.929   1.013   0.534
 6837TIP3    H120475   3.008   1.063   0.555
 6837TIP3    H220476   2.858   1.063   0.572
 6838TIP3   OH220477   3.474   1.563   2.134
 6838TIP3    H120478   3.489   1.564   2.039
 6838TIP3    H220479   3.421   1.641   2.151
 6839TIP3   OH220480   2.020   4.353   4.613
 6839TIP3    H120481   2.059   4.370   4.528
 6839TIP3    H220482   2.085   4.299   4.659
 6840TIP3   OH220483   4.219   5.597   2.406
 6840TIP3    H120484   4.229   5.606   2.500
 6840TIP3    H220485   4.143   5.651   2.384
 6841TIP3   OH220486   6.704   0.334   2.583
 6841TIP3    H120487   6.759   0.257   2.571
 6841TIP3    H220488   6.643   0.332   2.509
 6842TIP3   OH220489   0.031   2.667   3.045
 6842TIP3    H120490   0.010   2.694   3.135
 6842TIP3    H220491   0.127   2.660   3.045
 6843TIP3   OH220492   1.973   0.327   4.123
 6843TIP3    H120493   1.894   0.381   4.130
 6843TIP3    H220494   1.941   0.242   4.094
 6844TIP3   OH220495   2.130   0.181   1.778
 6844TIP3    H120496   2.076   0.242   1.729
 6844TIP3    H220497   2.140   0.106   1.719
 6845TIP3   OH220498   1.658   0.200   4.790
 6845TIP3    H120499   1.606   0.252   4.729
 6845TIP3    H220500   1.736   0.176   4.740
 6846TIP3   OH220501   5.431   6.751   2.495
 6846TIP3    H120502   5.474   6.740   2.579
 6846TIP3    H220503   5.457   6.838   2.465
 6847TIP3   OH220504   4.005   1.416   5.720
 6847TIP3    H120505   3.978   1.486   5.779
 6847TIP3    H220506   4.017   1.458   5.635
 6848TIP3   OH220507   6.416   2.725   1.026
 6848TIP3    H120508   6.417   2.639   0.984
 6848TIP3    H220509   6.495   2.768   0.995
 6849TIP3   OH220510   1.065   0.284   2.879
 6849TIP3    H120511   0.974   0.255   2.871
 6849TIP3    H220512   1.100   0.236   2.954
 6850TIP3   OH220513   1.039   0.617   1.586
 6850TIP3    H120514   0.971   0.564   1.628
 6850TIP3    H220515   1.101   0.636   1.656
 6851TIP3   OH220516   0.306   3.457   5.417
 6851TIP3    H120517   0.220   3.432   5.451
 6851TIP3    H220518   0.332   3.532   5.472
 6852TIP3   OH220519   3.164   2.035   5.827
 6852TIP3    H120520   3.230   1.976   5.789
 6852TIP3    H220521   3.208   2.119   5.835
 6853TIP3   OH220522   6.227   2.889   2.596
 6853TIP3    H120523   6.300   2.931   2.550
 6853TIP3    H220524   6.164   2.960   2.611
 6854TIP3   OH220525   5.405   0.127   4.619
 6854TIP3    H120526   5.499   0.119   4.633
 6854TIP3    H220527   5.395   0.133   4.524
 6855TIP3   OH220528   0.889   6.718   0.912
 6855TIP3    H120529   0.958   6.744   0.851
 6855TIP3    H220530   0.929   6.727   0.999
 6856TIP3   OH220531   0.443   5.505   5.559
 6856TIP3    H120532   0.426   5.524   5.651
 6856TIP3    H220533   0.364   5.534   5.514
 6857TIP3   OH220534   6.326   0.399   3.225
 6857TIP3    H120535   6.354   0.357   3.144
 6857TIP3    H220536   6.323   0.492   3.205
 6858TIP3   OH220537   3.417   0.977   1.764
 6858TIP3    H120538   3.446   0.886   1.754
 6858TIP3    H220539   3.358   0.991   1.690
 6859TIP3   OH220540   5.263   3.941   5.613
 6859TIP3    H120541   5.259   4.003   5.686
 6859TIP3    H220542   5.177   3.947   5.571
 6860TIP3   OH220543   6.396   3.972   5.507
 6860TIP3    H120544   6.435   4.042   5.454
 6860TIP3    H220545   6.342   4.017   5.572
 6861TIP3   OH220546   4.545   4.783   3.416
 6861TIP3    H120547   4.617   4.720   3.421
 6861TIP3    H220548   4.586   4.868   3.426
 6862TIP3   OH220549   3.757   4.761   2.626
 6862TIP3    H120550   3.834   4.765   2.682
 6862TIP3    H220551   3.792   4.766   2.537
 6863TIP3   OH220552   2.425   6.791   3.084
 6863TIP3    H120553   2.430   6.705   3.042
 6863TIP3    H220554   2.481   6.783   3.162
 6864TIP3   OH220555   4.362   1.574   1.472
 6864TIP3    H120556   4.397   1.495   1.512
 6864TIP3    H220557   4.369   1.560   1.378
 6865TIP3   OH220558   6.342   0.377   4.772
 6865TIP3    H120559   6.275   0.386   4.839
 6865TIP3    H220560   6.371   0.467   4.755
 6866TIP3   OH220561   1.965   1.967   0.219
 6866TIP3    H120562   1.994   1.921   0.297
 6866TIP3    H220563   2.001   2.055   0.227
 6867TIP3   OH220564   7.201   2.832   2.319
 6867TIP3    H120565   7.115   2.870   2.296
 6867TIP3    H220566   7.188   2.793   2.405
 6868TIP3   OH220567   6.805   5.424   2.971
 6868TIP3    H120568   6.848   5.339   2.963
 6868TIP3    H220569   6.716   5.409   2.941
 6869TIP3   OH220570   6.361   4.049   1.536
 6869TIP3    H120571   6.386   3.958   1.522
 6869TIP3    H220572   6.331   4.052   1.627
 6870TIP3   OH220573   3.340   5.499   0.352
 6870TIP3    H120574   3.338   5.550   0.271
 6870TIP3    H220575   3.385   5.556   0.414
 6871TIP3   OH220576   6.764   1.543  -0.066
 6871TIP3    H120577   6.847   1.591  -0.054
 6871TIP3    H220578   6.769   1.470  -0.005
 6872TIP3   OH220579   4.813   3.448   2.229
 6872TIP3    H120580   4.789   3.498   2.307
 6872TIP3    H220581   4.864   3.374   2.263
 6873TIP3   OH220582   0.342   4.680   0.870
 6873TIP3    H120583   0.371   4.722   0.789
 6873TIP3    H220584   0.250   4.704   0.878
 6874TIP3   OH220585   3.556   2.384   2.134
 6874TIP3    H120586   3.581   2.468   2.094
 6874TIP3    H220587   3.500   2.342   2.069
 6875TIP3   OH220588   5.394   3.744   1.842
 6875TIP3    H120589   5.388   3.803   1.917
 6875TIP3    H220590   5.413   3.801   1.768
 6876TIP3   OH220591   6.449   3.351   3.972
 6876TIP3    H120592   6.386   3.292   4.014
 6876TIP3    H220593   6.470   3.415   4.039
 6877TIP3   OH220594   3.474   3.887   1.573
 6877TIP3    H120595   3.429   3.932   1.644
 6877TIP3    H220596   3.440   3.928   1.493
 6878TIP3   OH220597   1.374   4.522   2.173
 6878TIP3    H120598   1.439   4.479   2.119
 6878TIP3    H220599   1.316   4.452   2.202
 6879TIP3   OH220600   3.021   3.166   0.906
 6879TIP3    H120601   3.111   3.175   0.873
 6879TIP3    H220602   3.011   3.237   0.969
 6880TIP3   OH220603   4.522   4.250   3.916
 6880TIP3    H120604   4.548   4.176   3.972
 6880TIP3    H220605   4.427   4.244   3.912
 6881TIP3   OH220606   3.062   3.375   4.760
 6881TIP3    H120607   3.110   3.336   4.833
 6881TIP3    H220608   3.129   3.413   4.704
 6882TIP3   OH220609   3.677   4.481   3.345
 6882TIP3    H120610   3.600   4.431   3.371
 6882TIP3    H220611   3.715   4.512   3.427
 6883TIP3   OH220612   2.255   1.786   1.900
 6883TIP3    H120613   2.229   1.861   1.955
 6883TIP3    H220614   2.256   1.712   1.960
 6884TIP3   OH220615   5.385   4.490   0.481
 6884TIP3    H120616   5.346   4.409   0.447
 6884TIP3    H220617   5.422   4.465   0.565
 6885TIP3   OH220618   2.395   3.235   0.638
 6885TIP3    H120619   2.483   3.223   0.602
 6885TIP3    H220620   2.392   3.176   0.714
 6886TIP3   OH220621   4.740   5.574   3.781
 6886TIP3    H120622   4.656   5.579   3.735
 6886TIP3    H220623   4.806   5.569   3.712
 6887TIP3   OH220624   5.266   1.158   4.236
 6887TIP3    H120625   5.190   1.156   4.179
 6887TIP3    H220626   5.231   1.141   4.324
 6888TIP3   OH220627   4.472   1.706   3.126
 6888TIP3    H120628   4.450   1.768   3.196
 6888TIP3    H220629   4.564   1.722   3.108
 6889TIP3   OH220630   5.622   4.458   1.899
 6889TIP3    H120631   5.674   4.457   1.979
 6889TIP3    H220632   5.652   4.381   1.850
 6890TIP3   OH220633   5.302   1.717   4.186
 6890TIP3    H120634   5.286   1.805   4.220
 6890TIP3    H220635   5.216   1.675   4.186
 6891TIP3   OH220636   6.776   4.831   3.230
 6891TIP3    H120637   6.696   4.816   3.280
 6891TIP3    H220638   6.818   4.906   3.274
 6892TIP3   OH220639   0.815   5.583   0.063
 6892TIP3    H120640   0.720   5.572   0.060
 6892TIP3    H220641   0.848   5.497   0.088
 6893TIP3   OH220642   0.066   2.623   3.968
 6893TIP3    H120643   0.102   2.634   4.056
 6893TIP3    H220644   0.112   2.547   3.933
 6894TIP3   OH220645   7.261   3.473   5.531
 6894TIP3    H120646   7.282   3.405   5.595
 6894TIP3    H220647   7.196   3.433   5.473
 6895TIP3   OH220648   0.124   5.882   0.806
 6895TIP3    H120649   0.031   5.903   0.809
 6895TIP3    H220650   0.166   5.950   0.859
 6896TIP3   OH220651   2.347   3.883   3.891
 6896TIP3    H120652   2.419   3.823   3.872
 6896TIP3    H220653   2.326   3.923   3.806
 6897TIP3   OH220654   5.138   4.962   0.808
 6897TIP3    H120655   5.057   4.910   0.806
 6897TIP3    H220656   5.177   4.949   0.722
 6898TIP3   OH220657   0.570   5.630   1.935
 6898TIP3    H120658   0.624   5.574   1.879
 6898TIP3    H220659   0.480   5.601   1.918
 6899TIP3   OH220660   3.336   5.776   4.101
 6899TIP3    H120661   3.384   5.850   4.065
 6899TIP3    H220662   3.261   5.815   4.146
 6900TIP3   OH220663   4.227   2.505   5.449
 6900TIP3    H120664   4.141   2.516   5.489
 6900TIP3    H220665   4.208   2.472   5.361
 6901TIP3   OH220666   0.551   1.173   2.663
 6901TIP3    H120667   0.457   1.182   2.677
 6901TIP3    H220668   0.570   1.081   2.679
 6902TIP3   OH220669   7.122   4.952   4.821
 6902TIP3    H120670   7.053   5.008   4.785
 6902TIP3    H220671   7.097   4.864   4.795
 6903TIP3   OH220672   3.967   3.427   2.179
 6903TIP3    H120673   4.059   3.452   2.171
 6903TIP3    H220674   3.938   3.468   2.259
 6904TIP3   OH220675   6.552   5.660   1.255
 6904TIP3    H120676   6.514   5.604   1.188
 6904TIP3    H220677   6.489   5.658   1.327
 6905TIP3   OH220678   5.174   1.383   1.343
 6905TIP3    H120679   5.177   1.313   1.278
 6905TIP3    H220680   5.149   1.461   1.294
 6906TIP3   OH220681   1.789   4.568   1.247
 6906TIP3    H120682   1.784   4.498   1.182
 6906TIP3    H220683   1.849   4.632   1.209
 6907TIP3   OH220684   5.585   2.130   3.867
 6907TIP3    H120685   5.622   2.058   3.918
 6907TIP3    H220686   5.498   2.143   3.905
 6908TIP3   OH220687   6.946   4.737   4.807
 6908TIP3    H120688   6.942   4.648   4.842
 6908TIP3    H220689   6.860   4.752   4.770
 6909TIP3   OH220690   2.406   5.486   3.721
 6909TIP3    H120691   2.418   5.530   3.637
 6909TIP3    H220692   2.345   5.542   3.769
 6910TIP3   OH220693   7.073   6.212   4.475
 6910TIP3    H120694   7.056   6.306   4.474
 6910TIP3    H220695   7.168   6.205   4.463
 6911TIP3   OH220696   6.439   2.209   1.292
 6911TIP3    H120697   6.351   2.208   1.329
 6911TIP3    H220698   6.453   2.119   1.262
 6912TIP3   OH220699   3.204   4.941   1.468
 6912TIP3    H120700   3.130   4.911   1.414
 6912TIP3    H220701   3.167   5.007   1.525
 6913TIP3   OH220702   4.456   4.153   3.571
 6913TIP3    H120703   4.370   4.191   3.585
 6913TIP3    H220704   4.502   4.217   3.517
 6914TIP3   OH220705   0.525   4.744   1.067
 6914TIP3    H120706   0.459   4.759   1.135
 6914TIP3    H220707   0.479   4.695   0.999
 6915TIP3   OH220708   2.135   3.366   3.049
 6915TIP3    H120709   2.220   3.410   3.051
 6915TIP3    H220710   2.087   3.405   3.122
 6916TIP3   OH220711   2.696   3.265   3.377
 6916TIP3    H120712   2.768   3.275   3.440
 6916TIP3    H220713   2.689   3.170   3.365
 6917TIP3   OH220714   6.377   5.321   0.093
 6917TIP3    H120715   6.376   5.253   0.160
 6917TIP3    H220716   6.295   5.309   0.045
 6918TIP3   OH220717   5.659   0.166   5.630
 6918TIP3    H120718   5.667   0.154   5.535
 6918TIP3    H220719   5.660   0.261   5.642
 6919TIP3   OH220720   5.239   2.986   0.951
 6919TIP3    H120721   5.161   3.040   0.962
 6919TIP3    H220722   5.267   2.965   1.040
 6920TIP3   OH220723   2.193   1.223   2.508
 6920TIP3    H120724   2.187   1.241   2.414
 6920TIP3    H220725   2.173   1.307   2.549
 6921TIP3   OH220726   6.689   1.899   5.682
 6921TIP3    H120727   6.768   1.917   5.630
 6921TIP3    H220728   6.721   1.845   5.755
 6922TIP3   OH220729   2.887   2.259   3.153
 6922TIP3    H120730   2.867   2.271   3.060
 6922TIP3    H220731   2.913   2.346   3.183
 6923TIP3   OH220732   5.404   1.552   0.617
 6923TIP3    H120733   5.406   1.471   0.667
 6923TIP3    H220734   5.367   1.528   0.533
 6924TIP3   OH220735   5.351   0.188   2.752
 6924TIP3    H120736   5.369   0.241   2.674
 6924TIP3    H220737   5.319   0.104   2.717
 6925TIP3   OH220738   4.594   0.107   2.334
 6925TIP3    H120739   4.542   0.077   2.408
 6925TIP3    H220740   4.675   0.056   2.340
 6926TIP3   OH220741   6.280   4.171   5.217
 6926TIP3    H120742   6.243   4.083   5.223
 6926TIP3    H220743   6.231   4.222   5.281
 6927TIP3   OH220744   3.313   4.226   4.573
 6927TIP3    H120745   3.230   4.270   4.552
 6927TIP3    H220746   3.289   4.134   4.582
 6928TIP3   OH220747   6.901   5.324   0.358
 6928TIP3    H120748   6.902   5.407   0.310
 6928TIP3    H220749   6.959   5.267   0.308
 6929TIP3   OH220750   1.450   3.490   3.738
 6929TIP3    H120751   1.445   3.508   3.832
 6929TIP3    H220752   1.531   3.440   3.728
 6930TIP3   OH220753   2.529   4.592   1.227
 6930TIP3    H120754   2.514   4.518   1.286
 6930TIP3    H220755   2.547   4.552   1.142
 6931TIP3   OH220756   5.187   1.441   4.012
 6931TIP3    H120757   5.178   1.446   4.107
 6931TIP3    H220758   5.149   1.357   3.988
 6932TIP3   OH220759   6.439   3.807   2.942
 6932TIP3    H120760   6.405   3.887   2.901
 6932TIP3    H220761   6.459   3.833   3.032
 6933TIP3   OH220762   3.596   0.023   3.916
 6933TIP3    H120763   3.680   0.066   3.902
 6933TIP3    H220764   3.531   0.089   3.891
 6934TIP3   OH220765   4.745   6.735   4.030
 6934TIP3    H120766   4.779   6.824   4.039
 6934TIP3    H220767   4.703   6.733   3.945
 6935TIP3   OH220768   6.653   6.230   1.079
 6935TIP3    H120769   6.727   6.210   1.022
 6935TIP3    H220770   6.674   6.186   1.161
 6936TIP3   OH220771   6.694   6.384   0.667
 6936TIP3    H120772   6.727   6.389   0.577
 6936TIP3    H220773   6.603   6.413   0.660
 6937TIP3   OH220774   0.681   5.400   5.586
 6937TIP3    H120775   0.716   5.412   5.497
 6937TIP3    H220776   0.590   5.428   5.579
 6938TIP3   OH220777   0.681   5.020   0.273
 6938TIP3    H120778   0.760   5.047   0.227
 6938TIP3    H220779   0.670   4.928   0.250
 6939TIP3   OH220780   1.176   3.931   2.417
 6939TIP3    H120781   1.194   3.999   2.352
 6939TIP3    H220782   1.084   3.907   2.403
 6940TIP3   OH220783   5.134   4.237   1.624
 6940TIP3    H120784   5.057   4.193   1.587
 6940TIP3    H220785   5.110   4.255   1.715
 6941TIP3   OH220786   2.702   1.066   1.707
 6941TIP3    H120787   2.768   1.133   1.723
 6941TIP3    H220788   2.750   0.992   1.670
 6942TIP3   OH220789   0.206   5.394   3.054
 6942TIP3    H120790   0.149   5.358   3.123
 6942TIP3    H220791   0.181   5.486   3.048
 6943TIP3   OH220792   6.470   1.545   5.019
 6943TIP3    H120793   6.494   1.605   4.948
 6943TIP3    H220794   6.445   1.464   4.975
 6944TIP3   OH220795   6.324   1.164   5.232
 6944TIP3    H120796   6.266   1.239   5.232
 6944TIP3    H220797   6.285   1.103   5.295
 6945TIP3   OH220798   4.262   0.966   3.519
 6945TIP3    H120799   4.174   0.991   3.492
 6945TIP3    H220800   4.269   0.995   3.610
 6946TIP3   OH220801   0.018   1.244   0.713
 6946TIP3    H120802   0.055   1.156   0.724
 6946TIP3    H220803  -0.073   1.236   0.744
 6947TIP3   OH220804   3.232   2.983   1.867
 6947TIP3    H120805   3.215   2.926   1.942
 6947TIP3    H220806   3.169   2.954   1.800
 6948TIP3   OH220807   4.028   5.236   5.376
 6948TIP3    H120808   4.118   5.259   5.352
 6948TIP3    H220809   3.995   5.313   5.422
 6949TIP3   OH220810   3.206   3.419   2.051
 6949TIP3    H120811   3.248   3.505   2.046
 6949TIP3    H220812   3.118   3.437   2.084
 6950TIP3   OH220813   3.825   1.992   5.378
 6950TIP3    H120814   3.777   2.074   5.370
 6950TIP3    H220815   3.774   1.930   5.326
 6951TIP3   OH220816   3.517   1.090   1.095
 6951TIP3    H120817   3.444   1.033   1.073
 6951TIP3    H220818   3.593   1.031   1.102
 6952TIP3   OH220819   2.847   1.937   0.738
 6952TIP3    H120820   2.874   1.972   0.653
 6952TIP3    H220821   2.898   1.856   0.749
 6953TIP3   OH220822   1.311   5.175   1.430
 6953TIP3    H120823   1.303   5.188   1.524
 6953TIP3    H220824   1.237   5.119   1.407
 6954TIP3   OH220825   2.595   5.813   3.408
 6954TIP3    H120826   2.528   5.804   3.475
 6954TIP3    H220827   2.662   5.748   3.431
 6955TIP3   OH220828   0.755   1.879   5.025
 6955TIP3    H120829   0.814   1.804   5.037
 6955TIP3    H220830   0.671   1.839   5.001
 6956TIP3   OH220831   6.097   4.090   2.312
 6956TIP3    H120832   6.082   4.037   2.390
 6956TIP3    H220833   6.009   4.118   2.286
 6957TIP3   OH220834   5.781   0.187   3.151
 6957TIP3    H120835   5.712   0.188   3.085
 6957TIP3    H220836   5.734   0.191   3.234
 6958TIP3   OH220837   2.285   2.138   1.020
 6958TIP3    H120838   2.212   2.195   0.999
 6958TIP3    H220839   2.358   2.197   1.038
 6959TIP3   OH220840   0.199   5.197   0.479
 6959TIP3    H120841   0.119   5.231   0.438
 6959TIP3    H220842   0.178   5.195   0.573
 6960TIP3   OH220843   1.487   3.326   5.162
 6960TIP3    H120844   1.578   3.338   5.135
 6960TIP3    H220845   1.453   3.416   5.171
 6961TIP3   OH220846   4.169   3.339   2.797
 6961TIP3    H120847   4.264   3.355   2.797
 6961TIP3    H220848   4.133   3.410   2.850
 6962TIP3   OH220849   4.067   4.989   3.680
 6962TIP3    H120850   4.062   4.894   3.683
 6962TIP3    H220851   3.991   5.015   3.628
 6963TIP3   OH220852   3.997   5.235   5.749
 6963TIP3    H120853   4.049   5.155   5.757
 6963TIP3    H220854   4.036   5.295   5.812
 6964TIP3   OH220855   4.619   3.261   4.235
 6964TIP3    H120856   4.614   3.251   4.331
 6964TIP3    H220857   4.712   3.248   4.215
 6965TIP3   OH220858   5.952   0.955   1.519
 6965TIP3    H120859   5.926   0.865   1.498
 6965TIP3    H220860   5.906   1.008   1.454
 6966TIP3   OH220861   2.165   1.736   1.069
 6966TIP3    H120862   2.164   1.669   1.137
 6966TIP3    H220863   2.080   1.728   1.026
 6967TIP3   OH220864   1.915   3.377   4.036
 6967TIP3    H120865   1.840   3.388   4.094
 6967TIP3    H220866   1.910   3.451   3.976
 6968TIP3   OH220867   7.194   2.641   1.691
 6968TIP3    H120868   7.139   2.570   1.657
 6968TIP3    H220869   7.196   2.626   1.786
 6969TIP3   OH220870   5.037   0.759   0.977
 6969TIP3    H120871   5.113   0.740   1.032
 6969TIP3    H220872   5.027   0.854   0.981
 6970TIP3   OH220873   6.186   6.512   2.123
 6970TIP3    H120874   6.274   6.547   2.134
 6970TIP3    H220875   6.139   6.580   2.074
 6971TIP3   OH220876   2.743   3.670   5.790
 6971TIP3    H120877   2.835   3.645   5.780
 6971TIP3    H220878   2.697   3.615   5.726
 6972TIP3   OH220879   3.474   5.798   4.537
 6972TIP3    H120880   3.568   5.803   4.517
 6972TIP3    H220881   3.463   5.710   4.575
 6973TIP3   OH220882   3.912   0.667   0.821
 6973TIP3    H120883   3.876   0.703   0.739
 6973TIP3    H220884   4.006   0.685   0.815
 6974TIP3   OH220885   3.863   5.217   2.343
 6974TIP3    H120886   3.936   5.170   2.385
 6974TIP3    H220887   3.905   5.292   2.301
 6975TIP3   OH220888   0.542   3.371   2.258
 6975TIP3    H120889   0.584   3.406   2.179
 6975TIP3    H220890   0.565   3.278   2.258
 6976TIP3   OH220891   3.732   2.971   3.136
 6976TIP3    H120892   3.669   3.019   3.190
 6976TIP3    H220893   3.725   2.881   3.166
 6977TIP3   OH220894   0.667   0.063   1.989
 6977TIP3    H120895   0.697   0.072   2.080
 6977TIP3    H220896   0.705  -0.020   1.960
 6978TIP3   OH220897   0.830   5.007   1.479
 6978TIP3    H120898   0.763   4.956   1.432
 6978TIP3    H220899   0.882   4.941   1.525
 6979TIP3   OH220900   1.533   3.909   0.389
 6979TIP3    H120901   1.561   3.998   0.364
 6979TIP3    H220902   1.615   3.862   0.404
 6980TIP3   OH220903   2.043   5.260   0.086
 6980TIP3    H120904   2.058   5.291   0.176
 6980TIP3    H220905   2.125   5.216   0.063
 6981TIP3   OH220906   5.005   2.441   4.951
 6981TIP3    H120907   5.087   2.490   4.947
 6981TIP3    H220908   4.975   2.437   4.860
 6982TIP3   OH220909   5.395   1.245   2.124
 6982TIP3    H120910   5.372   1.266   2.034
 6982TIP3    H220911   5.322   1.193   2.157
 6983TIP3   OH220912   0.267   4.972   3.546
 6983TIP3    H120913   0.319   4.896   3.519
 6983TIP3    H220914   0.277   5.034   3.473
 6984TIP3   OH220915   0.764   0.108   5.802
 6984TIP3    H120916   0.859   0.104   5.812
 6984TIP3    H220917   0.746   0.061   5.720
 6985TIP3   OH220918   0.607   3.818   4.271
 6985TIP3    H120919   0.657   3.785   4.345
 6985TIP3    H220920   0.588   3.740   4.218
 6986TIP3   OH220921   0.976   5.388   1.708
 6986TIP3    H120922   0.916   5.462   1.705
 6986TIP3    H220923   1.056   5.423   1.747
 6987TIP3   OH220924   1.898   1.433   3.749
 6987TIP3    H120925   1.835   1.378   3.702
 6987TIP3    H220926   1.983   1.407   3.714
 6988TIP3   OH220927   0.614   0.657   0.450
 6988TIP3    H120928   0.571   0.679   0.367
 6988TIP3    H220929   0.664   0.578   0.431
 6989TIP3   OH220930   5.248   2.500   1.684
 6989TIP3    H120931   5.157   2.526   1.674
 6989TIP3    H220932   5.244   2.411   1.717
 6990TIP3   OH220933   2.737   2.214   5.597
 6990TIP3    H120934   2.736   2.291   5.539
 6990TIP3    H220935   2.830   2.194   5.609
 6991TIP3   OH220936   0.680   0.206   2.404
 6991TIP3    H120937   0.612   0.269   2.380
 6991TIP3    H220938   0.752   0.259   2.438
 6992TIP3   OH220939   3.869   5.701   1.034
 6992TIP3    H120940   3.793   5.748   0.999
 6992TIP3    H220941   3.936   5.768   1.046
 6993TIP3   OH220942   2.768   5.065   0.476
 6993TIP3    H120943   2.705   5.132   0.502
 6993TIP3    H220944   2.802   5.032   0.559
 6994TIP3   OH220945   2.271   6.096   1.672
 6994TIP3    H120946   2.295   6.144   1.751
 6994TIP3    H220947   2.350   6.100   1.617
 6995TIP3   OH220948   2.792   5.986   3.261
 6995TIP3    H120949   2.718   5.945   3.306
 6995TIP3    H220950   2.870   5.947   3.301
 6996TIP3   OH220951   5.021   1.110   1.921
 6996TIP3    H120952   5.051   1.099   2.011
 6996TIP3    H220953   4.997   1.202   1.915
 6997TIP3   OH220954   4.029   2.061   1.491
 6997TIP3    H120955   4.117   2.073   1.525
 6997TIP3    H220956   3.971   2.079   1.565
 6998TIP3   OH220957   1.881   2.534   0.550
 6998TIP3    H120958   1.923   2.605   0.501
 6998TIP3    H220959   1.864   2.572   0.636
 6999TIP3   OH220960   5.304   0.172   4.353
 6999TIP3    H120961   5.376   0.153   4.294
 6999TIP3    H220962   5.231   0.119   4.320
 7000TIP3   OH220963   1.416   3.634   3.253
 7000TIP3    H120964   1.496   3.634   3.305
 7000TIP3    H220965   1.384   3.544   3.258
 7001TIP3   OH220966   7.217   6.429   2.332
 7001TIP3    H120967   7.201   6.390   2.418
 7001TIP3    H220968   7.136   6.476   2.312
 7002TIP3   OH220969   4.933   6.089   1.463
 7002TIP3    H120970   5.020   6.128   1.457
 7002TIP3    H220971   4.949   5.995   1.475
 7003TIP3   OH220972   1.031   3.129   4.404
 7003TIP3    H120973   0.984   3.047   4.422
 7003TIP3    H220974   1.077   3.112   4.321
 7004TIP3   OH220975   5.606   4.110   5.433
 7004TIP3    H120976   5.659   4.179   5.471
 7004TIP3    H220977   5.539   4.155   5.382
 7005TIP3   OH220978   5.362   1.932   1.426
 7005TIP3    H120979   5.328   1.928   1.337
 7005TIP3    H220980   5.287   1.910   1.481
 7006TIP3   OH220981   7.049   4.020   3.552
 7006TIP3    H120982   7.094   3.977   3.478
 7006TIP3    H220983   7.083   4.109   3.552
 7007TIP3   OH220984  -0.014   3.519   1.129
 7007TIP3    H120985  -0.059   3.582   1.072
 7007TIP3    H220986  -0.079   3.452   1.148
 7008TIP3   OH220987   5.986   1.741   4.751
 7008TIP3    H120988   5.896   1.709   4.755
 7008TIP3    H220989   5.990   1.790   4.668
 7009TIP3   OH220990   1.831   0.398   4.914
 7009TIP3    H120991   1.762   0.344   4.874
 7009TIP3    H220992   1.868   0.447   4.840
 7010TIP3   OH220993   5.869   5.079   0.079
 7010TIP3    H120994   5.906   5.031   0.005
 7010TIP3    H220995   5.777   5.052   0.081
 7011TIP3   OH220996   2.110   6.383   4.935
 7011TIP3    H120997   2.172   6.424   4.875
 7011TIP3    H220998   2.146   6.296   4.951
 7012TIP3   OH220999   0.831   2.518   3.349
 7012TIP3    H121000   0.835   2.591   3.410
 7012TIP3    H221001   0.824   2.559   3.262
 7013TIP3   OH221002   3.139   2.566   2.914
 7013TIP3    H121003   3.122   2.516   2.994
 7013TIP3    H221004   3.194   2.508   2.861
 7014TIP3   OH221005   5.605   2.438   3.877
 7014TIP3    H121006   5.568   2.350   3.890
 7014TIP3    H221007   5.620   2.471   3.966
 7015TIP3   OH221008   4.229   0.163   1.770
 7015TIP3    H121009   4.169   0.211   1.714
 7015TIP3    H221010   4.316   0.182   1.735
 7016TIP3   OH221011   0.436   2.783   5.769
 7016TIP3    H121012   0.508   2.829   5.726
 7016TIP3    H221013   0.376   2.853   5.796
 7017TIP3   OH221014   6.659   6.515   1.078
 7017TIP3    H121015   6.618   6.548   0.998
 7017TIP3    H221016   6.633   6.423   1.081
 7018TIP3   OH221017   4.082   1.913   2.980
 7018TIP3    H121018   4.177   1.901   2.975
 7018TIP3    H221019   4.061   1.896   3.072
 7019TIP3   OH221020   5.951   2.627   5.678
 7019TIP3    H121021   6.031   2.635   5.627
 7019TIP3    H221022   5.940   2.713   5.719
 7020TIP3   OH221023   1.154   0.044   2.670
 7020TIP3    H121024   1.099   0.027   2.746
 7020TIP3    H221025   1.200   0.126   2.691
 7021TIP3   OH221026   5.502   0.991   0.301
 7021TIP3    H121027   5.411   0.987   0.329
 7021TIP3    H221028   5.509   1.074   0.254
 7022TIP3   OH221029   5.110   3.962   2.536
 7022TIP3    H121030   5.169   3.887   2.526
 7022TIP3    H221031   5.167   4.033   2.566
 7023TIP3   OH221032   1.124   1.934   2.510
 7023TIP3    H121033   1.099   2.016   2.551
 7023TIP3    H221034   1.065   1.869   2.548
 7024TIP3   OH221035   6.538   1.479   2.248
 7024TIP3    H121036   6.512   1.548   2.309
 7024TIP3    H221037   6.516   1.513   2.162
 7025TIP3   OH221038   7.106   6.159   1.879
 7025TIP3    H121039   7.159   6.221   1.929
 7025TIP3    H221040   7.160   6.080   1.874
 7026TIP3   OH221041   6.812   1.688   1.020
 7026TIP3    H121042   6.890   1.642   0.990
 7026TIP3    H221043   6.768   1.626   1.079
 7027TIP3   OH221044   3.345   0.238   4.138
 7027TIP3    H121045   3.436   0.244   4.168
 7027TIP3    H221046   3.347   0.271   4.048
 7028TIP3   OH221047   6.054   3.025   4.648
 7028TIP3    H121048   6.048   3.103   4.704
 7028TIP3    H221049   5.964   3.010   4.618
 7029TIP3   OH221050   4.031   6.130   1.540
 7029TIP3    H121051   4.115   6.085   1.551
 7029TIP3    H221052   3.969   6.077   1.592
 7030TIP3   OH221053   5.335   6.164   2.178
 7030TIP3    H121054   5.301   6.105   2.111
 7030TIP3    H221055   5.414   6.121   2.210
 7031TIP3   OH221056   2.457   1.543   3.352
 7031TIP3    H121057   2.547   1.559   3.323
 7031TIP3    H221058   2.425   1.630   3.379
 7032TIP3   OH221059   5.217   2.188   0.187
 7032TIP3    H121060   5.263   2.193   0.271
 7032TIP3    H221061   5.195   2.279   0.167
 7033TIP3   OH221062   2.113   6.207   2.305
 7033TIP3    H121063   2.080   6.119   2.321
 7033TIP3    H221064   2.071   6.234   2.223
 7034TIP3   OH221065   2.184   4.661   5.294
 7034TIP3    H121066   2.172   4.577   5.250
 7034TIP3    H221067   2.134   4.723   5.240
 7035TIP3   OH221068   2.052   5.096   5.402
 7035TIP3    H121069   1.999   5.168   5.436
 7035TIP3    H221070   2.077   5.125   5.314
 7036TIP3   OH221071   1.646   0.710   1.517
 7036TIP3    H121072   1.697   0.654   1.459
 7036TIP3    H221073   1.681   0.798   1.503
 7037TIP3   OH221074   0.458   0.881   4.135
 7037TIP3    H121075   0.538   0.895   4.085
 7037TIP3    H221076   0.463   0.790   4.164
 7038TIP3   OH221077   3.587   0.095   0.994
 7038TIP3    H121078   3.659   0.127   1.048
 7038TIP3    H221079   3.514   0.084   1.054
 7039TIP3   OH221080   1.215   0.699   4.927
 7039TIP3    H121081   1.172   0.620   4.958
 7039TIP3    H221082   1.167   0.771   4.969
 7040TIP3   OH221083   4.949   0.063   0.554
 7040TIP3    H121084   5.003   0.070   0.633
 7040TIP3    H221085   4.871   0.016   0.583
 7041TIP3   OH221086   1.483   5.400   1.551
 7041TIP3    H121087   1.388   5.391   1.541
 7041TIP3    H221088   1.498   5.399   1.645
 7042TIP3   OH221089   1.946   5.383   1.844
 7042TIP3    H121090   1.931   5.313   1.781
 7042TIP3    H221091   1.964   5.337   1.927
 7043TIP3   OH221092   6.523   1.037   5.062
 7043TIP3    H121093   6.520   0.941   5.055
 7043TIP3    H221094   6.444   1.060   5.110
 7044TIP3   OH221095   4.015   2.969   5.505
 7044TIP3    H121096   4.072   3.013   5.568
 7044TIP3    H221097   4.073   2.913   5.454
 7045TIP3   OH221098   6.695   4.988   1.713
 7045TIP3    H121099   6.642   5.006   1.636
 7045TIP3    H221100   6.677   4.896   1.735
 7046TIP3   OH221101   2.504   0.592   1.415
 7046TIP3    H121102   2.600   0.598   1.419
 7046TIP3    H221103   2.486   0.560   1.327
 7047TIP3   OH221104   2.156   2.216   1.495
 7047TIP3    H121105   2.162   2.246   1.586
 7047TIP3    H221106   2.148   2.296   1.443
 7048TIP3   OH221107   3.013   1.961   4.466
 7048TIP3    H121108   3.053   1.974   4.380
 7048TIP3    H221109   2.976   1.872   4.461
 7049TIP3   OH221110   5.343   2.894   1.830
 7049TIP3    H121111   5.260   2.846   1.836
 7049TIP3    H221112   5.317   2.986   1.825
 7050TIP3   OH221113   6.954   5.120   5.600
 7050TIP3    H121114   6.994   5.087   5.520
 7050TIP3    H221115   6.870   5.074   5.605
 7051TIP3   OH221116   3.865   5.815  -0.015
 7051TIP3    H121117   3.884   5.808   0.078
 7051TIP3    H221118   3.797   5.883  -0.021
 7052TIP3   OH221119   0.804   2.900   2.218
 7052TIP3    H121120   0.791   2.813   2.180
 7052TIP3    H221121   0.816   2.958   2.142
 7053TIP3   OH221122   1.311   3.616   4.547
 7053TIP3    H121123   1.243   3.640   4.609
 7053TIP3    H221124   1.266   3.560   4.483
 7054TIP3   OH221125   0.315   6.313   1.939
 7054TIP3    H121126   0.367   6.372   1.883
 7054TIP3    H221127   0.226   6.320   1.903
 7055TIP3   OH221128   5.741   0.966   3.368
 7055TIP3    H121129   5.703   1.031   3.308
 7055TIP3    H221130   5.758   0.890   3.313
 7056TIP3   OH221131   4.339   0.163   0.300
 7056TIP3    H121132   4.258   0.189   0.255
 7056TIP3    H221133   4.394   0.126   0.231
 7057TIP3   OH221134   2.343   2.105   2.227
 7057TIP3    H121135   2.397   2.096   2.149
 7057TIP3    H221136   2.353   2.022   2.274
 7058TIP3   OH221137   1.809   0.395   0.472
 7058TIP3    H121138   1.797   0.487   0.448
 7058TIP3    H221139   1.762   0.385   0.555
 7059TIP3   OH221140   5.647   2.797   4.625
 7059TIP3    H121141   5.729   2.770   4.667
 7059TIP3    H221142   5.675   2.847   4.548
 7060TIP3   OH221143   5.480   4.011   3.030
 7060TIP3    H121144   5.482   4.004   3.125
 7060TIP3    H221145   5.528   4.092   3.011
 7061TIP3   OH221146   0.207   5.718   2.723
 7061TIP3    H121147   0.201   5.623   2.734
 7061TIP3    H221148   0.125   5.742   2.679
 7062TIP3   OH221149   4.987   2.502   1.808
 7062TIP3    H121150   5.025   2.415   1.824
 7062TIP3    H221151   4.952   2.528   1.893
 7063TIP3   OH221152   2.610   2.199   2.728
 7063TIP3    H121153   2.656   2.132   2.677
 7063TIP3    H221154   2.674   2.227   2.793
 7064TIP3   OH221155   3.377   2.090   1.258
 7064TIP3    H121156   3.410   2.016   1.308
 7064TIP3    H221157   3.408   2.167   1.306
 7065TIP3   OH221158   4.154   2.087   3.235
 7065TIP3    H121159   4.182   2.038   3.157
 7065TIP3    H221160   4.157   2.024   3.306
 7066TIP3   OH221161   5.958   2.716   5.254
 7066TIP3    H121162   5.951   2.724   5.349
 7066TIP3    H221163   5.997   2.630   5.241
 7067TIP3   OH221164   4.672   1.183   3.424
 7067TIP3    H121165   4.686   1.207   3.516
 7067TIP3    H221166   4.654   1.266   3.380
 7068TIP3   OH221167   5.903   3.559   0.218
 7068TIP3    H121168   5.811   3.584   0.225
 7068TIP3    H221169   5.944   3.628   0.166
 7069TIP3   OH221170   5.823   2.219   3.765
 7069TIP3    H121171   5.886   2.249   3.831
 7069TIP3    H221172   5.747   2.191   3.817
 7070TIP3   OH221173   0.752   1.948   4.505
 7070TIP3    H121174   0.789   2.036   4.500
 7070TIP3    H221175   0.668   1.959   4.549
 7071TIP3   OH221176   2.914   1.199   2.252
 7071TIP3    H121177   3.001   1.228   2.276
 7071TIP3    H221178   2.909   1.215   2.157
 7072TIP3   OH221179   2.216   6.075   4.455
 7072TIP3    H121180   2.199   6.077   4.549
 7072TIP3    H221181   2.261   6.157   4.437
 7073TIP3   OH221182   4.167   4.777   1.461
 7073TIP3    H121183   4.098   4.710   1.460
 7073TIP3    H221184   4.236   4.739   1.515
 7074TIP3   OH221185   4.134   3.099   5.228
 7074TIP3    H121186   4.212   3.109   5.283
 7074TIP3    H221187   4.142   3.012   5.190
 7075TIP3   OH221188   3.154   4.791   4.765
 7075TIP3    H121189   3.126   4.827   4.849
 7075TIP3    H221190   3.250   4.792   4.770
 7076TIP3   OH221191   0.084   5.285   2.454
 7076TIP3    H121192   0.070   5.345   2.526
 7076TIP3    H221193   0.163   5.236   2.477
 7077TIP3   OH221194   6.723   5.312   5.637
 7077TIP3    H121195   6.776   5.320   5.716
 7077TIP3    H221196   6.712   5.218   5.625
 7078TIP3   OH221197   1.947   1.356   0.392
 7078TIP3    H121198   1.936   1.350   0.298
 7078TIP3    H221199   2.041   1.346   0.406
 7079TIP3   OH221200   2.740   4.375   1.331
 7079TIP3    H121201   2.772   4.395   1.243
 7079TIP3    H221202   2.812   4.400   1.389
 7080TIP3   OH221203   1.080   2.136   0.634
 7080TIP3    H121204   1.137   2.122   0.558
 7080TIP3    H221205   1.061   2.230   0.632
 7081TIP3   OH221206   2.375   0.050   3.225
 7081TIP3    H121207   2.333   0.053   3.139
 7081TIP3    H221208   2.405   0.140   3.240
 7082TIP3   OH221209   3.085   1.531   1.990
 7082TIP3    H121210   3.159   1.519   1.930
 7082TIP3    H221211   3.027   1.457   1.971
 7083TIP3   OH221212   3.576   0.051   0.512
 7083TIP3    H121213   3.586   0.077   0.420
 7083TIP3    H221214   3.539   0.128   0.555
 7084TIP3   OH221215   1.906   3.214   4.343
 7084TIP3    H121216   1.849   3.198   4.418
 7084TIP3    H221217   1.935   3.305   4.353
 7085TIP3   OH221218   0.096   5.873   4.524
 7085TIP3    H121219   0.018   5.820   4.507
 7085TIP3    H221220   0.128   5.841   4.608
 7086TIP3   OH221221   6.022   5.760   0.202
 7086TIP3    H121222   6.003   5.677   0.160
 7086TIP3    H221223   6.117   5.769   0.196
 7087TIP3   OH221224   1.522   4.000   3.584
 7087TIP3    H121225   1.579   3.984   3.660
 7087TIP3    H221226   1.451   3.937   3.595
 7088TIP3   OH221227   0.946   6.222   1.620
 7088TIP3    H121228   0.863   6.178   1.607
 7088TIP3    H221229   1.008   6.152   1.641
 7089TIP3   OH221230   6.129   0.566   2.442
 7089TIP3    H121231   6.109   0.647   2.487
 7089TIP3    H221232   6.139   0.501   2.511
 7090TIP3   OH221233   5.166   6.315   5.341
 7090TIP3    H121234   5.236   6.322   5.406
 7090TIP3    H221235   5.127   6.402   5.337
 7091TIP3   OH221236   1.358   2.782   1.343
 7091TIP3    H121237   1.270   2.788   1.307
 7091TIP3    H221238   1.346   2.779   1.438
 7092TIP3   OH221239   5.433   6.204   1.591
 7092TIP3    H121240   5.483   6.163   1.521
 7092TIP3    H221241   5.461   6.296   1.590
 7093TIP3   OH221242   6.397   2.747   1.479
 7093TIP3    H121243   6.348   2.692   1.418
 7093TIP3    H221244   6.478   2.768   1.433
 7094TIP3   OH221245   3.548   1.969   2.874
 7094TIP3    H121246   3.604   2.016   2.936
 7094TIP3    H221247   3.605   1.904   2.834
 7095TIP3   OH221248   3.423   5.956   5.424
 7095TIP3    H121249   3.462   5.872   5.398
 7095TIP3    H221250   3.353   5.932   5.485
 7096TIP3   OH221251   1.904   4.541   4.807
 7096TIP3    H121252   1.825   4.519   4.856
 7096TIP3    H221253   1.921   4.466   4.752
 7097TIP3   OH221254   2.399   5.904   0.789
 7097TIP3    H121255   2.473   5.952   0.753
 7097TIP3    H221256   2.436   5.853   0.861
 7098TIP3   OH221257   2.880   2.140   3.814
 7098TIP3    H121258   2.847   2.112   3.900
 7098TIP3    H221259   2.958   2.088   3.800
 7099TIP3   OH221260   3.955   4.815   1.098
 7099TIP3    H121261   3.885   4.775   1.149
 7099TIP3    H221262   3.941   4.910   1.108
 7100TIP3   OH221263   6.961   5.939   2.548
 7100TIP3    H121264   6.870   5.912   2.562
 7100TIP3    H221265   6.955   6.011   2.485
 7101TIP3   OH221266   4.254   5.110   3.401
 7101TIP3    H121267   4.225   5.166   3.330
 7101TIP3    H221268   4.264   5.023   3.362
 7102TIP3   OH221269   0.802   3.267   4.615
 7102TIP3    H121270   0.745   3.328   4.662
 7102TIP3    H221271   0.780   3.181   4.650
 7103TIP3   OH221272   3.482   5.628   4.324
 7103TIP3    H121273   3.487   5.676   4.407
 7103TIP3    H221274   3.422   5.680   4.270
 7104TIP3   OH221275   1.611   1.492   4.929
 7104TIP3    H121276   1.692   1.441   4.931
 7104TIP3    H221277   1.640   1.583   4.924
 7105TIP3   OH221278   3.869   4.409   2.124
 7105TIP3    H121279   3.929   4.337   2.142
 7105TIP3    H221280   3.860   4.455   2.208
 7106TIP3   OH221281   7.078   0.826   1.210
 7106TIP3    H121282   7.151   0.771   1.238
 7106TIP3    H221283   7.118   0.909   1.185
 7107TIP3   OH221284   2.196   1.186   5.553
 7107TIP3    H121285   2.233   1.274   5.546
 7107TIP3    H221286   2.146   1.187   5.635
 7108TIP3   OH221287   3.835   5.275   3.957
 7108TIP3    H121288   3.783   5.340   4.004
 7108TIP3    H221289   3.922   5.314   3.950
 7109TIP3   OH221290   5.007   2.784   1.130
 7109TIP3    H121291   5.047   2.866   1.159
 7109TIP3    H221292   5.074   2.718   1.143
 7110TIP3   OH221293   2.102   0.240   0.515
 7110TIP3    H121294   2.107   0.333   0.537
 7110TIP3    H221295   2.178   0.223   0.460
 7111TIP3   OH221296   1.847   0.540   0.161
 7111TIP3    H121297   1.888   0.612   0.112
 7111TIP3    H221298   1.856   0.566   0.253
 7112TIP3   OH221299   6.272   6.258   5.778
 7112TIP3    H121300   6.286   6.281   5.686
 7112TIP3    H221301   6.302   6.334   5.827
 7113TIP3   OH221302   2.091   4.334   2.386
 7113TIP3    H121303   2.089   4.395   2.312
 7113TIP3    H221304   2.147   4.377   2.451
 7114TIP3   OH221305   4.257   2.562   0.458
 7114TIP3    H121306   4.162   2.574   0.452
 7114TIP3    H221307   4.274   2.544   0.550
 7115TIP3   OH221308   4.778   6.652   3.312
 7115TIP3    H121309   4.756   6.741   3.285
 7115TIP3    H221310   4.853   6.628   3.258
 7116TIP3   OH221311   6.252   2.340   0.074
 7116TIP3    H121312   6.246   2.345  -0.021
 7116TIP3    H221313   6.162   2.322   0.103
 7117TIP3   OH221314   5.459   1.444   4.208
 7117TIP3    H121315   5.417   1.508   4.151
 7117TIP3    H221316   5.474   1.368   4.151
 7118TIP3   OH221317   3.445   2.340   0.506
 7118TIP3    H121318   3.531   2.314   0.541
 7118TIP3    H221319   3.443   2.303   0.418
 7119TIP3   OH221320   0.805   0.581   2.543
 7119TIP3    H121321   0.864   0.654   2.565
 7119TIP3    H221322   0.832   0.554   2.456
 7120TIP3   OH221323   5.766   5.739   1.307
 7120TIP3    H121324   5.828   5.800   1.267
 7120TIP3    H221325   5.764   5.664   1.247
 7121TIP3   OH221326   6.373   6.210   2.795
 7121TIP3    H121327   6.415   6.130   2.762
 7121TIP3    H221328   6.418   6.228   2.878
 7122TIP3   OH221329   3.099   5.001   4.241
 7122TIP3    H121330   3.098   4.907   4.258
 7122TIP3    H221331   3.116   5.041   4.326
 7123TIP3   OH221332   0.612   4.184   0.875
 7123TIP3    H121333   0.550   4.252   0.848
 7123TIP3    H221334   0.695   4.230   0.887
 7124TIP3   OH221335   4.656   4.785   0.885
 7124TIP3    H121336   4.727   4.772   0.948
 7124TIP3    H221337   4.613   4.700   0.879
 7125TIP3   OH221338   6.671   4.811   4.759
 7125TIP3    H121339   6.636   4.890   4.717
 7125TIP3    H221340   6.649   4.821   4.851
 7126TIP3   OH221341   1.083   4.150   5.697
 7126TIP3    H121342   1.121   4.064   5.680
 7126TIP3    H221343   1.121   4.207   5.631
 7127TIP3   OH221344   3.790   0.798   4.008
 7127TIP3    H121345   3.725   0.782   3.939
 7127TIP3    H221346   3.739   0.832   4.081
 7128TIP3   OH221347   2.186   2.143   3.307
 7128TIP3    H121348   2.189   2.105   3.219
 7128TIP3    H221349   2.254   2.210   3.306
 7129TIP3   OH221350   2.420   4.492   2.016
 7129TIP3    H121351   2.503   4.530   1.990
 7129TIP3    H221352   2.405   4.420   1.954
 7130TIP3   OH221353   5.338   2.759   3.953
 7130TIP3    H121354   5.384   2.802   4.025
 7130TIP3    H221355   5.367   2.806   3.875
 7131TIP3   OH221356   4.996   5.461   3.229
 7131TIP3    H121357   5.047   5.521   3.284
 7131TIP3    H221358   5.023   5.374   3.256
 7132TIP3   OH221359   1.481   6.490   4.934
 7132TIP3    H121360   1.408   6.514   4.991
 7132TIP3    H221361   1.446   6.423   4.876
 7133TIP3   OH221362   7.061   4.860   5.161
 7133TIP3    H121363   6.979   4.814   5.175
 7133TIP3    H221364   7.129   4.798   5.188
 7134TIP3   OH221365   5.416   2.472   5.764
 7134TIP3    H121366   5.425   2.518   5.847
 7134TIP3    H221367   5.328   2.494   5.734
 7135TIP3   OH221368   4.735   3.754   0.352
 7135TIP3    H121369   4.685   3.818   0.301
 7135TIP3    H221370   4.819   3.748   0.306
 7136TIP3   OH221371   3.072   5.923   3.375
 7136TIP3    H121372   3.142   5.931   3.311
 7136TIP3    H221373   3.079   5.834   3.409
 7137TIP3   OH221374   5.810   1.898   5.016
 7137TIP3    H121375   5.840   1.826   5.071
 7137TIP3    H221376   5.869   1.897   4.940
 7138TIP3   OH221377   6.376   5.361   1.856
 7138TIP3    H121378   6.342   5.375   1.945
 7138TIP3    H221379   6.338   5.277   1.829
 7139TIP3   OH221380   1.442   6.383   5.465
 7139TIP3    H121381   1.459   6.476   5.453
 7139TIP3    H221382   1.520   6.340   5.431
 7140TIP3   OH221383   2.758   1.717   5.113
 7140TIP3    H121384   2.677   1.722   5.063
 7140TIP3    H221385   2.824   1.687   5.050
 7141TIP3   OH221386   7.096   3.191   5.480
 7141TIP3    H121387   7.095   3.111   5.532
 7141TIP3    H221388   7.075   3.163   5.391
 7142TIP3   OH221389   5.884   4.178   4.123
 7142TIP3    H121390   5.877   4.274   4.121
 7142TIP3    H221391   5.959   4.158   4.067
 7143TIP3   OH221392   3.770   4.625   4.746
 7143TIP3    H121393   3.837   4.641   4.812
 7143TIP3    H221394   3.774   4.702   4.689
 7144TIP3   OH221395   1.918   0.659   0.768
 7144TIP3    H121396   1.895   0.749   0.745
 7144TIP3    H221397   1.862   0.605   0.713
 7145TIP3   OH221398   0.084   2.559   0.671
 7145TIP3    H121399   0.038   2.489   0.624
 7145TIP3    H221400   0.044   2.639   0.639
 7146TIP3   OH221401   4.420   1.160   2.549
 7146TIP3    H121402   4.405   1.210   2.469
 7146TIP3    H221403   4.486   1.095   2.526
 7147TIP3   OH221404   1.530   5.462   3.025
 7147TIP3    H121405   1.529   5.374   3.063
 7147TIP3    H221406   1.437   5.482   3.011
 7148TIP3   OH221407   6.055   0.231   0.076
 7148TIP3    H121408   6.002   0.199   0.149
 7148TIP3    H221409   5.999   0.220  -0.001
 7149TIP3   OH221410   3.541   3.820   5.820
 7149TIP3    H121411   3.494   3.804   5.738
 7149TIP3    H221412   3.557   3.733   5.855
 7150TIP3   OH221413   2.935   0.088   5.483
 7150TIP3    H121414   3.006   0.141   5.519
 7150TIP3    H221415   2.856   0.125   5.522
 7151TIP3   OH221416   3.820   0.541   5.443
 7151TIP3    H121417   3.798   0.625   5.404
 7151TIP3    H221418   3.909   0.523   5.412
 7152TIP3   OH221419   1.451   4.267   1.119
 7152TIP3    H121420   1.473   4.174   1.115
 7152TIP3    H221421   1.372   4.270   1.173
 7153TIP3   OH221422   4.948   2.666   0.529
 7153TIP3    H121423   4.918   2.730   0.594
 7153TIP3    H221424   5.017   2.618   0.574
 7154TIP3   OH221425   5.840   0.648   4.376
 7154TIP3    H121426   5.870   0.736   4.355
 7154TIP3    H221427   5.809   0.612   4.293
 7155TIP3   OH221428   2.980   4.070   5.801
 7155TIP3    H121429   2.893   4.057   5.839
 7155TIP3    H221430   3.034   4.000   5.838
 7156TIP3   OH221431   0.671   4.155   2.786
 7156TIP3    H121432   0.591   4.173   2.835
 7156TIP3    H221433   0.690   4.063   2.803
 7157TIP3   OH221434   5.996   4.039   0.489
 7157TIP3    H121435   6.044   4.106   0.440
 7157TIP3    H221436   6.062   3.973   0.510
 7158TIP3   OH221437   7.019   4.453   2.918
 7158TIP3    H121438   7.077   4.515   2.873
 7158TIP3    H221439   7.079   4.390   2.959
 7159TIP3   OH221440   1.751   2.757   1.020
 7159TIP3    H121441   1.802   2.831   1.052
 7159TIP3    H221442   1.660   2.779   1.043
 7160TIP3   OH221443   5.128   1.386   0.644
 7160TIP3    H121444   5.119   1.291   0.653
 7160TIP3    H221445   5.219   1.399   0.619
 7161TIP3   OH221446   3.597   6.119   0.832
 7161TIP3    H121447   3.595   6.209   0.864
 7161TIP3    H221448   3.526   6.114   0.768
 7162TIP3   OH221449   0.635   2.098   4.940
 7162TIP3    H121450   0.584   2.111   5.019
 7162TIP3    H221451   0.690   2.021   4.958
 7163TIP3   OH221452   3.613   4.778   5.337
 7163TIP3    H121453   3.583   4.699   5.292
 7163TIP3    H221454   3.535   4.811   5.382
 7164TIP3   OH221455   4.745   2.352   0.772
 7164TIP3    H121456   4.762   2.402   0.852
 7164TIP3    H221457   4.709   2.269   0.803
 7165TIP3   OH221458   6.202   1.273   1.242
 7165TIP3    H121459   6.265   1.296   1.174
 7165TIP3    H221460   6.158   1.195   1.207
 7166TIP3   OH221461   6.284   5.520   1.651
 7166TIP3    H121462   6.334   5.477   1.721
 7166TIP3    H221463   6.240   5.593   1.694
 7167TIP3   OH221464   3.030   1.218   3.482
 7167TIP3    H121465   2.953   1.169   3.511
 7167TIP3    H221466   3.077   1.156   3.426
 7168TIP3   OH221467   1.804   0.896   3.686
 7168TIP3    H121468   1.756   0.954   3.626
 7168TIP3    H221469   1.819   0.950   3.763
 7169TIP3   OH221470   3.215   1.218   2.225
 7169TIP3    H121471   3.234   1.125   2.236
 7169TIP3    H221472   3.277   1.249   2.159
 7170TIP3   OH221473   2.659   1.995   3.700
 7170TIP3    H121474   2.674   1.962   3.612
 7170TIP3    H221475   2.730   2.059   3.714
 7171TIP3   OH221476   6.272   3.360   0.455
 7171TIP3    H121477   6.194   3.312   0.484
 7171TIP3    H221478   6.241   3.415   0.384
 7172TIP3   OH221479   0.830   6.329   5.152
 7172TIP3    H121480   0.908   6.373   5.121
 7172TIP3    H221481   0.834   6.337   5.248
 7173TIP3   OH221482   5.378   0.588   2.728
 7173TIP3    H121483   5.387   0.583   2.633
 7173TIP3    H221484   5.467   0.577   2.761
 7174TIP3   OH221485   6.505   1.371   5.260
 7174TIP3    H121486   6.592   1.336   5.243
 7174TIP3    H221487   6.445   1.304   5.228
 7175TIP3   OH221488   5.778   1.714   0.367
 7175TIP3    H121489   5.815   1.713   0.279
 7175TIP3    H221490   5.752   1.805   0.381
 7176TIP3   OH221491   5.169   5.381   0.729
 7176TIP3    H121492   5.211   5.453   0.683
 7176TIP3    H221493   5.099   5.352   0.671
 7177TIP3   OH221494   7.154   0.888   4.256
 7177TIP3    H121495   7.230   0.843   4.221
 7177TIP3    H221496   7.134   0.841   4.338
 7178TIP3   OH221497   6.113   6.050   4.067
 7178TIP3    H121498   6.118   5.985   4.137
 7178TIP3    H221499   6.204   6.063   4.040
 7179TIP3   OH221500   5.771   2.197   4.313
 7179TIP3    H121501   5.828   2.263   4.273
 7179TIP3    H221502   5.683   2.236   4.309
 7180TIP3   OH221503   0.785   5.663   2.112
 7180TIP3    H121504   0.817   5.748   2.081
 7180TIP3    H221505   0.704   5.649   2.063
 7181TIP3   OH221506   3.711   1.788   1.245
 7181TIP3    H121507   3.705   1.693   1.253
 7181TIP3    H221508   3.721   1.804   1.151
 7182TIP3   OH221509   2.976   6.113   0.472
 7182TIP3    H121510   2.945   6.203   0.478
 7182TIP3    H221511   2.979   6.082   0.563
 7183TIP3   OH221512   5.073   4.017   4.799
 7183TIP3    H121513   4.998   3.959   4.787
 7183TIP3    H221514   5.092   4.012   4.893
 7184TIP3   OH221515   6.114   0.169   4.793
 7184TIP3    H121516   6.080   0.258   4.805
 7184TIP3    H221517   6.109   0.130   4.880
 7185TIP3   OH221518   1.192   2.572   3.285
 7185TIP3    H121519   1.194   2.582   3.190
 7185TIP3    H221520   1.105   2.603   3.310
 7186TIP3   OH221521   2.724   3.955   3.129
 7186TIP3    H121522   2.659   3.970   3.198
 7186TIP3    H221523   2.799   4.009   3.156
 7187TIP3   OH221524   3.989   0.736   4.278
 7187TIP3    H121525   3.927   0.692   4.220
 7187TIP3    H221526   4.075   0.709   4.245
 7188TIP3   OH221527   2.929   2.885   4.130
 7188TIP3    H121528   2.838   2.902   4.152
 7188TIP3    H221529   2.967   2.971   4.111
 7189TIP3   OH221530   2.930   5.727   4.587
 7189TIP3    H121531   3.020   5.697   4.575
 7189TIP3    H221532   2.877   5.662   4.541
 7190TIP3   OH221533   0.211   6.111   3.109
 7190TIP3    H121534   0.172   6.057   3.041
 7190TIP3    H221535   0.271   6.169   3.062
 7191TIP3   OH221536   1.313   4.603   5.842
 7191TIP3    H121537   1.371   4.607   5.765
 7191TIP3    H221538   1.367   4.564   5.910
 7192TIP3   OH221539   2.787   5.399   2.515
 7192TIP3    H121540   2.811   5.458   2.586
 7192TIP3    H221541   2.845   5.323   2.526
 7193TIP3   OH221542   4.206   5.564   5.167
 7193TIP3    H121543   4.208   5.574   5.072
 7193TIP3    H221544   4.215   5.469   5.181
 7194TIP3   OH221545   0.567   3.552   4.160
 7194TIP3    H121546   0.620   3.475   4.139
 7194TIP3    H221547   0.541   3.538   4.251
 7195TIP3   OH221548   5.279   4.239   3.419
 7195TIP3    H121549   5.241   4.327   3.420
 7195TIP3    H221550   5.355   4.246   3.477
 7196TIP3   OH221551   0.078   0.660   1.047
 7196TIP3    H121552   0.051   0.569   1.061
 7196TIP3    H221553   0.113   0.661   0.958
 7197TIP3   OH221554   5.190   2.687   2.479
 7197TIP3    H121555   5.102   2.682   2.517
 7197TIP3    H221556   5.218   2.778   2.494
 7198TIP3   OH221557   4.614   5.038   5.806
 7198TIP3    H121558   4.564   5.071   5.731
 7198TIP3    H221559   4.552   5.042   5.879
 7199TIP3   OH221560   0.825   4.617   4.571
 7199TIP3    H121561   0.852   4.707   4.591
 7199TIP3    H221562   0.814   4.616   4.476
 7200TIP3   OH221563   0.568   2.240   4.404
 7200TIP3    H121564   0.559   2.251   4.309
 7200TIP3    H221565   0.485   2.272   4.439
 7201TIP3   OH221566   2.044   5.101   4.213
 7201TIP3    H121567   2.060   5.183   4.166
 7201TIP3    H221568   2.063   5.121   4.304
 7202TIP3   OH221569   2.301   6.598   2.711
 7202TIP3    H121570   2.239   6.530   2.682
 7202TIP3    H221571   2.306   6.587   2.806
 7203TIP3   OH221572   2.642   5.593   2.314
 7203TIP3    H121573   2.692   5.620   2.391
 7203TIP3    H221574   2.622   5.501   2.329
 7204TIP3   OH221575   2.655   0.874   3.137
 7204TIP3    H121576   2.737   0.892   3.183
 7204TIP3    H221577   2.592   0.933   3.177
 7205TIP3   OH221578   3.064   5.782   2.369
 7205TIP3    H121579   3.034   5.727   2.442
 7205TIP3    H221580   3.134   5.732   2.328
 7206TIP3   OH221581   3.081   0.450   1.949
 7206TIP3    H121582   3.059   0.525   1.893
 7206TIP3    H221583   3.071   0.374   1.893
 7207TIP3   OH221584   1.217   1.569   1.040
 7207TIP3    H121585   1.230   1.474   1.045
 7207TIP3    H221586   1.224   1.590   0.947
 7208TIP3   OH221587   3.623   3.472   3.349
 7208TIP3    H121588   3.577   3.417   3.413
 7208TIP3    H221589   3.592   3.561   3.366
 7209TIP3   OH221590   5.976   6.084   4.315
 7209TIP3    H121591   5.911   6.066   4.248
 7209TIP3    H221592   6.006   6.173   4.295
 7210TIP3   OH221593   6.157   0.939   1.958
 7210TIP3    H121594   6.109   1.022   1.962
 7210TIP3    H221595   6.091   0.872   1.978
 7211TIP3   OH221596   3.723   1.037   4.567
 7211TIP3    H121597   3.672   1.096   4.511
 7211TIP3    H221598   3.733   0.957   4.515
 7212TIP3   OH221599   2.399   5.168   4.341
 7212TIP3    H121600   2.421   5.218   4.419
 7212TIP3    H221601   2.384   5.235   4.274
 7213TIP3   OH221602   0.594   3.187   1.018
 7213TIP3    H121603   0.602   3.094   1.039
 7213TIP3    H221604   0.553   3.225   1.096
 7214TIP3   OH221605   0.981   0.978   1.895
 7214TIP3    H121606   1.056   0.928   1.928
 7214TIP3    H221607   0.929   0.914   1.847
 7215TIP3   OH221608   6.235   1.898   1.384
 7215TIP3    H121609   6.322   1.888   1.345
 7215TIP3    H221610   6.226   1.992   1.399
 7216TIP3   OH221611   5.163   4.504   1.094
 7216TIP3    H121612   5.182   4.597   1.082
 7216TIP3    H221613   5.069   4.497   1.074
 7217TIP3   OH221614   4.755   1.773   2.332
 7217TIP3    H121615   4.818   1.834   2.293
 7217TIP3    H221616   4.729   1.814   2.414
 7218TIP3   OH221617   5.235   0.697   1.206
 7218TIP3    H121618   5.238   0.677   1.299
 7218TIP3    H221619   5.282   0.780   1.197
 7219TIP3   OH221620   2.020   1.544   0.132
 7219TIP3    H121621   1.935   1.562   0.171
 7219TIP3    H221622   2.008   1.461   0.085
 7220TIP3   OH221623   4.502   2.594   5.847
 7220TIP3    H121624   4.455   2.619   5.767
 7220TIP3    H221625   4.592   2.624   5.831
 7221TIP3   OH221626   6.968   0.043   3.489
 7221TIP3    H121627   6.905   0.095   3.441
 7221TIP3    H221628   7.054   0.072   3.458
 7222TIP3   OH221629   4.660   1.548   5.486
 7222TIP3    H121630   4.617   1.503   5.413
 7222TIP3    H221631   4.748   1.510   5.489
 7223TIP3   OH221632   3.738   0.236   0.036
 7223TIP3    H121633   3.800   0.212  -0.032
 7223TIP3    H221634   3.725   0.330   0.025
 7224TIP3   OH221635   3.377   6.746   2.437
 7224TIP3    H121636   3.440   6.741   2.509
 7224TIP3    H221637   3.423   6.707   2.362
 7225TIP3   OH221638   5.046   0.259   4.166
 7225TIP3    H121639   5.112   0.327   4.151
 7225TIP3    H221640   5.070   0.188   4.106
 7226TIP3   OH221641   5.795   4.945   3.150
 7226TIP3    H121642   5.882   4.916   3.176
 7226TIP3    H221643   5.789   4.922   3.057
 7227TIP3   OH221644   3.966   3.921   5.741
 7227TIP3    H121645   3.954   3.827   5.729
 7227TIP3    H221646   3.895   3.948   5.799
 7228TIP3   OH221647   3.858   3.162   4.296
 7228TIP3    H121648   3.792   3.115   4.348
 7228TIP3    H221649   3.812   3.239   4.263
 7229TIP3   OH221650   0.051   0.357   1.530
 7229TIP3    H121651   0.124   0.410   1.561
 7229TIP3    H221652  -0.014   0.421   1.502
 7230TIP3   OH221653   6.112   0.909   0.321
 7230TIP3    H121654   6.081   0.914   0.231
 7230TIP3    H221655   6.169   0.832   0.323
 7231TIP3   OH221656   4.795   6.630   0.487
 7231TIP3    H121657   4.777   6.560   0.424
 7231TIP3    H221658   4.840   6.587   0.559
 7232TIP3   OH221659   2.226   6.292   3.907
 7232TIP3    H121660   2.270   6.363   3.860
 7232TIP3    H221661   2.133   6.309   3.895
 7233TIP3   OH221662   3.701   6.796   3.033
 7233TIP3    H121663   3.662   6.721   2.988
 7233TIP3    H221664   3.712   6.767   3.124
 7234TIP3   OH221665   6.073   5.730   3.432
 7234TIP3    H121666   6.137   5.659   3.422
 7234TIP3    H221667   5.988   5.686   3.434
 7235TIP3   OH221668   7.056   5.783   4.419
 7235TIP3    H121669   7.080   5.806   4.329
 7235TIP3    H221670   7.007   5.859   4.450
 7236TIP3   OH221671   4.858   3.973   2.337
 7236TIP3    H121672   4.939   3.940   2.376
 7236TIP3    H221673   4.824   4.035   2.401
 7237TIP3   OH221674   0.917   5.282   4.780
 7237TIP3    H121675   0.885   5.197   4.811
 7237TIP3    H221676   0.843   5.341   4.795
 7238TIP3   OH221677   1.997   6.338   2.853
 7238TIP3    H121678   2.028   6.267   2.910
 7238TIP3    H221679   1.904   6.319   2.840
 7239TIP3   OH221680   5.337   3.177   4.726
 7239TIP3    H121681   5.404   3.197   4.661
 7239TIP3    H221682   5.375   3.201   4.810
 7240TIP3   OH221683   3.948   0.705   1.772
 7240TIP3    H121684   3.894   0.773   1.811
 7240TIP3    H221685   3.963   0.643   1.843
 7241TIP3   OH221686   5.102   4.489   3.480
 7241TIP3    H121687   5.013   4.500   3.445
 7241TIP3    H221688   5.111   4.560   3.544
 7242TIP3   OH221689   6.127   3.587   0.842
 7242TIP3    H121690   6.055   3.649   0.858
 7242TIP3    H221691   6.175   3.584   0.925
 7243TIP3   OH221692   4.720   5.831   4.019
 7243TIP3    H121693   4.782   5.758   4.015
 7243TIP3    H221694   4.748   5.882   4.095
 7244TIP3   OH221695   3.118   1.103   0.948
 7244TIP3    H121696   3.124   1.153   0.867
 7244TIP3    H221697   3.170   1.024   0.931
 7245TIP3   OH221698   6.757   4.306   3.936
 7245TIP3    H121699   6.818   4.247   3.980
 7245TIP3    H221700   6.774   4.392   3.974
 7246TIP3   OH221701   5.789   0.591   3.787
 7246TIP3    H121702   5.777   0.612   3.694
 7246TIP3    H221703   5.846   0.514   3.787
 7247TIP3   OH221704  -0.044   3.283   1.961
 7247TIP3    H121705  -0.021   3.229   2.037
 7247TIP3    H221706  -0.062   3.220   1.891
 7248TIP3   OH221707   4.943   1.178   2.913
 7248TIP3    H121708   4.932   1.137   2.827
 7248TIP3    H221709   4.929   1.107   2.976
 7249TIP3   OH221710   1.590   6.619   1.556
 7249TIP3    H121711   1.676   6.658   1.573
 7249TIP3    H221712   1.591   6.597   1.463
 7250TIP3   OH221713   1.847   6.699   0.810
 7250TIP3    H121714   1.776   6.635   0.806
 7250TIP3    H221715   1.839   6.747   0.727
 7251TIP3   OH221716   1.943   2.919   1.117
 7251TIP3    H121717   1.903   3.005   1.133
 7251TIP3    H221718   2.020   2.918   1.174
 7252TIP3   OH221719   7.141   2.827   5.018
 7252TIP3    H121720   7.173   2.913   4.991
 7252TIP3    H221721   7.052   2.822   4.983
 7253TIP3   OH221722   1.118   3.346   4.833
 7253TIP3    H121723   1.025   3.330   4.849
 7253TIP3    H221724   1.159   3.335   4.918
 7254TIP3   OH221725   6.774   6.111   0.728
 7254TIP3    H121726   6.753   6.067   0.811
 7254TIP3    H221727   6.747   6.202   0.742
 7255TIP3   OH221728   0.238   5.529   4.132
 7255TIP3    H121729   0.190   5.519   4.214
 7255TIP3    H221730   0.177   5.574   4.073
 7256TIP3   OH221731   0.612   4.265   0.119
 7256TIP3    H121732   0.570   4.183   0.141
 7256TIP3    H221733   0.586   4.281   0.028
 7257TIP3   OH221734   7.171   1.873   2.882
 7257TIP3    H121735   7.185   1.779   2.897
 7257TIP3    H221736   7.231   1.916   2.942
 7258TIP3   OH221737   0.551   0.611   4.192
 7258TIP3    H121738   0.544   0.539   4.130
 7258TIP3    H221739   0.510   0.577   4.272
 7259TIP3   OH221740   4.365   6.127   0.677
 7259TIP3    H121741   4.384   6.220   0.689
 7259TIP3    H221742   4.270   6.121   0.678
 7260TIP3   OH221743   5.823   1.821   5.630
 7260TIP3    H121744   5.742   1.770   5.628
 7260TIP3    H221745   5.817   1.880   5.555
 7261TIP3   OH221746   4.723   0.470   1.844
 7261TIP3    H121747   4.664   0.538   1.877
 7261TIP3    H221748   4.808   0.513   1.837
 7262TIP3   OH221749   3.036   2.197   5.594
 7262TIP3    H121750   3.021   2.129   5.528
 7262TIP3    H221751   3.066   2.273   5.544
 7263TIP3   OH221752   2.540   5.542   0.739
 7263TIP3    H121753   2.530   5.637   0.733
 7263TIP3    H221754   2.450   5.508   0.737
 7264TIP3   OH221755   1.273   5.134   4.185
 7264TIP3    H121756   1.252   5.041   4.192
 7264TIP3    H221757   1.363   5.140   4.218
 7265TIP3   OH221758   0.877   5.854   0.190
 7265TIP3    H121759   0.871   5.761   0.212
 7265TIP3    H221760   0.926   5.856   0.108
 7266TIP3   OH221761   3.392   1.437   0.184
 7266TIP3    H121762   3.327   1.488   0.231
 7266TIP3    H221763   3.341   1.377   0.130
 7267TIP3   OH221764   5.855   4.892   5.358
 7267TIP3    H121765   5.923   4.837   5.397
 7267TIP3    H221766   5.848   4.861   5.268
 7268TIP3   OH221767   3.721   3.230   1.022
 7268TIP3    H121768   3.657   3.281   1.072
 7268TIP3    H221769   3.726   3.146   1.069
 7269TIP3   OH221770   3.739   3.605   0.668
 7269TIP3    H121771   3.753   3.633   0.759
 7269TIP3    H221772   3.700   3.518   0.676
 7270TIP3   OH221773   4.580   1.593   4.573
 7270TIP3    H121774   4.524   1.662   4.611
 7270TIP3    H221775   4.622   1.636   4.498
 7271TIP3   OH221776   5.773   2.121   1.011
 7271TIP3    H121777   5.855   2.119   0.961
 7271TIP3    H221778   5.801   2.112   1.102
 7272TIP3   OH221779   6.849   1.801   0.685
 7272TIP3    H121780   6.878   1.877   0.736
 7272TIP3    H221781   6.886   1.816   0.598
 7273TIP3   OH221782   6.008   3.694   4.617
 7273TIP3    H121783   5.913   3.688   4.608
 7273TIP3    H221784   6.032   3.772   4.567
 7274TIP3   OH221785   0.353   1.139   1.961
 7274TIP3    H121786   0.272   1.132   1.912
 7274TIP3    H221787   0.421   1.108   1.901
 7275TIP3   OH221788   6.445   5.687   4.380
 7275TIP3    H121789   6.373   5.735   4.420
 7275TIP3    H221790   6.431   5.596   4.407
 7276TIP3   OH221791   6.322   3.898   3.799
 7276TIP3    H121792   6.372   3.891   3.881
 7276TIP3    H221793   6.382   3.940   3.738
 7277TIP3   OH221794   6.125   4.199   0.289
 7277TIP3    H121795   6.072   4.265   0.244
 7277TIP3    H221796   6.183   4.165   0.221
 7278TIP3   OH221797   5.145   1.501   4.285
 7278TIP3    H121798   5.197   1.445   4.344
 7278TIP3    H221799   5.068   1.524   4.336
 7279TIP3   OH221800   0.828   1.469   1.206
 7279TIP3    H121801   0.883   1.540   1.173
 7279TIP3    H221802   0.796   1.424   1.128
 7280TIP3   OH221803   1.571   2.320   3.800
 7280TIP3    H121804   1.610   2.263   3.733
 7280TIP3    H221805   1.625   2.399   3.797
 7281TIP3   OH221806   3.751   1.096   3.026
 7281TIP3    H121807   3.735   1.032   2.957
 7281TIP3    H221808   3.838   1.073   3.060
 7282TIP3   OH221809   3.534   4.206   0.193
 7282TIP3    H121810   3.463   4.228   0.134
 7282TIP3    H221811   3.540   4.110   0.189
 7283TIP3   OH221812   0.129   3.542   1.396
 7283TIP3    H121813   0.206   3.498   1.432
 7283TIP3    H221814   0.057   3.519   1.455
 7284TIP3   OH221815   2.196   4.726   0.677
 7284TIP3    H121816   2.249   4.655   0.714
 7284TIP3    H221817   2.258   4.797   0.660
 7285TIP3   OH221818   0.175   3.204   2.527
 7285TIP3    H121819   0.107   3.264   2.497
 7285TIP3    H221820   0.257   3.252   2.516
 7286TIP3   OH221821   6.605   5.600   1.581
 7286TIP3    H121822   6.630   5.511   1.603
 7286TIP3    H221823   6.548   5.591   1.505
 7287TIP3   OH221824   7.063   4.371   1.853
 7287TIP3    H121825   7.116   4.291   1.845
 7287TIP3    H221826   7.090   4.409   1.937
 7288TIP3   OH221827   5.485   0.512   4.997
 7288TIP3    H121828   5.389   0.506   5.001
 7288TIP3    H221829   5.516   0.427   5.027
 7289TIP3   OH221830   3.209   5.600   0.732
 7289TIP3    H121831   3.222   5.695   0.722
 7289TIP3    H221832   3.130   5.581   0.683
 7290TIP3   OH221833   6.985   3.495   1.923
 7290TIP3    H121834   6.945   3.447   1.850
 7290TIP3    H221835   7.055   3.437   1.954
 7291TIP3   OH221836   1.350   3.642   0.267
 7291TIP3    H121837   1.272   3.604   0.306
 7291TIP3    H221838   1.379   3.708   0.330
 7292TIP3   OH221839   4.943   0.777   5.370
 7292TIP3    H121840   4.948   0.869   5.346
 7292TIP3    H221841   4.890   0.777   5.450
 7293TIP3   OH221842   6.678   2.831   2.292
 7293TIP3    H121843   6.621   2.768   2.247
 7293TIP3    H221844   6.619   2.877   2.353
 7294TIP3   OH221845   7.082   2.830   2.005
 7294TIP3    H121846   7.050   2.829   1.915
 7294TIP3    H221847   7.160   2.885   2.002
 7295TIP3   OH221848   4.072   5.416   3.947
 7295TIP3    H121849   4.045   5.506   3.965
 7295TIP3    H221850   4.125   5.423   3.867
 7296TIP3   OH221851   5.190   6.238   1.459
 7296TIP3    H121852   5.266   6.235   1.517
 7296TIP3    H221853   5.178   6.331   1.440
 7297TIP3   OH221854   3.071   3.419   1.481
 7297TIP3    H121855   3.028   3.489   1.531
 7297TIP3    H221856   3.023   3.340   1.505
 7298TIP3   OH221857   5.112   6.639   3.660
 7298TIP3    H121858   5.016   6.636   3.658
 7298TIP3    H221859   5.138   6.626   3.568
 7299TIP3   OH221860   1.337   2.587   0.837
 7299TIP3    H121861   1.258   2.578   0.783
 7299TIP3    H221862   1.346   2.682   0.849
 7300TIP3   OH221863   2.746   2.446   1.630
 7300TIP3    H121864   2.723   2.514   1.694
 7300TIP3    H221865   2.743   2.364   1.680
 7301TIP3   OH221866   1.898   3.151   3.804
 7301TIP3    H121867   1.956   3.075   3.811
 7301TIP3    H221868   1.868   3.166   3.894
 7302TIP3   OH221869   5.348   1.246   1.853
 7302TIP3    H121870   5.349   1.315   1.786
 7302TIP3    H221871   5.307   1.172   1.810
 7303TIP3   OH221872   5.374   5.282   4.749
 7303TIP3    H121873   5.312   5.351   4.726
 7303TIP3    H221874   5.407   5.250   4.665
 7304TIP3   OH221875   6.030   3.016   0.061
 7304TIP3    H121876   6.037   2.982   0.150
 7304TIP3    H221877   5.936   3.015   0.042
 7305TIP3   OH221878   0.616   5.870   0.418
 7305TIP3    H121879   0.579   5.885   0.505
 7305TIP3    H221880   0.700   5.827   0.435
 7306TIP3   OH221881   5.925   2.485   4.727
 7306TIP3    H121882   5.944   2.479   4.821
 7306TIP3    H221883   5.891   2.398   4.704
 7307TIP3   OH221884   6.097   2.512   1.587
 7307TIP3    H121885   6.086   2.534   1.679
 7307TIP3    H221886   6.013   2.476   1.561
 7308TIP3   OH221887   5.009   6.310   5.778
 7308TIP3    H121888   4.954   6.383   5.750
 7308TIP3    H221889   4.993   6.241   5.713
 7309TIP3   OH221890   3.545   1.459   4.047
 7309TIP3    H121891   3.557   1.439   3.954
 7309TIP3    H221892   3.557   1.375   4.091
 7310TIP3   OH221893   1.377   6.558   0.820
 7310TIP3    H121894   1.315   6.501   0.775
 7310TIP3    H221895   1.343   6.646   0.807
 7311TIP3   OH221896   5.578   1.824   1.164
 7311TIP3    H121897   5.662   1.833   1.120
 7311TIP3    H221898   5.514   1.857   1.101
 7312TIP3   OH221899   1.176   6.428   4.829
 7312TIP3    H121900   1.218   6.343   4.843
 7312TIP3    H221901   1.146   6.426   4.739
 7313TIP3   OH221902   4.207   1.354   0.892
 7313TIP3    H121903   4.115   1.354   0.864
 7313TIP3    H221904   4.225   1.446   0.913
 7314TIP3   OH221905   3.788   0.527   5.081
 7314TIP3    H121906   3.718   0.472   5.116
 7314TIP3    H221907   3.864   0.506   5.135
 7315TIP3   OH221908   2.982   4.132   3.970
 7315TIP3    H121909   2.893   4.150   3.939
 7315TIP3    H221910   2.971   4.062   4.034
 7316TIP3   OH221911   6.300   1.786   4.767
 7316TIP3    H121912   6.225   1.730   4.786
 7316TIP3    H221913   6.306   1.788   4.671
 7317TIP3   OH221914   2.656   4.645   2.455
 7317TIP3    H121915   2.589   4.587   2.419
 7317TIP3    H221916   2.739   4.609   2.425
 7318TIP3   OH221917   3.766   5.881   5.192
 7318TIP3    H121918   3.846   5.854   5.237
 7318TIP3    H221919   3.793   5.952   5.135
 7319TIP3   OH221920   6.083   5.378   4.562
 7319TIP3    H121921   6.008   5.319   4.571
 7319TIP3    H221922   6.146   5.345   4.625
 7320TIP3   OH221923   5.267   0.886   3.389
 7320TIP3    H121924   5.306   0.885   3.302
 7320TIP3    H221925   5.204   0.814   3.388
 7321TIP3   OH221926   3.627   3.610   2.606
 7321TIP3    H121927   3.703   3.663   2.631
 7321TIP3    H221928   3.605   3.640   2.518
 7322TIP3   OH221929   2.170   1.450   2.651
 7322TIP3    H121930   2.137   1.538   2.633
 7322TIP3    H221931   2.218   1.458   2.733
 7323TIP3   OH221932   1.184   3.017   4.192
 7323TIP3    H121933   1.188   2.983   4.103
 7323TIP3    H221934   1.240   2.959   4.243
 7324TIP3   OH221935   3.241   1.320   1.145
 7324TIP3    H121936   3.195   1.248   1.101
 7324TIP3    H221937   3.176   1.389   1.152
 7325TIP3   OH221938   0.899   5.576   0.356
 7325TIP3    H121939   0.804   5.568   0.344
 7325TIP3    H221940   0.920   5.515   0.426
 7326TIP3   OH221941   0.732   2.728   3.898
 7326TIP3    H121942   0.746   2.648   3.848
 7326TIP3    H221943   0.651   2.765   3.862
 7327TIP3   OH221944   3.143   6.867   1.738
 7327TIP3    H121945   3.154   6.772   1.740
 7327TIP3    H221946   3.226   6.901   1.770
 7328TIP3   OH221947   1.550   1.294   5.442
 7328TIP3    H121948   1.468   1.283   5.393
 7328TIP3    H221949   1.525   1.345   5.519
 7329TIP3   OH221950   3.325   2.724   1.353
 7329TIP3    H121951   3.310   2.679   1.270
 7329TIP3    H221952   3.316   2.817   1.331
 7330TIP3   OH221953   0.995   4.152   0.671
 7330TIP3    H121954   0.917   4.189   0.629
 7330TIP3    H221955   1.029   4.089   0.608
 7331TIP3   OH221956   4.686   1.921   0.305
 7331TIP3    H121957   4.736   1.869   0.368
 7331TIP3    H221958   4.715   2.011   0.319
 7332TIP3   OH221959   3.938   3.163   2.440
 7332TIP3    H121960   4.009   3.206   2.393
 7332TIP3    H221961   3.866   3.227   2.439
 7333TIP3   OH221962   2.337   2.638   2.838
 7333TIP3    H121963   2.431   2.627   2.827
 7333TIP3    H221964   2.326   2.648   2.933
 7334TIP3   OH221965   3.943   6.675   2.121
 7334TIP3    H121966   3.946   6.617   2.044
 7334TIP3    H221967   3.885   6.746   2.095
 7335TIP3   OH221968   1.612   0.472   2.070
 7335TIP3    H121969   1.576   0.535   2.133
 7335TIP3    H221970   1.547   0.468   2.000
 7336TIP3   OH221971   2.507   4.867   4.333
 7336TIP3    H121972   2.593   4.829   4.315
 7336TIP3    H221973   2.522   4.962   4.331
 7337TIP3   OH221974   4.097   3.515   3.149
 7337TIP3    H121975   4.083   3.422   3.166
 7337TIP3    H221976   4.030   3.538   3.085
 7338TIP3   OH221977   2.679   6.684   2.807
 7338TIP3    H121978   2.736   6.711   2.879
 7338TIP3    H221979   2.684   6.588   2.807
 7339TIP3   OH221980   6.065   3.385   4.561
 7339TIP3    H121981   6.125   3.458   4.546
 7339TIP3    H221982   6.051   3.385   4.656
 7340TIP3   OH221983   0.024   6.302   5.473
 7340TIP3    H121984   0.003   6.264   5.388
 7340TIP3    H221985   0.106   6.259   5.499
 7341TIP3   OH221986   5.837   6.494   2.259
 7341TIP3    H121987   5.823   6.402   2.284
 7341TIP3    H221988   5.756   6.538   2.285
 7342TIP3   OH221989   2.392   5.571   0.221
 7342TIP3    H121990   2.368   5.663   0.210
 7342TIP3    H221991   2.449   5.571   0.298
 7343TIP3   OH221992   5.435   4.694   0.828
 7343TIP3    H121993   5.438   4.767   0.766
 7343TIP3    H221994   5.433   4.736   0.914
 7344TIP3   OH221995   1.001   3.998   0.933
 7344TIP3    H121996   0.911   3.964   0.936
 7344TIP3    H221997   1.003   4.053   0.854
 7345TIP3   OH221998   7.040   3.098   4.636
 7345TIP3    H121999   6.982   3.026   4.661
 7345TIP3    H222000   7.107   3.057   4.581
 7346TIP3   OH222001   2.174   3.338   5.165
 7346TIP3    H122002   2.160   3.254   5.208
 7346TIP3    H222003   2.091   3.384   5.174
 7347TIP3   OH222004   4.893   3.502   0.986
 7347TIP3    H122005   4.900   3.583   1.037
 7347TIP3    H222006   4.984   3.474   0.974
 7348TIP3   OH222007   1.771   4.815   5.322
 7348TIP3    H122008   1.798   4.821   5.414
 7348TIP3    H222009   1.690   4.763   5.325
 7349TIP3   OH222010   3.516   4.486   5.265
 7349TIP3    H122011   3.485   4.502   5.354
 7349TIP3    H222012   3.464   4.412   5.235
 7350TIP3   OH222013   0.280   3.885   4.633
 7350TIP3    H122014   0.261   3.970   4.594
 7350TIP3    H222015   0.322   3.905   4.716
 7351TIP3   OH222016   2.417   5.919   4.290
 7351TIP3    H122017   2.466   5.871   4.223
 7351TIP3    H222018   2.479   5.985   4.322
 7352TIP3   OH222019   0.274   3.210   4.002
 7352TIP3    H122020   0.370   3.213   3.994
 7352TIP3    H222021   0.247   3.301   3.988
 7353TIP3   OH222022   4.322   6.410   0.687
 7353TIP3    H122023   4.288   6.432   0.600
 7353TIP3    H222024   4.374   6.486   0.712
 7354TIP3   OH222025   4.672   4.541   3.654
 7354TIP3    H122026   4.736   4.610   3.636
 7354TIP3    H222027   4.609   4.582   3.713
 7355TIP3   OH222028   1.392   3.273   1.056
 7355TIP3    H122029   1.453   3.279   0.982
 7355TIP3    H222030   1.436   3.320   1.127
 7356TIP3   OH222031   2.259   5.133   2.489
 7356TIP3    H122032   2.206   5.057   2.511
 7356TIP3    H222033   2.310   5.106   2.413
 7357TIP3   OH222034   4.733   0.211   5.140
 7357TIP3    H122035   4.741   0.304   5.158
 7357TIP3    H222036   4.822   0.177   5.149
 7358TIP3   OH222037   5.796   4.963   2.600
 7358TIP3    H122038   5.843   4.883   2.624
 7358TIP3    H222039   5.849   5.002   2.530
 7359TIP3   OH222040   4.165   1.507   2.885
 7359TIP3    H122041   4.174   1.560   2.964
 7359TIP3    H222042   4.137   1.422   2.916
 7360TIP3   OH222043   2.734   5.293   2.141
 7360TIP3    H122044   2.813   5.239   2.141
 7360TIP3    H222045   2.724   5.321   2.050
 7361TIP3   OH222046   6.500   4.554   1.940
 7361TIP3    H122047   6.421   4.601   1.914
 7361TIP3    H222048   6.469   4.469   1.973
 7362TIP3   OH222049   1.311   5.395   1.266
 7362TIP3    H122050   1.219   5.385   1.241
 7362TIP3    H222051   1.325   5.329   1.333
 7363TIP3   OH222052   0.291   3.432   1.914
 7363TIP3    H122053   0.260   3.375   1.985
 7363TIP3    H222054   0.362   3.483   1.954
 7364TIP3   OH222055   2.224   0.969   2.873
 7364TIP3    H122056   2.275   1.039   2.915
 7364TIP3    H222057   2.272   0.949   2.793
 7365TIP3   OH222058   2.186   3.588   0.469
 7365TIP3    H122059   2.197   3.680   0.492
 7365TIP3    H222060   2.091   3.573   0.472
 7366TIP3   OH222061   4.674   4.588   4.069
 7366TIP3    H122062   4.727   4.508   4.071
 7366TIP3    H222063   4.600   4.566   4.013
 7367TIP3   OH222064   3.816   6.367   5.576
 7367TIP3    H122065   3.755   6.339   5.644
 7367TIP3    H222066   3.789   6.320   5.497
 7368TIP3   OH222067   6.367   0.268   1.925
 7368TIP3    H122068   6.352   0.336   1.990
 7368TIP3    H222069   6.374   0.315   1.842
 7369TIP3   OH222070   2.116   3.871   5.275
 7369TIP3    H122071   2.124   3.785   5.318
 7369TIP3    H222072   2.086   3.850   5.186
 7370TIP3   OH222073   1.337   2.859   0.313
 7370TIP3    H122074   1.316   2.951   0.301
 7370TIP3    H222075   1.323   2.843   0.407
 7371TIP3   OH222076   3.802   4.400   1.231
 7371TIP3    H122077   3.810   4.401   1.136
 7371TIP3    H222078   3.783   4.491   1.255
 7372TIP3   OH222079   4.057   1.492   5.453
 7372TIP3    H122080   4.100   1.413   5.420
 7372TIP3    H222081   4.079   1.560   5.390
 7373TIP3   OH222082   2.705   3.121   0.441
 7373TIP3    H122083   2.627   3.067   0.429
 7373TIP3    H222084   2.764   3.067   0.493
 7374TIP3   OH222085   4.865   1.434   3.543
 7374TIP3    H122086   4.800   1.496   3.576
 7374TIP3    H222087   4.868   1.451   3.449
 7375TIP3   OH222088   4.747   5.433   1.524
 7375TIP3    H122089   4.806   5.361   1.501
 7375TIP3    H222090   4.722   5.471   1.440
 7376TIP3   OH222091   0.512   2.185   2.996
 7376TIP3    H122092   0.577   2.132   3.043
 7376TIP3    H222093   0.516   2.271   3.038
 7377TIP3   OH222094   4.409   2.243   0.830
 7377TIP3    H122095   4.461   2.222   0.752
 7377TIP3    H222096   4.457   2.201   0.902
 7378TIP3   OH222097   2.463   5.629   5.669
 7378TIP3    H122098   2.376   5.657   5.698
 7378TIP3    H222099   2.474   5.542   5.707
 7379TIP3   OH222100   6.554   4.850   1.498
 7379TIP3    H122101   6.605   4.819   1.423
 7379TIP3    H222102   6.505   4.773   1.527
 7380TIP3   OH222103   2.931   0.343   3.868
 7380TIP3    H122104   2.987   0.280   3.822
 7380TIP3    H222105   2.882   0.289   3.931
 7381TIP3   OH222106   6.959   3.782   2.993
 7381TIP3    H122107   7.035   3.839   3.006
 7381TIP3    H222108   6.914   3.819   2.917
 7382TIP3   OH222109   5.171   0.120   1.517
 7382TIP3    H122110   5.255   0.104   1.561
 7382TIP3    H222111   5.194   0.170   1.439
 7383TIP3   OH222112   7.163   3.014   0.735
 7383TIP3    H122113   7.162   3.044   0.644
 7383TIP3    H222114   7.087   2.957   0.742
 7384TIP3   OH222115   1.494   1.906   1.905
 7384TIP3    H122116   1.568   1.847   1.919
 7384TIP3    H222117   1.512   1.981   1.962
 7385TIP3   OH222118   1.861   0.036   0.087
 7385TIP3    H122119   1.909   0.116   0.110
 7385TIP3    H222120   1.886   0.019  -0.004
 7386TIP3   OH222121   0.683   2.942   1.061
 7386TIP3    H122122   0.725   2.883   0.999
 7386TIP3    H222123   0.720   2.917   1.146
 7387TIP3   OH222124   5.642   5.287   2.770
 7387TIP3    H122125   5.580   5.360   2.768
 7387TIP3    H222126   5.612   5.233   2.843
 7388TIP3   OH222127   2.853   0.071   5.841
 7388TIP3    H122128   2.814   0.122   5.771
 7388TIP3    H222129   2.793  -0.003   5.855
 7389TIP3   OH222130   4.698   6.127   0.243
 7389TIP3    H122131   4.632   6.121   0.174
 7389TIP3    H222132   4.763   6.061   0.220
 7390TIP3   OH222133   2.438   3.038   1.242
 7390TIP3    H122134   2.351   3.017   1.209
 7390TIP3    H222135   2.430   3.035   1.337
 7391TIP3   OH222136   6.103   4.795   5.427
 7391TIP3    H122137   6.159   4.862   5.467
 7391TIP3    H222138   6.147   4.771   5.346
 7392TIP3   OH222139   3.744   2.601   4.383
 7392TIP3    H122140   3.687   2.635   4.315
 7392TIP3    H222141   3.687   2.547   4.438
 7393TIP3   OH222142   2.163   3.804   0.834
 7393TIP3    H122143   2.122   3.809   0.748
 7393TIP3    H222144   2.161   3.894   0.866
 7394TIP3   OH222145   6.498   0.359   5.190
 7394TIP3    H122146   6.569   0.325   5.244
 7394TIP3    H222147   6.521   0.334   5.101
 7395TIP3   OH222148   5.956   5.829   1.098
 7395TIP3    H122149   5.988   5.740   1.082
 7395TIP3    H222150   5.892   5.845   1.029
 7396TIP3   OH222151   3.759   3.516   1.857
 7396TIP3    H122152   3.756   3.535   1.764
 7396TIP3    H222153   3.821   3.579   1.893
 7397TIP3   OH222154   2.994   5.359   4.889
 7397TIP3    H122155   3.065   5.358   4.954
 7397TIP3    H222156   3.039   5.357   4.805
 7398TIP3   OH222157   2.776   3.878   4.292
 7398TIP3    H122158   2.768   3.787   4.262
 7398TIP3    H222159   2.730   3.929   4.225
 7399TIP3   OH222160   1.053   2.668   2.282
 7399TIP3    H122161   1.128   2.612   2.264
 7399TIP3    H222162   0.977   2.611   2.270
 7400TIP3   OH222163   1.606   1.045   2.927
 7400TIP3    H122164   1.673   1.113   2.919
 7400TIP3    H222165   1.529   1.090   2.961
 7401TIP3   OH222166   3.300   1.185   1.908
 7401TIP3    H122167   3.380   1.185   1.959
 7401TIP3    H222168   3.313   1.117   1.842
 7402TIP3   OH222169   1.920   6.457   4.486
 7402TIP3    H122170   1.879   6.529   4.438
 7402TIP3    H222171   1.945   6.394   4.418
 7403TIP3   OH222172   5.121   0.364   5.125
 7403TIP3    H122173   5.071   0.285   5.144
 7403TIP3    H222174   5.189   0.335   5.064
 7404TIP3   OH222175   5.887   0.221   2.156
 7404TIP3    H122176   5.946   0.279   2.109
 7404TIP3    H222177   5.937   0.192   2.232
 7405TIP3   OH222178   4.317   1.189   1.848
 7405TIP3    H122179   4.388   1.133   1.818
 7405TIP3    H222180   4.270   1.135   1.912
 7406TIP3   OH222181   1.943   6.151   3.721
 7406TIP3    H122182   1.950   6.231   3.773
 7406TIP3    H222183   1.870   6.167   3.662
 7407TIP3   OH222184   4.724   0.178   3.979
 7407TIP3    H122185   4.730   0.095   4.026
 7407TIP3    H222186   4.631   0.202   3.985
 7408TIP3   OH222187   5.595   6.179   1.361
 7408TIP3    H122188   5.625   6.268   1.346
 7408TIP3    H222189   5.673   6.132   1.390
 7409TIP3   OH222190   1.620   2.048   2.720
 7409TIP3    H122191   1.621   1.964   2.674
 7409TIP3    H222192   1.713   2.066   2.737
 7410TIP3   OH222193   3.643   0.666   2.218
 7410TIP3    H122194   3.669   0.706   2.135
 7410TIP3    H222195   3.622   0.741   2.274
 7411TIP3   OH222196   2.318   4.843   1.784
 7411TIP3    H122197   2.302   4.887   1.700
 7411TIP3    H222198   2.255   4.771   1.786
 7412TIP3   OH222199   2.562   4.925   1.476
 7412TIP3    H122200   2.555   4.988   1.548
 7412TIP3    H222201   2.523   4.845   1.511
 7413TIP3   OH222202   5.722   2.886   0.436
 7413TIP3    H122203   5.677   2.833   0.370
 7413TIP3    H222204   5.652   2.935   0.480
 7414TIP3   OH222205   0.228   2.867   5.188
 7414TIP3    H122206   0.178   2.943   5.217
 7414TIP3    H222207   0.195   2.795   5.242
 7415TIP3   OH222208   1.816   4.481   5.282
 7415TIP3    H122209   1.812   4.519   5.194
 7415TIP3    H222210   1.772   4.397   5.274
 7416TIP3   OH222211   2.645   1.937   2.487
 7416TIP3    H122212   2.631   1.873   2.557
 7416TIP3    H222213   2.625   1.888   2.407
 7417TIP3   OH222214   5.593   6.568   2.369
 7417TIP3    H122215   5.524   6.634   2.364
 7417TIP3    H222216   5.647   6.596   2.443
 7418TIP3   OH222217   1.616   3.647   2.969
 7418TIP3    H122218   1.695   3.593   2.975
 7418TIP3    H222219   1.549   3.596   3.014
 7419TIP3   OH222220   1.838   3.377   5.800
 7419TIP3    H122221   1.786   3.446   5.840
 7419TIP3    H222222   1.775   3.327   5.748
 7420TIP3   OH222223   3.452   0.205   0.703
 7420TIP3    H122224   3.384   0.214   0.769
 7420TIP3    H222225   3.528   0.249   0.741
 7421TIP3   OH222226   0.369   4.349   1.940
 7421TIP3    H122227   0.338   4.358   1.850
 7421TIP3    H222228   0.464   4.340   1.931
 7422TIP3   OH222229   5.000   1.614   3.886
 7422TIP3    H122230   5.089   1.587   3.908
 7422TIP3    H222231   4.949   1.533   3.888
 7423TIP3   OH222232   0.808   0.889   1.149
 7423TIP3    H122233   0.838   0.839   1.073
 7423TIP3    H222234   0.845   0.843   1.224
 7424TIP3   OH222235   3.576   1.227   4.431
 7424TIP3    H122236   3.531   1.182   4.360
 7424TIP3    H222237   3.632   1.291   4.387
 7425TIP3   OH222238   6.388   0.307   5.731
 7425TIP3    H122239   6.297   0.287   5.710
 7425TIP3    H222240   6.437   0.277   5.654
 7426TIP3   OH222241   7.175   1.457   3.177
 7426TIP3    H122242   7.188   1.386   3.240
 7426TIP3    H222243   7.098   1.504   3.211
 7427TIP3   OH222244   2.953   6.546   3.564
 7427TIP3    H122245   2.911   6.467   3.598
 7427TIP3    H222246   3.044   6.519   3.546
 7428TIP3   OH222247   2.300   5.089   3.898
 7428TIP3    H122248   2.332   5.136   3.820
 7428TIP3    H222249   2.218   5.133   3.920
 7429TIP3   OH222250   2.799   6.595   0.907
 7429TIP3    H122251   2.748   6.633   0.835
 7429TIP3    H222252   2.869   6.546   0.863
 7430TIP3   OH222253   3.898   0.795   2.442
 7430TIP3    H122254   3.980   0.833   2.410
 7430TIP3    H222255   3.831   0.855   2.411
 7431TIP3   OH222256   0.799   0.290   1.883
 7431TIP3    H122257   0.715   0.254   1.911
 7431TIP3    H222258   0.862   0.220   1.898
 7432TIP3   OH222259   4.708   0.111   1.232
 7432TIP3    H122260   4.803   0.103   1.241
 7432TIP3    H222261   4.694   0.123   1.138
 7433TIP3   OH222262   1.940   0.289   2.685
 7433TIP3    H122263   1.917   0.200   2.710
 7433TIP3    H222264   1.888   0.306   2.606
 7434TIP3   OH222265   1.587   3.529   2.285
 7434TIP3    H122266   1.664   3.472   2.276
 7434TIP3    H222267   1.520   3.473   2.323
 7435TIP3   OH222268   6.843   6.025   1.017
 7435TIP3    H122269   6.919   6.006   1.073
 7435TIP3    H222270   6.768   6.000   1.071
 7436TIP3   OH222271   4.923   5.423   1.228
 7436TIP3    H122272   4.838   5.410   1.185
 7436TIP3    H222273   4.985   5.432   1.156
 7437TIP3   OH222274   3.473   3.187   1.527
 7437TIP3    H122275   3.429   3.259   1.573
 7437TIP3    H222276   3.520   3.141   1.597
 7438TIP3   OH222277   4.013   2.698   3.573
 7438TIP3    H122278   4.099   2.737   3.588
 7438TIP3    H222279   3.995   2.712   3.480
 7439TIP3   OH222280   3.246   6.615   0.773
 7439TIP3    H122281   3.300   6.551   0.727
 7439TIP3    H222282   3.228   6.682   0.708
 7440TIP3   OH222283   0.898   0.738   1.357
 7440TIP3    H122284   0.810   0.724   1.394
 7440TIP3    H222285   0.957   0.706   1.425
 7441TIP3   OH222286   2.613   2.129   3.048
 7441TIP3    H122287   2.703   2.122   3.017
 7441TIP3    H222288   2.592   2.222   3.042
 7442TIP3   OH222289   0.356   0.093   0.482
 7442TIP3    H122290   0.393   0.159   0.424
 7442TIP3    H222291   0.432   0.041   0.510
 7443TIP3   OH222292   4.208   3.850   0.333
 7443TIP3    H122293   4.208   3.787   0.405
 7443TIP3    H222294   4.139   3.820   0.274
 7444TIP3   OH222295   6.380   4.886   3.050
 7444TIP3    H122296   6.381   4.847   2.963
 7444TIP3    H222297   6.406   4.815   3.109
 7445TIP3   OH222298   1.435   1.920   4.472
 7445TIP3    H122299   1.400   1.832   4.457
 7445TIP3    H222300   1.399   1.972   4.400
 7446TIP3   OH222301   4.799   0.793   1.186
 7446TIP3    H122302   4.886   0.801   1.146
 7446TIP3    H222303   4.784   0.699   1.191
 7447TIP3   OH222304   4.022   1.518   3.331
 7447TIP3    H122305   3.941   1.564   3.310
 7447TIP3    H222306   4.008   1.430   3.295
 7448TIP3   OH222307   0.850   1.218   5.132
 7448TIP3    H122308   0.927   1.252   5.087
 7448TIP3    H222309   0.776   1.254   5.083
 7449TIP3   OH222310   6.426   2.653   2.666
 7449TIP3    H122311   6.443   2.687   2.754
 7449TIP3    H222312   6.396   2.729   2.617
 7450TIP3   OH222313   5.639   5.485   3.585
 7450TIP3    H122314   5.639   5.424   3.659
 7450TIP3    H222315   5.547   5.490   3.558
 7451TIP3   OH222316   1.898   1.285   5.479
 7451TIP3    H122317   1.835   1.312   5.546
 7451TIP3    H222318   1.877   1.193   5.463
 7452TIP3   OH222319   6.100   1.811   2.109
 7452TIP3    H122320   6.007   1.788   2.117
 7452TIP3    H222321   6.115   1.876   2.178
 7453TIP3   OH222322   1.055   6.592   3.042
 7453TIP3    H122323   1.092   6.586   3.130
 7453TIP3    H222324   0.984   6.656   3.051
 7454TIP3   OH222325   3.991   1.250   3.265
 7454TIP3    H122326   3.949   1.164   3.278
 7454TIP3    H222327   4.083   1.234   3.284
 7455TIP3   OH222328   0.767   0.936   4.061
 7455TIP3    H122329   0.789   0.871   4.128
 7455TIP3    H222330   0.812   0.905   3.983
 7456TIP3   OH222331   1.485   6.657   4.084
 7456TIP3    H122332   1.470   6.603   4.007
 7456TIP3    H222333   1.580   6.660   4.093
 7457TIP3   OH222334   4.083   3.539   4.709
 7457TIP3    H122335   4.038   3.597   4.647
 7457TIP3    H222336   4.162   3.587   4.732
 7458TIP3   OH222337   0.123   1.139   4.289
 7458TIP3    H122338   0.178   1.107   4.218
 7458TIP3    H222339   0.034   1.109   4.267
 7459TIP3   OH222340   3.362   5.688   0.122
 7459TIP3    H122341   3.420   5.761   0.143
 7459TIP3    H222342   3.308   5.720   0.049
 7460TIP3   OH222343   7.079   2.035   5.044
 7460TIP3    H122344   7.126   2.087   4.979
 7460TIP3    H222345   7.092   1.945   5.017
 7461TIP3   OH222346   3.548   2.637   2.507
 7461TIP3    H122347   3.462   2.664   2.473
 7461TIP3    H222348   3.593   2.720   2.527
 7462TIP3   OH222349   6.238   0.246   0.344
 7462TIP3    H122350   6.305   0.315   0.338
 7462TIP3    H222351   6.236   0.224   0.437
 7463TIP3   OH222352   2.174   6.047   4.077
 7463TIP3    H122353   2.084   6.067   4.054
 7463TIP3    H222354   2.226   6.087   4.007
 7464TIP3   OH222355   6.515   1.861   0.660
 7464TIP3    H122356   6.430   1.872   0.616
 7464TIP3    H222357   6.575   1.836   0.589
 7465TIP3   OH222358   1.340   6.777   5.701
 7465TIP3    H122359   1.434   6.757   5.705
 7465TIP3    H222360   1.301   6.719   5.765
 7466TIP3   OH222361   7.164   5.467   1.576
 7466TIP3    H122362   7.259   5.470   1.568
 7466TIP3    H222363   7.147   5.493   1.667
 7467TIP3   OH222364   4.399   1.879   2.158
 7467TIP3    H122365   4.322   1.936   2.162
 7467TIP3    H222366   4.397   1.843   2.069
 7468TIP3   OH222367   6.690   3.153   2.324
 7468TIP3    H122368   6.699   3.103   2.242
 7468TIP3    H222369   6.765   3.125   2.377
 7469TIP3   OH222370   6.099   1.892   5.154
 7469TIP3    H122371   6.114   1.908   5.061
 7469TIP3    H222372   6.097   1.979   5.194
 7470TIP3   OH222373   2.861   6.330   4.402
 7470TIP3    H122374   2.917   6.332   4.480
 7470TIP3    H222375   2.798   6.400   4.416
 7471TIP3   OH222376   2.036   6.318   1.987
 7471TIP3    H122377   1.958   6.267   1.965
 7471TIP3    H222378   2.003   6.405   2.008
 7472TIP3   OH222379   2.621   3.974   0.817
 7472TIP3    H122380   2.647   3.984   0.908
 7472TIP3    H222381   2.679   4.033   0.768
 7473TIP3   OH222382   2.976   3.895   4.476
 7473TIP3    H122383   2.905   3.875   4.415
 7473TIP3    H222384   2.978   3.820   4.536
 7474TIP3   OH222385   2.715   4.493   3.020
 7474TIP3    H122386   2.670   4.521   2.940
 7474TIP3    H222387   2.747   4.405   3.000
 7475TIP3   OH222388   2.397   6.206   1.905
 7475TIP3    H122389   2.480   6.245   1.930
 7475TIP3    H222390   2.379   6.141   1.973
 7476TIP3   OH222391   5.900   1.426   5.362
 7476TIP3    H122392   5.816   1.422   5.408
 7476TIP3    H222393   5.914   1.519   5.344
 7477TIP3   OH222394   5.296   2.122   4.823
 7477TIP3    H122395   5.345   2.204   4.824
 7477TIP3    H222396   5.363   2.055   4.839
 7478TIP3   OH222397   0.910   4.931   1.923
 7478TIP3    H122398   0.936   5.021   1.943
 7478TIP3    H222399   0.820   4.924   1.953
 7479TIP3   OH222400   0.624   5.601   0.374
 7479TIP3    H122401   0.579   5.531   0.327
 7479TIP3    H222402   0.565   5.676   0.369
 7480TIP3   OH222403   4.077   6.107   0.682
 7480TIP3    H122404   4.102   6.037   0.622
 7480TIP3    H222405   3.984   6.122   0.664
 7481TIP3   OH222406   5.396   0.838   2.295
 7481TIP3    H122407   5.409   0.763   2.352
 7481TIP3    H222408   5.337   0.895   2.344
 7482TIP3   OH222409   2.166   4.084   3.035
 7482TIP3    H122410   2.225   4.057   2.965
 7482TIP3    H222411   2.167   4.180   3.032
 7483TIP3   OH222412   2.149   3.688   2.381
 7483TIP3    H122413   2.107   3.771   2.403
 7483TIP3    H222414   2.242   3.709   2.377
 7484TIP3   OH222415   1.360   2.651   2.629
 7484TIP3    H122416   1.421   2.725   2.640
 7484TIP3    H222417   1.275   2.686   2.655
 7485TIP3   OH222418   4.800   4.675   1.082
 7485TIP3    H122419   4.760   4.642   1.163
 7485TIP3    H222420   4.840   4.598   1.042
 7486TIP3   OH222421   4.717   5.179   2.335
 7486TIP3    H122422   4.679   5.109   2.282
 7486TIP3    H222423   4.671   5.258   2.307
 7487TIP3   OH222424   5.488   2.333   4.836
 7487TIP3    H122425   5.534   2.411   4.866
 7487TIP3    H222426   5.522   2.315   4.749
 7488TIP3   OH222427   0.131   5.079   1.682
 7488TIP3    H122428   0.118   5.142   1.611
 7488TIP3    H222429   0.045   5.039   1.695
 7489TIP3   OH222430   4.753   2.250   5.268
 7489TIP3    H122431   4.657   2.250   5.271
 7489TIP3    H222432   4.776   2.320   5.207
 7490TIP3   OH222433   3.425   4.811   4.780
 7490TIP3    H122434   3.494   4.828   4.716
 7490TIP3    H222435   3.459   4.738   4.832
 7491TIP3   OH222436  -0.015   4.226   0.253
 7491TIP3    H122437   0.056   4.170   0.224
 7491TIP3    H222438   0.022   4.275   0.327
 7492TIP3   OH222439   6.072   6.007   1.994
 7492TIP3    H122440   6.082   6.006   1.899
 7492TIP3    H222441   6.161   5.997   2.028
 7493TIP3   OH222442   4.844   0.360   0.606
 7493TIP3    H122443   4.778   0.397   0.665
 7493TIP3    H222444   4.924   0.409   0.626
 7494TIP3   OH222445   1.337   6.670   5.362
 7494TIP3    H122446   1.258   6.698   5.408
 7494TIP3    H222447   1.332   6.713   5.277
 7495TIP3   OH222448   2.090   1.052   0.115
 7495TIP3    H122449   2.016   1.042   0.175
 7495TIP3    H222450   2.069   0.996   0.041
 7496TIP3   OH222451   0.159   4.570   1.135
 7496TIP3    H122452   0.080   4.622   1.118
 7496TIP3    H222453   0.188   4.599   1.222
 7497TIP3   OH222454   4.879   5.277   3.542
 7497TIP3    H122455   4.917   5.364   3.536
 7497TIP3    H222456   4.818   5.272   3.468
 7498TIP3   OH222457   3.167   1.859   5.512
 7498TIP3    H122458   3.205   1.828   5.594
 7498TIP3    H222459   3.191   1.952   5.508
 7499TIP3   OH222460   3.366   0.019   1.160
 7499TIP3    H122461   3.271   0.031   1.168
 7499TIP3    H222462   3.399   0.022   1.250
 7500TIP3   OH222463   1.189   3.595   5.631
 7500TIP3    H122464   1.139   3.556   5.703
 7500TIP3    H222465   1.158   3.549   5.553
 7501TIP3   OH222466   3.956   1.818   5.576
 7501TIP3    H122467   3.922   1.841   5.490
 7501TIP3    H222468   4.040   1.776   5.558
 7502TIP3   OH222469   6.937   3.211   1.454
 7502TIP3    H122470   6.924   3.193   1.547
 7502TIP3    H222471   6.848   3.213   1.417
 7503TIP3   OH222472   1.312   1.987   5.847
 7503TIP3    H122473   1.269   2.033   5.919
 7503TIP3    H222474   1.384   1.940   5.887
 7504TIP3   OH222475   2.877   5.969   0.061
 7504TIP3    H122476   2.859   6.027  -0.013
 7504TIP3    H222477   2.950   6.011   0.107
 7505TIP3   OH222478   6.198   3.918   1.950
 7505TIP3    H122479   6.114   3.961   1.962
 7505TIP3    H222480   6.251   3.982   1.903
 7506TIP3   OH222481   2.355   0.976   4.852
 7506TIP3    H122482   2.389   0.911   4.791
 7506TIP3    H222483   2.425   0.987   4.917
 7507TIP3   OH222484   4.777   5.920   4.879
 7507TIP3    H122485   4.725   5.910   4.799
 7507TIP3    H222486   4.714   5.948   4.945
 7508TIP3   OH222487   3.767   6.748   1.064
 7508TIP3    H122488   3.768   6.673   1.005
 7508TIP3    H222489   3.777   6.711   1.151
 7509TIP3   OH222490   5.369   1.243   0.609
 7509TIP3    H122491   5.376   1.161   0.659
 7509TIP3    H222492   5.447   1.243   0.553
 7510TIP3   OH222493   1.054   5.208   4.335
 7510TIP3    H122494   1.004   5.129   4.317
 7510TIP3    H222495   1.140   5.191   4.297
 7511TIP3   OH222496   0.450   2.669   1.551
 7511TIP3    H122497   0.366   2.642   1.586
 7511TIP3    H222498   0.499   2.701   1.628
 7512TIP3   OH222499   3.563   0.857   2.400
 7512TIP3    H122500   3.580   0.946   2.431
 7512TIP3    H222501   3.485   0.830   2.449
 7513TIP3   OH222502   2.138   3.656   5.466
 7513TIP3    H122503   2.119   3.564   5.484
 7513TIP3    H222504   2.224   3.671   5.505
 7514TIP3   OH222505   2.437   1.668   1.707
 7514TIP3    H122506   2.439   1.735   1.639
 7514TIP3    H222507   2.373   1.700   1.770
 7515TIP3   OH222508   6.234   4.507   0.350
 7515TIP3    H122509   6.193   4.422   0.336
 7515TIP3    H222510   6.210   4.558   0.272
 7516TIP3   OH222511   0.714   0.409   0.432
 7516TIP3    H122512   0.740   0.396   0.523
 7516TIP3    H222513   0.797   0.413   0.384
 7517TIP3   OH222514   5.636   2.668   5.373
 7517TIP3    H122515   5.583   2.607   5.321
 7517TIP3    H222516   5.689   2.612   5.430
 7518TIP3   OH222517   1.090   0.711   1.177
 7518TIP3    H122518   1.045   0.637   1.137
 7518TIP3    H222519   1.039   0.731   1.256
 7519TIP3   OH222520   6.213   0.515   5.931
 7519TIP3    H122521   6.159   0.443   5.899
 7519TIP3    H222522   6.229   0.494   6.023
 7520TIP3   OH222523   0.978   2.775   1.882
 7520TIP3    H122524   0.898   2.826   1.883
 7520TIP3    H222525   0.949   2.684   1.890
 7521TIP3   OH222526   4.952   4.779   0.790
 7521TIP3    H122527   4.989   4.696   0.820
 7521TIP3    H222528   4.885   4.755   0.726
 7522TIP3   OH222529   0.245   4.360   5.793
 7522TIP3    H122530   0.234   4.422   5.722
 7522TIP3    H222531   0.218   4.407   5.871
 7523TIP3   OH222532   3.070   1.470   0.931
 7523TIP3    H122533   3.138   1.532   0.959
 7523TIP3    H222534   3.012   1.463   1.007
 7524TIP3   OH222535   1.145   3.731   4.752
 7524TIP3    H122536   1.096   3.806   4.788
 7524TIP3    H222537   1.189   3.693   4.828
 7525TIP3   OH222538   6.972   1.018   3.777
 7525TIP3    H122539   6.997   1.104   3.810
 7525TIP3    H222540   6.940   0.971   3.853
 7526TIP3   OH222541   6.937   5.534   2.691
 7526TIP3    H122542   6.941   5.503   2.782
 7526TIP3    H222543   6.851   5.506   2.660
 7527TIP3   OH222544   0.547   0.836   1.049
 7527TIP3    H122545   0.551   0.907   0.984
 7527TIP3    H222546   0.614   0.859   1.114
 7528TIP3   OH222547   1.969   3.269   0.582
 7528TIP3    H122548   2.021   3.333   0.630
 7528TIP3    H222549   2.027   3.195   0.569
 7529TIP3   OH222550   6.671   1.585   0.578
 7529TIP3    H122551   6.608   1.539   0.635
 7529TIP3    H222552   6.704   1.656   0.633
 7530TIP3   OH222553   0.763   3.143   1.426
 7530TIP3    H122554   0.782   3.072   1.365
 7530TIP3    H222555   0.742   3.099   1.509
 7531TIP3   OH222556   1.606   2.816   2.701
 7531TIP3    H122557   1.587   2.865   2.621
 7531TIP3    H222558   1.675   2.867   2.744
 7532TIP3   OH222559   0.217   0.414   3.847
 7532TIP3    H122560   0.196   0.481   3.782
 7532TIP3    H222561   0.289   0.365   3.807
 7533TIP3   OH222562   3.582   0.840   3.320
 7533TIP3    H122563   3.505   0.871   3.273
 7533TIP3    H222564   3.635   0.797   3.253
 7534TIP3   OH222565   5.344   0.137   3.885
 7534TIP3    H122566   5.255   0.169   3.900
 7534TIP3    H222567   5.362   0.161   3.794
 7535TIP3   OH222568   0.874   4.912   3.921
 7535TIP3    H122569   0.844   5.002   3.931
 7535TIP3    H222570   0.931   4.914   3.844
 7536TIP3   OH222571   2.852   0.123   0.443
 7536TIP3    H122572   2.929   0.163   0.402
 7536TIP3    H222573   2.816   0.191   0.500
 7537TIP3   OH222574   2.251   0.314   4.497
 7537TIP3    H122575   2.253   0.325   4.592
 7537TIP3    H222576   2.164   0.345   4.471
 7538TIP3   OH222577   0.990   0.603   5.286
 7538TIP3    H122578   1.053   0.552   5.235
 7538TIP3    H222579   0.966   0.545   5.359
 7539TIP3   OH222580   0.746   3.856   0.925
 7539TIP3    H122581   0.684   3.897   0.864
 7539TIP3    H222582   0.701   3.777   0.955
 7540TIP3   OH222583   6.747   2.306   3.301
 7540TIP3    H122584   6.791   2.245   3.360
 7540TIP3    H222585   6.777   2.392   3.329
 7541TIP3   OH222586   6.139   2.223   1.406
 7541TIP3    H122587   6.105   2.198   1.491
 7541TIP3    H222588   6.096   2.307   1.387
 7542TIP3   OH222589   6.948   0.038   0.929
 7542TIP3    H122590   6.897   0.012   0.852
 7542TIP3    H222591   6.934   0.132   0.937
 7543TIP3   OH222592   2.565   5.448   3.176
 7543TIP3    H122593   2.568   5.364   3.222
 7543TIP3    H222594   2.492   5.495   3.216
 7544TIP3   OH222595   4.456   5.824   2.509
 7544TIP3    H122596   4.475   5.756   2.444
 7544TIP3    H222597   4.521   5.808   2.578
 7545TIP3   OH222598   1.937   5.613   5.054
 7545TIP3    H122599   1.860   5.666   5.033
 7545TIP3    H222600   2.010   5.675   5.046
 7546TIP3   OH222601   2.980   2.069   1.957
 7546TIP3    H122602   3.007   1.978   1.946
 7546TIP3    H222603   3.062   2.118   1.962
 7547TIP3   OH222604   6.625   2.652   4.296
 7547TIP3    H122605   6.645   2.648   4.389
 7547TIP3    H222606   6.646   2.565   4.263
 7548TIP3   OH222607   4.087   4.396   0.303
 7548TIP3    H122608   4.001   4.423   0.336
 7548TIP3    H222609   4.073   4.308   0.270
 7549TIP3   OH222610   0.947   1.490   1.836
 7549TIP3    H122611   0.854   1.501   1.816
 7549TIP3    H222612   0.957   1.396   1.853
 7550TIP3   OH222613   0.129   3.254   5.691
 7550TIP3    H122614   0.071   3.178   5.678
 7550TIP3    H222615   0.206   3.218   5.735
 7551TIP3   OH222616   0.822   3.829   4.809
 7551TIP3    H122617   0.742   3.784   4.783
 7551TIP3    H222618   0.809   3.919   4.779
 7552TIP3   OH222619   6.452   1.144   2.640
 7552TIP3    H122620   6.515   1.152   2.568
 7552TIP3    H222621   6.388   1.212   2.623
 7553TIP3   OH222622   0.283   4.273   4.520
 7553TIP3    H122623   0.188   4.279   4.508
 7553TIP3    H222624   0.308   4.192   4.475
 7554TIP3   OH222625   3.356   0.901   3.156
 7554TIP3    H122626   3.344   0.838   3.086
 7554TIP3    H222627   3.373   0.984   3.112
 7555TIP3   OH222628   3.892   5.592   4.652
 7555TIP3    H122629   3.885   5.503   4.618
 7555TIP3    H222630   3.899   5.580   4.747
 7556TIP3   OH222631   5.579   0.068   0.970
 7556TIP3    H122632   5.571   0.155   0.931
 7556TIP3    H222633   5.674   0.055   0.977
 7557TIP3   OH222634   1.096   5.388   5.380
 7557TIP3    H122635   1.029   5.321   5.391
 7557TIP3    H222636   1.085   5.418   5.290
 7558TIP3   OH222637   6.689   3.216   5.533
 7558TIP3    H122638   6.664   3.137   5.581
 7558TIP3    H222639   6.779   3.234   5.561
 7559TIP3   OH222640   4.153   4.964   4.994
 7559TIP3    H122641   4.074   5.003   5.030
 7559TIP3    H222642   4.127   4.875   4.969
 7560TIP3   OH222643   6.822   2.125   1.549
 7560TIP3    H122644   6.889   2.056   1.555
 7560TIP3    H222645   6.839   2.167   1.465
 7561TIP3   OH222646   1.763   4.536   0.049
 7561TIP3    H122647   1.829   4.578   0.105
 7561TIP3    H222648   1.751   4.597  -0.024
 7562TIP3   OH222649   1.819   0.130   1.255
 7562TIP3    H122650   1.763   0.053   1.252
 7562TIP3    H222651   1.789   0.185   1.183
 7563TIP3   OH222652   3.799   5.199   2.064
 7563TIP3    H122653   3.704   5.206   2.065
 7563TIP3    H222654   3.822   5.163   2.149
 7564TIP3   OH222655   2.357   3.986   1.830
 7564TIP3    H122656   2.351   3.946   1.743
 7564TIP3    H222657   2.356   3.912   1.891
 7565TIP3   OH222658   4.522   0.894   1.197
 7565TIP3    H122659   4.518   0.964   1.262
 7565TIP3    H222660   4.607   0.852   1.213
 7566TIP3   OH222661   0.578   5.794   5.500
 7566TIP3    H122662   0.658   5.815   5.549
 7566TIP3    H222663   0.532   5.730   5.555
 7567TIP3   OH222664   4.444   3.333   3.593
 7567TIP3    H122665   4.491   3.253   3.613
 7567TIP3    H222666   4.359   3.304   3.560
 7568TIP3   OH222667   4.226   4.161   3.853
 7568TIP3    H122668   4.194   4.158   3.943
 7568TIP3    H222669   4.260   4.073   3.836
 7569TIP3   OH222670   1.454   1.619   4.684
 7569TIP3    H122671   1.406   1.647   4.606
 7569TIP3    H222672   1.545   1.611   4.654
 7570TIP3   OH222673   2.642   3.392   3.145
 7570TIP3    H122674   2.710   3.359   3.087
 7570TIP3    H222675   2.654   3.344   3.227
 7571TIP3   OH222676   4.747   4.494   4.587
 7571TIP3    H122677   4.734   4.468   4.496
 7571TIP3    H222678   4.758   4.589   4.583
 7572TIP3   OH222679   3.186   5.864   0.632
 7572TIP3    H122680   3.113   5.858   0.570
 7572TIP3    H222681   3.249   5.922   0.589
 7573TIP3   OH222682   3.722   0.007   5.121
 7573TIP3    H122683   3.789   0.068   5.091
 7573TIP3    H222684   3.640   0.056   5.114
 7574TIP3   OH222685   3.224   3.651   4.037
 7574TIP3    H122686   3.263   3.635   4.123
 7574TIP3    H222687   3.134   3.619   4.044
 7575TIP3   OH222688   2.916   6.310   2.398
 7575TIP3    H122689   2.999   6.267   2.416
 7575TIP3    H222690   2.861   6.289   2.474
 7576TIP3   OH222691   0.470   5.747   3.520
 7576TIP3    H122692   0.440   5.738   3.610
 7576TIP3    H222693   0.488   5.657   3.492
 7577TIP3   OH222694   1.276   4.492   4.756
 7577TIP3    H122695   1.363   4.453   4.743
 7577TIP3    H222696   1.288   4.552   4.829
 7578TIP3   OH222697   1.801   5.822   1.494
 7578TIP3    H122698   1.830   5.802   1.584
 7578TIP3    H222699   1.708   5.843   1.504
 7579TIP3   OH222700   0.579   2.655   2.829
 7579TIP3    H122701   0.513   2.672   2.762
 7579TIP3    H222702   0.531   2.655   2.912
 7580TIP3   OH222703   6.530   1.748   0.128
 7580TIP3    H122704   6.592   1.808   0.087
 7580TIP3    H222705   6.480   1.802   0.188
 7581TIP3   OH222706   2.648   6.435   2.359
 7581TIP3    H122707   2.670   6.528   2.355
 7581TIP3    H222708   2.731   6.390   2.345
 7582TIP3   OH222709   5.682   2.955   1.019
 7582TIP3    H122710   5.610   3.012   0.994
 7582TIP3    H222711   5.662   2.928   1.109
 7583TIP3   OH222712   1.159   0.029   4.806
 7583TIP3    H122713   1.151  -0.066   4.814
 7583TIP3    H222714   1.085   0.063   4.857
 7584TIP3   OH222715   5.326   5.655   4.044
 7584TIP3    H122716   5.265   5.726   4.028
 7584TIP3    H222717   5.407   5.698   4.073
 7585TIP3   OH222718   2.997   2.697   2.709
 7585TIP3    H122719   2.946   2.617   2.694
 7585TIP3    H222720   3.061   2.672   2.775
 7586TIP3   OH222721   4.914   2.913   0.689
 7586TIP3    H122722   4.951   3.001   0.688
 7586TIP3    H222723   4.837   2.920   0.747
 7587TIP3   OH222724   3.913   4.502   0.064
 7587TIP3    H122725   3.909   4.513  -0.031
 7587TIP3    H222726   4.002   4.471   0.081
 7588TIP3   OH222727   3.180   3.329   5.783
 7588TIP3    H122728   3.155   3.328   5.691
 7588TIP3    H222729   3.215   3.242   5.799
 7589TIP3   OH222730   4.864   0.883   0.415
 7589TIP3    H122731   4.774   0.885   0.383
 7589TIP3    H222732   4.858   0.915   0.505
 7590TIP3   OH222733   6.425   6.577   5.630
 7590TIP3    H122734   6.464   6.491   5.642
 7590TIP3    H222735   6.350   6.562   5.572
 7591TIP3   OH222736   5.743   2.783   3.827
 7591TIP3    H122737   5.755   2.811   3.736
 7591TIP3    H222738   5.703   2.858   3.870
 7592TIP3   OH222739   0.960   4.979   2.707
 7592TIP3    H122740   0.866   4.997   2.702
 7592TIP3    H222741   1.001   5.065   2.699
 7593TIP3   OH222742   2.858   2.613   0.513
 7593TIP3    H122743   2.893   2.539   0.562
 7593TIP3    H222744   2.918   2.624   0.439
 7594TIP3   OH222745   5.811   2.472   5.513
 7594TIP3    H122746   5.769   2.394   5.548
 7594TIP3    H222747   5.857   2.510   5.588
 7595TIP3   OH222748   6.683   2.921   2.728
 7595TIP3    H122749   6.763   2.964   2.759
 7595TIP3    H222750   6.696   2.829   2.748
 7596TIP3   OH222751   2.892   0.438   0.825
 7596TIP3    H122752   2.845   0.436   0.741
 7596TIP3    H222753   2.847   0.373   0.879
 7597TIP3   OH222754   0.640   6.312   3.504
 7597TIP3    H122755   0.578   6.241   3.523
 7597TIP3    H222756   0.696   6.276   3.436
 7598TIP3   OH222757   6.774   6.670   1.539
 7598TIP3    H122758   6.749   6.702   1.452
 7598TIP3    H222759   6.694   6.673   1.590
 7599TIP3   OH222760   5.056   3.774   2.924
 7599TIP3    H122761   4.992   3.844   2.910
 7599TIP3    H222762   5.022   3.700   2.873
 7600TIP3   OH222763   0.312   5.516   1.836
 7600TIP3    H122764   0.234   5.533   1.889
 7600TIP3    H222765   0.316   5.420   1.829
 7601TIP3   OH222766   2.615   3.401   0.057
 7601TIP3    H122767   2.594   3.361   0.141
 7601TIP3    H222768   2.654   3.486   0.080
 7602TIP3   OH222769   5.737   1.545   1.364
 7602TIP3    H122770   5.794   1.502   1.300
 7602TIP3    H222771   5.789   1.617   1.398
 7603TIP3   OH222772   1.855   1.935   0.662
 7603TIP3    H122773   1.850   2.002   0.730
 7603TIP3    H222774   1.941   1.949   0.621
 7604TIP3   OH222775   2.732   2.608   2.300
 7604TIP3    H122776   2.725   2.647   2.387
 7604TIP3    H222777   2.649   2.563   2.287
 7605TIP3   OH222778   0.678   3.456   4.816
 7605TIP3    H122779   0.701   3.464   4.908
 7605TIP3    H222780   0.664   3.545   4.786
 7606TIP3   OH222781   3.017   0.785   1.462
 7606TIP3    H122782   2.994   0.853   1.398
 7606TIP3    H222783   2.990   0.822   1.546
 7607TIP3   OH222784   4.881   4.385   3.286
 7607TIP3    H122785   4.928   4.459   3.248
 7607TIP3    H222786   4.843   4.339   3.211
 7608TIP3   OH222787   6.234   2.733   1.881
 7608TIP3    H122788   6.195   2.797   1.821
 7608TIP3    H222789   6.192   2.650   1.859
 7609TIP3   OH222790   6.087   0.584   4.514
 7609TIP3    H122791   5.993   0.593   4.499
 7609TIP3    H222792   6.125   0.576   4.426
 7610TIP3   OH222793   4.122   1.174   4.936
 7610TIP3    H122794   4.185   1.113   4.973
 7610TIP3    H222795   4.047   1.171   4.996
 7611TIP3   OH222796   2.890   6.107   2.009
 7611TIP3    H122797   2.877   6.025   2.058
 7611TIP3    H222798   2.874   6.176   2.073
 7612TIP3   OH222799   3.177   3.228   0.394
 7612TIP3    H122800   3.151   3.301   0.339
 7612TIP3    H222801   3.099   3.207   0.445
 7613TIP3   OH222802   5.285   6.588   2.126
 7613TIP3    H122803   5.344   6.626   2.062
 7613TIP3    H222804   5.234   6.524   2.077
 7614TIP3   OH222805   3.199   5.700   3.440
 7614TIP3    H122806   3.244   5.664   3.364
 7614TIP3    H222807   3.178   5.624   3.494
 7615TIP3   OH222808   5.110   0.279   3.857
 7615TIP3    H122809   5.095   0.356   3.803
 7615TIP3    H222810   5.035   0.222   3.838
 7616TIP3   OH222811   0.885   5.150   2.099
 7616TIP3    H122812   0.899   5.221   2.038
 7616TIP3    H222813   0.791   5.153   2.118
 7617TIP3   OH222814   6.897   4.391   2.390
 7617TIP3    H122815   6.888   4.355   2.479
 7617TIP3    H222816   6.878   4.317   2.333
 7618TIP3   OH222817   0.952   6.004   3.838
 7618TIP3    H122818   1.025   5.980   3.894
 7618TIP3    H222819   0.987   6.072   3.780
 7619TIP3   OH222820   5.352   1.470   3.785
 7619TIP3    H122821   5.312   1.445   3.869
 7619TIP3    H222822   5.404   1.393   3.760
 7620TIP3   OH222823   0.908   2.957   5.763
 7620TIP3    H122824   0.928   3.045   5.731
 7620TIP3    H222825   0.816   2.960   5.788
 7621TIP3   OH222826   1.469   6.601   2.404
 7621TIP3    H122827   1.395   6.650   2.368
 7621TIP3    H222828   1.536   6.606   2.336
 7622TIP3   OH222829   0.177   0.853   5.050
 7622TIP3    H122830   0.131   0.842   5.133
 7622TIP3    H222831   0.184   0.947   5.039
 7623TIP3   OH222832   4.036   4.366   5.236
 7623TIP3    H122833   4.052   4.343   5.328
 7623TIP3    H222834   4.123   4.382   5.200
 7624TIP3   OH222835   6.388   1.587   1.459
 7624TIP3    H122836   6.474   1.593   1.499
 7624TIP3    H222837   6.395   1.513   1.398
 7625TIP3   OH222838   5.697   6.216   3.711
 7625TIP3    H122839   5.765   6.183   3.770
 7625TIP3    H222840   5.622   6.159   3.727
 7626TIP3   OH222841   0.417   0.048   2.676
 7626TIP3    H122842   0.376  -0.038   2.688
 7626TIP3    H222843   0.488   0.033   2.614
 7627TIP3   OH222844   2.500   2.216   4.041
 7627TIP3    H122845   2.414   2.232   4.080
 7627TIP3    H222846   2.493   2.253   3.952
 7628TIP3   OH222847   0.254   1.494   5.793
 7628TIP3    H122848   0.216   1.532   5.872
 7628TIP3    H222849   0.196   1.522   5.723
 7629TIP3   OH222850   6.625   4.584   2.204
 7629TIP3    H122851   6.596   4.529   2.131
 7629TIP3    H222852   6.557   4.651   2.212
 7630TIP3   OH222853   1.184   3.156   5.305
 7630TIP3    H122854   1.206   3.140   5.397
 7630TIP3    H222855   1.100   3.110   5.293
 7631TIP3   OH222856   4.156   6.369   2.989
 7631TIP3    H122857   4.098   6.322   3.049
 7631TIP3    H222858   4.238   6.379   3.037
 7632TIP3   OH222859   2.439   2.694   2.014
 7632TIP3    H122860   2.410   2.706   2.105
 7632TIP3    H222861   2.489   2.611   2.016
 7633TIP3   OH222862   0.641   2.061   3.201
 7633TIP3    H122863   0.722   2.079   3.153
 7633TIP3    H222864   0.636   2.129   3.267
 7634TIP3   OH222865   1.286   0.319   4.871
 7634TIP3    H122866   1.213   0.285   4.923
 7634TIP3    H222867   1.329   0.383   4.927
 7635TIP3   OH222868   3.722   0.858   2.839
 7635TIP3    H122869   3.673   0.806   2.775
 7635TIP3    H222870   3.805   0.877   2.796
 7636TIP3   OH222871   0.520   2.487   3.923
 7636TIP3    H122872   0.481   2.548   3.860
 7636TIP3    H222873   0.612   2.482   3.898
 7637TIP3   OH222874   5.867   5.130   2.384
 7637TIP3    H122875   5.869   5.201   2.320
 7637TIP3    H222876   5.781   5.138   2.426
 7638TIP3   OH222877   6.507   6.683   1.262
 7638TIP3    H122878   6.481   6.620   1.329
 7638TIP3    H222879   6.539   6.628   1.190
 7639TIP3   OH222880   0.209   2.598   2.788
 7639TIP3    H122881   0.268   2.601   2.863
 7639TIP3    H222882   0.255   2.644   2.718
 7640TIP3   OH222883   4.947   0.573   4.673
 7640TIP3    H122884   4.921   0.517   4.599
 7640TIP3    H222885   4.991   0.648   4.631
 7641TIP3   OH222886   5.148   4.911   3.507
 7641TIP3    H122887   5.176   4.866   3.587
 7641TIP3    H222888   5.152   4.844   3.439
 7642TIP3   OH222889   6.477   4.037   1.266
 7642TIP3    H122890   6.484   4.088   1.347
 7642TIP3    H222891   6.504   3.949   1.291
 7643TIP3   OH222892   0.269   0.154   0.746
 7643TIP3    H122893   0.326   0.089   0.786
 7643TIP3    H222894   0.259   0.124   0.655
 7644TIP3   OH222895   3.642   6.367   0.946
 7644TIP3    H122896   3.564   6.390   0.998
 7644TIP3    H222897   3.711   6.353   1.011
 7645TIP3   OH222898   1.123   3.522   2.229
 7645TIP3    H122899   1.077   3.579   2.290
 7645TIP3    H222900   1.202   3.571   2.204
 7646TIP3   OH222901   1.845   6.064   0.567
 7646TIP3    H122902   1.754   6.064   0.539
 7646TIP3    H222903   1.846   6.116   0.647
 7647TIP3   OH222904   2.872   4.679   2.266
 7647TIP3    H122905   2.848   4.769   2.288
 7647TIP3    H222906   2.909   4.643   2.346
 7648TIP3   OH222907   6.631   5.023   1.079
 7648TIP3    H122908   6.535   5.032   1.080
 7648TIP3    H222909   6.657   5.058   0.994
 7649TIP3   OH222910   3.495   5.719   0.486
 7649TIP3    H122911   3.581   5.717   0.445
 7649TIP3    H222912   3.472   5.811   0.491
 7650TIP3   OH222913   3.438   6.765   0.946
 7650TIP3    H122914   3.384   6.699   0.903
 7650TIP3    H222915   3.524   6.757   0.905
 7651TIP3   OH222916   5.544   0.272   5.137
 7651TIP3    H122917   5.466   0.217   5.126
 7651TIP3    H222918   5.618   0.214   5.116
 7652TIP3   OH222919   3.017   6.486   0.781
 7652TIP3    H122920   3.080   6.556   0.794
 7652TIP3    H222921   3.052   6.412   0.832
 7653TIP3   OH222922   2.618   4.732   3.877
 7653TIP3    H122923   2.526   4.731   3.907
 7653TIP3    H222924   2.663   4.787   3.941
 7654TIP3   OH222925   1.550   1.532   0.872
 7654TIP3    H122926   1.512   1.558   0.788
 7654TIP3    H222927   1.508   1.590   0.936
 7655TIP3   OH222928   5.001   2.445   0.959
 7655TIP3    H122929   5.091   2.415   0.974
 7655TIP3    H222930   5.010   2.517   0.897
 7656TIP3   OH222931   6.752   3.179   0.126
 7656TIP3    H122932   6.758   3.085   0.113
 7656TIP3    H222933   6.785   3.217   0.045
 7657TIP3   OH222934   6.786   6.631   2.832
 7657TIP3    H122935   6.784   6.693   2.904
 7657TIP3    H222936   6.871   6.644   2.790
 7658TIP3   OH222937   3.480   6.359   2.205
 7658TIP3    H122938   3.475   6.271   2.167
 7658TIP3    H222939   3.565   6.393   2.177
 7659TIP3   OH222940   0.412   3.929   5.579
 7659TIP3    H122941   0.458   3.913   5.497
 7659TIP3    H222942   0.468   3.991   5.626
 7660TIP3   OH222943   0.618   3.151   0.395
 7660TIP3    H122944   0.589   3.239   0.373
 7660TIP3    H222945   0.706   3.144   0.359
 7661TIP3   OH222946   4.472   4.504   1.968
 7661TIP3    H122947   4.447   4.439   1.902
 7661TIP3    H222948   4.547   4.466   2.013
 7662TIP3   OH222949   5.325   0.507   0.992
 7662TIP3    H122950   5.409   0.539   0.959
 7662TIP3    H222951   5.284   0.585   1.031
 7663TIP3   OH222952   4.747   5.736   1.589
 7663TIP3    H122953   4.698   5.722   1.507
 7663TIP3    H222954   4.836   5.755   1.560
 7664TIP3   OH222955   6.701   3.026   2.064
 7664TIP3    H122956   6.689   2.939   2.025
 7664TIP3    H222957   6.794   3.045   2.052
 7665TIP3   OH222958   4.063   2.249   2.845
 7665TIP3    H122959   3.977   2.225   2.811
 7665TIP3    H222960   4.047   2.275   2.936
 7666TIP3   OH222961   6.866   0.088   4.052
 7666TIP3    H122962   6.923   0.102   4.128
 7666TIP3    H222963   6.905   0.013   4.007
 7667TIP3   OH222964   5.935   3.524   5.396
 7667TIP3    H122965   5.945   3.534   5.490
 7667TIP3    H222966   6.016   3.483   5.367
 7668TIP3   OH222967   5.644   4.851   5.551
 7668TIP3    H122968   5.574   4.881   5.492
 7668TIP3    H222969   5.725   4.874   5.505
 7669TIP3   OH222970   0.562   6.054   3.562
 7669TIP3    H122971   0.492   5.990   3.578
 7669TIP3    H222972   0.622   6.010   3.502
 7670TIP3   OH222973   0.795   1.124   4.255
 7670TIP3    H122974   0.762   1.065   4.187
 7670TIP3    H222975   0.768   1.082   4.337
 7671TIP3   OH222976   1.464   1.362   5.747
 7671TIP3    H122977   1.450   1.454   5.726
 7671TIP3    H222978   1.383   1.319   5.723
 7672TIP3   OH222979   7.085   5.565   1.877
 7672TIP3    H122980   7.002   5.523   1.897
 7672TIP3    H222981   7.061   5.652   1.844
 7673TIP3   OH222982   7.200   2.912   5.756
 7673TIP3    H122983   7.172   2.831   5.800
 7673TIP3    H222984   7.137   2.978   5.785
 7674TIP3   OH222985   4.277   0.782   3.282
 7674TIP3    H122986   4.305   0.827   3.362
 7674TIP3    H222987   4.359   0.763   3.235
 7675TIP3   OH222988   2.010   1.246   1.757
 7675TIP3    H122989   1.957   1.269   1.682
 7675TIP3    H222990   1.989   1.154   1.774
 7676TIP3   OH222991   7.029   0.935   0.705
 7676TIP3    H122992   7.027   0.870   0.775
 7676TIP3    H222993   7.042   1.019   0.750
 7677TIP3   OH222994   0.320   0.011   4.254
 7677TIP3    H122995   0.248   0.016   4.316
 7677TIP3    H222996   0.393  -0.026   4.304
 7678TIP3   OH222997   3.385   2.084   1.580
 7678TIP3    H122998   3.433   2.148   1.632
 7678TIP3    H222999   3.450   2.015   1.562
 7679TIP3   OH223000   6.017   3.095   3.583
 7679TIP3    H123001   6.106   3.083   3.551
 7679TIP3    H223002   6.004   3.190   3.584
 7680TIP3   OH223003   5.627   4.276   4.723
 7680TIP3    H123004   5.696   4.335   4.695
 7680TIP3    H223005   5.637   4.271   4.818
 7681TIP3   OH223006   6.939   6.451   1.975
 7681TIP3    H123007   7.020   6.403   1.953
 7681TIP3    H223008   6.955   6.540   1.944
 7682TIP3   OH223009   2.122   2.645   4.681
 7682TIP3    H123010   2.106   2.580   4.613
 7682TIP3    H223011   2.163   2.718   4.635
 7683TIP3   OH223012   6.542   4.203   5.674
 7683TIP3    H123013   6.617   4.151   5.648
 7683TIP3    H223014   6.547   4.206   5.770
 7684TIP3   OH223015   3.824   2.228   2.738
 7684TIP3    H123016   3.769   2.182   2.674
 7684TIP3    H223017   3.827   2.318   2.706
 7685TIP3   OH223018   2.538   3.683   3.900
 7685TIP3    H123019   2.613   3.718   3.853
 7685TIP3    H223020   2.566   3.597   3.930
 7686TIP3   OH223021   6.116   4.100   3.761
 7686TIP3    H123022   6.108   4.113   3.855
 7686TIP3    H223023   6.175   4.025   3.752
 7687TIP3   OH223024   0.850   0.479   5.485
 7687TIP3    H123025   0.848   0.484   5.581
 7687TIP3    H223026   0.794   0.405   5.464
 7688TIP3   OH223027   0.869   6.405   0.737
 7688TIP3    H123028   0.876   6.394   0.831
 7688TIP3    H223029   0.929   6.477   0.716
 7689TIP3   OH223030   0.107   4.381   3.285
 7689TIP3    H123031   0.098   4.317   3.356
 7689TIP3    H223032   0.186   4.430   3.307
 7690TIP3   OH223033   3.649   0.412   0.754
 7690TIP3    H123034   3.681   0.467   0.683
 7690TIP3    H223035   3.586   0.467   0.801
 7691TIP3   OH223036   0.903   6.308   3.223
 7691TIP3    H123037   0.823   6.359   3.235
 7691TIP3    H223038   0.964   6.369   3.181
 7692TIP3   OH223039   5.775   5.826   5.645
 7692TIP3    H123040   5.744   5.913   5.670
 7692TIP3    H223041   5.868   5.838   5.623
 7693TIP3   OH223042   5.433   4.250   5.254
 7693TIP3    H123043   5.489   4.319   5.219
 7693TIP3    H223044   5.391   4.290   5.330
 7694TIP3   OH223045   4.707   4.089   1.165
 7694TIP3    H123046   4.721   4.164   1.223
 7694TIP3    H223047   4.670   4.022   1.222
 7695TIP3   OH223048   1.123   5.048   3.480
 7695TIP3    H123049   1.217   5.066   3.484
 7695TIP3    H223050   1.084   5.133   3.462
 7696TIP3   OH223051   0.331   1.194   2.820
 7696TIP3    H123052   0.320   1.101   2.837
 7696TIP3    H223053   0.265   1.215   2.754
 7697TIP3   OH223054   0.575   4.418   1.398
 7697TIP3    H123055   0.589   4.388   1.308
 7697TIP3    H223056   0.559   4.338   1.448
 7698TIP3   OH223057   4.770   5.679   1.052
 7698TIP3    H123058   4.703   5.725   1.002
 7698TIP3    H223059   4.852   5.700   1.008
 7699TIP3   OH223060   0.111   1.859   3.402
 7699TIP3    H123061   0.182   1.917   3.428
 7699TIP3    H223062   0.076   1.825   3.485
 7700TIP3   OH223063   3.731   1.743   4.547
 7700TIP3    H123064   3.722   1.649   4.529
 7700TIP3    H223065   3.678   1.786   4.479
 7701TIP3   OH223066   6.650   4.602   1.080
 7701TIP3    H123067   6.694   4.657   1.145
 7701TIP3    H223068   6.566   4.579   1.121
 7702TIP3   OH223069   0.835   4.228   5.781
 7702TIP3    H123070   0.871   4.308   5.819
 7702TIP3    H223071   0.911   4.184   5.742
 7703TIP3   OH223072   6.775   3.552   2.087
 7703TIP3    H123073   6.781   3.646   2.104
 7703TIP3    H223074   6.840   3.535   2.020
 7704TIP3   OH223075   1.563   5.039   3.905
 7704TIP3    H123076   1.547   4.960   3.956
 7704TIP3    H223077   1.554   5.111   3.968
 7705TIP3   OH223078   3.515   4.393   4.479
 7705TIP3    H123079   3.464   4.321   4.516
 7705TIP3    H223080   3.498   4.389   4.385
 7706TIP3   OH223081   4.060   2.689   0.753
 7706TIP3    H123082   3.995   2.619   0.752
 7706TIP3    H223083   4.144   2.644   0.743
 7707TIP3   OH223084   0.591   5.213   3.503
 7707TIP3    H123085   0.601   5.203   3.598
 7707TIP3    H223086   0.636   5.137   3.466
 7708TIP3   OH223087   5.819   3.215   4.599
 7708TIP3    H123088   5.844   3.304   4.576
 7708TIP3    H223089   5.838   3.208   4.692
 7709TIP3   OH223090   6.311   5.440   4.419
 7709TIP3    H123091   6.360   5.366   4.454
 7709TIP3    H223092   6.223   5.429   4.453
 7710TIP3   OH223093   1.443   4.284   4.540
 7710TIP3    H123094   1.391   4.228   4.482
 7710TIP3    H223095   1.534   4.268   4.515
 7711TIP3   OH223096   6.327   6.277   0.778
 7711TIP3    H123097   6.369   6.347   0.727
 7711TIP3    H223098   6.327   6.202   0.718
 7712TIP3   OH223099   3.293   1.425   1.765
 7712TIP3    H123100   3.226   1.427   1.696
 7712TIP3    H223101   3.290   1.336   1.799
 7713TIP3   OH223102   4.268   6.064   4.027
 7713TIP3    H123103   4.309   6.138   4.071
 7713TIP3    H223104   4.339   6.002   4.014
 7714TIP3   OH223105   4.707   3.372   3.467
 7714TIP3    H123106   4.753   3.348   3.547
 7714TIP3    H223107   4.615   3.379   3.493
 7715TIP3   OH223108   2.064   4.638   3.240
 7715TIP3    H123109   2.059   4.654   3.335
 7715TIP3    H223110   2.030   4.718   3.200
 7716TIP3   OH223111   4.199   1.246   0.579
 7716TIP3    H123112   4.205   1.329   0.532
 7716TIP3    H223113   4.140   1.265   0.653
 7717TIP3   OH223114   6.055   6.871   1.693
 7717TIP3    H123115   6.016   6.908   1.614
 7717TIP3    H223116   6.116   6.805   1.660
 7718TIP3   OH223117   0.809   4.650   2.857
 7718TIP3    H123118   0.757   4.571   2.874
 7718TIP3    H223119   0.847   4.635   2.771
 7719TIP3   OH223120   6.661   3.891   5.131
 7719TIP3    H123121   6.657   3.853   5.219
 7719TIP3    H223122   6.569   3.894   5.103
 7720TIP3   OH223123   0.182   4.795   5.044
 7720TIP3    H123124   0.113   4.855   5.073
 7720TIP3    H223125   0.137   4.730   4.990
 7721TIP3   OH223126   5.491   1.003   0.681
 7721TIP3    H123127   5.515   0.952   0.604
 7721TIP3    H223128   5.546   0.969   0.751
 7722TIP3   OH223129   2.171   4.688   2.720
 7722TIP3    H123130   2.210   4.760   2.670
 7722TIP3    H223131   2.083   4.679   2.683
 7723TIP3   OH223132   7.101   5.231   4.589
 7723TIP3    H123133   7.040   5.165   4.624
 7723TIP3    H223134   7.054   5.314   4.599
 7724TIP3   OH223135   0.966   3.709   1.904
 7724TIP3    H123136   0.918   3.773   1.853
 7724TIP3    H223137   1.058   3.726   1.883
 7725TIP3   OH223138   4.720   6.031   5.711
 7725TIP3    H123139   4.814   6.015   5.700
 7725TIP3    H223140   4.700   5.998   5.798
 7726TIP3   OH223141   1.756   4.377   2.962
 7726TIP3    H123142   1.738   4.383   2.868
 7726TIP3    H223143   1.812   4.300   2.971
 7727TIP3   OH223144   1.999   5.461   4.551
 7727TIP3    H123145   2.086   5.501   4.554
 7727TIP3    H223146   1.963   5.476   4.639
 7728TIP3   OH223147   7.249   5.266   3.218
 7728TIP3    H123148   7.225   5.190   3.166
 7728TIP3    H223149   7.216   5.247   3.306
 7729TIP3   OH223150   2.595   6.105   4.628
 7729TIP3    H123151   2.676   6.061   4.603
 7729TIP3    H223152   2.526   6.052   4.588
 7730TIP3   OH223153   0.143   3.896   5.620
 7730TIP3    H123154   0.114   3.975   5.665
 7730TIP3    H223155   0.239   3.902   5.620
 7731TIP3   OH223156   1.154   1.724   1.682
 7731TIP3    H123157   1.247   1.725   1.660
 7731TIP3    H223158   1.110   1.723   1.597
 7732TIP3   OH223159   1.814   2.586   5.702
 7732TIP3    H123160   1.824   2.606   5.609
 7732TIP3    H223161   1.838   2.667   5.747
 7733TIP3   OH223162   1.749   2.616   2.235
 7733TIP3    H123163   1.824   2.591   2.181
 7733TIP3    H223164   1.781   2.608   2.325
 7734TIP3   OH223165   6.848   5.549   0.660
 7734TIP3    H123166   6.777   5.606   0.688
 7734TIP3    H223167   6.846   5.554   0.564
 7735TIP3   OH223168   0.845   5.565   1.113
 7735TIP3    H123169   0.772   5.620   1.141
 7735TIP3    H223170   0.892   5.544   1.193
 7736TIP3   OH223171   0.394   4.286   4.089
 7736TIP3    H123172   0.315   4.234   4.107
 7736TIP3    H223173   0.368   4.342   4.016
 7737TIP3   OH223174   3.410   3.881   5.398
 7737TIP3    H123175   3.388   3.974   5.400
 7737TIP3    H223176   3.357   3.846   5.326
 7738TIP3   OH223177   3.049   4.319   0.965
 7738TIP3    H123178   2.979   4.347   1.024
 7738TIP3    H223179   3.004   4.299   0.883
 7739TIP3   OH223180   2.977   3.300   5.144
 7739TIP3    H123181   3.050   3.335   5.196
 7739TIP3    H223182   3.016   3.280   5.059
 7740TIP3   OH223183   2.551   5.154   2.282
 7740TIP3    H123184   2.545   5.070   2.235
 7740TIP3    H223185   2.619   5.202   2.235
 7741TIP3   OH223186   1.460   3.162   4.506
 7741TIP3    H123187   1.423   3.084   4.547
 7741TIP3    H223188   1.402   3.233   4.532
 7742TIP3   OH223189   0.568   5.547   0.810
 7742TIP3    H123190   0.506   5.616   0.787
 7742TIP3    H223191   0.535   5.469   0.763
 7743TIP3   OH223192   2.070   6.119   4.937
 7743TIP3    H123193   1.976   6.136   4.943
 7743TIP3    H223194   2.095   6.092   5.025
 7744TIP3   OH223195   1.819   5.962   0.070
 7744TIP3    H123196   1.842   6.050   0.100
 7744TIP3    H223197   1.752   5.933   0.133
 7745TIP3   OH223198   0.798   2.359   1.973
 7745TIP3    H123199   0.817   2.424   1.905
 7745TIP3    H223200   0.883   2.338   2.011
 7746TIP3   OH223201   4.315   4.081   1.357
 7746TIP3    H123202   4.349   3.996   1.330
 7746TIP3    H223203   4.251   4.060   1.426
 7747TIP3   OH223204   0.475   1.687   4.646
 7747TIP3    H123205   0.392   1.696   4.598
 7747TIP3    H223206   0.477   1.595   4.673
 7748TIP3   OH223207   2.620   5.748   4.703
 7748TIP3    H123208   2.574   5.832   4.708
 7748TIP3    H223209   2.620   5.726   4.609
 7749TIP3   OH223210   3.682   3.327   0.744
 7749TIP3    H123211   3.740   3.295   0.813
 7749TIP3    H223212   3.661   3.249   0.692
 7750TIP3   OH223213   1.609   0.522   3.566
 7750TIP3    H123214   1.609   0.437   3.523
 7750TIP3    H223215   1.650   0.581   3.502
 7751TIP3   OH223216   1.823   5.411   3.420
 7751TIP3    H123217   1.765   5.344   3.456
 7751TIP3    H223218   1.808   5.488   3.475
 7752TIP3   OH223219   0.054   5.404   1.263
 7752TIP3    H123220   0.094   5.333   1.313
 7752TIP3    H223221   0.012   5.361   1.189
 7753TIP3   OH223222   2.212   4.951   4.802
 7753TIP3    H123223   2.208   4.868   4.754
 7753TIP3    H223224   2.121   4.982   4.805
 7754TIP3   OH223225   6.350   5.360   5.103
 7754TIP3    H123226   6.353   5.441   5.153
 7754TIP3    H223227   6.275   5.372   5.043
 7755TIP3   OH223228   4.113   5.773   1.979
 7755TIP3    H123229   4.025   5.775   2.018
 7755TIP3    H223230   4.101   5.729   1.895
 7756TIP3   OH223231   0.530   5.886   2.018
 7756TIP3    H123232   0.525   5.887   2.114
 7756TIP3    H223233   0.537   5.793   1.996
 7757TIP3   OH223234   5.399   4.439   4.677
 7757TIP3    H123235   5.327   4.388   4.714
 7757TIP3    H223236   5.471   4.377   4.670
 7758TIP3   OH223237   3.796   0.109   4.182
 7758TIP3    H123238   3.712   0.154   4.188
 7758TIP3    H223239   3.773   0.018   4.159
 7759TIP3   OH223240   5.788   2.532   3.690
 7759TIP3    H123241   5.725   2.504   3.757
 7759TIP3    H223242   5.853   2.582   3.739
 7760TIP3   OH223243   0.889   6.687   4.946
 7760TIP3    H123244   0.857   6.725   5.028
 7760TIP3    H223245   0.816   6.636   4.912
 7761TIP3   OH223246   2.964   2.860   5.111
 7761TIP3    H123247   3.043   2.808   5.127
 7761TIP3    H223248   2.892   2.798   5.118
 7762TIP3   OH223249   0.831   1.206   1.670
 7762TIP3    H123250   0.895   1.247   1.611
 7762TIP3    H223251   0.883   1.179   1.746
 7763TIP3   OH223252   1.243   2.110   5.410
 7763TIP3    H123253   1.179   2.048   5.373
 7763TIP3    H223254   1.320   2.101   5.354
 7764TIP3   OH223255   6.658   1.663   4.758
 7764TIP3    H123256   6.750   1.657   4.730
 7764TIP3    H223257   6.651   1.750   4.798
 7765TIP3   OH223258   3.135   1.418   3.213
 7765TIP3    H123259   3.117   1.505   3.250
 7765TIP3    H223260   3.218   1.392   3.253
 7766TIP3   OH223261   2.537   0.720   5.265
 7766TIP3    H123262   2.603   0.778   5.303
 7766TIP3    H223263   2.541   0.736   5.171
 7767TIP3   OH223264   3.621   2.690   2.035
 7767TIP3    H123265   3.596   2.740   1.957
 7767TIP3    H223266   3.649   2.756   2.098
 7768TIP3   OH223267   5.420   4.020   1.876
 7768TIP3    H123268   5.506   4.025   1.919
 7768TIP3    H223269   5.414   4.101   1.825
 7769TIP3   OH223270   0.467   1.884   1.477
 7769TIP3    H123271   0.558   1.869   1.453
 7769TIP3    H223272   0.434   1.943   1.409
 7770TIP3   OH223273   2.539   5.408   5.760
 7770TIP3    H123274   2.602   5.384   5.828
 7770TIP3    H223275   2.507   5.324   5.726
 7771TIP3   OH223276   1.109   6.509   2.458
 7771TIP3    H123277   1.032   6.546   2.501
 7771TIP3    H223278   1.132   6.433   2.513
 7772TIP3   OH223279   1.228   2.481   1.356
 7772TIP3    H123280   1.143   2.524   1.359
 7772TIP3    H223281   1.264   2.505   1.271
 7773TIP3   OH223282   1.612   5.478   5.503
 7773TIP3    H123283   1.654   5.558   5.470
 7773TIP3    H223284   1.625   5.414   5.433
 7774TIP3   OH223285   6.870   5.954   3.687
 7774TIP3    H123286   6.865   5.935   3.593
 7774TIP3    H223287   6.841   5.874   3.730
 7775TIP3   OH223288   5.496   1.091   4.420
 7775TIP3    H123289   5.450   1.014   4.453
 7775TIP3    H223290   5.438   1.128   4.354
 7776TIP3   OH223291   0.460   3.879   1.163
 7776TIP3    H123292   0.446   3.938   1.088
 7776TIP3    H223293   0.378   3.830   1.170
 7777TIP3   OH223294   0.713   1.665   4.502
 7777TIP3    H123295   0.769   1.735   4.535
 7777TIP3    H223296   0.628   1.682   4.542
 7778TIP3   OH223297   1.413   5.786   0.537
 7778TIP3    H123298   1.408   5.737   0.619
 7778TIP3    H223299   1.332   5.838   0.535
 7779TIP3   OH223300   0.440   1.690   5.511
 7779TIP3    H123301   0.425   1.616   5.452
 7779TIP3    H223302   0.364   1.746   5.500
 7780TIP3   OH223303   1.191   6.217   0.341
 7780TIP3    H123304   1.181   6.204   0.247
 7780TIP3    H223305   1.125   6.160   0.380
 7781TIP3   OH223306   1.210   6.212   3.023
 7781TIP3    H123307   1.294   6.187   2.985
 7781TIP3    H223308   1.151   6.140   3.003
 7782TIP3   OH223309   4.666   0.532   3.378
 7782TIP3    H123310   4.727   0.565   3.313
 7782TIP3    H223311   4.624   0.611   3.414
 7783TIP3   OH223312   6.744   1.413   4.856
 7783TIP3    H123313   6.729   1.319   4.850
 7783TIP3    H223314   6.693   1.450   4.784
 7784TIP3   OH223315   5.391   3.010   2.812
 7784TIP3    H123316   5.356   2.923   2.829
 7784TIP3    H223317   5.324   3.053   2.758
 7785TIP3   OH223318   0.973   6.258   3.985
 7785TIP3    H123319   0.945   6.173   3.952
 7785TIP3    H223320   1.009   6.240   4.071
 7786TIP3   OH223321   4.286   3.692   4.330
 7786TIP3    H123322   4.360   3.637   4.304
 7786TIP3    H223323   4.215   3.629   4.348
 7787TIP3   OH223324   6.613   2.994   4.762
 7787TIP3    H123325   6.553   3.064   4.738
 7787TIP3    H223326   6.574   2.955   4.840
 7788TIP3   OH223327   4.034   3.059   2.675
 7788TIP3    H123328   4.061   3.135   2.726
 7788TIP3    H223329   4.009   3.094   2.590
 7789TIP3   OH223330   4.976   0.538   2.461
 7789TIP3    H123331   4.947   0.536   2.552
 7789TIP3    H223332   4.932   0.464   2.420
 7790TIP3   OH223333   4.610   3.934   0.174
 7790TIP3    H123334   4.667   4.009   0.155
 7790TIP3    H223335   4.539   3.971   0.228
 7791TIP3   OH223336   6.706   0.075   4.830
 7791TIP3    H123337   6.747   0.104   4.749
 7791TIP3    H223338   6.680  -0.016   4.813
 7792TIP3   OH223339   2.938   3.662   0.626
 7792TIP3    H123340   2.922   3.702   0.711
 7792TIP3    H223341   2.987   3.729   0.577
 7793TIP3   OH223342   1.295   4.872   2.573
 7793TIP3    H123343   1.285   4.879   2.478
 7793TIP3    H223344   1.252   4.950   2.608
 7794TIP3   OH223345   6.666   6.158   4.835
 7794TIP3    H123346   6.684   6.130   4.745
 7794TIP3    H223347   6.595   6.222   4.826
 7795TIP3   OH223348   1.204   6.723   4.717
 7795TIP3    H123349   1.226   6.654   4.779
 7795TIP3    H223350   1.283   6.732   4.663
 7796TIP3   OH223351   4.347   6.691   2.856
 7796TIP3    H123352   4.314   6.622   2.914
 7796TIP3    H223353   4.276   6.754   2.851
 7797TIP3   OH223354   5.661   1.233   3.007
 7797TIP3    H123355   5.691   1.242   3.098
 7797TIP3    H223356   5.651   1.323   2.976
 7798TIP3   OH223357   0.669   4.475   3.836
 7798TIP3    H123358   0.711   4.461   3.922
 7798TIP3    H223359   0.645   4.386   3.808
 7799TIP3   OH223360   4.318   0.534   5.253
 7799TIP3    H123361   4.331   0.445   5.286
 7799TIP3    H223362   4.405   0.561   5.223
 7800TIP3   OH223363   6.219   6.707   3.624
 7800TIP3    H123364   6.260   6.746   3.547
 7800TIP3    H223365   6.183   6.624   3.592
 7801TIP3   OH223366   0.519   0.530   2.957
 7801TIP3    H123367   0.475   0.510   2.874
 7801TIP3    H223368   0.540   0.623   2.952
 7802TIP3   OH223369   0.536   6.419   5.685
 7802TIP3    H123370   0.462   6.476   5.668
 7802TIP3    H223371   0.549   6.370   5.603
 7803TIP3   OH223372   4.978   4.799   5.259
 7803TIP3    H123373   4.911   4.775   5.194
 7803TIP3    H223374   4.953   4.752   5.338
 7804TIP3   OH223375   7.141   0.458   4.226
 7804TIP3    H123376   7.149   0.486   4.135
 7804TIP3    H223377   7.193   0.378   4.232
 7805TIP3   OH223378   3.865   5.710   0.700
 7805TIP3    H123379   3.931   5.776   0.722
 7805TIP3    H223380   3.796   5.723   0.765
 7806TIP3   OH223381   2.782   4.087   3.677
 7806TIP3    H123382   2.759   4.154   3.613
 7806TIP3    H223383   2.748   4.121   3.760
 7807TIP3   OH223384   5.349   2.688   4.327
 7807TIP3    H123385   5.259   2.661   4.312
 7807TIP3    H223386   5.379   2.632   4.399
 7808TIP3   OH223387   4.681   3.116   0.100
 7808TIP3    H123388   4.718   3.178   0.037
 7808TIP3    H223389   4.692   3.159   0.185
 7809TIP3   OH223390   3.890   4.998   5.437
 7809TIP3    H123391   3.799   5.012   5.411
 7809TIP3    H223392   3.931   5.084   5.423
 7810TIP3   OH223393   2.040   3.076   2.303
 7810TIP3    H123394   1.951   3.040   2.311
 7810TIP3    H223395   2.071   3.081   2.394
 7811TIP3   OH223396   6.855   2.417   3.711
 7811TIP3    H123397   6.831   2.488   3.771
 7811TIP3    H223398   6.946   2.434   3.688
 7812TIP3   OH223399   1.640   6.263   1.547
 7812TIP3    H123400   1.688   6.346   1.547
 7812TIP3    H223401   1.549   6.288   1.530
 7813TIP3   OH223402   6.629   4.512   4.523
 7813TIP3    H123403   6.604   4.456   4.449
 7813TIP3    H223404   6.723   4.525   4.513
 7814TIP3   OH223405   4.845   3.834   1.490
 7814TIP3    H123406   4.922   3.873   1.449
 7814TIP3    H223407   4.877   3.755   1.533
 7815TIP3   OH223408   5.998   6.155   0.820
 7815TIP3    H123409   6.029   6.206   0.745
 7815TIP3    H223410   5.910   6.127   0.795
 7816TIP3   OH223411   1.362   5.350   0.110
 7816TIP3    H123412   1.437   5.354   0.170
 7816TIP3    H223413   1.341   5.257   0.104
 7817TIP3   OH223414   5.913   4.788   0.467
 7817TIP3    H123415   5.884   4.874   0.439
 7817TIP3    H223416   6.007   4.798   0.484
 7818TIP3   OH223417   1.211   5.792   0.276
 7818TIP3    H123418   1.147   5.735   0.233
 7818TIP3    H223419   1.283   5.800   0.213
 7819TIP3   OH223420   0.989   3.703   0.902
 7819TIP3    H123421   1.030   3.711   0.988
 7819TIP3    H223422   0.923   3.773   0.900
 7820TIP3   OH223423   3.212   0.536   1.104
 7820TIP3    H123424   3.231   0.591   1.028
 7820TIP3    H223425   3.134   0.574   1.143
 7821TIP3   OH223426   1.470   3.828   2.778
 7821TIP3    H123427   1.539   3.821   2.845
 7821TIP3    H223428   1.411   3.755   2.797
 7822TIP3   OH223429   0.190   6.492   3.104
 7822TIP3    H123430   0.132   6.557   3.143
 7822TIP3    H223431   0.168   6.492   3.011
 7823TIP3   OH223432   1.690   1.516   5.460
 7823TIP3    H123433   1.669   1.426   5.437
 7823TIP3    H223434   1.647   1.569   5.393
 7824TIP3   OH223435   1.558   1.626   3.639
 7824TIP3    H123436   1.604   1.657   3.561
 7824TIP3    H223437   1.622   1.634   3.710
 7825TIP3   OH223438   0.837   4.538   2.279
 7825TIP3    H123439   0.789   4.621   2.278
 7825TIP3    H223440   0.919   4.558   2.234
 7826TIP3   OH223441   5.785   2.109   3.510
 7826TIP3    H123442   5.787   2.112   3.605
 7826TIP3    H223443   5.823   2.024   3.488
 7827TIP3   OH223444   3.908   1.366   0.426
 7827TIP3    H123445   3.996   1.403   0.424
 7827TIP3    H223446   3.911   1.298   0.493
 7828TIP3   OH223447   5.898   5.405   2.881
 7828TIP3    H123448   5.822   5.356   2.850
 7828TIP3    H223449   5.867   5.496   2.886
 7829TIP3   OH223450   1.675   1.554   3.026
 7829TIP3    H123451   1.765   1.587   3.028
 7829TIP3    H223452   1.646   1.567   2.936
 7830TIP3   OH223453   0.872   5.321   2.677
 7830TIP3    H123454   0.831   5.394   2.630
 7830TIP3    H223455   0.910   5.360   2.755
 7831TIP3   OH223456   7.052   3.537   2.924
 7831TIP3    H123457   7.014   3.623   2.942
 7831TIP3    H223458   6.979   3.485   2.889
 7832TIP3   OH223459   6.795   2.807   5.084
 7832TIP3    H123460   6.835   2.759   5.012
 7832TIP3    H223461   6.827   2.897   5.074
 7833TIP3   OH223462   6.109   4.515   3.761
 7833TIP3    H123463   6.164   4.551   3.830
 7833TIP3    H223464   6.157   4.439   3.729
 7834TIP3   OH223465   5.977   1.623   0.521
 7834TIP3    H123466   5.905   1.641   0.460
 7834TIP3    H223467   5.951   1.542   0.564
 7835TIP3   OH223468   0.536   2.440   4.659
 7835TIP3    H123469   0.488   2.464   4.579
 7835TIP3    H223470   0.612   2.390   4.627
 7836TIP3   OH223471   5.192   6.079   3.679
 7836TIP3    H123472   5.164   6.095   3.770
 7836TIP3    H223473   5.126   6.123   3.626
 7837TIP3   OH223474   6.240   3.999   0.822
 7837TIP3    H123475   6.275   4.031   0.738
 7837TIP3    H223476   6.317   3.962   0.867
 7838TIP3   OH223477   4.492   1.834   4.710
 7838TIP3    H123478   4.484   1.880   4.793
 7838TIP3    H223479   4.453   1.893   4.646
 7839TIP3   OH223480   2.196   4.854   3.732
 7839TIP3    H123481   2.213   4.926   3.792
 7839TIP3    H223482   2.120   4.808   3.769
 7840TIP3   OH223483   4.573   0.063   0.686
 7840TIP3    H123484   4.478   0.075   0.686
 7840TIP3    H223485   4.604   0.116   0.614
 7841TIP3   OH223486   5.733   5.632   2.251
 7841TIP3    H123487   5.653   5.678   2.225
 7841TIP3    H223488   5.804   5.684   2.213
 7842TIP3   OH223489   4.532   5.842   1.257
 7842TIP3    H123490   4.578   5.764   1.288
 7842TIP3    H223491   4.516   5.826   1.164
 7843TIP3   OH223492   5.102   4.305   4.129
 7843TIP3    H123493   5.192   4.323   4.101
 7843TIP3    H223494   5.089   4.362   4.205
 7844TIP3   OH223495   2.023   4.390   2.792
 7844TIP3    H123496   2.052   4.366   2.704
 7844TIP3    H223497   1.934   4.422   2.781
 7845TIP3   OH223498   6.985   5.322   1.759
 7845TIP3    H123499   7.078   5.310   1.779
 7845TIP3    H223500   6.983   5.328   1.663
 7846TIP3   OH223501   1.119   5.776   2.035
 7846TIP3    H123502   1.150   5.820   2.114
 7846TIP3    H223503   1.044   5.829   2.006
 7847TIP3   OH223504   6.203   1.511   2.274
 7847TIP3    H123505   6.237   1.422   2.264
 7847TIP3    H223506   6.278   1.568   2.254
 7848TIP3   OH223507   1.295   5.975   1.268
 7848TIP3    H123508   1.204   5.963   1.238
 7848TIP3    H223509   1.319   5.891   1.308
 7849TIP3   OH223510   5.485   2.812   2.402
 7849TIP3    H123511   5.523   2.767   2.326
 7849TIP3    H223512   5.456   2.897   2.368
 7850TIP3   OH223513   2.447   2.737   4.141
 7850TIP3    H123514   2.516   2.728   4.075
 7850TIP3    H223515   2.493   2.766   4.220
 7851TIP3   OH223516   1.773   0.826   2.919
 7851TIP3    H123517   1.736   0.914   2.927
 7851TIP3    H223518   1.716   0.782   2.856
 7852TIP3   OH223519   4.230   0.538   2.365
 7852TIP3    H123520   4.169   0.541   2.439
 7852TIP3    H223521   4.206   0.612   2.310
 7853TIP3   OH223522   6.515   3.295   3.480
 7853TIP3    H123523   6.524   3.359   3.408
 7853TIP3    H223524   6.561   3.217   3.448
 7854TIP3   OH223525   6.650   5.026   4.418
 7854TIP3    H123526   6.612   5.076   4.491
 7854TIP3    H223527   6.720   5.083   4.385
 7855TIP3   OH223528   1.928   3.224   0.292
 7855TIP3    H123529   1.919   3.250   0.383
 7855TIP3    H223530   1.884   3.139   0.287
 7856TIP3   OH223531   3.377   3.351   4.147
 7856TIP3    H123532   3.418   3.423   4.194
 7856TIP3    H223533   3.449   3.311   4.097
 7857TIP3   OH223534   1.615   2.743   4.870
 7857TIP3    H123535   1.520   2.732   4.859
 7857TIP3    H223536   1.652   2.715   4.786
 7858TIP3   OH223537   3.315   0.831   5.106
 7858TIP3    H123538   3.237   0.800   5.059
 7858TIP3    H223539   3.312   0.786   5.190
 7859TIP3   OH223540   5.822   3.866   0.355
 7859TIP3    H123541   5.852   3.941   0.406
 7859TIP3    H223542   5.728   3.879   0.347
 7860TIP3   OH223543   2.520   5.816   3.149
 7860TIP3    H123544   2.535   5.818   3.244
 7860TIP3    H223545   2.455   5.884   3.134
 7861TIP3   OH223546   5.759   5.983   4.960
 7861TIP3    H123547   5.791   5.893   4.967
 7861TIP3    H223548   5.763   6.017   5.049
 7862TIP3   OH223549   0.977   4.432   3.034
 7862TIP3    H123550   0.927   4.351   3.019
 7862TIP3    H223551   1.011   4.455   2.948
 7863TIP3   OH223552   3.493   2.749   3.658
 7863TIP3    H123553   3.446   2.668   3.681
 7863TIP3    H223554   3.559   2.721   3.595
 7864TIP3   OH223555   5.566   4.887   2.478
 7864TIP3    H123556   5.530   4.974   2.461
 7864TIP3    H223557   5.654   4.904   2.512
 7865TIP3   OH223558   5.571   5.135   1.821
 7865TIP3    H123559   5.523   5.210   1.857
 7865TIP3    H223560   5.515   5.060   1.840
 7866TIP3   OH223561   6.968   0.567   5.079
 7866TIP3    H123562   6.929   0.483   5.053
 7866TIP3    H223563   6.900   0.608   5.134
 7867TIP3   OH223564   5.924   2.426   2.439
 7867TIP3    H123565   5.999   2.436   2.379
 7867TIP3    H223566   5.881   2.512   2.437
 7868TIP3   OH223567   0.284   2.193   5.148
 7868TIP3    H123568   0.370   2.153   5.165
 7868TIP3    H223569   0.242   2.195   5.234
 7869TIP3   OH223570   4.759   4.286   5.155
 7869TIP3    H123571   4.751   4.234   5.075
 7869TIP3    H223572   4.847   4.324   5.151
 7870TIP3   OH223573   2.550   4.618   5.898
 7870TIP3    H123574   2.638   4.592   5.870
 7870TIP3    H223575   2.557   4.713   5.912
 7871TIP3   OH223576   4.326   1.832   3.318
 7871TIP3    H123577   4.259   1.779   3.362
 7871TIP3    H223578   4.347   1.902   3.381
 7872TIP3   OH223579   6.038   2.880   1.726
 7872TIP3    H123580   6.013   2.963   1.687
 7872TIP3    H223581   5.980   2.816   1.686
 7873TIP3   OH223582   6.822   1.521   4.234
 7873TIP3    H123583   6.880   1.461   4.187
 7873TIP3    H223584   6.737   1.509   4.193
 7874TIP3   OH223585   1.889   3.630   3.906
 7874TIP3    H123586   1.919   3.700   3.964
 7874TIP3    H223587   1.925   3.653   3.820
 7875TIP3   OH223588   4.947   0.798   3.818
 7875TIP3    H123589   4.902   0.826   3.898
 7875TIP3    H223590   4.926   0.865   3.753
 7876TIP3   OH223591   5.788   4.690   1.749
 7876TIP3    H123592   5.740   4.766   1.718
 7876TIP3    H223593   5.744   4.663   1.829
 7877TIP3   OH223594   1.190   3.481   3.374
 7877TIP3    H123595   1.181   3.456   3.466
 7877TIP3    H223596   1.137   3.560   3.366
 7878TIP3   OH223597   2.638   1.043   5.675
 7878TIP3    H123598   2.646   1.116   5.738
 7878TIP3    H223599   2.592   0.975   5.725
 7879TIP3   OH223600   0.599   3.958   5.233
 7879TIP3    H123601   0.560   3.899   5.169
 7879TIP3    H223602   0.655   3.902   5.287
 7880TIP3   OH223603   0.786   1.211   5.736
 7880TIP3    H123604   0.737   1.228   5.817
 7880TIP3    H223605   0.850   1.283   5.732
 7881TIP3   OH223606   3.057   1.560   2.957
 7881TIP3    H123607   3.088   1.644   2.922
 7881TIP3    H223608   3.130   1.500   2.942
 7882TIP3   OH223609   5.829   2.401   4.997
 7882TIP3    H123610   5.864   2.319   4.964
 7882TIP3    H223611   5.820   2.387   5.091
 7883TIP3   OH223612   1.122   0.242   5.109
 7883TIP3    H123613   1.032   0.262   5.083
 7883TIP3    H223614   1.163   0.327   5.122
 7884TIP3   OH223615   1.521   4.092   1.351
 7884TIP3    H123616   1.518   4.000   1.323
 7884TIP3    H223617   1.613   4.107   1.372
 7885TIP3   OH223618   4.723   2.968   1.638
 7885TIP3    H123619   4.702   2.888   1.590
 7885TIP3    H223620   4.667   3.035   1.598
 7886TIP3   OH223621   1.485   0.115   1.443
 7886TIP3    H123622   1.482   0.050   1.374
 7886TIP3    H223623   1.401   0.160   1.438
 7887TIP3   OH223624   6.846   3.307   5.321
 7887TIP3    H123625   6.787   3.335   5.252
 7887TIP3    H223626   6.790   3.261   5.384
 7888TIP3   OH223627   7.189   1.477   0.214
 7888TIP3    H123628   7.259   1.434   0.261
 7888TIP3    H223629   7.116   1.479   0.276
 7889TIP3   OH223630   6.043   2.085   3.203
 7889TIP3    H123631   6.072   2.157   3.260
 7889TIP3    H223632   5.981   2.126   3.143
 7890TIP3   OH223633   2.553   3.586   5.296
 7890TIP3    H123634   2.527   3.497   5.271
 7890TIP3    H223635   2.635   3.601   5.249
 7891TIP3   OH223636   6.985   1.013   0.271
 7891TIP3    H123637   7.037   1.085   0.236
 7891TIP3    H223638   6.958   0.963   0.193
 7892TIP3   OH223639   6.631   2.580  -0.003
 7892TIP3    H123640   6.551   2.549   0.039
 7892TIP3    H223641   6.644   2.668   0.033
 7893TIP3   OH223642   5.422   3.975   5.197
 7893TIP3    H123643   5.424   4.068   5.220
 7893TIP3    H223644   5.470   3.932   5.268
 7894TIP3   OH223645   3.467   4.778   2.079
 7894TIP3    H123646   3.422   4.856   2.046
 7894TIP3    H223647   3.476   4.793   2.173
 7895TIP3   OH223648   5.117   2.251   5.143
 7895TIP3    H123649   5.069   2.292   5.072
 7895TIP3    H223650   5.108   2.157   5.128
 7896TIP3   OH223651   2.625   2.952   2.330
 7896TIP3    H123652   2.563   2.889   2.367
 7896TIP3    H223653   2.650   2.915   2.246
 7897TIP3   OH223654   3.061   1.201   1.494
 7897TIP3    H123655   3.155   1.192   1.505
 7897TIP3    H223656   3.049   1.227   1.402
 7898TIP3   OH223657   2.147   5.683   5.502
 7898TIP3    H123658   2.217   5.691   5.438
 7898TIP3    H223659   2.188   5.707   5.585
 7899TIP3   OH223660   3.973   4.996   1.649
 7899TIP3    H123661   4.035   4.926   1.667
 7899TIP3    H223662   3.993   5.064   1.714
 7900TIP3   OH223663   0.879   2.182   4.840
 7900TIP3    H123664   0.796   2.148   4.872
 7900TIP3    H223665   0.867   2.276   4.836
 7901TIP3   OH223666   1.893   2.057   2.778
 7901TIP3    H123667   1.988   2.068   2.777
 7901TIP3    H223668   1.879   1.976   2.828
 7902TIP3   OH223669   2.819   2.207   5.278
 7902TIP3    H123670   2.724   2.219   5.283
 7902TIP3    H223671   2.831   2.112   5.282
 7903TIP3   OH223672   6.821   0.294   3.845
 7903TIP3    H123673   6.840   0.388   3.849
 7903TIP3    H223674   6.865   0.258   3.922
 7904TIP3   OH223675   5.118   4.304   2.404
 7904TIP3    H123676   5.026   4.311   2.431
 7904TIP3    H223677   5.167   4.343   2.477
 7905TIP3   OH223678   2.296   5.305   4.967
 7905TIP3    H123679   2.340   5.221   4.961
 7905TIP3    H223680   2.366   5.367   4.988
 7906TIP3   OH223681   1.790   4.199   3.198
 7906TIP3    H123682   1.823   4.287   3.217
 7906TIP3    H223683   1.702   4.198   3.236
 7907TIP3   OH223684   2.440   4.645   1.568
 7907TIP3    H123685   2.437   4.574   1.504
 7907TIP3    H223686   2.481   4.606   1.645
 7908TIP3   OH223687   0.909   4.126   0.268
 7908TIP3    H123688   0.917   4.092   0.179
 7908TIP3    H223689   0.859   4.207   0.259
 7909TIP3   OH223690   5.237   3.171   5.770
 7909TIP3    H123691   5.220   3.239   5.836
 7909TIP3    H223692   5.298   3.111   5.813
 7910TIP3   OH223693   3.218   5.636   1.002
 7910TIP3    H123694   3.230   5.608   0.911
 7910TIP3    H223695   3.306   5.657   1.033
 7911TIP3   OH223696   2.887   5.759   0.948
 7911TIP3    H123697   2.969   5.801   0.974
 7911TIP3    H223698   2.889   5.674   0.993
 7912TIP3   OH223699   0.038   3.591   2.163
 7912TIP3    H123700   0.092   3.514   2.178
 7912TIP3    H223701  -0.035   3.582   2.224
 7913TIP3   OH223702   3.237   0.777   3.570
 7913TIP3    H123703   3.307   0.785   3.635
 7913TIP3    H223704   3.157   0.769   3.622
 7914TIP3   OH223705   1.625   0.862   1.939
 7914TIP3    H123706   1.693   0.843   2.003
 7914TIP3    H223707   1.545   0.869   1.990
 7915TIP3   OH223708   0.333   4.698   4.193
 7915TIP3    H123709   0.327   4.714   4.098
 7915TIP3    H223710   0.360   4.782   4.230
 7916TIP3   OH223711   5.063   6.761   1.095
 7916TIP3    H123712   5.120   6.747   1.019
 7916TIP3    H223713   5.073   6.681   1.147
 7917TIP3   OH223714   7.053   1.196   2.518
 7917TIP3    H123715   7.112   1.232   2.452
 7917TIP3    H223716   7.016   1.273   2.562
 7918TIP3   OH223717   1.846   4.638   0.719
 7918TIP3    H123718   1.882   4.640   0.630
 7918TIP3    H223719   1.891   4.565   0.762
 7919TIP3   OH223720   0.640   6.857   0.910
 7919TIP3    H123721   0.724   6.815   0.891
 7919TIP3    H223722   0.578   6.817   0.849
 7920TIP3   OH223723   0.237   2.935   3.718
 7920TIP3    H123724   0.182   2.922   3.795
 7920TIP3    H223725   0.215   3.022   3.686
 7921TIP3   OH223726   0.158   1.424   2.723
 7921TIP3    H123727   0.183   1.431   2.815
 7921TIP3    H223728   0.076   1.374   2.725
 7922TIP3   OH223729   0.967   3.088   0.963
 7922TIP3    H123730   1.035   3.150   0.940
 7922TIP3    H223731   0.892   3.114   0.910
 7923TIP3   OH223732   5.117   1.023   0.181
 7923TIP3    H123733   5.151   1.010   0.269
 7923TIP3    H223734   5.167   0.962   0.127
 7924TIP3   OH223735   1.798   2.684   1.964
 7924TIP3    H123736   1.880   2.646   1.996
 7924TIP3    H223737   1.806   2.777   1.981
 7925TIP3   OH223738   0.335   0.836   3.820
 7925TIP3    H123739   0.401   0.886   3.869
 7925TIP3    H223740   0.258   0.892   3.820
 7926TIP3   OH223741   6.924   1.772   1.536
 7926TIP3    H123742   6.847   1.771   1.594
 7926TIP3    H223743   6.998   1.789   1.594
 7927TIP3   OH223744   4.901   1.267   1.488
 7927TIP3    H123745   4.968   1.312   1.436
 7927TIP3    H223746   4.905   1.176   1.460
 7928TIP3   OH223747   5.662   3.312   0.211
 7928TIP3    H123748   5.710   3.349   0.137
 7928TIP3    H223749   5.632   3.226   0.179
 7929TIP3   OH223750   2.306   1.444   5.549
 7929TIP3    H123751   2.373   1.433   5.616
 7929TIP3    H223752   2.330   1.526   5.505
 7930TIP3   OH223753   6.189   4.651   5.177
 7930TIP3    H123754   6.229   4.585   5.119
 7930TIP3    H223755   6.216   4.735   5.140
 7931TIP3   OH223756   4.767   3.269   2.836
 7931TIP3    H123757   4.739   3.215   2.762
 7931TIP3    H223758   4.848   3.228   2.866
 7932TIP3   OH223759   7.227   1.728   2.100
 7932TIP3    H123760   7.181   1.672   2.037
 7932TIP3    H223761   7.316   1.734   2.066
 7933TIP3   OH223762   2.472   4.184   0.374
 7933TIP3    H123763   2.421   4.264   0.388
 7933TIP3    H223764   2.513   4.196   0.288
 7934TIP3   OH223765   1.554   1.210   1.109
 7934TIP3    H123766   1.496   1.258   1.168
 7934TIP3    H223767   1.628   1.184   1.164
 7935TIP3   OH223768   1.462   5.447   4.058
 7935TIP3    H123769   1.390   5.426   3.999
 7935TIP3    H223770   1.422   5.501   4.126
 7936TIP3   OH223771   5.142   5.645   3.384
 7936TIP3    H123772   5.162   5.692   3.303
 7936TIP3    H223773   5.175   5.702   3.453
 7937TIP3   OH223774   3.655   0.811   3.765
 7937TIP3    H123775   3.708   0.760   3.704
 7937TIP3    H223776   3.569   0.769   3.764
 7938TIP3   OH223777   5.273   0.279   3.427
 7938TIP3    H123778   5.232   0.225   3.494
 7938TIP3    H223779   5.200   0.314   3.376
 7939TIP3   OH223780   0.675   5.494   4.765
 7939TIP3    H123781   0.640   5.568   4.814
 7939TIP3    H223782   0.744   5.532   4.711
 7940TIP3   OH223783   7.152   2.346   1.713
 7940TIP3    H123784   7.114   2.279   1.770
 7940TIP3    H223785   7.136   2.315   1.625
 7941TIP3   OH223786   5.160   5.984   0.607
 7941TIP3    H123787   5.080   5.956   0.651
 7941TIP3    H223788   5.184   5.910   0.551
 7942TIP3   OH223789   3.805   5.020   0.539
 7942TIP3    H123790   3.843   5.076   0.607
 7942TIP3    H223791   3.729   4.979   0.582
 7943TIP3   OH223792   2.479   2.312   1.109
 7943TIP3    H123793   2.440   2.345   1.190
 7943TIP3    H223794   2.523   2.387   1.070
 7944TIP3   OH223795   6.567   6.687   0.882
 7944TIP3    H123796   6.651   6.716   0.846
 7944TIP3    H223797   6.502   6.730   0.826
 7945TIP3   OH223798   0.963   1.943   0.212
 7945TIP3    H123799   0.955   1.989   0.128
 7945TIP3    H223800   0.878   1.954   0.254
 7946TIP3   OH223801   5.563   5.138   2.971
 7946TIP3    H123802   5.561   5.167   3.062
 7946TIP3    H223803   5.476   5.101   2.955
 7947TIP3   OH223804   6.340   2.733   5.882
 7947TIP3    H123805   6.351   2.809   5.939
 7947TIP3    H223806   6.364   2.765   5.795
 7948TIP3   OH223807   1.473   3.822   5.164
 7948TIP3    H123808   1.560   3.816   5.126
 7948TIP3    H223809   1.426   3.883   5.108
 7949TIP3   OH223810   2.286   1.913   0.848
 7949TIP3    H123811   2.306   1.984   0.909
 7949TIP3    H223812   2.267   1.838   0.904
 7950TIP3   OH223813   0.410   4.130   3.300
 7950TIP3    H123814   0.499   4.096   3.303
 7950TIP3    H223815   0.420   4.222   3.276
 7951TIP3   OH223816   3.546   1.339   3.803
 7951TIP3    H123817   3.527   1.246   3.789
 7951TIP3    H223818   3.570   1.372   3.717
 7952TIP3   OH223819   5.520   1.583   0.209
 7952TIP3    H123820   5.584   1.624   0.266
 7952TIP3    H223821   5.459   1.654   0.186
 7953TIP3   OH223822   7.051   3.958   4.934
 7953TIP3    H123823   7.081   3.876   4.974
 7953TIP3    H223824   6.978   3.932   4.878
 7954TIP3   OH223825   5.932   4.918   1.174
 7954TIP3    H123826   5.900   4.846   1.118
 7954TIP3    H223827   5.869   4.921   1.246
 7955TIP3   OH223828   0.331   2.037   1.911
 7955TIP3    H123829   0.259   2.043   1.975
 7955TIP3    H223830   0.403   2.084   1.952
 7956TIP3   OH223831   5.689   1.427   5.557
 7956TIP3    H123832   5.745   1.388   5.624
 7956TIP3    H223833   5.647   1.502   5.600
 7957TIP3   OH223834   4.848   0.402   0.327
 7957TIP3    H123835   4.858   0.401   0.423
 7957TIP3    H223836   4.761   0.438   0.313
 7958TIP3   OH223837   5.229   4.914   1.643
 7958TIP3    H123838   5.188   4.893   1.727
 7958TIP3    H223839   5.178   4.866   1.578
 7959TIP3   OH223840   1.819   2.963   2.422
 7959TIP3    H123841   1.863   2.891   2.467
 7959TIP3    H223842   1.851   3.042   2.466
 7960TIP3   OH223843   4.328   4.735   3.261
 7960TIP3    H123844   4.391   4.752   3.192
 7960TIP3    H223845   4.375   4.756   3.342
 7961TIP3   OH223846   2.854   4.792   4.549
 7961TIP3    H123847   2.763   4.816   4.566
 7961TIP3    H223848   2.857   4.773   4.455
 7962TIP3   OH223849   2.856   1.881   0.302
 7962TIP3    H123850   2.811   1.822   0.362
 7962TIP3    H223851   2.827   1.853   0.215
 7963TIP3   OH223852   2.063   1.692   2.608
 7963TIP3    H123853   1.985   1.747   2.611
 7963TIP3    H223854   2.106   1.715   2.525
 7964TIP3   OH223855   0.610   4.247   2.525
 7964TIP3    H123856   0.636   4.205   2.607
 7964TIP3    H223857   0.548   4.315   2.552
 7965TIP3   OH223858   3.258   4.700   0.557
 7965TIP3    H123859   3.312   4.764   0.511
 7965TIP3    H223860   3.266   4.725   0.650
 7966TIP3   OH223861   3.689   1.212   3.285
 7966TIP3    H123862   3.753   1.266   3.332
 7966TIP3    H223863   3.727   1.198   3.199
 7967TIP3   OH223864   6.416   3.134   4.668
 7967TIP3    H123865   6.339   3.116   4.721
 7967TIP3    H223866   6.422   3.230   4.665
 7968TIP3   OH223867   0.260   1.674   4.482
 7968TIP3    H123868   0.299   1.635   4.404
 7968TIP3    H223869   0.166   1.657   4.473
 7969TIP3   OH223870   2.405   5.752   5.167
 7969TIP3    H123871   2.420   5.738   5.260
 7969TIP3    H223872   2.476   5.704   5.124
 7970TIP3   OH223873   4.094   4.251   2.187
 7970TIP3    H123874   4.101   4.204   2.270
 7970TIP3    H223875   4.084   4.183   2.121
 7971TIP3   OH223876   1.547   3.780   3.999
 7971TIP3    H123877   1.604   3.770   4.075
 7971TIP3    H223878   1.493   3.702   3.998
 7972TIP3   OH223879   1.711   0.396   4.507
 7972TIP3    H123880   1.709   0.470   4.568
 7972TIP3    H223881   1.637   0.341   4.533
 7973TIP3   OH223882   3.061   0.897   2.351
 7973TIP3    H123883   3.055   0.898   2.255
 7973TIP3    H223884   2.978   0.859   2.380
 7974TIP3   OH223885   4.738   0.624   4.188
 7974TIP3    H123886   4.780   0.698   4.233
 7974TIP3    H223887   4.811   0.569   4.161
 7975TIP3   OH223888   5.289   3.522   5.236
 7975TIP3    H123889   5.383   3.521   5.256
 7975TIP3    H223890   5.280   3.456   5.167
 7976TIP3   OH223891   3.453   1.480   0.807
 7976TIP3    H123892   3.383   1.537   0.838
 7976TIP3    H223893   3.484   1.435   0.885
 7977TIP3   OH223894   4.945   3.454   5.636
 7977TIP3    H123895   4.886   3.467   5.562
 7977TIP3    H223896   4.988   3.538   5.648
 7978TIP3   OH223897   1.728   5.951   4.294
 7978TIP3    H123898   1.806   6.007   4.293
 7978TIP3    H223899   1.748   5.885   4.361
 7979TIP3   OH223900   3.401   6.755   2.035
 7979TIP3    H123901   3.317   6.762   2.082
 7979TIP3    H223902   3.449   6.833   2.062
 7980TIP3   OH223903   6.770   0.953   1.934
 7980TIP3    H123904   6.773   1.018   1.864
 7980TIP3    H223905   6.822   0.991   2.005
 7981TIP3   OH223906   2.083   5.431   5.429
 7981TIP3    H123907   2.161   5.413   5.377
 7981TIP3    H223908   2.095   5.520   5.462
 7982TIP3   OH223909   1.484   6.516   3.854
 7982TIP3    H123910   1.406   6.462   3.835
 7982TIP3    H223911   1.546   6.455   3.895
 7983TIP3   OH223912   1.585   0.346   5.440
 7983TIP3    H123913   1.640   0.406   5.491
 7983TIP3    H223914   1.585   0.383   5.352
 7984TIP3   OH223915   2.661   0.069   5.583
 7984TIP3    H123916   2.603   0.041   5.654
 7984TIP3    H223917   2.640   0.161   5.570
 7985TIP3   OH223918   6.966   4.746   5.862
 7985TIP3    H123919   7.011   4.672   5.903
 7985TIP3    H223920   7.013   4.760   5.780
 7986TIP3   OH223921   5.597   3.931   4.146
 7986TIP3    H123922   5.618   3.995   4.079
 7986TIP3    H223923   5.502   3.930   4.151
 7987TIP3   OH223924   4.728   5.289   5.671
 7987TIP3    H123925   4.717   5.382   5.693
 7987TIP3    H223926   4.708   5.243   5.753
 7988TIP3   OH223927   5.538   3.164   4.545
 7988TIP3    H123928   5.531   3.201   4.457
 7988TIP3    H223929   5.625   3.191   4.576
 7989TIP3   OH223930   2.811   0.847   2.408
 7989TIP3    H123931   2.754   0.884   2.341
 7989TIP3    H223932   2.753   0.825   2.480
 7990TIP3   OH223933   2.155   5.782   5.064
 7990TIP3    H123934   2.181   5.797   4.973
 7990TIP3    H223935   2.232   5.741   5.104
 7991TIP3   OH223936   1.701   5.249   2.062
 7991TIP3    H123937   1.711   5.167   2.111
 7991TIP3    H223938   1.703   5.317   2.130
 7992TIP3   OH223939   0.367   0.959   3.470
 7992TIP3    H123940   0.281   0.955   3.511
 7992TIP3    H223941   0.384   0.869   3.441
 7993TIP3   OH223942   1.224   4.277   2.661
 7993TIP3    H123943   1.261   4.207   2.714
 7993TIP3    H223944   1.130   4.260   2.662
 7994TIP3   OH223945   3.120   0.579   2.915
 7994TIP3    H123946   3.103   0.579   3.009
 7994TIP3    H223947   3.056   0.640   2.879
 7995TIP3   OH223948   6.818   2.771   5.618
 7995TIP3    H123949   6.821   2.687   5.664
 7995TIP3    H223950   6.901   2.775   5.571
 7996TIP3   OH223951   0.366   1.921   0.023
 7996TIP3    H123952   0.450   1.876   0.032
 7996TIP3    H223953   0.351   1.963   0.107
 7997TIP3   OH223954   6.673   1.484   1.172
 7997TIP3    H123955   6.756   1.491   1.221
 7997TIP3    H223956   6.623   1.419   1.220
 7998TIP3   OH223957   0.230   0.933   1.444
 7998TIP3    H123958   0.274   0.968   1.367
 7998TIP3    H223959   0.261   0.843   1.452
 7999TIP3   OH223960   5.160   1.003   0.707
 7999TIP3    H123961   5.065   0.993   0.712
 7999TIP3    H223962   5.193   0.945   0.775
 8000TIP3   OH223963   4.286   2.787   2.004
 8000TIP3    H123964   4.256   2.842   2.076
 8000TIP3    H223965   4.363   2.742   2.038
 8001TIP3   OH223966   0.915   4.534   1.570
 8001TIP3    H123967   0.850   4.475   1.609
 8001TIP3    H223968   0.999   4.493   1.591
 8002TIP3   OH223969   3.400   0.343   5.309
 8002TIP3    H123970   3.305   0.355   5.303
 8002TIP3    H223971   3.412   0.279   5.379
 8003TIP3   OH223972   0.529   2.531   4.311
 8003TIP3    H123973   0.518   2.599   4.245
 8003TIP3    H223974   0.500   2.451   4.268
 8004TIP3   OH223975   0.531   0.371   1.552
 8004TIP3    H123976   0.465   0.388   1.484
 8004TIP3    H223977   0.485   0.383   1.634
 8005TIP3   OH223978   5.051   4.476   4.835
 8005TIP3    H123979   4.957   4.464   4.847
 8005TIP3    H223980   5.077   4.406   4.775
 8006TIP3   OH223981   6.399   6.281   1.868
 8006TIP3    H123982   6.304   6.288   1.866
 8006TIP3    H223983   6.420   6.224   1.794
 8007TIP3   OH223984   1.519   1.503   1.752
 8007TIP3    H123985   1.607   1.469   1.763
 8007TIP3    H223986   1.532   1.592   1.719
 8008TIP3   OH223987   4.395   3.102   1.777
 8008TIP3    H123988   4.301   3.108   1.793
 8008TIP3    H223989   4.409   3.014   1.743
 8009TIP3   OH223990   2.447   3.696   4.920
 8009TIP3    H123991   2.403   3.660   4.998
 8009TIP3    H223992   2.476   3.783   4.947
 8010TIP3   OH223993   2.679   1.375   1.500
 8010TIP3    H123994   2.715   1.457   1.466
 8010TIP3    H223995   2.610   1.351   1.438
 8011TIP3   OH223996   5.746   1.090   1.038
 8011TIP3    H123997   5.670   1.145   1.059
 8011TIP3    H223998   5.814   1.152   1.011
 8012TIP3   OH223999   4.622   1.291   2.717
 8012TIP3    H124000   4.598   1.382   2.736
 8012TIP3    H224001   4.560   1.264   2.649
 8013TIP3   OH224002   3.573   2.429   1.498
 8013TIP3    H124003   3.560   2.452   1.406
 8013TIP3    H224004   3.665   2.447   1.515
 8014TIP3   OH224005   4.790   1.394   3.047
 8014TIP3    H124006   4.700   1.405   3.016
 8014TIP3    H224007   4.826   1.324   2.993
 8015TIP3   OH224008   4.942   2.572   2.626
 8015TIP3    H124009   4.991   2.515   2.685
 8015TIP3    H224010   4.919   2.516   2.552
 8016TIP3   OH224011   0.231   5.033   5.874
 8016TIP3    H124012   0.244   5.102   5.809
 8016TIP3    H224013   0.137   5.024   5.882
 8017TIP3   OH224014   4.675   1.787   1.331
 8017TIP3    H124015   4.686   1.871   1.287
 8017TIP3    H224016   4.658   1.725   1.260
 8018TIP3   OH224017   4.826   6.376   2.911
 8018TIP3    H124018   4.894   6.368   2.844
 8018TIP3    H224019   4.798   6.467   2.907
 8019TIP3   OH224020   5.463   2.053   2.484
 8019TIP3    H124021   5.516   2.108   2.540
 8019TIP3    H224022   5.429   1.985   2.542
 8020TIP3   OH224023   3.150   1.725   4.583
 8020TIP3    H124024   3.222   1.670   4.555
 8020TIP3    H224025   3.085   1.717   4.513
 8021TIP3   OH224026   5.277   2.048   3.214
 8021TIP3    H124027   5.321   1.965   3.229
 8021TIP3    H224028   5.212   2.029   3.146
 8022TIP3   OH224029   7.147   0.206   1.321
 8022TIP3    H124030   7.194   0.167   1.247
 8022TIP3    H224031   7.209   0.268   1.358
 8023TIP3   OH224032   6.518   1.053   3.974
 8023TIP3    H124033   6.442   1.105   3.948
 8023TIP3    H224034   6.480   0.971   4.006
 8024TIP3   OH224035   1.072   5.799   5.881
 8024TIP3    H124036   1.018   5.729   5.917
 8024TIP3    H224037   1.128   5.756   5.816
 8025TIP3   OH224038   3.934   1.086   5.911
 8025TIP3    H124039   4.013   1.131   5.939
 8025TIP3    H224040   3.897   1.142   5.843
 8026TIP3   OH224041   0.210   4.987   3.800
 8026TIP3    H124042   0.210   4.976   3.704
 8026TIP3    H224043   0.302   4.997   3.823
 8027TIP3   OH224044   3.520   4.037   3.456
 8027TIP3    H124045   3.565   4.002   3.533
 8027TIP3    H224046   3.436   4.068   3.491
 8028TIP3   OH224047   6.030   2.706   2.741
 8028TIP3    H124048   5.962   2.772   2.726
 8028TIP3    H224049   6.104   2.736   2.687
 8029TIP3   OH224050   5.622   3.077   5.477
 8029TIP3    H124051   5.616   3.144   5.545
 8029TIP3    H224052   5.539   3.029   5.483
 8030TIP3   OH224053   5.919   5.396   2.242
 8030TIP3    H124054   5.864   5.474   2.245
 8030TIP3    H224055   5.932   5.379   2.148
 8031TIP3   OH224056   0.704   2.518   5.442
 8031TIP3    H124057   0.628   2.544   5.494
 8031TIP3    H224058   0.680   2.432   5.407
 8032TIP3   OH224059   3.575   0.199   5.754
 8032TIP3    H124060   3.649   0.142   5.736
 8032TIP3    H224061   3.565   0.252   5.675
 8033TIP3   OH224062   0.598   2.612   4.875
 8033TIP3    H124063   0.596   2.703   4.845
 8033TIP3    H224064   0.544   2.565   4.812
 8034TIP3   OH224065   2.054   2.978   4.553
 8034TIP3    H124066   2.083   3.051   4.498
 8034TIP3    H224067   2.089   2.900   4.510
 8035TIP3   OH224068   1.193   3.638   5.007
 8035TIP3    H124069   1.183   3.552   5.048
 8035TIP3    H224070   1.260   3.681   5.060
 8036TIP3   OH224071   2.120   4.040   4.384
 8036TIP3    H124072   2.192   3.977   4.374
 8036TIP3    H224073   2.133   4.077   4.471
 8037TIP3   OH224074   6.233   5.775   4.517
 8037TIP3    H124075   6.240   5.741   4.607
 8037TIP3    H224076   6.149   5.820   4.515
 8038TIP3   OH224077   4.490   1.468   5.269
 8038TIP3    H124078   4.456   1.404   5.207
 8038TIP3    H224079   4.415   1.524   5.289
 8039TIP3   OH224080   3.527   3.190   3.969
 8039TIP3    H124081   3.569   3.229   3.893
 8039TIP3    H224082   3.443   3.158   3.936
 8040TIP3   OH224083   1.772   3.405   2.015
 8040TIP3    H124084   1.866   3.389   2.010
 8040TIP3    H224085   1.761   3.496   1.990
 8041TIP3   OH224086   2.376   2.344   0.755
 8041TIP3    H124087   2.404   2.254   0.770
 8041TIP3    H224088   2.438   2.397   0.805
 8042TIP3   OH224089   4.948   5.286   0.558
 8042TIP3    H124090   4.872   5.275   0.615
 8042TIP3    H224091   4.948   5.208   0.502
 8043TIP3   OH224092   4.094   6.639   0.214
 8043TIP3    H124093   4.041   6.717   0.200
 8043TIP3    H224094   4.041   6.567   0.179
 8044TIP3   OH224095   0.881   3.399   1.363
 8044TIP3    H124096   0.833   3.323   1.397
 8044TIP3    H224097   0.908   3.448   1.441
 8045TIP3   OH224098   1.060   4.468   1.279
 8045TIP3    H124099   1.001   4.466   1.354
 8045TIP3    H224100   1.122   4.539   1.299
 8046TIP3   OH224101   7.113   4.633   0.708
 8046TIP3    H124102   7.110   4.640   0.613
 8046TIP3    H224103   7.090   4.542   0.727
 8047TIP3   OH224104   6.249   1.867   4.144
 8047TIP3    H124105   6.192   1.794   4.170
 8047TIP3    H224106   6.338   1.833   4.154
 8048TIP3   OH224107   1.799   3.842   5.672
 8048TIP3    H124108   1.753   3.925   5.656
 8048TIP3    H224109   1.883   3.868   5.709
 8049TIP3   OH224110   0.344   5.559   5.794
 8049TIP3    H124111   0.419   5.545   5.851
 8049TIP3    H224112   0.316   5.649   5.813
 8050TIP3   OH224113   0.100   1.958   2.667
 8050TIP3    H124114   0.131   2.017   2.736
 8050TIP3    H224115   0.039   1.899   2.711
 8051TIP3   OH224116   0.971   3.672   3.316
 8051TIP3    H124117   1.001   3.672   3.225
 8051TIP3    H224118   0.889   3.720   3.315
 8052TIP3   OH224119   4.097   0.134   4.432
 8052TIP3    H124120   4.113   0.041   4.446
 8052TIP3    H224121   4.037   0.158   4.503
 8053TIP3   OH224122   4.217   0.137   4.162
 8053TIP3    H124123   4.226   0.207   4.098
 8053TIP3    H224124   4.280   0.160   4.231
 8054TIP3   OH224125   3.683   5.801   4.802
 8054TIP3    H124126   3.727   5.742   4.864
 8054TIP3    H224127   3.695   5.759   4.717
 8055TIP3   OH224128   1.957   5.721   4.135
 8055TIP3    H124129   1.874   5.679   4.154
 8055TIP3    H224130   1.933   5.807   4.101
 8056TIP3   OH224131   2.191   4.896   4.496
 8056TIP3    H124132   2.197   4.990   4.481
 8056TIP3    H224133   2.106   4.883   4.537
 8057TIP3   OH224134   3.090   6.288   0.935
 8057TIP3    H124135   3.133   6.210   0.901
 8057TIP3    H224136   3.011   6.255   0.978
 8058TIP3   OH224137   0.316   1.029   4.462
 8058TIP3    H124138   0.288   0.988   4.544
 8058TIP3    H224139   0.234   1.045   4.414
 8059TIP3   OH224140   6.030   6.077   5.642
 8059TIP3    H124141   5.998   6.093   5.731
 8059TIP3    H224142   6.076   5.993   5.648
 8060TIP3   OH224143   1.699   0.047   5.623
 8060TIP3    H124144   1.683  -0.043   5.651
 8060TIP3    H224145   1.630   0.098   5.665
 8061TIP3   OH224146   6.613   2.490   3.851
 8061TIP3    H124147   6.648   2.427   3.788
 8061TIP3    H224148   6.685   2.552   3.865
 8062TIP3   OH224149   1.036   0.782   5.493
 8062TIP3    H124150   1.015   0.720   5.424
 8062TIP3    H224151   1.073   0.729   5.563
 8063TIP3   OH224152   4.733   3.690   4.352
 8063TIP3    H124153   4.658   3.645   4.313
 8063TIP3    H224154   4.773   3.625   4.409
 8064TIP3   OH224155   6.434   1.021   1.884
 8064TIP3    H124156   6.361   0.965   1.910
 8064TIP3    H224157   6.507   0.993   1.940
 8065TIP3   OH224158   6.193   1.751   5.490
 8065TIP3    H124159   6.234   1.837   5.490
 8065TIP3    H224160   6.265   1.689   5.477
 8066TIP3   OH224161   4.046   5.030   2.535
 8066TIP3    H124162   4.050   4.993   2.447
 8066TIP3    H224163   4.018   4.957   2.590
 8067TIP3   OH224164   6.561   1.661   2.954
 8067TIP3    H124165   6.651   1.687   2.936
 8067TIP3    H224166   6.550   1.674   3.048
 8068TIP3   OH224167   2.375   6.624   3.371
 8068TIP3    H124168   2.386   6.603   3.463
 8068TIP3    H224169   2.329   6.549   3.334
 8069TIP3   OH224170   4.914   0.998   1.374
 8069TIP3    H124171   4.868   0.937   1.318
 8069TIP3    H224172   4.998   1.013   1.331
 8070TIP3   OH224173   6.891   2.945   0.707
 8070TIP3    H124174   6.876   3.026   0.755
 8070TIP3    H224175   6.833   2.950   0.631
 8071TIP3   OH224176   3.871   0.169   1.858
 8071TIP3    H124177   3.866   0.131   1.771
 8071TIP3    H224178   3.841   0.259   1.847
 8072TIP3   OH224179   0.277   4.213   0.312
 8072TIP3    H124180   0.270   4.118   0.325
 8072TIP3    H224181   0.359   4.236   0.355
 8073TIP3   OH224182   3.165   3.198   4.959
 8073TIP3    H124183   3.240   3.158   5.002
 8073TIP3    H224184   3.166   3.162   4.870
 8074TIP3   OH224185   6.176   0.617   0.613
 8074TIP3    H124186   6.217   0.562   0.680
 8074TIP3    H224187   6.125   0.556   0.560
 8075TIP3   OH224188   5.736   6.169   4.379
 8075TIP3    H124189   5.757   6.241   4.320
 8075TIP3    H224190   5.810   6.165   4.439
 8076TIP3   OH224191   0.218   4.366   2.762
 8076TIP3    H124192   0.195   4.428   2.831
 8076TIP3    H224193   0.253   4.290   2.808
 8077TIP3   OH224194   6.237   6.645   5.063
 8077TIP3    H124195   6.237   6.701   4.985
 8077TIP3    H224196   6.255   6.704   5.136
 8078TIP3   OH224197   0.350   1.144   4.960
 8078TIP3    H124198   0.281   1.210   4.969
 8078TIP3    H224199   0.368   1.115   5.049
 8079TIP3   OH224200   0.614   4.572   1.624
 8079TIP3    H124201   0.580   4.660   1.607
 8079TIP3    H224202   0.574   4.517   1.558
 8080TIP3   OH224203   2.822   0.578   3.936
 8080TIP3    H124204   2.842   0.496   3.891
 8080TIP3    H224205   2.742   0.610   3.894
 8081TIP3   OH224206   3.095   4.981   1.015
 8081TIP3    H124207   3.123   5.073   1.012
 8081TIP3    H224208   3.174   4.932   0.991
 8082TIP3   OH224209   3.612   5.691   2.174
 8082TIP3    H124210   3.674   5.681   2.102
 8082TIP3    H224211   3.632   5.619   2.233
 8083TIP3   OH224212   4.685   6.552   4.770
 8083TIP3    H124213   4.663   6.461   4.787
 8083TIP3    H224214   4.779   6.558   4.787
 8084TIP3   OH224215   4.930   4.106   3.078
 8084TIP3    H124216   4.995   4.125   3.010
 8084TIP3    H224217   4.978   4.057   3.145
 8085TIP3   OH224218   6.193   2.658   0.391
 8085TIP3    H124219   6.234   2.590   0.337
 8085TIP3    H224220   6.254   2.670   0.464
 8086TIP3   OH224221   1.795   6.552   0.517
 8086TIP3    H124222   1.702   6.575   0.524
 8086TIP3    H224223   1.817   6.518   0.603
 8087TIP3   OH224224   5.849   1.202   5.659
 8087TIP3    H124225   5.904   1.183   5.582
 8087TIP3    H224226   5.814   1.117   5.685
 8088TIP3   OH224227   3.489   2.122   4.311
 8088TIP3    H124228   3.546   2.179   4.260
 8088TIP3    H224229   3.465   2.173   4.388
 8089TIP3   OH224230   2.160   1.525   1.278
 8089TIP3    H124231   2.126   1.436   1.287
 8089TIP3    H224232   2.099   1.579   1.328
 8090TIP3   OH224233   3.655   3.875   1.918
 8090TIP3    H124234   3.708   3.848   1.843
 8090TIP3    H224235   3.619   3.793   1.953
 8091TIP3   OH224236   0.222   1.334   4.755
 8091TIP3    H124237   0.158   1.265   4.736
 8091TIP3    H224238   0.168   1.413   4.768
 8092TIP3   OH224239   2.044   0.128   5.028
 8092TIP3    H124240   2.075   0.037   5.019
 8092TIP3    H224241   2.120   0.175   5.062
 8093TIP3   OH224242   4.659   6.508   2.496
 8093TIP3    H124243   4.655   6.600   2.469
 8093TIP3    H224244   4.642   6.511   2.590
 8094TIP3   OH224245   1.239   3.276   3.212
 8094TIP3    H124246   1.215   3.350   3.268
 8094TIP3    H224247   1.293   3.220   3.267
 8095TIP3   OH224248   4.769   6.705   1.247
 8095TIP3    H124249   4.827   6.682   1.174
 8095TIP3    H224250   4.681   6.690   1.213
 8096TIP3   OH224251   0.573   0.087   3.014
 8096TIP3    H124252   0.518   0.142   2.958
 8096TIP3    H224253   0.514   0.056   3.082
 8097TIP3   OH224254   2.790   1.386   4.124
 8097TIP3    H124255   2.705   1.342   4.122
 8097TIP3    H224256   2.782   1.456   4.059
 8098TIP3   OH224257   4.262   0.972   3.792
 8098TIP3    H124258   4.182   0.944   3.836
 8098TIP3    H224259   4.267   1.066   3.809
 8099TIP3   OH224260   0.884   6.494   3.834
 8099TIP3    H124261   0.905   6.405   3.862
 8099TIP3    H224262   0.965   6.525   3.793
 8100TIP3   OH224263   1.285   4.994   0.824
 8100TIP3    H124264   1.344   4.922   0.847
 8100TIP3    H224265   1.315   5.023   0.738
 8101TIP3   OH224266   1.143   0.713   0.801
 8101TIP3    H124267   1.110   0.646   0.861
 8101TIP3    H224268   1.179   0.781   0.858
 8102TIP3   OH224269   1.628   0.147   3.745
 8102TIP3    H124270   1.620   0.052   3.753
 8102TIP3    H224271   1.538   0.179   3.739
 8103TIP3   OH224272   2.730   5.927   5.258
 8103TIP3    H124273   2.809   5.931   5.204
 8103TIP3    H224274   2.697   5.838   5.244
 8104TIP3   OH224275   3.684   1.905   1.486
 8104TIP3    H124276   3.676   1.998   1.465
 8104TIP3    H224277   3.682   1.861   1.401
 8105TIP3   OH224278   0.361   5.081   1.852
 8105TIP3    H124279   0.292   5.031   1.810
 8105TIP3    H224280   0.360   5.051   1.943
 8106TIP3   OH224281   3.263   2.757   0.588
 8106TIP3    H124282   3.200   2.767   0.517
 8106TIP3    H224283   3.237   2.821   0.653
 8107TIP3   OH224284   2.087   6.773   3.497
 8107TIP3    H124285   2.165   6.720   3.516
 8107TIP3    H224286   2.098   6.799   3.406
 8108TIP3   OH224287   0.091   5.260   3.753
 8108TIP3    H124288   0.066   5.212   3.832
 8108TIP3    H224289   0.086   5.194   3.683
 8109TIP3   OH224290   6.397   4.903   0.212
 8109TIP3    H124291   6.441   4.944   0.138
 8109TIP3    H224292   6.389   4.973   0.277
 8110TIP3   OH224293   0.941   5.273   3.390
 8110TIP3    H124294   0.884   5.197   3.377
 8110TIP3    H224295   0.965   5.301   3.302
 8111TIP3   OH224296   2.585   0.497   0.036
 8111TIP3    H124297   2.616   0.580  -0.001
 8111TIP3    H224298   2.585   0.436  -0.038
 8112TIP3   OH224299   0.042   2.831   2.777
 8112TIP3    H124300   0.064   2.746   2.816
 8112TIP3    H224301   0.127   2.874   2.765
 8113TIP3   OH224302   5.336   6.278   4.905
 8113TIP3    H124303   5.322   6.241   4.992
 8113TIP3    H224304   5.411   6.230   4.870
 8114TIP3   OH224305   2.842   1.632   1.650
 8114TIP3    H124306   2.786   1.695   1.696
 8114TIP3    H224307   2.811   1.634   1.559
 8115TIP3   OH224308   3.293   3.666   4.336
 8115TIP3    H124309   3.368   3.611   4.313
 8115TIP3    H224310   3.324   3.756   4.322
 8116TIP3   OH224311   0.292   0.017   2.017
 8116TIP3    H124312   0.306  -0.005   2.109
 8116TIP3    H224313   0.373   0.061   1.990
 8117TIP3   OH224314   4.847   4.941   3.364
 8117TIP3    H124315   4.912   5.008   3.344
 8117TIP3    H224316   4.826   4.902   3.279
 8118TIP3   OH224317   3.345   1.542   4.551
 8118TIP3    H124318   3.440   1.540   4.563
 8118TIP3    H224319   3.332   1.516   4.460
 8119TIP3   OH224320   5.576   5.474   1.692
 8119TIP3    H124321   5.614   5.461   1.605
 8119TIP3    H224322   5.637   5.433   1.752
 8120TIP3   OH224323   3.001   0.213   1.119
 8120TIP3    H124324   3.085   0.206   1.165
 8120TIP3    H224325   3.014   0.163   1.038
 8121TIP3   OH224326   4.104   5.292   4.180
 8121TIP3    H124327   4.092   5.360   4.114
 8121TIP3    H224328   4.015   5.266   4.203
 8122TIP3   OH224329   6.162   5.514   2.014
 8122TIP3    H124330   6.204   5.594   1.985
 8122TIP3    H224331   6.230   5.466   2.062
 8123TIP3   OH224332   1.275   1.494   1.898
 8123TIP3    H124333   1.358   1.473   1.855
 8123TIP3    H224334   1.253   1.415   1.947
 8124TIP3   OH224335   0.773   1.061   0.095
 8124TIP3    H124336   0.852   1.052   0.149
 8124TIP3    H224337   0.805   1.051   0.005
 8125TIP3   OH224338   0.876   0.723   0.944
 8125TIP3    H124339   0.812   0.677   0.890
 8125TIP3    H224340   0.930   0.771   0.881
 8126TIP3   OH224341   4.087   3.849   1.200
 8126TIP3    H124342   4.151   3.829   1.269
 8126TIP3    H224343   4.039   3.925   1.234
 8127TIP3   OH224344   3.266   3.691   1.385
 8127TIP3    H124345   3.285   3.607   1.427
 8127TIP3    H224346   3.267   3.755   1.456
 8128TIP3   OH224347   6.546   0.631   0.400
 8128TIP3    H124348   6.483   0.654   0.332
 8128TIP3    H224349   6.506   0.661   0.482
 8129TIP3   OH224350   0.786   6.725   3.917
 8129TIP3    H124351   0.847   6.742   3.989
 8129TIP3    H224352   0.793   6.631   3.902
 8130TIP3   OH224353   1.904   6.592   2.907
 8130TIP3    H124354   1.934   6.504   2.886
 8130TIP3    H224355   1.825   6.578   2.961
 8131TIP3   OH224356   1.592   0.959   5.720
 8131TIP3    H124357   1.648   0.996   5.652
 8131TIP3    H224358   1.652   0.914   5.779
 8132TIP3   OH224359   0.935   1.627   4.976
 8132TIP3    H124360   0.988   1.666   4.906
 8132TIP3    H224361   0.895   1.550   4.937
 8133TIP3   OH224362   4.399   4.173   3.238
 8133TIP3    H124363   4.463   4.157   3.307
 8133TIP3    H224364   4.423   4.259   3.203
 8134TIP3   OH224365   1.115   5.211   3.975
 8134TIP3    H124366   1.178   5.260   3.923
 8134TIP3    H224367   1.164   5.185   4.053
 8135TIP3   OH224368   5.719   3.541   0.770
 8135TIP3    H124369   5.782   3.516   0.703
 8135TIP3    H224370   5.751   3.498   0.850
 8136TIP3   OH224371   3.589   3.025   5.777
 8136TIP3    H124372   3.605   3.111   5.816
 8136TIP3    H224373   3.532   2.981   5.840
 8137TIP3   OH224374   2.665   5.381   3.634
 8137TIP3    H124375   2.580   5.410   3.668
 8137TIP3    H224376   2.659   5.286   3.631
 8138TIP3   OH224377   2.153   1.340   3.742
 8138TIP3    H124378   2.182   1.373   3.827
 8138TIP3    H224379   2.176   1.247   3.743
 8139TIP3   OH224380   3.556   1.908   0.319
 8139TIP3    H124381   3.579   1.845   0.388
 8139TIP3    H224382   3.491   1.862   0.266
 8140TIP3   OH224383   3.476   3.317   1.156
 8140TIP3    H124384   3.436   3.337   1.241
 8140TIP3    H224385   3.424   3.245   1.121
 8141TIP3   OH224386   3.868   2.185   4.289
 8141TIP3    H124387   3.840   2.095   4.273
 8141TIP3    H224388   3.803   2.238   4.242
 8142TIP3   OH224389   2.308   3.836   1.587
 8142TIP3    H124390   2.251   3.768   1.552
 8142TIP3    H224391   2.389   3.827   1.537
 8143TIP3   OH224392   4.540   6.112   1.239
 8143TIP3    H124393   4.526   6.020   1.263
 8143TIP3    H224394   4.634   6.118   1.223
 8144TIP3   OH224395   6.110   0.419   2.663
 8144TIP3    H124396   6.072   0.346   2.614
 8144TIP3    H224397   6.051   0.431   2.737
 8145TIP3   OH224398   4.679   1.249   2.038
 8145TIP3    H124399   4.638   1.222   1.956
 8145TIP3    H224400   4.670   1.172   2.096
 8146TIP3   OH224401   7.042   1.755   5.021
 8146TIP3    H124402   6.951   1.726   5.009
 8146TIP3    H224403   7.095   1.685   4.983
 8147TIP3   OH224404   4.641   1.782   3.703
 8147TIP3    H124405   4.672   1.770   3.793
 8147TIP3    H224406   4.659   1.699   3.659
 8148TIP3   OH224407   6.159   1.734   1.635
 8148TIP3    H124408   6.083   1.683   1.661
 8148TIP3    H224409   6.186   1.779   1.716
 8149TIP3   OH224410   1.106   0.474   3.482
 8149TIP3    H124411   1.067   0.408   3.425
 8149TIP3    H224412   1.192   0.491   3.444
 8150TIP3   OH224413   4.873   5.192   2.729
 8150TIP3    H124414   4.829   5.123   2.779
 8150TIP3    H224415   4.959   5.200   2.771
 8151TIP3   OH224416   4.527   0.329   2.165
 8151TIP3    H124417   4.437   0.316   2.133
 8151TIP3    H224418   4.548   0.248   2.210
 8152TIP3   OH224419   4.380   6.720   0.723
 8152TIP3    H124420   4.445   6.680   0.665
 8152TIP3    H224421   4.331   6.780   0.666
 8153TIP3   OH224422   6.299   1.832   4.455
 8153TIP3    H124423   6.255   1.893   4.395
 8153TIP3    H224424   6.236   1.761   4.468
 8154TIP3   OH224425   3.159   1.186   0.636
 8154TIP3    H124426   3.156   1.268   0.685
 8154TIP3    H224427   3.228   1.199   0.571
 8155TIP3   OH224428   0.775   4.271   3.244
 8155TIP3    H124429   0.797   4.269   3.151
 8155TIP3    H224430   0.762   4.180   3.269
 8156TIP3   OH224431   6.819   3.483   4.013
 8156TIP3    H124432   6.900   3.436   4.035
 8156TIP3    H224433   6.785   3.513   4.097
 8157TIP3   OH224434   2.865   4.529   3.930
 8157TIP3    H124435   2.951   4.538   3.889
 8157TIP3    H224436   2.805   4.577   3.873
 8158TIP3   OH224437   4.910   3.315   5.037
 8158TIP3    H124438   4.843   3.356   4.983
 8158TIP3    H224439   4.979   3.291   4.975
 8159TIP3   OH224440   5.031   2.437   4.076
 8159TIP3    H124441   4.962   2.395   4.026
 8159TIP3    H224442   5.091   2.472   4.010
 8160TIP3   OH224443   3.103   5.774   4.322
 8160TIP3    H124444   3.170   5.774   4.390
 8160TIP3    H224445   3.055   5.692   4.335
 8161TIP3   OH224446   2.670   1.784   4.398
 8161TIP3    H124447   2.615   1.860   4.381
 8161TIP3    H224448   2.663   1.770   4.493
 8162TIP3   OH224449   0.781   0.841   3.249
 8162TIP3    H124450   0.694   0.828   3.286
 8162TIP3    H224451   0.817   0.753   3.239
 8163TIP3   OH224452   0.365   6.180   2.187
 8163TIP3    H124453   0.357   6.215   2.098
 8163TIP3    H224454   0.342   6.253   2.244
 8164TIP3   OH224455   6.156   5.407   2.941
 8164TIP3    H124456   6.215   5.414   2.866
 8164TIP3    H224457   6.071   5.386   2.904
 8165TIP3   OH224458   0.062   5.676   3.940
 8165TIP3    H124459   0.091   5.762   3.909
 8165TIP3    H224460  -0.030   5.690   3.964
 8166TIP3   OH224461   5.832   5.599   3.378
 8166TIP3    H124462   5.770   5.589   3.306
 8166TIP3    H224463   5.807   5.532   3.441
 8167TIP3   OH224464   1.615   1.211   5.148
 8167TIP3    H124465   1.658   1.296   5.139
 8167TIP3    H224466   1.588   1.207   5.240
 8168TIP3   OH224467   5.849   6.366   4.176
 8168TIP3    H124468   5.942   6.349   4.190
 8168TIP3    H224469   5.846   6.424   4.100
 8169TIP3   OH224470   5.126   3.089   5.133
 8169TIP3    H124471   5.042   3.044   5.129
 8169TIP3    H224472   5.177   3.040   5.197
 8170TIP3   OH224473   4.289   2.041   5.014
 8170TIP3    H124474   4.381   2.015   5.003
 8170TIP3    H224475   4.269   2.090   4.934
 8171TIP3   OH224476   2.118   2.195   0.394
 8171TIP3    H124477   2.033   2.234   0.417
 8171TIP3    H224478   2.162   2.263   0.343
 8172TIP3   OH224479   2.072   5.295   1.032
 8172TIP3    H124480   1.999   5.288   1.093
 8172TIP3    H224481   2.047   5.241   0.957
 8173TIP3   OH224482   3.379   4.420   3.891
 8173TIP3    H124483   3.339   4.363   3.957
 8173TIP3    H224484   3.447   4.365   3.851
 8174TIP3   OH224485   0.027   3.315   2.913
 8174TIP3    H124486  -0.009   3.288   2.998
 8174TIP3    H224487  -0.011   3.401   2.897
 8175TIP3   OH224488   2.024   0.293   0.087
 8175TIP3    H124489   2.060   0.260   0.005
 8175TIP3    H224490   1.950   0.349   0.060
 8176TIP3   OH224491   1.870   0.408   5.190
 8176TIP3    H124492   1.908   0.490   5.219
 8176TIP3    H224493   1.873   0.411   5.095
 8177TIP3   OH224494   1.522   4.741   3.064
 8177TIP3    H124495   1.434   4.728   3.100
 8177TIP3    H224496   1.519   4.827   3.023
 8178TIP3   OH224497   5.802   0.048   4.250
 8178TIP3    H124498   5.747   0.123   4.226
 8178TIP3    H224499   5.886   0.086   4.274
 8179TIP3   OH224500   4.122   4.818   1.797
 8179TIP3    H124501   4.209   4.779   1.790
 8179TIP3    H224502   4.073   4.757   1.853
 8180TIP3   OH224503   6.314   2.151   1.673
 8180TIP3    H124504   6.219   2.158   1.682
 8180TIP3    H224505   6.343   2.240   1.654
 8181TIP3   OH224506   6.764   5.492   4.924
 8181TIP3    H124507   6.797   5.580   4.909
 8181TIP3    H224508   6.842   5.437   4.928
 8182TIP3   OH224509   6.453   6.623   2.149
 8182TIP3    H124510   6.527   6.675   2.181
 8182TIP3    H224511   6.447   6.550   2.211
 8183TIP3   OH224512   6.099   1.295   3.658
 8183TIP3    H124513   6.025   1.256   3.612
 8183TIP3    H224514   6.059   1.343   3.731
 8184TIP3   OH224515   1.538   5.195   3.122
 8184TIP3    H124516   1.512   5.113   3.081
 8184TIP3    H224517   1.527   5.180   3.216
 8185TIP3   OH224518   5.856   0.025   5.756
 8185TIP3    H124519   5.935   0.071   5.727
 8185TIP3    H224520   5.784   0.082   5.729
 8186TIP3   OH224521   1.164   2.233   4.123
 8186TIP3    H124522   1.245   2.224   4.073
 8186TIP3    H224523   1.173   2.172   4.196
 8187TIP3   OH224524   5.427   4.909   1.904
 8187TIP3    H124525   5.385   4.827   1.879
 8187TIP3    H224526   5.444   4.900   1.998
 8188TIP3   OH224527   2.918   4.126   3.218
 8188TIP3    H124528   3.005   4.106   3.251
 8188TIP3    H224529   2.898   4.213   3.253
 8189TIP3   OH224530   4.755   4.842   3.132
 8189TIP3    H124531   4.776   4.788   3.056
 8189TIP3    H224532   4.680   4.799   3.172
 8190TIP3   OH224533   4.908   1.927   1.913
 8190TIP3    H124534   4.854   1.994   1.957
 8190TIP3    H224535   4.985   1.919   1.969
 8191TIP3   OH224536   6.718   0.637   4.436
 8191TIP3    H124537   6.713   0.542   4.422
 8191TIP3    H224538   6.745   0.672   4.351
 8192TIP3   OH224539   1.756   6.624   5.334
 8192TIP3    H124540   1.753   6.585   5.247
 8192TIP3    H224541   1.831   6.682   5.333
 8193TIP3   OH224542   6.154   3.669   1.854
 8193TIP3    H124543   6.231   3.630   1.814
 8193TIP3    H224544   6.184   3.754   1.887
 8194TIP3   OH224545   2.737   0.443   3.637
 8194TIP3    H124546   2.649   0.433   3.673
 8194TIP3    H224547   2.746   0.371   3.575
 8195TIP3   OH224548   1.721   1.520   2.175
 8195TIP3    H124549   1.625   1.521   2.179
 8195TIP3    H224550   1.749   1.508   2.266
 8196TIP3   OH224551   6.445   3.583   0.292
 8196TIP3    H124552   6.468   3.610   0.203
 8196TIP3    H224553   6.382   3.512   0.281
 8197TIP3   OH224554   0.390   1.497   1.411
 8197TIP3    H124555   0.464   1.448   1.376
 8197TIP3    H224556   0.367   1.558   1.341
 8198TIP3   OH224557   0.886   5.549   3.089
 8198TIP3    H124558   0.797   5.578   3.112
 8198TIP3    H224559   0.941   5.582   3.160
 8199TIP3   OH224560   5.059   5.482   0.983
 8199TIP3    H124561   5.074   5.424   0.909
 8199TIP3    H224562   5.034   5.565   0.943
 8200TIP3   OH224563   3.120   2.495   0.115
 8200TIP3    H124564   3.151   2.521   0.029
 8200TIP3    H224565   3.034   2.535   0.123
 8201TIP3   OH224566   4.354   3.376   5.731
 8201TIP3    H124567   4.323   3.299   5.682
 8201TIP3    H224568   4.449   3.373   5.722
 8202TIP3   OH224569   1.980   2.733   3.560
 8202TIP3    H124570   1.885   2.728   3.566
 8202TIP3    H224571   1.998   2.741   3.466
 8203TIP3   OH224572   7.095   0.623   5.449
 8203TIP3    H124573   7.027   0.570   5.408
 8203TIP3    H224574   7.052   0.660   5.527
 8204TIP3   OH224575   3.727   5.700   0.369
 8204TIP3    H124576   3.749   5.793   0.375
 8204TIP3    H224577   3.798   5.656   0.416
 8205TIP3   OH224578   2.722   3.379   2.520
 8205TIP3    H124579   2.800   3.430   2.495
 8205TIP3    H224580   2.682   3.354   2.437
 8206TIP3   OH224581   1.062   4.497   2.753
 8206TIP3    H124582   1.128   4.452   2.700
 8206TIP3    H224583   1.098   4.584   2.767
 8207TIP3   OH224584   6.303   5.896   5.323
 8207TIP3    H124585   6.207   5.899   5.316
 8207TIP3    H224586   6.322   5.936   5.408
 8208TIP3   OH224587   0.568   3.114   3.740
 8208TIP3    H124588   0.512   3.150   3.671
 8208TIP3    H224589   0.560   3.176   3.812
 8209TIP3   OH224590   4.770   3.676   1.188
 8209TIP3    H124591   4.681   3.644   1.176
 8209TIP3    H224592   4.760   3.766   1.219
 8210TIP3   OH224593   5.673   5.275   4.502
 8210TIP3    H124594   5.687   5.324   4.422
 8210TIP3    H224595   5.591   5.229   4.488
 8211TIP3   OH224596   3.161   2.077   5.209
 8211TIP3    H124597   3.128   2.164   5.191
 8211TIP3    H224598   3.094   2.018   5.175
 8212TIP3   OH224599   1.346   4.103   4.373
 8212TIP3    H124600   1.361   4.012   4.398
 8212TIP3    H224601   1.316   4.099   4.283
 8213TIP3   OH224602   7.065   3.710   0.963
 8213TIP3    H124603   7.107   3.774   0.906
 8213TIP3    H224604   7.013   3.762   1.024
 8214TIP3   OH224605   4.152   1.944   0.579
 8214TIP3    H124606   4.151   2.036   0.608
 8214TIP3    H224607   4.210   1.944   0.503
 8215TIP3   OH224608   1.577   1.099   2.639
 8215TIP3    H124609   1.667   1.132   2.630
 8215TIP3    H224610   1.582   1.008   2.609
 8216TIP3   OH224611   1.734   0.763   1.051
 8216TIP3    H124612   1.727   0.668   1.051
 8216TIP3    H224613   1.644   0.794   1.062
 8217TIP3   OH224614   0.507   1.281   4.042
 8217TIP3    H124615   0.506   1.326   4.126
 8217TIP3    H224616   0.599   1.280   4.015
 8218TIP3   OH224617   2.258   4.649   0.266
 8218TIP3    H124618   2.216   4.578   0.218
 8218TIP3    H224619   2.333   4.608   0.310
 8219TIP3   OH224620   3.615   6.040   1.474
 8219TIP3    H124621   3.656   6.126   1.460
 8219TIP3    H224622   3.650   6.011   1.558
 8220TIP3   OH224623   6.822   5.229   3.772
 8220TIP3    H124624   6.847   5.316   3.743
 8220TIP3    H224625   6.845   5.172   3.699
 8221TIP3   OH224626   1.403   6.603   1.758
 8221TIP3    H124627   1.448   6.593   1.841
 8221TIP3    H224628   1.472   6.606   1.692
 8222TIP3   OH224629   6.499   0.436   4.188
 8222TIP3    H124630   6.443   0.409   4.115
 8222TIP3    H224631   6.572   0.482   4.147
 8223TIP3   OH224632   6.059   1.654   3.437
 8223TIP3    H124633   5.996   1.725   3.449
 8223TIP3    H224634   6.116   1.686   3.367
 8224TIP3   OH224635   5.512   4.244   5.698
 8224TIP3    H124636   5.592   4.296   5.693
 8224TIP3    H224637   5.529   4.181   5.768
 8225TIP3   OH224638   0.411   3.142   4.268
 8225TIP3    H124639   0.386   3.050   4.271
 8225TIP3    H224640   0.332   3.187   4.240
 8226TIP3   OH224641   1.894   5.958   4.680
 8226TIP3    H124642   1.800   5.943   4.691
 8226TIP3    H224643   1.913   6.033   4.736
 8227TIP3   OH224644   3.371   5.710   2.510
 8227TIP3    H124645   3.465   5.701   2.526
 8227TIP3    H224646   3.332   5.709   2.597
 8228TIP3   OH224647   3.863   5.782   4.283
 8228TIP3    H124648   3.845   5.846   4.213
 8228TIP3    H224649   3.959   5.776   4.284
 8229TIP3   OH224650   2.420   1.847   5.685
 8229TIP3    H124651   2.476   1.896   5.625
 8229TIP3    H224652   2.343   1.903   5.697
 8230TIP3   OH224653   1.045   0.595   4.440
 8230TIP3    H124654   1.136   0.568   4.449
 8230TIP3    H224655   0.999   0.552   4.512
 8231TIP3   OH224656   6.648   0.549   5.577
 8231TIP3    H124657   6.676   0.463   5.546
 8231TIP3    H224658   6.607   0.590   5.500
 8232TIP3   OH224659   3.506   3.621   4.568
 8232TIP3    H124660   3.566   3.556   4.534
 8232TIP3    H224661   3.562   3.692   4.599
 8233TIP3   OH224662   1.604   6.566   1.964
 8233TIP3    H124663   1.683   6.565   1.909
 8233TIP3    H224664   1.633   6.606   2.046
 8234TIP3   OH224665   2.387   1.205   0.654
 8234TIP3    H124666   2.365   1.127   0.603
 8234TIP3    H224667   2.406   1.171   0.742
 8235TIP3   OH224668   2.627   5.531   4.852
 8235TIP3    H124669   2.684   5.478   4.796
 8235TIP3    H224670   2.621   5.615   4.807
 8236TIP3   OH224671   3.400   0.521   0.546
 8236TIP3    H124672   3.401   0.463   0.622
 8236TIP3    H224673   3.472   0.489   0.491
 8237TIP3   OH224674   5.167   2.482   0.293
 8237TIP3    H124675   5.190   2.524   0.210
 8237TIP3    H224676   5.203   2.540   0.360
 8238TIP3   OH224677   7.084   4.845   0.016
 8238TIP3    H124678   7.017   4.884   0.072
 8238TIP3    H224679   7.098   4.910  -0.053
 8239TIP3   OH224680   2.750   6.333   3.632
 8239TIP3    H124681   2.666   6.287   3.629
 8239TIP3    H224682   2.775   6.330   3.724
 8240TIP3   OH224683   4.184   1.213   3.931
 8240TIP3    H124684   4.189   1.299   3.973
 8240TIP3    H224685   4.202   1.151   4.001
 8241TIP3   OH224686   1.451   5.103   1.955
 8241TIP3    H124687   1.539   5.091   1.991
 8241TIP3    H224688   1.411   5.170   2.011
 8242TIP3   OH224689   5.868   0.466   0.238
 8242TIP3    H124690   5.959   0.465   0.207
 8242TIP3    H224691   5.817   0.434   0.164
 8243TIP3   OH224692   3.953   4.176   3.828
 8243TIP3    H124693   4.043   4.200   3.848
 8243TIP3    H224694   3.959   4.124   3.747
 8244TIP3   OH224695   5.590   5.756   3.485
 8244TIP3    H124696   5.655   5.688   3.467
 8244TIP3    H224697   5.566   5.742   3.577
 8245TIP3   OH224698   5.997   4.100   1.017
 8245TIP3    H124699   6.062   4.030   1.010
 8245TIP3    H224700   6.033   4.160   1.082
 8246TIP3   OH224701   1.628   6.209   0.776
 8246TIP3    H124702   1.570   6.210   0.700
 8246TIP3    H224703   1.602   6.132   0.825
 8247TIP3   OH224704   1.980   6.611   0.022
 8247TIP3    H124705   1.942   6.696   0.044
 8247TIP3    H224706   1.949   6.593  -0.067
 8248TIP3   OH224707   1.591   6.592   2.864
 8248TIP3    H124708   1.585   6.500   2.838
 8248TIP3    H224709   1.535   6.599   2.941
 8249TIP3   OH224710   6.246   1.728   0.531
 8249TIP3    H124711   6.234   1.821   0.511
 8249TIP3    H224712   6.161   1.688   0.512
 8250TIP3   OH224713   4.916   3.518   1.817
 8250TIP3    H124714   4.999   3.474   1.837
 8250TIP3    H224715   4.904   3.580   1.889
 8251TIP3   OH224716   6.906   5.228   2.421
 8251TIP3    H124717   6.990   5.198   2.387
 8251TIP3    H224718   6.845   5.156   2.402
 8252TIP3   OH224719   5.301   0.894   0.923
 8252TIP3    H124720   5.322   0.916   1.014
 8252TIP3    H224721   5.356   0.818   0.904
 8253TIP3   OH224722   1.023   4.967   0.232
 8253TIP3    H124723   1.036   5.001   0.320
 8253TIP3    H224724   1.022   4.872   0.243
 8254TIP3   OH224725   4.340   4.311   0.491
 8254TIP3    H124726   4.399   4.382   0.468
 8254TIP3    H224727   4.259   4.331   0.444
 8255TIP3   OH224728   5.061   0.416   3.336
 8255TIP3    H124729   5.035   0.414   3.244
 8255TIP3    H224730   5.050   0.508   3.362
 8256TIP3   OH224731   4.611   3.894   1.342
 8256TIP3    H124732   4.666   3.909   1.419
 8256TIP3    H224733   4.582   3.804   1.350
 8257TIP3   OH224734   2.220   2.280   5.812
 8257TIP3    H124735   2.294   2.225   5.784
 8257TIP3    H224736   2.210   2.344   5.741
 8258TIP3   OH224737   4.480   4.873   1.141
 8258TIP3    H124738   4.399   4.857   1.092
 8258TIP3    H224739   4.480   4.968   1.156
 8259TIP3   OH224740   5.680   0.821   2.657
 8259TIP3    H124741   5.610   0.886   2.657
 8259TIP3    H224742   5.758   0.870   2.684
 8260TIP3   OH224743   0.493   6.808   0.687
 8260TIP3    H124744   0.561   6.745   0.662
 8260TIP3    H224745   0.457   6.839   0.604
 8261TIP3   OH224746   4.865   0.417   3.992
 8261TIP3    H124747   4.960   0.403   3.997
 8261TIP3    H224748   4.829   0.333   3.963
 8262TIP3   OH224749   0.545   0.630   4.612
 8262TIP3    H124750   0.509   0.567   4.675
 8262TIP3    H224751   0.521   0.594   4.526
 8263TIP3   OH224752   3.695   2.651   5.848
 8263TIP3    H124753   3.610   2.656   5.805
 8263TIP3    H224754   3.757   2.687   5.785
 8264TIP3   OH224755   5.208   2.766   5.770
 8264TIP3    H124756   5.117   2.779   5.743
 8264TIP3    H224757   5.210   2.790   5.863
 8265TIP3   OH224758   3.921   1.972   0.987
 8265TIP3    H124759   3.964   1.900   0.940
 8265TIP3    H224760   3.951   1.963   1.077
 8266TIP3   OH224761   5.020   5.703   0.037
 8266TIP3    H124762   5.073   5.663  -0.032
 8266TIP3    H224763   4.981   5.628   0.083
 8267TIP3   OH224764   7.009   3.419   0.565
 8267TIP3    H124765   6.959   3.442   0.643
 8267TIP3    H224766   6.970   3.336   0.536
 8268TIP3   OH224767   6.852   3.190   0.374
 8268TIP3    H124768   6.832   3.197   0.280
 8268TIP3    H224769   6.774   3.148   0.411
 8269TIP3   OH224770   1.748   2.389   4.966
 8269TIP3    H124771   1.667   2.435   4.990
 8269TIP3    H224772   1.725   2.337   4.890
 8270TIP3   OH224773   4.382   1.070   0.597
 8270TIP3    H124774   4.290   1.096   0.602
 8270TIP3    H224775   4.412   1.104   0.513
 8271TIP3   OH224776   0.679   1.479   0.278
 8271TIP3    H124777   0.657   1.401   0.227
 8271TIP3    H224778   0.596   1.508   0.316
 8272TIP3   OH224779   3.139   0.255   5.587
 8272TIP3    H124780   3.186   0.338   5.585
 8272TIP3    H224781   3.134   0.233   5.680
 8273TIP3   OH224782   6.849   5.142   4.280
 8273TIP3    H124783   6.937   5.177   4.295
 8273TIP3    H224784   6.857   5.086   4.203
 8274TIP3   OH224785   3.561   2.860   5.525
 8274TIP3    H124786   3.557   2.864   5.621
 8274TIP3    H224787   3.607   2.940   5.500
 8275TIP3   OH224788   1.007   5.213   1.482
 8275TIP3    H124789   1.003   5.250   1.570
 8275TIP3    H224790   0.924   5.166   1.471
 8276TIP3   OH224791   5.412   1.162   0.923
 8276TIP3    H124792   5.488   1.181   0.867
 8276TIP3    H224793   5.381   1.077   0.893
 8277TIP3   OH224794   0.596   4.901   1.384
 8277TIP3    H124795   0.570   4.945   1.303
 8277TIP3    H224796   0.558   4.814   1.377
 8278TIP3   OH224797   0.802   6.411   4.240
 8278TIP3    H124798   0.831   6.369   4.159
 8278TIP3    H224799   0.858   6.488   4.249
 8279TIP3   OH224800   6.897   4.217   2.631
 8279TIP3    H124801   6.986   4.220   2.667
 8279TIP3    H224802   6.842   4.191   2.705
 8280TIP3   OH224803   2.089   6.713   0.388
 8280TIP3    H124804   2.022   6.765   0.432
 8280TIP3    H224805   2.040   6.643   0.345
 8281TIP3   OH224806   7.038   1.338   2.022
 8281TIP3    H124807   7.057   1.244   2.028
 8281TIP3    H224808   7.057   1.360   1.931
 8282TIP3   OH224809   3.971   2.940   2.968
 8282TIP3    H124810   4.032   2.958   3.040
 8282TIP3    H224811   3.885   2.966   3.002
 8283TIP3   OH224812   2.853   1.372   5.133
 8283TIP3    H124813   2.849   1.467   5.146
 8283TIP3    H224814   2.924   1.360   5.070
 8284TIP3   OH224815   5.423   0.163   2.464
 8284TIP3    H124816   5.421   0.071   2.491
 8284TIP3    H224817   5.357   0.168   2.395
 8285TIP3   OH224818   4.957   5.140   0.914
 8285TIP3    H124819   4.966   5.216   0.971
 8285TIP3    H224820   5.040   5.094   0.922
 8286TIP3   OH224821   2.317   6.161   0.457
 8286TIP3    H124822   2.335   6.189   0.546
 8286TIP3    H224823   2.253   6.090   0.466
 8287TIP3   OH224824   1.612   0.467   3.830
 8287TIP3    H124825   1.642   0.460   3.740
 8287TIP3    H224826   1.674   0.526   3.872
 8288TIP3   OH224827   5.159   5.183   3.474
 8288TIP3    H124828   5.073   5.213   3.502
 8288TIP3    H224829   5.150   5.088   3.469
 8289TIP3   OH224830   0.441   2.371   2.086
 8289TIP3    H124831   0.395   2.374   2.002
 8289TIP3    H224832   0.408   2.292   2.128
 8290TIP3   OH224833   2.897   5.797   1.713
 8290TIP3    H124834   2.922   5.889   1.709
 8290TIP3    H224835   2.965   5.757   1.768
 8291TIP3   OH224836   6.533   5.776   3.875
 8291TIP3    H124837   6.565   5.863   3.898
 8291TIP3    H224838   6.530   5.728   3.957
 8292TIP3   OH224839   2.272   5.912   2.956
 8292TIP3    H124840   2.299   5.924   2.865
 8292TIP3    H224841   2.276   5.817   2.969
 8293TIP3   OH224842   4.324   3.096   0.751
 8293TIP3    H124843   4.319   3.114   0.657
 8293TIP3    H224844   4.403   3.141   0.781
 8294TIP3   OH224845   0.374   5.179   4.839
 8294TIP3    H124846   0.411   5.128   4.911
 8294TIP3    H224847   0.300   5.126   4.807
 8295TIP3   OH224848   4.968   0.139   3.343
 8295TIP3    H124849   4.873   0.136   3.361
 8295TIP3    H224850   4.994   0.227   3.371
 8296TIP3   OH224851   5.135   5.175   2.836
 8296TIP3    H124852   5.199   5.133   2.893
 8296TIP3    H224853   5.186   5.236   2.783
 8297TIP3   OH224854   2.187   2.909   3.194
 8297TIP3    H124855   2.172   2.893   3.100
 8297TIP3    H224856   2.131   2.845   3.238
 8298TIP3   OH224857   6.759   6.301   2.630
 8298TIP3    H124858   6.724   6.214   2.649
 8298TIP3    H224859   6.742   6.314   2.537
 8299TIP3   OH224860   3.225   2.174   0.604
 8299TIP3    H124861   3.261   2.252   0.561
 8299TIP3    H224862   3.278   2.102   0.570
 8300TIP3   OH224863   6.524   2.404   4.739
 8300TIP3    H124864   6.613   2.376   4.722
 8300TIP3    H224865   6.525   2.434   4.830
 8301TIP3   OH224866   4.020   0.279   5.224
 8301TIP3    H124867   3.996   0.210   5.286
 8301TIP3    H224868   4.080   0.335   5.273
 8302TIP3   OH224869   1.626   4.136   0.282
 8302TIP3    H124870   1.674   4.219   0.288
 8302TIP3    H224871   1.650   4.100   0.197
 8303TIP3   OH224872   1.265   5.789   5.435
 8303TIP3    H124873   1.315   5.726   5.383
 8303TIP3    H224874   1.275   5.872   5.389
 8304TIP3   OH224875   7.065   0.215   2.258
 8304TIP3    H124876   7.061   0.291   2.317
 8304TIP3    H224877   7.127   0.241   2.190
 8305TIP3   OH224878   4.625   2.629   4.842
 8305TIP3    H124879   4.624   2.687   4.918
 8305TIP3    H224880   4.587   2.680   4.771
 8306TIP3   OH224881   2.440   5.722   1.780
 8306TIP3    H124882   2.461   5.674   1.860
 8306TIP3    H224883   2.410   5.808   1.810
 8307TIP3   OH224884   5.165   1.324   2.953
 8307TIP3    H124885   5.073   1.296   2.952
 8307TIP3    H224886   5.215   1.243   2.954
 8308TIP3   OH224887   1.087   6.672   4.466
 8308TIP3    H124888   1.143   6.689   4.541
 8308TIP3    H224889   1.069   6.759   4.429
 8309TIP3   OH224890   4.516   1.948   0.630
 8309TIP3    H124891   4.437   1.962   0.577
 8309TIP3    H224892   4.570   1.890   0.577
 8310TIP3   OH224893   1.141   3.864   1.490
 8310TIP3    H124894   1.145   3.824   1.403
 8310TIP3    H224895   1.201   3.812   1.544
 8311TIP3   OH224896   0.815   0.110   3.871
 8311TIP3    H124897   0.870   0.171   3.821
 8311TIP3    H224898   0.857   0.107   3.957
 8312TIP3   OH224899   5.541   5.779   2.089
 8312TIP3    H124900   5.528   5.874   2.089
 8312TIP3    H224901   5.602   5.763   2.017
 8313TIP3   OH224902   2.573   0.384   4.948
 8313TIP3    H124903   2.550   0.356   5.036
 8313TIP3    H224904   2.552   0.477   4.946
 8314TIP3   OH224905   0.569   2.870   3.151
 8314TIP3    H124906   0.521   2.942   3.109
 8314TIP3    H224907   0.518   2.792   3.129
 8315TIP3   OH224908   3.094   4.361   3.464
 8315TIP3    H124909   3.062   4.343   3.552
 8315TIP3    H224910   3.188   4.349   3.469
 8316TIP3   OH224911   4.083   4.126   5.038
 8316TIP3    H124912   4.093   4.171   4.954
 8316TIP3    H224913   4.103   4.193   5.104
 8317TIP3   OH224914   5.029   0.705   4.171
 8317TIP3    H124915   5.079   0.681   4.249
 8317TIP3    H224916   4.959   0.761   4.203
 8318TIP3   OH224917   5.511   6.522   0.281
 8318TIP3    H124918   5.432   6.551   0.235
 8318TIP3    H224919   5.478   6.485   0.363
 8319TIP3   OH224920   5.889   1.281   1.529
 8319TIP3    H124921   5.839   1.236   1.461
 8319TIP3    H224922   5.933   1.211   1.578
 8320TIP3   OH224923   3.133   0.738   2.590
 8320TIP3    H124924   3.136   0.793   2.512
 8320TIP3    H224925   3.074   0.783   2.649
 8321TIP3   OH224926   0.840   4.188   2.999
 8321TIP3    H124927   0.913   4.126   2.992
 8321TIP3    H224928   0.772   4.151   2.943
 8322TIP3   OH224929   6.887   5.445   2.084
 8322TIP3    H124930   6.943   5.368   2.093
 8322TIP3    H224931   6.896   5.492   2.167
 8323TIP3   OH224932   6.695   2.783   0.525
 8323TIP3    H124933   6.777   2.814   0.487
 8323TIP3    H224934   6.646   2.746   0.452
 8324TIP3   OH224935   3.772   6.308   4.031
 8324TIP3    H124936   3.760   6.369   3.958
 8324TIP3    H224937   3.758   6.221   3.992
 8325TIP3   OH224938   6.535   0.348   0.408
 8325TIP3    H124939   6.550   0.331   0.315
 8325TIP3    H224940   6.556   0.440   0.420
 8326TIP3   OH224941   3.257   6.000   1.955
 8326TIP3    H124942   3.183   5.952   1.991
 8326TIP3    H224943   3.268   5.964   1.867
 8327TIP3   OH224944   4.469   3.702   1.600
 8327TIP3    H124945   4.437   3.616   1.628
 8327TIP3    H224946   4.521   3.733   1.675
 8328TIP3   OH224947   0.241   2.942   3.349
 8328TIP3    H124948   0.249   2.849   3.368
 8328TIP3    H224949   0.257   2.950   3.255
 8329TIP3   OH224950   3.514   3.676   4.923
 8329TIP3    H124951   3.480   3.605   4.977
 8329TIP3    H224952   3.603   3.649   4.901
 8330TIP3   OH224953   2.600   6.516   1.603
 8330TIP3    H124954   2.514   6.530   1.643
 8330TIP3    H224955   2.600   6.574   1.526
 8331TIP3   OH224956   0.842   4.461   0.798
 8331TIP3    H124957   0.910   4.458   0.866
 8331TIP3    H224958   0.816   4.553   0.796
 8332TIP3   OH224959   6.928   5.561   3.178
 8332TIP3    H124960   6.884   5.532   3.098
 8332TIP3    H224961   7.007   5.605   3.147
 8333TIP3   OH224962   7.142   2.079   3.661
 8333TIP3    H124963   7.190   2.092   3.579
 8333TIP3    H224964   7.209   2.071   3.728
 8334TIP3   OH224965   5.274   4.222   0.910
 8334TIP3    H124966   5.297   4.307   0.947
 8334TIP3    H224967   5.203   4.241   0.849
 8335TIP3   OH224968   2.226   4.351   0.396
 8335TIP3    H124969   2.162   4.281   0.405
 8335TIP3    H224970   2.210   4.388   0.309
 8336TIP3   OH224971   5.730   4.989   0.726
 8336TIP3    H124972   5.698   5.061   0.780
 8336TIP3    H224973   5.799   5.029   0.672
 8337TIP3   OH224974   1.757   4.424   2.649
 8337TIP3    H124975   1.678   4.372   2.635
 8337TIP3    H224976   1.821   4.386   2.590
 8338TIP3   OH224977   4.464   5.732   4.409
 8338TIP3    H124978   4.482   5.730   4.316
 8338TIP3    H224979   4.405   5.808   4.420
 8339TIP3   OH224980   4.618   6.170   5.457
 8339TIP3    H124981   4.533   6.177   5.500
 8339TIP3    H224982   4.675   6.126   5.520
 8340TIP3   OH224983   7.266   1.861   4.788
 8340TIP3    H124984   7.212   1.919   4.735
 8340TIP3    H224985   7.337   1.917   4.820
 8341TIP3   OH224986   2.420   5.899   4.564
 8341TIP3    H124987   2.442   5.852   4.483
 8341TIP3    H224988   2.325   5.902   4.564
 8342TIP3   OH224989   1.270   1.329   1.196
 8342TIP3    H124990   1.290   1.420   1.221
 8342TIP3    H224991   1.250   1.285   1.278
 8343TIP3   OH224992   3.450   4.019   1.803
 8343TIP3    H124993   3.434   4.087   1.868
 8343TIP3    H224994   3.534   3.981   1.828
 8344TIP3   OH224995   5.732   4.620   1.095
 8344TIP3    H124996   5.664   4.575   1.043
 8344TIP3    H224997   5.762   4.691   1.038
 8345TIP3   OH224998   5.863   6.559   0.806
 8345TIP3    H124999   5.797   6.508   0.759
 8345TIP3    H225000   5.934   6.498   0.821
 8346TIP3   OH225001   6.850   0.041   2.119
 8346TIP3    H125002   6.775   0.098   2.101
 8346TIP3    H225003   6.917   0.101   2.154
 8347TIP3   OH225004   2.837   4.774   1.435
 8347TIP3    H125005   2.902   4.797   1.368
 8347TIP3    H225006   2.755   4.810   1.401
 8348TIP3   OH225007   5.994   3.310   0.363
 8348TIP3    H125008   5.966   3.401   0.368
 8348TIP3    H225009   5.984   3.287   0.270
 8349TIP3   OH225010   1.051   1.224   4.167
 8349TIP3    H125011   1.060   1.299   4.226
 8349TIP3    H225012   0.973   1.178   4.199
 8350TIP3   OH225013   6.043   6.507   3.634
 8350TIP3    H125014   5.964   6.523   3.687
 8350TIP3    H225015   6.023   6.426   3.587
 8351TIP3   OH225016   4.655   3.153   3.650
 8351TIP3    H125017   4.647   3.121   3.740
 8351TIP3    H225018   4.747   3.139   3.627
 8352TIP3   OH225019   5.901   3.245   5.610
 8352TIP3    H125020   5.895   3.339   5.630
 8352TIP3    H225021   5.819   3.208   5.641
 8353TIP3   OH225022   5.146   4.174   3.646
 8353TIP3    H125023   5.186   4.222   3.573
 8353TIP3    H225024   5.220   4.143   3.698
 8354TIP3   OH225025   6.604   6.706   4.584
 8354TIP3    H125026   6.571   6.696   4.673
 8354TIP3    H225027   6.612   6.801   4.572
 8355TIP3   OH225028   0.873   0.804   0.496
 8355TIP3    H125029   0.863   0.869   0.427
 8355TIP3    H225030   0.785   0.768   0.508
 8356TIP3   OH225031   6.370   4.266   4.033
 8356TIP3    H125032   6.415   4.198   3.983
 8356TIP3    H225033   6.430   4.289   4.103
 8357TIP3   OH225034   4.634   3.821   1.796
 8357TIP3    H125035   4.673   3.892   1.745
 8357TIP3    H225036   4.691   3.811   1.872
 8358TIP3   OH225037   2.411   2.739   3.617
 8358TIP3    H125038   2.361   2.755   3.697
 8358TIP3    H225039   2.391   2.815   3.562
 8359TIP3   OH225040   1.816   6.141   1.957
 8359TIP3    H125041   1.733   6.146   1.909
 8359TIP3    H225042   1.791   6.120   2.047
 8360TIP3   OH225043   5.637   4.600   2.348
 8360TIP3    H125044   5.630   4.528   2.411
 8360TIP3    H225045   5.680   4.670   2.397
 8361TIP3   OH225046   5.685   0.970   5.128
 8361TIP3    H125047   5.664   1.016   5.046
 8361TIP3    H225048   5.734   1.034   5.179
 8362TIP3   OH225049   6.621   4.425   3.146
 8362TIP3    H125050   6.582   4.402   3.062
 8362TIP3    H225051   6.710   4.454   3.125
 8363TIP3   OH225052   0.319   4.292   5.035
 8363TIP3    H125053   0.380   4.366   5.031
 8363TIP3    H225054   0.346   4.242   5.112
 8364TIP3   OH225055   1.264   4.694   3.124
 8364TIP3    H125056   1.239   4.602   3.137
 8364TIP3    H225057   1.181   4.740   3.112
 8365TIP3   OH225058   0.155   6.212   4.496
 8365TIP3    H125059   0.172   6.299   4.531
 8365TIP3    H225060   0.220   6.200   4.427
 8366TIP3   OH225061   3.869   0.536   2.333
 8366TIP3    H125062   3.794   0.557   2.278
 8366TIP3    H225063   3.888   0.617   2.381
 8367TIP3   OH225064   7.022   5.940   1.212
 8367TIP3    H125065   6.979   5.911   1.292
 8367TIP3    H225066   7.044   5.860   1.165
 8368TIP3   OH225067   2.757   0.084   2.324
 8368TIP3    H125068   2.848   0.071   2.297
 8368TIP3    H225069   2.713   0.002   2.304
 8369TIP3   OH225070   5.148   0.345   0.842
 8369TIP3    H125071   5.077   0.407   0.825
 8369TIP3    H225072   5.211   0.394   0.895
 8370TIP3   OH225073   1.128   5.787   4.021
 8370TIP3    H125074   1.215   5.812   3.990
 8370TIP3    H225075   1.104   5.710   3.969
 8371TIP3   OH225076   2.082   5.447   4.231
 8371TIP3    H125077   2.168   5.406   4.222
 8371TIP3    H225078   2.072   5.499   4.152
 8372TIP3   OH225079   2.622   3.447   4.186
 8372TIP3    H125080   2.658   3.411   4.105
 8372TIP3    H225081   2.697   3.457   4.244
 8373TIP3   OH225082   3.758   5.516   4.252
 8373TIP3    H125083   3.691   5.560   4.200
 8373TIP3    H225084   3.826   5.583   4.265
 8374TIP3   OH225085   1.369   3.586   1.136
 8374TIP3    H125086   1.305   3.527   1.175
 8374TIP3    H225087   1.454   3.551   1.163
 8375TIP3   OH225088   1.095   6.669   0.000
 8375TIP3    H125089   1.034   6.706   0.063
 8375TIP3    H225090   1.039   6.620  -0.061
 8376TIP3   OH225091   4.543   6.498   1.846
 8376TIP3    H125092   4.519   6.456   1.764
 8376TIP3    H225093   4.552   6.426   1.908
 8377TIP3   OH225094   5.728   1.801   3.734
 8377TIP3    H125095   5.707   1.819   3.825
 8377TIP3    H225096   5.649   1.759   3.699
 8378TIP3   OH225097   4.223   5.922   2.419
 8378TIP3    H125098   4.307   5.887   2.449
 8378TIP3    H225099   4.215   6.006   2.464
 8379TIP3   OH225100   5.700   2.474   0.720
 8379TIP3    H125101   5.704   2.567   0.744
 8379TIP3    H225102   5.722   2.427   0.800
 8380TIP3   OH225103   4.298   0.964   5.439
 8380TIP3    H125104   4.376   0.908   5.439
 8380TIP3    H225105   4.330   1.050   5.465
 8381TIP3   OH225106   3.025   0.235   2.394
 8381TIP3    H125107   3.042   0.319   2.351
 8381TIP3    H225108   3.056   0.169   2.332
 8382TIP3   OH225109   4.765   6.573   5.417
 8382TIP3    H125110   4.759   6.667   5.404
 8382TIP3    H225111   4.685   6.549   5.464
 8383TIP3   OH225112   2.564   6.044   1.080
 8383TIP3    H125113   2.531   5.956   1.065
 8383TIP3    H225114   2.579   6.048   1.175
 8384TIP3   OH225115   4.568   5.802   5.609
 8384TIP3    H125116   4.482   5.820   5.647
 8384TIP3    H225117   4.619   5.881   5.626
 8385TIP3   OH225118   4.171   2.216   0.588
 8385TIP3    H125119   4.077   2.212   0.610
 8385TIP3    H225120   4.207   2.277   0.652
 8386TIP3   OH225121   4.133   4.049   3.183
 8386TIP3    H125122   4.140   4.138   3.218
 8386TIP3    H225123   4.180   3.994   3.246
 8387TIP3   OH225124   2.442   3.971   4.908
 8387TIP3    H125125   2.473   3.981   4.818
 8387TIP3    H225126   2.398   4.054   4.927
 8388TIP3   OH225127   6.053   0.277   5.903
 8388TIP3    H125128   6.112   0.240   5.969
 8388TIP3    H225129   6.073   0.227   5.823
 8389TIP3   OH225130   5.189   6.636   2.381
 8389TIP3    H125131   5.208   6.584   2.303
 8389TIP3    H225132   5.275   6.660   2.416
 8390TIP3   OH225133   0.627   2.348   0.985
 8390TIP3    H125134   0.581   2.432   0.976
 8390TIP3    H225135   0.720   2.372   0.981
 8391TIP3   OH225136   0.709   1.010   4.804
 8391TIP3    H125137   0.645   0.995   4.734
 8391TIP3    H225138   0.700   0.933   4.860
 8392TIP3   OH225139   6.708   6.256   5.521
 8392TIP3    H125140   6.627   6.208   5.538
 8392TIP3    H225141   6.734   6.229   5.432
 8393TIP3   OH225142   1.850   4.190   5.115
 8393TIP3    H125143   1.805   4.110   5.143
 8393TIP3    H225144   1.930   4.192   5.169
 8394TIP3   OH225145   3.130   6.630   1.109
 8394TIP3    H125146   3.156   6.706   1.058
 8394TIP3    H225147   3.152   6.652   1.199
 8395TIP3   OH225148   2.140   0.840   3.762
 8395TIP3    H125149   2.115   0.753   3.731
 8395TIP3    H225150   2.096   0.849   3.846
 8396TIP3   OH225151   3.137   1.092   2.532
 8396TIP3    H125152   3.121   1.033   2.458
 8396TIP3    H225153   3.076   1.064   2.599
 8397TIP3   OH225154   6.373   1.731   2.273
 8397TIP3    H125155   6.368   1.788   2.350
 8397TIP3    H225156   6.340   1.784   2.201
 8398TIP3   OH225157   3.029   3.241   4.466
 8398TIP3    H125158   3.048   3.228   4.559
 8398TIP3    H225159   3.061   3.161   4.424
 8399TIP3   OH225160   5.888   5.697   0.412
 8399TIP3    H125161   5.935   5.634   0.468
 8399TIP3    H225162   5.951   5.720   0.344
 8400TIP3   OH225163   2.402   1.070   1.699
 8400TIP3    H125164   2.384   0.977   1.713
 8400TIP3    H225165   2.497   1.078   1.713
 8401TIP3   OH225166   1.236   3.347   1.480
 8401TIP3    H125167   1.216   3.369   1.389
 8401TIP3    H225168   1.166   3.288   1.507
 8402TIP3   OH225169   4.238   4.821   1.021
 8402TIP3    H125170   4.266   4.730   1.029
 8402TIP3    H225171   4.158   4.826   1.073
 8403TIP3   OH225172   0.959   6.410   5.957
 8403TIP3    H125173   0.931   6.400   5.866
 8403TIP3    H225174   0.879   6.432   6.004
 8404TIP3   OH225175   5.928   6.448   1.349
 8404TIP3    H125176   5.934   6.486   1.437
 8404TIP3    H225177   5.971   6.363   1.358
 8405TIP3   OH225178   0.687   0.992   0.850
 8405TIP3    H125179   0.775   0.955   0.858
 8405TIP3    H225180   0.693   1.053   0.777
 8406TIP3   OH225181   2.898   1.823   2.633
 8406TIP3    H125182   2.944   1.777   2.563
 8406TIP3    H225183   2.829   1.762   2.660
 8407TIP3   OH225184   5.158   4.682   2.380
 8407TIP3    H125185   5.166   4.737   2.302
 8407TIP3    H225186   5.245   4.686   2.421
 8408TIP3   OH225187   5.790   1.906   3.213
 8408TIP3    H125188   5.779   1.815   3.241
 8408TIP3    H225189   5.852   1.943   3.275
 8409TIP3   OH225190   0.567   4.767   3.208
 8409TIP3    H125191   0.649   4.731   3.243
 8409TIP3    H225192   0.590   4.857   3.184
 8410TIP3   OH225193   1.268   3.030   3.909
 8410TIP3    H125194   1.246   2.941   3.883
 8410TIP3    H225195   1.336   3.019   3.976
 8411TIP3   OH225196   1.720   2.734   0.717
 8411TIP3    H125197   1.765   2.793   0.657
 8411TIP3    H225198   1.749   2.761   0.804
 8412TIP3   OH225199   0.593   1.168   1.532
 8412TIP3    H125200   0.584   1.224   1.455
 8412TIP3    H225201   0.683   1.182   1.562
 8413TIP3   OH225202   2.949   4.433   3.241
 8413TIP3    H125203   2.981   4.386   3.164
 8413TIP3    H225204   3.015   4.417   3.308
 8414TIP3   OH225205   0.815   3.384   1.095
 8414TIP3    H125206   0.777   3.316   1.040
 8414TIP3    H225207   0.837   3.340   1.177
 8415TIP3   OH225208   5.637   4.195   0.360
 8415TIP3    H125209   5.732   4.208   0.364
 8415TIP3    H225210   5.610   4.193   0.452
 8416TIP3   OH225211   6.443   3.008   1.545
 8416TIP3    H125212   6.372   3.059   1.585
 8416TIP3    H225213   6.408   2.919   1.539
 8417TIP3   OH225214   7.003   0.168   5.040
 8417TIP3    H125215   6.956   0.114   5.104
 8417TIP3    H225216   7.033   0.106   4.974
 8418TIP3   OH225217   6.229   0.374   4.068
 8418TIP3    H125218   6.183   0.366   4.151
 8418TIP3    H225219   6.182   0.316   4.008
 8419TIP3   OH225220   0.028   5.309   0.725
 8419TIP3    H125221   0.048   5.260   0.805
 8419TIP3    H225222  -0.038   5.256   0.681
 8420TIP3   OH225223   0.149   5.032   0.851
 8420TIP3    H125224   0.216   5.021   0.784
 8420TIP3    H225225   0.185   4.990   0.929
 8421TIP3   OH225226   5.847   0.098   1.750
 8421TIP3    H125227   5.836   0.065   1.661
 8421TIP3    H225228   5.927   0.057   1.782
 8422TIP3   OH225229   2.362   0.789   1.912
 8422TIP3    H125230   2.290   0.807   1.852
 8422TIP3    H225231   2.422   0.734   1.861
 8423TIP3   OH225232   5.378   6.001   0.873
 8423TIP3    H125233   5.426   6.043   0.944
 8423TIP3    H225234   5.371   6.069   0.805
 8424TIP3   OH225235   1.121   6.070   3.626
 8424TIP3    H125236   1.216   6.077   3.637
 8424TIP3    H225237   1.099   6.139   3.562
 8425TIP3   OH225238   4.646   1.379   1.342
 8425TIP3    H125239   4.734   1.346   1.357
 8425TIP3    H225240   4.638   1.453   1.402
 8426TIP3   OH225241   3.674   1.476   4.561
 8426TIP3    H125242   3.763   1.445   4.543
 8426TIP3    H225243   3.629   1.400   4.598
 8427TIP3   OH225244   1.085   0.718   2.351
 8427TIP3    H125245   1.160   0.735   2.408
 8427TIP3    H225246   1.013   0.767   2.391
 8428TIP3   OH225247   6.342   3.578   3.196
 8428TIP3    H125248   6.365   3.661   3.154
 8428TIP3    H225249   6.249   3.566   3.177
 8429TIP3   OH225250   4.905   5.566   4.278
 8429TIP3    H125251   4.925   5.604   4.192
 8429TIP3    H225252   4.822   5.520   4.265
 8430TIP3   OH225253   1.881   5.807   2.536
 8430TIP3    H125254   1.904   5.800   2.628
 8430TIP3    H225255   1.919   5.730   2.495
 8431TIP3   OH225256   2.693   4.824   2.027
 8431TIP3    H125257   2.638   4.869   1.963
 8431TIP3    H225258   2.764   4.886   2.045
 8432TIP3   OH225259   6.557   5.586   0.874
 8432TIP3    H125260   6.505   5.582   0.794
 8432TIP3    H225261   6.604   5.669   0.869
 8433TIP3   OH225262   0.934   4.787   1.644
 8433TIP3    H125263   0.958   4.696   1.626
 8433TIP3    H225264   0.842   4.782   1.672
 8434TIP3   OH225265   3.863   4.603   3.974
 8434TIP3    H125266   3.855   4.545   3.898
 8434TIP3    H225267   3.811   4.561   4.043
 8435TIP3   OH225268   5.630   4.229   2.403
 8435TIP3    H125269   5.682   4.246   2.324
 8435TIP3    H225270   5.654   4.140   2.430
 8436TIP3   OH225271   0.196   5.242   2.016
 8436TIP3    H125272   0.180   5.156   2.056
 8436TIP3    H225273   0.204   5.223   1.922
 8437TIP3   OH225274   4.267   3.100   3.418
 8437TIP3    H125275   4.190   3.155   3.401
 8437TIP3    H225276   4.339   3.146   3.374
 8438TIP3   OH225277   6.978   4.354   0.447
 8438TIP3    H125278   7.041   4.378   0.515
 8438TIP3    H225279   6.902   4.408   0.464
 8439TIP3   OH225280   3.975   5.688   1.424
 8439TIP3    H125281   4.059   5.660   1.388
 8439TIP3    H225282   3.949   5.763   1.370
 8440TIP3   OH225283   0.767   1.146   5.485
 8440TIP3    H125284   0.708   1.209   5.443
 8440TIP3    H225285   0.760   1.165   5.578
 8441TIP3   OH225286   0.703   3.840   0.235
 8441TIP3    H125287   0.731   3.753   0.205
 8441TIP3    H225288   0.758   3.857   0.312
 8442TIP3   OH225289   2.231   1.848   3.623
 8442TIP3    H125290   2.161   1.906   3.593
 8442TIP3    H225291   2.312   1.895   3.600
 8443TIP3   OH225292   6.507   0.977   3.554
 8443TIP3    H125293   6.434   1.038   3.543
 8443TIP3    H225294   6.586   1.031   3.546
 8444TIP3   OH225295   6.304   2.163   2.217
 8444TIP3    H125296   6.231   2.106   2.241
 8444TIP3    H225297   6.341   2.122   2.138
 8445TIP3   OH225298   2.648   2.558   3.292
 8445TIP3    H125299   2.640   2.574   3.386
 8445TIP3    H225300   2.733   2.594   3.269
 8446TIP3   OH225301   2.048   3.409   1.947
 8446TIP3    H125302   2.104   3.345   1.902
 8446TIP3    H225303   2.020   3.469   1.878
 8447TIP3   OH225304   6.576   0.292   1.457
 8447TIP3    H125305   6.564   0.197   1.458
 8447TIP3    H225306   6.495   0.326   1.418
 8448TIP3   OH225307   4.446   6.077   5.254
 8448TIP3    H125308   4.516   6.127   5.297
 8448TIP3    H225309   4.386   6.053   5.325
 8449TIP3   OH225310   1.650   3.889   1.795
 8449TIP3    H125311   1.570   3.940   1.779
 8449TIP3    H225312   1.693   3.936   1.867
 8450TIP3   OH225313   0.633   5.271   0.959
 8450TIP3    H125314   0.702   5.337   0.966
 8450TIP3    H225315   0.651   5.224   0.878
 8451TIP3   OH225316   5.970   2.410   0.538
 8451TIP3    H125317   5.967   2.418   0.442
 8451TIP3    H225318   5.923   2.487   0.570
 8452TIP3   OH225319   4.159   2.313   1.555
 8452TIP3    H125320   4.133   2.405   1.565
 8452TIP3    H225321   4.150   2.276   1.642
 8453TIP3   OH225322   4.029   6.003   4.114
 8453TIP3    H125323   4.064   5.947   4.182
 8453TIP3    H225324   4.101   6.063   4.093
 8454TIP3   OH225325   2.497   4.449   2.275
 8454TIP3    H125326   2.588   4.424   2.260
 8454TIP3    H225327   2.465   4.475   2.189
 8455TIP3   OH225328   0.130   4.264   4.207
 8455TIP3    H125329   0.184   4.334   4.244
 8455TIP3    H225330   0.042   4.282   4.240
 8456TIP3   OH225331   2.704   6.672   3.229
 8456TIP3    H125332   2.664   6.741   3.282
 8456TIP3    H225333   2.667   6.591   3.263
 8457TIP3   OH225334   0.913   6.717   5.821
 8457TIP3    H125335   0.829   6.702   5.777
 8457TIP3    H225336   0.978   6.681   5.761
 8458TIP3   OH225337   1.354   1.375   1.573
 8458TIP3    H125338   1.394   1.296   1.537
 8458TIP3    H225339   1.409   1.397   1.648
 8459TIP3   OH225340   3.812   6.751   0.757
 8459TIP3    H125341   3.846   6.830   0.716
 8459TIP3    H225342   3.864   6.680   0.720
 8460TIP3   OH225343   6.163   4.331   1.952
 8460TIP3    H125344   6.101   4.395   1.919
 8460TIP3    H225345   6.167   4.348   2.046
 8461TIP3   OH225346   7.054   1.380   4.131
 8461TIP3    H125347   7.117   1.420   4.070
 8461TIP3    H225348   7.082   1.289   4.137
 8462TIP3   OH225349   4.860   6.170   1.712
 8462TIP3    H125350   4.841   6.135   1.625
 8462TIP3    H225351   4.884   6.261   1.697
 8463TIP3   OH225352   4.685   2.874   0.009
 8463TIP3    H125353   4.706   2.966   0.025
 8463TIP3    H225354   4.619   2.875  -0.060
 8464TIP3   OH225355   0.893   6.122   0.759
 8464TIP3    H125356   0.873   6.095   0.849
 8464TIP3    H225357   0.930   6.210   0.768
 8465TIP3   OH225358   4.501   5.793   4.806
 8465TIP3    H125359   4.490   5.884   4.780
 8465TIP3    H225360   4.545   5.752   4.732
 8466TIP3   OH225361   6.149   6.059   2.726
 8466TIP3    H125362   6.139   6.013   2.810
 8466TIP3    H225363   6.131   6.151   2.748
 8467TIP3   OH225364   6.279   4.488   3.149
 8467TIP3    H125365   6.264   4.448   3.235
 8467TIP3    H225366   6.234   4.431   3.087
 8468TIP3   OH225367   2.082   6.108   3.031
 8468TIP3    H125368   2.022   6.035   3.016
 8468TIP3    H225369   2.168   6.074   3.006
 8469TIP3   OH225370   3.619   1.501   0.043
 8469TIP3    H125371   3.660   1.435   0.099
 8469TIP3    H225372   3.526   1.496   0.063
 8470TIP3   OH225373   4.139   4.081   4.102
 8470TIP3    H125374   4.130   3.989   4.127
 8470TIP3    H225375   4.171   4.125   4.181
 8471TIP3   OH225376   7.242   5.279   1.031
 8471TIP3    H125377   7.293   5.201   1.007
 8471TIP3    H225378   7.151   5.253   1.019
 8472TIP3   OH225379   6.660   1.972   0.453
 8472TIP3    H125380   6.751   1.943   0.464
 8472TIP3    H225381   6.661   2.024   0.373
 8473TIP3   OH225382   6.401   5.057   1.383
 8473TIP3    H125383   6.451   5.137   1.367
 8473TIP3    H225384   6.460   5.000   1.432
 8474TIP3   OH225385   5.078   2.432   5.730
 8474TIP3    H125386   5.021   2.438   5.807
 8474TIP3    H225387   5.085   2.338   5.713
 8475TIP3   OH225388   5.653   1.453   4.834
 8475TIP3    H125389   5.581   1.492   4.883
 8475TIP3    H225390   5.611   1.402   4.765
 8476TIP3   OH225391   0.067   0.587   0.417
 8476TIP3    H125392   0.082   0.493   0.424
 8476TIP3    H225393   0.085   0.608   0.325
 8477TIP3   OH225394   4.034   2.125   2.437
 8477TIP3    H125395   3.960   2.070   2.411
 8477TIP3    H225396   4.059   2.091   2.523
 8478TIP3   OH225397   1.455   2.986   4.089
 8478TIP3    H125398   1.549   2.990   4.069
 8478TIP3    H225399   1.451   2.980   4.184
 8479TIP3   OH225400   3.626   5.044   5.439
 8479TIP3    H125401   3.551   4.998   5.477
 8479TIP3    H225402   3.588   5.100   5.371
 8480TIP3   OH225403   4.913   3.808   4.693
 8480TIP3    H125404   4.846   3.746   4.720
 8480TIP3    H225405   4.984   3.754   4.658
 8481TIP3   OH225406   5.538   0.476   4.170
 8481TIP3    H125407   5.480   0.552   4.159
 8481TIP3    H225408   5.626   0.514   4.175
 8482TIP3   OH225409   0.793   4.295   0.555
 8482TIP3    H125410   0.804   4.351   0.631
 8482TIP3    H225411   0.811   4.352   0.480
 8483TIP3   OH225412   1.546   2.237   0.191
 8483TIP3    H125413   1.528   2.295   0.266
 8483TIP3    H225414   1.553   2.296   0.116
 8484TIP3   OH225415   5.630   2.343   2.512
 8484TIP3    H125416   5.701   2.382   2.562
 8484TIP3    H225417   5.573   2.416   2.490
 8485TIP3   OH225418   3.399   1.102   0.156
 8485TIP3    H125419   3.319   1.152   0.177
 8485TIP3    H225420   3.392   1.086   0.062
 8486TIP3   OH225421   2.153   4.510   3.967
 8486TIP3    H125422   2.070   4.540   3.929
 8486TIP3    H225423   2.171   4.428   3.922
 8487TIP3   OH225424   0.152   0.125   1.719
 8487TIP3    H125425   0.154   0.086   1.631
 8487TIP3    H225426   0.221   0.191   1.717
 8488TIP3   OH225427   4.709   4.735   4.807
 8488TIP3    H125428   4.759   4.716   4.728
 8488TIP3    H225429   4.697   4.830   4.807
 8489TIP3   OH225430   0.830   0.439   1.649
 8489TIP3    H125431   0.739   0.441   1.619
 8489TIP3    H225432   0.833   0.366   1.711
 8490TIP3   OH225433   5.237   2.167   2.363
 8490TIP3    H125434   5.191   2.207   2.436
 8490TIP3    H225435   5.315   2.128   2.402
 8491TIP3   OH225436   5.253   6.140   5.146
 8491TIP3    H125437   5.188   6.132   5.076
 8491TIP3    H225438   5.215   6.203   5.207
 8492TIP3   OH225439   7.020   1.876   4.153
 8492TIP3    H125440   6.929   1.856   4.131
 8492TIP3    H225441   7.042   1.814   4.222
 8493TIP3   OH225442   5.360   3.817   4.997
 8493TIP3    H125443   5.397   3.869   5.068
 8493TIP3    H225444   5.265   3.833   5.002
 8494TIP3   OH225445   1.756   6.204   1.178
 8494TIP3    H125446   1.669   6.185   1.213
 8494TIP3    H225447   1.763   6.148   1.101
 8495TIP3   OH225448   5.355   1.815   3.082
 8495TIP3    H125449   5.321   1.779   3.164
 8495TIP3    H225450   5.288   1.795   3.017
 8496TIP3   OH225451   1.941   4.886   4.620
 8496TIP3    H125452   1.871   4.927   4.570
 8496TIP3    H225453   1.948   4.940   4.699
 8497TIP3   OH225454   5.382   0.004   0.758
 8497TIP3    H125455   5.434   0.011   0.838
 8497TIP3    H225456   5.446  -0.015   0.689
 8498TIP3   OH225457   6.712   2.794   3.125
 8498TIP3    H125458   6.624   2.823   3.150
 8498TIP3    H225459   6.761   2.875   3.112
 8499TIP3   OH225460   1.187   5.166   2.530
 8499TIP3    H125461   1.096   5.153   2.501
 8499TIP3    H225462   1.228   5.213   2.457
 8500TIP3   OH225463   0.536   1.800   4.887
 8500TIP3    H125464   0.453   1.755   4.899
 8500TIP3    H225465   0.541   1.817   4.793
 8501TIP3   OH225466   2.914   5.353   3.089
 8501TIP3    H125467   2.874   5.272   3.119
 8501TIP3    H225468   2.899   5.354   2.994
 8502TIP3   OH225469   0.397   1.864   3.092
 8502TIP3    H125470   0.430   1.946   3.129
 8502TIP3    H225471   0.473   1.806   3.089
 8503TIP3   OH225472   3.775   3.438   1.576
 8503TIP3    H125473   3.802   3.357   1.619
 8503TIP3    H225474   3.733   3.409   1.495
 8504TIP3   OH225475   5.896   5.290   1.084
 8504TIP3    H125476   5.858   5.284   1.172
 8504TIP3    H225477   5.961   5.360   1.090
 8505TIP3   OH225478   3.239   1.257   5.301
 8505TIP3    H125479   3.210   1.336   5.254
 8505TIP3    H225480   3.211   1.271   5.391
 8506TIP3   OH225481   5.904   4.340   0.170
 8506TIP3    H125482   5.898   4.345   0.074
 8506TIP3    H225483   5.846   4.409   0.202
 8507TIP3   OH225484   2.935   2.484   2.018
 8507TIP3    H125485   2.947   2.501   2.112
 8507TIP3    H225486   3.024   2.470   1.985
 8508TIP3   OH225487   0.866   3.823   1.529
 8508TIP3    H125488   0.834   3.853   1.444
 8508TIP3    H225489   0.961   3.829   1.523
 8509TIP3   OH225490   2.357   5.246   2.968
 8509TIP3    H125491   2.355   5.292   2.884
 8509TIP3    H225492   2.274   5.197   2.970
 8510TIP3   OH225493   1.984   5.087   4.820
 8510TIP3    H125494   1.899   5.095   4.862
 8510TIP3    H225495   2.019   5.176   4.819
 8511TIP3   OH225496   4.846   1.330   1.749
 8511TIP3    H125497   4.774   1.270   1.766
 8511TIP3    H225498   4.861   1.324   1.655
 8512TIP3   OH225499   6.328   6.333   1.404
 8512TIP3    H125500   6.276   6.356   1.481
 8512TIP3    H225501   6.413   6.374   1.420
 8513TIP3   OH225502   5.220   3.955   3.067
 8513TIP3    H125503   5.183   3.874   3.031
 8513TIP3    H225504   5.314   3.948   3.047
 8514TIP3   OH225505   3.764   2.569   5.102
 8514TIP3    H125506   3.699   2.561   5.032
 8514TIP3    H225507   3.741   2.650   5.148
 8515TIP3   OH225508   5.517   3.503   3.553
 8515TIP3    H125509   5.608   3.505   3.524
 8515TIP3    H225510   5.497   3.410   3.564
 8516TIP3   OH225511   0.775   5.853   4.489
 8516TIP3    H125512   0.757   5.844   4.395
 8516TIP3    H225513   0.782   5.763   4.521
 8517TIP3   OH225514   4.982   4.700   4.318
 8517TIP3    H125515   5.015   4.757   4.387
 8517TIP3    H225516   5.057   4.646   4.294
 8518TIP3   OH225517   2.737   0.039   1.767
 8518TIP3    H125518   2.744  -0.021   1.692
 8518TIP3    H225519   2.802   0.107   1.750
 8519TIP3   OH225520   4.762   5.585   4.757
 8519TIP3    H125521   4.777   5.665   4.706
 8519TIP3    H225522   4.686   5.544   4.717
 8520TIP3   OH225523   5.233   4.888   2.151
 8520TIP3    H125524   5.244   4.817   2.088
 8520TIP3    H225525   5.143   4.919   2.138
 8521TIP3   OH225526   2.203   2.959   5.034
 8521TIP3    H125527   2.235   2.872   5.011
 8521TIP3    H225528   2.138   2.979   4.966
 8522TIP3   OH225529   6.910   0.403   3.601
 8522TIP3    H125530   6.844   0.369   3.662
 8522TIP3    H225531   6.860   0.441   3.529
 8523TIP3   OH225532   5.654   3.166   0.737
 8523TIP3    H125533   5.600   3.114   0.677
 8523TIP3    H225534   5.742   3.162   0.700
 8524TIP3   OH225535   3.315   3.780   3.525
 8524TIP3    H125536   3.361   3.744   3.600
 8524TIP3    H225537   3.281   3.864   3.557
 8525TIP3   OH225538   4.392   2.756   3.873
 8525TIP3    H125539   4.319   2.723   3.926
 8525TIP3    H225540   4.350   2.797   3.798
 8526TIP3   OH225541   2.511   4.777   0.882
 8526TIP3    H125542   2.425   4.811   0.907
 8526TIP3    H225543   2.573   4.832   0.930
 8527TIP3   OH225544   2.491   0.684   2.180
 8527TIP3    H125545   2.442   0.724   2.108
 8527TIP3    H225546   2.580   0.673   2.145
 8528TIP3   OH225547   0.749   3.388   2.090
 8528TIP3    H125548   0.799   3.346   2.160
 8528TIP3    H225549   0.810   3.393   2.016
 8529TIP3   OH225550   0.315   5.738   1.126
 8529TIP3    H125551   0.251   5.724   1.056
 8529TIP3    H225552   0.300   5.828   1.154
 8530TIP3   OH225553   6.005   0.268   3.025
 8530TIP3    H125554   6.065   0.198   3.051
 8530TIP3    H225555   5.933   0.262   3.087
 8531TIP3   OH225556   6.337   6.066   1.267
 8531TIP3    H125557   6.284   6.048   1.190
 8531TIP3    H225558   6.325   6.160   1.283
 8532TIP3   OH225559   2.408   5.156   5.696
 8532TIP3    H125560   2.416   5.079   5.752
 8532TIP3    H225561   2.354   5.127   5.623
 8533TIP3   OH225562   5.314   0.693   0.529
 8533TIP3    H125563   5.398   0.719   0.567
 8533TIP3    H225564   5.306   0.600   0.550
 8534TIP3   OH225565   6.724   5.052   2.427
 8534TIP3    H125566   6.727   4.973   2.373
 8534TIP3    H225567   6.697   5.021   2.514
 8535TIP3   OH225568   4.625   3.731   2.177
 8535TIP3    H125569   4.704   3.696   2.135
 8535TIP3    H225570   4.632   3.703   2.268
 8536TIP3   OH225571   4.985   4.794   3.776
 8536TIP3    H125572   5.060   4.739   3.758
 8536TIP3    H225573   4.944   4.756   3.853
 8537TIP3   OH225574   0.256   3.451   1.648
 8537TIP3    H125575   0.315   3.396   1.596
 8537TIP3    H225576   0.281   3.433   1.739
 8538TIP3   OH225577   4.890   1.494   1.170
 8538TIP3    H125578   4.908   1.519   1.079
 8538TIP3    H225579   4.796   1.508   1.180
 8539TIP3   OH225580   6.246   3.579   1.086
 8539TIP3    H125581   6.183   3.507   1.095
 8539TIP3    H225582   6.331   3.535   1.088
 8540TIP3   OH225583   5.507   3.571  -0.023
 8540TIP3    H125584   5.538   3.514   0.047
 8540TIP3    H225585   5.417   3.541  -0.040
 8541TIP3   OH225586   4.213   6.220   2.550
 8541TIP3    H125587   4.172   6.305   2.565
 8541TIP3    H225588   4.272   6.234   2.477
 8542TIP3   OH225589   3.220   6.678   2.718
 8542TIP3    H125590   3.284   6.610   2.697
 8542TIP3    H225591   3.164   6.684   2.641
 8543TIP3   OH225592   2.112   6.604   0.908
 8543TIP3    H125593   2.019   6.616   0.893
 8543TIP3    H225594   2.120   6.594   1.003
 8544TIP3   OH225595   5.797   3.749   5.788
 8544TIP3    H125596   5.834   3.786   5.868
 8544TIP3    H225597   5.820   3.812   5.720
 8545TIP3   OH225598   1.696   1.992   5.506
 8545TIP3    H125599   1.670   2.046   5.581
 8545TIP3    H225600   1.725   1.910   5.545
 8546TIP3   OH225601   5.009   5.738   0.914
 8546TIP3    H125602   4.960   5.819   0.897
 8546TIP3    H225603   5.093   5.769   0.949
 8547TIP3   OH225604   5.171   3.496   0.621
 8547TIP3    H125605   5.214   3.574   0.587
 8547TIP3    H225606   5.081   3.501   0.587
 8548TIP3   OH225607   6.682   1.439   2.674
 8548TIP3    H125608   6.719   1.516   2.716
 8548TIP3    H225609   6.690   1.458   2.580
 8549TIP3   OH225610   6.917   5.767   2.151
 8549TIP3    H125611   6.881   5.709   2.219
 8549TIP3    H225612   7.012   5.750   2.154
 8550TIP3   OH225613   2.113   2.484   1.419
 8550TIP3    H125614   2.153   2.564   1.455
 8550TIP3    H225615   2.021   2.506   1.407
 8551TIP3   OH225616   3.408   5.912   3.490
 8551TIP3    H125617   3.353   5.990   3.496
 8551TIP3    H225618   3.345   5.840   3.480
 8552TIP3   OH225619   2.849   6.697   3.002
 8552TIP3    H125620   2.798   6.665   3.076
 8552TIP3    H225621   2.933   6.723   3.040
 8553TIP3   OH225622   4.476   6.037   3.687
 8553TIP3    H125623   4.398   6.086   3.659
 8553TIP3    H225624   4.464   5.949   3.649
 8554TIP3   OH225625   4.255   3.186   0.211
 8554TIP3    H125626   4.313   3.165   0.138
 8554TIP3    H225627   4.167   3.175   0.176
 8555TIP3   OH225628   6.281   4.886   3.625
 8555TIP3    H125629   6.318   4.916   3.542
 8555TIP3    H225630   6.323   4.801   3.640
 8556TIP3   OH225631   4.211   1.278   5.318
 8556TIP3    H125632   4.193   1.306   5.228
 8556TIP3    H225633   4.280   1.211   5.309
 8557TIP3   OH225634   0.622   1.131   2.961
 8557TIP3    H125635   0.707   1.087   2.953
 8557TIP3    H225636   0.578   1.115   2.878
 8558TIP3   OH225637   3.228   0.488   3.892
 8558TIP3    H125638   3.284   0.413   3.872
 8558TIP3    H225639   3.144   0.468   3.850
 8559TIP3   OH225640   2.090   6.181   1.276
 8559TIP3    H125641   2.131   6.191   1.362
 8559TIP3    H225642   2.010   6.234   1.281
 8560TIP3   OH225643   7.127   0.762   3.205
 8560TIP3    H125644   7.098   0.734   3.292
 8560TIP3    H225645   7.052   0.810   3.169
 8561TIP3   OH225646   2.370   3.016   5.423
 8561TIP3    H125647   2.440   3.081   5.433
 8561TIP3    H225648   2.407   2.935   5.459
 8562TIP3   OH225649   1.954   5.041   3.591
 8562TIP3    H125650   2.006   5.121   3.583
 8562TIP3    H225651   1.883   5.065   3.650
 8563TIP3   OH225652   5.522   1.268   4.671
 8563TIP3    H125653   5.515   1.204   4.600
 8563TIP3    H225654   5.454   1.332   4.653
 8564TIP3   OH225655   1.275   0.371   1.211
 8564TIP3    H125656   1.298   0.285   1.176
 8564TIP3    H225657   1.191   0.356   1.256
 8565TIP3   OH225658   0.791   6.502   2.755
 8565TIP3    H125659   0.718   6.443   2.776
 8565TIP3    H225660   0.868   6.457   2.790
 8566TIP3   OH225661   6.515   2.237   3.169
 8566TIP3    H125662   6.594   2.243   3.222
 8566TIP3    H225663   6.547   2.222   3.080
 8567TIP3   OH225664   1.251   6.029   0.568
 8567TIP3    H125665   1.188   6.048   0.499
 8567TIP3    H225666   1.197   5.996   0.641
 8568TIP3   OH225667   5.621   6.276   0.261
 8568TIP3    H125668   5.563   6.228   0.202
 8568TIP3    H225669   5.576   6.358   0.277
 8569TIP3   OH225670   4.978   0.560   0.799
 8569TIP3    H125671   4.975   0.604   0.714
 8569TIP3    H225672   4.978   0.631   0.863
 8570TIP3   OH225673   4.009   3.574   5.043
 8570TIP3    H125674   3.956   3.644   5.004
 8570TIP3    H225675   4.031   3.518   4.969
 8571TIP3   OH225676   6.859   2.430   2.550
 8571TIP3    H125677   6.880   2.420   2.457
 8571TIP3    H225678   6.763   2.425   2.553
 8572TIP3   OH225679   1.729   5.586   4.104
 8572TIP3    H125680   1.763   5.526   4.171
 8572TIP3    H225681   1.647   5.547   4.076
 8573TIP3   OH225682   4.045   3.523   0.335
 8573TIP3    H125683   4.111   3.499   0.270
 8573TIP3    H225684   4.039   3.446   0.392
 8574TIP3   OH225685   7.211   4.289   3.015
 8574TIP3    H125686   7.243   4.296   3.106
 8574TIP3    H225687   7.194   4.196   3.003
 8575TIP3   OH225688   0.682   1.625   2.755
 8575TIP3    H125689   0.615   1.588   2.698
 8575TIP3    H225690   0.692   1.562   2.826
 8576TIP3   OH225691   5.007   4.908   5.679
 8576TIP3    H125692   5.103   4.910   5.680
 8576TIP3    H225693   4.982   4.984   5.626
 8577TIP3   OH225694   5.370   4.421   3.016
 8577TIP3    H125695   5.462   4.445   3.002
 8577TIP3    H225696   5.357   4.428   3.110
 8578TIP3   OH225697   5.243   4.162   5.052
 8578TIP3    H125698   5.245   4.082   5.104
 8578TIP3    H225699   5.309   4.219   5.092
 8579TIP3   OH225700   2.366   0.591   2.984
 8579TIP3    H125701   2.348   0.652   2.912
 8579TIP3    H225702   2.456   0.561   2.968
 8580TIP3   OH225703   3.723   6.628   3.279
 8580TIP3    H125704   3.723   6.693   3.349
 8580TIP3    H225705   3.790   6.565   3.305
 8581TIP3   OH225706   2.793   5.582   3.184
 8581TIP3    H125707   2.858   5.512   3.176
 8581TIP3    H225708   2.709   5.538   3.176
 8582TIP3   OH225709   0.873   3.359   0.080
 8582TIP3    H125710   0.880   3.266   0.101
 8582TIP3    H225711   0.938   3.373   0.011
 8583TIP3   OH225712   4.233   2.060   5.646
 8583TIP3    H125713   4.150   2.051   5.600
 8583TIP3    H225714   4.288   1.990   5.611
 8584TIP3   OH225715   4.369   4.254   2.925
 8584TIP3    H125716   4.425   4.182   2.952
 8584TIP3    H225717   4.281   4.216   2.922
 8585TIP3   OH225718   4.032   6.524   3.715
 8585TIP3    H125719   4.110   6.509   3.662
 8585TIP3    H225720   4.030   6.618   3.729
 8586TIP3   OH225721   1.145   6.751   2.779
 8586TIP3    H125722   1.056   6.721   2.793
 8586TIP3    H225723   1.139   6.847   2.785
 8587TIP3   OH225724   2.752   3.326   2.223
 8587TIP3    H125725   2.826   3.387   2.222
 8587TIP3    H225726   2.779   3.254   2.166
 8588TIP3   OH225727   0.459   0.469   5.687
 8588TIP3    H125728   0.492   0.379   5.678
 8588TIP3    H225729   0.477   0.510   5.603
 8589TIP3   OH225730   5.419   1.703   2.259
 8589TIP3    H125731   5.450   1.784   2.219
 8589TIP3    H225732   5.420   1.721   2.353
 8590TIP3   OH225733   4.607   5.949   3.342
 8590TIP3    H125734   4.633   5.970   3.432
 8590TIP3    H225735   4.566   6.029   3.310
 8591TIP3   OH225736   3.440   6.007   2.641
 8591TIP3    H125737   3.473   6.029   2.554
 8591TIP3    H225738   3.492   5.932   2.668
 8592TIP3   OH225739   2.487   3.124   3.150
 8592TIP3    H125740   2.507   3.037   3.115
 8592TIP3    H225741   2.448   3.171   3.076
 8593TIP3   OH225742   1.148   0.459   0.986
 8593TIP3    H125743   1.197   0.449   1.068
 8593TIP3    H225744   1.215   0.470   0.919
 8594TIP3   OH225745   5.312   6.185   5.712
 8594TIP3    H125746   5.253   6.260   5.704
 8594TIP3    H225747   5.376   6.212   5.778
 8595TIP3   OH225748   5.291   3.208   0.055
 8595TIP3    H125749   5.331   3.283   0.099
 8595TIP3    H225750   5.351   3.135   0.071
 8596TIP3   OH225751   5.812   6.474   3.749
 8596TIP3    H125752   5.778   6.503   3.834
 8596TIP3    H225753   5.777   6.386   3.738
 8597TIP3   OH225754   7.185   1.641   4.524
 8597TIP3    H125755   7.099   1.658   4.562
 8597TIP3    H225756   7.235   1.599   4.594
 8598TIP3   OH225757   5.462   3.589   2.407
 8598TIP3    H125758   5.524   3.584   2.334
 8598TIP3    H225759   5.502   3.651   2.468
 8599TIP3   OH225760   6.362   1.561   1.801
 8599TIP3    H125761   6.347   1.640   1.852
 8599TIP3    H225762   6.333   1.582   1.713
 8600TIP3   OH225763   2.209   3.589   1.472
 8600TIP3    H125764   2.208   3.559   1.381
 8600TIP3    H225765   2.299   3.576   1.500
 8601TIP3   OH225766   3.860   2.382   0.431
 8601TIP3    H125767   3.888   2.325   0.502
 8601TIP3    H225768   3.809   2.451   0.474
 8602TIP3   OH225769   1.436   4.289   0.830
 8602TIP3    H125770   1.425   4.229   0.904
 8602TIP3    H225771   1.356   4.280   0.778
 8603TIP3   OH225772   5.750   5.126   5.826
 8603TIP3    H125773   5.761   5.112   5.732
 8603TIP3    H225774   5.702   5.208   5.833
 8604TIP3   OH225775   4.687   3.859   3.044
 8604TIP3    H125776   4.725   3.772   3.056
 8604TIP3    H225777   4.668   3.890   3.133
 8605TIP3   OH225778   5.078   5.239   0.246
 8605TIP3    H125779   5.025   5.200   0.315
 8605TIP3    H225780   5.033   5.321   0.225
 8606TIP3   OH225781   1.049   4.389   2.448
 8606TIP3    H125782   0.985   4.452   2.414
 8606TIP3    H225783   0.995   4.319   2.486
 8607TIP3   OH225784   0.282   6.001   1.204
 8607TIP3    H125785   0.256   6.050   1.125
 8607TIP3    H225786   0.233   6.043   1.275
 8608TIP3   OH225787   2.183   5.497   1.776
 8608TIP3    H125788   2.163   5.586   1.747
 8608TIP3    H225789   2.098   5.459   1.796
 8609TIP3   OH225790   2.919   4.135   4.258
 8609TIP3    H125791   2.871   4.054   4.244
 8609TIP3    H225792   2.857   4.192   4.303
 8610TIP3   OH225793   5.329   5.385   5.053
 8610TIP3    H125794   5.380   5.463   5.074
 8610TIP3    H225795   5.351   5.365   4.962
 8611TIP3   OH225796   1.297   3.811   3.079
 8611TIP3    H125797   1.337   3.897   3.083
 8611TIP3    H225798   1.344   3.759   3.145
 8612TIP3   OH225799   6.409   1.564   5.471
 8612TIP3    H125800   6.469   1.596   5.539
 8612TIP3    H225801   6.423   1.470   5.469
 8613TIP3   OH225802   5.329   3.367   1.106
 8613TIP3    H125803   5.375   3.327   1.031
 8613TIP3    H225804   5.278   3.438   1.067
 8614TIP3   OH225805   6.861   6.779   1.250
 8614TIP3    H125806   6.837   6.698   1.205
 8614TIP3    H225807   6.785   6.836   1.237
 8615TIP3   OH225808   0.964   2.121   2.726
 8615TIP3    H125809   0.910   2.045   2.747
 8615TIP3    H225810   0.915   2.168   2.660
 8616TIP3   OH225811   3.629   2.161   2.290
 8616TIP3    H125812   3.635   2.251   2.257
 8616TIP3    H225813   3.537   2.137   2.277
 8617TIP3   OH225814   0.705   0.405   2.735
 8617TIP3    H125815   0.754   0.455   2.669
 8617TIP3    H225816   0.614   0.430   2.721
 8618TIP3   OH225817   0.185   0.222   3.084
 8618TIP3    H125818   0.248   0.196   3.017
 8618TIP3    H225819   0.230   0.289   3.135
 8619TIP3   OH225820   4.566   0.705   4.841
 8619TIP3    H125821   4.658   0.731   4.840
 8619TIP3    H225822   4.568   0.610   4.848
 8620TIP3   OH225823   4.626   0.144   0.969
 8620TIP3    H125824   4.532   0.150   0.987
 8620TIP3    H225825   4.631   0.124   0.876
 8621TIP3   OH225826   1.084   4.861   4.830
 8621TIP3    H125827   1.091   4.866   4.925
 8621TIP3    H225828   1.116   4.945   4.799
 8622TIP3   OH225829   5.518   0.727   0.151
 8622TIP3    H125830   5.469   0.802   0.184
 8622TIP3    H225831   5.500   0.727   0.057
 8623TIP3   OH225832   5.516   1.925   5.724
 8623TIP3    H125833   5.604   1.925   5.762
 8623TIP3    H225834   5.478   2.009   5.752
 8624TIP3   OH225835   4.173   0.708   1.975
 8624TIP3    H125836   4.150   0.615   1.967
 8624TIP3    H225837   4.269   0.708   1.976
 8625TIP3   OH225838   0.281   1.092   4.066
 8625TIP3    H125839   0.348   1.157   4.046
 8625TIP3    H225840   0.330   1.016   4.098
 8626TIP3   OH225841   6.388   2.012   5.636
 8626TIP3    H125842   6.474   1.982   5.605
 8626TIP3    H225843   6.402   2.030   5.729
 8627TIP3   OH225844   1.497   2.130   0.468
 8627TIP3    H125845   1.575   2.118   0.415
 8627TIP3    H225846   1.492   2.052   0.523
 8628TIP3   OH225847   2.135   1.388   4.056
 8628TIP3    H125848   2.204   1.389   4.122
 8628TIP3    H225849   2.119   1.480   4.036
 8629TIP3   OH225850   0.288   2.189   1.062
 8629TIP3    H125851   0.355   2.125   1.038
 8629TIP3    H225852   0.286   2.250   0.988
 8630TIP3   OH225853   4.497   1.901   4.032
 8630TIP3    H125854   4.479   1.829   3.971
 8630TIP3    H225855   4.421   1.958   4.025
 8631TIP3   OH225856   2.027   3.360   3.617
 8631TIP3    H125857   1.996   3.289   3.673
 8631TIP3    H225858   2.043   3.318   3.533
 8632TIP3   OH225859   5.576   5.029   0.255
 8632TIP3    H125860   5.496   4.983   0.280
 8632TIP3    H225861   5.589   5.006   0.163
 8633TIP3   OH225862   5.506   3.740   1.111
 8633TIP3    H125863   5.513   3.723   1.017
 8633TIP3    H225864   5.587   3.787   1.132
 8634TIP3   OH225865   6.153   4.627   0.868
 8634TIP3    H125866   6.208   4.593   0.939
 8634TIP3    H225867   6.215   4.653   0.801
 8635TIP3   OH225868   5.064   1.701   3.201
 8635TIP3    H125869   5.132   1.658   3.252
 8635TIP3    H225870   5.101   1.786   3.178
 8636TIP3   OH225871   5.871   1.415   0.350
 8636TIP3    H125872   5.919   1.473   0.291
 8636TIP3    H225873   5.904   1.328   0.330
 8637TIP3   OH225874   2.029   2.674   3.286
 8637TIP3    H125875   2.115   2.631   3.290
 8637TIP3    H225876   1.974   2.613   3.238
 8638TIP3   OH225877   1.919   0.316   1.456
 8638TIP3    H125878   1.993   0.257   1.446
 8638TIP3    H225879   1.845   0.269   1.419
 8639TIP3   OH225880   4.855   1.380   3.871
 8639TIP3    H125881   4.762   1.362   3.884
 8639TIP3    H225882   4.898   1.298   3.896
 8640TIP3   OH225883   5.513   1.951   3.357
 8640TIP3    H125884   5.530   1.990   3.443
 8640TIP3    H225885   5.586   1.982   3.302
 8641TIP3   OH225886   6.019   1.583   4.484
 8641TIP3    H125887   5.938   1.581   4.432
 8641TIP3    H225888   5.996   1.540   4.566
 8642TIP3   OH225889   0.102   3.084   5.286
 8642TIP3    H125890   0.097   3.078   5.381
 8642TIP3    H225891   0.096   3.178   5.268
 8643TIP3   OH225892   6.151   4.309   2.689
 8643TIP3    H125893   6.134   4.221   2.724
 8643TIP3    H225894   6.066   4.352   2.692
 8644TIP3   OH225895   4.558   5.688   3.066
 8644TIP3    H125896   4.615   5.638   3.124
 8644TIP3    H225897   4.599   5.774   3.060
 8645TIP3   OH225898   0.451   3.336   4.724
 8645TIP3    H125899   0.394   3.383   4.785
 8645TIP3    H225900   0.539   3.368   4.744
 8646TIP3   OH225901   3.718   0.790   4.434
 8646TIP3    H125902   3.643   0.729   4.428
 8646TIP3    H225903   3.795   0.734   4.421
 8647TIP3   OH225904   5.844   5.057   3.666
 8647TIP3    H125905   5.792   4.989   3.623
 8647TIP3    H225906   5.909   5.083   3.601
 8648TIP3   OH225907   1.601   5.947   5.648
 8648TIP3    H125908   1.660   5.908   5.712
 8648TIP3    H225909   1.522   5.969   5.699
 8649TIP3   OH225910   4.511   1.296   5.031
 8649TIP3    H125911   4.445   1.280   4.964
 8649TIP3    H225912   4.564   1.368   4.997
 8650TIP3   OH225913   4.450   5.243   2.227
 8650TIP3    H125914   4.365   5.206   2.203
 8650TIP3    H225915   4.445   5.256   2.322
 8651TIP3   OH225916   0.943   0.287   0.997
 8651TIP3    H125917   0.953   0.219   0.930
 8651TIP3    H225918   1.014   0.349   0.979
 8652TIP3   OH225919   0.552   0.192   4.854
 8652TIP3    H125920   0.553   0.288   4.848
 8652TIP3    H225921   0.466   0.168   4.820
 8653TIP3   OH225922   3.125   1.058   4.607
 8653TIP3    H125923   3.166   1.002   4.672
 8653TIP3    H225924   3.042   1.085   4.646
 8654TIP3   OH225925   5.766   1.124   1.354
 8654TIP3    H125926   5.726   1.168   1.279
 8654TIP3    H225927   5.694   1.112   1.416
 8655TIP3   OH225928   4.126   4.842   2.125
 8655TIP3    H125929   4.052   4.854   2.066
 8655TIP3    H225930   4.105   4.762   2.173
 8656TIP3   OH225931   2.726   4.653   1.767
 8656TIP3    H125932   2.778   4.677   1.690
 8656TIP3    H225933   2.738   4.726   1.827
 8657TIP3   OH225934   2.584   1.363   4.438
 8657TIP3    H125935   2.660   1.418   4.456
 8657TIP3    H225936   2.593   1.339   4.346
 8658TIP3   OH225937   2.854   0.733   5.875
 8658TIP3    H125938   2.899   0.759   5.956
 8658TIP3    H225939   2.821   0.645   5.893
 8659TIP3   OH225940   2.435   4.184   5.385
 8659TIP3    H125941   2.494   4.243   5.431
 8659TIP3    H225942   2.410   4.118   5.450
 8660TIP3   OH225943   6.742   0.550   1.809
 8660TIP3    H125944   6.712   0.462   1.787
 8660TIP3    H225945   6.662   0.596   1.837
 8661TIP3   OH225946   5.969   1.403   4.674
 8661TIP3    H125947   5.934   1.392   4.763
 8661TIP3    H225948   5.912   1.348   4.620
 8662TIP3   OH225949   1.223   6.755   1.471
 8662TIP3    H125950   1.263   6.722   1.391
 8662TIP3    H225951   1.204   6.676   1.523
 8663TIP3   OH225952   2.753   4.446   0.049
 8663TIP3    H125953   2.781   4.537   0.058
 8663TIP3    H225954   2.834   4.396   0.037
 8664TIP3   OH225955   3.212   2.186   2.045
 8664TIP3    H125956   3.259   2.221   1.970
 8664TIP3    H225957   3.280   2.144   2.099
 8665TIP3   OH225958   5.948   1.393   3.866
 8665TIP3    H125959   5.999   1.335   3.922
 8665TIP3    H225960   5.894   1.444   3.926
 8666TIP3   OH225961   4.412   1.663   0.459
 8666TIP3    H125962   4.395   1.725   0.388
 8666TIP3    H225963   4.326   1.625   0.478
 8667TIP3   OH225964   0.123   4.919   0.393
 8667TIP3    H125965   0.162   4.953   0.313
 8667TIP3    H225966   0.112   4.996   0.449
 8668TIP3   OH225967   6.930   1.600   5.534
 8668TIP3    H125968   6.944   1.673   5.474
 8668TIP3    H225969   7.010   1.595   5.585
 8669TIP3   OH225970   6.953   4.903   4.465
 8669TIP3    H125971   7.039   4.863   4.451
 8669TIP3    H225972   6.915   4.910   4.378
 8670TIP3   OH225973   6.973   0.556   0.760
 8670TIP3    H125974   6.940   0.623   0.819
 8670TIP3    H225975   7.068   0.570   0.757
 8671TIP3   OH225976   4.644   1.774   4.359
 8671TIP3    H125977   4.712   1.716   4.323
 8671TIP3    H225978   4.574   1.772   4.295
 8672TIP3   OH225979   3.073   6.692   3.777
 8672TIP3    H125980   3.062   6.774   3.729
 8672TIP3    H225981   2.984   6.661   3.791
 8673TIP3   OH225982   0.612   0.311   4.200
 8673TIP3    H125983   0.688   0.253   4.196
 8673TIP3    H225984   0.601   0.329   4.294
 8674TIP3   OH225985   6.121   0.934   3.012
 8674TIP3    H125986   6.210   0.909   2.988
 8674TIP3    H225987   6.065   0.871   2.967
 8675TIP3   OH225988   2.948   1.891   5.772
 8675TIP3    H125989   3.026   1.942   5.793
 8675TIP3    H225990   2.936   1.835   5.849
 8676TIP3   OH225991   0.249   3.693   4.130
 8676TIP3    H125992   0.337   3.700   4.094
 8676TIP3    H225993   0.261   3.705   4.224
 8677TIP3   OH225994   0.558   2.965   5.009
 8677TIP3    H125995   0.600   2.885   5.040
 8677TIP3    H225996   0.551   3.021   5.087
 8678TIP3   OH225997   2.314   4.384   3.274
 8678TIP3    H125998   2.336   4.475   3.254
 8678TIP3    H225999   2.268   4.352   3.196
 8679TIP3   OH226000   1.917   2.567   4.231
 8679TIP3    H126001   1.876   2.482   4.212
 8679TIP3    H226002   1.848   2.631   4.214
 8680TIP3   OH226003   5.058   5.374   1.586
 8680TIP3    H126004   5.143   5.376   1.630
 8680TIP3    H226005   5.011   5.301   1.627
 8681TIP3   OH226006   5.730   4.786   3.594
 8681TIP3    H126007   5.814   4.779   3.639
 8681TIP3    H226008   5.676   4.718   3.634
 8682TIP3   OH226009   2.271   4.834   5.716
 8682TIP3    H126010   2.268   4.889   5.638
 8682TIP3    H226011   2.359   4.847   5.751
 8683TIP3   OH226012   0.611   2.088   1.315
 8683TIP3    H126013   0.606   2.084   1.220
 8683TIP3    H226014   0.695   2.132   1.333
 8684TIP3   OH226015   2.508   1.094   0.918
 8684TIP3    H126016   2.528   1.002   0.908
 8684TIP3    H226017   2.445   1.097   0.990
 8685TIP3   OH226018   5.588   3.888   2.202
 8685TIP3    H126019   5.526   3.818   2.183
 8685TIP3    H226020   5.641   3.895   2.122
 8686TIP3   OH226021   1.199   4.846   5.725
 8686TIP3    H126022   1.197   4.788   5.802
 8686TIP3    H226023   1.116   4.893   5.728
 8687TIP3   OH226024   4.972   3.236   1.770
 8687TIP3    H126025   4.892   3.277   1.739
 8687TIP3    H226026   4.973   3.150   1.728
 8688TIP3   OH226027   0.738   0.798   4.964
 8688TIP3    H126028   0.677   0.822   5.033
 8688TIP3    H226029   0.824   0.821   4.999
 8689TIP3   OH226030   5.849   4.900   2.192
 8689TIP3    H126031   5.879   4.978   2.239
 8689TIP3    H226032   5.813   4.932   2.110
 8690TIP3   OH226033   5.588   6.056   2.263
 8690TIP3    H126034   5.574   6.001   2.341
 8690TIP3    H226035   5.670   6.102   2.281
 8691TIP3   OH226036   2.204   0.366   5.673
 8691TIP3    H126037   2.132   0.406   5.721
 8691TIP3    H226038   2.163   0.327   5.595
 8692TIP3   OH226039   2.669   4.857   0.303
 8692TIP3    H126040   2.596   4.913   0.329
 8692TIP3    H226041   2.743   4.888   0.354
 8693TIP3   OH226042   4.925   5.116   3.204
 8693TIP3    H126043   4.880   5.200   3.193
 8693TIP3    H226044   4.970   5.103   3.121
 8694TIP3   OH226045   2.308   6.064   2.545
 8694TIP3    H126046   2.286   6.156   2.528
 8694TIP3    H226047   2.271   6.017   2.471
 8695TIP3   OH226048   1.544   5.876   2.990
 8695TIP3    H126049   1.501   5.866   2.906
 8695TIP3    H226050   1.551   5.970   3.003
 8696TIP3   OH226051   3.679   5.497   2.342
 8696TIP3    H126052   3.755   5.439   2.340
 8696TIP3    H226053   3.607   5.443   2.374
 8697TIP3   OH226054   2.393   6.679   1.628
 8697TIP3    H126055   2.327   6.677   1.697
 8697TIP3    H226056   2.426   6.769   1.630
 8698TIP3   OH226057   6.586   3.080   5.240
 8698TIP3    H126058   6.595   3.089   5.335
 8698TIP3    H226059   6.513   3.018   5.230
 8699TIP3   OH226060   4.050   3.980   2.766
 8699TIP3    H126061   4.007   4.041   2.706
 8699TIP3    H226062   4.064   4.031   2.846
 8700TIP3   OH226063   3.968   6.369   2.467
 8700TIP3    H126064   4.023   6.403   2.396
 8700TIP3    H226065   4.018   6.388   2.547
 8701TIP3   OH226066   2.894   2.940   1.000
 8701TIP3    H126067   2.928   3.020   0.962
 8701TIP3    H226068   2.869   2.886   0.925
 8702TIP3   OH226069   6.954   1.920   1.089
 8702TIP3    H126070   6.890   1.854   1.061
 8702TIP3    H226071   6.916   2.003   1.062
 8703TIP3   OH226072   0.924   2.332   0.392
 8703TIP3    H126073   1.012   2.330   0.429
 8703TIP3    H226074   0.900   2.240   0.381
 8704TIP3   OH226075   1.306   6.426   3.358
 8704TIP3    H126076   1.360   6.418   3.437
 8704TIP3    H226077   1.369   6.434   3.287
 8705TIP3   OH226078   3.413   4.262   1.622
 8705TIP3    H126079   3.452   4.189   1.670
 8705TIP3    H226080   3.478   4.287   1.557
 8706TIP3   OH226081   1.094   3.477   3.961
 8706TIP3    H126082   1.002   3.500   3.952
 8706TIP3    H226083   1.099   3.428   4.043
 8707TIP3   OH226084   4.258   2.491   4.207
 8707TIP3    H126085   4.285   2.577   4.239
 8707TIP3    H226086   4.223   2.447   4.284
 8708TIP3   OH226087   2.263   6.199   5.151
 8708TIP3    H126088   2.312   6.140   5.209
 8708TIP3    H226089   2.329   6.259   5.116
 8709TIP3   OH226090   1.771   2.536   2.806
 8709TIP3    H126091   1.711   2.611   2.811
 8709TIP3    H226092   1.856   2.572   2.833
 8710TIP3   OH226093   3.725   0.495   3.266
 8710TIP3    H126094   3.796   0.429   3.265
 8710TIP3    H226095   3.760   0.568   3.215
 8711TIP3   OH226096   2.674   3.528   3.650
 8711TIP3    H126097   2.755   3.546   3.602
 8711TIP3    H226098   2.607   3.579   3.604
 8712TIP3   OH226099   0.791   6.077   4.927
 8712TIP3    H126100   0.757   6.160   4.961
 8712TIP3    H226101   0.755   6.071   4.839
 8713TIP3   OH226102   4.970   2.653   3.666
 8713TIP3    H126103   5.009   2.735   3.637
 8713TIP3    H226104   5.027   2.585   3.631
 8714TIP3   OH226105   3.880   3.622   4.301
 8714TIP3    H126106   3.841   3.686   4.241
 8714TIP3    H226107   3.811   3.556   4.313
 8715TIP3   OH226108   0.669   6.591   1.556
 8715TIP3    H126109   0.663   6.618   1.464
 8715TIP3    H226110   0.763   6.586   1.574
 8716TIP3   OH226111   2.538   3.462   0.670
 8716TIP3    H126112   2.474   3.392   0.683
 8716TIP3    H226113   2.494   3.541   0.703
 8717TIP3   OH226114   1.309   4.243   5.233
 8717TIP3    H126115   1.346   4.209   5.314
 8717TIP3    H226116   1.215   4.241   5.246
 8718TIP3   OH226117   6.849   5.701   5.849
 8718TIP3    H126118   6.918   5.764   5.873
 8718TIP3    H226119   6.850   5.701   5.753
 8719TIP3   OH226120   0.637   4.737   0.340
 8719TIP3    H126121   0.603   4.669   0.282
 8719TIP3    H226122   0.558   4.780   0.375
 8720TIP3   OH226123   4.892   0.196   3.750
 8720TIP3    H126124   4.873   0.273   3.696
 8720TIP3    H226125   4.814   0.185   3.804
 8721TIP3   OH226126   4.744   1.645   5.739
 8721TIP3    H126127   4.713   1.643   5.649
 8721TIP3    H226128   4.826   1.695   5.735
 8722TIP3   OH226129   7.216   0.750   1.785
 8722TIP3    H126130   7.193   0.665   1.822
 8722TIP3    H226131   7.165   0.813   1.837
 8723TIP3   OH226132   3.612   3.544   3.714
 8723TIP3    H126133   3.529   3.578   3.747
 8723TIP3    H226134   3.587   3.469   3.660
 8724TIP3   OH226135   6.777   5.755   4.864
 8724TIP3    H126136   6.696   5.792   4.899
 8724TIP3    H226137   6.845   5.818   4.889
 8725TIP3   OH226138   1.008   4.249   3.782
 8725TIP3    H126139   0.932   4.194   3.806
 8725TIP3    H226140   1.082   4.206   3.825
 8726TIP3   OH226141   1.654   6.507   0.771
 8726TIP3    H126142   1.560   6.517   0.788
 8726TIP3    H226143   1.665   6.416   0.745
 8727TIP3   OH226144   5.364   3.391   2.063
 8727TIP3    H126145   5.362   3.300   2.033
 8727TIP3    H226146   5.295   3.396   2.129
 8728TIP3   OH226147   0.025   4.224   5.301
 8728TIP3    H126148   0.047   4.233   5.394
 8728TIP3    H226149  -0.004   4.133   5.292
 8729TIP3   OH226150   0.039   3.022   4.497
 8729TIP3    H126151   0.085   3.006   4.415
 8729TIP3    H226152   0.106   3.056   4.556
 8730TIP3   OH226153   3.040   3.877   1.600
 8730TIP3    H126154   3.051   3.968   1.572
 8730TIP3    H226155   3.114   3.860   1.658
 8731TIP3   OH226156   2.101   4.997   1.181
 8731TIP3    H126157   2.145   5.079   1.158
 8731TIP3    H226158   2.172   4.938   1.206
 8732TIP3   OH226159   4.280   2.586   2.550
 8732TIP3    H126160   4.312   2.549   2.633
 8732TIP3    H226161   4.217   2.523   2.518
 8733TIP3   OH226162   6.890   2.606   4.476
 8733TIP3    H126163   6.881   2.584   4.569
 8733TIP3    H226164   6.886   2.521   4.431
 8734TIP3   OH226165   0.099   4.259   5.562
 8734TIP3    H126166   0.041   4.334   5.575
 8734TIP3    H226167   0.096   4.211   5.645
 8735TIP3   OH226168   5.161   6.713   4.713
 8735TIP3    H126169   5.222   6.670   4.773
 8735TIP3    H226170   5.145   6.648   4.644
 8736TIP3   OH226171   4.628   2.157   1.430
 8736TIP3    H126172   4.542   2.116   1.421
 8736TIP3    H226173   4.682   2.091   1.474
 8737TIP3   OH226174   1.359   0.363   1.694
 8737TIP3    H126175   1.384   0.443   1.648
 8737TIP3    H226176   1.354   0.390   1.786
 8738TIP3   OH226177   5.016   2.392   2.354
 8738TIP3    H126178   5.103   2.426   2.335
 8738TIP3    H226179   4.979   2.373   2.267
 8739TIP3   OH226180   4.865   6.342   1.329
 8739TIP3    H126181   4.866   6.287   1.407
 8739TIP3    H226182   4.772   6.360   1.313
 8740TIP3   OH226183   2.260   3.523   3.394
 8740TIP3    H126184   2.237   3.435   3.423
 8740TIP3    H226185   2.192   3.545   3.330
 8741TIP3   OH226186   0.376   5.353   3.988
 8741TIP3    H126187   0.338   5.415   4.050
 8741TIP3    H226188   0.318   5.357   3.912
 8742TIP3   OH226189   4.740   3.598   3.073
 8742TIP3    H126190   4.760   3.505   3.076
 8742TIP3    H226191   4.759   3.630   3.161
 8743TIP3   OH226192   2.679   0.337   2.206
 8743TIP3    H126193   2.659   0.326   2.113
 8743TIP3    H226194   2.704   0.249   2.236
 8744TIP3   OH226195   4.121   5.621   4.148
 8744TIP3    H126196   4.205   5.636   4.105
 8744TIP3    H226197   4.144   5.580   4.232
 8745TIP3   OH226198   1.657   4.785   3.573
 8745TIP3    H126199   1.610   4.803   3.655
 8745TIP3    H226200   1.684   4.694   3.580
 8746TIP3   OH226201   3.903   2.304   3.628
 8746TIP3    H126202   3.831   2.253   3.591
 8746TIP3    H226203   3.905   2.384   3.576
 8747TIP3   OH226204   1.807   2.119   0.866
 8747TIP3    H126205   1.768   2.203   0.841
 8747TIP3    H226206   1.822   2.127   0.960
 8748TIP3   OH226207   2.382   4.908   0.613
 8748TIP3    H126208   2.341   4.962   0.546
 8748TIP3    H226209   2.474   4.902   0.587
 8749TIP3   OH226210   3.696   4.446   1.904
 8749TIP3    H126211   3.625   4.446   1.968
 8749TIP3    H226212   3.776   4.439   1.957
 8750TIP3   OH226213   6.354   3.845   2.201
 8750TIP3    H126214   6.304   3.825   2.280
 8750TIP3    H226215   6.287   3.851   2.132
 8751TIP3   OH226216   1.902   5.806   3.350
 8751TIP3    H126217   1.816   5.817   3.308
 8751TIP3    H226218   1.884   5.751   3.426
 8752TIP3   OH226219   1.238   3.727   1.889
 8752TIP3    H126220   1.243   3.817   1.922
 8752TIP3    H226221   1.319   3.686   1.919
 8753TIP3   OH226222   6.066   1.819   2.531
 8753TIP3    H126223   6.102   1.731   2.526
 8753TIP3    H226224   6.100   1.854   2.614
 8754TIP3   OH226225   6.822   6.515   5.890
 8754TIP3    H126226   6.910   6.538   5.920
 8754TIP3    H226227   6.833   6.429   5.849
 8755TIP3   OH226228   5.669   0.840   4.859
 8755TIP3    H126229   5.574   0.825   4.855
 8755TIP3    H226230   5.678   0.935   4.861
 8756TIP3   OH226231   2.601   6.510   1.062
 8756TIP3    H126232   2.675   6.551   1.016
 8756TIP3    H226233   2.526   6.566   1.041
 8757TIP3   OH226234   0.160   6.416   4.142
 8757TIP3    H126235   0.210   6.454   4.215
 8757TIP3    H226236   0.197   6.328   4.132
 8758TIP3   OH226237   1.704   5.661   2.951
 8758TIP3    H126238   1.642   5.592   2.972
 8758TIP3    H226239   1.652   5.741   2.952
 8759TIP3   OH226240   0.613   1.102   3.427
 8759TIP3    H126241   0.559   1.037   3.470
 8759TIP3    H226242   0.639   1.162   3.496
 8760TIP3   OH226243   2.104   0.886   5.109
 8760TIP3    H126244   2.132   0.919   5.195
 8760TIP3    H226245   2.135   0.952   5.047
 8761TIP3   OH226246   7.081   3.646   1.536
 8761TIP3    H126247   7.080   3.553   1.561
 8761TIP3    H226248   7.166   3.678   1.567
 8762TIP3   OH226249   3.125   3.470   0.254
 8762TIP3    H126250   3.053   3.512   0.208
 8762TIP3    H226251   3.182   3.542   0.281
 8763TIP3   OH226252   5.807   3.995   4.804
 8763TIP3    H126253   5.714   4.014   4.820
 8763TIP3    H226254   5.810   3.962   4.715
 8764TIP3   OH226255   0.582   2.944   2.476
 8764TIP3    H126256   0.574   2.981   2.564
 8764TIP3    H226257   0.573   2.849   2.489
 8765TIP3   OH226258   4.006   6.658   4.912
 8765TIP3    H126259   4.081   6.717   4.918
 8765TIP3    H226260   4.042   6.571   4.927
 8766TIP3   OH226261   4.914   3.634   0.143
 8766TIP3    H126262   4.829   3.594   0.127
 8766TIP3    H226263   4.963   3.617   0.062
 8767TIP3   OH226264   0.890   6.666   2.531
 8767TIP3    H126265   0.864   6.603   2.598
 8767TIP3    H226266   0.863   6.751   2.566
 8768TIP3   OH226267   7.035   0.512   1.479
 8768TIP3    H126268   6.961   0.475   1.432
 8768TIP3    H226269   7.014   0.605   1.489
 8769TIP3   OH226270   4.028   2.803   1.877
 8769TIP3    H126271   3.984   2.723   1.908
 8769TIP3    H226272   4.097   2.819   1.941
 8770TIP3   OH226273   2.686   3.450   1.614
 8770TIP3    H126274   2.671   3.382   1.680
 8770TIP3    H226275   2.756   3.504   1.651
 8771TIP3   OH226276   3.847   3.361   4.660
 8771TIP3    H126277   3.903   3.286   4.640
 8771TIP3    H226278   3.905   3.421   4.707
 8772TIP3   OH226279   4.684   1.222   0.238
 8772TIP3    H126280   4.643   1.153   0.186
 8772TIP3    H226281   4.625   1.234   0.312
 8773TIP3   OH226282   4.772   3.714   0.632
 8773TIP3    H126283   4.773   3.742   0.540
 8773TIP3    H226284   4.711   3.775   0.675
 8774TIP3   OH226285   5.467   3.771   5.636
 8774TIP3    H126286   5.529   3.784   5.565
 8774TIP3    H226287   5.391   3.825   5.612
 8775TIP3   OH226288   6.271   1.148   1.468
 8775TIP3    H126289   6.228   1.192   1.395
 8775TIP3    H226290   6.262   1.055   1.447
 8776TIP3   OH226291   0.927   6.075   4.586
 8776TIP3    H126292   0.892   5.992   4.553
 8776TIP3    H226293   0.870   6.142   4.546
 8777TIP3   OH226294   2.725   6.271   1.663
 8777TIP3    H126295   2.673   6.346   1.634
 8777TIP3    H226296   2.664   6.197   1.662
 8778TIP3   OH226297   1.380   3.008   1.164
 8778TIP3    H126298   1.308   2.968   1.213
 8778TIP3    H226299   1.340   3.084   1.121
 8779TIP3   OH226300   3.979   1.601   4.191
 8779TIP3    H126301   4.068   1.637   4.192
 8779TIP3    H226302   3.982   1.528   4.252
 8780TIP3   OH226303   0.329   2.288   2.542
 8780TIP3    H126304   0.256   2.236   2.510
 8780TIP3    H226305   0.397   2.224   2.561
 8781TIP3   OH226306   1.764   4.477   4.527
 8781TIP3    H126307   1.860   4.480   4.528
 8781TIP3    H226308   1.743   4.392   4.489
 8782TIP3   OH226309   0.294   1.393   5.529
 8782TIP3    H126310   0.364   1.400   5.594
 8782TIP3    H226311   0.229   1.334   5.569
 8783TIP3   OH226312   1.891   4.190   3.913
 8783TIP3    H126313   1.804   4.164   3.942
 8783TIP3    H226314   1.905   4.141   3.832
 8784TIP3   OH226315   0.069   3.965   1.221
 8784TIP3    H126316   0.138   4.026   1.246
 8784TIP3    H226317   0.016   4.013   1.158
 8785TIP3   OH226318   0.561   5.489   3.488
 8785TIP3    H126319   0.576   5.395   3.476
 8785TIP3    H226320   0.648   5.525   3.507
 8786TIP3   OH226321   5.279   1.084   2.989
 8786TIP3    H126322   5.296   1.002   2.943
 8786TIP3    H226323   5.342   1.085   3.061
 8787TIP3   OH226324   1.480   3.202   0.462
 8787TIP3    H126325   1.569   3.166   0.458
 8787TIP3    H226326   1.492   3.290   0.498
 8788TIP3   OH226327   1.819   4.108   1.399
 8788TIP3    H126328   1.800   4.015   1.386
 8788TIP3    H226329   1.914   4.114   1.394
 8789TIP3   OH226330   5.865   6.457   1.650
 8789TIP3    H126331   5.777   6.481   1.621
 8789TIP3    H226332   5.858   6.365   1.675
 8790TIP3   OH226333   0.453   5.157   4.408
 8790TIP3    H126334   0.510   5.210   4.352
 8790TIP3    H226335   0.429   5.215   4.480
 8791TIP3   OH226336   1.649   4.149   0.688
 8791TIP3    H126337   1.594   4.195   0.752
 8791TIP3    H226338   1.587   4.105   0.630
 8792TIP3   OH226339   5.971   5.693   1.628
 8792TIP3    H126340   6.002   5.673   1.716
 8792TIP3    H226341   5.888   5.739   1.642
 8793TIP3   OH226342   5.803   2.875   5.447
 8793TIP3    H126343   5.737   2.944   5.443
 8793TIP3    H226344   5.763   2.800   5.404
 8794TIP3   OH226345   1.484   1.117   1.607
 8794TIP3    H126346   1.489   1.146   1.698
 8794TIP3    H226347   1.556   1.163   1.564
 8795TIP3   OH226348   6.394   4.214   1.043
 8795TIP3    H126349   6.420   4.171   1.125
 8795TIP3    H226350   6.327   4.157   1.007
 8796TIP3   OH226351   2.382   4.341   4.150
 8796TIP3    H126352   2.347   4.263   4.108
 8796TIP3    H226353   2.375   4.409   4.083
 8797TIP3   OH226354   3.733   0.195   4.573
 8797TIP3    H126355   3.772   0.281   4.586
 8797TIP3    H226356   3.807   0.135   4.573
 8798TIP3   OH226357   1.070   0.101   2.322
 8798TIP3    H126358   1.114   0.019   2.346
 8798TIP3    H226359   1.142   0.160   2.296
 8799TIP3   OH226360   4.355   1.423   1.985
 8799TIP3    H126361   4.438   1.455   1.949
 8799TIP3    H226362   4.343   1.338   1.944
 8800TIP3   OH226363   4.288   6.005   1.558
 8800TIP3    H126364   4.273   5.941   1.628
 8800TIP3    H226365   4.291   5.952   1.478
 8801TIP3   OH226366   3.715   0.279   2.093
 8801TIP3    H126367   3.691   0.334   2.019
 8801TIP3    H226368   3.714   0.190   2.058
 8802TIP3   OH226369   6.299   5.719   1.833
 8802TIP3    H126370   6.387   5.680   1.834
 8802TIP3    H226371   6.315   5.813   1.839
 8803TIP3   OH226372   0.631   4.387   1.822
 8803TIP3    H126373   0.637   4.466   1.767
 8803TIP3    H226374   0.665   4.415   1.907
 8804TIP3   OH226375   0.529   2.935  -0.022
 8804TIP3    H126376   0.481   2.964   0.056
 8804TIP3    H226377   0.603   2.885   0.013
 8805TIP3   OH226378   5.168   3.929   1.687
 8805TIP3    H126379   5.206   3.969   1.766
 8805TIP3    H226380   5.075   3.953   1.691
 8806TIP3   OH226381   4.111   2.347   1.016
 8806TIP3    H126382   4.021   2.338   1.049
 8806TIP3    H226383   4.165   2.301   1.080
 8807TIP3   OH226384   4.523   6.602   0.516
 8807TIP3    H126385   4.608   6.646   0.524
 8807TIP3    H226386   4.538   6.533   0.452
 8808TIP3   OH226387   5.856   5.536   3.758
 8808TIP3    H126388   5.868   5.611   3.816
 8808TIP3    H226389   5.817   5.573   3.678
 8809TIP3   OH226390   2.653   3.484   5.570
 8809TIP3    H126391   2.633   3.390   5.565
 8809TIP3    H226392   2.635   3.517   5.482
 8810TIP3   OH226393   0.557   0.892   4.595
 8810TIP3    H126394   0.467   0.923   4.597
 8810TIP3    H226395   0.551   0.800   4.619
 8811TIP3   OH226396   4.604   3.655   2.818
 8811TIP3    H126397   4.630   3.724   2.758
 8811TIP3    H226398   4.608   3.696   2.905
 8812TIP3   OH226399   5.028   3.740   5.711
 8812TIP3    H126400   5.119   3.712   5.715
 8812TIP3    H226401   5.023   3.797   5.634
 8813TIP3   OH226402   5.571   0.835   0.502
 8813TIP3    H126403   5.547   0.874   0.419
 8813TIP3    H226404   5.646   0.779   0.482
 8814TIP3   OH226405   0.008   1.086   1.535
 8814TIP3    H126406   0.079   1.032   1.502
 8814TIP3    H226407   0.016   1.168   1.487
 8815TIP3   OH226408   0.265   0.577   3.465
 8815TIP3    H126409   0.201   0.586   3.536
 8815TIP3    H226410   0.339   0.630   3.493
 8816TIP3   OH226411   0.986   1.315   2.235
 8816TIP3    H126412   0.895   1.307   2.208
 8816TIP3    H226413   0.982   1.348   2.325
 8817TIP3   OH226414   0.727   5.666   1.368
 8817TIP3    H126415   0.735   5.580   1.408
 8817TIP3    H226416   0.634   5.675   1.349
 8818TIP3   OH226417   0.372   5.570   4.476
 8818TIP3    H126418   0.412   5.490   4.511
 8818TIP3    H226419   0.285   5.542   4.447
 8819TIP3   OH226420   1.252   4.886   2.310
 8819TIP3    H126421   1.239   4.977   2.285
 8819TIP3    H226422   1.304   4.848   2.238
 8820TIP3   OH226423   6.012   5.481   5.125
 8820TIP3    H126424   6.037   5.431   5.048
 8820TIP3    H226425   6.019   5.418   5.198
 8821TIP3   OH226426   5.736   0.821   3.943
 8821TIP3    H126427   5.816   0.871   3.927
 8821TIP3    H226428   5.748   0.741   3.892
 8822TIP3   OH226429   6.719   6.127   5.280
 8822TIP3    H126430   6.662   6.050   5.280
 8822TIP3    H226431   6.703   6.168   5.195
 8823TIP3   OH226432   0.458   1.146   5.601
 8823TIP3    H126433   0.493   1.197   5.528
 8823TIP3    H226434   0.477   1.199   5.678
 8824TIP3   OH226435   2.950   0.634   0.047
 8824TIP3    H126436   2.969   0.692   0.121
 8824TIP3    H226437   3.035   0.619   0.006
 8825TIP3   OH226438   4.305   0.077   0.582
 8825TIP3    H126439   4.284   0.150   0.641
 8825TIP3    H226440   4.292   0.113   0.494
 8826TIP3   OH226441   2.832   3.737   1.131
 8826TIP3    H126442   2.801   3.822   1.161
 8826TIP3    H226443   2.761   3.676   1.155
 8827TIP3   OH226444   6.913   3.311   5.651
 8827TIP3    H126445   6.983   3.302   5.586
 8827TIP3    H226446   6.935   3.392   5.698
 8828TIP3   OH226447   2.158   4.389   3.534
 8828TIP3    H126448   2.181   4.394   3.441
 8828TIP3    H226449   2.099   4.464   3.548
 8829TIP3   OH226450   2.527   5.043   2.565
 8829TIP3    H126451   2.554   5.054   2.474
 8829TIP3    H226452   2.447   5.094   2.573
 8830TIP3   OH226453   5.632   1.758   2.009
 8830TIP3    H126454   5.666   1.750   2.098
 8830TIP3    H226455   5.690   1.820   1.966
 8831TIP3   OH226456   6.700   6.350   1.979
 8831TIP3    H126457   6.769   6.416   1.985
 8831TIP3    H226458   6.747   6.267   1.973
 8832TIP3   OH226459   3.430   0.362   1.129
 8832TIP3    H126460   3.516   0.401   1.112
 8832TIP3    H226461   3.368   0.429   1.102
 8833TIP3   OH226462   4.936   5.626   4.017
 8833TIP3    H126463   4.933   5.566   3.943
 8833TIP3    H226464   5.019   5.674   4.006
 8834TIP3   OH226465   2.820   1.052   1.016
 8834TIP3    H126466   2.761   1.123   0.989
 8834TIP3    H226467   2.839   1.070   1.108
 8835TIP3   OH226468   3.935   3.442   1.242
 8835TIP3    H126469   3.977   3.360   1.215
 8835TIP3    H226470   3.855   3.414   1.286
 8836TIP3   OH226471   1.257   0.225   2.190
 8836TIP3    H126472   1.245   0.258   2.101
 8836TIP3    H226473   1.349   0.200   2.195
 8837TIP3   OH226474   1.119   4.698   4.615
 8837TIP3    H126475   1.150   4.611   4.641
 8837TIP3    H226476   1.107   4.744   4.698
 8838TIP3   OH226477   5.743   3.812   4.587
 8838TIP3    H126478   5.705   3.855   4.510
 8838TIP3    H226479   5.690   3.733   4.598
 8839TIP3   OH226480   0.629   6.392   3.195
 8839TIP3    H126481   0.544   6.357   3.221
 8839TIP3    H226482   0.612   6.436   3.112
 8840TIP3   OH226483   3.962   6.247   0.887
 8840TIP3    H126484   4.039   6.254   0.830
 8840TIP3    H226485   3.891   6.219   0.828
 8841TIP3   OH226486   1.280   3.703   4.267
 8841TIP3    H126487   1.248   3.620   4.304
 8841TIP3    H226488   1.285   3.687   4.173
 8842TIP3   OH226489   4.568   4.195   4.515
 8842TIP3    H126490   4.654   4.224   4.485
 8842TIP3    H226491   4.578   4.101   4.527
 8843TIP3   OH226492   0.798   3.187   2.959
 8843TIP3    H126493   0.871   3.125   2.948
 8843TIP3    H226494   0.788   3.228   2.873
 8844TIP3   OH226495   2.757   2.133   4.500
 8844TIP3    H126496   2.709   2.166   4.424
 8844TIP3    H226497   2.810   2.061   4.466
 8845TIP3   OH226498   2.444   2.634   4.706
 8845TIP3    H126499   2.356   2.626   4.742
 8845TIP3    H226500   2.479   2.715   4.744
 8846TIP3   OH226501   3.689   0.930   1.319
 8846TIP3    H126502   3.758   0.991   1.293
 8846TIP3    H226503   3.718   0.845   1.285
 8847TIP3   OH226504   5.552   4.438   2.569
 8847TIP3    H126505   5.603   4.369   2.525
 8847TIP3    H226506   5.480   4.392   2.611
 8848TIP3   OH226507   0.219   0.009   5.531
 8848TIP3    H126508   0.236   0.085   5.587
 8848TIP3    H226509   0.133   0.026   5.492
 8849TIP3   OH226510   1.839   5.515   0.333
 8849TIP3    H126511   1.799   5.430   0.315
 8849TIP3    H226512   1.931   5.503   0.311
 8850TIP3   OH226513   7.010   4.368   5.214
 8850TIP3    H126514   6.949   4.300   5.187
 8850TIP3    H226515   7.093   4.322   5.228
 8851TIP3   OH226516   1.769   5.435   2.532
 8851TIP3    H126517   1.686   5.463   2.568
 8851TIP3    H226518   1.778   5.343   2.560
 8852TIP3   OH226519   3.195   5.588   3.877
 8852TIP3    H126520   3.240   5.537   3.945
 8852TIP3    H226521   3.261   5.600   3.809
 8853TIP3   OH226522   4.677   0.231   3.276
 8853TIP3    H126523   4.744   0.278   3.226
 8853TIP3    H226524   4.654   0.290   3.347
 8854TIP3   OH226525   0.553   6.599   3.381
 8854TIP3    H126526   0.589   6.515   3.351
 8854TIP3    H226527   0.586   6.608   3.470
 8855TIP3   OH226528   2.235   5.920   2.326
 8855TIP3    H126529   2.139   5.918   2.329
 8855TIP3    H226530   2.260   5.831   2.301
 8856TIP3   OH226531   0.777   4.074   3.888
 8856TIP3    H126532   0.683   4.096   3.887
 8856TIP3    H226533   0.799   4.071   3.981
 8857TIP3   OH226534   7.128   0.760   3.775
 8857TIP3    H126535   7.069   0.750   3.700
 8857TIP3    H226536   7.077   0.810   3.838
 8858TIP3   OH226537   3.732   6.068   1.846
 8858TIP3    H126538   3.641   6.093   1.829
 8858TIP3    H226539   3.757   6.118   1.923
 8859TIP3   OH226540   1.048   0.091   5.803
 8859TIP3    H126541   1.112   0.160   5.816
 8859TIP3    H226542   1.100   0.010   5.804
 8860TIP3   OH226543   2.088   4.439   5.137
 8860TIP3    H126544   2.120   4.351   5.155
 8860TIP3    H226545   1.997   4.438   5.168
 8861TIP3   OH226546   3.080   6.673   2.480
 8861TIP3    H126547   3.082   6.582   2.449
 8861TIP3    H226548   3.169   6.705   2.466
 8862TIP3   OH226549   1.822   3.345   3.278
 8862TIP3    H126550   1.906   3.321   3.315
 8862TIP3    H226551   1.777   3.261   3.265
 8863TIP3   OH226552   3.282   1.557   3.856
 8863TIP3    H126553   3.272   1.514   3.772
 8863TIP3    H226554   3.318   1.490   3.914
 8864TIP3   OH226555   4.535   3.210   0.892
 8864TIP3    H126556   4.525   3.250   0.978
 8864TIP3    H226557   4.579   3.126   0.909
 8865TIP3   OH226558   6.057   4.631   2.141
 8865TIP3    H126559   6.091   4.686   2.211
 8865TIP3    H226560   6.104   4.660   2.063
 8866TIP3   OH226561   7.120   2.045   4.354
 8866TIP3    H126562   7.091   2.036   4.263
 8866TIP3    H226563   7.194   1.985   4.362
 8867TIP3   OH226564   3.491   5.258   0.173
 8867TIP3    H126565   3.431   5.214   0.233
 8867TIP3    H226566   3.557   5.298   0.230
 8868TIP3   OH226567   6.959   4.787   2.539
 8868TIP3    H126568   6.943   4.784   2.633
 8868TIP3    H226569   7.032   4.728   2.524
 8869TIP3   OH226570   5.343   3.506   4.600
 8869TIP3    H126571   5.325   3.415   4.575
 8869TIP3    H226572   5.310   3.513   4.690
 8870TIP3   OH226573   2.594   3.220   5.511
 8870TIP3    H126574   2.611   3.189   5.422
 8870TIP3    H226575   2.619   3.147   5.567
 8871TIP3   OH226576   1.869   6.129   5.331
 8871TIP3    H126577   1.905   6.198   5.275
 8871TIP3    H226578   1.930   6.056   5.323
 8872TIP3   OH226579   6.868   3.407   3.149
 8872TIP3    H126580   6.877   3.433   3.057
 8872TIP3    H226581   6.855   3.490   3.196
 8873TIP3   OH226582   4.848   0.401   3.091
 8873TIP3    H126583   4.759   0.434   3.076
 8873TIP3    H226584   4.852   0.320   3.040
 8874TIP3   OH226585   3.964   5.925   3.439
 8874TIP3    H126586   4.026   5.859   3.409
 8874TIP3    H226587   3.903   5.935   3.366
 8875TIP3   OH226588   1.068   1.903   5.280
 8875TIP3    H126589   1.150   1.854   5.277
 8875TIP3    H226590   1.019   1.863   5.353
 8876TIP3   OH226591   4.314   3.907   3.800
 8876TIP3    H126592   4.362   3.878   3.722
 8876TIP3    H226593   4.244   3.844   3.810
 8877TIP3   OH226594   2.863   4.445   2.801
 8877TIP3    H126595   2.904   4.455   2.715
 8877TIP3    H226596   2.774   4.476   2.789
 8878TIP3   OH226597   1.490   0.681   2.237
 8878TIP3    H126598   1.414   0.705   2.183
 8878TIP3    H226599   1.505   0.758   2.292
 8879TIP3   OH226600   5.338   6.678   1.241
 8879TIP3    H126601   5.349   6.772   1.243
 8879TIP3    H226602   5.407   6.646   1.183
 8880TIP3   OH226603   6.283   2.908   0.062
 8880TIP3    H126604   6.198   2.941   0.035
 8880TIP3    H226605   6.334   2.905  -0.019
 8881TIP3   OH226606   2.896   2.515   4.997
 8881TIP3    H126607   2.818   2.511   4.942
 8881TIP3    H226608   2.956   2.572   4.949
 8882TIP3   OH226609   3.026   1.028   1.975
 8882TIP3    H126610   2.934   1.049   1.994
 8882TIP3    H226611   3.075   1.101   2.012
 8883TIP3   OH226612   3.316   3.755   0.303
 8883TIP3    H126613   3.239   3.752   0.359
 8883TIP3    H226614   3.383   3.708   0.352
 8884TIP3   OH226615   6.586   6.062   0.223
 8884TIP3    H126616   6.679   6.040   0.229
 8884TIP3    H226617   6.558   6.022   0.141
 8885TIP3   OH226618   5.350   0.376   0.297
 8885TIP3    H126619   5.287   0.339   0.359
 8885TIP3    H226620   5.296   0.415   0.228
 8886TIP3   OH226621   2.135   5.097   0.617
 8886TIP3    H126622   2.051   5.077   0.577
 8886TIP3    H226623   2.132   5.052   0.702
 8887TIP3   OH226624   3.696   3.025   2.858
 8887TIP3    H126625   3.620   3.059   2.812
 8887TIP3    H226626   3.682   3.049   2.950
 8888TIP3   OH226627   5.570   0.223   2.957
 8888TIP3    H126628   5.488   0.267   2.937
 8888TIP3    H226629   5.546   0.132   2.972
 8889TIP3   OH226630   7.037   0.779   0.940
 8889TIP3    H126631   7.129   0.764   0.965
 8889TIP3    H226632   6.990   0.777   1.023
 8890TIP3   OH226633   3.627   2.598   4.850
 8890TIP3    H126634   3.690   2.602   4.778
 8890TIP3    H226635   3.544   2.621   4.810
 8891TIP3   OH226636   2.450   5.106   4.744
 8891TIP3    H126637   2.502   5.056   4.681
 8891TIP3    H226638   2.375   5.049   4.763
 8892TIP3   OH226639   6.651   5.973   2.542
 8892TIP3    H126640   6.649   5.964   2.447
 8892TIP3    H226641   6.560   5.964   2.569
 8893TIP3   OH226642   0.897   2.330   5.604
 8893TIP3    H126643   0.846   2.357   5.681
 8893TIP3    H226644   0.878   2.396   5.538
 8894TIP3   OH226645   1.308   3.784   0.926
 8894TIP3    H126646   1.329   3.701   0.968
 8894TIP3    H226647   1.260   3.760   0.846
 8895TIP3   OH226648   6.555   5.622   1.854
 8895TIP3    H126649   6.597   5.598   1.771
 8895TIP3    H226650   6.553   5.541   1.904
 8896TIP3   OH226651   1.631   2.665   5.125
 8896TIP3    H126652   1.640   2.693   5.034
 8896TIP3    H226653   1.583   2.582   5.121
 8897TIP3   OH226654   1.467   5.145   4.435
 8897TIP3    H126655   1.425   5.230   4.443
 8897TIP3    H226656   1.440   5.097   4.512
 8898TIP3   OH226657   3.014   0.465   2.225
 8898TIP3    H126658   3.064   0.540   2.194
 8898TIP3    H226659   2.968   0.433   2.148
 8899TIP3   OH226660   3.350   0.731   2.953
 8899TIP3    H126661   3.419   0.754   2.891
 8899TIP3    H226662   3.283   0.687   2.901
 8900TIP3   OH226663   0.082   4.469   4.559
 8900TIP3    H126664   0.072   4.509   4.473
 8900TIP3    H226665   0.000   4.421   4.573
 8901TIP3   OH226666   1.229   2.197   2.875
 8901TIP3    H126667   1.150   2.187   2.822
 8901TIP3    H226668   1.300   2.194   2.812
 8902TIP3   OH226669   1.654   4.131   5.739
 8902TIP3    H126670   1.738   4.151   5.699
 8902TIP3    H226671   1.613   4.216   5.754
 8903TIP3   OH226672   0.646   4.488   2.076
 8903TIP3    H126673   0.685   4.569   2.109
 8903TIP3    H226674   0.559   4.486   2.116
 8904TIP3   OH226675   7.096   5.411   3.969
 8904TIP3    H126676   7.074   5.450   3.885
 8904TIP3    H226677   7.140   5.329   3.947
 8905TIP3   OH226678   4.320   6.659   1.865
 8905TIP3    H126679   4.363   6.638   1.948
 8905TIP3    H226680   4.387   6.703   1.813
 8906TIP3   OH226681   2.857   1.487   4.553
 8906TIP3    H126682   2.907   1.415   4.515
 8906TIP3    H226683   2.853   1.466   4.646
 8907TIP3   OH226684   4.691   5.481   0.806
 8907TIP3    H126685   4.688   5.503   0.900
 8907TIP3    H226686   4.712   5.387   0.805
 8908TIP3   OH226687   5.841   4.096   1.432
 8908TIP3    H126688   5.929   4.131   1.443
 8908TIP3    H226689   5.801   4.150   1.363
 8909TIP3   OH226690   7.290   2.895   0.953
 8909TIP3    H126691   7.256   2.966   0.899
 8909TIP3    H226692   7.212   2.848   0.981
 8910TIP3   OH226693   2.470   0.293   5.235
 8910TIP3    H126694   2.394   0.351   5.243
 8910TIP3    H226695   2.437   0.216   5.189
 8911TIP3   OH226696   4.762   6.350   2.085
 8911TIP3    H126697   4.671   6.326   2.101
 8911TIP3    H226698   4.809   6.267   2.087
 8912TIP3   OH226699   4.419   0.512   0.460
 8912TIP3    H126700   4.331   0.534   0.490
 8912TIP3    H226701   4.418   0.416   0.455
 8913TIP3   OH226702   3.965   0.945   2.169
 8913TIP3    H126703   4.019   0.867   2.181
 8913TIP3    H226704   4.011   1.014   2.217
 8914TIP3   OH226705   0.287   4.131   1.271
 8914TIP3    H126706   0.374   4.159   1.243
 8914TIP3    H226707   0.297   4.107   1.364
 8915TIP3   OH226708   5.139   2.980   2.223
 8915TIP3    H126709   5.102   2.995   2.136
 8915TIP3    H226710   5.121   2.888   2.241
 8916TIP3   OH226711   5.451   5.326   0.548
 8916TIP3    H126712   5.436   5.261   0.479
 8916TIP3    H226713   5.442   5.278   0.629
 8917TIP3   OH226714   1.758   5.818   4.978
 8917TIP3    H126715   1.770   5.913   4.984
 8917TIP3    H226716   1.666   5.805   5.001
 8918TIP3   OH226717   1.149   0.768   2.077
 8918TIP3    H126718   1.128   0.756   2.170
 8918TIP3    H226719   1.231   0.816   2.077
 8919TIP3   OH226720   3.035   1.064   3.780
 8919TIP3    H126721   3.122   1.081   3.817
 8919TIP3    H226722   2.977   1.124   3.828
 8920TIP3   OH226723   4.146   3.822   2.396
 8920TIP3    H126724   4.206   3.805   2.323
 8920TIP3    H226725   4.203   3.825   2.473
 8921TIP3   OH226726   2.323   3.290   5.508
 8921TIP3    H126727   2.419   3.290   5.513
 8921TIP3    H226728   2.301   3.379   5.480
 8922TIP3   OH226729   0.634   1.474   2.226
 8922TIP3    H126730   0.608   1.410   2.159
 8922TIP3    H226731   0.659   1.421   2.301
 8923TIP3   OH226732   5.230   6.252   1.774
 8923TIP3    H126733   5.197   6.166   1.749
 8923TIP3    H226734   5.322   6.251   1.749
 8924TIP3   OH226735   3.111   4.501   5.502
 8924TIP3    H126736   3.052   4.564   5.543
 8924TIP3    H226737   3.059   4.420   5.494
 8925TIP3   OH226738   3.656   1.442   0.619
 8925TIP3    H126739   3.627   1.486   0.540
 8925TIP3    H226740   3.596   1.472   0.687
 8926TIP3   OH226741   5.255   5.993   1.683
 8926TIP3    H126742   5.285   5.912   1.642
 8926TIP3    H226743   5.309   6.061   1.643
 8927TIP3   OH226744   3.522   3.057   3.372
 8927TIP3    H126745   3.429   3.038   3.368
 8927TIP3    H226746   3.528   3.143   3.414
 8928TIP3   OH226747   1.473   5.808   4.228
 8928TIP3    H126748   1.558   5.852   4.224
 8928TIP3    H226749   1.479   5.753   4.306
 8929TIP3   OH226750   5.953   1.890   1.132
 8929TIP3    H126751   5.898   1.836   1.075
 8929TIP3    H226752   6.022   1.923   1.074
 8930TIP3   OH226753   5.918   6.025   0.249
 8930TIP3    H126754   5.972   5.945   0.247
 8930TIP3    H226755   5.835   5.997   0.286
 8931TIP3   OH226756   1.416   0.384   3.097
 8931TIP3    H126757   1.377   0.305   3.061
 8931TIP3    H226758   1.362   0.456   3.064
 8932TIP3   OH226759   2.865   5.341   1.536
 8932TIP3    H126760   2.815   5.327   1.616
 8932TIP3    H226761   2.800   5.334   1.466
 8933TIP3   OH226762   5.002   3.923   5.469
 8933TIP3    H126763   4.971   4.012   5.487
 8933TIP3    H226764   4.999   3.916   5.373
 8934TIP3   OH226765   4.247   4.314   1.169
 8934TIP3    H126766   4.224   4.229   1.206
 8934TIP3    H226767   4.288   4.361   1.242
 8935TIP3   OH226768   3.127   2.213   4.523
 8935TIP3    H126769   3.049   2.253   4.563
 8935TIP3    H226770   3.110   2.119   4.526
 8936TIP3   OH226771   2.382   3.340   1.685
 8936TIP3    H126772   2.415   3.424   1.719
 8936TIP3    H226773   2.457   3.301   1.641
 8937TIP3   OH226774   3.433   3.247   0.514
 8937TIP3    H126775   3.356   3.243   0.458
 8937TIP3    H226776   3.503   3.278   0.456
 8938TIP3   OH226777   4.175   6.380   5.287
 8938TIP3    H126778   4.141   6.309   5.233
 8938TIP3    H226779   4.266   6.391   5.258
 8939TIP3   OH226780   0.395   3.655   0.858
 8939TIP3    H126781   0.388   3.565   0.892
 8939TIP3    H226782   0.481   3.685   0.889
 8940TIP3   OH226783   5.427   4.224   1.707
 8940TIP3    H126784   5.348   4.205   1.657
 8940TIP3    H226785   5.449   4.314   1.684
 8941TIP3   OH226786   2.527   1.933   3.217
 8941TIP3    H126787   2.547   2.000   3.151
 8941TIP3    H226788   2.568   1.853   3.183
 8942TIP3   OH226789   2.071   0.098   2.940
 8942TIP3    H126790   2.024   0.168   2.896
 8942TIP3    H226791   2.162   0.125   2.940
 8943TIP3   OH226792   2.035   5.877   5.299
 8943TIP3    H126793   2.104   5.872   5.365
 8943TIP3    H226794   2.077   5.847   5.218
 8944TIP3   OH226795   1.371   2.273   0.637
 8944TIP3    H126796   1.391   2.227   0.718
 8944TIP3    H226797   1.419   2.225   0.569
 8945TIP3   OH226798   5.055   4.647   5.684
 8945TIP3    H126799   4.978   4.597   5.709
 8945TIP3    H226800   5.020   4.730   5.651
 8946TIP3   OH226801   6.547   0.425   0.118
 8946TIP3    H126802   6.522   0.517   0.109
 8946TIP3    H226803   6.470   0.377   0.087
 8947TIP3   OH226804   0.500   4.851   2.379
 8947TIP3    H126805   0.445   4.785   2.421
 8947TIP3    H226806   0.443   4.892   2.314
 8948TIP3   OH226807   0.044   0.550   2.524
 8948TIP3    H126808   0.080   0.521   2.440
 8948TIP3    H226809  -0.023   0.614   2.501
 8949TIP3   OH226810   0.241   4.711   4.715
 8949TIP3    H126811   0.158   4.745   4.684
 8949TIP3    H226812   0.296   4.789   4.727
 8950TIP3   OH226813   4.699   6.647   0.795
 8950TIP3    H126814   4.675   6.564   0.838
 8950TIP3    H226815   4.680   6.714   0.861
 8951TIP3   OH226816   5.712   5.155   5.520
 8951TIP3    H126817   5.680   5.240   5.549
 8951TIP3    H226818   5.633   5.102   5.509
 8952TIP3   OH226819   5.275   4.274   5.511
 8952TIP3    H126820   5.291   4.369   5.511
 8952TIP3    H226821   5.346   4.237   5.562
 8953TIP3   OH226822   3.624   4.837   4.584
 8953TIP3    H126823   3.564   4.908   4.560
 8953TIP3    H226824   3.710   4.869   4.558
 8954TIP3   OH226825   4.445   5.400   0.657
 8954TIP3    H126826   4.532   5.433   0.635
 8954TIP3    H226827   4.444   5.310   0.625
 8955TIP3   OH226828   0.350   2.808   4.663
 8955TIP3    H126829   0.444   2.826   4.651
 8955TIP3    H226830   0.341   2.791   4.757
 8956TIP3   OH226831   1.565   1.030   4.160
 8956TIP3    H126832   1.522   1.089   4.098
 8956TIP3    H226833   1.510   1.034   4.238
 8957TIP3   OH226834   1.649   2.183   4.813
 8957TIP3    H126835   1.630   2.107   4.758
 8957TIP3    H226836   1.591   2.173   4.888
 8958TIP3   OH226837   1.944   4.985   3.985
 8958TIP3    H126838   1.969   5.057   4.042
 8958TIP3    H226839   1.964   4.906   4.037
 8959TIP3   OH226840   2.511   2.053   2.019
 8959TIP3    H126841   2.590   2.099   2.047
 8959TIP3    H226842   2.542   1.984   1.961
 8960TIP3   OH226843   6.012   3.882   0.790
 8960TIP3    H126844   5.970   3.887   0.875
 8960TIP3    H226845   6.095   3.929   0.801
 8961TIP3   OH226846   4.018   1.040   0.277
 8961TIP3    H126847   4.087   0.998   0.226
 8961TIP3    H226848   3.954   1.069   0.213
 8962TIP3   OH226849   3.997   0.649   3.714
 8962TIP3    H126850   3.982   0.561   3.679
 8962TIP3    H226851   3.979   0.708   3.640
 8963TIP3   OH226852   1.239   4.700   2.806
 8963TIP3    H126853   1.183   4.713   2.882
 8963TIP3    H226854   1.263   4.788   2.778
 8964TIP3   OH226855   0.142   1.086   1.794
 8964TIP3    H126856   0.100   1.005   1.821
 8964TIP3    H226857   0.103   1.106   1.709
 8965TIP3   OH226858   0.283   3.943   0.595
 8965TIP3    H126859   0.273   3.850   0.612
 8965TIP3    H226860   0.323   3.948   0.508
 8966TIP3   OH226861   5.272   1.145   5.262
 8966TIP3    H126862   5.304   1.189   5.341
 8966TIP3    H226863   5.218   1.210   5.218
 8967TIP3   OH226864   0.161   5.274   4.608
 8967TIP3    H126865   0.066   5.273   4.597
 8967TIP3    H226866   0.176   5.328   4.686
 8968TIP3   OH226867   3.428   4.531   0.353
 8968TIP3    H126868   3.505   4.545   0.297
 8968TIP3    H226869   3.368   4.481   0.298
 8969TIP3   OH226870   2.146   1.375   0.996
 8969TIP3    H126871   2.127   1.469   0.996
 8969TIP3    H226872   2.100   1.342   1.073
 8970TIP3   OH226873   0.520   0.856   5.154
 8970TIP3    H126874   0.458   0.922   5.185
 8970TIP3    H226875   0.592   0.859   5.217
 8971TIP3   OH226876   5.714   3.169   1.255
 8971TIP3    H126877   5.687   3.077   1.249
 8971TIP3    H226878   5.635   3.215   1.284
 8972TIP3   OH226879   4.136   4.618   2.680
 8972TIP3    H126880   4.046   4.647   2.671
 8972TIP3    H226881   4.134   4.524   2.660
 8973TIP3   OH226882   3.550   1.349   3.515
 8973TIP3    H126883   3.533   1.256   3.501
 8973TIP3    H226884   3.643   1.360   3.491
 8974TIP3   OH226885   0.104   6.511   0.487
 8974TIP3    H126886   0.030   6.449   0.479
 8974TIP3    H226887   0.153   6.479   0.563
 8975TIP3   OH226888   2.582   3.477   1.925
 8975TIP3    H126889   2.528   3.467   2.003
 8975TIP3    H226890   2.531   3.535   1.868
 8976TIP3   OH226891   4.284   1.900   0.348
 8976TIP3    H126892   4.334   1.956   0.288
 8976TIP3    H226893   4.238   1.839   0.291
 8977TIP3   OH226894   0.196   2.347   3.922
 8977TIP3    H126895   0.203   2.308   4.009
 8977TIP3    H226896   0.237   2.283   3.864
 8978TIP3   OH226897   5.354   1.513   4.831
 8978TIP3    H126898   5.283   1.565   4.794
 8978TIP3    H226899   5.387   1.566   4.904
 8979TIP3   OH226900   3.925   5.108   1.099
 8979TIP3    H126901   3.871   5.093   1.177
 8979TIP3    H226902   3.889   5.187   1.060
 8980TIP3   OH226903   2.946   2.980   1.411
 8980TIP3    H126904   2.897   2.916   1.463
 8980TIP3    H226905   3.003   2.928   1.354
 8981TIP3   OH226906   2.629   1.973   5.512
 8981TIP3    H126907   2.676   1.896   5.545
 8981TIP3    H226908   2.692   2.045   5.519
 8982TIP3   OH226909   2.616   0.824   1.091
 8982TIP3    H126910   2.689   0.886   1.101
 8982TIP3    H226911   2.582   0.840   1.002
 8983TIP3   OH226912   1.248   5.444   3.882
 8983TIP3    H126913   1.177   5.496   3.846
 8983TIP3    H226914   1.295   5.411   3.805
 8984TIP3   OH226915   5.397   0.618   3.293
 8984TIP3    H126916   5.351   0.669   3.226
 8984TIP3    H226917   5.415   0.534   3.250
 8985TIP3   OH226918   1.678   1.596   0.014
 8985TIP3    H126919   1.592   1.605   0.055
 8985TIP3    H226920   1.679   1.507  -0.020
 8986TIP3   OH226921   5.793   3.729   1.715
 8986TIP3    H126922   5.863   3.790   1.736
 8986TIP3    H226923   5.761   3.757   1.629
 8987TIP3   OH226924   4.733   5.026   4.795
 8987TIP3    H126925   4.776   5.052   4.714
 8987TIP3    H226926   4.650   5.074   4.794
 8988TIP3   OH226927   5.620   2.327   5.685
 8988TIP3    H126928   5.655   2.281   5.761
 8988TIP3    H226929   5.549   2.381   5.720
 8989TIP3   OH226930   1.191   1.345   3.895
 8989TIP3    H126931   1.257   1.317   3.958
 8989TIP3    H226932   1.184   1.273   3.833
 8990TIP3   OH226933   2.562   1.576   4.204
 8990TIP3    H126934   2.638   1.618   4.243
 8990TIP3    H226935   2.490   1.595   4.265
 8991TIP3   OH226936   3.400   2.079   4.807
 8991TIP3    H126937   3.466   2.010   4.813
 8991TIP3    H226938   3.446   2.159   4.832
 8992TIP3   OH226939   5.668   2.997   4.994
 8992TIP3    H126940   5.731   2.925   4.999
 8992TIP3    H226941   5.610   2.973   4.922
 8993TIP3   OH226942   5.094   6.105   3.135
 8993TIP3    H126943   5.147   6.102   3.216
 8993TIP3    H226944   5.011   6.142   3.163
 8994TIP3   OH226945   1.657   1.872   3.129
 8994TIP3    H126946   1.622   1.959   3.147
 8994TIP3    H226947   1.580   1.818   3.111
 8995TIP3   OH226948   4.688   4.472   4.341
 8995TIP3    H126949   4.688   4.525   4.261
 8995TIP3    H226950   4.689   4.382   4.309
 8996TIP3   OH226951   1.184   2.219   2.500
 8996TIP3    H126952   1.140   2.275   2.564
 8996TIP3    H226953   1.262   2.187   2.545
 8997TIP3   OH226954   2.474   5.280   0.274
 8997TIP3    H126955   2.449   5.359   0.226
 8997TIP3    H226956   2.532   5.311   0.344
 8998TIP3   OH226957   0.234   3.360   2.229
 8998TIP3    H126958   0.247   3.270   2.258
 8998TIP3    H226959   0.323   3.393   2.211
 8999TIP3   OH226960   5.626   6.259   5.055
 8999TIP3    H126961   5.605   6.244   4.963
 8999TIP3    H226962   5.582   6.341   5.076
 9000TIP3   OH226963   7.033   3.028   3.591
 9000TIP3    H126964   7.003   2.946   3.630
 9000TIP3    H226965   6.957   3.061   3.543
 9001TIP3   OH226966   0.987   6.718   4.093
 9001TIP3    H126967   1.060   6.763   4.050
 9001TIP3    H226968   1.019   6.629   4.106
 9002TIP3   OH226969   1.074   2.416   3.928
 9002TIP3    H126970   1.112   2.365   4.000
 9002TIP3    H226971   1.146   2.428   3.867
 9003TIP3   OH226972   2.478   3.678   0.065
 9003TIP3    H126973   2.446   3.615   0.130
 9003TIP3    H226974   2.457   3.764   0.102
 9004TIP3   OH226975   2.470   0.247   1.191
 9004TIP3    H126976   2.410   0.315   1.162
 9004TIP3    H226977   2.453   0.173   1.133
 9005TIP3   OH226978   6.833   6.410   1.439
 9005TIP3    H126979   6.845   6.344   1.507
 9005TIP3    H226980   6.822   6.492   1.488
 9006TIP3   OH226981   2.780   2.538   1.346
 9006TIP3    H126982   2.865   2.583   1.348
 9006TIP3    H226983   2.748   2.542   1.436
 9007TIP3   OH226984   5.042   3.327   5.298
 9007TIP3    H126985   5.109   3.259   5.294
 9007TIP3    H226986   5.000   3.324   5.212
 9008TIP3   OH226987   6.334   6.163   2.352
 9008TIP3    H126988   6.375   6.247   2.376
 9008TIP3    H226989   6.333   6.113   2.433
 9009TIP3   OH226990   6.932   3.969   1.111
 9009TIP3    H126991   6.952   3.933   1.197
 9009TIP3    H226992   6.989   4.045   1.103
 9010TIP3   OH226993   1.226   4.857   3.840
 9010TIP3    H126994   1.216   4.858   3.935
 9010TIP3    H226995   1.151   4.908   3.808
 9011TIP3   OH226996   6.888   3.318   1.727
 9011TIP3    H126997   6.824   3.370   1.679
 9011TIP3    H226998   6.838   3.274   1.795
 9012TIP3   OH226999   4.975   0.034   0.082
 9012TIP3    H127000   4.930  -0.022   0.019
 9012TIP3    H227001   5.004  -0.026   0.151
 9013TIP3   OH227002   1.695   3.388   4.743
 9013TIP3    H127003   1.631   3.459   4.740
 9013TIP3    H227004   1.768   3.424   4.794
 9014TIP3   OH227005   3.406   2.233   4.557
 9014TIP3    H127006   3.315   2.260   4.558
 9014TIP3    H227007   3.411   2.161   4.620
 9015TIP3   OH227008   4.861   3.279   2.446
 9015TIP3    H127009   4.793   3.228   2.491
 9015TIP3    H227010   4.943   3.235   2.468
 9016TIP3   OH227011   5.419   1.949   0.154
 9016TIP3    H127012   5.421   1.953   0.250
 9016TIP3    H227013   5.361   1.876   0.134
 9017TIP3   OH227014   2.387   6.260   2.811
 9017TIP3    H127015   2.344   6.177   2.830
 9017TIP3    H227016   2.478   6.237   2.795
 9018TIP3   OH227017   2.995   1.041   0.211
 9018TIP3    H127018   2.944   1.014   0.134
 9018TIP3    H227019   2.929   1.063   0.277
 9019TIP3   OH227020   2.233   6.748   1.832
 9019TIP3    H127021   2.244   6.842   1.845
 9019TIP3    H227022   2.208   6.715   1.918
 9020TIP3   OH227023   7.014   0.401   4.716
 9020TIP3    H127024   6.935   0.452   4.730
 9020TIP3    H227025   6.988   0.331   4.656
 9021TIP3   OH227026   6.582   2.164   2.552
 9021TIP3    H127027   6.638   2.231   2.513
 9021TIP3    H227028   6.625   2.141   2.634
 9022TIP3   OH227029   4.704   0.569   3.805
 9022TIP3    H127030   4.643   0.626   3.851
 9022TIP3    H227031   4.752   0.525   3.875
 9023TIP3   OH227032   4.203   0.348   4.963
 9023TIP3    H127033   4.176   0.304   5.044
 9023TIP3    H227034   4.276   0.296   4.931
 9024TIP3   OH227035   6.775   0.491   0.585
 9024TIP3    H127036   6.794   0.489   0.492
 9024TIP3    H227037   6.858   0.515   0.626
 9025TIP3   OH227038  -0.022   3.902   3.358
 9025TIP3    H127039   0.072   3.916   3.365
 9025TIP3    H227040  -0.042   3.920   3.266
 9026TIP3   OH227041   6.307   3.565   5.711
 9026TIP3    H127042   6.259   3.582   5.631
 9026TIP3    H227043   6.399   3.578   5.688
 9027TIP3   OH227044   2.868   5.067   4.725
 9027TIP3    H127045   2.935   5.036   4.664
 9027TIP3    H227046   2.814   4.989   4.742
 9028TIP3   OH227047   1.916   2.833   5.765
 9028TIP3    H127048   1.910   2.903   5.831
 9028TIP3    H227049   1.896   2.877   5.682
 9029TIP3   OH227050   1.943   4.244   0.065
 9029TIP3    H127051   1.872   4.299   0.033
 9029TIP3    H227052   1.917   4.155   0.042
 9030TIP3   OH227053   6.287   4.294   3.678
 9030TIP3    H127054   6.214   4.233   3.678
 9030TIP3    H227055   6.335   4.276   3.759
 9031TIP3   OH227056   2.862   5.170   0.226
 9031TIP3    H127057   2.953   5.142   0.238
 9031TIP3    H227058   2.814   5.122   0.294
 9032TIP3   OH227059   6.067   4.743   2.923
 9032TIP3    H127060   6.119   4.755   2.843
 9032TIP3    H227061   5.976   4.738   2.892
 9033TIP3   OH227062   3.064   5.499   0.322
 9033TIP3    H127063   3.052   5.560   0.249
 9033TIP3    H227064   3.155   5.511   0.348
 9034TIP3   OH227065   4.606   4.234   4.791
 9034TIP3    H127066   4.516   4.214   4.818
 9034TIP3    H227067   4.603   4.233   4.696
 9035TIP3   OH227068   5.079   2.986   1.306
 9035TIP3    H127069   5.124   3.070   1.305
 9035TIP3    H227070   4.986   3.008   1.302
 9036TIP3   OH227071   4.441   5.026   4.486
 9036TIP3    H127072   4.417   4.997   4.398
 9036TIP3    H227073   4.363   5.009   4.539
 9037TIP3   OH227074   4.466   0.326   4.070
 9037TIP3    H127075   4.459   0.297   4.160
 9037TIP3    H227076   4.469   0.422   4.075
 9038TIP3   OH227077   3.633   0.349   2.781
 9038TIP3    H127078   3.661   0.304   2.860
 9038TIP3    H227079   3.713   0.357   2.728
 9039TIP3   OH227080   5.362   2.247   3.399
 9039TIP3    H127081   5.353   2.185   3.327
 9039TIP3    H227082   5.437   2.216   3.449
 9040TIP3   OH227083   1.182   2.017   1.481
 9040TIP3    H127084   1.174   2.110   1.504
 9040TIP3    H227085   1.142   1.971   1.555
 9041TIP3   OH227086   3.623   3.074   1.734
 9041TIP3    H127087   3.654   2.986   1.754
 9041TIP3    H227088   3.620   3.118   1.819
 9042TIP3   OH227089   1.405   2.532   1.556
 9042TIP3    H127090   1.443   2.462   1.608
 9042TIP3    H227091   1.359   2.488   1.485
 9043TIP3   OH227092   3.300   0.071   4.386
 9043TIP3    H127093   3.310   0.042   4.295
 9043TIP3    H227094   3.285   0.166   4.378
 9044TIP3   OH227095   4.817   0.898   5.627
 9044TIP3    H127096   4.909   0.922   5.614
 9044TIP3    H227097   4.807   0.890   5.722
 9045TIP3   OH227098   3.210   5.729   1.391
 9045TIP3    H127099   3.228   5.714   1.484
 9045TIP3    H227100   3.217   5.642   1.351
 9046TIP3   OH227101   2.351   0.827   1.233
 9046TIP3    H127102   2.296   0.763   1.278
 9046TIP3    H227103   2.439   0.790   1.236
 9047TIP3   OH227104   3.951   5.904   0.233
 9047TIP3    H127105   3.872   5.920   0.284
 9047TIP3    H227106   3.945   5.963   0.158
 9048TIP3   OH227107   6.045   5.325   5.376
 9048TIP3    H127108   6.004   5.402   5.416
 9048TIP3    H227109   6.129   5.317   5.422
 9049TIP3   OH227110   4.263   4.659   4.429
 9049TIP3    H127111   4.204   4.591   4.394
 9049TIP3    H227112   4.216   4.693   4.506
 9050TIP3   OH227113   2.773   4.987   2.675
 9050TIP3    H127114   2.774   4.897   2.708
 9050TIP3    H227115   2.681   5.003   2.654
 9051TIP3   OH227116   5.339   4.520   3.316
 9051TIP3    H127117   5.411   4.499   3.376
 9051TIP3    H227118   5.263   4.530   3.374
 9052TIP3   OH227119   2.595   4.510   2.797
 9052TIP3    H127120   2.589   4.591   2.747
 9052TIP3    H227121   2.514   4.463   2.778
 9053TIP3   OH227122   1.212   5.286   2.786
 9053TIP3    H127123   1.211   5.279   2.690
 9053TIP3    H227124   1.124   5.313   2.809
 9054TIP3   OH227125   4.192   6.152   4.807
 9054TIP3    H127126   4.206   6.177   4.715
 9054TIP3    H227127   4.257   6.203   4.855
 9055TIP3   OH227128   5.611   5.000   5.049
 9055TIP3    H127129   5.615   5.026   4.957
 9055TIP3    H227130   5.693   5.032   5.087
 9056TIP3   OH227131   5.275   2.679   0.869
 9056TIP3    H127132   5.293   2.684   0.963
 9056TIP3    H227133   5.185   2.710   0.861
 9057TIP3   OH227134   3.191   6.155   4.228
 9057TIP3    H127135   3.243   6.134   4.150
 9057TIP3    H227136   3.239   6.225   4.271
 9058TIP3   OH227137   6.541   6.667   2.473
 9058TIP3    H127138   6.468   6.727   2.458
 9058TIP3    H227139   6.581   6.655   2.387
 9059TIP3   OH227140   4.769   2.811   3.856
 9059TIP3    H127141   4.737   2.745   3.918
 9059TIP3    H227142   4.831   2.764   3.800
 9060TIP3   OH227143   0.474   0.289   3.731
 9060TIP3    H127144   0.524   0.209   3.747
 9060TIP3    H227145   0.488   0.309   3.638
 9061TIP3   OH227146   5.596   5.311   4.947
 9061TIP3    H127147   5.630   5.366   4.876
 9061TIP3    H227148   5.531   5.255   4.905
 9062TIP3   OH227149   4.938   1.571   5.267
 9062TIP3    H127150   4.886   1.652   5.269
 9062TIP3    H227151   4.940   1.543   5.358
 9063TIP3   OH227152   4.143   1.099   4.405
 9063TIP3    H127153   4.169   1.071   4.493
 9063TIP3    H227154   4.066   1.047   4.384
 9064TIP3   OH227155   0.296   4.226   1.704
 9064TIP3    H127156   0.306   4.141   1.662
 9064TIP3    H227157   0.276   4.286   1.632
 9065TIP3   OH227158   3.086   2.843   2.259
 9065TIP3    H127159   3.115   2.819   2.171
 9065TIP3    H227160   3.166   2.864   2.307
 9066TIP3   OH227161   7.189   0.392   1.025
 9066TIP3    H127162   7.205   0.398   0.931
 9066TIP3    H227163   7.250   0.325   1.056
 9067TIP3   OH227164   0.204   5.517   3.769
 9067TIP3    H127165   0.146   5.561   3.831
 9067TIP3    H227166   0.158   5.437   3.744
 9068TIP3   OH227167   3.029   0.955   1.698
 9068TIP3    H127168   3.032   0.986   1.789
 9068TIP3    H227169   3.063   1.028   1.647
 9069TIP3   OH227170   1.466   1.948   3.763
 9069TIP3    H127171   1.454   1.861   3.800
 9069TIP3    H227172   1.511   1.934   3.680
 9070TIP3   OH227173   6.292   3.052   5.316
 9070TIP3    H127174   6.267   3.021   5.229
 9070TIP3    H227175   6.233   3.004   5.375
 9071TIP3   OH227176   4.791   2.985   1.978
 9071TIP3    H127177   4.885   2.988   1.957
 9071TIP3    H227178   4.755   3.063   1.937
 9072TIP3   OH227179   3.756   3.376   2.408
 9072TIP3    H127180   3.695   3.319   2.455
 9072TIP3    H227181   3.703   3.420   2.342
 9073TIP3   OH227182   2.100   4.044   3.708
 9073TIP3    H127183   2.035   4.025   3.640
 9073TIP3    H227184   2.169   3.978   3.693
 9074TIP3   OH227185   0.807   4.107   4.755
 9074TIP3    H127186   0.811   4.192   4.711
 9074TIP3    H227187   0.718   4.103   4.790
 9075TIP3   OH227188   6.467   1.312   3.495
 9075TIP3    H127189   6.446   1.368   3.421
 9075TIP3    H227190   6.395   1.248   3.498
 9076TIP3   OH227191   3.914   0.750   0.017
 9076TIP3    H127192   3.846   0.801   0.061
 9076TIP3    H227193   3.996   0.794   0.040
 9077TIP3   OH227194   7.005   4.783   3.506
 9077TIP3    H127195   6.952   4.708   3.482
 9077TIP3    H227196   7.078   4.782   3.444
 9078TIP3   OH227197   4.329   2.054   3.490
 9078TIP3    H127198   4.250   2.077   3.539
 9078TIP3    H227199   4.342   2.127   3.430
 9079TIP3   OH227200   1.314   1.172   2.661
 9079TIP3    H127201   1.299   1.172   2.566
 9079TIP3    H227202   1.400   1.130   2.671
 9080TIP3   OH227203   6.168   1.669   1.186
 9080TIP3    H127204   6.263   1.678   1.174
 9080TIP3    H227205   6.132   1.674   1.098
 9081TIP3   OH227206   3.859   4.068   2.584
 9081TIP3    H127207   3.787   4.010   2.609
 9081TIP3    H227208   3.820   4.129   2.521
 9082TIP3   OH227209   0.429   2.458   3.518
 9082TIP3    H127210   0.515   2.499   3.531
 9082TIP3    H227211   0.386   2.512   3.452
 9083TIP3   OH227212   0.162   2.473   5.088
 9083TIP3    H127213   0.180   2.379   5.093
 9083TIP3    H227214   0.214   2.504   5.014
 9084TIP3   OH227215   5.486   3.046   0.179
 9084TIP3    H127216   5.451   2.963   0.148
 9084TIP3    H227217   5.515   3.029   0.269
 9085TIP3   OH227218   6.585   1.044   2.880
 9085TIP3    H127219   6.536   1.083   2.808
 9085TIP3    H227220   6.530   1.059   2.957
 9086TIP3   OH227221   6.009   3.441   2.342
 9086TIP3    H127222   6.029   3.534   2.354
 9086TIP3    H227223   6.065   3.414   2.270
 9087TIP3   OH227224   1.490   2.437   0.349
 9087TIP3    H127225   1.465   2.446   0.441
 9087TIP3    H227226   1.548   2.511   0.332
 9088TIP3   OH227227   0.682   6.682   5.696
 9088TIP3    H127228   0.686   6.587   5.686
 9088TIP3    H227229   0.606   6.698   5.751
 9089TIP3   OH227230   1.650   1.271   1.464
 9089TIP3    H127231   1.696   1.238   1.387
 9089TIP3    H227232   1.647   1.366   1.453
 9090TIP3   OH227233   5.734   2.756   3.094
 9090TIP3    H127234   5.710   2.667   3.069
 9090TIP3    H227235   5.716   2.808   3.016
 9091TIP3   OH227236   3.596   2.027   0.659
 9091TIP3    H127237   3.523   1.965   0.664
 9091TIP3    H227238   3.668   1.976   0.623
 9092TIP3   OH227239   0.850   5.618   1.733
 9092TIP3    H127240   0.849   5.694   1.792
 9092TIP3    H227241   0.907   5.645   1.661
 9093TIP3   OH227242   6.373   6.073   0.619
 9093TIP3    H127243   6.408   6.107   0.537
 9093TIP3    H227244   6.356   5.980   0.601
 9094TIP3   OH227245   2.415   4.789   0.079
 9094TIP3    H127246   2.475   4.725   0.117
 9094TIP3    H227247   2.329   4.747   0.083
 9095TIP3   OH227248   4.834   2.478   5.158
 9095TIP3    H127249   4.890   2.467   5.082
 9095TIP3    H227250   4.894   2.500   5.229
 9096TIP3   OH227251   2.671   0.358   4.513
 9096TIP3    H127252   2.594   0.329   4.562
 9096TIP3    H227253   2.646   0.441   4.474
 9097TIP3   OH227254   3.441   2.517   0.059
 9097TIP3    H127255   3.511   2.534   0.121
 9097TIP3    H227256   3.392   2.445   0.098
 9098TIP3   OH227257   5.826   6.282   0.037
 9098TIP3    H127258   5.833   6.258   0.129
 9098TIP3    H227259   5.848   6.202  -0.011
 9099TIP3   OH227260   5.934   3.797   3.259
 9099TIP3    H127261   5.990   3.740   3.208
 9099TIP3    H227262   5.867   3.827   3.197
 9100TIP3   OH227263   4.512   6.101   0.012
 9100TIP3    H127264   4.453   6.131  -0.058
 9100TIP3    H227265   4.465   6.029   0.054
 9101TIP3   OH227266   3.966   1.888   1.266
 9101TIP3    H127267   3.882   1.847   1.285
 9101TIP3    H227268   3.985   1.941   1.343
 9102TIP3   OH227269   0.920   3.168   3.609
 9102TIP3    H127270   0.940   3.151   3.517
 9102TIP3    H227271   0.991   3.226   3.638
 9103TIP3   OH227272   6.528   6.519   1.484
 9103TIP3    H127273   6.508   6.580   1.554
 9103TIP3    H227274   6.611   6.479   1.510
 9104TIP3   OH227275   4.210   4.661   0.439
 9104TIP3    H127276   4.239   4.716   0.366
 9104TIP3    H227277   4.218   4.571   0.406
 9105TIP3   OH227278   2.530   1.853   1.523
 9105TIP3    H127279   2.450   1.886   1.484
 9105TIP3    H227280   2.594   1.924   1.512
 9106TIP3   OH227281   5.008   0.962   3.097
 9106TIP3    H127282   5.009   0.996   3.187
 9106TIP3    H227283   5.097   0.979   3.065
 9107TIP3   OH227284   4.367   3.457   4.818
 9107TIP3    H127285   4.295   3.402   4.785
 9107TIP3    H227286   4.386   3.421   4.905
 9108TIP3   OH227287   4.476   4.298   2.175
 9108TIP3    H127288   4.474   4.250   2.093
 9108TIP3    H227289   4.524   4.241   2.235
 9109TIP3   OH227290   3.844   4.437   5.060
 9109TIP3    H127291   3.894   4.517   5.043
 9109TIP3    H227292   3.894   4.390   5.125
 9110TIP3   OH227293   3.290   4.007   1.354
 9110TIP3    H127294   3.223   4.006   1.286
 9110TIP3    H227295   3.366   4.047   1.313
 9111TIP3   OH227296   3.779   0.333   0.994
 9111TIP3    H127297   3.865   0.374   0.980
 9111TIP3    H227298   3.736   0.339   0.908
 9112TIP3   OH227299   3.156   2.196   0.844
 9112TIP3    H127300   3.064   2.223   0.842
 9112TIP3    H227301   3.176   2.175   0.753
 9113TIP3   OH227302   1.498   2.999   0.806
 9113TIP3    H127303   1.587   3.034   0.797
 9113TIP3    H227304   1.448   3.072   0.842
 9114TIP3   OH227305   0.736   0.480   0.031
 9114TIP3    H127306   0.790   0.476   0.110
 9114TIP3    H227307   0.712   0.389   0.014
 9115TIP3   OH227308   7.050   6.578   0.195
 9115TIP3    H127309   7.135   6.588   0.237
 9115TIP3    H227310   6.989   6.626   0.252
 9116TIP3   OH227311   3.319   0.098   2.213
 9116TIP3    H127312   3.349   0.007   2.217
 9116TIP3    H227313   3.340   0.134   2.299
 9117TIP3   OH227314   3.951   4.465   3.474
 9117TIP3    H127315   3.943   4.560   3.482
 9117TIP3    H227316   4.036   4.451   3.434
 9118TIP3   OH227317   5.118   1.495   5.698
 9118TIP3    H127318   5.155   1.429   5.756
 9118TIP3    H227319   5.091   1.566   5.756
 9119TIP3   OH227320   1.099   1.842   3.517
 9119TIP3    H127321   1.164   1.799   3.462
 9119TIP3    H227322   1.033   1.874   3.456
 9120TIP3   OH227323   0.682   0.152   1.560
 9120TIP3    H127324   0.624   0.224   1.535
 9120TIP3    H227325   0.764   0.169   1.512
 9121TIP3   OH227326   2.374   3.028   1.531
 9121TIP3    H127327   2.320   2.950   1.541
 9121TIP3    H227328   2.320   3.099   1.564
 9122TIP3   OH227329   1.621   2.521   0.943
 9122TIP3    H127330   1.677   2.591   0.977
 9122TIP3    H227331   1.532   2.547   0.968
 9123TIP3   OH227332   5.014   2.988   1.600
 9123TIP3    H127333   4.919   2.996   1.602
 9123TIP3    H227334   5.036   2.993   1.507
 9124TIP3   OH227335   2.705   4.337   4.324
 9124TIP3    H127336   2.661   4.410   4.280
 9124TIP3    H227337   2.640   4.266   4.323
 9125TIP3   OH227338   5.564   4.749   3.399
 9125TIP3    H127339   5.640   4.758   3.456
 9125TIP3    H227340   5.598   4.710   3.319
 9126TIP3   OH227341   1.349   1.834   5.594
 9126TIP3    H127342   1.262   1.855   5.557
 9126TIP3    H227343   1.349   1.878   5.679
 9127TIP3   OH227344   0.100   1.685   1.030
 9127TIP3    H127345   0.107   1.769   0.983
 9127TIP3    H227346   0.112   1.619   0.961
 9128TIP3   OH227347   2.353   4.763   2.422
 9128TIP3    H127348   2.423   4.789   2.362
 9128TIP3    H227349   2.276   4.810   2.391
 9129TIP3   OH227350   3.548   1.840   5.630
 9129TIP3    H127351   3.525   1.877   5.545
 9129TIP3    H227352   3.631   1.882   5.653
 9130TIP3   OH227353   5.968   3.309   0.090
 9130TIP3    H127354   5.927   3.391   0.064
 9130TIP3    H227355   5.909   3.241   0.059
 9131TIP3   OH227356   4.898   4.393   0.999
 9131TIP3    H127357   4.872   4.428   0.914
 9131TIP3    H227358   4.847   4.312   1.008
 9132TIP3   OH227359   1.895   0.499   1.709
 9132TIP3    H127360   1.845   0.450   1.644
 9132TIP3    H227361   1.833   0.562   1.745
 9133TIP3   OH227362   0.573   3.094   4.752
 9133TIP3    H127363   0.527   3.177   4.743
 9133TIP3    H227364   0.550   3.063   4.840
 9134TIP3   OH227365   5.244   6.442   0.817
 9134TIP3    H127366   5.210   6.393   0.742
 9134TIP3    H227367   5.339   6.434   0.810
 9135TIP3   OH227368   1.042   6.485   5.070
 9135TIP3    H127369   0.997   6.564   5.041
 9135TIP3    H227370   1.094   6.459   4.994
 9136TIP3   OH227371   5.380   1.431   4.475
 9136TIP3    H127372   5.423   1.504   4.521
 9136TIP3    H227373   5.411   1.438   4.385
 9137TIP3   OH227374   4.321   4.640   5.155
 9137TIP3    H127375   4.332   4.549   5.126
 9137TIP3    H227376   4.239   4.668   5.117
 9138TIP3   OH227377   6.774   2.082   4.288
 9138TIP3    H127378   6.805   1.991   4.292
 9138TIP3    H227379   6.834   2.131   4.343
 9139TIP3   OH227380   2.928   3.625   1.635
 9139TIP3    H127381   2.946   3.713   1.601
 9139TIP3    H227382   2.960   3.627   1.725
 9140TIP3   OH227383   5.696   1.589   2.440
 9140TIP3    H127384   5.729   1.649   2.507
 9140TIP3    H227385   5.638   1.529   2.488
 9141TIP3   OH227386   4.794   3.720   5.333
 9141TIP3    H127387   4.767   3.778   5.262
 9141TIP3    H227388   4.859   3.770   5.382
 9142TIP3   OH227389   3.598   2.639   4.110
 9142TIP3    H127390   3.506   2.612   4.110
 9142TIP3    H227391   3.631   2.609   4.026
 9143TIP3   OH227392   5.754   2.543   4.467
 9143TIP3    H127393   5.691   2.481   4.503
 9143TIP3    H227394   5.803   2.575   4.543
 9144TIP3   OH227395   5.523   4.883   4.536
 9144TIP3    H127396   5.583   4.810   4.548
 9144TIP3    H227397   5.541   4.914   4.447
 9145TIP3   OH227398   3.713   2.569   0.181
 9145TIP3    H127399   3.754   2.486   0.158
 9145TIP3    H227400   3.719   2.573   0.277
 9146TIP3   OH227401   4.357   0.724   3.724
 9146TIP3    H127402   4.293   0.792   3.745
 9146TIP3    H227403   4.427   0.735   3.788
 9147TIP3   OH227404   2.563   4.878   4.618
 9147TIP3    H127405   2.505   4.825   4.563
 9147TIP3    H227406   2.591   4.819   4.688
 9148TIP3   OH227407   1.048   3.108   1.237
 9148TIP3    H127408   0.973   3.076   1.188
 9148TIP3    H227409   1.101   3.030   1.254
 9149TIP3   OH227410   0.953   5.754   2.898
 9149TIP3    H127411   1.019   5.730   2.832
 9149TIP3    H227412   0.941   5.674   2.950
 9150TIP3   OH227413   5.620   4.024   5.824
 9150TIP3    H127414   5.657   3.939   5.849
 9150TIP3    H227415   5.685   4.087   5.855
 9151TIP3   OH227416   2.742   0.070   3.851
 9151TIP3    H127417   2.796   0.057   3.929
 9151TIP3    H227418   2.736  -0.018   3.812
 9152TIP3   OH227419   3.166   6.170   1.555
 9152TIP3    H127420   3.124   6.151   1.639
 9152TIP3    H227421   3.098   6.213   1.503
 9153TIP3   OH227422   6.421   3.292   5.402
 9153TIP3    H127423   6.405   3.198   5.392
 9153TIP3    H227424   6.422   3.325   5.312
 9154TIP3   OH227425   0.548   4.803   2.869
 9154TIP3    H127426   0.612   4.753   2.919
 9154TIP3    H227427   0.600   4.855   2.808
 9155TIP3   OH227428   4.830   3.986   5.228
 9155TIP3    H127429   4.823   4.030   5.144
 9155TIP3    H227430   4.778   4.040   5.288
 9156TIP3   OH227431   6.831   3.701   1.428
 9156TIP3    H127432   6.868   3.693   1.516
 9156TIP3    H227433   6.847   3.615   1.388
 9157TIP3   OH227434   5.414   2.938   1.486
 9157TIP3    H127435   5.405   3.024   1.527
 9157TIP3    H227436   5.394   2.954   1.394
 9158TIP3   OH227437   1.350   5.615   2.574
 9158TIP3    H127438   1.295   5.555   2.524
 9158TIP3    H227439   1.404   5.558   2.629
 9159TIP3   OH227440   3.089   6.327   4.906
 9159TIP3    H127441   3.121   6.346   4.994
 9159TIP3    H227442   3.080   6.232   4.904
 9160TIP3   OH227443   4.256   1.099   5.684
 9160TIP3    H127444   4.179   1.099   5.628
 9160TIP3    H227445   4.221   1.108   5.773
 9161TIP3   OH227446   3.170   4.740   3.250
 9161TIP3    H127447   3.241   4.758   3.311
 9161TIP3    H227448   3.090   4.755   3.301
 9162TIP3   OH227449   0.065   4.086   3.785
 9162TIP3    H127450   0.153   4.056   3.765
 9162TIP3    H227451   0.009   4.009   3.767
 9163TIP3   OH227452   2.346  -0.015   2.939
 9163TIP3    H127453   2.323  -0.069   2.863
 9163TIP3    H227454   2.432   0.020   2.917
 9164TIP3   OH227455   0.773   0.935   2.477
 9164TIP3    H127456   0.726   0.968   2.553
 9164TIP3    H227457   0.720   0.861   2.446
 9165TIP3   OH227458   4.739   0.182   0.206
 9165TIP3    H127459   4.812   0.125   0.181
 9165TIP3    H227460   4.781   0.258   0.248
 9166TIP3   OH227461   4.481   2.305   5.183
 9166TIP3    H127462   4.385   2.299   5.185
 9166TIP3    H227463   4.502   2.331   5.094
 9167TIP3   OH227464   5.119   4.879   0.165
 9167TIP3    H127465   5.082   4.862   0.252
 9167TIP3    H227466   5.117   4.794   0.121
 9168TIP3   OH227467   2.198   0.269   0.870
 9168TIP3    H127468   2.212   0.206   0.942
 9168TIP3    H227469   2.112   0.307   0.888
 9169TIP3   OH227470   2.965   5.937   5.066
 9169TIP3    H127471   3.025   5.971   5.133
 9169TIP3    H227472   3.010   5.954   4.984
 9170TIP3   OH227473   3.549   6.819   0.537
 9170TIP3    H127474   3.501   6.746   0.576
 9170TIP3    H227475   3.548   6.887   0.604
 9171TIP3   OH227476   1.870   0.980   4.976
 9171TIP3    H127477   1.828   0.943   5.055
 9171TIP3    H227478   1.927   0.909   4.944
 9172TIP3   OH227479   1.660   4.075   2.821
 9172TIP3    H127480   1.735   4.090   2.878
 9172TIP3    H227481   1.698   4.051   2.737
 9173TIP3   OH227482   0.165   0.584   5.572
 9173TIP3    H127483   0.086   0.621   5.532
 9173TIP3    H227484   0.150   0.489   5.570
 9174TIP3   OH227485   1.445   0.741   5.128
 9174TIP3    H127486   1.395   0.708   5.053
 9174TIP3    H227487   1.382   0.795   5.177
 9175TIP3   OH227488   6.088   2.818   2.315
 9175TIP3    H127489   6.035   2.765   2.256
 9175TIP3    H227490   6.025   2.860   2.372
 9176TIP3   OH227491   5.541   2.721   1.255
 9176TIP3    H127492   5.490   2.687   1.330
 9176TIP3    H227493   5.597   2.789   1.293
 9177TIP3   OH227494   2.468   0.316   2.375
 9177TIP3    H127495   2.529   0.358   2.314
 9177TIP3    H227496   2.391   0.294   2.321
 9178TIP3   OH227497   2.178   0.161   1.407
 9178TIP3    H127498   2.211   0.097   1.470
 9178TIP3    H227499   2.147   0.109   1.334
 9179TIP3   OH227500   4.744   6.221   4.451
 9179TIP3    H127501   4.688   6.159   4.498
 9179TIP3    H227502   4.832   6.183   4.456
 9180TIP3   OH227503   4.248   3.198   5.559
 9180TIP3    H127504   4.283   3.126   5.507
 9180TIP3    H227505   4.193   3.246   5.497
 9181TIP3   OH227506   2.687   1.432   2.063
 9181TIP3    H127507   2.614   1.371   2.046
 9181TIP3    H227508   2.680   1.497   1.993
 9182TIP3   OH227509   1.000   6.644   2.220
 9182TIP3    H127510   1.019   6.575   2.157
 9182TIP3    H227511   1.007   6.602   2.306
 9183TIP3   OH227512   2.264   4.200   3.877
 9183TIP3    H127513   2.217   4.170   3.955
 9183TIP3    H227514   2.226   4.151   3.805
 9184TIP3   OH227515   0.764   3.073   1.988
 9184TIP3    H127516   0.695   3.135   1.964
 9184TIP3    H227517   0.845   3.116   1.961
 9185TIP3   OH227518   3.024   4.300   2.959
 9185TIP3    H127519   2.957   4.253   3.009
 9185TIP3    H227520   2.974   4.349   2.894
 9186TIP3   OH227521   2.615   1.335   0.893
 9186TIP3    H127522   2.559   1.398   0.849
 9186TIP3    H227523   2.565   1.253   0.889
 9187TIP3   OH227524   6.226   3.446   0.181
 9187TIP3    H127525   6.230   3.523   0.125
 9187TIP3    H227526   6.165   3.387   0.136
 9188TIP3   OH227527   2.467   0.170   3.770
 9188TIP3    H127528   2.542   0.131   3.814
 9188TIP3    H227529   2.394   0.111   3.788
 9189TIP3   OH227530   5.540   1.225   1.172
 9189TIP3    H127531   5.466   1.203   1.115
 9189TIP3    H227532   5.515   1.308   1.212
 9190TIP3   OH227533   2.413   3.753   2.427
 9190TIP3    H127534   2.486   3.693   2.408
 9190TIP3    H227535   2.455   3.837   2.443
 9191TIP3   OH227536   3.714   0.860   2.035
 9191TIP3    H127537   3.779   0.893   2.097
 9191TIP3    H227538   3.683   0.938   1.989
 9192TIP3   OH227539   2.238   6.755   3.825
 9192TIP3    H127540   2.143   6.753   3.813
 9192TIP3    H227541   2.271   6.687   3.767
 9193TIP3   OH227542   0.396   6.268   0.128
 9193TIP3    H127543   0.476   6.263   0.181
 9193TIP3    H227544   0.367   6.359   0.137
 9194TIP3   OH227545   1.254   1.232   5.679
 9194TIP3    H127546   1.268   1.206   5.588
 9194TIP3    H227547   1.172   1.281   5.677
 9195TIP3   OH227548   6.060   2.889   0.296
 9195TIP3    H127549   6.123   2.825   0.330
 9195TIP3    H227550   6.051   2.953   0.367
 9196TIP3   OH227551   0.922   0.150   1.406
 9196TIP3    H127552   0.912   0.090   1.332
 9196TIP3    H227553   0.926   0.237   1.366
 9197TIP3   OH227554   1.275   0.815   3.133
 9197TIP3    H127555   1.364   0.831   3.100
 9197TIP3    H227556   1.244   0.902   3.158
 9198TIP3   OH227557   7.150   5.842   4.832
 9198TIP3    H127558   7.095   5.797   4.767
 9198TIP3    H227559   7.187   5.771   4.885
 9199TIP3   OH227560   1.119   4.292   5.005
 9199TIP3    H127561   1.194   4.306   4.948
 9199TIP3    H227562   1.100   4.199   5.000
 9200TIP3   OH227563   1.107   6.109   5.624
 9200TIP3    H127564   1.057   6.106   5.706
 9200TIP3    H227565   1.069   6.039   5.570
 9201TIP3   OH227566   4.063   0.160   0.937
 9201TIP3    H127567   4.052   0.250   0.905
 9201TIP3    H227568   4.037   0.105   0.863
 9202TIP3   OH227569   3.358   5.425   4.050
 9202TIP3    H127570   3.334   5.342   4.009
 9202TIP3    H227571   3.337   5.412   4.143
 9203TIP3   OH227572   2.161   3.072   0.559
 9203TIP3    H127573   2.186   3.070   0.466
 9203TIP3    H227574   2.231   3.122   0.601
 9204TIP3   OH227575   5.074   2.638   4.250
 9204TIP3    H127576   5.046   2.576   4.182
 9204TIP3    H227577   5.017   2.714   4.237
 9205TIP3   OH227578   0.450   5.733   1.360
 9205TIP3    H127579   0.444   5.654   1.412
 9205TIP3    H227580   0.395   5.716   1.283
 9206TIP3   OH227581   1.684   5.957   5.383
 9206TIP3    H127582   1.654   5.949   5.473
 9206TIP3    H227583   1.758   6.017   5.387
 9207TIP3   OH227584   1.371   4.216   0.377
 9207TIP3    H127585   1.454   4.194   0.335
 9207TIP3    H227586   1.395   4.281   0.444
 9208TIP3   OH227587   1.784   3.577   0.401
 9208TIP3    H127588   1.784   3.669   0.427
 9208TIP3    H227589   1.759   3.578   0.308
 9209TIP3   OH227590   2.726   3.390   3.930
 9209TIP3    H127591   2.758   3.308   3.893
 9209TIP3    H227592   2.719   3.450   3.856
 9210TIP3   OH227593   5.242   5.927   5.744
 9210TIP3    H127594   5.278   6.013   5.768
 9210TIP3    H227595   5.216   5.937   5.653
 9211TIP3   OH227596   5.658   5.702   4.475
 9211TIP3    H127597   5.739   5.688   4.523
 9211TIP3    H227598   5.636   5.616   4.439
 9212TIP3   OH227599   5.831   2.345   5.256
 9212TIP3    H127600   5.826   2.409   5.328
 9212TIP3    H227601   5.760   2.283   5.275
 9213TIP3   OH227602   5.486   1.001   2.598
 9213TIP3    H127603   5.397   1.008   2.563
 9213TIP3    H227604   5.487   1.058   2.675
 9214TIP3   OH227605   5.882   2.878   2.506
 9214TIP3    H127606   5.830   2.954   2.480
 9214TIP3    H227607   5.944   2.911   2.570
 9215TIP3   OH227608   0.182   4.662   1.396
 9215TIP3    H127609   0.213   4.617   1.475
 9215TIP3    H227610   0.087   4.647   1.396
 9216TIP3   OH227611   5.836   5.953   3.513
 9216TIP3    H127612   5.787   5.933   3.433
 9216TIP3    H227613   5.791   5.906   3.582
 9217TIP3   OH227614   5.527   2.524   4.137
 9217TIP3    H127615   5.446   2.573   4.154
 9217TIP3    H227616   5.594   2.568   4.189
 9218TIP3   OH227617   5.977   4.482   3.428
 9218TIP3    H127618   5.916   4.551   3.455
 9218TIP3    H227619   5.941   4.402   3.464
 9219TIP3   OH227620   3.367   2.516   3.736
 9219TIP3    H127621   3.432   2.454   3.770
 9219TIP3    H227622   3.282   2.475   3.756
 9220TIP3   OH227623   0.336   4.082   2.278
 9220TIP3    H127624   0.275   4.011   2.258
 9220TIP3    H227625   0.342   4.083   2.374
 9221TIP3   OH227626   2.433   5.528   1.551
 9221TIP3    H127627   2.422   5.508   1.644
 9221TIP3    H227628   2.518   5.573   1.547
 9222TIP3   OH227629   6.077   0.660   3.916
 9222TIP3    H127630   6.018   0.648   3.841
 9222TIP3    H227631   6.120   0.575   3.926
 9223TIP3   OH227632   1.977   0.367   4.391
 9223TIP3    H127633   1.980   0.332   4.301
 9223TIP3    H227634   1.892   0.410   4.397
 9224TIP3   OH227635   5.440   4.205   2.709
 9224TIP3    H127636   5.393   4.123   2.726
 9224TIP3    H227637   5.532   4.184   2.725
 9225TIP3   OH227638   5.790   5.204   5.214
 9225TIP3    H127639   5.835   5.242   5.138
 9225TIP3    H227640   5.715   5.262   5.228
 9226TIP3   OH227641   5.150   6.293   4.104
 9226TIP3    H127642   5.207   6.255   4.171
 9226TIP3    H227643   5.089   6.347   4.152
 9227TIP3   OH227644   1.274   3.586   2.870
 9227TIP3    H127645   1.195   3.627   2.836
 9227TIP3    H227646   1.277   3.614   2.962
 9228TIP3   OH227647   3.939   4.640   1.453
 9228TIP3    H127648   3.880   4.688   1.395
 9228TIP3    H227649   3.889   4.628   1.534
 9229TIP3   OH227650   4.962   4.203   2.798
 9229TIP3    H127651   5.042   4.215   2.849
 9229TIP3    H227652   4.950   4.286   2.752
 9230TIP3   OH227653   6.692   0.002   4.573
 9230TIP3    H127654   6.679  -0.081   4.527
 9230TIP3    H227655   6.642   0.065   4.522
 9231TIP3   OH227656   4.130   4.012   2.070
 9231TIP3    H127657   4.173   3.998   1.986
 9231TIP3    H227658   4.068   3.939   2.078
 9232TIP3   OH227659   0.062   0.206   3.948
 9232TIP3    H127660   0.007   0.211   3.870
 9232TIP3    H227661   0.122   0.280   3.939
 9233TIP3   OH227662   1.864   1.215   3.601
 9233TIP3    H127663   1.797   1.156   3.566
 9233TIP3    H227664   1.947   1.181   3.567
 9234TIP3   OH227665   4.617   3.185   4.803
 9234TIP3    H127666   4.585   3.160   4.890
 9234TIP3    H227667   4.656   3.272   4.817
 9235TIP3   OH227668   4.022   1.551   2.646
 9235TIP3    H127669   4.061   1.568   2.732
 9235TIP3    H227670   4.063   1.615   2.588
 9236TIP3   OH227671   4.370   4.108   0.983
 9236TIP3    H127672   4.355   4.145   1.070
 9236TIP3    H227673   4.283   4.079   0.954
 9237TIP3   OH227674   0.958   2.056   0.865
 9237TIP3    H127675   1.018   2.109   0.917
 9237TIP3    H227676   0.983   2.076   0.774
 9238TIP3   OH227677   1.538   5.435   0.288
 9238TIP3    H127678   1.510   5.523   0.264
 9238TIP3    H227679   1.569   5.443   0.378
 9239TIP3   OH227680   2.334   3.084   0.870
 9239TIP3    H127681   2.284   3.016   0.915
 9239TIP3    H227682   2.361   3.144   0.940
 9240TIP3   OH227683   1.115   6.553   1.155
 9240TIP3    H127684   1.207   6.574   1.169
 9240TIP3    H227685   1.068   6.630   1.189
 9241TIP3   OH227686   3.381   2.606   1.089
 9241TIP3    H127687   3.335   2.523   1.094
 9241TIP3    H227688   3.326   2.662   1.035
 9242TIP3   OH227689   1.676   5.986   2.485
 9242TIP3    H127690   1.591   5.942   2.478
 9242TIP3    H227691   1.736   5.917   2.514
 9243TIP3   OH227692   4.041   5.067   4.450
 9243TIP3    H127693   4.105   5.059   4.379
 9243TIP3    H227694   3.967   5.112   4.410
 9244TIP3   OH227695   0.231   0.679   0.811
 9244TIP3    H127696   0.249   0.705   0.720
 9244TIP3    H227697   0.317   0.659   0.847
 9245TIP3   OH227698   1.357   2.544   3.519
 9245TIP3    H127699   1.449   2.555   3.496
 9245TIP3    H227700   1.317   2.505   3.441
 9246TIP3   OH227701   6.929   6.516   0.793
 9246TIP3    H127702   6.842   6.485   0.771
 9246TIP3    H227703   6.986   6.478   0.727
 9247TIP3   OH227704   1.499   5.355   1.025
 9247TIP3    H127705   1.454   5.438   1.041
 9247TIP3    H227706   1.535   5.331   1.111
 9248TIP3   OH227707   6.700   0.804   5.663
 9248TIP3    H127708   6.615   0.841   5.686
 9248TIP3    H227709   6.679   0.731   5.605
 9249TIP3   OH227710   5.649   5.578   3.168
 9249TIP3    H127711   5.663   5.492   3.128
 9249TIP3    H227712   5.557   5.596   3.153
 9250TIP3   OH227713   2.931   3.918   3.477
 9250TIP3    H127714   3.000   3.946   3.416
 9250TIP3    H227715   2.906   3.999   3.522
 9251TIP3   OH227716   5.515   4.340   1.332
 9251TIP3    H127717   5.511   4.420   1.383
 9251TIP3    H227718   5.430   4.299   1.345
 9252TIP3   OH227719   6.766   3.595   1.710
 9252TIP3    H127720   6.719   3.550   1.780
 9252TIP3    H227721   6.759   3.536   1.635
 9253TIP3   OH227722   6.578   3.789   1.333
 9253TIP3    H127723   6.534   3.705   1.349
 9253TIP3    H227724   6.663   3.781   1.375
 9254TIP3   OH227725   6.194   6.011   4.802
 9254TIP3    H127726   6.154   5.988   4.718
 9254TIP3    H227727   6.286   5.985   4.792
 9255TIP3   OH227728   4.514   5.279   5.462
 9255TIP3    H127729   4.556   5.281   5.376
 9255TIP3    H227730   4.578   5.320   5.520
 9256TIP3   OH227731   5.990   4.489   5.263
 9256TIP3    H127732   6.063   4.545   5.238
 9256TIP3    H227733   5.939   4.479   5.183
 9257TIP3   OH227734   1.772   1.113   1.236
 9257TIP3    H127735   1.808   1.066   1.161
 9257TIP3    H227736   1.783   1.053   1.309
 9258TIP3   OH227737   4.306   3.630   1.894
 9258TIP3    H127738   4.212   3.615   1.898
 9258TIP3    H227739   4.341   3.554   1.847
 9259TIP3   OH227740   5.972   1.073   1.752
 9259TIP3    H127741   5.957   1.028   1.670
 9259TIP3    H227742   5.912   1.032   1.814
 9260TIP3   OH227743   6.875   1.081   2.138
 9260TIP3    H127744   6.913   1.043   2.218
 9260TIP3    H227745   6.827   1.158   2.169
 9261TIP3   OH227746  -0.017   3.413   4.774
 9261TIP3    H127747   0.048   3.467   4.730
 9261TIP3    H227748   0.022   3.393   4.859
 9262TIP3   OH227749   1.194   2.659   5.228
 9262TIP3    H127750   1.136   2.698   5.163
 9262TIP3    H227751   1.149   2.579   5.254
 9263TIP3   OH227752   6.315   1.285   0.956
 9263TIP3    H127753   6.249   1.346   0.924
 9263TIP3    H227754   6.391   1.299   0.899
 9264TIP3   OH227755   6.281   4.134   1.795
 9264TIP3    H127756   6.247   4.210   1.841
 9264TIP3    H227757   6.376   4.145   1.797
 9265TIP3   OH227758   4.968   0.167   1.141
 9265TIP3    H127759   4.944   0.257   1.164
 9265TIP3    H227760   5.062   0.171   1.125
 9266TIP3   OH227761   2.789   2.688   3.036
 9266TIP3    H127762   2.827   2.728   3.113
 9266TIP3    H227763   2.777   2.760   2.974
 9267TIP3   OH227764   3.034   1.176   2.982
 9267TIP3    H127765   3.033   1.131   3.066
 9267TIP3    H227766   2.941   1.187   2.959
 9268TIP3   OH227767   6.817   3.404   3.532
 9268TIP3    H127768   6.782   3.491   3.515
 9268TIP3    H227769   6.792   3.386   3.623
 9269TIP3   OH227770   4.196   4.286   3.603
 9269TIP3    H127771   4.117   4.257   3.557
 9269TIP3    H227772   4.200   4.229   3.680
 9270TIP3   OH227773   4.236   4.707   4.059
 9270TIP3    H127774   4.310   4.725   4.117
 9270TIP3    H227775   4.204   4.793   4.033
 9271TIP3   OH227776   4.939   2.393   0.190
 9271TIP3    H127777   4.999   2.438   0.249
 9271TIP3    H227778   4.947   2.301   0.212
 9272TIP3   OH227779   3.889   6.464   3.385
 9272TIP3    H127780   3.857   6.388   3.433
 9272TIP3    H227781   3.979   6.475   3.415
 9273TIP3   OH227782   2.399   6.011   5.307
 9273TIP3    H127783   2.344   5.994   5.383
 9273TIP3    H227784   2.406   5.927   5.263
 9274TIP3   OH227785   2.154   6.318   1.530
 9274TIP3    H127786   2.166   6.395   1.585
 9274TIP3    H227787   2.168   6.244   1.589
 9275TIP3   OH227788   4.333   6.200   3.376
 9275TIP3    H127789   4.267   6.147   3.420
 9275TIP3    H227790   4.342   6.160   3.289
 9276TIP3   OH227791   2.575   6.215   5.286
 9276TIP3    H127792   2.671   6.217   5.291
 9276TIP3    H227793   2.552   6.123   5.301
 9277TIP3   OH227794   2.018   2.656   2.846
 9277TIP3    H127795   2.111   2.641   2.863
 9277TIP3    H227796   1.991   2.718   2.914
 9278TIP3   OH227797   2.974   5.530   1.985
 9278TIP3    H127798   2.944   5.533   2.076
 9278TIP3    H227799   2.894   5.520   1.934
 9279TIP3   OH227800   6.697   5.033   5.662
 9279TIP3    H127801   6.727   5.008   5.749
 9279TIP3    H227802   6.665   4.951   5.623
 9280TIP3   OH227803   1.323   0.792   0.358
 9280TIP3    H127804   1.322   0.881   0.391
 9280TIP3    H227805   1.365   0.740   0.427
 9281TIP3   OH227806   4.565   2.644   2.423
 9281TIP3    H127807   4.570   2.625   2.517
 9281TIP3    H227808   4.599   2.565   2.381
 9282TIP3   OH227809   0.442   3.056   2.988
 9282TIP3    H127810   0.355   3.067   2.948
 9282TIP3    H227811   0.493   3.009   2.922
 9283TIP3   OH227812   2.100   0.708   1.334
 9283TIP3    H127813   2.016   0.668   1.308
 9283TIP3    H227814   2.106   0.693   1.428
 9284TIP3   OH227815   3.408   2.543   4.389
 9284TIP3    H127816   3.325   2.538   4.438
 9284TIP3    H227817   3.459   2.470   4.423
 9285TIP3   OH227818   1.824   3.053   5.881
 9285TIP3    H127819   1.885   3.126   5.871
 9285TIP3    H227820   1.739   3.087   5.854
 9286TIP3   OH227821   6.738   1.489   3.902
 9286TIP3    H127822   6.710   1.439   3.825
 9286TIP3    H227823   6.780   1.567   3.866
 9287TIP3   OH227824   1.798   3.091   2.117
 9287TIP3    H127825   1.771   3.020   2.175
 9287TIP3    H227826   1.865   3.051   2.061
 9288TIP3   OH227827   4.062   3.187   0.750
 9288TIP3    H127828   4.152   3.174   0.782
 9288TIP3    H227829   4.051   3.282   0.748
 9289TIP3   OH227830   5.614   1.207   1.832
 9289TIP3    H127831   5.640   1.143   1.899
 9289TIP3    H227832   5.527   1.235   1.859
 9290TIP3   OH227833   5.389   3.732   2.164
 9290TIP3    H127834   5.323   3.683   2.115
 9290TIP3    H227835   5.347   3.752   2.248
 9291TIP3   OH227836   4.584   6.717   3.797
 9291TIP3    H127837   4.550   6.759   3.719
 9291TIP3    H227838   4.530   6.639   3.809
 9292TIP3   OH227839   3.926   3.330   5.661
 9292TIP3    H127840   3.974   3.347   5.742
 9292TIP3    H227841   3.894   3.241   5.670
 9293TIP3   OH227842   0.411   3.397   0.965
 9293TIP3    H127843   0.335   3.355   0.924
 9293TIP3    H227844   0.477   3.328   0.967
 9294TIP3   OH227845   4.503   1.365   0.410
 9294TIP3    H127846   4.548   1.428   0.353
 9294TIP3    H227847   4.411   1.369   0.383
 9295TIP3   OH227848   4.063   3.751   0.946
 9295TIP3    H127849   4.093   3.775   1.034
 9295TIP3    H227850   3.972   3.726   0.958
 9296TIP3   OH227851   6.899   0.022   5.275
 9296TIP3    H127852   6.959  -0.040   5.317
 9296TIP3    H227853   6.900   0.099   5.332
 9297TIP3   OH227854   0.882   5.449   0.616
 9297TIP3    H127855   0.858   5.422   0.705
 9297TIP3    H227856   0.869   5.544   0.615
 9298TIP3   OH227857   6.000   4.750   3.649
 9298TIP3    H127858   6.027   4.669   3.693
 9298TIP3    H227859   6.076   4.774   3.596
 9299TIP3   OH227860   5.610   0.804   5.381
 9299TIP3    H127861   5.626   0.751   5.304
 9299TIP3    H227862   5.655   0.887   5.363
 9300TIP3   OH227863   1.378   5.342   0.759
 9300TIP3    H127864   1.407   5.323   0.848
 9300TIP3    H227865   1.362   5.437   0.758
 9301TIP3   OH227866   2.550   5.315   0.569
 9301TIP3    H127867   2.564   5.396   0.619
 9301TIP3    H227868   2.527   5.250   0.636
 9302TIP3   OH227869   6.055   3.475   4.286
 9302TIP3    H127870   5.965   3.460   4.313
 9302TIP3    H227871   6.105   3.476   4.368
 9303TIP3   OH227872   4.439   1.580   3.819
 9303TIP3    H127873   4.386   1.638   3.874
 9303TIP3    H227874   4.442   1.497   3.868
 9304TIP3   OH227875   0.152   4.476   2.494
 9304TIP3    H127876   0.106   4.412   2.440
 9304TIP3    H227877   0.190   4.423   2.565
 9305TIP3   OH227878   6.052   5.079   0.982
 9305TIP3    H127879   6.027   5.020   1.053
 9305TIP3    H227880   6.008   5.161   1.003
 9306TIP3   OH227881   6.647   4.704   1.763
 9306TIP3    H127882   6.740   4.683   1.775
 9306TIP3    H227883   6.601   4.640   1.819
 9307TIP3   OH227884   6.256   2.103   2.909
 9307TIP3    H127885   6.256   2.184   2.960
 9307TIP3    H227886   6.331   2.111   2.851
 9308TIP3   OH227887   4.162   4.312   3.311
 9308TIP3    H127888   4.228   4.310   3.381
 9308TIP3    H227889   4.189   4.384   3.254
 9309TIP3   OH227890   4.822   3.092   1.266
 9309TIP3    H127891   4.788   3.182   1.272
 9309TIP3    H227892   4.743   3.037   1.263
 9310TIP3   OH227893   6.700   2.291   1.238
 9310TIP3    H127894   6.636   2.293   1.309
 9310TIP3    H227895   6.691   2.203   1.200
 9311TIP3   OH227896   0.119   5.537   0.939
 9311TIP3    H127897   0.143   5.490   0.860
 9311TIP3    H227898   0.099   5.469   1.003
 9312TIP3   OH227899   4.361   1.734   1.892
 9312TIP3    H127900   4.428   1.698   1.833
 9312TIP3    H227901   4.281   1.687   1.867
 9313TIP3   OH227902   3.906   6.129   2.685
 9313TIP3    H127903   3.919   6.222   2.704
 9313TIP3    H227904   3.931   6.084   2.766
 9314TIP3   OH227905   2.776   6.580   4.516
 9314TIP3    H127906   2.853   6.568   4.460
 9314TIP3    H227907   2.785   6.670   4.549
 9315TIP3   OH227908   2.805   5.418   0.249
 9315TIP3    H127909   2.898   5.443   0.250
 9315TIP3    H227910   2.806   5.323   0.246
 9316TIP3   OH227911   3.141   4.164   1.843
 9316TIP3    H127912   3.145   4.078   1.883
 9316TIP3    H227913   3.202   4.218   1.894
 9317TIP3   OH227914  -0.030   5.898   1.506
 9317TIP3    H127915   0.006   5.821   1.461
 9317TIP3    H227916  -0.009   5.884   1.598
 9318TIP3   OH227917   1.290   1.656   4.483
 9318TIP3    H127918   1.207   1.704   4.474
 9318TIP3    H227919   1.293   1.600   4.406
 9319TIP3   OH227920   1.253   3.366   3.606
 9319TIP3    H127921   1.201   3.308   3.661
 9319TIP3    H227922   1.294   3.427   3.667
 9320TIP3   OH227923   6.398   6.777   0.027
 9320TIP3    H127924   6.490   6.803   0.021
 9320TIP3    H227925   6.362   6.831   0.097
 9321TIP3   OH227926   0.793   4.130   4.155
 9321TIP3    H127927   0.867   4.153   4.212
 9321TIP3    H227928   0.716   4.147   4.208
 9322TIP3   OH227929   4.455   1.842   1.510
 9322TIP3    H127930   4.401   1.825   1.433
 9322TIP3    H227931   4.540   1.804   1.488
 9323TIP3   OH227932   0.352   3.363   1.428
 9323TIP3    H127933   0.396   3.361   1.343
 9323TIP3    H227934   0.274   3.308   1.416
 9324TIP3   OH227935   1.024   4.370   3.490
 9324TIP3    H127936   1.087   4.300   3.474
 9324TIP3    H227937   0.977   4.343   3.569
 9325TIP3   OH227938   5.517   3.044   0.535
 9325TIP3    H127939   5.495   2.970   0.591
 9325TIP3    H227940   5.449   3.109   0.554
 9326TIP3   OH227941   3.878   4.291   3.252
 9326TIP3    H127942   3.966   4.304   3.287
 9326TIP3    H227943   3.826   4.363   3.289
 9327TIP3   OH227944   1.715   3.390   2.534
 9327TIP3    H127945   1.691   3.309   2.579
 9327TIP3    H227946   1.753   3.362   2.451
 9328TIP3   OH227947   0.040   4.800   3.366
 9328TIP3    H127948   0.076   4.873   3.316
 9328TIP3    H227949   0.116   4.761   3.410
 9329TIP3   OH227950   5.262   0.753   3.103
 9329TIP3    H127951   5.172   0.727   3.125
 9329TIP3    H227952   5.261   0.762   3.007
 9330TIP3   OH227953   0.692   0.351   4.462
 9330TIP3    H127954   0.606   0.326   4.496
 9330TIP3    H227955   0.719   0.424   4.516
 9331TIP3   OH227956   4.732   6.660   1.754
 9331TIP3    H127957   4.684   6.598   1.810
 9331TIP3    H227958   4.681   6.665   1.674
 9332TIP3   OH227959   6.270   3.945   3.434
 9332TIP3    H127960   6.326   3.983   3.501
 9332TIP3    H227961   6.238   3.863   3.472
 9333TIP3   OH227962   1.377   5.300   3.683
 9333TIP3    H127963   1.432   5.224   3.701
 9333TIP3    H227964   1.352   5.291   3.591
 9334TIP3   OH227965   1.269   0.476   5.264
 9334TIP3    H127966   1.363   0.461   5.253
 9334TIP3    H227967   1.254   0.461   5.357
 9335TIP3   OH227968   0.519   4.180   0.453
 9335TIP3    H127969   0.493   4.216   0.538
 9335TIP3    H227970   0.614   4.188   0.453
 9336TIP3   OH227971   7.155   6.502   1.750
 9336TIP3    H127972   7.243   6.476   1.722
 9336TIP3    H227973   7.097   6.447   1.699
 9337TIP3   OH227974   0.982   3.203   1.841
 9337TIP3    H127975   1.066   3.158   1.848
 9337TIP3    H227976   0.990   3.280   1.897
 9338TIP3   OH227977   0.956   0.055   0.537
 9338TIP3    H127978   1.020   0.121   0.511
 9338TIP3    H227979   0.877   0.078   0.488
 9339TIP3   OH227980   6.330   2.267   4.898
 9339TIP3    H127981   6.354   2.223   4.817
 9339TIP3    H227982   6.348   2.202   4.966
 9340TIP3   OH227983   4.950   0.743   2.829
 9340TIP3    H127984   5.022   0.757   2.767
 9340TIP3    H227985   4.988   0.685   2.896
 9341TIP3   OH227986   1.651   2.853   2.162
 9341TIP3    H127987   1.697   2.772   2.185
 9341TIP3    H227988   1.604   2.877   2.242
 9342TIP3   OH227989   3.578   4.627   1.521
 9342TIP3    H127990   3.602   4.656   1.609
 9342TIP3    H227991   3.579   4.706   1.468
 9343TIP3   OH227992   1.955   1.616   1.976
 9343TIP3    H127993   1.961   1.553   2.048
 9343TIP3    H227994   2.046   1.632   1.951
 9344TIP3   OH227995   0.460   3.292   2.837
 9344TIP3    H127996   0.454   3.261   2.928
 9344TIP3    H227997   0.411   3.373   2.836
 9345TIP3   OH227998   1.529   5.403   5.162
 9345TIP3    H127999   1.615   5.363   5.148
 9345TIP3    H228000   1.475   5.371   5.090
 9346TIP3   OH228001   5.121   0.217   5.423
 9346TIP3    H128002   5.204   0.180   5.454
 9346TIP3    H228003   5.113   0.300   5.470
 9347TIP3   OH228004   6.975   2.702   5.417
 9347TIP3    H128005   7.051   2.666   5.372
 9347TIP3    H228006   6.900   2.675   5.364
 9348TIP3   OH228007   1.495   4.815   1.369
 9348TIP3    H128008   1.503   4.878   1.297
 9348TIP3    H228009   1.504   4.868   1.448
 9349TIP3   OH228010   6.495   3.499   1.370
 9349TIP3    H128011   6.406   3.495   1.405
 9349TIP3    H228012   6.487   3.468   1.280
 9350TIP3   OH228013   2.448   0.303   3.331
 9350TIP3    H128014   2.509   0.288   3.403
 9350TIP3    H228015   2.442   0.398   3.324
 9351TIP3   OH228016   3.412   0.770   4.466
 9351TIP3    H128017   3.365   0.714   4.404
 9351TIP3    H228018   3.400   0.728   4.550
 9352TIP3   OH228019   5.794   0.460   1.174
 9352TIP3    H128020   5.801   0.471   1.080
 9352TIP3    H228021   5.734   0.530   1.201
 9353TIP3   OH228022   3.891  -0.002   0.264
 9353TIP3    H128023   3.943   0.032   0.191
 9353TIP3    H228024   3.927   0.043   0.341
 9354TIP3   OH228025   6.068   0.329   4.308
 9354TIP3    H128026   6.124   0.323   4.385
 9354TIP3    H228027   5.979   0.316   4.341
 9355TIP3   OH228028   0.979   2.830   3.301
 9355TIP3    H128029   0.959   2.918   3.333
 9355TIP3    H228030   1.018   2.786   3.377
 9356TIP3   OH228031   2.107   0.555   2.721
 9356TIP3    H128032   2.053   0.612   2.776
 9356TIP3    H228033   2.197   0.574   2.746
 9357TIP3   OH228034   1.881   0.162   5.459
 9357TIP3    H128035   1.839   0.104   5.523
 9357TIP3    H228036   1.836   0.143   5.377
 9358TIP3   OH228037   6.597   2.457   2.558
 9358TIP3    H128038   6.519   2.506   2.587
 9358TIP3    H228039   6.603   2.474   2.464
 9359TIP3   OH228040   2.919   1.977   5.431
 9359TIP3    H128041   2.977   1.918   5.480
 9359TIP3    H228042   2.944   1.964   5.340
 9360TIP3   OH228043   0.795   0.726   4.228
 9360TIP3    H128044   0.714   0.676   4.233
 9360TIP3    H228045   0.807   0.762   4.316
 9361TIP3   OH228046   0.167   3.770   0.815
 9361TIP3    H128047   0.257   3.737   0.815
 9361TIP3    H228048   0.143   3.771   0.908
 9362TIP3   OH228049   5.007   5.321   2.059
 9362TIP3    H128050   5.052   5.388   2.008
 9362TIP3    H228051   4.947   5.280   1.997
 9363TIP3   OH228052   3.343   2.608   4.033
 9363TIP3    H128053   3.330   2.636   3.942
 9363TIP3    H228054   3.257   2.620   4.074
 9364TIP3   OH228055   5.637   1.286   3.516
 9364TIP3    H128056   5.688   1.341   3.575
 9364TIP3    H228057   5.558   1.263   3.566
 9365TIP3   OH228058   2.541   4.610   3.420
 9365TIP3    H128059   2.585   4.591   3.337
 9365TIP3    H228060   2.473   4.673   3.397
 9366TIP3   OH228061   1.691   3.346   4.198
 9366TIP3    H128062   1.773   3.300   4.219
 9366TIP3    H228063   1.666   3.389   4.279
 9367TIP3   OH228064   3.024   2.441   4.322
 9367TIP3    H128065   3.059   2.362   4.362
 9367TIP3    H228066   3.050   2.512   4.381
 9368TIP3   OH228067   5.324   3.724   0.525
 9368TIP3    H128068   5.326   3.742   0.431
 9368TIP3    H228069   5.409   3.752   0.557
 9369TIP3   OH228070   2.241   3.600   5.817
 9369TIP3    H128071   2.265   3.507   5.817
 9369TIP3    H228072   2.157   3.603   5.862
 9370TIP3   OH228073   5.376   5.971   3.993
 9370TIP3    H128074   5.282   5.989   4.000
 9370TIP3    H228075   5.399   5.933   4.078
 9371TIP3   OH228076   5.689   2.694   4.250
 9371TIP3    H128077   5.665   2.778   4.289
 9371TIP3    H228078   5.715   2.640   4.324
 9372TIP3   OH228079   1.185   1.578   2.681
 9372TIP3    H128080   1.124   1.506   2.696
 9372TIP3    H228081   1.178   1.632   2.760
 9373TIP3   OH228082   3.155   5.504   1.240
 9373TIP3    H128083   3.162   5.414   1.210
 9373TIP3    H228084   3.137   5.555   1.161
 9374TIP3   OH228085   5.456   2.412   2.130
 9374TIP3    H128086   5.393   2.456   2.187
 9374TIP3    H228087   5.458   2.466   2.051
 9375TIP3   OH228088   6.565   2.795   0.268
 9375TIP3    H128089   6.507   2.724   0.241
 9375TIP3    H228090   6.582   2.844   0.188
 9376TIP3   OH228091   6.015   0.168   3.350
 9376TIP3    H128092   6.090   0.113   3.373
 9376TIP3    H228093   5.967   0.116   3.285
 9377TIP3   OH228094   5.802   6.012   2.787
 9377TIP3    H128095   5.727   6.033   2.841
 9377TIP3    H228096   5.835   5.929   2.822
 9378TIP3   OH228097   7.237   3.127   2.183
 9378TIP3    H128098   7.318   3.078   2.196
 9378TIP3    H228099   7.220   3.168   2.267
 9379TIP3   OH228100   6.677   2.602   4.910
 9379TIP3    H128101   6.633   2.542   4.970
 9379TIP3    H228102   6.648   2.689   4.938
 9380TIP3   OH228103   0.878   2.519   4.075
 9380TIP3    H128104   0.969   2.506   4.050
 9380TIP3    H228105   0.829   2.503   3.994
 9381TIP3   OH228106   5.890   1.109   0.343
 9381TIP3    H128107   5.972   1.065   0.367
 9381TIP3    H228108   5.848   1.128   0.428
 9382TIP3   OH228109   3.017   4.069   5.220
 9382TIP3    H128110   3.016   3.996   5.282
 9382TIP3    H228111   3.107   4.072   5.187
 9383TIP3   OH228112   6.399   6.002   5.544
 9383TIP3    H128113   6.379   6.096   5.540
 9383TIP3    H228114   6.403   5.982   5.637
 9384TIP3   OH228115   2.181   6.588   5.452
 9384TIP3    H128116   2.211   6.644   5.381
 9384TIP3    H228117   2.255   6.583   5.513
 9385TIP3   OH228118   0.960   4.412   0.067
 9385TIP3    H128119   0.983   4.322   0.043
 9385TIP3    H228120   1.015   4.431   0.143
 9386TIP3   OH228121   0.546   4.123   2.104
 9386TIP3    H128122   0.471   4.118   2.163
 9386TIP3    H228123   0.590   4.205   2.128
 9387TIP3   OH228124   0.672   6.117   1.925
 9387TIP3    H128125   0.699   6.156   2.008
 9387TIP3    H228126   0.610   6.049   1.949
 9388TIP3   OH228127   1.346   6.689   1.237
 9388TIP3    H128128   1.426   6.651   1.272
 9388TIP3    H228129   1.375   6.760   1.180
 9389TIP3   OH228130   3.325   0.009   0.151
 9389TIP3    H128131   3.232   0.032   0.141
 9389TIP3    H228132   3.366   0.090   0.182
 9390TIP3   OH228133   0.325   3.143   5.138
 9390TIP3    H128134   0.237   3.180   5.133
 9390TIP3    H228135   0.312   3.049   5.125
 9391TIP3   OH228136   6.619   3.059   0.402
 9391TIP3    H128137   6.534   3.045   0.359
 9391TIP3    H228138   6.626   2.987   0.464
 9392TIP3   OH228139   1.813   6.394   2.206
 9392TIP3    H128140   1.770   6.311   2.225
 9392TIP3    H228141   1.859   6.417   2.287
 9393TIP3   OH228142   2.678   6.366   1.968
 9393TIP3    H128143   2.756   6.415   1.994
 9393TIP3    H228144   2.696   6.339   1.878
 9394TIP3   OH228145   6.672   0.804   2.777
 9394TIP3    H128146   6.652   0.889   2.815
 9394TIP3    H228147   6.694   0.749   2.852
 9395TIP3   OH228148   2.663   5.669   1.610
 9395TIP3    H128149   2.603   5.698   1.678
 9395TIP3    H228150   2.745   5.715   1.628
 9396TIP3   OH228151   7.135   4.279   3.915
 9396TIP3    H128152   7.078   4.342   3.869
 9396TIP3    H228153   7.178   4.230   3.845
 9397TIP3   OH228154   4.150   5.614   1.235
 9397TIP3    H128155   4.148   5.587   1.143
 9397TIP3    H228156   4.197   5.698   1.234
 9398TIP3   OH228157   1.344   2.633   2.209
 9398TIP3    H128158   1.376   2.603   2.294
 9398TIP3    H228159   1.331   2.553   2.158
 9399TIP3   OH228160   1.876   2.944   5.522
 9399TIP3    H128161   1.782   2.929   5.526
 9399TIP3    H228162   1.885   3.033   5.488
 9400TIP3   OH228163   1.977   5.745   4.818
 9400TIP3    H128164   1.961   5.805   4.746
 9400TIP3    H228165   1.904   5.760   4.879
 9401TIP3   OH228166   4.882   1.821   5.555
 9401TIP3    H128167   4.799   1.869   5.548
 9401TIP3    H228168   4.922   1.831   5.469
 9402TIP3   OH228169   2.359   2.279   0.217
 9402TIP3    H128170   2.375   2.317   0.303
 9402TIP3    H228171   2.392   2.189   0.224
 9403TIP3   OH228172   4.719   2.224   4.555
 9403TIP3    H128173   4.653   2.281   4.516
 9403TIP3    H228174   4.721   2.147   4.498
 9404TIP3   OH228175   0.296   1.425   2.967
 9404TIP3    H128176   0.309   1.333   2.943
 9404TIP3    H228177   0.384   1.457   2.986
 9405TIP3   OH228178   6.392   0.122   3.523
 9405TIP3    H128179   6.354   0.191   3.578
 9405TIP3    H228180   6.474   0.099   3.567
 9406TIP3   OH228181   0.374   4.760   0.402
 9406TIP3    H128182   0.292   4.799   0.371
 9406TIP3    H228183   0.370   4.669   0.371
 9407TIP3   OH228184   0.797   4.157   1.181
 9407TIP3    H128185   0.777   4.240   1.138
 9407TIP3    H228186   0.829   4.181   1.268
 9408TIP3   OH228187   5.152   6.127   4.722
 9408TIP3    H128188   5.190   6.128   4.634
 9408TIP3    H228189   5.211   6.181   4.774
 9409TIP3   OH228190   5.293   1.753   3.344
 9409TIP3    H128191   5.365   1.801   3.385
 9409TIP3    H228192   5.256   1.700   3.414
 9410TIP3   OH228193   5.799   2.602   1.301
 9410TIP3    H128194   5.709   2.632   1.289
 9410TIP3    H228195   5.838   2.608   1.214
 9411TIP3   OH228196   1.266   1.688   0.518
 9411TIP3    H128197   1.249   1.757   0.455
 9411TIP3    H228198   1.317   1.623   0.470
 9412TIP3   OH228199   4.090   6.797   5.730
 9412TIP3    H128200   4.057   6.781   5.818
 9412TIP3    H228201   4.016   6.776   5.673
 9413TIP3   OH228202   5.646   0.570   2.789
 9413TIP3    H128203   5.675   0.656   2.760
 9413TIP3    H228204   5.722   0.513   2.777
 9414TIP3   OH228205   5.371   6.479   5.461
 9414TIP3    H128206   5.317   6.498   5.538
 9414TIP3    H228207   5.394   6.565   5.426
 9415TIP3   OH228208   6.295   3.860   0.290
 9415TIP3    H128209   6.249   3.834   0.370
 9415TIP3    H228210   6.321   3.777   0.250
 9416TIP3   OH228211   4.792   0.617   1.501
 9416TIP3    H128212   4.759   0.605   1.412
 9416TIP3    H228213   4.789   0.529   1.539
 9417TIP3   OH228214   2.490   0.187   2.816
 9417TIP3    H128215   2.532   0.173   2.731
 9417TIP3    H228216   2.559   0.223   2.871
 9418TIP3   OH228217   7.204   5.424   2.668
 9418TIP3    H128218   7.114   5.445   2.642
 9418TIP3    H228219   7.195   5.369   2.746
 9419TIP3   OH228220   5.003   3.964   4.480
 9419TIP3    H128221   4.963   3.933   4.561
 9419TIP3    H228222   4.933   3.960   4.415
 9420TIP3   OH228223   1.092   1.494   0.665
 9420TIP3    H128224   1.162   1.549   0.628
 9420TIP3    H228225   1.032   1.480   0.591
 9421TIP3   OH228226   0.128   0.860   0.080
 9421TIP3    H128227   0.041   0.899   0.072
 9421TIP3    H228228   0.156   0.880   0.170
 9422TIP3   OH228229   5.689   0.623   0.386
 9422TIP3    H128230   5.751   0.577   0.329
 9422TIP3    H228231   5.604   0.612   0.344
 9423TIP3   OH228232   4.809   3.825   3.616
 9423TIP3    H128233   4.846   3.739   3.596
 9423TIP3    H228234   4.855   3.885   3.557
 9424TIP3   OH228235   4.733   3.972   2.082
 9424TIP3    H128236   4.789   3.985   2.158
 9424TIP3    H228237   4.688   3.890   2.099
 9425TIP3   OH228238   4.324   3.731   1.371
 9425TIP3    H128239   4.389   3.730   1.442
 9425TIP3    H228240   4.322   3.640   1.340
 9426TIP3   OH228241   6.689   1.954   2.714
 9426TIP3    H128242   6.768   2.008   2.727
 9426TIP3    H228243   6.722   1.873   2.675
 9427TIP3   OH228244   5.270   4.382   2.609
 9427TIP3    H128245   5.331   4.313   2.636
 9427TIP3    H228246   5.237   4.418   2.691
 9428TIP3   OH228247   1.194   6.200   0.987
 9428TIP3    H128248   1.173   6.234   0.900
 9428TIP3    H228249   1.250   6.124   0.970
 9429TIP3   OH228250   0.280   0.135   3.555
 9429TIP3    H128251   0.249   0.116   3.644
 9429TIP3    H228252   0.370   0.165   3.567
 9430TIP3   OH228253   3.092   0.214   4.185
 9430TIP3    H128254   3.184   0.209   4.160
 9430TIP3    H228255   3.093   0.248   4.274
 9431TIP3   OH228256   0.586   6.643   2.631
 9431TIP3    H128257   0.660   6.587   2.652
 9431TIP3    H228258   0.525   6.587   2.583
 9432TIP3   OH228259   5.413   3.039   1.203
 9432TIP3    H128260   5.371   3.110   1.251
 9432TIP3    H228261   5.467   3.083   1.137
 9433TIP3   OH228262   1.328   3.600   5.268
 9433TIP3    H128263   1.244   3.645   5.260
 9433TIP3    H228264   1.392   3.663   5.235
 9434TIP3   OH228265   0.490   5.335   4.634
 9434TIP3    H128266   0.470   5.270   4.702
 9434TIP3    H228267   0.560   5.388   4.673
 9435TIP3   OH228268   1.552   5.453   2.715
 9435TIP3    H128269   1.605   5.487   2.788
 9435TIP3    H228270   1.533   5.363   2.741
 9436TIP3   OH228271   3.013   5.113   4.015
 9436TIP3    H128272   3.000   5.206   4.031
 9436TIP3    H228273   3.034   5.076   4.101
 9437TIP3   OH228274   4.831   0.196   2.911
 9437TIP3    H128275   4.836   0.115   2.961
 9437TIP3    H228276   4.852   0.170   2.821
 9438TIP3   OH228277   4.328   2.646   1.377
 9438TIP3    H128278   4.383   2.583   1.424
 9438TIP3    H228279   4.307   2.603   1.294
 9439TIP3   OH228280   4.030   3.093   4.879
 9439TIP3    H128281   3.983   3.167   4.917
 9439TIP3    H228282   3.993   3.016   4.923
 9440TIP3   OH228283   0.217   0.698   2.665
 9440TIP3    H128284   0.150   0.651   2.615
 9440TIP3    H228285   0.284   0.631   2.684
 9441TIP3   OH228286   1.408   2.187   3.614
 9441TIP3    H128287   1.330   2.183   3.559
 9441TIP3    H228288   1.408   2.103   3.661
 9442TIP3   OH228289   6.559   1.151   4.238
 9442TIP3    H128290   6.545   1.092   4.164
 9442TIP3    H228291   6.471   1.176   4.265
 9443TIP3   OH228292   3.819   6.136   0.642
 9443TIP3    H128293   3.740   6.120   0.693
 9443TIP3    H228294   3.814   6.073   0.570
 9444TIP3   OH228295   1.030   1.278   1.324
 9444TIP3    H128296   0.974   1.349   1.294
 9444TIP3    H228297   1.050   1.300   1.416
 9445TIP3   OH228298   0.603   6.225   0.321
 9445TIP3    H128299   0.658   6.251   0.395
 9445TIP3    H228300   0.630   6.135   0.303
 9446TIP3   OH228301   1.054   3.190   1.572
 9446TIP3    H128302   1.021   3.193   1.662
 9446TIP3    H228303   1.059   3.097   1.552
 9447TIP3   OH228304   5.572   5.357   1.217
 9447TIP3    H128305   5.646   5.381   1.272
 9447TIP3    H228306   5.515   5.434   1.218
 9448TIP3   OH228307   5.179   5.822   5.200
 9448TIP3    H128308   5.175   5.726   5.204
 9448TIP3    H228309   5.220   5.841   5.116
 9449TIP3   OH228310   5.679   0.904   0.867
 9449TIP3    H128311   5.755   0.847   0.857
 9449TIP3    H228312   5.710   0.977   0.921
 9450TIP3   OH228313   2.491   0.309   5.547
 9450TIP3    H128314   2.423   0.260   5.501
 9450TIP3    H228315   2.509   0.385   5.491
 9451TIP3   OH228316   4.792   4.993   4.177
 9451TIP3    H128317   4.856   5.055   4.143
 9451TIP3    H228318   4.815   4.910   4.135
 9452TIP3   OH228319   0.119   1.620   0.527
 9452TIP3    H128320   0.073   1.692   0.483
 9452TIP3    H228321   0.191   1.663   0.573
 9453TIP3   OH228322   1.306   1.533   4.243
 9453TIP3    H128323   1.283   1.441   4.252
 9453TIP3    H228324   1.396   1.532   4.209
 9454TIP3   OH228325   4.362   5.319   4.569
 9454TIP3    H128326   4.268   5.332   4.577
 9454TIP3    H228327   4.372   5.270   4.487
 9455TIP3   OH228328   3.673   0.942   5.594
 9455TIP3    H128329   3.582   0.919   5.573
 9455TIP3    H228330   3.665   1.002   5.668
 9456TIP3   OH228331   4.065   5.018   0.373
 9456TIP3    H128332   4.152   4.995   0.341
 9456TIP3    H228333   4.080   5.072   0.451
 9457TIP3   OH228334   6.018   3.802   0.193
 9457TIP3    H128335   5.945   3.838   0.242
 9457TIP3    H228336   6.092   3.858   0.215
 9458TIP3   OH228337   4.276   5.052   1.908
 9458TIP3    H128338   4.365   5.045   1.943
 9458TIP3    H228339   4.265   4.973   1.855
 9459TIP3   OH228340   5.961   4.232   4.501
 9459TIP3    H128341   6.038   4.244   4.446
 9459TIP3    H228342   5.994   4.238   4.590
 9460TIP3   OH228343   0.653   3.850   2.799
 9460TIP3    H128344   0.661   3.804   2.715
 9460TIP3    H228345   0.697   3.794   2.862
 9461TIP3   OH228346   4.118   5.887   0.542
 9461TIP3    H128347   4.127   5.849   0.454
 9461TIP3    H228348   4.165   5.826   0.599
 9462TIP3   OH228349   6.095   5.045   5.254
 9462TIP3    H128350   6.180   5.034   5.211
 9462TIP3    H228351   6.031   5.019   5.188
 9463TIP3   OH228352   1.934   3.790   3.201
 9463TIP3    H128353   1.858   3.826   3.247
 9463TIP3    H228354   2.000   3.858   3.206
 9464TIP3   OH228355   2.108   4.206   1.637
 9464TIP3    H128356   2.094   4.135   1.699
 9464TIP3    H228357   2.121   4.162   1.553
 9465TIP3   OH228358   6.451   0.610   1.051
 9465TIP3    H128359   6.413   0.532   1.091
 9465TIP3    H228360   6.513   0.576   0.986
 9466TIP3   OH228361   1.810   3.840   0.479
 9466TIP3    H128362   1.810   3.818   0.572
 9466TIP3    H228363   1.891   3.890   0.467
 9467TIP3   OH228364   0.336   4.041   4.388
 9467TIP3    H128365   0.416   3.988   4.386
 9467TIP3    H228366   0.271   3.987   4.343
 9468TIP3   OH228367   6.404   2.486   2.232
 9468TIP3    H128368   6.383   2.564   2.284
 9468TIP3    H228369   6.433   2.520   2.148
 9469TIP3   OH228370   6.601   5.158   1.931
 9469TIP3    H128371   6.589   5.111   1.848
 9469TIP3    H228372   6.628   5.091   1.994
 9470TIP3   OH228373   3.847   1.094   0.074
 9470TIP3    H128374   3.831   1.187   0.087
 9470TIP3    H228375   3.891   1.089  -0.011
 9471TIP3   OH228376   6.505   2.946   2.481
 9471TIP3    H128377   6.464   3.025   2.447
 9471TIP3    H228378   6.549   2.975   2.561
 9472TIP3   OH228379   6.268   0.002   0.175
 9472TIP3    H128380   6.252   0.082   0.225
 9472TIP3    H228381   6.212   0.010   0.098
 9473TIP3   OH228382   2.831   1.615   3.942
 9473TIP3    H128383   2.755   1.674   3.950
 9473TIP3    H228384   2.813   1.561   3.866
 9474TIP3   OH228385   3.775   2.533   2.984
 9474TIP3    H128386   3.731   2.611   2.953
 9474TIP3    H228387   3.751   2.526   3.077
 9475TIP3   OH228388   0.442   5.630   3.207
 9475TIP3    H128389   0.508   5.585   3.155
 9475TIP3    H228390   0.397   5.560   3.254
 9476TIP3   OH228391   3.822   4.316   4.379
 9476TIP3    H128392   3.730   4.301   4.402
 9476TIP3    H228393   3.835   4.265   4.299
 9477TIP3   OH228394   4.807   0.123   4.581
 9477TIP3    H128395   4.748   0.093   4.650
 9477TIP3    H228396   4.861   0.046   4.560
 9478TIP3   OH228397   7.003   3.685   5.395
 9478TIP3    H128398   7.075   3.718   5.449
 9478TIP3    H228399   7.035   3.601   5.361
 9479TIP3   OH228400   0.573   5.778   1.007
 9479TIP3    H128401   0.589   5.704   0.948
 9479TIP3    H228402   0.484   5.765   1.039
 9480TIP3   OH228403   2.774   5.230   3.859
 9480TIP3    H128404   2.861   5.222   3.819
 9480TIP3    H228405   2.752   5.323   3.850
 9481TIP3   OH228406   7.089   6.701   2.249
 9481TIP3    H128407   7.074   6.790   2.218
 9481TIP3    H228408   7.173   6.676   2.210
 9482TIP3   OH228409   5.273   0.490   1.732
 9482TIP3    H128410   5.329   0.420   1.698
 9482TIP3    H228411   5.320   0.522   1.810
 9483TIP3   OH228412   5.876   4.597   4.427
 9483TIP3    H128413   5.936   4.601   4.501
 9483TIP3    H228414   5.839   4.509   4.430
 9484TIP3   OH228415   0.945   1.767   4.634
 9484TIP3    H128416   0.973   1.798   4.548
 9484TIP3    H228417   0.974   1.835   4.695
 9485TIP3   OH228418   5.530   2.001   4.346
 9485TIP3    H128419   5.437   1.978   4.341
 9485TIP3    H228420   5.536   2.085   4.300
 9486TIP3   OH228421   2.461   4.391   1.420
 9486TIP3    H128422   2.535   4.381   1.479
 9486TIP3    H228423   2.469   4.317   1.359
 9487TIP3   OH228424   6.271   0.675   0.284
 9487TIP3    H128425   6.203   0.608   0.289
 9487TIP3    H228426   6.309   0.664   0.197
 9488TIP3   OH228427   3.954   0.137   0.471
 9488TIP3    H128428   4.008   0.138   0.550
 9488TIP3    H228429   3.963   0.225   0.435
 9489TIP3   OH228430   3.377   1.205   4.669
 9489TIP3    H128431   3.417   1.283   4.707
 9489TIP3    H228432   3.423   1.192   4.587
 9490TIP3   OH228433   1.051   4.308   1.056
 9490TIP3    H128434   1.057   4.355   1.139
 9490TIP3    H228435   1.007   4.225   1.078
 9491TIP3   OH228436   3.294   1.794   2.882
 9491TIP3    H128437   3.322   1.799   2.790
 9491TIP3    H228438   3.370   1.823   2.932
 9492TIP3   OH228439   4.090   5.532   0.985
 9492TIP3    H128440   4.036   5.457   0.958
 9492TIP3    H228441   4.031   5.607   0.977
 9493TIP3   OH228442   3.099   3.395   3.965
 9493TIP3    H128443   3.098   3.433   3.877
 9493TIP3    H228444   3.192   3.386   3.986
 9494TIP3   OH228445   1.887   5.991   4.041
 9494TIP3    H128446   1.792   6.006   4.035
 9494TIP3    H228447   1.913   5.969   3.952
 9495TIP3   OH228448   1.757   0.209   0.960
 9495TIP3    H128449   1.662   0.211   0.945
 9495TIP3    H228450   1.791   0.158   0.887
 9496TIP3   OH228451   3.922   0.312   2.940
 9496TIP3    H128452   3.977   0.234   2.945
 9496TIP3    H228453   3.839   0.286   2.979
 9497TIP3   OH228454   3.047   2.305   4.082
 9497TIP3    H128455   3.047   2.371   4.151
 9497TIP3    H228456   2.955   2.289   4.064
 9498TIP3   OH228457   2.519   1.564   4.998
 9498TIP3    H128458   2.475   1.645   4.971
 9498TIP3    H228459   2.528   1.572   5.093
 9499TIP3   OH228460   3.602   2.284   0.750
 9499TIP3    H128461   3.597   2.195   0.718
 9499TIP3    H228462   3.671   2.282   0.817
 9500TIP3   OH228463   4.139   1.625   2.112
 9500TIP3    H128464   4.199   1.552   2.095
 9500TIP3    H228465   4.135   1.673   2.030
 9501TIP3   OH228466   7.110   4.121   2.752
 9501TIP3    H128467   7.163   4.098   2.828
 9501TIP3    H228468   7.170   4.111   2.678
 9502TIP3   OH228469   3.230   0.859   0.627
 9502TIP3    H128470   3.310   0.893   0.667
 9502TIP3    H228471   3.238   0.881   0.534
 9503TIP3   OH228472   4.379   4.727   0.680
 9503TIP3    H128473   4.334   4.802   0.719
 9503TIP3    H228474   4.337   4.716   0.594
 9504TIP3   OH228475   2.104   2.301   2.025
 9504TIP3    H128476   2.129   2.233   2.087
 9504TIP3    H228477   2.016   2.277   1.997
 9505TIP3   OH228478   3.606   4.661   0.973
 9505TIP3    H128479   3.512   4.682   0.969
 9505TIP3    H228480   3.645   4.713   0.903
 9506TIP3   OH228481   2.595   2.117   4.926
 9506TIP3    H128482   2.689   2.130   4.936
 9506TIP3    H228483   2.570   2.179   4.857
 9507TIP3   OH228484   2.812   3.266   4.740
 9507TIP3    H128485   2.810   3.170   4.745
 9507TIP3    H228486   2.905   3.288   4.749
 9508TIP3   OH228487   0.590   4.813   4.789
 9508TIP3    H128488   0.678   4.834   4.758
 9508TIP3    H228489   0.599   4.726   4.829
 9509TIP3   OH228490   1.096   2.678   0.231
 9509TIP3    H128491   1.142   2.595   0.243
 9509TIP3    H228492   1.164   2.745   0.237
 9510TIP3   OH228493   2.182   4.572   4.223
 9510TIP3    H128494   2.186   4.529   4.138
 9510TIP3    H228495   2.193   4.501   4.286
 9511TIP3   OH228496   1.507   4.584   1.581
 9511TIP3    H128497   1.528   4.653   1.517
 9511TIP3    H228498   1.539   4.504   1.541
 9512TIP3   OH228499   1.296   6.316   3.828
 9512TIP3    H128500   1.206   6.285   3.814
 9512TIP3    H228501   1.350   6.237   3.825
 9513TIP3   OH228502   5.941   6.533   4.839
 9513TIP3    H128503   5.854   6.505   4.810
 9513TIP3    H228504   5.952   6.490   4.924
 9514TIP3   OH228505   6.517   2.226   0.556
 9514TIP3    H128506   6.438   2.247   0.506
 9514TIP3    H228507   6.567   2.167   0.500
 9515TIP3   OH228508   1.790   4.636   2.011
 9515TIP3    H128509   1.708   4.637   1.962
 9515TIP3    H228510   1.771   4.582   2.088
 9516TIP3   OH228511   5.019   4.600   3.154
 9516TIP3    H128512   5.076   4.649   3.213
 9516TIP3    H228513   5.070   4.591   3.074
 9517TIP3   OH228514   3.961   6.296   4.239
 9517TIP3    H128515   3.885   6.298   4.180
 9517TIP3    H228516   3.991   6.206   4.236
 9518TIP3   OH228517   0.329   6.312   4.733
 9518TIP3    H128518   0.309   6.337   4.823
 9518TIP3    H228519   0.258   6.349   4.681
 9519TIP3   OH228520   5.163   1.972   5.081
 9519TIP3    H128521   5.153   1.910   5.009
 9519TIP3    H228522   5.249   1.951   5.118
 9520TIP3   OH228523   3.246   4.771   4.007
 9520TIP3    H128524   3.224   4.774   4.101
 9520TIP3    H228525   3.337   4.800   4.003
 9521TIP3   OH228526   3.847   2.277   1.772
 9521TIP3    H128527   3.818   2.244   1.858
 9521TIP3    H228528   3.942   2.277   1.777
 9522TIP3   OH228529   4.489   5.339   1.642
 9522TIP3    H128530   4.496   5.380   1.728
 9522TIP3    H228531   4.557   5.382   1.590
 9523TIP3   OH228532   0.697   5.056   3.710
 9523TIP3    H128533   0.745   5.020   3.635
 9523TIP3    H228534   0.764   5.096   3.765
 9524TIP3   OH228535   2.248   1.316   0.423
 9524TIP3    H128536   2.326   1.280   0.381
 9524TIP3    H228537   2.261   1.301   0.516
 9525TIP3   OH228538   2.100   4.158   5.224
 9525TIP3    H128539   2.106   4.086   5.286
 9525TIP3    H228540   2.169   4.141   5.160
 9526TIP3   OH228541   0.625   0.485   1.282
 9526TIP3    H128542   0.645   0.538   1.359
 9526TIP3    H228543   0.691   0.511   1.217
 9527TIP3   OH228544   2.611   2.427   2.060
 9527TIP3    H128545   2.702   2.402   2.075
 9527TIP3    H228546   2.578   2.453   2.146
 9528TIP3   OH228547   0.121   1.009   3.867
 9528TIP3    H128548   0.033   1.037   3.890
 9528TIP3    H228549   0.177   1.045   3.935
 9529TIP3   OH228550   6.608   5.952   1.152
 9529TIP3    H128551   6.607   5.861   1.180
 9529TIP3    H228552   6.566   6.000   1.224
 9530TIP3   OH228553   3.966   0.430   0.450
 9530TIP3    H128554   4.017   0.482   0.513
 9530TIP3    H228555   3.903   0.491   0.413
 9531TIP3   OH228556   1.374   0.218   3.989
 9531TIP3    H128557   1.313   0.226   4.062
 9531TIP3    H228558   1.424   0.139   4.008
 9532TIP3   OH228559   3.198   1.809   1.331
 9532TIP3    H128560   3.277   1.796   1.278
 9532TIP3    H228561   3.225   1.788   1.420
 9533TIP3   OH228562   1.492   5.754   3.402
 9533TIP3    H128563   1.563   5.811   3.371
 9533TIP3    H228564   1.501   5.674   3.349
 9534TIP3   OH228565   6.091   5.042   1.988
 9534TIP3    H128566   6.015   4.983   1.990
 9534TIP3    H228567   6.060   5.119   1.941
 9535TIP3   OH228568   2.249   6.454   1.822
 9535TIP3    H128569   2.314   6.383   1.812
 9535TIP3    H228570   2.191   6.423   1.891
 9536TIP3   OH228571   2.782   4.525   5.725
 9536TIP3    H128572   2.788   4.450   5.784
 9536TIP3    H228573   2.723   4.497   5.656
 9537TIP3   OH228574   4.136   2.114   4.630
 9537TIP3    H128575   4.222   2.074   4.644
 9537TIP3    H228576   4.074   2.045   4.655
 9538TIP3   OH228577   3.752   5.092   0.233
 9538TIP3    H128578   3.694   5.165   0.254
 9538TIP3    H228579   3.815   5.129   0.171
 9539TIP3   OH228580   0.590   2.179   3.817
 9539TIP3    H128581   0.563   2.102   3.867
 9539TIP3    H228582   0.670   2.151   3.771
 9540TIP3   OH228583   4.915   3.034   4.576
 9540TIP3    H128584   4.968   2.983   4.515
 9540TIP3    H228585   4.904   2.976   4.651
 9541TIP3   OH228586   2.307   4.980   3.223
 9541TIP3    H128587   2.273   4.946   3.306
 9541TIP3    H228588   2.331   4.901   3.174
 9542TIP3   OH228589   6.124   0.485   0.166
 9542TIP3    H128590   6.172   0.528   0.095
 9542TIP3    H228591   6.134   0.391   0.149
 9543TIP3   OH228592   7.075   3.930   1.368
 9543TIP3    H128593   7.157   3.928   1.320
 9543TIP3    H228594   7.067   3.842   1.406
 9544TIP3   OH228595   5.935   2.700   0.530
 9544TIP3    H128596   6.021   2.692   0.489
 9544TIP3    H228597   5.880   2.739   0.463
 9545TIP3   OH228598   5.492   1.556   1.802
 9545TIP3    H128599   5.525   1.520   1.884
 9545TIP3    H228600   5.448   1.637   1.827
 9546TIP3   OH228601   1.483   0.418   4.155
 9546TIP3    H128602   1.511   0.335   4.116
 9546TIP3    H228603   1.431   0.460   4.086
 9547TIP3   OH228604   3.262   4.521   3.099
 9547TIP3    H128605   3.331   4.499   3.162
 9547TIP3    H228606   3.212   4.590   3.143
 9548TIP3   OH228607   5.719   5.435   4.718
 9548TIP3    H128608   5.778   5.507   4.699
 9548TIP3    H228609   5.709   5.389   4.634
 9549TIP3   OH228610   2.679   5.029   0.966
 9549TIP3    H128611   2.622   5.105   0.967
 9549TIP3    H228612   2.698   5.012   1.059
 9550TIP3   OH228613   2.576   3.912   0.391
 9550TIP3    H128614   2.536   3.996   0.413
 9550TIP3    H228615   2.505   3.860   0.355
 9551TIP3   OH228616   7.157   6.330   0.709
 9551TIP3    H128617   7.117   6.258   0.661
 9551TIP3    H228618   7.128   6.318   0.799
 9552TIP3   OH228619   1.122   4.916   1.397
 9552TIP3    H128620   1.038   4.870   1.405
 9552TIP3    H228621   1.168   4.871   1.327
 9553TIP3   OH228622   2.396   2.836   1.779
 9553TIP3    H128623   2.302   2.854   1.788
 9553TIP3    H228624   2.417   2.779   1.852
 9554TIP3   OH228625   2.402   1.023   5.167
 9554TIP3    H128626   2.421   1.089   5.233
 9554TIP3    H228627   2.365   0.949   5.216
 9555TIP3   OH228628   1.161   6.218   1.455
 9555TIP3    H128629   1.132   6.210   1.365
 9555TIP3    H228630   1.085   6.250   1.503
 9556TIP3   OH228631   1.382   4.828   5.532
 9556TIP3    H128632   1.384   4.924   5.538
 9556TIP3    H228633   1.305   4.802   5.583
 9557TIP3   OH228634   4.058   4.359   2.671
 9557TIP3    H128635   3.969   4.393   2.663
 9557TIP3    H228636   4.062   4.322   2.759
 9558TIP3   OH228637   3.158   4.329   2.181
 9558TIP3    H128638   3.115   4.382   2.114
 9558TIP3    H228639   3.250   4.324   2.153
 9559TIP3   OH228640   5.313   4.684   1.998
 9559TIP3    H128641   5.275   4.643   1.921
 9559TIP3    H228642   5.345   4.611   2.051
 9560TIP3   OH228643   5.841   4.507   4.718
 9560TIP3    H128644   5.918   4.455   4.743
 9560TIP3    H228645   5.852   4.590   4.765
 9561TIP3   OH228646   1.627   2.144   3.198
 9561TIP3    H128647   1.574   2.221   3.176
 9561TIP3    H228648   1.713   2.161   3.159
 9562TIP3   OH228649   6.642   2.557   0.834
 9562TIP3    H128650   6.567   2.567   0.775
 9562TIP3    H228651   6.667   2.646   0.858
 9563TIP3   OH228652   3.534   5.333   1.018
 9563TIP3    H128653   3.597   5.392   1.060
 9563TIP3    H228654   3.474   5.308   1.088
 9564TIP3   OH228655   5.194   1.891   4.649
 9564TIP3    H128656   5.115   1.937   4.622
 9564TIP3    H228657   5.226   1.939   4.725
 9565TIP3   OH228658   2.643   0.517   2.959
 9565TIP3    H128659   2.707   0.586   2.945
 9565TIP3    H228660   2.663   0.483   3.047
 9566TIP3   OH228661   7.020   3.914   4.383
 9566TIP3    H128662   7.112   3.891   4.367
 9566TIP3    H228663   7.007   3.900   4.476
 9567TIP3   OH228664   3.638   6.132   2.450
 9567TIP3    H128665   3.719   6.149   2.497
 9567TIP3    H228666   3.643   6.039   2.426
 9568TIP3   OH228667   2.159   2.491   0.842
 9568TIP3    H128668   2.229   2.429   0.821
 9568TIP3    H228669   2.142   2.538   0.760
 9569TIP3   OH228670   5.139   6.475   4.540
 9569TIP3    H128671   5.093   6.443   4.618
 9569TIP3    H228672   5.170   6.397   4.495
 9570TIP3   OH228673   4.806   5.808   1.869
 9570TIP3    H128674   4.724   5.826   1.915
 9570TIP3    H228675   4.780   5.797   1.778
 9571TIP3   OH228676   1.955   6.338   5.197
 9571TIP3    H128677   2.018   6.347   5.125
 9571TIP3    H228678   1.879   6.389   5.169
 9572TIP3   OH228679   6.728   4.153   1.002
 9572TIP3    H128680   6.684   4.162   1.087
 9572TIP3    H228681   6.788   4.080   1.014
 9573TIP3   OH228682   2.572   6.310   3.886
 9573TIP3    H128683   2.526   6.338   3.806
 9573TIP3    H228684   2.589   6.217   3.872
 9574TIP3   OH228685   1.583   6.607   5.756
 9574TIP3    H128686   1.659   6.582   5.704
 9574TIP3    H228687   1.611   6.593   5.847
 9575TIP3   OH228688   6.098   2.265   3.434
 9575TIP3    H128689   6.145   2.192   3.474
 9575TIP3    H228690   6.166   2.331   3.416
 9576TIP3   OH228691   5.111   6.614   1.746
 9576TIP3    H128692   5.191   6.667   1.751
 9576TIP3    H228693   5.130   6.549   1.679
 9577TIP3   OH228694   1.391   0.761   5.499
 9577TIP3    H128695   1.435   0.791   5.578
 9577TIP3    H228696   1.321   0.704   5.530
 9578TIP3   OH228697   1.876   6.533   2.452
 9578TIP3    H128698   1.797   6.566   2.496
 9578TIP3    H228699   1.914   6.610   2.410
 9579TIP3   OH228700   3.279   3.397   4.573
 9579TIP3    H128701   3.339   3.471   4.567
 9579TIP3    H228702   3.252   3.381   4.483
 9580TIP3   OH228703   2.088   5.943   3.508
 9580TIP3    H128704   2.014   5.907   3.459
 9580TIP3    H228705   2.165   5.900   3.472
 9581TIP3   OH228706   2.721   4.983   1.255
 9581TIP3    H128707   2.795   5.043   1.258
 9581TIP3    H228708   2.672   5.001   1.335
 9582TIP3   OH228709   6.444   2.739   3.936
 9582TIP3    H128710   6.529   2.777   3.960
 9582TIP3    H228711   6.464   2.647   3.916
 9583TIP3   OH228712   2.299   1.835   5.205
 9583TIP3    H128713   2.253   1.915   5.178
 9583TIP3    H228714   2.232   1.767   5.203
 9584TIP3   OH228715   6.851   1.939   1.965
 9584TIP3    H128716   6.914   2.009   1.950
 9584TIP3    H228717   6.884   1.892   2.041
 9585TIP3   OH228718   6.100   3.819   1.114
 9585TIP3    H128719   6.031   3.754   1.100
 9585TIP3    H228720   6.180   3.777   1.082
 9586TIP3   OH228721   0.310   6.744   4.634
 9586TIP3    H128722   0.355   6.820   4.670
 9586TIP3    H228723   0.377   6.697   4.585
 9587TIP3   OH228724   1.235   2.885   2.231
 9587TIP3    H128725   1.305   2.823   2.214
 9587TIP3    H228726   1.165   2.832   2.269
 9588TIP3   OH228727   6.312   4.956   5.099
 9588TIP3    H128728   6.397   4.927   5.067
 9588TIP3    H228729   6.257   4.963   5.020
 9589TIP3   OH228730   2.835   3.182   0.064
 9589TIP3    H128731   2.773   3.252   0.044
 9589TIP3    H228732   2.869   3.205   0.150
 9590TIP3   OH228733   3.088   1.723   3.194
 9590TIP3    H128734   3.049   1.769   3.268
 9590TIP3    H228735   3.014   1.697   3.140
 9591TIP3   OH228736   1.678   3.543   5.302
 9591TIP3    H128737   1.682   3.570   5.210
 9591TIP3    H228738   1.733   3.606   5.348
 9592TIP3   OH228739   3.213   5.710   5.480
 9592TIP3    H128740   3.182   5.619   5.474
 9592TIP3    H228741   3.249   5.717   5.568
 9593TIP3   OH228742   3.165   2.394   5.440
 9593TIP3    H128743   3.162   2.363   5.350
 9593TIP3    H228744   3.257   2.419   5.453
 9594TIP3   OH228745   0.534   0.899   1.535
 9594TIP3    H128746   0.589   0.976   1.549
 9594TIP3    H228747   0.449   0.934   1.511
 9595TIP3   OH228748   2.093   5.790   2.020
 9595TIP3    H128749   2.148   5.721   1.983
 9595TIP3    H228750   2.092   5.859   1.954
 9596TIP3   OH228751   6.316   0.933  -0.040
 9596TIP3    H128752   6.326   0.992   0.035
 9596TIP3    H228753   6.222   0.922  -0.050
 9597TIP3   OH228754   2.000   4.451   0.846
 9597TIP3    H128755   2.085   4.410   0.830
 9597TIP3    H228756   2.012   4.497   0.929
 9598TIP3   OH228757   5.786   2.657   2.409
 9598TIP3    H128758   5.828   2.742   2.418
 9598TIP3    H228759   5.755   2.655   2.319
 9599TIP3   OH228760   4.386   4.460   1.429
 9599TIP3    H128761   4.456   4.485   1.489
 9599TIP3    H228762   4.313   4.436   1.485
 9600TIP3   OH228763   1.701   1.096   0.240
 9600TIP3    H128764   1.747   1.085   0.157
 9600TIP3    H228765   1.687   1.190   0.247
 9601TIP3   OH228766   1.717   4.514   3.626
 9601TIP3    H128767   1.720   4.420   3.611
 9601TIP3    H228768   1.663   4.524   3.705
 9602TIP3   OH228769   4.164   2.688   4.010
 9602TIP3    H128770   4.139   2.617   4.070
 9602TIP3    H228771   4.085   2.706   3.960
 9603TIP3   OH228772   3.931   5.605   2.562
 9603TIP3    H128773   3.957   5.697   2.554
 9603TIP3    H228774   3.845   5.601   2.522
 9604TIP3   OH228775   4.287   3.011   4.870
 9604TIP3    H128776   4.197   3.044   4.871
 9604TIP3    H228777   4.301   2.978   4.781
 9605TIP3   OH228778   3.793   1.328   4.144
 9605TIP3    H128779   3.782   1.420   4.120
 9605TIP3    H228780   3.824   1.286   4.063
 9606TIP3   OH228781   1.692   0.664   1.789
 9606TIP3    H128782   1.657   0.700   1.707
 9606TIP3    H228783   1.675   0.733   1.854
 9607TIP3   OH228784   4.384   6.488   3.204
 9607TIP3    H128785   4.425   6.574   3.197
 9607TIP3    H228786   4.408   6.443   3.123
 9608TIP3   OH228787   2.446   4.428   3.591
 9608TIP3    H128788   2.477   4.465   3.508
 9608TIP3    H228789   2.355   4.455   3.597
 9609TIP3   OH228790   4.156   1.518   0.519
 9609TIP3    H128791   4.139   1.590   0.458
 9609TIP3    H228792   4.111   1.544   0.600
 9610TIP3   OH228793   1.192   5.462   2.407
 9610TIP3    H128794   1.258   5.425   2.349
 9610TIP3    H228795   1.109   5.433   2.371
 9611TIP3   OH228796   1.818   2.481   1.775
 9611TIP3    H128797   1.742   2.436   1.811
 9611TIP3    H228798   1.826   2.561   1.827
 9612TIP3   OH228799   4.964   6.361   3.892
 9612TIP3    H128800   4.903   6.385   3.962
 9612TIP3    H228801   5.050   6.366   3.934
 9613TIP3   OH228802   3.751   6.558   2.567
 9613TIP3    H128803   3.750   6.602   2.482
 9613TIP3    H228804   3.810   6.483   2.554
 9614TIP3   OH228805   3.623   5.331   2.953
 9614TIP3    H128806   3.714   5.343   2.978
 9614TIP3    H228807   3.606   5.237   2.968
 9615TIP3   OH228808   6.989   6.764   0.879
 9615TIP3    H128809   6.971   6.671   0.866
 9615TIP3    H228810   6.938   6.808   0.811
 9616TIP3   OH228811   6.854   2.910   4.682
 9616TIP3    H128812   6.781   2.953   4.727
 9616TIP3    H228813   6.857   2.822   4.718
 9617TIP3   OH228814   0.005   5.907   2.053
 9617TIP3    H128815  -0.035   5.986   2.091
 9617TIP3    H228816  -0.031   5.835   2.104
 9618TIP3   OH228817   6.048   0.695   3.186
 9618TIP3    H128818   6.072   0.662   3.099
 9618TIP3    H228819   6.099   0.775   3.196
 9619TIP3   OH228820   7.202   0.418   3.298
 9619TIP3    H128821   7.191   0.485   3.365
 9619TIP3    H228822   7.295   0.419   3.277
 9620TIP3   OH228823   4.342   3.036   5.854
 9620TIP3    H128824   4.434   3.011   5.856
 9620TIP3    H228825   4.298   2.962   5.810
 9621TIP3   OH228826   1.423   2.168   3.994
 9621TIP3    H128827   1.467   2.228   3.932
 9621TIP3    H228828   1.399   2.093   3.940
 9622TIP3   OH228829   4.872   1.467   0.540
 9622TIP3    H128830   4.818   1.424   0.607
 9622TIP3    H228831   4.960   1.434   0.555
 9623TIP3   OH228832   5.844   5.069   4.240
 9623TIP3    H128833   5.881   4.990   4.280
 9623TIP3    H228834   5.921   5.120   4.214
 9624TIP3   OH228835   2.505   4.625   0.366
 9624TIP3    H128836   2.555   4.706   0.370
 9624TIP3    H228837   2.484   4.605   0.457
 9625TIP3   OH228838   6.166   6.005   1.032
 9625TIP3    H128839   6.097   5.952   1.073
 9625TIP3    H228840   6.119   6.067   0.976
 9626TIP3   OH228841   3.087   4.358   4.460
 9626TIP3    H128842   3.040   4.375   4.378
 9626TIP3    H228843   3.056   4.426   4.520
 9627TIP3   OH228844   2.529   0.298   4.193
 9627TIP3    H128845   2.615   0.316   4.156
 9627TIP3    H228846   2.530   0.204   4.212
 9628TIP3   OH228847   0.733   1.588   5.219
 9628TIP3    H128848   0.793   1.616   5.150
 9628TIP3    H228849   0.660   1.547   5.171
 9629TIP3   OH228850   1.898   0.180   4.627
 9629TIP3    H128851   1.980   0.168   4.676
 9629TIP3    H228852   1.919   0.243   4.559
 9630TIP3   OH228853   6.040   3.339   3.339
 9630TIP3    H128854   6.060   3.356   3.431
 9630TIP3    H228855   5.954   3.297   3.341
 9631TIP3   OH228856   0.361   6.629   1.529
 9631TIP3    H128857   0.435   6.577   1.497
 9631TIP3    H228858   0.285   6.597   1.480
 9632TIP3   OH228859   5.931   1.989   4.368
 9632TIP3    H128860   5.876   2.062   4.342
 9632TIP3    H228861   6.016   2.029   4.388
 9633TIP3   OH228862   5.289   0.409   0.613
 9633TIP3    H128863   5.210   0.382   0.566
 9633TIP3    H228864   5.267   0.402   0.705
 9634TIP3   OH228865   2.046   0.177   3.876
 9634TIP3    H128866   2.090   0.231   3.942
 9634TIP3    H228867   2.115   0.120   3.841
 9635TIP3   OH228868   5.627   6.609   0.633
 9635TIP3    H128869   5.672   6.681   0.590
 9635TIP3    H228870   5.657   6.530   0.587
 9636TIP3   OH228871   1.714   1.658   4.306
 9636TIP3    H128872   1.798   1.676   4.348
 9636TIP3    H228873   1.670   1.597   4.366
 9637TIP3   OH228874   0.180   2.423   0.874
 9637TIP3    H128875   0.101   2.371   0.887
 9637TIP3    H228876   0.157   2.485   0.805
 9638TIP3   OH228877   6.788   4.071   0.429
 9638TIP3    H128878   6.723   4.014   0.388
 9638TIP3    H228879   6.760   4.078   0.520
 9639TIP3   OH228880   7.166   5.905   0.530
 9639TIP3    H128881   7.189   5.876   0.618
 9639TIP3    H228882   7.134   5.826   0.486
 9640TIP3   OH228883   6.226   3.121   4.035
 9640TIP3    H128884   6.222   3.030   4.006
 9640TIP3    H228885   6.299   3.124   4.097
 9641TIP3   OH228886   1.921   1.931   4.608
 9641TIP3    H128887   1.908   1.965   4.697
 9641TIP3    H228888   1.838   1.890   4.586
 9642TIP3   OH228889   5.579   6.136   2.899
 9642TIP3    H128890   5.590   6.204   2.833
 9642TIP3    H228891   5.491   6.150   2.934
 9643TIP3   OH228892   4.313   4.529   2.954
 9643TIP3    H128893   4.361   4.449   2.932
 9643TIP3    H228894   4.221   4.505   2.946
 9644TIP3   OH228895   0.371   0.696   1.412
 9644TIP3    H128896   0.338   0.621   1.362
 9644TIP3    H228897   0.464   0.679   1.421
 9645TIP3   OH228898   5.814   0.872   0.211
 9645TIP3    H128899   5.723   0.841   0.211
 9645TIP3    H228900   5.811   0.955   0.258
 9646TIP3   OH228901   2.597   5.221   4.114
 9646TIP3    H128902   2.625   5.253   4.028
 9646TIP3    H228903   2.566   5.132   4.098
 9647TIP3   OH228904   6.393   1.941   0.309
 9647TIP3    H128905   6.321   2.004   0.321
 9647TIP3    H228906   6.460   1.970   0.371
 9648TIP3   OH228907   3.295   5.208   0.392
 9648TIP3    H128908   3.308   5.173   0.480
 9648TIP3    H228909   3.316   5.301   0.400
 9649TIP3   OH228910   0.603   2.328   5.656
 9649TIP3    H128911   0.629   2.265   5.588
 9649TIP3    H228912   0.507   2.327   5.654
 9650TIP3   OH228913   5.737   6.050   0.717
 9650TIP3    H128914   5.687   6.106   0.777
 9650TIP3    H228915   5.690   6.056   0.634
 9651TIP3   OH228916   2.564   5.539   1.062
 9651TIP3    H128917   2.487   5.482   1.062
 9651TIP3    H228918   2.608   5.521   0.980
 9652TIP3   OH228919   5.386   6.726   0.097
 9652TIP3    H128920   5.437   6.752   0.020
 9652TIP3    H228921   5.295   6.727   0.067
 9653TIP3   OH228922   3.255   4.626   1.529
 9653TIP3    H128923   3.279   4.719   1.525
 9653TIP3    H228924   3.323   4.586   1.582
 9654TIP3   OH228925   2.238   1.144   4.476
 9654TIP3    H128926   2.309   1.086   4.503
 9654TIP3    H228927   2.249   1.222   4.529
 9655TIP3   OH228928   2.296   6.350   2.468
 9655TIP3    H128929   2.248   6.327   2.389
 9655TIP3    H228930   2.228   6.369   2.533
 9656TIP3   OH228931   4.083   1.720   4.982
 9656TIP3    H128932   4.063   1.813   4.974
 9656TIP3    H228933   4.004   1.676   4.950
 9657TIP3   OH228934   5.921   2.923   5.684
 9657TIP3    H128935   5.875   2.994   5.730
 9657TIP3    H228936   5.867   2.905   5.607
 9658TIP3   OH228937   6.104   4.760   4.810
 9658TIP3    H128938   6.171   4.829   4.809
 9658TIP3    H228939   6.027   4.803   4.846
 9659TIP3   OH228940   5.392   1.492   2.880
 9659TIP3    H128941   5.370   1.585   2.876
 9659TIP3    H228942   5.307   1.448   2.884
 9660TIP3   OH228943   3.983   1.290   0.734
 9660TIP3    H128944   3.943   1.301   0.821
 9660TIP3    H228945   3.930   1.222   0.692
 9661TIP3   OH228946   3.178   5.637   4.569
 9661TIP3    H128947   3.156   5.561   4.623
 9661TIP3    H228948   3.250   5.607   4.514
 9662TIP3   OH228949   4.316   1.831   4.269
 9662TIP3    H128950   4.260   1.906   4.288
 9662TIP3    H228951   4.357   1.852   4.185
 9663TIP3   OH228952   1.861   0.136   0.406
 9663TIP3    H128953   1.945   0.151   0.450
 9663TIP3    H228954   1.820   0.223   0.402
 9664TIP3   OH228955   2.242   6.220   0.740
 9664TIP3    H128956   2.243   6.125   0.750
 9664TIP3    H228957   2.170   6.249   0.796
 9665TIP3   OH228958   3.785   4.809   1.959
 9665TIP3    H128959   3.747   4.891   1.926
 9665TIP3    H228960   3.786   4.751   1.883
 9666TIP3   OH228961   2.094   0.274   4.815
 9666TIP3    H128962   2.065   0.364   4.824
 9666TIP3    H228963   2.055   0.228   4.890
 9667TIP3   OH228964   2.187   0.804   4.523
 9667TIP3    H128965   2.237   0.785   4.603
 9667TIP3    H228966   2.156   0.894   4.535
 9668TIP3   OH228967   3.407   4.047   5.831
 9668TIP3    H128968   3.439   3.957   5.834
 9668TIP3    H228969   3.455   4.091   5.901
 9669TIP3   OH228970   1.960   4.716   4.194
 9669TIP3    H128971   2.038   4.662   4.202
 9669TIP3    H228972   1.975   4.788   4.255
 9670TIP3   OH228973   4.246   6.625   5.539
 9670TIP3    H128974   4.182   6.682   5.496
 9670TIP3    H228975   4.209   6.607   5.625
 9671TIP3   OH228976   7.027   5.505   4.537
 9671TIP3    H128977   7.043   5.598   4.520
 9671TIP3    H228978   7.033   5.464   4.451
 9672TIP3   OH228979   2.099   4.101   1.323
 9672TIP3    H128980   2.146   4.017   1.328
 9672TIP3    H228981   2.168   4.165   1.305
 9673TIP3   OH228982   4.060   3.502   1.542
 9673TIP3    H128983   4.122   3.494   1.470
 9673TIP3    H228984   3.975   3.482   1.503
 9674TIP3   OH228985   3.873   2.205   3.876
 9674TIP3    H128986   3.889   2.267   3.947
 9674TIP3    H228987   3.859   2.261   3.799
 9675TIP3   OH228988   1.739   2.373   5.836
 9675TIP3    H128989   1.647   2.398   5.841
 9675TIP3    H228990   1.780   2.443   5.784
 9676TIP3   OH228991   4.471   2.968   2.686
 9676TIP3    H128992   4.520   2.895   2.725
 9676TIP3    H228993   4.471   2.949   2.592
 9677TIP3   OH228994   0.035   6.287   2.080
 9677TIP3    H128995   0.119   6.255   2.112
 9677TIP3    H228996   0.045   6.382   2.078
 9678TIP3   OH228997   6.127   6.446   0.859
 9678TIP3    H128998   6.183   6.376   0.826
 9678TIP3    H228999   6.174   6.481   0.935
 9679TIP3   OH229000   2.325   3.772   2.005
 9679TIP3    H129001   2.307   3.806   2.093
 9679TIP3    H229002   2.324   3.677   2.015
 9680TIP3   OH229003   3.006   4.251   0.698
 9680TIP3    H129004   3.056   4.172   0.719
 9680TIP3    H229005   3.049   4.287   0.621
 9681TIP3   OH229006   0.884   5.389   5.819
 9681TIP3    H129007   0.828   5.367   5.745
 9681TIP3    H229008   0.921   5.305   5.847
 9682TIP3   OH229009   3.936   0.854   4.662
 9682TIP3    H129010   3.878   0.927   4.642
 9682TIP3    H229011   3.909   0.823   4.748
 9683TIP3   OH229012   6.751   5.901   0.510
 9683TIP3    H129013   6.795   5.917   0.427
 9683TIP3    H229014   6.772   5.978   0.564
 9684TIP3   OH229015   3.524   4.138   1.269
 9684TIP3    H129016   3.563   4.197   1.334
 9684TIP3    H229017   3.556   4.172   1.185
 9685TIP3   OH229018   6.025   4.588   2.670
 9685TIP3    H129019   5.982   4.543   2.597
 9685TIP3    H229020   5.969   4.571   2.746
 9686TIP3   OH229021   4.908   1.590   2.183
 9686TIP3    H129022   4.873   1.606   2.096
 9686TIP3    H229023   4.869   1.659   2.238
 9687TIP3   OH229024   3.823   3.219   3.293
 9687TIP3    H129025   3.896   3.229   3.232
 9687TIP3    H229026   3.761   3.288   3.268
 9688TIP3   OH229027   3.359   3.632   3.772
 9688TIP3    H129028   3.347   3.624   3.867
 9688TIP3    H229029   3.340   3.544   3.738
 9689TIP3   OH229030   0.181   1.832   5.478
 9689TIP3    H129031   0.238   1.905   5.454
 9689TIP3    H229032   0.121   1.868   5.542
 9690TIP3   OH229033   5.507   5.427   2.361
 9690TIP3    H129034   5.546   5.499   2.312
 9690TIP3    H229035   5.416   5.454   2.375
 9691TIP3   OH229036   3.699   1.401   1.640
 9691TIP3    H129037   3.738   1.420   1.555
 9691TIP3    H229038   3.690   1.306   1.641
 9692TIP3   OH229039   3.520   1.264   2.095
 9692TIP3    H129040   3.546   1.354   2.114
 9692TIP3    H229041   3.498   1.227   2.181
 9693TIP3   OH229042   1.217   5.769   0.913
 9693TIP3    H129043   1.213   5.749   0.820
 9693TIP3    H229044   1.125   5.777   0.940
 9694TIP3   OH229045   6.711   6.659   2.021
 9694TIP3    H129046   6.647   6.725   1.993
 9694TIP3    H229047   6.670   6.575   1.999
 9695TIP3   OH229048   1.215   0.430   2.460
 9695TIP3    H129049   1.239   0.362   2.396
 9695TIP3    H229050   1.183   0.503   2.406
 9696TIP3   OH229051   1.568   4.605   0.784
 9696TIP3    H129052   1.536   4.684   0.740
 9696TIP3    H229053   1.652   4.587   0.742
 9697TIP3   OH229054   0.145   6.203   4.926
 9697TIP3    H129055   0.092   6.159   4.860
 9697TIP3    H229056   0.097   6.283   4.946
 9698TIP3   OH229057   0.319   2.209   4.739
 9698TIP3    H129058   0.253   2.164   4.792
 9698TIP3    H229059   0.308   2.302   4.760
 9699TIP3   OH229060   1.139   4.345   0.791
 9699TIP3    H129061   1.125   4.335   0.885
 9699TIP3    H229062   1.092   4.271   0.752
 9700TIP3   OH229063   2.129   1.979   1.186
 9700TIP3    H129064   2.153   2.054   1.131
 9700TIP3    H229065   2.187   1.909   1.156
 9701TIP3   OH229066   6.123   2.008   5.726
 9701TIP3    H129067   6.123   1.954   5.805
 9701TIP3    H229068   6.205   1.986   5.682
 9702TIP3   OH229069   6.288   3.643   5.436
 9702TIP3    H129070   6.274   3.608   5.348
 9702TIP3    H229071   6.379   3.671   5.436
 9703TIP3   OH229072   2.294   5.442   0.008
 9703TIP3    H129073   2.310   5.503  -0.064
 9703TIP3    H229074   2.333   5.485   0.084
 9704TIP3   OH229075   3.169   3.009   4.402
 9704TIP3    H129076   3.168   2.914   4.414
 9704TIP3    H229077   3.242   3.025   4.343
 9705TIP3   OH229078   2.336   5.535   3.293
 9705TIP3    H129079   2.310   5.589   3.368
 9705TIP3    H229080   2.292   5.452   3.307
 9706TIP3   OH229081   0.981   5.098   5.183
 9706TIP3    H129082   0.899   5.050   5.171
 9706TIP3    H229083   0.964   5.156   5.258
 9707TIP3   OH229084   0.289   2.978   1.353
 9707TIP3    H129085   0.243   2.899   1.323
 9707TIP3    H229086   0.253   3.048   1.298
 9708TIP3   OH229087   6.034   3.869   1.634
 9708TIP3    H129088   6.049   3.863   1.539
 9708TIP3    H229089   6.073   3.789   1.669
 9709TIP3   OH229090   1.902   2.366   4.590
 9709TIP3    H129091   1.961   2.412   4.531
 9709TIP3    H229092   1.821   2.416   4.587
 9710TIP3   OH229093   4.448   4.276   0.137
 9710TIP3    H129094   4.461   4.201   0.196
 9710TIP3    H229095   4.493   4.348   0.180
 9711TIP3   OH229096   0.990   2.600   1.304
 9711TIP3    H129097   0.949   2.634   1.383
 9711TIP3    H229098   0.917   2.584   1.244
 9712TIP3   OH229099   3.280   0.281   3.551
 9712TIP3    H129100   3.341   0.270   3.624
 9712TIP3    H229101   3.222   0.352   3.577
 9713TIP3   OH229102   4.970   1.935   2.258
 9713TIP3    H129103   5.020   1.966   2.183
 9713TIP3    H229104   5.029   1.875   2.304
 9714TIP3   OH229105   6.779   0.784   0.098
 9714TIP3    H129106   6.865   0.746   0.113
 9714TIP3    H229107   6.797   0.868   0.057
 9715TIP3   OH229108   1.203   3.282   4.147
 9715TIP3    H129109   1.292   3.285   4.111
 9715TIP3    H229110   1.195   3.193   4.181
 9716TIP3   OH229111   2.735   0.147   3.029
 9716TIP3    H129112   2.714   0.219   3.088
 9716TIP3    H229113   2.748   0.072   3.086
 9717TIP3   OH229114   1.676   4.913   1.071
 9717TIP3    H129115   1.616   4.967   1.123
 9717TIP3    H229116   1.643   4.920   0.981
 9718TIP3   OH229117   5.147   0.081   4.632
 9718TIP3    H129118   5.108   0.116   4.552
 9718TIP3    H229119   5.235   0.118   4.633
 9719TIP3   OH229120   0.085   1.993   2.110
 9719TIP3    H129121   0.047   1.917   2.155
 9719TIP3    H229122   0.015   2.026   2.054
 9720TIP3   OH229123   6.741   3.618   0.825
 9720TIP3    H129124   6.750   3.659   0.739
 9720TIP3    H229125   6.694   3.683   0.877
 9721TIP3   OH229126   5.729   3.877   1.945
 9721TIP3    H129127   5.774   3.906   1.866
 9721TIP3    H229128   5.727   3.781   1.938
 9722TIP3   OH229129   3.204   4.802   3.742
 9722TIP3    H129130   3.199   4.707   3.733
 9722TIP3    H229131   3.226   4.817   3.834
 9723TIP3   OH229132   0.371   3.194   5.503
 9723TIP3    H129133   0.324   3.181   5.585
 9723TIP3    H229134   0.344   3.281   5.473
 9724TIP3   OH229135   3.171   1.349   2.597
 9724TIP3    H129136   3.163   1.266   2.550
 9724TIP3    H229137   3.237   1.398   2.547
 9725TIP3   OH229138   4.859   1.547   0.902
 9725TIP3    H129139   4.806   1.624   0.923
 9725TIP3    H229140   4.821   1.513   0.821
 9726TIP3   OH229141   2.670   4.289   3.527
 9726TIP3    H129142   2.597   4.342   3.560
 9726TIP3    H229143   2.640   4.257   3.442
 9727TIP3   OH229144   0.339   5.982   4.696
 9727TIP3    H129145   0.254   5.976   4.653
 9727TIP3    H229146   0.351   6.076   4.712
 9728TIP3   OH229147   3.659   1.200   0.730
 9728TIP3    H129148   3.729   1.153   0.685
 9728TIP3    H229149   3.664   1.289   0.696
 9729TIP3   OH229150   0.566   2.078   1.022
 9729TIP3    H129151   0.605   2.164   1.006
 9729TIP3    H229152   0.616   2.018   0.967
 9730TIP3   OH229153   2.690   0.800   2.873
 9730TIP3    H129154   2.637   0.801   2.953
 9730TIP3    H229155   2.779   0.815   2.904
 9731TIP3   OH229156   6.935   2.703   4.853
 9731TIP3    H129157   6.876   2.627   4.858
 9731TIP3    H229158   7.022   2.665   4.842
 9732TIP3   OH229159   4.264   1.403   5.818
 9732TIP3    H129160   4.329   1.455   5.772
 9732TIP3    H229161   4.185   1.411   5.764
 9733TIP3   OH229162   4.294   3.805   5.698
 9733TIP3    H129163   4.298   3.901   5.705
 9733TIP3    H229164   4.299   3.788   5.604
 9734TIP3   OH229165   1.384   3.652   2.183
 9734TIP3    H129166   1.407   3.605   2.103
 9734TIP3    H229167   1.456   3.634   2.243
 9735TIP3   OH229168   6.955   4.960   3.705
 9735TIP3    H129169   6.967   4.892   3.639
 9735TIP3    H229170   7.024   5.023   3.687
 9736TIP3   OH229171   5.544   4.489   5.177
 9736TIP3    H129172   5.475   4.536   5.130
 9736TIP3    H229173   5.620   4.493   5.118
 9737TIP3   OH229174   4.699   1.630   1.558
 9737TIP3    H129175   4.764   1.663   1.620
 9737TIP3    H229176   4.724   1.669   1.475
 9738TIP3   OH229177   6.007   2.940   1.366
 9738TIP3    H129178   6.042   2.861   1.406
 9738TIP3    H229179   6.015   2.926   1.272
 9739TIP3   OH229180   1.550   2.549   0.600
 9739TIP3    H129181   1.604   2.620   0.637
 9739TIP3    H229182   1.509   2.509   0.676
 9740TIP3   OH229183   1.565   5.056   5.785
 9740TIP3    H129184   1.582   5.112   5.709
 9740TIP3    H229185   1.635   5.077   5.846
 9741TIP3   OH229186   0.807   0.850   4.476
 9741TIP3    H129187   0.724   0.872   4.519
 9741TIP3    H229188   0.874   0.883   4.536
 9742TIP3   OH229189   3.172   6.028   0.883
 9742TIP3    H129190   3.137   6.002   0.967
 9742TIP3    H229191   3.172   5.948   0.830
 9743TIP3   OH229192   0.539   5.734   4.868
 9743TIP3    H129193   0.471   5.783   4.915
 9743TIP3    H229194   0.574   5.797   4.806
 9744TIP3   OH229195   3.512   6.600   5.504
 9744TIP3    H129196   3.421   6.630   5.510
 9744TIP3    H229197   3.530   6.559   5.589
 9745TIP3   OH229198   6.263   1.047   4.535
 9745TIP3    H129199   6.173   1.063   4.562
 9745TIP3    H229200   6.273   0.952   4.540
 9746TIP3   OH229201   1.753   5.233   0.336
 9746TIP3    H129202   1.810   5.173   0.383
 9746TIP3    H229203   1.700   5.274   0.404
 9747TIP3   OH229204   6.240   4.127   4.458
 9747TIP3    H129205   6.228   4.192   4.389
 9747TIP3    H229206   6.321   4.153   4.502
 9748TIP3   OH229207   3.032   2.396   1.603
 9748TIP3    H129208   3.058   2.469   1.547
 9748TIP3    H229209   2.938   2.387   1.588
 9749TIP3   OH229210   0.170   1.474   1.765
 9749TIP3    H129211   0.174   1.567   1.786
 9749TIP3    H229212   0.260   1.450   1.744
   7.21143   6.79901   5.88810   0.00000   0.00000  -2.40382   0.00000  -2.40382  -3.39950
